8
Step 0
1 1  0.000000000000e+00   0.000000000000e+00   0.000000000000e+00 
2 1  0.000000000000e+00   0.000000000000e+00   0.000000000000e+00 
3 1  0.000000000000e+00   0.000000000000e+00   0.000000000000e+00 
4 1  0.000000000000e+00   0.000000000000e+00   0.000000000000e+00 
5 1  0.000000000000e+00   0.000000000000e+00   0.000000000000e+00 
6 1  0.000000000000e+00   0.000000000000e+00   0.000000000000e+00 
7 1  0.000000000000e+00   0.000000000000e+00   0.000000000000e+00 
8 1  0.000000000000e+00   0.000000000000e+00   0.000000000000e+00 
8
Step 100
1 1  1.656400177251e-03   1.356748582567e-03   1.006509075305e-03 
2 1  1.448765949783e-03  -1.334473355449e-03   6.737908680353e-04 
3 1  8.838235734799e-04  -1.681281845815e-03   9.344161743855e-04 
4 1 -2.041442625230e-03  -1.353087491569e-03   2.860601339890e-04 
5 1  1.583904621170e-03  -5.517517993609e-04  -4.468256565985e-04 
6 1 -4.211410191573e-04  -1.810805650560e-03  -1.736411314714e-03 
7 1 -7.127347520306e-05  -1.907592971040e-03  -2.440768740087e-03 
8 1  3.791087465004e-04  -9.447140360635e-04  -2.888509980107e-03 
8
Step 200
1 1  5.602816336797e-04   4.638927177592e-05  -4.792340204039e-04 
2 1  4.917870586291e-04   8.319151068223e-05   2.234691170419e-04 
3 1 -1.801838321405e-04  -5.390809944000e-04  -4.920582877978e-04 
4 1  4.520245973312e-04  -2.671122313140e-04   6.507006571500e-04 
5 1  7.799579182218e-05  -4.859001685832e-04  -5.594831361323e-04 
6 1 -2.940812336912e-04   2.922988143186e-04  -3.038376671072e-04 
7 1  4.330915559374e-04  -4.499774743954e-04   1.576281863594e-04 
8 1  6.188624321842e-04  -5.296540440563e-04   6.503429737750e-04 
8
Step 300
1 1 -3.028549184868e-04  -3.551120874682e-04  -8.394616403935e-04 
2 1  9.745083994816e-05   7.239313959993e-04  -2.482634013818e-04 
3 1 -5.390452165799e-04   1.929356283794e-04  -6.326081035774e-04 
4 1  9.896329162574e-04   5.148065556885e-06   4.212501792967e-04 
5 1 -5.165156842832e-04  -1.348160450187e-04  -2.464387304839e-04 
6 1 -6.616490268979e-05   7.859101121515e-04   2.763868996399e-04 
7 1  4.836177017953e-04   6.397878179055e-05   1.191761956754e-03 
8 1  4.168269253930e-04  -3.344257561154e-04   1.235291952722e-03 
8
Step 400
1 1 -5.974140794891e-04  -1.403723914391e-04  -4.269046296220e-04 
2 1  1.435550831091e-04   6.926038962264e-04  -2.862887885423e-04 
3 1 -4.395495654159e-04   2.854356461831e-04   1.738262774614e-05 
4 1  3.896579795026e-04  -1.551999146844e-04  -2.542171956968e-05 
5 1 -3.480038692838e-04   8.134311846332e-05   3.071208174357e-04 
6 1  1.511703669473e-05   1.337437095016e-04   1.837703735414e-04 
7 1  1.889202866399e-04   2.890049607951e-04   7.645857316601e-04 
8 1  2.030076574607e-04  -1.059389905798e-04   3.916711176274e-04 
8
Step 500
1 1 -3.617821275729e-04  -8.360098654602e-05   8.665119585303e-05 
2 1  1.411911523547e-04   2.004323537746e-04  -1.797067828070e-04 
3 1 -2.210666580947e-04  -7.745935955579e-05   4.124150742432e-04 
4 1  8.694655800882e-05  -1.528313174150e-04  -2.092559745206e-04 
5 1 -4.328928944245e-05   1.447647849727e-04   3.815310692079e-04 
6 1  2.065328417953e-04  -3.553900726700e-04   4.637993721404e-05 
7 1  8.919959390319e-06   2.188599961321e-04   2.908391367817e-05 
8 1  4.982333695988e-05   2.716223777768e-05  -2.077760555048e-04 
8
Step 600
1 1 -5.049242107226e-06  -7.501063147022e-05   4.942781235409e-05 
2 1  1.245610738871e-04  -1.150018297745e-04   5.501193443915e-06 
3 1 -3.959574457006e-05  -1.638137294949e-04   3.441120969423e-04 
4 1  7.433268424742e-06   4.017855868694e-05  -1.099527566994e-04 
5 1  2.220771566429e-04   2.147328495090e-05   1.825639507599e-04 
6 1 -9.083771060843e-06  -4.312838200653e-04  -1.132947765746e-05 
7 1  1.055112369323e-05   2.210453136433e-04  -4.512177017225e-04 
8 1 -6.437012058075e-05   6.057073422985e-05  -1.533263029733e-04 
8
Step 700
1 1  2.043817163700e-05   7.797371577301e-05  -7.241131234357e-05 
2 1  1.369026715648e-04  -2.316949966764e-04   1.272571976309e-04 
3 1  9.868268570669e-05  -9.994697184153e-06   1.416884083198e-04 
4 1  1.313424305876e-04   4.094578000551e-05   7.069742290894e-05 
5 1  1.734385510372e-04  -5.094474535962e-05  -4.528694925328e-05 
6 1 -2.404394678649e-04  -2.605743069263e-04   2.754922965740e-05 
7 1  9.386407541402e-05   3.374448882975e-04  -3.461110747747e-04 
8 1 -1.082494628240e-04   1.899243620820e-04   4.939211413554e-05 
8
Step 800
1 1 -8.892580245392e-05   1.258036578408e-04  -2.516808767614e-04 
2 1  5.775576619634e-05  -2.289026186734e-04   5.646732767091e-05 
3 1  2.859653349686e-05   1.515911252058e-04  -7.148460897880e-05 
4 1  1.925364209115e-04  -1.142445703484e-05   6.364774026488e-05 
5 1  6.510105830906e-05  -6.614746887335e-05  -2.221503143455e-04 
6 1 -1.462637623950e-04  -5.086093225493e-05   7.678285461123e-06 
7 1  1.505249129622e-04   9.317015331755e-05  -1.448232105545e-04 
8 1 -1.806890163867e-04   4.095658004556e-04   1.125127010202e-04 
8
Step 900
1 1 -2.161951012538e-04   2.139003156228e-04  -1.890495792091e-04 
2 1  6.151424977233e-05  -1.242356341061e-04  -7.657807167334e-05 
3 1 -8.942666668019e-05   4.014921626790e-05  -2.432025123558e-05 
4 1  3.740219471228e-04   5.426959152778e-06  -1.034248610423e-04 
5 1  9.955389178172e-06  -7.336619705687e-05  -2.602610228426e-04 
6 1  1.045730008566e-04   6.555077490445e-05   5.276212456882e-05 
7 1 -2.863337763633e-05  -1.201117772326e-04  -2.061687623630e-04 
8 1 -8.485844027234e-05   2.574741553410e-04   5.900622433485e-05 
8
Step 1000
1 1 -1.871722015529e-04   7.556576063334e-05  -1.579581236358e-04 
2 1  9.173856752974e-05   2.769326659254e-05  -4.855986701729e-05 
3 1  4.394329518821e-05  -4.348418548275e-05   2.279153790782e-04 
4 1  3.298522476127e-04  -7.143266095545e-05  -8.681138054457e-05 
5 1 -1.687461061053e-04  -1.602006670820e-06  -6.675986819522e-05 
6 1  1.495117832861e-04  -1.117434137581e-04  -1.831456443034e-04 
7 1 -1.016560026311e-04  -2.264236171133e-04  -3.414588156942e-04 
8 1 -2.993460995666e-05   1.759482952721e-04   7.769698054192e-05 
8
Step 1100
1 1 -8.380135546640e-05  -8.082880008470e-07  -1.270429870899e-04 
2 1 -6.140121633016e-07   1.802790684264e-04   2.656441409730e-04 
3 1  8.544271125961e-05   6.307070146464e-06   1.457818195344e-04 
4 1 -7.235434054297e-06  -2.300016031947e-04   1.134183049447e-05 
5 1 -2.971723729794e-04   9.046534303544e-05  -1.181181386105e-04 
6 1  1.457050152216e-04  -9.872641916367e-05   4.299835899722e-05 
7 1  3.207376300126e-05  -3.698153309851e-04  -2.037697660738e-04 
8 1 -1.046558184533e-04  -8.821750705178e-06   1.011809181896e-04 
8
Step 1200
1 1 -1.476577512908e-04  -8.151218143807e-05  -5.658106099898e-05 
2 1 -4.640489863695e-06   2.443644544603e-05   2.616103066303e-04 
3 1  1.654973341213e-05  -6.248581855024e-05  -6.543957449750e-05 
4 1 -4.598799861689e-04  -1.887645805820e-04   2.342458943918e-04 
5 1 -1.569271102055e-04   1.852163994884e-04  -1.943484914964e-04 
6 1  5.175680128553e-05  -4.369447292091e-05   8.520603833886e-05 
7 1  4.483390431333e-07  -1.415602388428e-04  -2.490276465214e-05 
8 1 -1.114525727042e-04  -2.022258251052e-04   6.813036180793e-06 
8
Step 1300
1 1 -1.777407195098e-04  -1.105430258844e-04  -2.626038105149e-04 
2 1  1.627251172879e-04   7.050264471073e-05   6.475823295541e-05 
3 1 -7.682599216276e-05  -1.527280437833e-04  -1.238037852731e-04 
4 1 -4.136114709446e-04   6.950847193097e-05   4.397428072092e-04 
5 1  1.064097364448e-05  -3.893807353586e-05  -4.364450612699e-05 
6 1 -5.985360168788e-05   3.291316730540e-05  -4.463186370197e-05 
7 1  6.454669109502e-05  -1.599638042713e-06   7.232631488875e-05 
8 1 -1.141179524015e-04  -9.981692675376e-05  -9.428796962523e-05 
8
Step 1400
1 1 -6.103626452098e-06  -7.580895958804e-05  -1.595808425734e-04 
2 1  7.291768875909e-05   7.308109959459e-05  -1.634967131481e-05 
3 1 -7.400097615163e-05  -2.242234895047e-04   3.012381728215e-05 
4 1 -3.070931184639e-04   4.871486092806e-05   3.210070555206e-04 
5 1  6.642080431891e-05  -1.226112750317e-04   1.040444534807e-04 
6 1 -1.376573556853e-05   9.087833641699e-05  -9.220272548414e-05 
7 1  4.922601575900e-06  -2.204894238988e-05  -1.509513670144e-04 
8 1  6.487115041612e-05  -8.781168604543e-05  -2.004227007086e-04 
8
Step 1500
1 1  2.332432145221e-04  -7.519579980168e-05   4.282741840814e-05 
2 1 -4.433631742023e-05   9.135370358734e-05   2.975455282743e-05 
3 1  1.524774521773e-04  -1.285785048905e-04   2.387665431393e-05 
4 1  4.023806986293e-05  -3.457821062015e-05   1.591046990262e-04 
5 1 -7.189661157732e-05  -1.894613095168e-04  -8.006765821413e-05 
6 1  2.010326808153e-04   3.977358918314e-05  -1.433829828316e-04 
7 1  9.034979656950e-06   3.444076788708e-06  -3.175750133729e-04 
8 1  2.932640838085e-04   6.939736758710e-06  -1.333800794865e-04 
8
Step 1600
1 1  4.715521838904e-05   1.752880019552e-05   2.378640607789e-04 
2 1 -1.779305376936e-04  -6.528402771734e-05   2.284907850653e-04 
3 1  1.680340021152e-04  -1.662420624915e-05   5.472725895030e-06 
4 1  3.714657185805e-05  -2.525579396044e-04  -1.236328268454e-04 
5 1 -3.909782958065e-05  -1.294466571787e-04  -1.600159204859e-04 
6 1  2.554853350603e-04   7.187195129692e-05  -1.501826329799e-04 
7 1 -6.233937971465e-05   1.334823394431e-04  -1.197797864167e-04 
8 1  2.300366530774e-04   6.300318897103e-05   2.280222114199e-04 
8
Step 1700
1 1 -1.830397627563e-04  -1.233328032170e-06   3.073569283720e-04 
2 1  7.808595587057e-06  -3.548597679324e-04   1.792768778610e-04 
3 1  8.378876729655e-05   1.176674969834e-04   8.689855219008e-05 
4 1 -1.316869886914e-04  -2.513803966682e-04  -7.018717761984e-05 
5 1 -2.118167600135e-05  -2.019700585401e-04  -6.698462420272e-05 
6 1 -2.249231966755e-05   8.120830703450e-05  -3.090545712330e-05 
7 1 -1.482746551806e-05  -1.291558291025e-05   8.836401998647e-05 
8 1  1.372278681073e-04   1.719519741711e-04   2.839357210345e-04 
8
Step 1800
1 1 -2.940242527061e-04  -5.388182543582e-05   1.078413648604e-04 
2 1  1.016145714012e-04  -4.340177713149e-04   1.808263587912e-04 
3 1  3.458463620195e-05  -1.917906702077e-05   1.141568484139e-04 
4 1 -2.789151355055e-04   8.578476592987e-06  -2.066901132994e-05 
5 1 -2.133388537067e-04  -1.926906153454e-04  -7.229023185474e-05 
6 1 -9.492726654962e-05  -7.018633329751e-06   1.044309692359e-04 
7 1  1.259514610505e-04  -5.321878270143e-05   1.580507441253e-04 
8 1 -6.088424980021e-05   1.406541363826e-04   6.584534353140e-05 
8
Step 1900
1 1 -1.904162602404e-04   8.119087580867e-05  -5.727548581682e-05 
2 1  1.158205710090e-04  -3.143550970649e-04   8.298233764221e-05 
3 1 -4.910526337004e-05   8.661136177729e-07   1.208287470251e-04 
4 1 -1.416690710450e-04   1.891157586585e-04   8.177244351409e-05 
5 1 -1.193581066475e-04  -1.468311724735e-04  -5.988647672279e-05 
6 1 -8.916706556322e-06   1.660220058062e-04   2.142194962523e-04 
7 1  8.963832908756e-06   3.285605346160e-05   9.354296848676e-05 
8 1 -1.748073462098e-04   1.195625011546e-04  -7.135903851992e-05 
8
Step 2000
1 1 -2.431536206498e-04   3.012558867442e-04  -1.363266030721e-04 
2 1  9.384208220303e-05  -1.009787983198e-05  -1.374902662554e-05 
3 1 -5.169718882702e-05   1.127963635350e-04   1.409109074244e-04 
4 1 -8.584286819011e-05  -3.279943435846e-05   8.156879750495e-05 
5 1 -1.663927364840e-04  -1.051812942816e-04   8.971002754676e-05 
6 1  7.286071496904e-06  -6.299273799926e-05   2.173160546795e-05 
7 1 -5.444742550082e-05   1.410225751930e-05  -2.720700975268e-05 
8 1 -9.374570794069e-05  -2.564922740491e-05  -3.881584179023e-05 
8
Step 2100
1 1 -1.231151227311e-04   3.851026014900e-04   2.311260872384e-05 
2 1  7.141796706587e-05   1.747283198631e-04  -1.585465570457e-04 
3 1 -6.768188164855e-05   8.208195509339e-05   1.254005902368e-05 
4 1 -7.866905443459e-05  -1.421513648694e-04  -1.342911791566e-05 
5 1 -2.648309701737e-04  -7.631178110351e-05   5.681780062091e-05 
6 1 -8.124437471191e-05  -2.776919388198e-04  -1.351380385795e-04 
7 1 -1.630073658465e-04   5.216426775027e-05  -1.046484729190e-04 
8 1  1.577471855311e-04   1.804142723042e-05  -1.373894768620e-05 
8
Step 2200
1 1 -8.475193796401e-06   2.197040776373e-04   5.819211441408e-05 
2 1  2.156313100140e-04   2.558717128966e-04  -1.880145543143e-04 
3 1  2.433439872996e-04   1.590844328886e-04   1.228902933736e-04 
4 1 -5.591228451606e-05   1.164162510735e-04  -9.894758595036e-05 
5 1 -1.643238676884e-04   6.283292140852e-05   5.079817841371e-05 
6 1 -9.468684217911e-05  -1.417550806765e-04  -1.902821224208e-04 
7 1  5.147778346206e-05   3.061676326071e-05  -1.525570881181e-04 
8 1  3.516072965429e-04   2.009591858314e-05   7.142143281722e-05 
8
Step 2300
1 1 -1.866935755093e-04   1.151081757285e-04  -1.140116648324e-05 
2 1  2.669945094673e-04   1.952281034946e-04  -1.832231205153e-04 
3 1  4.863734461687e-04   9.235952229466e-05   1.560822658224e-04 
4 1 -1.058975181467e-04   1.890311066662e-04  -3.153250916560e-05 
5 1 -2.618122515357e-05   1.330487281208e-04   8.705595989821e-05 
6 1  5.752020782141e-05   3.593478979367e-05   2.487889164541e-05 
7 1  2.614202601009e-04   6.595203522913e-05  -3.235535478205e-04 
8 1  2.147172901108e-04  -7.523501813757e-05   1.442585442974e-04 
8
Step 2400
1 1  3.951288806360e-05  -1.591232673985e-04   3.203062933722e-05 
2 1  7.697347282345e-05   1.359344459894e-04  -7.248330838568e-05 
3 1  3.180135422840e-04  -4.839952522276e-05   1.726693943550e-04 
4 1 -2.024008364978e-05   1.799822691264e-04   6.616773817033e-05 
5 1  3.535070517544e-05   1.340493901660e-04   7.903716390910e-05 
6 1  6.980275739380e-05   7.213788305904e-05   1.542281838241e-04 
7 1  3.176077146568e-04  -4.501214384888e-05  -8.924011826602e-05 
8 1 -5.028564814775e-05  -1.326246679546e-04   7.665662658598e-05 
8
Step 2500
1 1  1.415754680739e-04  -3.574661901524e-04   1.408652638416e-04 
2 1  9.244533960405e-05   2.126717742225e-04  -1.408359213937e-04 
3 1 -1.938510938771e-04  -1.469951361969e-04  -7.882674950231e-05 
4 1  9.516860802820e-05  -2.004936653425e-05   1.133135318686e-04 
5 1  4.293539185628e-05   6.513593905910e-05   1.674554613989e-04 
6 1  9.593772622136e-05  -5.587536594226e-05  -4.810336282090e-05 
7 1  1.577572254325e-04  -4.309676282976e-05   1.374474342220e-04 
8 1 -8.066268111488e-05  -2.120626259032e-04   1.769503879889e-04 
8
Step 2600
1 1  2.682694573826e-05  -8.673151476192e-05   9.458208324553e-05 
2 1  1.397620321901e-04   1.316614245970e-04  -1.747543012009e-06 
3 1 -8.640621484475e-05  -4.979236551991e-05  -2.253636480235e-05 
4 1  5.032868843002e-05  -1.963595109022e-04   1.867192924115e-04 
5 1  1.883522224730e-05   3.923942938567e-06   4.857333720998e-05 
6 1  6.107345030321e-05  -2.339045080764e-04  -1.756533515812e-04 
7 1 -4.755779756235e-05   4.760048592692e-05  -4.763327422880e-05 
8 1 -1.067269440206e-04  -1.646697641202e-04   1.538438982588e-04 
8
Step 2700
1 1 -2.633668263701e-04   2.968370105623e-04   1.927794854538e-04 
2 1  1.404933609637e-04  -1.196801284624e-04   1.722189853962e-04 
3 1  2.332041817284e-04   8.348467508522e-05   1.349704806666e-06 
4 1 -7.779697699668e-06  -2.072051662518e-04   1.467354420678e-04 
5 1  1.035165291660e-04  -7.266196365660e-05  -7.417148829774e-05 
6 1  1.790558226136e-04  -3.226013832179e-04  -2.563865418425e-04 
7 1  1.174367364952e-05   3.207495061820e-04  -2.064840809882e-04 
8 1 -3.954281404043e-05  -2.771216401902e-04   2.261421805461e-04 
8
Step 2800
1 1 -2.614964568704e-04   2.421486905946e-04  -5.840688379384e-05 
2 1  1.327633454439e-04  -2.000806820118e-04   2.611487938630e-04 
3 1  2.920784065673e-04   8.590060943356e-05  -5.847385998728e-05 
4 1  2.752062480077e-05  -1.323983588346e-04   1.235259676614e-04 
5 1  9.249231284559e-05   2.309258015945e-04  -1.807140801323e-04 
6 1 -3.980184063397e-05  -2.775451452772e-04  -2.275628825134e-04 
7 1 -6.329738733579e-06   3.490978388482e-04  -2.442629812724e-04 
8 1 -4.832107396356e-05  -1.780444839416e-04   9.763296599977e-05 
8
Step 2900
1 1 -2.095493428488e-04  -3.765772699885e-05  -1.321402397990e-04 
2 1 -1.485839942531e-04  -1.471394841837e-04   2.829836058490e-04 
3 1  2.017821641496e-05   6.507224267648e-05  -7.596307616298e-05 
4 1  3.046549188790e-05  -1.928024849073e-04   6.715615362750e-05 
5 1  8.711448900390e-05   2.429874330556e-04  -1.705623169157e-04 
6 1 -2.061266467683e-04  -3.036798564297e-04  -2.225512219497e-04 
7 1  7.005438045829e-05   1.470834350277e-04  -1.199233038069e-04 
8 1 -3.051942504294e-04  -5.410140477120e-05   1.091992420997e-04 
8
Step 3000
1 1 -1.687773886684e-04  -4.636570011524e-05  -5.177605472371e-05 
2 1 -2.901798870658e-04  -3.143583126978e-04   2.444649924321e-04 
3 1 -1.743977323110e-04   1.330267573548e-04  -1.477658054603e-04 
4 1 -1.225431474484e-04  -2.120488834347e-04  -1.118643859861e-05 
5 1  8.247252307213e-05   6.962787348446e-05  -1.591092799238e-04 
6 1 -1.827452067553e-04  -2.477245536041e-04  -1.933544166916e-04 
7 1  2.538014327908e-04  -4.008347241708e-05   8.207756923727e-05 
8 1 -2.667310963457e-04   1.336835490429e-04  -4.528126262411e-05 
8
Step 3100
1 1 -7.422873154151e-05  -1.055328049338e-04  -2.140394278759e-04 
2 1 -2.846740531715e-04  -2.738011327039e-04   2.598824347175e-04 
3 1 -1.017544002071e-04   1.417287849649e-04   2.160012537520e-05 
4 1 -3.949915367404e-05  -7.621948343242e-05   4.194520078704e-05 
5 1 -3.087115439115e-05   2.176154086648e-05   7.930498770998e-06 
6 1 -2.729059085387e-04  -2.360106709026e-04  -1.813918018581e-04 
7 1  4.553016027499e-05   5.402396425138e-05   2.258491143545e-04 
8 1 -8.338787042041e-05   3.226528980408e-04  -2.023235268708e-05 
8
Step 3200
1 1  5.465597618986e-05  -1.270782823550e-04  -2.195988651147e-04 
2 1 -6.968756444213e-05  -6.204280688674e-05   8.344019431213e-05 
3 1 -6.334975835679e-05   3.814399199709e-05   9.729866015928e-05 
4 1  4.897223463402e-05   1.493743331385e-04  -4.911584469370e-07 
5 1 -2.483132858716e-05   1.606873287431e-05   3.445509038085e-04 
6 1 -8.743591618646e-05  -1.675460941099e-04  -1.546530313281e-04 
7 1 -8.033021249649e-05  -3.074071567549e-05   1.719091438639e-04 
8 1  5.353324603873e-05   2.325665091061e-04  -2.953985694089e-05 
8
Step 3300
1 1  1.021515877253e-04  -9.338348276288e-05   5.698836256639e-05 
2 1  1.539186698558e-04  -6.892246189011e-05  -2.537978488384e-05 
3 1 -5.459809055938e-05   4.116061284353e-05  -4.461251565293e-05 
4 1 -8.506187378478e-05   2.678572569899e-04  -7.080797252150e-05 
5 1  6.993288772001e-05  -1.892344935573e-05   3.754214440942e-04 
6 1  7.465236766342e-05  -1.622085601976e-04   3.907691255202e-06 
7 1 -1.907497279536e-04  -1.227331650157e-04   1.762196731060e-04 
8 1  1.734157467520e-04   1.397805905048e-04  -4.597309931519e-07 
8
Step 3400
1 1 -9.581408574271e-05  -1.333399235511e-04   1.031984812701e-04 
2 1  9.380986778955e-05  -2.453386382668e-04  -8.392617942562e-05 
3 1 -1.942054060583e-04   2.165013847563e-05  -2.195248887197e-04 
4 1 -1.675074289776e-04   3.463535591808e-04  -1.333201759206e-04 
5 1  2.809513687013e-05  -1.002636753328e-04   7.000194797749e-05 
6 1  1.842566332870e-04  -1.846583558731e-04   2.129066611404e-05 
7 1 -8.244541021784e-05   1.632588196973e-04   2.955107689972e-04 
8 1  2.101624586239e-04   1.251129459697e-04   1.778462046979e-04 
8
Step 3500
1 1 -1.010463414280e-04  -2.775189265058e-05  -3.898106956358e-06 
2 1 -2.815254082655e-04  -2.154742320457e-06  -4.118694982069e-04 
3 1 -1.489571088797e-04   3.186946982728e-05  -1.646254815463e-04 
4 1 -1.382620001186e-04   2.748228551952e-04  -2.236071001712e-04 
5 1  1.006772438786e-06   5.413450073454e-05  -1.749611977255e-04 
6 1  1.300470671522e-04  -1.849185982746e-04  -1.835435542650e-04 
7 1  3.662526849159e-04   3.832320411165e-04   1.224594837142e-04 
8 1  2.548608641691e-05   1.697380509134e-04   1.602863551560e-04 
8
Step 3600
1 1 -5.106325420748e-05   3.338724994726e-04  -2.263369965241e-05 
2 1 -2.518741054548e-04   1.042592491403e-04  -3.608439455546e-04 
3 1  1.917618635204e-05   2.969036664937e-05  -3.711238124268e-05 
4 1 -8.931618747604e-05   1.980214041626e-04  -3.525130260610e-04 
5 1 -1.854087427440e-05   1.006577048074e-04  -2.356719424667e-04 
6 1 -7.135964829294e-06  -1.707289604429e-04  -2.031042508533e-04 
7 1  4.015343281675e-04   1.913246242201e-04   1.289681143359e-04 
8 1 -1.010245877785e-04   1.235765399016e-04  -1.410735535095e-04 
8
Step 3700
1 1 -1.959024148180e-06  -6.257149007698e-06  -1.937043801978e-06 
2 1 -1.438977743512e-04  -2.201448862580e-05  -1.086354989047e-04 
3 1  9.705513839819e-05   4.797419236202e-05   9.482010811111e-05 
4 1  2.287206975092e-04   4.046892488066e-05  -3.591493588925e-04 
5 1 -3.782688955591e-06   4.605372819806e-05  -2.560146597338e-04 
6 1 -5.081994677618e-05   6.955026421656e-06  -8.306828851939e-05 
7 1  7.328352505759e-05   9.711219054149e-05   3.341002125166e-05 
8 1  8.824367490393e-05   3.701089637014e-05  -2.133199951995e-04 
8
Step 3800
1 1  1.954384448542e-04  -2.037420600334e-04  -1.821363869063e-04 
2 1  1.268947951842e-05  -2.872933228346e-05   2.596108851586e-05 
3 1 -4.941081192402e-05   2.985044600893e-05   8.600356553970e-05 
4 1  1.582904727795e-04   9.335188413510e-05  -2.034307872947e-04 
5 1  2.070888937054e-04   7.497954251122e-05  -1.009492815379e-04 
6 1 -9.222003639695e-05   6.034554432225e-05   8.312284731508e-06 
7 1 -2.600288572240e-05  -3.408911398261e-07  -1.179477736605e-04 
8 1  2.190094539732e-04  -5.429723680763e-05  -5.240645252969e-05 
8
Step 3900
1 1  1.754604565481e-04  -2.126335812267e-04  -4.068958106033e-05 
2 1  2.054539508352e-04   8.268095326246e-06  -2.075559727552e-04 
3 1 -1.704884119730e-04  -2.603014165253e-05  -1.076991580479e-04 
4 1  7.006403504943e-05   5.772033739212e-05  -7.512308693440e-05 
5 1  1.999622433975e-04   1.235452041071e-04   1.837675385601e-04 
6 1  1.980842791055e-04   4.687059616548e-05   2.773278100851e-04 
7 1 -3.560788101964e-05   1.224314643273e-04  -3.404946612016e-04 
8 1  1.698883008397e-04   1.876220652909e-04   6.857311989378e-05 
8
Step 4000
1 1 -8.768444025112e-05  -1.044847654547e-04   5.706389531907e-05 
2 1  9.903860919387e-05  -8.115903280305e-05  -3.269990300391e-04 
3 1 -5.918705497359e-05   1.846709121552e-05  -1.623882703594e-04 
4 1 -1.140286342688e-04  -6.869627897163e-05   7.597049916233e-05 
5 1  6.214950112708e-05  -1.094201982311e-04   4.509275252557e-05 
6 1  2.705150867477e-04  -3.443202573303e-05   9.341067171326e-05 
7 1 -4.893036475042e-05  -3.080076270526e-05  -1.936705701562e-04 
8 1  1.645169110835e-04   2.459574508757e-04   1.173908343995e-05 
8
Step 4100
1 1 -1.770660081936e-04  -1.768330369959e-04   3.889243111973e-06 
2 1  9.221776685991e-05   4.519095529388e-06  -1.215862782221e-04 
3 1  2.357900220599e-05   3.195815857846e-05  -1.185962394276e-04 
4 1 -1.799531378093e-04  -1.454591792627e-04   1.629656480420e-04 
5 1 -2.502217509050e-05  -8.350169894148e-05   8.415606092321e-05 
6 1  1.455314786789e-04   9.075232194888e-06  -1.918800794987e-04 
7 1 -2.780424372370e-05  -2.385013590313e-04  -1.908998200879e-05 
8 1 -6.458555465382e-05   1.496434183508e-04   7.238137881213e-06 
8
Step 4200
1 1 -1.087409276497e-04  -3.471404663233e-04  -1.415773021444e-04 
2 1  2.029425282576e-05   1.386793110355e-04  -6.641967452227e-05 
3 1 -1.616685305857e-04  -8.951863325147e-05  -2.053660683749e-05 
4 1 -2.306939997986e-04  -7.739162759547e-05   8.914453425936e-05 
5 1 -3.639401940085e-06   1.346753167309e-04  -2.691949726287e-06 
6 1 -1.941006245298e-05   1.478176686138e-04  -3.365974203748e-04 
7 1  1.102145756120e-04  -4.566332092335e-05   9.419634701424e-05 
8 1  1.274447084552e-05   1.839864492193e-04  -8.519169538308e-05 
8
Step 4300
1 1 -1.541761218588e-04  -3.462184454020e-04   4.028321727941e-05 
2 1 -1.662057705859e-04   2.268366529382e-04  -1.167746919749e-04 
3 1 -8.040819432067e-05  -1.103065513102e-04   2.957722954866e-05 
4 1 -2.944778700909e-04  -1.901394783477e-05   8.832614851380e-05 
5 1  1.891724932607e-04   1.414621906044e-04  -2.480088854273e-05 
6 1 -4.414779472616e-05   9.245414238337e-05  -1.366594987664e-04 
7 1 -1.442229454965e-05   6.194537326399e-05   7.839603118689e-05 
8 1  4.061487441601e-06   1.720442329191e-04  -8.311420041793e-05 
8
Step 4400
1 1 -8.752729023848e-05  -8.913090755677e-05   7.916811859990e-05 
2 1  6.836862538132e-05   9.858767402200e-05  -1.387579564180e-04 
3 1  1.077804429982e-04  -1.437562562600e-04   1.508985247326e-04 
4 1 -2.007724041714e-04   1.047783242005e-04   5.416455825000e-05 
5 1  4.218926302852e-04   6.473357060195e-05   1.278909983326e-04 
6 1 -7.169806470777e-05   1.110420368094e-04  -4.777560326699e-06 
7 1 -2.182616188411e-04   2.200316917114e-04  -9.720440813911e-05 
8 1  2.430587340665e-05   8.909225591138e-05  -5.685861756050e-05 
8
Step 4500
1 1 -1.700223391865e-04   7.489070709613e-05   2.005536851068e-05 
2 1  4.259615338004e-05   5.558792724964e-05  -1.354754002248e-04 
3 1  7.264538873804e-05  -2.217876155847e-04   1.854566021407e-04 
4 1 -1.198686452869e-04   3.239237363330e-04   9.520777737918e-05 
5 1  2.480978859894e-04   3.310754263711e-05   2.143455087797e-04 
6 1 -5.731768087190e-05   5.785767983723e-05   1.410093597380e-04 
7 1 -1.257811033616e-04   2.750431015397e-04  -3.297752152315e-05 
8 1  9.057948904487e-05  -9.232154492218e-05  -8.541193598342e-07 
8
Step 4600
1 1 -2.113976781444e-04  -1.237754397149e-04   5.165009922906e-05 
2 1 -8.174670064335e-05  -6.093766014884e-05  -4.407581084320e-05 
3 1 -4.940771705269e-05   9.750304268145e-06   1.335992398904e-04 
4 1 -9.598365645200e-05   2.369328576849e-04  -4.247129858535e-05 
5 1  7.546822577968e-05  -7.094098694276e-05   1.683231248819e-04 
6 1  3.279171374306e-05   1.248033463933e-04   2.254397948914e-04 
7 1  2.908150680668e-05   1.945186946902e-04  -1.991587934011e-04 
8 1  1.880523932021e-04  -1.984000622243e-04  -3.279083892292e-06 
8
Step 4700
1 1 -9.921122996209e-05  -6.231682364200e-05  -1.676036384590e-04 
2 1 -1.487836677068e-04   2.111072652097e-05   1.510751097259e-04 
3 1 -2.912001218439e-05  -1.099322261693e-05   7.629932285720e-05 
4 1  5.567273462837e-05  -2.009174205350e-05  -2.236000183071e-04 
5 1 -1.854999279793e-04   2.058946300904e-05  -1.159902891047e-04 
6 1  1.503895652462e-04   3.179426883123e-04   3.359245947526e-04 
7 1  2.566178097632e-04  -1.018775425802e-04   1.627138205710e-05 
8 1  1.376875074528e-04  -7.688024156417e-05   1.272720012823e-04 
8
Step 4800
1 1  6.803802189179e-05   5.848249663253e-06  -9.671269109002e-05 
2 1 -1.833706610354e-04   2.137905441990e-04   2.605991040165e-04 
3 1 -1.098639284072e-04  -1.377074761394e-04  -7.347914273886e-06 
4 1  1.236141588264e-04  -1.044885897015e-04  -1.400774706085e-04 
5 1 -2.847172740962e-04   3.147341834548e-04  -1.431073654776e-04 
6 1  1.220117526346e-05   2.709826177410e-04   1.189076023284e-04 
7 1  1.007422216570e-04  -1.538646176719e-04   2.633213110851e-04 
8 1 -1.518772056453e-04   4.389095517297e-05   9.068855293175e-05 
8
Step 4900
1 1  3.108748005719e-05  -3.597009987950e-05   1.148551991800e-04 
2 1 -1.966166713868e-04   1.939963467100e-04   1.496838969341e-04 
3 1  9.765473257429e-06   7.087849200142e-05   2.950650398134e-05 
4 1  1.204637562194e-04  -1.908607771925e-04  -9.184609236258e-05 
5 1 -1.520492694294e-04   1.073690894674e-04  -3.911536766955e-05 
6 1  6.611081309259e-06   1.225544134976e-04  -3.123776701902e-04 
7 1 -3.294885997783e-05  -9.169837943019e-05   2.485705950074e-04 
8 1 -2.182082719048e-04   1.110994892920e-04  -2.327256247775e-05 
8
Step 5000
1 1 -1.388471159973e-04   2.165682135004e-05  -1.516605899007e-04 
2 1 -6.621284157068e-05   9.968870556483e-06   1.219105410822e-04 
3 1  2.609974210294e-04   3.193712519968e-04   3.682212579549e-05 
4 1  1.401978599802e-04   1.966927244538e-05  -1.282150102116e-04 
5 1 -5.026587620397e-05  -2.257458386961e-04   2.805794316395e-04 
6 1 -7.541773168101e-06   1.307591734432e-04  -3.828483858626e-04 
7 1 -7.755402412965e-05   1.204735309018e-05   2.600556807782e-04 
8 1 -1.212731730395e-04   4.134788579586e-05   9.631389911515e-05 
8
Step 5100
1 1 -1.961515880749e-04   2.027210432719e-05  -3.714261678306e-04 
2 1  7.229599260186e-05  -1.606480918670e-04   7.352208185008e-05 
3 1  8.007251338863e-05   2.460954142029e-04   5.684162876744e-06 
4 1  1.597203223424e-04   2.477608530093e-05  -1.399943109321e-04 
5 1 -1.085839812830e-04  -1.690039089245e-04   2.930607888175e-04 
6 1  1.517196536726e-04   2.049699171889e-05  -3.870579840769e-05 
7 1 -6.179471963327e-05   1.472165781171e-04   1.057026231748e-04 
8 1  2.446491213261e-05   3.168631711881e-05   1.823490188842e-04 
8
Step 5200
1 1 -1.255418247687e-04   3.370565061168e-05  -3.834562364247e-04 
2 1  1.731749577503e-04  -4.768058640561e-05  -6.189941145941e-05 
3 1 -9.995194557924e-05  -3.095296230091e-05  -1.727851059651e-04 
4 1  1.230318817467e-04   9.961674125370e-05  -3.127872182405e-05 
5 1  3.282712341003e-06   3.397717861569e-05   1.406982396354e-04 
6 1  2.185426473033e-04  -2.587480235559e-05   3.380286961496e-04 
7 1 -1.225528716640e-04   1.898254468886e-04   9.833285623974e-06 
8 1 -6.497189199251e-05   2.133697872750e-04   1.604854304033e-04 
8
Step 5300
1 1 -1.315111944026e-05   6.519354393305e-05  -1.746874930460e-04 
2 1  1.895896746663e-04   9.358079237985e-05  -1.624847945089e-04 
3 1 -2.290173830718e-04  -3.044016939669e-04  -7.765368370428e-05 
4 1 -4.529924488997e-05   7.553712159348e-05   6.375072361135e-05 
5 1 -6.436316327429e-05   1.094166031210e-04  -5.603099061244e-05 
6 1 -1.370114187776e-04   1.293913815163e-04   4.029238133810e-04 
7 1 -1.545084499527e-04   1.660076174365e-04   4.158145315006e-05 
8 1 -1.006650710044e-05   2.381633613504e-04   1.454423178167e-04 
8
Step 5400
1 1 -9.051708900754e-05   2.516981988382e-04   1.351187821280e-05 
2 1  1.192811751411e-04   1.907068736504e-04  -1.306263552134e-04 
3 1 -1.670265311268e-04  -1.742040820101e-04   1.676797084493e-05 
4 1  1.084359839248e-05   1.198997687389e-04   5.434585887890e-05 
5 1 -9.829795523630e-05  -1.722729749303e-04  -1.097933682091e-04 
6 1 -1.554954771307e-04   3.033456979641e-04   2.008761966189e-04 