8
Step 0
1 1  0.000000000000e+00   0.000000000000e+00   0.000000000000e+00 
2 1  0.000000000000e+00   0.000000000000e+00   0.000000000000e+00 
3 1  0.000000000000e+00   0.000000000000e+00   0.000000000000e+00 
4 1  0.000000000000e+00   0.000000000000e+00   0.000000000000e+00 
5 1  0.000000000000e+00   0.000000000000e+00   0.000000000000e+00 
6 1  0.000000000000e+00   0.000000000000e+00   0.000000000000e+00 
7 1  0.000000000000e+00   0.000000000000e+00   0.000000000000e+00 
8 1  0.000000000000e+00   0.000000000000e+00   0.000000000000e+00 
8
Step 100
1 1 -1.306749320881e-03   3.057174263728e-04  -9.439400863401e-04 
2 1  7.281707392981e-04   6.279630669639e-04  -1.152737044336e-03 
3 1 -1.316002758597e-03   1.304085030920e-03   7.905350943249e-04 
4 1  6.881650335819e-05  -4.410295485312e-05   8.183712211478e-05 
5 1 -7.232094514271e-05   5.805250054097e-04   9.584694068191e-04 
6 1  9.381672902645e-04   6.898803697848e-04   4.191255241006e-04 
7 1  6.011251221740e-04   1.618076305088e-04   6.329403457909e-04 
8 1  8.693482540574e-04   7.869327945701e-04   1.884470477915e-04 
8
Step 200
1 1 -8.362309114464e-04   1.140088779013e-04  -6.091438847360e-04 
2 1  4.968887555453e-04   4.705770179495e-04  -8.123108037437e-04 
3 1 -8.859281809825e-04   7.256795828980e-04   6.277492240425e-04 
4 1 -3.113657974556e-05  -9.051175164472e-05  -1.426189087031e-05 
5 1 -7.150424558715e-05   2.538058791491e-04   5.736410538946e-04 
6 1  7.650326314144e-04   3.375075409630e-04   3.356063912775e-04 
7 1  5.491661048197e-04   2.250749633537e-04   3.443525732807e-04 
8 1  4.880056387875e-04   6.727426400751e-04   1.379714966848e-04 
8
Step 300
1 1 -4.196522228160e-04  -2.599312287836e-05  -3.242845516262e-04 
2 1  2.844238089006e-04   3.525074932610e-04  -4.743952099785e-04 
3 1 -5.535707866228e-04   2.954544833334e-04   4.634669746104e-04 
4 1 -1.003977062660e-04  -5.212024402297e-05  -5.413396642153e-05 
5 1 -8.157588385192e-05  -5.789106918207e-06   3.196445108220e-04 
6 1  5.349675032724e-04   6.907698552617e-05   2.548236912536e-04 
7 1  4.707599489202e-04   2.644434437428e-04   6.589711545577e-05 
8 1  1.710109183376e-04   5.400455269049e-04   1.151794724440e-04 
8
Step 400
1 1 -1.274822506826e-04  -6.441206025566e-05  -1.372188899560e-04 
2 1  1.590526006063e-04   2.156848195626e-04  -2.417297134438e-04 
3 1 -3.197523268255e-04   4.761441166813e-06   3.471888075277e-04 
4 1 -1.656149645040e-04  -7.900623662627e-06  -5.470051960278e-05 
5 1 -1.542324449139e-04  -1.005392766058e-04   1.829248079896e-04 
6 1  2.973000538339e-04  -7.283332562327e-05   1.846385798798e-04 
7 1  4.495395821554e-04   2.488601625892e-04  -8.365312884296e-05 
8 1 -1.419134599016e-05   4.117783069565e-04   4.198296074139e-05 
8
Step 500
1 1 -1.557102816373e-05  -7.925875341606e-05  -5.775732326739e-05 
2 1  8.981497434168e-05   9.312425730765e-05  -8.399638696792e-05 
3 1 -1.976095780013e-04  -8.681130052159e-05   2.276152897854e-04 
4 1 -2.199247619388e-04   1.654066958402e-05  -1.680352205126e-06 
5 1 -2.038747815649e-04  -1.177697830443e-04   9.429696382822e-05 
6 1  1.026949205092e-04  -1.410228096175e-04   1.352709246853e-04 
7 1  3.957405172102e-04   1.916408893756e-04  -1.509914735995e-04 
8 1 -1.064345223619e-04   2.939379821189e-04   1.454112617565e-05 
8
Step 600
1 1  3.329264639093e-05  -8.097979626958e-05  -1.918154565946e-06 
2 1  3.395003741898e-05   2.971843467100e-05  -1.096665768579e-05 
3 1 -1.552350072022e-04  -1.472201720526e-04   1.952198726397e-04 
4 1 -2.682517718423e-04  -1.763872303169e-05  -5.185656635987e-06 
5 1 -2.434921048905e-04  -1.298058208072e-04   1.033958660587e-04 
6 1  2.418600235109e-05  -1.222200440968e-04   1.103016528177e-04 
7 1  3.112621415860e-04   8.226524159054e-05  -9.863489579555e-05 
8 1 -1.289326160893e-04   2.134821999787e-04  -8.865641032230e-06 
8
Step 700
1 1  2.690280622516e-05  -4.882064195481e-05   3.118023789936e-05 
2 1 -1.076486712238e-05   4.292589126468e-05  -1.797826704152e-05 
3 1 -7.909148290918e-05  -1.164715502409e-04   1.848985810303e-04 
4 1 -2.576962099460e-04  -3.014754412535e-05   6.038684933845e-05 
5 1 -2.488712842434e-04  -9.369701302392e-05   1.495268215879e-04 
6 1  3.315675499032e-05  -1.193514663723e-04   6.606875311799e-05 
7 1  2.119238788668e-04   2.126704664646e-05  -4.806722443857e-05 
8 1 -1.156116916586e-04   1.398975859201e-04  -4.309218322204e-05 
8
Step 800
1 1 -4.257718988729e-05  -4.557645688632e-05   3.240520930203e-05 
2 1 -6.609569745171e-05   6.233690193052e-05  -3.720799341573e-05 
3 1 -3.255646339769e-05  -4.386620055201e-05   1.621324951326e-04 
4 1 -1.919956322450e-04   2.594535213485e-05   1.012997525913e-04 
5 1 -2.395865402362e-04  -4.653838084030e-05   1.470020237344e-04 
6 1 -5.863644128249e-06  -6.395632000583e-05   1.860406143946e-05 
7 1  1.107249329787e-04   3.670411821662e-05  -3.709041535918e-05 
8 1 -1.069427846405e-04   3.346937105304e-05  -1.158612627086e-05 
8
Step 900
1 1 -7.353089796653e-05  -5.281086914357e-05   3.278815482281e-05 
2 1 -4.420038050745e-05   9.536159724619e-05  -6.811917756340e-05 
3 1  3.911954868991e-06  -3.211837299468e-05   1.627298273668e-04 
4 1 -1.527632728938e-04   5.670464092832e-05   8.494972746703e-05 
5 1 -1.847122997920e-04  -3.039777909556e-05   1.553740164419e-04 
6 1 -7.590066178615e-05  -6.179380104403e-05   2.329463752003e-05 
7 1 -1.741821307297e-05   7.503382920059e-05  -2.679144647517e-05 
8 1 -1.334874801779e-04  -1.906037182091e-05  -1.443951062231e-05 
8
Step 1000
1 1 -9.335071371469e-05  -6.002824473166e-05   4.647063846666e-05 
2 1 -3.927835899202e-05   6.334433070847e-05  -7.741858303110e-05 
3 1 -1.293187866661e-05  -1.492840484051e-05   6.494627431212e-05 
4 1 -9.115214174362e-05   5.919652384743e-05   3.184756027819e-05 
5 1 -1.147692082897e-04   1.362863637728e-08   1.022931223312e-04 
6 1 -7.998472272763e-05  -2.715786949235e-05  -2.499983109858e-06 
7 1 -7.452095048532e-05   6.111721409685e-05  -1.463546701745e-05 
8 1 -1.281016736843e-04  -5.889054568326e-05  -2.788553982029e-05 
8
Step 1100
1 1 -8.931926228899e-05  -1.295659200159e-04   3.852466206542e-05 
2 1 -1.507978564894e-05   5.213827843793e-05  -9.584812691870e-05 
3 1  1.719440161579e-05   7.968166525265e-06   1.487049314032e-05 
4 1 -5.664224772566e-05   4.927629252900e-05   3.588565098084e-07 
5 1 -9.789637950387e-05  -3.062014349114e-05   9.762137079681e-05 
6 1 -6.808782146622e-05   6.012920558640e-05  -3.385054220972e-05 
7 1 -8.097199410745e-05   7.536296745167e-05   2.634463515506e-05 
8 1 -1.033586745163e-04  -5.417568598347e-05  -5.992203381136e-05 
8
Step 1200
1 1 -6.630934121078e-05  -1.240769167088e-04  -5.706105074043e-06 
2 1  1.905081001735e-05   5.726149336008e-05  -1.035492387168e-04 
3 1  4.347573780248e-05  -4.012322115573e-06   1.396503062254e-07 
4 1 -3.374666091691e-06   2.124900301906e-05  -4.542077459778e-05 
5 1 -1.057131061889e-04  -9.299777441240e-05   1.171930392937e-04 
6 1 -3.413140407559e-05   1.290224594984e-04  -5.001849362916e-05 
7 1 -5.786266018318e-05   1.867528277501e-05   5.747554054899e-05 
8 1 -6.534181912812e-05   3.663684560514e-06  -5.212665082275e-05 
8
Step 1300
1 1 -3.941479605952e-05  -7.857342523004e-05  -3.963150955568e-05 
2 1  4.906393662803e-05   6.670058466683e-05  -5.254414948553e-05 
3 1  4.818573087842e-05  -4.714835439824e-06   2.604521091554e-05 
4 1 -1.118555471654e-05   3.703809221733e-06  -7.017397590628e-05 
5 1 -1.038591873940e-04  -9.361199251265e-05   1.646676891616e-04 
6 1  9.523110778570e-06   1.083274139424e-04   3.163908056610e-05 
7 1 -2.525458096925e-05  -1.730199638090e-05   8.554711465272e-05 
8 1  1.009589665470e-05  -1.150782639495e-07  -2.170956637959e-05 
8
Step 1400
1 1  4.454068283496e-06  -4.956027906484e-05  -4.994108106332e-05 
2 1  3.176005048984e-05   4.799039902840e-05  -2.549478280959e-05 
3 1  2.984973230092e-05  -1.443993815108e-05   1.621040445549e-05 
4 1  1.008479168066e-05  -3.583808579044e-06  -6.977130065986e-05 
5 1 -3.634158193846e-05  -2.740564783298e-05   1.087767778508e-04 
6 1  2.591024795386e-05   4.515299030557e-05   8.841729126895e-05 
7 1  7.041215262386e-05  -1.701795226875e-06   1.169543121526e-04 
8 1  2.896110466655e-05   3.134870024582e-05   5.682138610888e-05 
8
Step 1500
1 1 -4.485526858713e-05  -4.462745158227e-05  -4.593261270814e-06 
2 1 -1.955873833270e-05   4.838673038135e-05  -4.054931034608e-05 
3 1 -3.838904570922e-06  -8.580817541227e-06   2.791672716007e-05 
4 1  3.815287608547e-06  -2.046140925254e-05  -6.292798833786e-05 
5 1 -1.551200820642e-05   7.430361683284e-05   8.534633247053e-05 
6 1 -2.132388775109e-05  -1.085971791052e-06   8.074993537620e-05 
7 1  1.263113358011e-04  -3.132182984814e-06   1.568114469866e-04 
8 1 -3.550972190744e-05   2.625823009159e-05   1.010997472638e-04 
8
Step 1600
1 1 -7.456002489520e-05  -2.897226814498e-05   2.919561676130e-05 
2 1 -3.485016215120e-05   4.009861040199e-05  -6.311398014854e-05 
3 1  7.307435892163e-06   1.246799831464e-05   3.292822583281e-05 
4 1 -1.202147989445e-05  -1.443503804009e-05  -2.247422310053e-05 
5 1 -6.152257312608e-06   1.103703894283e-04   3.207236599511e-05 
6 1 -5.054465094402e-05  -4.944991148654e-05   4.805064254683e-05 
7 1  1.427931839479e-04  -6.035681678229e-05   1.303661897972e-04 
8 1 -8.337939508869e-05   3.154772553154e-06   3.028247234734e-05 
8
Step 1700
1 1  2.534743007684e-05  -3.173963749329e-05  -5.408415200002e-06 
2 1 -3.358948788860e-05   2.171068388925e-05  -6.799907623475e-05 
3 1  7.018562762245e-05   4.245622634179e-05   7.572169196439e-05 
4 1 -2.968819593550e-06   1.206110076491e-05   1.904865631924e-05 
5 1 -3.170246746258e-05   1.115763643664e-04   2.019046622995e-05 
6 1 -1.594361009978e-05  -1.069006821906e-04   4.804799871869e-05 
7 1  9.967988422484e-05  -7.594683595636e-05   9.624547693333e-05 
8 1 -6.599292456078e-05  -8.771480320879e-06   9.018816731447e-07 
8
Step 1800
1 1  8.425873655381e-05  -7.069039583209e-05  -7.587676033730e-05 
2 1  7.390184364054e-07   3.600892777445e-05  -1.609926456347e-04 
3 1  7.867428434069e-05   3.929924528892e-05   7.774744477548e-05 
4 1  1.614545398486e-05   2.304775050236e-05   1.049317204406e-04 
5 1 -9.741526074793e-05   8.089040885020e-05   6.590982291888e-05 
6 1  3.006626366109e-06  -1.406940160766e-04   8.267079640639e-05 
7 1  1.575690353844e-06  -5.153360159869e-05   4.565757622656e-05 
8 1 -3.281899961178e-05  -2.139764481578e-05   2.112374488435e-05 
8
Step 1900
1 1  8.723330324999e-05  -1.141145492032e-04  -7.444943930755e-05 
2 1  3.475248128285e-05  -4.466943576865e-06  -1.658094848637e-04 
3 1  7.669599807305e-05   2.755495794291e-05   8.492643152358e-05 
4 1  4.310359164007e-05   1.126140310092e-05   1.089518170631e-04 
5 1 -1.130889158651e-04   2.312015842800e-05   1.072535768868e-04 
6 1 -7.240451321021e-06  -9.386780517370e-05   7.495703549688e-05 
7 1  1.211161031273e-05  -7.426547702612e-06   2.705220334941e-07 
8 1 -6.133837684548e-06   6.864824440212e-06   4.712430510965e-05 
8
Step 2000
1 1  7.005936363723e-05  -1.185171476874e-04  -5.528908085255e-05 
2 1  4.334357440601e-05  -9.053563362799e-05  -2.513637632895e-05 
3 1  4.156229174237e-05   3.787458313443e-05   8.662756647413e-05 
4 1  1.546057388508e-05   1.768161775786e-05   9.017501075856e-05 
5 1 -9.219667260909e-05  -3.887974527940e-05   5.902848452684e-05 
6 1 -5.246693646945e-05  -3.066473095173e-05   2.197882006859e-05 
7 1  1.013973817977e-05  -2.091508615111e-05  -1.526331381105e-05 
8 1  4.883931803721e-06   1.015827459362e-05   6.329318215449e-05 
8
Step 2100
1 1  8.069772768733e-05  -1.330018501568e-04  -4.422063291746e-05 
2 1  4.567064664772e-05  -7.929689738454e-05   1.089202041265e-04 
3 1  8.345411819802e-06   3.349745758132e-05   1.052922075434e-04 
4 1  1.394101067813e-05   1.765303977269e-05   3.524519948512e-05 
5 1 -2.685281090400e-05  -5.873819210705e-05   2.137048987828e-05 
6 1 -7.288331744471e-05   2.912445871375e-05  -2.729015357779e-05 
7 1  7.340322316821e-05  -3.518705778481e-05   2.058111324940e-05 
8 1 -5.341641312602e-06   4.006561184779e-05   8.088900374097e-05 
8
Step 2200
1 1  8.546007147930e-05  -1.024084011377e-04   5.911514471003e-06 
2 1  3.624503923671e-05  -3.036569543647e-05   1.315189692417e-04 
3 1 -1.370134741697e-05   2.122696573534e-05   1.036066676032e-04 
4 1  3.112176865797e-06  -4.513877459132e-05   3.782448741625e-05 
5 1  9.947526450977e-06  -6.891608496565e-05   1.620322764201e-05 
6 1 -7.761250840350e-05   3.695683158544e-05  -3.427098344962e-05 
7 1  8.158413829113e-05  -2.933373473742e-05   9.771088249072e-06 
8 1  1.182702793538e-05   1.010569186301e-04   4.793574925718e-05 
8
Step 2300
1 1  5.527904533332e-05  -1.304612995133e-04  -2.232264531735e-05 
2 1  2.616025237719e-05  -7.648601629222e-05   1.148706193473e-04 
3 1 -7.273907653545e-05   4.275763219816e-05   9.412991973086e-05 
4 1 -1.621953928384e-05  -7.229142969997e-05   2.388993987528e-05 
5 1  3.280621872866e-05  -7.101428228630e-05   2.786534139542e-05 
6 1 -9.483443898619e-06   2.796597078951e-06  -7.713823379181e-05 
7 1  1.092834559664e-04  -6.310072513338e-05   2.451944837207e-05 
8 1 -2.349545826437e-05   1.453854204594e-04  -6.553015522712e-05 
8
Step 2400
1 1 -4.977147567245e-06  -7.580499152641e-05  -6.669833684721e-05 
2 1  9.326254890721e-05  -6.540698179546e-05   1.402448193321e-05 
3 1 -8.169934661442e-05   6.922960906034e-05   6.279567259579e-05 
4 1 -1.425272681548e-05  -1.150351394602e-04   3.689656252291e-06 
5 1  8.173587997996e-05  -5.613594321778e-05   6.502074536189e-05 
6 1 -7.775764446237e-06  -4.663117737989e-05  -7.735631795770e-05 
7 1  5.510735409212e-05  -1.159340862937e-04   2.191277730700e-05 
8 1 -7.514228625935e-05   1.461701750107e-04  -1.040187059800e-04 
8
Step 2500
1 1 -2.049103709604e-05  -2.600780719319e-05  -8.212870939639e-05 
2 1  8.386535265240e-05  -8.639713087521e-05  -2.379754844799e-05 
3 1 -3.692796653860e-05   2.841461094930e-05   3.950510981442e-05 
4 1 -9.089040051468e-06  -1.100738607747e-04  -1.547564423627e-05 
5 1  5.014679889225e-05  -4.343106540067e-05   6.411130241357e-05 
6 1 -2.107229779327e-05  -1.708055255188e-05  -3.798494747843e-05 
7 1  3.871319267266e-06  -1.523427437026e-04  -3.685394836814e-05 
8 1 -9.418533385078e-05   1.269622496662e-04  -8.918055796034e-05 
8
Step 2600
1 1 -3.332873293342e-05  -7.377354683117e-06  -3.630764571516e-05 
2 1  9.078622688228e-05  -8.379607019486e-05  -6.142473769589e-05 
3 1  4.430797257506e-05   3.053150061469e-05  -1.937122086049e-06 
4 1 -1.639466243737e-07  -6.675131980035e-05  -7.469269493817e-05 
5 1  1.368203891744e-05  -1.622449929126e-05   8.736739550443e-05 
6 1 -5.445636584709e-05   1.351728733560e-05  -1.028968674574e-06 
7 1 -1.037769744935e-05  -1.748724679258e-04  -7.875058960398e-05 
8 1 -5.140740906042e-05   3.788439851557e-05  -4.720811903837e-05 
8
Step 2700
1 1 -4.629463378228e-05  -1.555211963365e-05  -3.088893136881e-05 
2 1  9.389591637926e-05  -1.005625656227e-04  -5.640964051171e-05 
3 1  3.940922339047e-05   3.793845096592e-05  -4.293957766474e-07 
4 1 -2.122330502242e-05  -4.730423803326e-05  -6.482780197155e-05 
5 1  4.881115815629e-06   1.404958876106e-05   9.821054329817e-05 
6 1 -2.149096373809e-05  -3.180849040448e-05   6.543035635550e-06 
7 1 -4.216470255869e-05  -1.724672977243e-04  -7.094685662936e-05 
8 1 -8.526700363300e-06   2.430493539263e-05  -7.516927379362e-06 
8
Step 2800
1 1 -1.207893887911e-05  -2.546203659790e-05   7.836098734780e-06 
2 1  7.210465465146e-05  -1.083004545954e-04  -7.013853681668e-05 
3 1  6.413185606012e-05   1.302953759281e-05   1.175957115297e-05 
4 1 -5.233398678720e-05  -1.792271389160e-05  -2.277409490176e-05 
5 1 -1.052446215960e-06   3.238723979807e-05   1.366693143566e-04 
6 1 -3.866442647658e-06  -5.249868703255e-05  -3.724372111183e-05 
7 1 -2.403822526909e-05  -1.224744950215e-04  -6.052282380060e-05 
8 1 -2.222599773622e-05  -4.758406182052e-06   3.755275156951e-05 
8
Step 2900
1 1  5.090742941445e-06  -2.538736795900e-05   2.672898065160e-05 
2 1  6.176655654654e-05  -1.099766981819e-04  -5.590200054640e-05 
3 1  1.007697629063e-04  -1.191745583354e-05   3.337747962758e-05 
4 1 -5.139881828645e-05   5.739567355136e-05  -3.272194343602e-05 
5 1  1.858992787585e-05   1.854386966064e-05   1.583082786496e-04 
6 1 -1.564633293837e-05  -8.344320319799e-05  -3.422917908509e-05 
7 1  1.188782109192e-05  -1.475467692415e-05  -1.290561008772e-05 
8 1  4.760977637249e-06  -4.710606887606e-05   3.153056611752e-05 
8
Step 3000
1 1  6.793310160504e-06  -5.934622892072e-05   2.235547290117e-05 
2 1  5.909564383926e-05  -1.078856135876e-04  -5.580829459555e-06 
3 1  9.674490112313e-05  -3.270746010086e-05   2.072653028654e-05 
4 1  2.106858677575e-06   9.635567057018e-05  -7.051147212911e-05 
5 1  5.390172296161e-05   1.644268901002e-05   1.871466582961e-04 
6 1  2.968074257144e-05  -7.431372818677e-05  -4.994350308605e-06 
7 1  2.550475769924e-05   8.175797182802e-05  -2.046129505304e-05 
8 1  4.618055670704e-05  -1.063029729692e-04   5.575014397814e-05 
8
Step 3100
1 1 -1.495861918864e-05  -4.138870968321e-05   2.727320628670e-05 
2 1  3.952076596183e-05  -7.948242406616e-05   2.444203960947e-05 
3 1  3.596721204127e-05   1.049429475523e-05   4.264411409266e-05 
4 1  8.880799805402e-06   1.003188039850e-04  -8.160039855730e-05 
5 1  3.762540863692e-05  -1.383983908801e-05   1.686150882082e-04 
6 1  4.473759390869e-05  -4.926901177693e-05   1.082997026790e-05 
7 1  4.505337620379e-05   9.747373244126e-05   6.658036331561e-06 
8 1  1.255775188056e-04  -1.323435814537e-04   3.736614790578e-05 
8
Step 3200
1 1 -7.786615819465e-05  -5.851514538277e-05  -5.360230268431e-06 
2 1 -4.052546619813e-05  -7.078046288220e-05   8.950974268980e-05 
3 1  3.847653243791e-05   6.823810664117e-05   6.659449481420e-05 
4 1  3.611694148223e-05   1.811746204696e-05  -7.173531762791e-05 
5 1  3.424803609219e-05  -3.889500145444e-05   9.215861866717e-05 
6 1  3.144297760528e-05  -6.909068958314e-05  -3.999675029690e-05 
7 1  5.129307104928e-06   1.424835592831e-04   2.511905884271e-06 
8 1  1.387996135700e-04  -1.412631107904e-04   3.451542904157e-05 
8
Step 3300
1 1 -6.081630007771e-05  -9.216157566364e-05  -2.207948645354e-05 
2 1 -1.042931209479e-04  -3.545585229485e-05   1.137616410310e-04 
3 1 -2.319410573307e-06   5.818387100922e-05   1.126343222853e-04 
4 1  9.349831920879e-05  -3.948307153984e-05  -6.971505070017e-05 
5 1 -1.905235453534e-05  -7.956063300896e-05   2.191654295768e-05 
6 1  1.128477612243e-05  -7.850705838566e-05  -5.953079838893e-05 
7 1 -2.097655083638e-05   1.499566613446e-04   1.791893273270e-05 
8 1  6.961714173591e-05  -1.352496429589e-04   2.872331952515e-06 
8
Step 3400
1 1  1.785617192513e-05  -9.847234767352e-05  -4.767415379099e-05 
2 1 -8.930043903753e-05  -1.689166542913e-05   7.573363390967e-05 
3 1 -5.283680721556e-05   1.789928148266e-05   8.777598637300e-05 
4 1  5.330811287373e-05  -5.749296892916e-05  -3.303667639080e-05 
5 1 -5.512798119252e-05  -7.946434338513e-05  -1.701357370875e-05 
6 1 -5.322504339721e-05  -1.559505856970e-05  -5.556526370712e-05 
7 1 -6.323789423107e-06   1.203767118160e-04   8.957107098438e-06 
8 1  3.731899727575e-05  -1.091351835377e-04  -1.662054828488e-05 
8
Step 3500
1 1  6.268951786317e-05  -4.137968460944e-05  -1.008624160810e-04 
2 1 -7.782044971520e-05  -6.425968779367e-06   1.091461989496e-04 
3 1 -5.475393464925e-05  -3.441106327909e-05   2.950119485436e-05 
4 1 -2.387033018869e-06  -1.470483252251e-05   8.461651978108e-06 
5 1 -8.684101007063e-05  -8.786846870210e-05  -1.739068213542e-05 
6 1 -1.594509965123e-04  -5.822434864586e-05  -2.650448951082e-05 
7 1 -6.792884434549e-05   1.179624377889e-04   6.372397740854e-06 
8 1  4.627547229436e-05  -6.955470800492e-05  -2.165788957751e-05 
8
Step 3600
1 1  7.590535833524e-05  -2.120477858682e-05  -1.047433518265e-04 
2 1 -1.140508561354e-04  -2.980077463297e-05   6.165403991905e-05 
3 1 -5.566403654399e-05  -7.854588285048e-05   2.985763308797e-05 
4 1  1.034409125600e-05   1.497840834369e-05   4.299514758108e-06 
5 1 -2.576235196534e-05  -6.488154575155e-05  -2.029281498471e-05 
6 1 -1.831016128341e-04  -7.597508344884e-05   3.770235287342e-05 
7 1 -7.034312235811e-05   1.032491839616e-04   2.414525809505e-06 
8 1  5.060004421298e-05   4.042302059611e-05  -1.837683971091e-05 
8
Step 3700
1 1  7.139765999332e-05   5.346972362801e-05  -1.339831543088e-04 
2 1 -7.854843887077e-05  -3.318854360452e-05   2.553922891484e-05 
3 1 -5.750756107243e-05  -5.236905431719e-05   2.981164103273e-05 
4 1  6.228426195163e-06   3.120976481388e-05   1.820357921651e-05 
5 1  1.953192647017e-05  -2.807181656960e-05   6.594753944537e-05 
6 1 -1.168296911183e-04  -7.140782606329e-05   6.769438713311e-05 
7 1 -3.219208002388e-05   9.653164069863e-05  -1.855576891175e-06 
8 1 -7.122644075705e-07   6.183432292078e-05  -1.324970694933e-05 
8
Step 3800
1 1 -4.556347197395e-06   5.984910344172e-05  -1.006477234282e-04 
2 1 -7.884113314629e-05  -4.997942906616e-06  -3.035469502499e-05 
3 1 -6.024809663643e-05  -3.245679382788e-05   3.942255104410e-05 
4 1  1.080145838839e-05   3.322348130498e-05   6.933350884021e-06 
5 1  5.088203327543e-05  -6.399702501850e-05   1.030026552070e-04 
6 1 -9.830364196502e-05  -5.770005765093e-05   2.943421933702e-05 
7 1 -2.819609963139e-05   7.529184208931e-05   1.223125035441e-05 
8 1 -8.483757330649e-05   4.159026013182e-05   2.045931314680e-05 
8
Step 3900
1 1 -2.178095061581e-05  -2.532680516097e-07  -9.053634798847e-05 
2 1 -6.999278158447e-05   3.951029600971e-05  -4.381168452544e-05 
3 1 -5.833872142541e-06  -3.808868700350e-05   6.953036483623e-05 
4 1 -8.037027917319e-06   3.055888749085e-05   8.908767352447e-06 
5 1  4.901522675699e-05  -9.311354667198e-05   7.451798720666e-05 
6 1 -8.569996976350e-05   8.704922806799e-07  -1.650752714497e-05 
7 1 -3.114323058848e-05   4.664645040999e-05   2.398328828160e-05 
8 1 -8.080892880856e-05   3.870123211914e-07   1.773501200659e-05 
8
Step 4000
1 1 -3.062473300537e-05  -9.896981282072e-05  -8.313233461465e-05 
2 1 -4.203120881486e-05   1.841382931052e-05  -8.581630859029e-06 
3 1  9.324763820256e-05  -3.946563993686e-05   5.634755913218e-05 
4 1 -4.407523081447e-05   3.174516239996e-06   4.027364096741e-05 
5 1  5.046633697024e-05  -5.375889542618e-05   6.917187412005e-06 
6 1 -1.103017690782e-04  -1.446636065094e-05  -1.081546395134e-04 
7 1 -1.616319080406e-05   4.393282565807e-05   7.112200492800e-06 
8 1 -8.481447537224e-05  -1.059307574870e-05   4.177612154440e-05 
8
Step 4100
1 1 -2.719968011032e-05  -1.107964753657e-04  -1.403932936942e-04 
2 1 -2.450095543097e-05  -5.881262415786e-05  -3.478824425590e-05 
3 1  1.256794615455e-04  -8.694798226945e-05   4.285513988486e-05 
4 1 -9.297171402425e-05  -4.312327243358e-06   1.363087792352e-05 
5 1  6.106184860039e-05   3.040289851274e-05  -2.586675686794e-05 
6 1 -1.014992029743e-04  -3.892804169713e-06  -5.826652867803e-05 
7 1 -2.411092430695e-07   1.614481164722e-05  -1.432148070551e-05 
8 1 -9.680973420854e-05   3.629040841280e-06   5.916944065894e-05 
8
Step 4200
1 1 -2.588169149048e-05  -7.350903644853e-05  -1.934637254195e-04 
2 1 -3.281703112927e-05  -6.374841404411e-05  -1.307259136649e-05 
3 1  1.468276403001e-04  -1.000602206827e-04   4.868956624248e-05 
4 1 -8.338919554871e-05  -2.596091006263e-05   3.540587842870e-06 
5 1  8.039942070803e-05   7.108865510464e-05  -3.690145468433e-06 
6 1 -8.958799831520e-05  -4.416332381951e-05   5.090816357734e-05 
7 1  4.101802989312e-05  -6.622993478014e-06  -8.322324620420e-06 
8 1 -1.050276865006e-04  -1.173616013905e-05   4.444941442241e-05 
8
Step 4300
1 1  1.182358513317e-05  -2.513877809314e-05  -1.896898454595e-04 
2 1 -6.799443004421e-05  -6.378389211116e-05  -1.386497807251e-05 
3 1  1.307809265093e-04  -7.910253697071e-05   2.243135212415e-05 
4 1 -6.200204559035e-05  -5.269232348205e-05  -2.967103670324e-05 
5 1  7.935172501362e-05   6.971907618686e-05   3.979897502035e-05 
6 1 -6.385241573412e-05  -3.676902642981e-05   1.121390427189e-04 
7 1  6.342600063552e-05   3.097620549343e-05  -1.158561636757e-05 
8 1 -5.471638947543e-05   7.724263877502e-06   5.625337359204e-05 
8
Step 4400
1 1  1.273404271277e-05  -3.381683226992e-05  -1.404909176757e-04 
2 1 -1.126177246428e-04  -9.770400653387e-05  -1.574637374501e-05 
3 1  9.298997942689e-05  -7.351090533151e-05   6.915386775868e-06 
4 1 -9.469397927117e-05  -8.524354767970e-05  -1.807058183887e-05 
5 1  3.385525228581e-05   2.183575714850e-05   2.560022792572e-05 
6 1  1.680126955086e-05  -7.315706944326e-06   9.008259539545e-05 
7 1  2.387905359194e-05   4.724889103040e-05  -1.674876364706e-05 
8 1 -2.943805975629e-05   2.439966161708e-05   4.852537645012e-05 
8
Step 4500
1 1  6.439599160144e-05  -8.281875065027e-05  -8.681983433771e-05 
2 1 -1.251242292245e-04  -9.397419817034e-05   6.251380057358e-06 
3 1  7.493205654542e-05  -3.522453495194e-05   4.837527288264e-05 
4 1 -1.020347874329e-04  -6.822605978840e-05  -3.399901369227e-05 
5 1 -1.027206233862e-05  -2.259775611447e-05   3.060707222165e-05 
6 1  4.384982913594e-05  -1.553973362012e-05  -1.126594777818e-05 
7 1  2.717140863974e-05   5.189640836407e-05  -1.816970910022e-05 
8 1 -2.183326070831e-05   6.712273901960e-05   6.453236916587e-05 
8
Step 4600
1 1  8.788641313044e-05  -7.804126264009e-05  -9.289108192199e-05 
2 1 -1.234328912613e-04  -3.640275789287e-05   2.050419696765e-05 
3 1  8.263358480001e-05  -8.892024413833e-06   6.073917901505e-05 
4 1 -9.527906947275e-05  -3.405030770269e-05   8.683853840639e-06 
5 1 -3.820854559749e-05  -2.714865699984e-05   5.784230170361e-05 
6 1  3.703968366599e-05  -5.890809703359e-05  -1.458373850660e-04 
7 1  3.829390137389e-05   3.814957762233e-05  -1.666830713278e-05 
8 1 -9.424077013674e-06   5.015717472349e-05   1.115615034479e-04 
8
Step 4700
1 1  1.381727262538e-04  -6.517930104245e-05  -5.164927944015e-05 
2 1 -1.113296415111e-04   1.515730391695e-06   2.336738051764e-06 
3 1  3.190140566021e-05   6.734469349542e-05   5.283575409816e-05 
4 1 -8.322985414393e-05  -1.324243433766e-05   7.665125004579e-05 
5 1 -2.787472403534e-05  -2.552377338330e-05   6.684875825718e-05 
6 1 -2.417317479942e-05  -9.542143277605e-05  -2.338916488855e-04 
7 1 -1.554676893472e-05   3.530587264443e-05  -3.972860690359e-05 
8 1 -1.536782669151e-05   3.059884105315e-05   7.931548849944e-05 
8
Step 4800
1 1  1.108484381407e-04  -6.411465143078e-05  -4.606233783633e-05 
2 1 -6.480477875420e-05   7.731773588291e-05   5.915916953498e-06 
3 1  1.140605901644e-06   1.362786961471e-04   3.216057504158e-05 
4 1 -6.415890508659e-05  -6.462038850954e-06   1.047567447837e-04 
5 1 -3.741816893511e-05  -7.212429582569e-05   6.883895361013e-05 
6 1 -8.696729289217e-05  -1.056422047435e-04  -1.649004611890e-04 
7 1  9.121187560852e-06   8.387584303602e-05  -5.653692977923e-05 
8 1  2.495101908548e-07   3.514843425329e-05   3.699751493237e-05 
8
Step 4900
1 1  5.320264199071e-05  -4.227566490254e-05  -8.143028414582e-05 
2 1  2.262162567158e-06   1.244141776466e-04   6.256600211432e-06 
3 1 -7.652010217287e-06   7.446187881591e-05  -1.234778889161e-05 
4 1 -1.796337068357e-06   7.306697147285e-06   8.135610078985e-05 
5 1 -7.468728843417e-06  -5.880656126207e-05   8.040974793866e-05 
6 1 -4.296777457925e-05  -9.786702801969e-05  -6.285393966693e-05 
7 1  5.020555394917e-05   1.676252167432e-04  -9.504865354365e-05 
8 1  1.387316947753e-05   2.721792235127e-05   7.615626305713e-05 
8
Step 5000
1 1 -1.719132272132e-05  -3.327154569358e-05  -9.209102946696e-05 
2 1  1.561797971860e-05   1.252364732276e-04   1.617945355686e-05 
3 1 -7.214623590407e-06   3.649080943072e-05  -5.744607731805e-05 
4 1  2.915890513981e-05  -4.165244127378e-05   1.023063592105e-04 
5 1 -1.505739105839e-05  -3.386661225651e-05   7.258054067521e-05 
6 1 -1.555993048955e-05  -6.044737005373e-05   2.274688286084e-05 
7 1  3.729262029616e-05   1.849212323372e-04  -1.005584638723e-04 
8 1  2.722774247206e-05   1.002866200526e-05   6.179004829125e-05 
8
Step 5100
1 1 -7.047396181023e-06  -1.018489372643e-04  -6.515464069959e-05 
2 1 -2.242809890089e-05   1.039811830353e-04  -1.996516784384e-05 
3 1 -1.554706046670e-05   6.001226600079e-06  -1.153968189673e-04 
4 1  1.810158797710e-06  -3.541627887451e-05   1.142912100785e-04 
5 1 -2.714044857956e-05  -3.147743499036e-05   7.495838297786e-05 
6 1 -5.679091916763e-05  -4.271930491484e-05   7.927610046218e-05 
7 1 -6.427910290778e-07   9.280834401636e-05  -1.035923412510e-04 
8 1  5.106937726602e-05   3.557765214759e-05   4.699604467724e-05 
8
Step 5200
1 1 -1.715165533459e-06  -1.420275936752e-04   2.716641061248e-05 
2 1 -5.927527668813e-05   5.081308427659e-05  -7.476049822826e-05 
3 1 -3.477239798793e-05   8.283383464738e-06  -6.203672578604e-05 
4 1 -3.458116968938e-05  -3.391893087716e-05   6.244779549493e-05 
5 1 -9.842316795423e-06  -4.374654219238e-05   3.083526809844e-05 
6 1 -1.041207856005e-04  -2.890615035488e-05   9.036445893510e-05 
7 1 -4.179350501410e-06  -9.660018003707e-06  -4.258454801970e-05 
8 1  5.178225426498e-05   2.861951744979e-05  -4.438701025733e-05 
8
Step 5300
1 1  1.877422672290e-05  -9.193497848825e-05   6.189815425764e-05 
2 1 -4.375596154545e-05   2.096862674751e-05  -6.006518158362e-05 
3 1 -9.947193135038e-06   3.039680327584e-05  -1.384438986653e-05 
4 1 -6.740044475834e-05  -3.936176777504e-05   2.424566678827e-05 
5 1 -2.391967644673e-05  -4.198174502380e-05  -1.508806260430e-05 
6 1 -7.705878971016e-05  -2.459766109582e-05   8.846457305534e-05 
7 1 -1.451752211269e-05  -6.003142237216e-05  -3.130493317734e-05 
8 1  4.310204156454e-05  -3.526973605280e-06  -9.786508077230e-05 
8
Step 5400
1 1  5.717945306165e-05  -3.350121688448e-05   6.840907822890e-05 
2 1 -4.170533341394e-05   2.656610082790e-05  -5.493572298854e-05 
3 1 -1.167481278574e-05   4.636637129837e-05   2.854795499249e-05 
4 1 -9.506736817271e-05  -9.096892735608e-05   7.620155544371e-06 
5 1 -3.964316127511e-05   4.201989821609e-05  -2.507086373841e-05 
6 1 -8.786078000394e-05  -6.479349052405e-05   6.086959818831e-05 