8
Step 0
1 1  0.000000000000e+00   0.000000000000e+00   0.000000000000e+00 
2 1  0.000000000000e+00   0.000000000000e+00   0.000000000000e+00 
3 1  0.000000000000e+00   0.000000000000e+00   0.000000000000e+00 
4 1  0.000000000000e+00   0.000000000000e+00   0.000000000000e+00 
5 1  0.000000000000e+00   0.000000000000e+00   0.000000000000e+00 
6 1  0.000000000000e+00   0.000000000000e+00   0.000000000000e+00 
7 1  0.000000000000e+00   0.000000000000e+00   0.000000000000e+00 
8 1  0.000000000000e+00   0.000000000000e+00   0.000000000000e+00 
8
Step 100
1 1  4.568230841051e-04   9.154726547152e-04   4.296087281580e-04 
2 1 -9.184205518803e-04   2.448767484829e-03  -1.513633338220e-03 
3 1 -2.161551397765e-05   1.488597784145e-03  -1.682589083099e-04 
4 1  8.831112179059e-04   1.756871986689e-03   9.922062333526e-04 
5 1 -1.998962394587e-03  -6.635124255090e-04   2.524901371198e-03 
6 1 -8.096851889603e-04   1.867710197829e-03  -1.027686054808e-03 
7 1 -6.917089517660e-04  -1.203619276913e-05   4.773647008596e-04 
8 1 -3.514856006980e-04  -1.633235934923e-03  -2.067925954802e-03 
8
Step 200
1 1  9.991428410501e-04   1.216147384537e-04  -2.112078578157e-04 
2 1 -2.636087539916e-04  -2.810353333154e-04   2.089273201635e-04 
3 1  1.144596129379e-03  -3.173121191012e-04  -1.168984081605e-04 
4 1 -3.404441027624e-04  -9.240723401756e-05   3.343858359359e-04 
5 1  8.650187793399e-06  -8.506540769971e-04  -4.175199858951e-04 
6 1  8.233120129763e-06  -5.827069264235e-04   8.528473105967e-05 
7 1  1.187689221006e-04   5.214315517611e-04   2.424771075081e-04 
8 1 -6.458808161634e-04   3.929683202926e-04  -2.207015605832e-04 
8
Step 300
1 1  5.146029465774e-04  -9.966068083842e-05  -1.647807693985e-04 
2 1  1.927057282331e-04  -7.914990701016e-04   7.350046199011e-04 
3 1  8.790065065611e-04  -4.906184732109e-04   5.431600801528e-05 
4 1 -7.108345554507e-04  -4.856402422525e-04   8.828598228432e-05 
5 1  6.838595051272e-04  -6.219374755337e-04  -1.014433823948e-03 
6 1  9.483681707116e-05  -1.189565497266e-03   2.041085769899e-04 
7 1  1.879381864984e-04   4.728223769499e-04   1.191616971314e-04 
8 1 -6.297296945249e-04   1.056639518747e-03   4.911268973120e-04 
8
Step 400
1 1 -1.929339986675e-05   1.186849556867e-04   4.211165657379e-05 
2 1  2.625516702606e-04  -1.513630642296e-04   3.628017663154e-04 
3 1  1.409574365473e-04  -9.034976095242e-05   1.195046989555e-04 
4 1 -4.908592420518e-04  -2.890533174002e-04   9.014290467442e-05 
5 1  1.141307915812e-04  -3.498004775666e-04  -2.069467174989e-04 
6 1 -1.501747260732e-05  -5.725312824349e-04   8.889320816136e-05 
7 1  2.119865009443e-04   4.269284594196e-05   7.387081133412e-06 
8 1 -5.326262479031e-04   7.958328911917e-04   3.230708606271e-04 
8
Step 500
1 1 -2.571805317657e-04   2.366540659536e-04   1.109249179268e-05 
2 1  5.803284867358e-05   4.103982875040e-04   1.517998391725e-04 
3 1 -3.510337804214e-04   2.164715989956e-04  -2.157342158669e-05 
4 1 -2.256609549630e-04  -1.303888749392e-04   2.323021406294e-04 
5 1 -3.104331002441e-04  -1.374735694155e-04   2.265063278626e-04 
6 1 -9.545091954272e-05  -3.335575097106e-05  -3.885566756236e-05 
7 1  1.287154946524e-04  -1.668215379179e-04  -1.692765691098e-04 
8 1 -2.077273436662e-04   3.402217605356e-04   1.948279603219e-04 
8
Step 600
1 1 -2.771050260910e-04   3.456469944993e-04  -1.293035358258e-04 
2 1  1.593057281980e-05   4.214688257145e-04   4.243784266811e-05 
3 1 -4.330906270399e-04   1.241844689338e-04   1.757698979381e-04 
4 1 -8.944612152686e-05   5.861375718637e-05   3.628027708895e-04 
5 1 -3.016731686261e-04  -1.336392986713e-04   3.988781820085e-04 
6 1 -8.877482437326e-05   2.846304074870e-04  -1.354630343027e-04 
7 1 -2.340257088903e-05  -3.054900272258e-05  -1.182289761779e-04 
8 1 -6.007824594721e-05  -1.492841046763e-05  -5.427331703970e-05 
8
Step 700
1 1 -6.970604135455e-05   2.890659432170e-04  -2.194005464826e-04 
2 1  1.298736257274e-04   2.341902857139e-04  -1.404882747431e-04 
3 1 -8.537453319818e-05  -2.878213328427e-05   2.853564258148e-04 
4 1 -2.110023901532e-05   2.188562556420e-04   3.365593736331e-04 
5 1 -2.437298246655e-04  -2.045489604273e-04   2.356341940734e-04 
6 1 -4.843462920429e-05   1.369427990930e-04  -2.750814332616e-04 
7 1 -1.254696024658e-04   9.531314260475e-05  -1.757727625500e-04 
8 1 -1.256038157106e-04  -7.191028335306e-05  -9.161113448625e-05 
8
Step 800
1 1 -1.479704700411e-04   4.182885875663e-05  -2.478810093465e-05 
2 1  2.521485519493e-04   1.812450211699e-04  -8.387538687246e-05 
3 1  2.525290431296e-04   7.782769232789e-05   1.609827687888e-04 
4 1 -7.985110095518e-05   7.655377891807e-05   1.676680364758e-05 
5 1 -1.365335150359e-04  -2.100500314962e-04   1.001987141984e-05 
6 1  1.401619999789e-05  -4.646954852465e-05  -2.927790927758e-04 
7 1 -9.679606879232e-05   5.663166668790e-05  -1.034488395692e-04 
8 1 -8.460501309327e-05   4.424113612377e-05   1.552630320323e-05 
8
Step 900
1 1 -1.889422159499e-04  -2.166446294460e-04  -8.418971706205e-05 
2 1  1.440363012986e-04   1.830070854472e-05  -8.091684549481e-05 
3 1  3.207074934962e-04   8.671717137814e-05   7.125155340521e-06 
4 1 -2.186984312773e-04  -1.221193299238e-04  -3.383163689352e-04 
5 1 -1.312773593556e-04  -2.012336953061e-04  -5.329166054605e-07 
6 1 -5.766573075535e-05  -1.776933597234e-04   2.811665587047e-06 
7 1 -2.194930675453e-04  -1.159653237548e-05  -7.131015486445e-05 
8 1  3.163501053261e-05   1.612175979520e-04  -9.660723720375e-05 
8
Step 1000
1 1 -8.610666647850e-05  -2.172641493637e-04  -1.071679106371e-04 
2 1  8.152903580767e-05  -1.297829932598e-04  -1.435243796339e-04 
3 1  2.205779775637e-04   7.516127615135e-06  -8.557169111546e-05 
4 1 -1.995606849054e-04  -1.920798702053e-04  -3.804355804072e-04 
5 1  6.192247610019e-06   9.392226073507e-05  -7.160118582091e-05 
6 1 -1.850595517867e-04  -2.395866532766e-04   4.130358982600e-05 
7 1 -2.561387112067e-04  -5.972259727461e-05  -1.046109326047e-04 
8 1 -1.242180597277e-05   6.995458324378e-05  -5.221306165780e-05 
8
Step 1100
1 1 -1.030319509163e-04  -2.342540103214e-04  -1.565218075838e-04 
2 1 -5.011696946521e-05  -4.283883264962e-06  -1.033272089337e-04 
3 1  1.438992280823e-05  -4.840417130438e-05  -1.067045662274e-04 
4 1 -2.450672197839e-04  -1.471152959392e-04  -2.552627819618e-04 
5 1 -1.112063386993e-04   2.240562669856e-04   2.547541025819e-05 
6 1 -6.168957844590e-05  -7.099341232199e-05  -1.015391236513e-04 
7 1  2.713372058650e-05  -1.436490794204e-04  -8.101862614394e-05 
8 1  6.165996809597e-05  -1.065167292341e-04  -5.524475313319e-05 
8
Step 1200
1 1 -6.137858212225e-05  -8.296027253930e-05  -5.026641314566e-04 
2 1 -4.664603968599e-05  -3.310127017422e-05  -1.110781304105e-04 
3 1 -1.465016235190e-05  -2.786036210088e-04   6.320204150266e-05 
4 1  5.259624724975e-05  -8.841272825723e-05  -1.638450657429e-04 
5 1 -2.520817896681e-04   4.242088220706e-05   1.893362369294e-04 
6 1  1.277719387137e-04   1.414910870548e-04  -2.103743002692e-04 
7 1  9.693625000128e-05  -2.066427370656e-04  -3.333771009539e-05 
8 1  1.892646852150e-04  -1.660481956119e-05  -2.071425708342e-05 
8
Step 1300
1 1 -6.014197843955e-05   2.400371731174e-04  -4.927437671789e-04 
2 1  1.417157849261e-04   2.008638062076e-04   7.454313734827e-05 
3 1  8.843719378192e-05  -7.227316493902e-05   1.104812235100e-04 
4 1  2.184460203566e-04  -4.642300226851e-05  -1.419981298020e-04 
5 1 -2.052219831076e-04  -2.078006324106e-04   1.478927291694e-04 
6 1  1.026304962086e-04   8.753704161035e-05   5.813062589364e-05 
7 1  4.124166526345e-05  -9.772174725736e-05   7.119442063086e-05 
8 1  2.597165278990e-04  -3.772968353543e-05   7.227629047318e-05 
8
Step 1400
1 1  8.068133064074e-06   1.027160419253e-04  -1.599305297214e-04 
2 1  2.115363983493e-04   3.781082540385e-05  -8.109188572662e-05 
3 1  1.407259700915e-04   7.782116895547e-05  -8.743938378049e-06 
4 1  2.894789774600e-05   5.703983423902e-05  -8.963065592377e-05 
5 1 -7.593275420548e-05  -1.271023174945e-04  -5.113328325840e-05 
6 1 -5.557563775520e-05   1.577222174257e-04   1.460568406387e-04 
7 1  5.172131163178e-05   1.871206673906e-05  -8.888414609477e-05 
8 1  3.365069976192e-04   1.843137417409e-05   1.604760716759e-04 
8
Step 1500
1 1 -1.943804746144e-04   7.016661217526e-05   1.054374681399e-04 
2 1  1.739458056214e-04  -1.179758627222e-04   9.501867240087e-05 
3 1  2.712050176397e-04   1.663483812922e-04  -1.748325877472e-04 
4 1 -2.534718652369e-04  -5.662235399011e-05  -1.399195050860e-04 
5 1  1.886375850846e-05   2.331243618437e-05  -1.026222301138e-04 
6 1 -1.135262343493e-04   1.399907807449e-04   8.735602511211e-05 
7 1  1.441005623638e-04   1.116169200096e-04  -1.655416988643e-04 
8 1  1.906054033497e-04   1.970084042553e-04   1.256772360405e-04 
8
Step 1600
1 1 -2.052944529020e-04  -3.759027945591e-06   3.256603297611e-04 
2 1  3.516435839471e-05  -7.306527807111e-05   1.701003749733e-04 
3 1  2.147238577057e-04   2.099257271891e-04  -1.491494800967e-05 
4 1 -5.722017137696e-05  -5.630645541293e-05   7.092086323596e-05 
5 1 -1.651261323523e-04   2.882954399836e-04  -3.169503250015e-04 
6 1 -1.030339222999e-05   5.094609388107e-05  -5.789298102877e-05 
7 1  1.754763898445e-04   9.448464291265e-06  -2.025389233608e-05 
8 1  1.432769535034e-05   1.362244118676e-04   7.169204529108e-05 
8
Step 1700
1 1  3.106681088787e-05  -2.369992547467e-04   2.203352238548e-04 
2 1 -5.257801668506e-05  -8.963938043739e-05   1.012852798013e-04 
3 1  2.671430702324e-04   1.374586510058e-04   1.273619613991e-04 
4 1  1.111051034085e-04  -1.567292244776e-04   2.686195719405e-05 
5 1 -1.867037016350e-04   1.316938648054e-04  -2.835794934250e-04 
6 1  5.307327795595e-07   7.459593893676e-06  -8.845846876236e-05 
7 1 -1.624454591094e-05  -5.789142877791e-05  -1.666399299252e-04 
8 1  3.414513217542e-05   2.676795266278e-05   2.302097003726e-04 
8
Step 1800
1 1  1.012978547153e-04  -1.152805493564e-04  -1.345922671694e-04 
2 1 -1.220802415358e-04  -1.133063688471e-04  -5.451055076654e-05 
3 1  2.142074897273e-04   8.509718089996e-05   1.009422085954e-04 
4 1  1.892099495576e-04  -1.439683371308e-05   4.494400087873e-05 
5 1 -4.428610283556e-05  -3.528524215239e-05   5.706429543333e-05 
6 1 -1.814920616578e-05  -1.383717734113e-04   1.038046124227e-04 
7 1 -1.445864629200e-04  -2.715723883140e-05  -2.209174171546e-04 
8 1  5.157238841255e-05  -6.321084232230e-05   2.742604880695e-04 
8
Step 1900
1 1  1.953871091902e-05   8.573672557037e-05  -2.358777655246e-04 
2 1 -2.044668492838e-04  -2.047315783955e-04  -5.588386600322e-05 
3 1  1.379285009490e-04   1.499050289263e-04   2.010873208734e-04 
4 1  2.439761665282e-04   1.240448894644e-04   1.210837516034e-04 
5 1  1.801286068358e-04  -1.104375957180e-04   2.620192059335e-04 
6 1 -2.509005327740e-07   1.261050364812e-05   4.720354180719e-05 
7 1  8.012075001018e-05  -3.763114612489e-05   5.367755231415e-05 
8 1  4.232561770928e-05   2.653299724375e-05   7.776441090875e-05 
8
Step 2000
1 1 -3.828223950264e-05  -8.346944876224e-05  -2.394306547147e-04 
2 1 -7.350252382855e-05  -2.276755487992e-04   2.398932487968e-04 
3 1  2.564162950580e-04   8.429689279863e-05   1.295989125059e-04 
4 1  1.231283336934e-04   2.305567172900e-05   8.596299784032e-05 
5 1  7.681832786002e-05  -2.088016639186e-04   9.843719100841e-05 
6 1  2.711949600918e-05   1.708619005984e-04  -3.128903430852e-05 
7 1  2.577115670659e-04  -2.638192297462e-04   2.097957556200e-04 
8 1  4.744062418323e-05  -1.396772384233e-05  -7.268557613126e-05 
8
Step 2100
1 1 -3.467619430022e-05  -2.298290557650e-04  -2.453270575107e-04 
2 1 -6.682300844765e-05   1.963573868058e-05   2.175101571936e-04 
3 1  2.372548008785e-04  -2.647472712314e-05  -7.636251091065e-05 
4 1  1.836392126334e-04   4.913147706319e-05   5.511243275726e-05 
5 1  2.495868278380e-04  -1.870895531231e-04   2.889110591330e-05 
6 1 -1.360913279755e-04   1.351453855568e-04   1.036890478858e-04 
7 1  8.691479083321e-05  -3.297682733693e-04   2.269967772560e-04 
8 1  5.012774242660e-05  -9.440565387140e-05  -9.308284023267e-05 
8
Step 2200
1 1  3.643561515366e-05  -1.574040302963e-04  -1.596254575778e-04 
2 1 -1.475008977673e-04   1.540665234966e-04   1.694061069825e-04 
3 1 -9.067844922949e-05  -2.719918439412e-04  -5.293850956116e-05 
4 1 -2.162661148893e-05  -1.466077598413e-04   2.183740069368e-04 
5 1  2.827544556345e-04  -9.367509302284e-05   1.615969249350e-04 
6 1 -2.079615482376e-04  -5.734930701158e-05   6.132186285928e-05 
7 1 -1.409887232092e-04  -7.006201658653e-05  -8.130407580404e-05 
8 1  6.398836697774e-06   1.197813712679e-06   1.144420028841e-04 
8
Step 2300
1 1  5.743927576544e-05  -4.061269357809e-05  -1.033512463577e-04 
2 1 -1.876038309241e-04   1.552602649541e-04   1.418090997526e-05 
3 1 -3.092998060840e-04  -1.963850670106e-04   3.346144454868e-05 
4 1 -2.042860401734e-04  -2.499768746405e-05   2.911390809322e-06 
5 1  1.715232072679e-05   6.934491693171e-06   2.714613181213e-04 
6 1  1.492798815974e-05  -2.028812392016e-04   8.002854339764e-05 
7 1 -4.182301563459e-05   2.494345876992e-04  -1.774270236501e-04 
8 1  2.929950280520e-05   1.143749524534e-04   1.565050614217e-04 
8
Step 2400
1 1 -1.067528859035e-04   1.141944796441e-04   9.164646920200e-05 
2 1  7.580310324961e-05   4.560182678306e-05  -1.377729031618e-04 
3 1 -3.138722427052e-04  -5.122193439144e-05   2.050504524330e-04 
4 1 -2.718483460310e-04   1.424040950697e-04  -9.129753934308e-06 
5 1 -5.018645472886e-05  -5.304176235898e-05   2.981578913600e-04 
6 1  2.911784565027e-05  -1.643774001586e-04   7.049793018090e-05 
7 1 -1.253507307856e-05   4.709161544768e-05  -3.027995631966e-05 
8 1 -1.949021733485e-05   2.667109285027e-06  -4.079622194315e-05 
8
Step 2500
1 1 -2.088913529223e-04   6.037552133689e-05  -2.362517787870e-05 
2 1  4.751314047481e-05   2.746195325862e-05   3.159400813747e-05 
3 1 -1.620346092284e-04   2.483057986327e-05   4.128057997338e-05 
4 1 -1.543412977722e-04   3.661709801702e-05   9.065050811139e-05 
5 1 -4.705873112923e-06  -7.338775638159e-05   1.612786831217e-04 
6 1 -7.555572249382e-05   1.230503837249e-04   7.379177878909e-05 
7 1 -6.093229021082e-05  -2.803619649553e-04   1.786679677784e-05 
8 1 -6.385438115240e-05  -1.189649563594e-04  -1.610834843226e-04 
8
Step 2600
1 1 -2.202113009479e-06  -1.394536768096e-04  -1.246450732897e-04 
2 1  2.270059677597e-05  -1.601534665192e-05   1.263358945443e-04 
3 1 -4.737951043731e-05   8.605044260902e-05  -9.365017493009e-06 
4 1  1.360352736534e-04   6.901494162261e-05  -8.613681482701e-05 
5 1 -6.382176739823e-05  -1.403048926649e-04   9.764891994957e-05 
6 1 -3.857598053704e-05   1.495872830563e-04   4.913905410398e-05 
7 1 -1.209447626457e-04  -1.935002586106e-04   5.973748687093e-05 
8 1  6.473432021762e-05   2.517841835328e-05  -3.761371564082e-04 
8
Step 2700
1 1  1.127079404506e-04  -1.033190273495e-04  -2.545810252700e-04 
2 1  1.666634922724e-04  -1.432621770076e-04  -1.862710645503e-05 
3 1  3.115165800284e-05   1.456731875692e-04   6.946209729176e-05 
4 1  1.225674815609e-04   4.249420546453e-05  -1.120814893231e-04 
5 1 -2.961396005570e-04  -1.392452300880e-04   1.629687683549e-05 
6 1  2.000501232257e-04  -1.560135108404e-05   8.992386733852e-05 
7 1 -1.395732099168e-04  -1.756475402663e-04   1.992417469600e-05 
8 1 -1.489180514115e-05   1.461198354017e-04  -1.648705962141e-04 
8
Step 2800
1 1  1.438329313239e-04  -1.583397823598e-04  -2.754366738985e-06 
2 1  1.144069876438e-04  -1.552240877157e-04  -1.487682470949e-04 
3 1  7.513761856884e-05  -1.513613086164e-06  -4.116017081199e-05 
4 1  1.095494288893e-05   5.811098941761e-05   9.316302149437e-05 
5 1 -8.145631647469e-05   1.012776022907e-04  -1.515746573008e-04 
6 1  3.810652901920e-04  -4.380004037215e-05  -1.089167741891e-04 
7 1 -1.175722970775e-04  -9.331934679966e-05  -6.718478618082e-05 
8 1 -9.431541038389e-05  -1.019476844906e-04   2.155896761868e-04 
8
Step 2900
1 1 -5.484238732688e-05  -1.365929620559e-04   2.839641854178e-04 
2 1 -4.597367696720e-05  -1.496877516499e-04  -4.470387888067e-05 
3 1 -1.803969447938e-05  -2.456280046918e-04  -4.421891904123e-05 
4 1 -9.475080510119e-05   7.215006455502e-05   1.077729428430e-04 
5 1 -7.673391304363e-05   5.785351955433e-05   1.461110450133e-04 
6 1  1.582260916015e-04  -1.053602379794e-04  -2.065998750252e-04 
7 1  5.822431843278e-05   5.941714121013e-05  -4.567363249514e-07 
8 1 -4.729744454057e-05  -2.641675242851e-04   2.437550071628e-04 
8
Step 3000
1 1 -1.439877287319e-05  -7.097728686362e-05   2.512900422624e-04 
2 1 -1.272574275554e-04  -1.144051678863e-04  -3.069045625754e-05 
3 1  4.700401677523e-05  -9.661401839870e-05  -7.573914746038e-05 
4 1  1.578619583700e-04  -1.014773952935e-04   1.319106193186e-04 
5 1  5.480504243136e-05  -1.066163534346e-04   2.658453135796e-04 
6 1  5.762300768007e-05  -1.363015655119e-04  -2.725819882522e-05 
7 1  1.090001768204e-04   1.138863738400e-05   1.934765563327e-05 
8 1  1.450689477312e-04  -3.675917537658e-04   5.793812718847e-05 
8
Step 3100
1 1 -7.265453483830e-06   1.360430129384e-04   2.300679901854e-05 
2 1 -8.633503478362e-05  -8.778846691037e-05  -1.574870207226e-04 
3 1 -1.832265025045e-04   7.417454441161e-05  -1.299876453336e-05 
4 1  1.511580045142e-04  -6.145845600914e-05   1.008384565584e-04 
5 1 -3.841983199515e-05  -5.647443082813e-05  -1.191854647583e-05 
6 1 -1.925953590730e-05  -1.592847708673e-04   7.746575222041e-06 
7 1  1.724569488364e-04  -3.990218105892e-05   8.351301324256e-06 
8 1  3.056458248145e-04  -3.374826154862e-04  -7.973627479798e-05 
8
Step 3200
1 1 -1.190745313506e-04  -7.776318197392e-05  -1.817768930951e-04 
2 1 -1.337315945100e-05  -7.618140245589e-05  -2.054934228003e-04 
3 1 -2.470887098983e-04  -3.329901966916e-05   2.692892610700e-04 
4 1  2.369113223011e-04   7.511436415645e-05   8.886831803075e-05 
5 1 -6.798719579406e-05   8.944301586256e-05  -2.238153591741e-04 
6 1 -1.739867969181e-04  -1.796552129247e-04   1.652262869124e-04 
7 1  1.577922936657e-04   2.575346282165e-05  -9.321835879315e-06 
8 1  3.221681932653e-06  -2.734253763162e-04  -3.030592268005e-05 
8
Step 3300
1 1 -1.661064689628e-04  -1.103304929644e-04  -2.360038501125e-05 
2 1  3.060801403878e-05   4.839048862047e-05  -4.390864695147e-05 
3 1 -7.514136181186e-05  -3.793789452826e-05   4.417021654417e-04 
4 1  6.617991264904e-05   2.109004103463e-05   7.177160298787e-05 
5 1 -9.351696838571e-05  -1.898466924657e-05  -1.346222673132e-04 
6 1 -7.741743657999e-06  -2.561150302175e-04  -4.275941785706e-05 
7 1  2.586007582376e-05  -2.671229295156e-05   6.381584733464e-05 
8 1 -3.511039657564e-04  -6.793327531223e-05   5.459897605897e-05 
8
Step 3400
1 1 -2.100289428853e-04  -2.425215997623e-04   9.026292675704e-05 
2 1  1.034088370310e-04   9.544428616659e-05   4.823706574833e-06 
3 1  1.447960470695e-04   1.285011890531e-05   2.953568386381e-04 
4 1 -3.952953099989e-04  -2.333265088414e-04  -5.267046802561e-05 
5 1 -3.820085957167e-05  -5.239023476603e-05  -4.347272283658e-05 
6 1  1.066171790211e-04  -1.171229035766e-04  -1.367159213836e-04 
7 1  1.311850597092e-04   3.279931635007e-05  -2.515552843022e-06 
8 1 -2.620731689324e-04  -1.490398873051e-05   8.799059200139e-05 
8
Step 3500
1 1  1.550088961139e-04  -3.781568261199e-04  -3.449411595345e-05 
2 1  7.012652877652e-05   9.996381657638e-05   1.686202678335e-05 
3 1  6.360599673236e-05   1.476292936886e-04   1.983304062664e-05 
4 1 -3.682047553541e-04  -6.030967131886e-05  -1.202893877887e-04 
5 1  1.320376352399e-04   8.205691906170e-05  -4.561929582123e-05 
6 1 -7.558382437986e-05  -1.493719634146e-05  -4.270944166500e-05 
7 1 -1.190918176724e-04   2.417558672085e-04  -1.124594421210e-04 
8 1  2.094638698829e-04  -2.954208621134e-06  -1.317715351884e-05 
8
Step 3600
1 1  2.226314380774e-04  -2.222390826566e-04  -1.955118411463e-05 
2 1 -2.069169129197e-04   1.119428367309e-04  -4.304224610977e-05 
3 1  3.441331809121e-05   1.230333008610e-04  -1.776949852214e-04 
4 1 -1.611042617562e-04   1.073756958807e-04  -3.364817092645e-05 
5 1  2.522159121146e-04   1.058491433248e-04  -8.702355739553e-05 
6 1 -4.761138409765e-05   1.389492605587e-04   8.513516897079e-05 
7 1 -3.814933288654e-04   1.072499871466e-04  -3.810397533082e-05 
8 1  3.036227385532e-04  -4.481992816987e-05   4.718681051609e-05 
8
Step 3700
1 1 -5.991510526194e-05  -4.740997636421e-05   9.052664883523e-06 
2 1 -1.582963160403e-04  -2.187450015230e-05  -2.444549362244e-05 
3 1  1.884883218201e-04   1.095731162681e-04  -2.436182595540e-04 
4 1  4.030429860760e-05   2.017610427418e-04   2.106957063060e-04 
5 1 -7.159097933654e-06   9.294318084640e-05  -1.409823647068e-04 
6 1 -6.258049956534e-05   6.544987569658e-05   9.446644431150e-05 
7 1 -1.220897396119e-04  -2.327600471024e-05   8.057219668572e-05 
8 1  1.200924044196e-04  -1.755649381292e-04   2.109458373414e-04 
8
Step 3800
1 1 -1.749597080327e-04   1.553451072983e-04  -2.574298097627e-05 
2 1  7.809693470295e-05  -6.159418624927e-05  -7.222598496573e-06 
3 1  1.968179560701e-04  -7.532014658828e-05  -1.096803523462e-04 
4 1  1.051354282073e-04   1.259089139681e-04   4.945544506060e-05 
5 1 -6.207498219928e-05   1.440270761770e-04  -1.134725908232e-04 
6 1 -9.861658425760e-05  -1.468570093474e-04  -1.485622525925e-04 
7 1  6.366329478897e-05   2.756642357766e-05   1.683238321234e-04 
8 1 -1.413752910546e-04   1.644428368198e-05   6.221430516353e-05 
8
Step 3900
1 1  1.508682099369e-04  -2.556348022209e-05  -5.432801165801e-05 
2 1  1.691062701815e-04   1.567257284121e-04   4.855567501608e-05 
3 1 -8.034594498847e-05  -1.619774836461e-04   2.251881490938e-06 
4 1  2.404872457392e-05   2.003858666019e-04   1.069822625791e-05 
5 1 -5.669346902086e-06   6.542210619102e-05   2.959483119970e-05 
6 1 -8.743317639323e-05  -9.907535011735e-05  -1.977817922127e-04 
7 1 -2.116049422513e-05  -7.220185687881e-06   2.993225193204e-04 
8 1 -1.662135328664e-05   1.494247360107e-04  -2.823026341328e-04 
8
Step 4000
1 1  1.645065148320e-04  -2.216005459497e-04  -1.224164482822e-04 
2 1  1.094058583008e-04   1.313257581976e-04   1.547601032636e-05 
3 1 -1.104723474413e-04   6.600506186625e-05  -2.050427254709e-05 
4 1 -1.566796234875e-04  -3.818932361301e-05   3.166961417816e-05 
5 1 -4.971750207243e-05   7.475090585519e-05  -3.906385668867e-06 
6 1  4.547169670811e-05  -2.406342899626e-05  -1.522611728041e-04 
7 1  5.082247230443e-05  -1.406278420942e-08   1.138798029831e-04 
8 1  1.367056432082e-04   1.074097843911e-04  -5.911343663438e-05 
8
Step 4100
1 1  2.053840262876e-04  -1.234756248263e-04  -2.891709898872e-04 
2 1 -6.603941439355e-05  -5.409532263685e-05  -4.000242234264e-05 
3 1 -9.459913859095e-05   7.847847471635e-06   1.333912994057e-04 
4 1 -2.272472877468e-04  -5.670525730699e-05   4.654542064019e-05 
5 1 -3.111362510951e-05   1.146976632591e-04   6.025115514894e-05 
6 1  3.588787407224e-05   2.227159874779e-04   3.671436800278e-05 
7 1  1.539836747852e-04  -4.757048712225e-05  -1.934856457371e-04 
8 1  7.839390386122e-05   7.582706314599e-05   1.045975760232e-04 
8
Step 4200
1 1  2.370843219618e-04  -1.458934751324e-04  -3.989217464134e-04 
2 1 -1.847493001258e-04  -8.483336784095e-05   5.526111126236e-05 
3 1 -1.147198359848e-04  -9.776814854779e-05   2.001646409288e-04 
4 1 -9.166211646509e-06  -2.106706783857e-05   3.532193445960e-04 
5 1  2.908833888209e-05  -3.754325917486e-05   3.959994256047e-05 
6 1  3.037461172660e-05   2.270702303227e-04   3.749699312242e-04 
7 1 -1.074705334605e-04  -1.187900373217e-04  -1.535052939689e-04 
8 1  4.340574613303e-05   2.237965224328e-04  -2.260076206774e-05 
8
Step 4300
1 1  9.221415369002e-05   4.003496085311e-05  -1.127045933164e-04 
2 1 -2.242348353935e-04   1.558029188094e-04  -4.870020623566e-05 
3 1 -1.626211696436e-06  -1.603239361121e-04   2.115148601153e-05 
4 1  7.085944138097e-05  -4.168426548935e-05   1.773552493417e-04 
5 1 -1.391837807260e-05  -1.880435533457e-04  -8.206180764956e-05 
6 1  3.845429211000e-05   1.206994639847e-04   3.255416153301e-04 
7 1 -1.469122067258e-04   7.032376869367e-05  -4.949514092806e-05 
8 1 -3.743605954951e-05   3.123222412035e-04  -3.929488257513e-05 
8
Step 4400
1 1  6.282282232160e-05   1.828970891778e-04   8.235150182621e-05 
2 1 -4.715566538443e-05   1.572014476163e-04  -7.300266918948e-05 
3 1 -6.555437435200e-05  -3.399870757723e-05   9.112180159162e-05 
4 1 -1.524012573301e-04   8.393382185834e-05  -9.430813833482e-05 
5 1  1.075852961155e-04  -1.589714925553e-04  -2.087635952482e-04 
6 1 -4.796492234801e-05   1.186302649588e-04   7.882525709141e-05 
7 1 -1.877198757345e-04   1.521927419110e-04   3.768357231528e-05 
8 1  1.317557854973e-05   3.097001949744e-04   3.146211466968e-05 
8
Step 4500
1 1  2.305407396829e-04  -7.081138666304e-07   6.353738747416e-05 
2 1 -1.569239834392e-04  -5.761574789033e-05  -4.824713162069e-05 
3 1 -1.851806292939e-04   6.008422268654e-05   1.314928725296e-04 
4 1 -1.243391744079e-04   2.231374264405e-04  -2.366437784264e-04 
5 1  5.659594127116e-05  -1.260924210394e-04  -1.265861505727e-05 
6 1 -1.594118865693e-07   6.107666337898e-05  -2.130377385672e-04 
7 1 -3.514321705466e-05   2.436528275582e-04   1.286365162112e-04 
8 1  1.813235220493e-04   2.805828793283e-04   1.104807361001e-04 
8
Step 4600
1 1  6.306189118965e-05  -1.963576769883e-04  -7.055036898378e-05 
2 1 -1.588701557838e-04   2.060316751348e-06   1.625605133504e-05 
3 1 -1.195833733365e-04   1.526596786499e-04   1.585017568506e-04 
4 1 -2.832047951131e-04   2.000100374293e-04  -1.265477581382e-04 
5 1 -1.629760549910e-04  -5.852493030776e-05   6.738137104580e-05 
6 1  1.571536421319e-04  -1.569008431775e-04  -2.828656529314e-04 
7 1  5.867342743461e-05   4.792518264504e-05   8.402411347915e-05 
8 1  2.145493961494e-05   6.783362399134e-05   1.544169491561e-04 
8
Step 4700
1 1 -1.882308139481e-04  -1.481358348793e-04  -1.447256268545e-04 
2 1 -6.753085558332e-05   8.863784536079e-05  -2.358566369195e-05 
3 1 -1.085728635941e-04   9.660713567992e-05   1.043534172153e-04 
4 1 -2.799389427719e-04   9.749366252787e-05  -2.149463054578e-05 
5 1 -1.187984737167e-04   1.507394833305e-05  -3.516080343744e-05 
6 1 -8.387475068302e-05  -3.353579778731e-04  -2.225660658888e-04 
7 1  5.255058936134e-05   1.599127514086e-05   2.180810289125e-04 
8 1 -6.568819557909e-05  -4.794491369753e-05   8.464430852192e-05 
8
Step 4800
1 1 -1.782207212480e-04  -7.460342272486e-05  -1.648774510787e-04 
2 1  4.450120011970e-05   1.556194518099e-04   1.200765018519e-04 
3 1 -2.236078107964e-05  -3.325866218098e-05   2.976566318113e-05 
4 1  6.954707369329e-05   4.446185649797e-05   1.048595433618e-04 
5 1 -1.812154916661e-04  -7.975832277294e-05  -1.336349705980e-04 
6 1 -1.116197108215e-04  -3.419996934142e-04  -9.564028781452e-05 
7 1  1.243277456146e-04   9.997847463517e-05   1.695494260884e-04 
8 1  8.312025014917e-05   1.324117680691e-04   9.810694565784e-05 
8
Step 4900
1 1 -1.484604208324e-04   6.185485840902e-05  -5.071456118067e-05 
2 1 -2.993756404737e-05   1.767937396619e-04  -7.335327325766e-05 
3 1 -6.697319435231e-05  -1.489549815419e-04  -1.289346215208e-04 
4 1  1.538257043220e-04  -5.107671326092e-05  -8.452465265172e-05 
5 1 -7.989197767089e-05  -8.876823201510e-05  -1.340687346290e-04 
6 1  2.226823623662e-04  -2.441428370715e-04  -1.644077688243e-05 
7 1  2.966580366488e-05   1.193357025455e-04  -1.712852929819e-04 
8 1  1.130844424292e-04   1.836247623759e-04   2.505456431380e-04 
8
Step 5000
1 1 -1.475224879682e-04   2.506605719081e-04   7.082078916378e-06 
2 1 -1.731830134313e-05   3.676726198249e-05  -2.638960835883e-04 
3 1  1.220120970450e-04  -1.161157446032e-04  -1.494052194741e-04 
4 1 -6.929606757038e-05  -1.187430719965e-04  -2.689478458846e-05 
5 1  6.200056379894e-05   4.227584280112e-05  -9.886779641254e-06 
6 1  1.574134566264e-04   2.441550259531e-05   3.943096529533e-05 
7 1  7.208077846606e-05  -1.291346086827e-04  -2.124913316996e-04 
8 1  1.463470456416e-04  -7.265501836109e-06   1.583934073815e-04 
8
Step 5100
1 1 -3.672615961765e-05   8.151214808724e-05  -2.049555951594e-04 
2 1 -5.979312369538e-05   1.567786959484e-05  -2.588831204486e-04 
3 1  5.685453855814e-05  -2.825614460186e-04  -6.692048241083e-05 
4 1 -1.059907475596e-04  -7.026923406081e-05  -5.508810002380e-05 
5 1 -1.033412542782e-04   1.157499796561e-04   2.612090677975e-04 
6 1 -3.823333256740e-05   1.756425531488e-04   2.831704058687e-05 
7 1 -5.062304923655e-05  -8.724816595369e-05  -8.461233771438e-05 
8 1  2.838533132359e-04   1.285353685222e-04   2.165385472836e-05 
8
Step 5200
1 1 -1.797129439673e-04  -1.798347733382e-04  -1.289594811408e-04 
2 1  4.512731248715e-05  -1.042650305905e-04  -3.157553194549e-04 
3 1 -3.798408368850e-05  -2.800807508343e-04  -2.467759420017e-05 
4 1 -7.137208585724e-05  -5.891423599986e-05   1.547571550050e-05 
5 1 -5.079897876195e-06  -3.968951349821e-05   1.353522535158e-04 
6 1 -8.438923749820e-05  -8.384283194963e-05  -1.978570297725e-05 
7 1 -1.588445159793e-04  -6.950404477540e-05  -7.501524214537e-07 
8 1  1.854220809976e-04   1.942831428656e-04  -2.444941650500e-04 
8
Step 5300
1 1 -7.131769388169e-05  -3.609716019246e-05   2.074876058563e-04 
2 1  2.550121141146e-05  -5.210581873513e-05  -1.887465240605e-04 
3 1 -2.460028830487e-05  -3.371382079191e-04   8.818095198175e-05 
4 1 -8.396908836065e-05  -1.186562475560e-04  -2.164325701951e-05 
5 1 -1.991585685949e-04  -2.611222526335e-05   1.866904509091e-05 
6 1  4.598212588680e-05  -2.208937030263e-04   1.937804697710e-04 
7 1 -3.225318266659e-04  -1.847704719325e-05  -4.203311276045e-05 
8 1  8.099843675334e-05   3.528330781688e-05   5.822471184996e-05 
8
Step 5400
1 1  4.088448644832e-05   3.094593657960e-04   3.058208157749e-04 
2 1 -1.902495877481e-04  -5.955730773228e-05  -3.800597321395e-05 
3 1  1.114628810865e-04  -1.074704975756e-04   2.304176868004e-04 
4 1 -5.177396112817e-05  -6.009695576348e-05  -1.609610575693e-05 
5 1 -4.069759601965e-04   1.033626414785e-04   1.022019471312e-04 
6 1  3.786681926683e-05  -1.461613707586e-04   2.854632833570e-04 