8
Step 0
1 1  0.000000000000e+00   0.000000000000e+00   0.000000000000e+00 
2 1  0.000000000000e+00   0.000000000000e+00   0.000000000000e+00 
3 1  0.000000000000e+00   0.000000000000e+00   0.000000000000e+00 
4 1  0.000000000000e+00   0.000000000000e+00   0.000000000000e+00 
5 1  0.000000000000e+00   0.000000000000e+00   0.000000000000e+00 
6 1  0.000000000000e+00   0.000000000000e+00   0.000000000000e+00 
7 1  0.000000000000e+00   0.000000000000e+00   0.000000000000e+00 
8 1  0.000000000000e+00   0.000000000000e+00   0.000000000000e+00 
8
Step 100
1 1  3.058479207159e-04  -4.985418582371e-05  -8.466568473549e-04 
2 1  5.491617184516e-04  -1.362563695755e-03   5.930675708834e-04 
3 1  8.732875325237e-04  -1.691828968084e-04  -6.299986423596e-04 
4 1 -5.867431652764e-04  -1.229306037893e-03   6.106221640438e-04 
5 1  1.865430671961e-04  -5.295954614354e-04  -9.267458511041e-04 
6 1 -7.182369862421e-04  -1.116562249627e-03   3.824444783156e-04 
7 1 -2.318354490065e-04  -5.268366466585e-04   7.222769324895e-04 
8 1 -6.025466002365e-04   8.465355239843e-04  -1.013804580886e-03 
8
Step 200
1 1  2.694120603370e-04  -2.114523354958e-06  -5.957537108272e-04 
2 1  2.597963256016e-04  -8.367604845008e-04   2.724879277472e-04 
3 1  6.110074510061e-04  -2.358765474045e-05  -3.763561727341e-04 
4 1 -4.516292895051e-04  -6.924313701381e-04   5.669032067234e-04 
5 1  7.322546114716e-05  -3.654653866983e-04  -5.922911354209e-04 
6 1 -5.668063121465e-04  -7.241414092070e-04   3.240381593901e-04 
7 1 -8.501038682566e-05  -3.102017944094e-04   6.129822362762e-04 
8 1 -3.626849459502e-04   6.522989246997e-04  -7.363870881164e-04 
8
Step 300
1 1  2.656340226963e-04   2.057143745079e-05  -3.762129738502e-04 
2 1  3.636465057455e-05  -3.632042595520e-04   2.473542524153e-05 
3 1  4.089089533443e-04   8.278320073586e-05  -1.466953191606e-04 
4 1 -2.495786270131e-04  -2.618112669003e-04   5.094217815402e-04 
5 1 -2.349848003034e-06  -2.375994626376e-04  -3.121835921303e-04 
6 1 -4.154389473202e-04  -3.737694054560e-04   2.122326948939e-04 
7 1  6.185522553487e-05  -1.336437361982e-04   4.428705659316e-04 
8 1 -2.180876282349e-04   4.721107720032e-04  -4.761820727992e-04 
8
Step 400
1 1  2.496908369861e-04   6.280676762929e-05  -2.291020045910e-04 
2 1 -7.681653166713e-05  -1.059061942691e-04  -1.046000427808e-04 
3 1  2.822934723245e-04   1.361577902858e-04  -4.117892814564e-05 
4 1 -1.367962534240e-04   3.331706722126e-05   3.989342712462e-04 
5 1 -4.064538648021e-05  -1.990519294607e-04  -1.165684125089e-04 
6 1 -2.225767372630e-04  -1.559013574508e-04   1.194744918032e-04 
7 1  1.754662128163e-04  -6.986336409699e-05   2.648236871589e-04 
8 1 -1.480468042465e-04   2.655260340840e-04  -3.111992586173e-04 
8
Step 500
1 1  2.065283236047e-04   1.077948818704e-04  -1.582948130257e-04 
2 1 -1.144052371893e-04   1.270751107351e-05  -8.289785726329e-05 
3 1  1.748289490885e-04   1.716938153066e-04   4.022542211702e-05 
4 1 -9.485609666893e-05   1.268508156845e-04   3.085006796161e-04 
5 1 -8.236740559782e-05  -1.902179034470e-04  -7.886557085117e-05 
6 1 -7.932224996537e-05  -5.345195196353e-05   6.172411032138e-05 
7 1  1.048428592287e-04   1.598348263699e-05   1.022116245779e-04 
8 1 -6.734339553964e-05   1.344775194276e-04  -1.358347918292e-04 
8
Step 600
1 1  1.390764903597e-04   1.154306926404e-04  -1.297280505193e-04 
2 1 -1.653570607550e-04   4.379759380657e-05  -4.004070578917e-05 
3 1  1.370190124384e-04   1.981488490105e-04   4.375522813321e-05 
4 1 -1.521841607431e-06   1.931930343374e-04   2.637552380031e-04 
5 1 -3.816139163469e-05  -1.717689518562e-04  -3.285998936478e-05 
6 1  4.894471955153e-05   1.046284502691e-07  -1.180860504288e-05 
7 1  6.718479284290e-06   6.222224378153e-05  -1.004043767224e-05 
8 1  6.765374620574e-06   2.871863186175e-05  -1.032267099950e-04 
8
Step 700
1 1  1.100326222776e-04   9.108966563129e-05  -8.679806843989e-05 
2 1 -1.674896854213e-04   2.631677118762e-05  -3.729118794789e-05 
3 1  1.399535735579e-04   1.497395376885e-04   3.009905468516e-05 
4 1  2.896191193287e-06   1.645949687907e-04   1.746993264235e-04 
5 1 -1.335341826440e-05  -1.399574696184e-04   5.160556851162e-05 
6 1  8.928430355767e-05   6.835503019046e-06  -9.189439787651e-05 
7 1 -3.870800589594e-05   8.539725560065e-05  -2.756401412038e-05 
8 1  8.527638667002e-06   7.019071781050e-06  -8.287268422709e-05 
8
Step 800
1 1  8.455837994875e-05   7.636912410409e-05  -4.294408479097e-05 
2 1 -1.049893974307e-04  -8.319041715518e-06  -3.506428884198e-05 
3 1  1.573057650514e-04   6.956792141360e-05   6.477379340562e-06 
4 1  1.833648357602e-05   8.736649303523e-05   7.387357311018e-05 
5 1 -4.430029739936e-05  -1.181622338280e-04   4.920030179371e-05 
6 1  8.746107365467e-05  -5.786904887283e-06  -6.300458870690e-05 
7 1 -4.978103622337e-05   3.471526574503e-05   5.256203190113e-05 
8 1 -8.447536185735e-06   5.767958762578e-05  -5.099411141300e-05 
8
Step 900
1 1  2.100709141593e-05   5.461435058805e-05  -6.140266901141e-05 
2 1 -5.818640925455e-05  -3.579938501706e-05  -3.497564444209e-06 
3 1  1.399608932404e-04   6.821070267358e-05  -1.925375097821e-05 
4 1  2.313656632439e-05   5.888069294669e-05  -4.071983801667e-05 
5 1 -3.526931612346e-05  -9.205081543228e-05   6.356708849174e-05 
6 1  3.052202563332e-05  -5.584867152331e-05  -3.657111317765e-05 
7 1 -1.805220239696e-05   3.254842753409e-06   9.012409485329e-05 
8 1  5.034140054970e-05   6.733523196426e-05  -4.567626459329e-06 
8
Step 1000
1 1 -4.540220187154e-05   6.416040785124e-05  -9.317828584330e-05 
2 1 -4.037197918157e-05  -8.427328099565e-05  -1.511322296538e-05 
3 1  7.547864987077e-05   9.582470214546e-05   6.052976283632e-07 
4 1  2.897866478862e-05   4.667925525670e-05  -1.093300990312e-05 
5 1  2.419143835817e-06  -6.407738518193e-05   1.156374436743e-04 
6 1 -8.196740117213e-05  -1.259296730751e-04   2.880185088846e-06 
7 1 -1.329137058895e-05  -2.465313121221e-05   7.179660454220e-05 
8 1  9.062676795503e-05   4.076187196993e-05   4.426880244130e-05 
8
Step 1100
1 1 -8.631005138249e-05   3.187085345069e-05  -8.221463258691e-05 
2 1 -1.335276678359e-05  -6.423922804880e-05  -5.814243360505e-05 
3 1  1.666041741451e-05   1.257397174770e-04   1.293867217815e-05 
4 1  1.105538482680e-05   1.664206946990e-05  -2.466063560565e-05 
5 1  5.118616318791e-05  -3.288195943662e-05   1.110733550339e-04 
6 1 -1.278239286343e-04  -1.137509720888e-04  -3.214373786852e-05 
7 1  2.054821941523e-06  -7.742899800047e-05   7.479110338858e-05 
8 1  1.231728869285e-04  -1.123523757034e-05   5.849449933834e-05 
8
Step 1200
1 1 -6.229897394841e-05   5.349718121365e-06  -8.380243620078e-05 
2 1  1.860471609718e-05  -5.613873533457e-05  -5.448570709682e-05 
3 1 -3.066070132201e-05   8.215031964035e-05   6.423574768535e-05 
4 1  2.435166436118e-05   4.606724647219e-05  -3.058131814411e-05 
5 1  7.181945018414e-05  -1.872745386884e-05   8.065483454165e-05 
6 1 -7.575897811391e-05  -5.232228929374e-05  -3.901415945959e-05 
7 1 -1.505209976546e-05  -1.057411713723e-04   8.246051445261e-05 
8 1  1.467231334190e-04  -2.317749617820e-05   1.683657125433e-05 
8
Step 1300
1 1 -3.446750257898e-05   2.571915567417e-05  -8.153429106985e-05 
2 1  3.650877717740e-05  -6.711222105333e-05  -5.161354214893e-05 
3 1 -6.899256059203e-05   3.856480917624e-05   7.759729803720e-05 
4 1  3.537750197642e-05   5.030628694502e-05  -5.720939239159e-05 
5 1  6.491375366125e-05  -4.849288514533e-05   5.690142073879e-05 
6 1  6.487719582582e-06  -2.207362812575e-07  -5.654333949917e-05 
7 1 -5.662682147391e-05  -7.374138561339e-05   1.769477520142e-05 
8 1  9.713416438971e-05  -1.437237910934e-05  -1.086038266274e-05 
8
Step 1400
1 1 -2.690366466916e-06  -1.410457808860e-05  -9.063235838952e-05 
2 1  1.621962938005e-05  -6.147560061992e-05  -3.272739873239e-05 
3 1 -7.004868512211e-05   4.305768344821e-06   2.947925862968e-05 
4 1  7.319489761977e-05   4.955758392821e-05  -3.344800700871e-05 
5 1  1.461560197068e-05  -5.874663158265e-05   1.287915021091e-06 
6 1  3.041521182314e-06  -1.507081469057e-05  -2.768002804002e-05 
7 1 -7.061377923529e-05  -5.593825793171e-05  -6.313466137086e-05 
8 1  5.461305535482e-05   1.192633445585e-05  -3.530722747434e-05 
8
Step 1500
1 1  4.556064739466e-06   2.325264024896e-05  -5.384678637168e-05 
2 1  5.253924262661e-05  -4.721132934748e-05  -3.545162469098e-05 
3 1 -5.931200952514e-06  -2.762575517084e-05   3.239679133508e-05 
4 1  6.297021491930e-05   2.708667914928e-05  -2.032273472148e-05 
5 1  2.803814791620e-05  -5.253424616504e-05  -1.144643990379e-05 
6 1  1.557109263837e-05  -1.572630029472e-05  -7.923393467210e-06 
7 1 -4.891422082642e-05  -4.687055097060e-05  -1.126661565582e-04 
8 1  8.658766158057e-06   4.962707606696e-05  -9.387062944745e-05 
8
Step 1600
1 1  3.039802224385e-05   6.302345692409e-05  -5.374901019579e-05 
2 1  5.351833392871e-05   2.350690086429e-05  -2.468099519767e-06 
3 1  1.894868193011e-05   5.685385764530e-05   3.328387431862e-05 
4 1  5.788357447661e-05   2.050023681957e-05   6.150256843812e-07 
5 1  6.127733209969e-05  -1.899972270328e-05   2.003602504885e-05 
6 1  5.893681433954e-05   2.236076235278e-05   9.498275511551e-06 
7 1 -3.525634175770e-05   8.451547520781e-06  -1.165916859507e-04 
8 1  4.069927455774e-05   5.005619126797e-05  -7.453787348714e-05 
8
Step 1700
1 1  2.548283879973e-05   7.546870062056e-05  -3.630223497521e-05 
2 1  1.467248403715e-06   7.764822114361e-05  -1.007890431718e-05 
3 1 -3.426749434008e-05   1.402866236549e-04   1.370251460986e-05 
4 1  4.825547970089e-05  -2.704889000651e-05  -3.234901328926e-06 
5 1  1.014469267975e-04  -4.079551184559e-06  -5.670256009786e-06 
6 1  1.142222933987e-04   5.012753518008e-05  -2.162673150200e-05 
7 1 -5.448555199726e-05   4.574478210137e-05  -1.537944124196e-04 
8 1  7.814133781562e-05   6.134570435966e-05   8.209744760236e-07 
8
Step 1800
1 1 -2.368196056468e-05   5.946089402193e-05  -1.530346361053e-05 
2 1 -7.427030280486e-05   1.103230717271e-04  -7.645755750740e-06 
3 1 -4.660347865827e-05   1.715340481554e-04   5.211610279271e-05 
4 1  4.390676768298e-06  -6.540568237348e-05   1.801756604624e-05 
5 1  9.255257648082e-05   2.693408397000e-05  -9.561017252128e-06 
6 1  1.394487232997e-04   7.512474477615e-05  -6.268110538209e-05 
7 1 -4.222356408331e-05   3.444612046847e-05  -1.439132765850e-04 
8 1  1.016748701853e-04   2.919612010484e-05   7.412731172559e-05 
8
Step 1900
1 1 -2.821013909218e-05   2.518848809493e-05  -4.828865179901e-05 
2 1 -7.911123390575e-05   1.146134185771e-04  -1.632952132724e-05 
3 1 -3.682371266572e-05   1.673047782151e-04   2.653094775896e-05 
4 1 -6.269847372373e-05  -5.945326207183e-05   3.416141137683e-05 
5 1  4.446057805789e-05   4.671572069481e-05  -1.465643991831e-05 
6 1  1.391782237496e-04   7.320855967344e-05  -5.080984274316e-05 
7 1 -7.769959346798e-06  -1.612344521233e-05  -7.627965496783e-05 
8 1  5.781900675792e-05  -2.551604696003e-05   1.094714369395e-04 
8
Step 2000
1 1  7.607195758554e-05  -1.665962128816e-05  -2.662514008213e-05 
2 1 -2.962007375710e-05   1.389635379403e-04   1.460407644578e-05 
3 1 -1.985282575689e-05   8.420513269597e-05  -2.433588618031e-05 
4 1 -7.936099745177e-05  -1.065353432696e-04   7.380095257494e-05 
5 1  5.085499036249e-05   7.530562844845e-06  -3.758845988620e-05 
6 1  1.411333510313e-04   1.044458801685e-04  -2.433029457776e-05 
7 1  2.052630143072e-05  -1.583532559946e-05   2.180165192043e-05 
8 1 -2.066976666243e-05  -2.623831646537e-06   5.096887408029e-05 
8
Step 2100
1 1  6.655697714099e-05  -1.535995537028e-05   6.770576279271e-06 
2 1 -4.431419549193e-05   1.189172729059e-04   3.283374302998e-05 
3 1  1.745545115642e-05   3.377616505319e-05  -6.442431736254e-05 
4 1 -5.589188770682e-05  -1.529774808082e-04   5.508424616083e-05 
5 1  9.576991524542e-05   1.039504021830e-05  -3.727537809677e-05 
6 1  1.201446702772e-04   6.440419978622e-05   2.851830059096e-06 
7 1  4.504865382331e-05  -4.894794864249e-05   5.060826898008e-05 
8 1 -8.582856916427e-05   2.431505767837e-05   1.538571356594e-05 
8
Step 2200
1 1  3.735937026989e-05   1.824108039556e-05  -3.472524944152e-05 
2 1 -7.143375916433e-05   9.979183847384e-05   1.260865564299e-04 
3 1  6.656851511295e-06  -1.397664249865e-05  -2.949258543759e-05 
4 1 -5.883978371229e-05  -1.660218981570e-04   7.541252485428e-05 
5 1  1.185148472756e-04  -2.369197939060e-05  -6.745466322340e-05 
6 1  1.063492034171e-04  -3.421891362450e-05  -9.277020319257e-06 
7 1  1.471209946960e-05  -3.486640231750e-05  -1.501250009536e-07 
8 1 -7.920548861174e-05   3.468978584478e-05   6.365919516185e-05 
8
Step 2300
1 1  4.576532533812e-05   4.756740340946e-05  -3.999398914115e-05 
2 1 -4.183353800491e-05   1.016452422226e-04   2.065262879002e-04 
3 1 -3.471158435524e-05  -4.468778061286e-05  -9.212316956039e-06 
4 1 -3.565469564491e-05  -1.260534676116e-04   9.846800881891e-05 
5 1  1.265727795971e-04  -3.567670781763e-05  -3.870981959497e-05 
6 1  6.956933261963e-05  -1.349661788052e-04   1.730799116827e-07 
7 1 -6.442565129622e-05   2.672207670544e-05   2.289387478148e-07 
8 1 -6.026498844115e-05   6.653403233744e-05   8.280532433279e-05 
8
Step 2400
1 1  6.634342525159e-06  -2.270200738684e-06   4.187136613449e-05 
2 1  1.773330396696e-05   7.186956607106e-05   2.033218041158e-04 
3 1 -4.129268017484e-05  -8.142902853714e-05   1.368751367307e-05 
4 1 -3.426644516926e-05  -1.050292530649e-04   5.181861746574e-05 
5 1  8.053235661314e-05  -3.386153706831e-05   1.861531459297e-05 
6 1  5.108129103715e-06  -1.742441768889e-04  -2.685693070769e-05 
7 1 -8.570986282842e-05   7.674209315809e-05   7.724710874277e-06 
8 1 -4.606370085987e-06   8.719597780151e-05   7.191645625304e-05 
8
Step 2500
1 1 -2.794324943818e-05   9.638566948894e-06   5.464614738801e-05 
2 1  5.916943512745e-05   9.657814704496e-05   1.392072115233e-04 
3 1 -1.427480624966e-05  -2.091788049027e-05   6.563787028198e-06 
4 1 -3.776566371532e-05  -6.812977703391e-05   2.824953653148e-05 
5 1  3.853930920848e-05  -5.015747993148e-05   7.516464980392e-05 
6 1  1.288684830109e-05  -1.393728246594e-04   3.054942710321e-05 
7 1 -6.066528355405e-05   8.097523708836e-05   3.986930915502e-05 
8 1 -1.301110659577e-05   9.711672441760e-05   1.047755472360e-05 
8
Step 2600
1 1  3.951280652816e-06  -1.734514588423e-05   6.918989260987e-06 
2 1  3.964821724200e-05   9.592812813292e-05   8.700843035775e-05 
3 1 -6.927787130135e-06   2.748199039106e-05   3.514410062006e-06 
4 1  1.573126979946e-07  -5.224178448884e-05   5.656522101204e-05 
5 1 -4.935896126908e-05  -8.833191666465e-05   8.175576629543e-05 
6 1  3.625924011496e-05  -6.557480087856e-05   9.952789887933e-05 
7 1 -1.569227776261e-05   5.925369206797e-05   8.025020431423e-05 
8 1 -2.569805257590e-06   1.722864341988e-04  -5.319410895934e-05 
8
Step 2700
1 1  4.903517330213e-05   1.885205651600e-06  -6.791880826598e-05 
2 1  2.931176460977e-06   6.560061528346e-05   1.184657219306e-05 
3 1  2.341434283123e-05   4.891456949788e-05  -2.593549737999e-05 
4 1  4.735388548173e-05  -6.473816723706e-07   4.958014920869e-05 
5 1 -8.505177636212e-05  -8.805164704199e-05   2.721979154018e-05 
6 1  4.830651197396e-05   1.555664148967e-05   1.001478444708e-04 
7 1 -6.263458971593e-05   4.230880281779e-05   8.626873653939e-05 
8 1 -2.294306504665e-05   1.825653368480e-04  -5.716843958169e-05 
8
Step 2800
1 1  6.068090339499e-05   4.886654580539e-05  -9.512655954238e-05 
2 1 -2.292687209933e-05   1.014766228771e-05  -4.427768737460e-06 
3 1  5.181413649903e-05   4.373275157676e-05  -1.585489102195e-05 
4 1  6.035365034470e-05   1.465511413913e-05   4.619206869059e-05 
5 1 -7.357207911979e-05  -4.951200165976e-05  -3.650293876097e-05 
6 1  8.689806639950e-05   1.492475218738e-05   3.210466400490e-06 
7 1 -2.189151122232e-05  -2.319382425825e-05   2.987759562361e-05 
8 1 -2.755829457961e-05   1.617940973655e-04  -2.868279640318e-05 
8
Step 2900
1 1  5.881184060426e-05   7.472015542560e-05  -7.943307218798e-05 
2 1 -4.346535840847e-05  -3.171156889627e-05  -5.297062617945e-05 
3 1 -5.387275876957e-07   2.649905704279e-05   4.580141323996e-05 
4 1  7.313210734669e-05   5.048859722641e-06   6.160869880695e-05 
5 1 -5.827479963944e-05  -1.776545476167e-05  -2.916804053099e-05 
6 1  6.803367631338e-05  -2.759518163999e-06  -3.695160716720e-05 
7 1 -1.425832054167e-05   1.703508804682e-05  -2.938936767400e-05 
8 1 -1.259999718457e-05   1.396391927342e-04  -7.818035770955e-06 
8
Step 3000
1 1  7.569516465566e-05   7.738166955741e-05  -9.150389595342e-05 
2 1 -3.369534553038e-05  -3.571400729342e-05  -1.021432107071e-04 
3 1 -2.015467933239e-05   1.026556272014e-05   3.970985081785e-05 
4 1  1.069751579499e-04  -1.023131071094e-05   7.512246561545e-05 
5 1 -2.782996253115e-05   1.650355081544e-05  -1.391633608806e-05 
6 1  9.543619136349e-06  -3.722869007540e-05  -3.269524053265e-05 
7 1 -1.550772118691e-05   3.992225591048e-05  -6.216694632024e-05 
8 1  1.935099197723e-05   4.978717845956e-05  -1.496598365374e-05 
8
Step 3100
1 1  5.534673004690e-05   6.008814723119e-05  -1.036019185204e-04 
2 1 -2.501118647342e-05  -2.039604885860e-05  -1.166811868349e-04 
3 1  7.066814373151e-06  -2.645113833551e-05   3.056299423454e-05 
4 1  1.124937683010e-04  -3.214494918830e-05   3.233084197728e-05 
5 1 -1.492056864870e-06   2.082814123993e-05   2.042297979614e-06 
6 1  3.315231231681e-06  -2.390108397500e-05  -5.146939194469e-05 
7 1 -8.962178052328e-07   6.814953511944e-05  -1.097932598348e-04 
8 1  2.702253186191e-05  -5.252151735385e-06  -5.698087313091e-05 
8
Step 3200
1 1  1.978085633942e-05  -1.545733187382e-05  -1.113788639128e-04 
2 1  2.446091475857e-05   1.965439206276e-05  -8.724876709441e-05 
3 1  2.356702607920e-05  -5.195095464335e-05   3.822215637715e-05 
4 1  1.011942670614e-05  -5.628537514152e-05   1.378687880858e-05 
5 1 -1.118531678011e-05   2.879997151657e-05  -1.891709273355e-05 
6 1  5.711677700278e-06  -2.349897835042e-05  -4.248578953420e-05 
7 1 -2.736698931245e-06   5.266433627547e-05  -1.397519602771e-04 
8 1  6.708241815331e-05  -8.086112310403e-05  -5.745573227743e-05 
8
Step 3300
1 1 -5.676701224255e-05   6.071498379539e-06  -7.144759842054e-05 
2 1  3.515833002612e-05   7.757188892846e-05  -7.262769441622e-05 
3 1  4.317317302581e-05  -5.668946113973e-05   6.988573206222e-05 
4 1 -1.296859069467e-05  -4.327505623026e-05   4.931630881567e-05 
5 1 -1.620871661155e-05   5.093350893770e-05  -8.112135577341e-05 
6 1  3.958974211148e-05  -3.710265940215e-05  -5.120074977648e-05 
7 1 -1.860250948443e-05   9.242333291773e-05  -1.393577410923e-04 
8 1  6.154216519117e-05  -7.517630930451e-05  -3.036122760641e-05 
8
Step 3400
1 1 -8.574522942662e-05   1.099296226025e-05  -3.894142037713e-05 
2 1  4.161498571499e-05   1.145578286805e-04  -4.722818994859e-05 
3 1  2.817236941302e-05  -1.326263356883e-05   1.048401158647e-04 
4 1 -2.762520684628e-05  -3.046943987827e-05   7.715436171480e-05 
5 1  4.076476326395e-05   4.135712983023e-05  -1.348583300392e-04 
6 1  1.389455321055e-05  -1.061830255595e-04  -2.538429201931e-05 
7 1  2.770684625127e-05   6.480017274621e-05  -1.629365041898e-04 
8 1  2.936162512262e-05  -6.937670016838e-05  -3.154595579966e-06 
8
Step 3500
1 1  1.337987824694e-05  -8.951627717678e-06   1.090314402491e-05 
2 1  3.298377946463e-05   1.125189101713e-04   1.126420880034e-05 
3 1  7.878584740722e-06   2.485677951548e-05   3.820653954436e-05 
4 1 -9.084358575469e-05   6.563628718947e-05   1.081625269679e-04 
5 1  9.948271757544e-06  -1.658266184564e-05  -6.528868261371e-05 
6 1  4.366058250206e-05  -1.202327933815e-04  -1.993308086685e-05 
7 1  6.308367419239e-05   4.186822013443e-05  -1.568607090819e-04 
8 1  6.244576812930e-06  -7.135275564850e-05  -1.926330183580e-05 
8
Step 3600
1 1  5.348901227086e-05  -9.051028122542e-05   5.791613888391e-05 
2 1 -2.974865871083e-05   1.261651135476e-04   1.013192010383e-04 
3 1  2.995187153059e-05  -3.897644036259e-06  -2.894945400879e-05 
4 1 -6.366643794898e-05   1.130121240047e-04   1.558710269574e-04 
5 1 -2.679563201140e-05  -4.198941480255e-05  -1.936423682722e-05 
6 1  8.210219512576e-06  -1.198074170904e-04  -5.111095167600e-06 
7 1  5.332858685337e-05   9.494379068474e-06  -1.406876860342e-04 
8 1 -2.177285265577e-05  -6.607792993840e-05   1.590359902986e-06 
8
Step 3700
1 1  4.510641848866e-05  -1.210714989604e-04   6.668889058161e-05 
2 1 -3.091761811252e-05   6.585960791824e-05   1.091878633975e-04 
3 1  6.796568968641e-05  -3.135075894810e-05  -5.152129087570e-05 
4 1  2.801131944212e-06   1.391735699368e-04   1.619204359672e-04 
5 1 -6.264980584120e-05  -3.471261456986e-05  -4.536178009824e-05 
6 1 -4.442003044988e-05  -1.391244192130e-04  -1.774635456312e-05 
7 1  1.279991472052e-05  -6.303851433460e-05  -1.171784161998e-04 
8 1 -5.187006238791e-05   1.220549462653e-06   1.228306744176e-05 
8
Step 3800
1 1  3.258470179499e-05  -1.216248205702e-04   5.023896898406e-05 
2 1  4.901775451433e-06   1.617902241289e-05   1.173790869367e-04 
3 1  1.066972905608e-04  -7.442902580148e-05  -2.999121992420e-05 
4 1  7.940783063246e-05   1.373391919328e-04   1.127854337119e-04 
5 1 -5.183091934132e-05   2.405120324562e-05  -1.503488698197e-05 
6 1 -6.248312271794e-05  -1.359581715279e-04  -3.577957954610e-05 
7 1  4.433164076700e-05  -8.050448160253e-05  -4.396510870449e-05 
8 1  1.589044255014e-05   1.714740240728e-05  -1.813378344508e-06 
8
Step 3900
1 1  5.486794048299e-05  -1.048821125751e-04   4.100457241219e-05 
2 1 -4.356005427318e-05   1.234228663826e-05   1.096256563818e-04 
3 1  1.345064960777e-04  -5.989785555679e-05  -4.834286801696e-05 
4 1  4.963366619751e-05   1.017729050845e-04   9.839629640596e-05 
5 1 -4.773654903716e-05   4.849051227435e-05   1.089319465563e-05 
6 1 -8.857659779396e-06  -6.575357172785e-05  -5.186103576737e-05 
7 1  2.589026811452e-05  -1.438471777989e-04   4.801106709017e-05 
8 1  6.879582384755e-05   2.125391351602e-05   9.683301248386e-06 
8
Step 4000
1 1  5.576701761327e-05  -6.008961166561e-05  -8.163099041514e-07 
2 1 -5.592475105509e-05   4.511097679461e-05   5.856475613894e-05 
3 1  1.326811329696e-04  -1.489654093259e-05  -6.935292938470e-05 
4 1 -1.815019892823e-05   5.362909152982e-05   1.024851570216e-04 
5 1  5.169911544107e-06   3.022043501762e-05  -1.677009853614e-05 
6 1  3.720159794232e-05   3.840911972243e-05   1.962863717803e-05 
7 1 -1.693982653971e-06  -1.232445297523e-04   1.552695555479e-04 
8 1  1.234082168072e-04  -9.040976008613e-06   3.045261842343e-05 
8
Step 4100
1 1  7.174327548421e-05  -1.469166521370e-05  -6.203698653826e-05 
2 1 -2.836149380349e-05   9.400201834523e-05   3.737807983430e-05 
3 1  7.999445626061e-05  -1.183913690953e-05  -5.687348066063e-05 
4 1 -1.750562605429e-05   8.119601810069e-05   8.566096849259e-05 
5 1  6.140693024238e-05  -4.384087613318e-05  -1.927228377121e-05 
6 1  1.873592361384e-05   6.837024835118e-05   4.259969189381e-05 
7 1 -2.603172256743e-05  -1.076229547346e-04   1.345556732142e-04 
8 1  1.420629260144e-04  -2.689818935753e-06   1.388934713702e-05 
8
Step 4200
1 1  9.884781516906e-05  -5.945458738719e-06  -1.201135399331e-04 
2 1  1.011603715181e-05   1.195708841420e-04   3.359269931921e-05 
3 1  2.920847926753e-05  -9.691216481141e-06  -1.162345492618e-04 
4 1  2.093713590226e-05   8.802406370775e-05   9.856499563987e-05 
5 1  5.139171684710e-05  -1.002813153855e-04   6.845679978514e-06 
6 1 -3.744725622049e-05  -5.114339858392e-06   5.291392028593e-05 
7 1 -2.894230474250e-05  -9.397928834820e-05   5.744545476783e-05 
8 1  9.659458188997e-05   4.466760828064e-05   3.454720246579e-05 
8
Step 4300
1 1  9.056840411489e-05   1.363639857247e-05  -1.527466789787e-04 
2 1  2.958513009802e-06   1.010406150593e-04   3.821880462766e-06 
3 1  2.046853058731e-06  -3.785284285524e-05  -7.834321439803e-05 
4 1  2.244026071103e-05   3.754046938940e-05   7.092268698009e-05 
5 1  7.259683393715e-06  -1.162097801464e-04   1.000178034467e-05 
6 1 -1.242908249853e-04  -6.498602983873e-05   7.362871258044e-05 
7 1  7.971242924489e-06  -9.447586747339e-05  -1.675937982775e-05 
8 1  4.225761776629e-05   9.485968028013e-05   4.551493607119e-05 
8
Step 4400
1 1  1.338045260801e-04   3.972040425979e-05  -1.532563325950e-04 
2 1  2.263237153707e-05   8.412444562984e-05  -2.465638379728e-05 
3 1 -3.530647690216e-05  -1.644472456497e-05   2.897406437575e-05 
4 1  2.729292845663e-05   1.808783911892e-05   5.913731798278e-05 
5 1 -2.961616614160e-06  -8.472069961285e-05   2.071212400654e-05 
6 1 -1.209793705659e-04  -8.663822589707e-05   3.793182081198e-05 
7 1 -2.520309674856e-05  -7.790320912393e-05  -1.252239270287e-05 
8 1  7.180684662783e-05   1.498437669698e-04   3.731765708949e-05 
8
Step 4500
1 1  9.591088676885e-05   9.417003019540e-05  -1.043338839207e-04 
2 1 -3.541433078647e-05   6.274468280782e-05  -4.424081301317e-05 
3 1 -2.929353523569e-05   1.295497129800e-05   5.487205493170e-05 
4 1  3.800380852295e-05   9.251549109211e-06   2.407158433143e-05 
5 1 -6.242343657618e-05  -8.925421656466e-05   5.457222488643e-06 
6 1 -2.640563843289e-05  -7.396313409281e-05  -1.893060546080e-05 
7 1 -6.508431876973e-05  -3.762148416061e-05   2.406673518008e-05 
8 1  5.029932608642e-05   1.958409771995e-04   1.725523807761e-05 
8
Step 4600
1 1  4.767693758142e-05   9.309867166641e-05  -1.694946843945e-05 
2 1 -2.484312977318e-05   8.231500806622e-05  -1.987466731285e-05 
3 1 -2.588099832792e-05   2.993667342367e-06   5.362740963491e-05 
4 1  2.202782238462e-05   1.134123640685e-05   1.623073502156e-05 
5 1 -1.230604554964e-04  -1.210882346106e-04   7.032081911347e-06 
6 1  5.488059172203e-05  -5.583929657872e-05  -2.033005545814e-05 
7 1 -1.878522403262e-05  -2.947630377537e-05   9.061267013068e-05 
8 1 -3.182064034316e-05   2.538914235757e-04  -7.363508118694e-06 
8
Step 4700
1 1 -2.792008128100e-05   4.925701218338e-05   1.165084398917e-05 
2 1 -2.372341955841e-05   7.394230817531e-05  -2.476657663761e-05 
3 1 -4.190219844401e-06  -6.553322183679e-05   3.860521827926e-07 
4 1  9.310190724157e-06  -1.211841859215e-05   7.448043955137e-05 
5 1 -1.242091211709e-04  -1.426148079436e-04   5.047570190985e-06 
6 1  8.526404384621e-05  -7.413513197357e-05  -4.034222278445e-05 
7 1  2.144704570790e-05  -2.857681434184e-05   1.433669296711e-04 
8 1 -2.101109344445e-05   2.830118415083e-04  -1.573063368643e-05 
8
Step 4800
1 1 -4.478303938179e-05   2.995753112798e-05   8.649913670128e-06 
2 1  9.539425318790e-06   5.143953958613e-05  -5.974629869407e-05 
3 1  3.436827473512e-05  -1.001543709278e-04  -1.896969313450e-05 
4 1  3.881287660940e-05  -9.401524970354e-05   1.030503762533e-04 
5 1 -1.461274183181e-04  -1.419215502299e-04   3.087986925682e-06 
6 1  9.777599846151e-05  -2.172971162989e-05  -9.284392552561e-05 
7 1  2.802934957615e-05  -7.715596542042e-06   1.913522073594e-04 
8 1  1.703546645148e-05   2.489205163283e-04  -2.387599154798e-05 
8
Step 4900
1 1 -5.312454011232e-05   7.481168934905e-05  -9.599113786539e-06 
2 1  1.979340708191e-05   1.707674729579e-05  -1.019007977712e-04 
3 1 -9.678955917686e-06  -1.217558500488e-04  -4.423168436072e-05 
4 1  1.024287701620e-05  -1.085152933154e-04   1.048668162900e-04 
5 1 -1.231423169967e-04  -1.389133995135e-04  -1.261045955923e-05 
6 1  3.021071552203e-05   6.925808228975e-06  -1.145063968673e-04 
7 1  2.000705824636e-05  -1.575576640652e-05   1.564375249696e-04 
8 1  2.452540403010e-05   1.409015487616e-04   2.059491526531e-05 
8
Step 5000
1 1 -3.378835218297e-05   1.085529515229e-04   1.791146230852e-05 
2 1  4.709487840260e-05  -9.387544755606e-07  -1.576642834927e-04 
3 1 -1.557683334512e-05  -1.464203947225e-04  -7.882688589379e-05 
4 1 -7.207002336334e-05  -1.194211228024e-04   6.549297734305e-05 
5 1 -4.640171173625e-05  -8.733516813669e-05  -3.031350283881e-05 
6 1 -6.629601666260e-05   4.919572654494e-05  -5.118383143025e-05 
7 1  6.355465577200e-05  -4.070561845496e-05   8.582588404564e-05 
8 1  4.617603328241e-05   1.341681608474e-05   2.883894508542e-05 
8
Step 5100
1 1 -2.120646854380e-05   1.069818030424e-04   4.099165469409e-05 
2 1  8.439381773458e-05  -1.853075798335e-05  -1.501108242214e-04 
3 1 -1.185713147323e-05  -1.541430351370e-04  -5.253910234699e-05 
4 1 -7.217425042384e-05  -1.171448753708e-04   4.644549307704e-05 
5 1  2.046659744497e-06  -5.528864300227e-05  -3.657523817534e-05 
6 1 -5.640138009562e-05   5.853297028993e-05  -1.505483617839e-05 
7 1  4.650878365647e-05  -1.908211888707e-05   2.016790215171e-05 
8 1  2.862217297525e-05   3.073017829486e-05   1.849640353599e-06 
8
Step 5200
1 1 -4.940304112196e-05   6.230460901492e-05   2.354814908308e-06 
2 1  1.233525878059e-04  -3.180768191949e-05  -1.514141544979e-04 
3 1 -2.028820963568e-05  -7.929938115734e-05  -4.199747703324e-06 
4 1 -3.572898044871e-05  -1.217831983385e-04   2.797035530467e-05 
5 1  1.967594700132e-05  -2.552252120862e-05   3.438590594240e-05 
6 1  2.239213430914e-06   2.280779156347e-05  -1.892676190065e-05 
7 1  8.504919044537e-06   2.948815178850e-05   3.335085700031e-05 
8 1  1.672059437239e-05   8.849981515013e-05  -2.843147730034e-05 
8
Step 5300
1 1 -9.804584126121e-05   2.378493675291e-05  -2.416197467093e-05 
2 1  8.003522661514e-05  -6.096817362940e-05  -1.609173502251e-04 
3 1 -2.647335365646e-05   2.196207037297e-05  -1.793964669971e-05 
4 1 -8.906670804195e-05  -7.250063289551e-05  -1.953685054783e-05 
5 1  6.152590964879e-05   1.195626323185e-05   9.127993397618e-05 
6 1  3.138162243072e-05   6.663020223830e-06  -8.659303965831e-06 
7 1 -1.019847205684e-06   4.127271852819e-05   1.032019281419e-04 
8 1  8.593900823263e-06   1.078654515093e-04   2.092504485855e-05 
8
Step 5400
1 1 -8.507994566705e-05   5.053526943713e-05  -1.020231821125e-05 
2 1  4.633921543188e-06  -8.919869598501e-05  -1.629140699217e-04 
3 1  8.328094006412e-06  -4.642094597803e-06  -3.103772016888e-05 
4 1 -9.426806031824e-05  -4.807116469297e-06  -6.653871581152e-05 
5 1  7.737438334742e-05   3.938699528584e-05   1.025147518464e-04 
6 1  2.085851359280e-05  -4.915039224619e-05  -1.500602176384e-05 