8
Step 0
1 1  0.000000000000e+00   0.000000000000e+00   0.000000000000e+00 
2 1  0.000000000000e+00   0.000000000000e+00   0.000000000000e+00 
3 1  0.000000000000e+00   0.000000000000e+00   0.000000000000e+00 
4 1  0.000000000000e+00   0.000000000000e+00   0.000000000000e+00 
5 1  0.000000000000e+00   0.000000000000e+00   0.000000000000e+00 
6 1  0.000000000000e+00   0.000000000000e+00   0.000000000000e+00 
7 1  0.000000000000e+00   0.000000000000e+00   0.000000000000e+00 
8 1  0.000000000000e+00   0.000000000000e+00   0.000000000000e+00 
8
Step 100
1 1  1.532416215266e-04   5.561708732729e-04   7.517533226144e-05 
2 1 -5.769281472931e-04   1.359711044412e-03  -7.672281254344e-04 
3 1  1.589933454494e-05   1.019761418195e-03  -2.738573234223e-05 
4 1  4.308417829413e-04   9.826628468796e-04   7.682107525501e-04 
5 1 -1.178700540031e-03  -4.907878754527e-04   1.436736546247e-03 
6 1 -5.439006582786e-04   1.004434300239e-03  -6.070503048003e-04 
7 1 -3.867674907742e-04  -1.496983459448e-04   3.316954905430e-04 
8 1 -3.827758039557e-04  -7.509427373995e-04  -1.250875362510e-03 
8
Step 200
1 1  1.636523696253e-04   3.672139257120e-04  -4.486668072149e-05 
2 1 -4.121947394378e-04   7.932551941002e-04  -4.078410429140e-04 
3 1  1.175447405748e-04   5.914852963835e-04  -3.986766531581e-05 
4 1  2.455656742932e-04   5.820750624836e-04   5.823052329359e-04 
5 1 -7.531881126343e-04  -4.460839870173e-04   8.665680952732e-04 
6 1 -3.817046909208e-04   6.242680614003e-04  -3.784954492191e-04 
7 1 -2.443998189026e-04  -8.017436604237e-05   2.314916205082e-04 
8 1 -4.822622447008e-04  -4.013335399975e-04  -8.905120179873e-04 
8
Step 300
1 1  1.485365452357e-04   2.238866996360e-04  -1.032320910392e-04 
2 1 -2.891817015241e-04   2.941843237521e-04  -1.253067336354e-04 
3 1  1.787241759701e-04   2.772891888351e-04  -7.301380176488e-05 
4 1  1.083222117434e-04   2.271045119877e-04   4.088250472814e-04 
5 1 -4.285664815193e-04  -3.743456658833e-04   4.369974728658e-04 
6 1 -2.054112845780e-04   3.409161455730e-04  -1.656478033965e-04 
7 1 -9.116921686793e-05  -3.814955892158e-05   2.158085733192e-04 
8 1 -5.129670867813e-04  -1.105826592687e-04  -5.426719401201e-04 
8
Step 400
1 1  1.066751740519e-04   1.091684451165e-04  -1.210583850060e-04 
2 1 -1.995083390426e-04   2.207212191776e-05  -2.304524863328e-05 
3 1  2.205830821499e-04   1.276056349905e-04  -1.698131531441e-05 
4 1  4.036803280847e-05  -4.113447569157e-06   3.068830075225e-04 
5 1 -2.212624574309e-04  -2.362317610134e-04   1.680351285141e-04 
6 1 -1.400875650093e-04   1.229310349211e-04   1.348411657280e-05 
7 1  2.642324268685e-05   4.390332187008e-05   1.913996797084e-04 
8 1 -4.043232840167e-04   1.086844436922e-04  -2.695779218843e-04 
8
Step 500
1 1  9.114839768020e-05   5.101921214907e-06  -1.335553338995e-04 
2 1 -1.203909994285e-04  -8.899860697084e-05  -8.168939221860e-05 
3 1  1.757883764670e-04   3.636794771635e-05   3.170464710546e-05 
4 1  1.165672745681e-05  -5.706249635603e-05   2.384013037874e-04 
5 1 -6.116009127189e-05  -1.028729199724e-04   3.195161995455e-05 
6 1 -1.133427538303e-04   1.970004493382e-05   1.293109315629e-04 
7 1  1.598325026518e-04   4.723391683250e-05   1.693103101370e-04 
8 1 -2.976832740034e-04   1.716956966984e-04  -1.261413376232e-04 
8
Step 600
1 1  1.461373065013e-04  -3.817234295824e-05  -1.306660888863e-04 
2 1 -6.749405404419e-05  -1.216193346728e-04  -1.747035828558e-04 
3 1  1.447618909166e-04   1.971803670610e-05   9.439363729622e-05 
4 1 -2.348103099977e-05  -5.569819609649e-05   9.966072251487e-05 
5 1  1.140456419726e-05  -2.803332691250e-05  -7.916613367103e-06 
6 1 -7.938000717478e-05  -5.958501265880e-05   1.737057197595e-04 
7 1  2.235885721333e-04  -6.824089758371e-06   1.218142988926e-04 
8 1 -1.859279240180e-04   1.695327803611e-04   6.612679889993e-06 
8
Step 700
1 1  1.260325020913e-04  -2.246416599550e-05  -8.777948982005e-05 
2 1 -2.321004201566e-05  -1.567798794965e-04  -1.706443369113e-04 
3 1  1.314357765662e-04   5.413125857001e-05   4.992090063069e-05 
4 1 -5.021790797841e-05  -4.423357616149e-05   8.152849346891e-05 
5 1  1.762689985248e-05   2.413072844968e-05  -2.115144875910e-05 
6 1 -2.023465556072e-05  -1.074325983962e-04   1.999837279779e-04 
7 1  2.064362157804e-04  -7.947312691835e-06   1.191854572258e-04 
8 1 -7.928773824773e-05   1.648588501972e-04   8.840717120422e-05 
8
Step 800
1 1  1.059951461626e-04   1.199784867830e-05  -1.207955263276e-04 
2 1 -7.321491316733e-05  -1.576851646212e-04  -1.679807804799e-04 
3 1  5.772162990869e-05   7.647838491351e-05   7.516394722524e-06 
4 1 -6.864054544151e-05   3.167866369489e-05   9.295870926205e-05 
5 1 -1.514832344499e-06   5.131273144274e-05  -1.129784242349e-05 
6 1 -2.562452284189e-05  -1.245070030023e-04   1.547940361882e-04 
7 1  1.680464344842e-04   3.190037803874e-05   6.885687069070e-05 
8 1 -3.476079991102e-05   1.087003610896e-04   1.099295452837e-04 
8
Step 900
1 1  9.418756239991e-05   5.128684237703e-05  -9.729877525623e-05 
2 1 -1.075045731517e-04  -1.271510512264e-04  -1.802231706098e-04 
3 1  4.190045966682e-05   5.646013856407e-05  -1.024313676164e-06 
4 1 -6.041534883494e-05   6.224126873152e-05   7.340315800809e-05 
5 1 -2.927077488875e-05   3.660079830960e-05   1.927033526724e-05 
6 1 -2.431629475454e-05  -9.419568830341e-05   6.862841672824e-05 
7 1  8.892161102130e-05   5.513825536204e-05   2.731467849698e-05 
8 1  2.619861917299e-05   4.892538783524e-05   1.292559179244e-04 
8
Step 1000
1 1  7.589114568165e-05   5.440191061823e-05  -9.118121411464e-05 
2 1 -8.705813966870e-05  -1.275316964229e-04  -1.079536366575e-04 
3 1  7.246469417115e-05   4.531169850253e-05   6.068822588797e-06 
4 1 -1.727975216625e-05   1.073521576484e-04   2.439638585701e-05 
5 1 -7.915863674858e-05   1.221950287196e-05   6.107494769137e-05 
6 1  2.661565557238e-05  -4.187071594697e-06  -3.190827435341e-05 
7 1  5.546361530033e-05   4.090747769422e-05   3.783742434806e-05 
8 1  4.115052712636e-05   4.968575411566e-05   9.887541250547e-05 
8
Step 1100
1 1  5.623749566220e-05   2.853820876039e-05  -7.904421888426e-05 
2 1 -5.426794926513e-05  -1.132125503529e-04   1.559036716171e-05 
3 1  9.646739799744e-05   2.762455199764e-05  -2.760191895214e-05 
4 1 -2.257162981701e-05   8.916138173065e-05   3.239607727115e-05 
5 1 -9.665386662793e-05  -9.337986712329e-06   7.665091333188e-05 
6 1  2.753950886489e-05   7.294382191979e-05  -2.170548115232e-06 
7 1  7.357300639851e-05   5.052512105992e-05   8.805491467708e-05 
8 1 -3.665216138834e-05   7.941333825684e-05   6.546787583442e-05 
8
Step 1200
1 1  4.856802723743e-06   1.190594063096e-05  -1.372453954749e-05 
2 1 -4.173256630455e-05  -1.302667563622e-04   7.382433270920e-05 
3 1  1.020249271795e-04   3.421905755352e-05  -8.903431713091e-05 
4 1 -8.991964184004e-05   1.641211377033e-05   4.818836441538e-05 
5 1 -5.699376061837e-05   4.935889364635e-05   6.505137390780e-05 
6 1 -1.702608107270e-05   9.641788716756e-05   2.529110711776e-05 
7 1  5.110310760682e-05   3.417789392718e-05   1.081023276957e-04 
8 1 -8.610011131266e-05   8.280822255314e-05   2.704440845177e-05 
8
Step 1300
1 1 -7.819622897433e-07  -2.013912948136e-05  -6.593084825976e-05 
2 1  1.064030032773e-05  -1.003850925951e-04   4.287070278608e-05 
3 1  7.532233441219e-05   2.989908342213e-05  -1.085384907218e-04 
4 1 -1.027431010424e-04  -1.929386851013e-05   9.572724594727e-05 
5 1  2.719420183710e-06   9.436311454152e-05   6.863802564190e-05 
6 1 -6.782886093103e-05   3.914423852628e-05  -3.293064940008e-06 
7 1  4.002516168236e-05  -2.361652147811e-05   1.203169584833e-04 
8 1 -9.905203323563e-05   6.858771057542e-05  -2.274766559864e-05 
8
Step 1400
1 1 -3.480165175849e-06  -5.417049028443e-05  -9.141599389696e-05 
2 1  6.199763299536e-05  -7.775711116540e-05   2.292232088337e-05 
3 1  5.480055124354e-05   3.596782517657e-05  -6.062665620927e-05 
4 1 -1.020638974056e-04  -9.845634267113e-05   9.632217938008e-05 
5 1  6.906434947522e-05   8.072568726265e-05   5.852362662284e-05 
6 1 -7.843329339475e-05  -8.214323454145e-06   1.954473435701e-06 
7 1  4.828527556673e-05  -2.126199025338e-05   9.883233229050e-05 
8 1 -1.588148934995e-04   4.112735776194e-06  -3.858826121183e-05 
8
Step 1500
1 1  5.090312802312e-05  -7.007158099036e-05  -6.781072216152e-05 
2 1  1.774543193912e-05  -1.817612895654e-05   2.040637726441e-05 
3 1  5.809801207571e-05   1.038607027712e-04  -4.714287611014e-07 
4 1 -5.477372464183e-05  -1.088776811956e-04   1.085017771652e-04 
5 1  6.688646044567e-05   2.043539801845e-05   1.937455842708e-05 
6 1 -3.358872346761e-05  -2.551211564459e-05  -2.290027717816e-05 
7 1 -2.438962710582e-06  -5.139447357458e-07   5.502581513231e-05 
8 1 -1.411185875566e-04  -4.780462183934e-05  -4.011469786312e-05 
8
Step 1600
1 1  4.326203514951e-05  -6.082610431454e-05  -3.356872051061e-05 
2 1 -2.036958039966e-05  -6.352741722317e-06  -2.137553140585e-05 
3 1  7.502899363471e-05   7.571827377146e-05   3.678715617216e-05 
4 1 -6.919703539252e-05  -9.720325641000e-05   9.456464399489e-05 
5 1  1.285175236696e-04  -8.186404155732e-05  -1.454967672567e-05 
6 1  8.609665487630e-07  -8.892178367620e-06  -5.062189036089e-05 
7 1 -5.769709892084e-05   2.734420291998e-05  -1.469321022987e-05 
8 1 -1.060014739067e-04  -3.593298131953e-05  -2.730175179873e-05 
8
Step 1700
1 1  4.668215944369e-05  -4.311423422316e-05  -3.379976377257e-05 
2 1 -5.380852527936e-05  -3.001619941025e-05  -8.669452957592e-06 
3 1  1.200772374657e-04   6.893144968880e-05   3.850997923089e-05 
4 1 -9.587172980796e-05  -4.315909050336e-05   1.136805871832e-04 
5 1  8.892679808944e-05  -1.164107106651e-04   2.654091956657e-05 
6 1 -5.089334220351e-06  -2.807684789945e-05  -4.067085719061e-05 
7 1 -9.272576768050e-05  -2.980837606090e-07   1.911187027043e-06 
8 1 -7.180619963538e-05   1.089338644064e-05  -4.377280704781e-05 
8
Step 1800
1 1  2.548235609952e-05  -8.958121163203e-05  -1.090492724558e-05 
2 1 -3.280742049867e-05  -1.692934123037e-05   3.254115560336e-05 
3 1  9.906327588460e-05   2.319828214298e-05   1.684627206366e-05 
4 1 -1.336527834862e-04  -1.336398186697e-05   1.056472823934e-04 
5 1  9.797757178958e-06  -1.085807619809e-04   3.418856821865e-05 
6 1 -2.084629119830e-05  -5.114925548271e-05  -1.626183768254e-05 
7 1 -8.840977794757e-05  -3.395430546669e-05  -2.247311687838e-05 
8 1 -4.937540160722e-05   5.141039871948e-05  -6.674636105515e-05 
8
Step 1900
1 1  8.152741370293e-06  -1.111055695373e-04   1.342944702715e-05 
2 1  7.669894158033e-06  -3.013200364537e-05   5.080014180125e-05 
3 1  8.143385489765e-05  -9.214842958128e-06   6.513545997700e-07 
4 1 -1.163447988506e-04   3.673818174659e-05   1.070310348385e-04 
5 1 -1.708284599573e-05  -1.607171153792e-04   2.033447690260e-06 
6 1 -6.005620259318e-05  -5.351832230570e-06   3.039700382056e-05 
7 1 -1.133016537957e-04  -3.623502094974e-05  -4.355294656502e-05 
8 1 -6.404222568775e-05   7.122808615254e-05  -5.691293375853e-05 
8
Step 2000
1 1 -4.013038332941e-05  -7.241607943624e-05   5.986967547998e-05 
2 1  1.103526083241e-06  -2.785316667694e-05   5.742316628711e-05 
3 1  5.255389773676e-05   7.915108351445e-06   2.292173598820e-06 
4 1 -9.139794702546e-05   8.386714436696e-05   8.202421866760e-05 
5 1 -3.457757721891e-05  -2.003451914089e-04   1.497858298688e-05 
6 1 -7.560385648700e-05   8.023841671063e-06   2.648536007368e-05 
7 1 -1.228827171682e-04   1.722345418687e-06  -1.269952532818e-04 
8 1 -3.510169064600e-05   3.880801123168e-05  -1.875469653578e-05 
8
Step 2100
1 1 -6.610120254693e-05  -6.443235375601e-05   9.434912344876e-05 
2 1  1.990620427710e-05   6.381202674077e-05   5.623253583130e-05 
3 1  2.672580179065e-05   3.168741650656e-05   1.705414393878e-05 
4 1 -8.272979606586e-05   6.845922659546e-05   3.989242273791e-05 
5 1 -1.046090856361e-04  -2.130757432231e-04   3.251400833700e-05 
6 1 -6.720802591863e-05   1.768781647531e-05   1.295531342305e-05 
7 1 -1.280606613843e-04   6.749379650726e-05  -1.831940179527e-04 
8 1  7.437142774971e-06   1.131828794579e-05   1.595800939514e-05 
8
Step 2200
1 1 -4.561905972688e-05  -2.689923184792e-05   8.243062822028e-05 
2 1  7.034944766079e-05   1.454086350363e-04  -2.163259505338e-05 
3 1  9.855458311688e-05   8.228266985466e-05   5.115104667161e-05 
4 1 -2.204622577282e-05   3.964786634479e-05  -2.420947917542e-05 
5 1 -1.750466706109e-04  -1.502471087418e-04   2.148258725572e-06 
6 1 -6.832933347603e-05   6.597862277132e-05   3.079068627367e-05 
7 1 -9.286509002855e-05   6.605035760841e-05  -1.377664582868e-04 
8 1  3.143669826872e-05   1.217113698166e-05  -9.381643929868e-06 
8
Step 2300
1 1 -2.818432538917e-05   2.181117365322e-05   4.001191192096e-05 
2 1  9.587191731469e-05   1.551720556997e-04  -1.076506681537e-04 
3 1  1.268881108860e-04   1.203990932867e-04   4.198855956333e-05 
4 1  2.400340826130e-06   6.362956860977e-07  -3.203251217805e-05 
5 1 -1.723373865235e-04  -9.907005819867e-05  -2.282362128725e-05 
6 1 -1.123167614751e-05   9.886276694379e-05   3.538397705623e-05 
7 1 -6.108373578020e-06  -5.572324327925e-05  -8.873003920615e-05 
8 1  2.005357777814e-05  -4.686245459737e-06  -4.229075772087e-05 
8
Step 2400
1 1  4.034712332234e-05   6.596945723899e-06  -5.976674180238e-05 
2 1  4.851247743678e-05   1.608388529758e-04  -1.308911192075e-04 
3 1  1.055791344870e-04   1.755382686986e-04   2.023909725814e-05 
4 1  2.260593917996e-05  -3.597878829723e-05  -1.695949111203e-05 
5 1 -1.306103400074e-04  -3.258487371015e-05  -6.409588003719e-05 
6 1  1.787603911947e-05   6.262700269912e-05   5.389988573097e-05 
7 1  2.100816149580e-05  -1.500629051151e-04  -5.300308730109e-05 
8 1  1.291917010828e-05  -3.219584512970e-06  -9.596220908542e-06 
8
Step 2500
1 1  1.145693641853e-04  -1.970248000680e-05  -7.347248620303e-05 
2 1  2.516839074464e-05   1.814526982600e-04  -8.292177773726e-05 
3 1  3.257502446472e-05   1.060432582125e-04   1.207328992971e-05 
4 1  5.863984694580e-05  -3.364771866056e-05  -6.846573580003e-05 
5 1 -5.777401074465e-05  -1.222377932815e-06  -5.517083399456e-05 
6 1  4.661908574961e-05  -2.251873883329e-05  -1.756693605124e-05 
7 1 -2.783214972538e-05  -1.575613065267e-04  -4.521855787847e-05 
8 1 -6.074401032864e-06  -1.429806742556e-05   6.909533988985e-05 
8
Step 2600
1 1  9.888966419600e-05  -6.075337314120e-05  -4.684931485891e-05 
2 1  1.369526826824e-05   1.559865359201e-04  -6.934630048190e-05 
3 1  4.013459924469e-05   5.261348104132e-05   2.100613314831e-05 
4 1  1.886672119471e-05  -3.229009769388e-05  -5.155165586354e-05 
5 1  1.470813461785e-05   1.639769215470e-05  -1.634605983655e-05 
6 1  7.355406821752e-05  -7.101240045610e-05  -1.169644737164e-04 
7 1 -5.289338771189e-05  -8.885836120815e-05  -6.641409279766e-05 
8 1 -4.401578892701e-05  -7.499517485802e-05   1.724834829658e-04 
8
Step 2700
1 1  5.376474517786e-05  -3.706433934874e-05   1.720486565763e-05 
2 1  1.591603293372e-05   9.048156714952e-05  -3.971736379770e-05 
3 1  6.885956528138e-05   4.221837026501e-05   4.100723633060e-05 
4 1 -4.492978554905e-05  -7.147061936469e-05   3.214183192328e-07 
5 1  1.033723814762e-04   4.276141062303e-05   1.164235763998e-05 
6 1  9.385877883033e-05  -1.443366681844e-04  -1.570682275549e-04 
7 1 -4.634688717581e-05   3.785171540499e-05  -3.909551056212e-05 
8 1 -1.253822844025e-05  -1.052116367983e-04   1.660987797107e-04 
8
Step 2800
1 1 -8.288386057502e-06  -6.203285200142e-05   1.537918037852e-05 
2 1  9.655665542726e-06   6.596210794884e-05  -1.536841584169e-05 
3 1  8.696811767235e-05   2.124333825959e-05   5.003298315023e-05 
4 1 -7.723126288015e-05  -1.279162644781e-04   2.294952388630e-05 
5 1  1.034327764032e-04   1.544606668778e-05   4.499837066182e-05 
6 1  5.404252921342e-05  -1.916840025506e-04  -1.376408597412e-04 
7 1 -3.973075075643e-05   1.598761870142e-04  -1.655055694220e-05 
8 1 -2.808498441943e-05  -9.285046338381e-05   1.057238543373e-04 
8
Step 2900
1 1 -5.605687352560e-05  -9.065937205378e-05  -3.753203657034e-05 
2 1 -2.949446913874e-05   9.743482627717e-05  -9.142999424054e-07 
3 1  1.058035636299e-04   5.081615559902e-05   3.797718816108e-05 
4 1 -7.708384655104e-05  -9.963541947636e-05   4.462866006602e-05 
5 1  8.526003948230e-05  -4.178170187034e-06   1.931430953028e-05 
6 1  3.394721227135e-05  -2.098939900521e-04  -1.277919728758e-04 
7 1  5.493336873105e-05   1.836562098786e-04   4.468249158985e-05 
8 1 -9.702620913656e-05  -7.732568597888e-05   6.522009269551e-05 
8
Step 3000
1 1 -9.067513316904e-05  -4.883648453659e-05  -5.253385392442e-05 
2 1 -2.399760896421e-05   7.566241184146e-05   1.653853259302e-05 
3 1  5.657393546977e-05   7.399815445551e-05   2.004088480815e-05 
4 1 -8.005875529381e-05  -5.963040988531e-05   7.264697134698e-06 
5 1  4.409766232885e-05  -3.000288490726e-05   1.446272725826e-05 
6 1  3.955584230747e-05  -1.701827789021e-04  -1.312641408419e-04 
7 1  1.250289616181e-04   1.754241283086e-04   5.759529212417e-05 
8 1 -1.571563830071e-04   1.380059973573e-05   6.868891197432e-05 
8
Step 3100
1 1 -4.521046603886e-05  -3.630083934259e-05  -5.274886384235e-05 
2 1 -3.590300003158e-05   9.607622666983e-05   6.410353049392e-05 
3 1  1.316098152233e-05   1.194645644811e-04   4.048591896063e-05 
4 1 -7.687695419818e-05  -5.901019436477e-05   2.244257045620e-05 
5 1  2.820176632272e-05  -5.608007252304e-05  -2.027329046137e-05 
6 1  2.804682837061e-05  -1.495714149863e-04  -1.435878749107e-04 
7 1  1.009090095693e-04   1.228747190280e-04   6.087525740794e-05 
8 1 -1.198374450961e-04   1.276273982466e-04   9.194517779769e-05 
8
Step 3200
1 1 -1.195676091854e-05  -2.454474364563e-05  -2.527508238110e-05 
2 1 -5.562185614312e-05   9.021904836658e-05   1.058715860799e-04 
3 1 -3.944209895167e-05   1.243781223637e-04  -3.679729238865e-06 
4 1 -5.874196915445e-05  -1.020098222719e-04   4.244732101834e-05 
5 1  3.838244473937e-05  -4.431954668850e-05  -3.287654275033e-05 
6 1  1.884716189391e-05  -1.426791826136e-04  -1.490351378845e-04 
7 1  7.989063521679e-05   9.082617801270e-05   4.523590991919e-05 
8 1 -1.248143545319e-04   1.721126916238e-04   1.060439071819e-04 
8
Step 3300
1 1  1.358676036169e-05  -6.920877910809e-05   5.665632320178e-06 
2 1 -2.057258069466e-05   3.576346034138e-05   7.162207692425e-05 
3 1 -1.034944429643e-04   1.285122749646e-04  -7.791686912687e-05 
4 1 -6.051219605757e-05  -1.012966539739e-04   3.219548261223e-05 
5 1  6.443486481406e-05   3.100955970640e-06   1.410137325445e-06 
6 1  2.243756904479e-05  -7.751509496677e-05  -7.070519875950e-05 
7 1  2.275674926976e-05   2.146658549333e-05   6.848943418326e-05 
8 1 -6.280498522677e-05   1.498684253908e-04   7.303901392539e-05 
8
Step 3400
1 1  4.970113664481e-05  -7.224648001973e-05  -2.926492203606e-05 
2 1  1.749416028992e-05   4.916811475435e-06   3.096983511611e-05 
3 1 -1.405108772406e-04   6.098570575426e-05  -1.062208508321e-04 
4 1 -1.569393507617e-06  -1.149240881573e-05  -6.842257570634e-07 
5 1  4.690020728964e-05   5.591482654196e-05  -2.651561104275e-05 
6 1  6.483190572152e-05   6.777591519153e-06  -4.223182236697e-05 
7 1 -4.820045531202e-06   3.060163718954e-05   1.350091500338e-04 
8 1 -1.271146097525e-05   1.106269918073e-04   8.048824383359e-05 
8
Step 3500
1 1 -1.028973771976e-05  -5.132161993878e-06  -8.944966164928e-05 
2 1  1.721105038423e-05   1.857681416804e-05  -1.865398421328e-05 
3 1 -1.043230866100e-04   1.467731415843e-05  -7.395892835340e-05 
4 1  4.110973410936e-06   6.239543298482e-05  -2.497417199445e-05 
5 1  5.080302092980e-05   8.600748431008e-05  -1.087294292074e-04 
6 1  5.836712566473e-05   3.156812068486e-05  -2.232680965164e-05 
7 1  6.297608927527e-05   7.938311695514e-05   1.535862756246e-04 
8 1  2.334680336263e-05   1.008367104570e-04   1.037969021705e-04 
8
Step 3600
1 1 -7.832998525229e-05   7.913928359151e-05  -1.080195560851e-04 
2 1  6.727622268166e-05   2.053819308526e-05  -5.816347422307e-05 
3 1 -8.699604014389e-05  -7.980250804859e-06  -3.119410754756e-05 
4 1 -2.263735729555e-05   1.074946201310e-04  -9.955697369969e-05 
5 1  5.030807888880e-05   1.122576329522e-04  -1.419698546135e-04 
6 1  7.402533715461e-05   1.148148189163e-05   1.005704688146e-05 
7 1  1.244931156239e-04   1.031431192069e-04   1.446841846489e-04 
8 1  2.843786498267e-05   8.300569246551e-05   4.492058149340e-05 
8
Step 3700
1 1 -7.083298465075e-05   6.559196395252e-05  -1.039855458013e-04 
2 1  8.566619721986e-05   1.280424443854e-05  -4.431840504055e-05 
3 1 -1.092581960037e-04   1.763011182283e-05  -1.294599462225e-05 
4 1 -6.329448494264e-05   5.650267233634e-05  -1.357980704876e-04 
5 1  2.914860352632e-05   9.197980183821e-05  -1.247881049244e-04 
6 1  6.021083048426e-05   8.473863584639e-06  -1.065951269741e-05 
7 1  1.317484198631e-04   1.181266667829e-04   8.607726046740e-05 
8 1  1.377754789582e-05   2.959946536700e-05  -2.513923014501e-05 
8
Step 3800
1 1  4.249108763273e-06   3.505854191282e-06  -9.410590005892e-05 
2 1  8.616369622013e-05  -1.200296020675e-05  -4.137207698909e-05 
3 1 -1.134417315320e-04   3.715097204580e-05  -2.293962782384e-05 
4 1 -1.073786484635e-04   7.424753696869e-05  -8.841671701346e-05 
5 1 -5.259638976463e-06   4.559812687280e-05  -1.198374639494e-04 
6 1  4.365934714281e-05   6.457128711887e-05  -2.434135934852e-05 
7 1  7.008565098527e-05   9.331082656034e-05   2.946411171160e-05 
8 1 -1.169114580776e-05  -1.883135730506e-05  -6.790239281688e-05 
8
Step 3900
1 1  3.203172204743e-05  -4.681305182824e-06  -4.457230030393e-05 
2 1  7.831018793802e-05  -4.324257645059e-05  -5.109097610521e-05 
3 1 -8.585130415484e-05   1.278370129312e-05  -2.285822091628e-05 
4 1 -7.966813867552e-05   5.003035232783e-05  -4.886998151736e-05 
5 1 -2.031268449599e-05   4.270800317848e-06  -6.850657893716e-05 
6 1  3.492366940138e-05   5.030680989825e-05  -6.981003362803e-06 
7 1  7.875088549809e-05   8.132874869949e-05  -4.695863807650e-05 
8 1 -4.406904455984e-05  -4.488374064561e-05  -6.720762935840e-05 
8
Step 4000
1 1  3.072868367914e-05  -2.128788536794e-05   6.137337289429e-06 
2 1  3.692961515154e-05  -2.932100836060e-05   5.823858857054e-06 
3 1 -7.289817605982e-05  -4.172406460084e-05  -9.542981366909e-06 
4 1 -4.497106431681e-06   6.350619137102e-05   4.609291174673e-07 
5 1  2.549886138763e-06  -4.931096711540e-05  -3.964502247671e-05 
6 1 -1.405565341387e-05  -3.032778268469e-05  -3.628221350835e-05 
7 1  5.515661528722e-05   1.193130363792e-06  -1.157167236088e-04 
8 1 -5.275117754085e-05   3.123339492363e-05  -5.449260650528e-05 
8
Step 4100
1 1 -4.779702349934e-06  -4.406340021404e-05   4.507123803578e-05 
2 1  3.270662536574e-05  -3.168114387305e-05   3.575653692464e-06 
3 1 -1.645692053621e-05   7.656399284980e-06  -2.268184232190e-05 
4 1  3.738847319609e-05   2.587010306643e-06  -3.813560999302e-06 
5 1  2.841830205933e-05  -7.353339906396e-05   8.349599163615e-07 
6 1 -1.206197802366e-05  -2.207298126914e-05  -2.778615593898e-05 
7 1  4.434688604210e-05  -7.850309818295e-05  -7.403532711060e-05 
8 1 -9.516561886210e-05   1.145794668688e-04  -2.752607181447e-05 
8
Step 4200
1 1  1.605986384894e-05  -1.842250112907e-05   7.844984377146e-05 
2 1  2.229461787654e-05  -1.006197003644e-05  -2.463103467337e-05 
3 1  5.169365506711e-05   1.030868865555e-05  -1.024104285327e-05 
4 1 -2.223974083260e-05   3.727924763926e-05  -1.121858762889e-04 
5 1  3.934343896817e-05  -3.361875769504e-05  -2.584903173581e-05 
6 1  1.699139808110e-05   3.221151805522e-06  -1.403033404574e-05 
7 1  7.122059824474e-05  -1.002806684388e-04   3.516769258056e-05 
8 1 -5.568470740102e-05   1.019890113939e-04  -3.945837553905e-05 
8
Step 4300
1 1  7.798734918787e-05  -3.042442381284e-05   9.076271013956e-05 
2 1 -1.556150524764e-05   3.678216826821e-06  -4.661074116038e-05 
3 1  1.088969879219e-04   1.800027492324e-06  -3.491852169311e-05 
4 1 -5.427017344396e-05   6.742910050341e-05  -1.016672794322e-04 
5 1  4.932691065482e-05   2.702054524780e-05   1.924718038603e-05 
6 1  2.311099663801e-05   2.383371539449e-05   3.588473639194e-05 
7 1  5.046589612519e-05  -6.534064735686e-05   1.160927232876e-04 
8 1  2.023271002450e-05   3.365972150473e-05  -5.007445344219e-05 
8
Step 4400
1 1  7.003000619714e-05  -2.427087937223e-05   4.377670213707e-05 
2 1  2.466963989193e-06  -1.005119716753e-05  -3.660411808719e-05 
3 1  1.361032512303e-04  -1.567207545887e-07  -7.044089601278e-05 
4 1 -5.738519375493e-05   6.479583962623e-05  -3.863783912348e-05 
5 1  8.344782490082e-05  -7.975037798984e-06   6.370800604819e-05 
6 1  2.453895844170e-06   2.593252177957e-05   7.567541289344e-05 
7 1  4.764245071825e-06  -3.560747295410e-05   7.123828839028e-05 
8 1  5.834679849463e-06  -5.930673637843e-05  -3.519256778826e-05 
8
Step 4500
1 1  1.954253308295e-05  -5.212031660254e-05  -2.580719854587e-05 
2 1  4.445066148740e-05   7.596951667138e-06  -1.916698294552e-05 
3 1  1.678224181935e-04  -4.741660946683e-05  -3.804500738073e-05 
4 1 -6.248633825156e-05   5.938568806033e-05   1.061163013109e-05 
5 1  1.294635909849e-04  -4.553724141484e-05   9.365073431812e-05 
6 1 -5.574738103992e-06  -4.129958679782e-05   7.978261745689e-05 
7 1 -2.187660313223e-05  -1.030261405885e-04   2.364690423853e-05 
8 1  1.832657068222e-05  -1.103944475331e-04  -1.249350191138e-07 
8
Step 4600
1 1 -4.963479247009e-05  -4.691770027679e-05  -9.777777997308e-05 
2 1  6.367263969721e-05  -1.921343512664e-05  -4.289396098792e-05 
3 1  1.780901274155e-04  -4.100140538866e-05   2.002292878408e-06 
4 1 -7.769932505167e-05   4.241992543514e-05  -2.226218224483e-05 
5 1  1.138169836544e-04  -7.072191241963e-05   1.270708577063e-04 
6 1 -1.328207923801e-05  -4.346434923167e-05   3.663527754971e-05 
7 1  1.661941630125e-07  -1.107197790060e-04  -7.370260370959e-05 
8 1  9.532270311165e-05  -1.303688510919e-04   9.603171787222e-06 
8
Step 4700
1 1 -2.481693718895e-05  -9.629900418412e-06  -1.001773558325e-04 
2 1  5.216887989710e-05  -9.984339482346e-06  -3.471229858780e-05 
3 1  1.590871672563e-04  -3.729722613507e-06   1.349674535310e-05 
4 1 -2.860653494613e-05   4.577114571363e-05  -1.199709751749e-04 
5 1  1.030042486359e-04  -8.027786342511e-05   1.206698415736e-04 
6 1  2.178595752167e-05   2.254738501187e-05   4.264226695202e-05 
7 1  1.242395645802e-05  -1.398955683283e-04  -1.311495945998e-04 
8 1  9.655333756675e-05  -9.912548834883e-05   2.234741385608e-05 
8
Step 4800
1 1  2.233052175317e-05   3.943875395809e-05  -3.878995570935e-05 
2 1  1.339267278115e-05   7.027366385734e-05  -4.078063001087e-05 
3 1  1.163231178972e-04  -2.615740143537e-05  -9.123077744032e-06 
4 1 -8.781996631765e-06   8.600089771074e-05  -1.286046132882e-04 
5 1  7.931521093043e-05  -9.884523547477e-05   1.087969309923e-04 
6 1  2.829666191771e-05   4.172541898335e-05   7.547437488545e-05 
7 1 -1.243805111117e-05  -1.448853880875e-04  -1.379401390056e-04 
8 1  4.396842840217e-05  -7.749782141101e-05   2.770769098640e-05 
8
Step 4900
1 1  6.950996929983e-05   6.837472904983e-06   6.646515348211e-06 
2 1 -1.905654121538e-05   1.232559036136e-04  -1.894770231862e-05 
3 1  1.469371749293e-04  -8.159565553976e-05  -3.147675811983e-05 
4 1  5.513981878854e-05   6.691422193782e-05  -9.060689350337e-05 
5 1  3.466953376806e-05  -7.468133144936e-05   1.394126346844e-04 
6 1  5.380297477597e-05   3.961245948521e-05   6.913831156944e-05 
7 1  1.854041416434e-06  -1.116192178003e-04  -6.137519917246e-05 
8 1  2.984014999426e-05  -2.916627542488e-05  -8.392950623034e-06 
8
Step 5000
1 1  3.545846859526e-05  -3.757960924372e-05  -2.513815602950e-05 
2 1 -2.737976389139e-05   1.699696609222e-04   5.938751012331e-05 
3 1  1.585946720308e-04  -6.161078711469e-05  -2.899082143173e-05 
4 1  1.599467827461e-04   2.631673158950e-05  -8.704387360712e-05 
5 1 -1.698191732233e-05  -5.687662981312e-05   1.532250999133e-04 
6 1  6.622041845650e-05   5.481476744960e-05   5.401337358164e-05 
7 1 -2.100451350173e-05  -4.415674552507e-05   1.627027700745e-05 
8 1  4.865132980430e-05   5.794036316599e-05  -1.530429228551e-06 
8
Step 5100
1 1  1.540807193110e-05  -8.720195668652e-05  -1.393990603677e-05 
2 1 -1.587783396023e-05   1.035235380932e-04   1.172811870041e-04 
3 1  1.465110247290e-04  -4.379537297387e-06  -1.462313694148e-05 
4 1  1.642845605300e-04   3.248340534431e-06  -4.022337482011e-05 
5 1 -4.697553482375e-05  -5.491712729392e-05   8.201750215653e-05 
6 1 -4.507484107986e-06   7.679794665148e-05   1.154198132646e-04 
7 1 -5.176582908844e-06  -1.602577995469e-05   5.228992636789e-05 
8 1  2.694357675199e-05   6.371706844063e-05   5.446190657688e-05 
8
Step 5200
1 1  2.956304458530e-05  -1.144742909820e-05   1.201068880963e-06 
2 1 -1.000292859525e-05   5.363544187875e-06   1.449524220202e-04 
3 1  1.036052653912e-04   4.159285966971e-05  -2.411172901689e-05 
4 1  1.371455637806e-04   1.611739418591e-06  -7.458913996390e-06 
5 1 -3.258186298243e-05  -6.905145523708e-05  -3.526204419832e-05 
6 1 -5.592734381452e-05   6.377691303659e-05   1.175291970881e-04 
7 1  3.921277822285e-06  -1.020412519385e-05   7.770144499093e-05 
8 1 -5.321305568086e-06   5.163167382721e-05   8.149305609496e-05 
8
Step 5300
1 1  6.997467025501e-05   5.294549363708e-05  -1.494347666650e-05 
2 1  4.695114092031e-05  -4.718224674963e-05   1.580983676693e-04 
3 1  7.330864165126e-05   5.934838270146e-05  -5.994803636259e-06 
4 1  1.476025854379e-04   8.771064558151e-06  -1.371728524828e-05 
5 1 -4.108377563443e-05  -6.455896603403e-05  -1.163890742208e-04 
6 1 -8.382299930313e-05   9.389098604540e-05   7.720817235487e-05 
7 1 -2.014310906284e-05  -1.861171705649e-05   5.878959137868e-05 
8 1 -4.691069363281e-05   5.302499980186e-05   4.278400411494e-05 
8
Step 5400
1 1  2.631309849400e-05   8.470142201161e-05  -1.676990188588e-05 
2 1  1.290993780733e-04  -2.951322466639e-05   1.363489518934e-04 
3 1  2.412943498930e-05   7.552668909634e-05   2.282719895442e-05 
4 1  1.245063866814e-04   1.313938009812e-05   1.948535607137e-07 
5 1 -4.763895707376e-05  -5.225264842033e-05  -1.289880969295e-04 
6 1 -7.229003434069e-05   1.009192312507e-04   1.519245819981e-05 