8
Step 0
1 1  0.000000000000e+00   0.000000000000e+00   0.000000000000e+00 
2 1  0.000000000000e+00   0.000000000000e+00   0.000000000000e+00 
3 1  0.000000000000e+00   0.000000000000e+00   0.000000000000e+00 
4 1  0.000000000000e+00   0.000000000000e+00   0.000000000000e+00 
5 1  0.000000000000e+00   0.000000000000e+00   0.000000000000e+00 
6 1  0.000000000000e+00   0.000000000000e+00   0.000000000000e+00 
7 1  0.000000000000e+00   0.000000000000e+00   0.000000000000e+00 
8 1  0.000000000000e+00   0.000000000000e+00   0.000000000000e+00 
8
Step 100
1 1  8.518203431883e-04  -2.404050613224e-04  -9.299288782985e-05 
2 1 -5.546299130593e-04  -6.896472990918e-04   1.285000244453e-03 
3 1  1.319484910794e-03  -7.584388951581e-04   7.031681053070e-04 
4 1 -7.833098601822e-04  -7.875915746068e-05  -1.142275261748e-04 
5 1  4.720691912515e-04  -8.411538831548e-04  -1.144541485200e-03 
6 1  6.943896471681e-04  -8.271022058448e-04   8.552659526262e-05 
7 1  8.754846795793e-04   8.343728125523e-04  -2.835870778299e-04 
8 1 -9.016881663094e-04   9.417703237708e-04   1.476804962309e-03 
8
Step 200
1 1  5.577570030120e-04  -1.383186931878e-04  -1.044784798081e-04 
2 1 -4.483589531387e-04  -3.061111767177e-04   7.680006582029e-04 
3 1  8.581800295968e-04  -3.401842635759e-04   5.603750483047e-04 
4 1 -5.252590961831e-04   4.051233788031e-05  -1.843739472176e-05 
5 1  2.005145395134e-04  -5.534403492812e-04  -5.924210573805e-04 
6 1  4.367549089823e-04  -4.336343097244e-04   2.089345581254e-05 
7 1  6.802952438987e-04   5.984554893894e-04  -4.795033629490e-05 
8 1 -5.307218425699e-04   6.431597585494e-04   9.913912090552e-04 
8
Step 300
1 1  2.943547404695e-04  -6.773489448659e-05  -7.120217093173e-05 
2 1 -3.291595111378e-04   1.318128858397e-05   2.814866197275e-04 
3 1  4.655039084092e-04  -3.027027464717e-05   4.491476728489e-04 
4 1 -3.235429449928e-04   9.815689639946e-05   3.447740852692e-05 
5 1  3.732990842710e-05  -3.223842345914e-04  -2.360826701473e-04 
6 1  2.076906674533e-04  -1.487428880425e-04   9.370024553803e-06 
7 1  5.013771740701e-04   3.772247322366e-04   8.169537381350e-05 
8 1 -2.286922054164e-04   3.883609270113e-04   5.315412680371e-04 
8
Step 400
1 1  9.541467062177e-05  -2.444082815812e-06  -5.904482493463e-05 
2 1 -2.385601578843e-04   1.708088386531e-04   6.744633505912e-05 
3 1  1.579087121146e-04   1.416906213919e-04   3.431203839398e-04 
4 1 -1.716122131996e-04   1.197180178668e-04   7.134031109422e-05 
5 1 -3.851426689543e-06  -2.095074468208e-04  -5.216630534035e-05 
6 1  1.310913218171e-04   2.091222032259e-05   3.341136343626e-05 
7 1  3.348241353951e-04   2.312060276792e-04   1.775894589980e-04 
8 1 -9.143058784303e-05   2.008531045800e-04   2.399632410218e-04 
8
Step 500
1 1  1.405495973566e-05   5.567851683281e-05  -5.296871917110e-05 
2 1 -2.180997091917e-04   1.907701145159e-04   2.774962468217e-05 
3 1  1.210195132274e-05   1.412792014781e-04   2.458452300020e-04 
4 1 -4.569508727890e-05   9.211476433086e-05   7.054573959420e-05 
5 1 -8.733699524995e-05  -1.385745516450e-04   6.067890141840e-05 
6 1  1.404929028752e-04   9.055594203476e-05   4.438524472993e-05 
7 1  2.131748467956e-04   1.628742528103e-04   1.933380931920e-04 
8 1 -2.415125302669e-05   1.087339981053e-04   4.440305274514e-05 
8
Step 600
1 1 -6.191515944351e-05   6.721432079345e-05  -7.594341992726e-05 
2 1 -1.608037506003e-04   1.633393248760e-04   5.942750667521e-05 
3 1 -7.025725918379e-05   1.056886391424e-04   1.297813982140e-04 
4 1  4.043104648402e-05   9.538442482884e-05   1.278774568071e-04 
5 1 -1.615917161465e-04  -1.150310160913e-04   6.730397837474e-05 
6 1  1.157995748798e-04   9.821749429753e-05   1.224990151432e-05 
7 1  1.638723240386e-04   1.418822304271e-04   1.404633711541e-04 
8 1 -3.429842350540e-05   1.157682959038e-04  -6.151941131277e-05 
8
Step 700
1 1 -7.201901379620e-05   5.084321917175e-05  -5.669349075985e-05 
2 1 -9.424310345260e-05   1.368117894451e-04   7.196879778538e-05 
3 1 -9.383703008706e-05   3.750452728690e-05   8.706631096596e-05 
4 1  1.122454744158e-04   5.631694268511e-05   9.428544384819e-05 
5 1 -1.757981683421e-04  -1.396851451655e-04   5.714587185080e-05 
6 1  5.614916562198e-05   1.012995668048e-04  -2.331049006149e-05 
7 1  1.128309949693e-04   1.525213279371e-04   6.783490317418e-05 
8 1 -4.629364738400e-05   1.215811875066e-04  -1.076061504327e-04 
8
Step 800
1 1 -1.944497117604e-05   4.907965109581e-05  -2.707176172777e-05 
2 1  1.889175204949e-05   1.257797412950e-04   1.213811821788e-04 
3 1 -5.684195514131e-05   5.426018156512e-06   5.643791510191e-05 
4 1  1.041583421335e-04  -3.203115794572e-05   5.154102489666e-05 
5 1 -1.785703853354e-04  -1.668679044867e-04   1.888654424161e-06 
6 1  7.524856528547e-05   9.331811501500e-05  -1.495454297293e-05 
7 1  1.103883166883e-04   1.153102392522e-04   5.860746819194e-05 
8 1 -6.931110734141e-05   1.635794742055e-04  -1.033046701151e-04 
8
Step 900
1 1 -7.925593741296e-05   2.422016249446e-05  -2.534735202482e-05 
2 1  6.373984251278e-05   2.603961483205e-05   1.495703383833e-04 
3 1 -7.588675990612e-05  -8.879705462698e-06   2.486915109696e-05 
4 1  1.157948316795e-04  -8.448342301730e-05   3.843896668408e-05 
5 1 -1.776753041770e-04  -1.442717650227e-04  -3.247971300648e-05 
6 1  1.015630859115e-04   8.735667924927e-05   1.212217533530e-05 
7 1  1.217886231940e-04   4.299812406752e-05   4.517112043661e-05 
8 1 -2.031362987784e-05   1.930393126749e-04  -8.105063249285e-05 
8
Step 1000
1 1 -1.237505014309e-04  -3.196787390711e-06  -1.219031333712e-05 
2 1  6.236204727007e-05  -7.464616924336e-06   1.583345528069e-04 
3 1 -7.491219725123e-05  -5.491584472814e-05  -8.273180818124e-06 
4 1  6.659240705265e-05  -8.585662963212e-05   5.105369815820e-05 
5 1 -1.862360223475e-04  -1.425941530649e-04  -4.211399851444e-05 
6 1  7.451496522835e-05   4.417622887942e-05   4.491183191894e-05 
7 1  8.590699654902e-05  -3.088589849365e-05   1.381986160843e-05 
8 1 -3.084326589550e-06   1.560604842172e-04  -4.144136956712e-05 
8
Step 1100
1 1 -1.104297503553e-04   2.962759994763e-05   1.374712103037e-05 
2 1  2.377764736380e-05  -1.632019716626e-05   1.259162796737e-04 
3 1 -2.157861443957e-05  -5.331609101690e-05  -2.713480767858e-05 
4 1  1.560380320456e-05  -1.264637514830e-05   6.616908838814e-05 
5 1 -1.316551005448e-04  -1.300953725619e-04  -7.138777506277e-05 
6 1  5.054060690506e-05  -7.292700878519e-05   6.231901005506e-06 
7 1  8.138115602393e-06  -1.195041603911e-04  -5.953763251827e-05 
8 1 -5.153403943393e-06   1.064975908494e-04  -1.428460187637e-05 
8
Step 1200
1 1 -8.366387352524e-05   4.305972799273e-05   2.618840130838e-05 
2 1  2.792500728773e-05  -3.400073262827e-05   9.130704450603e-05 
3 1 -1.373430203413e-05  -5.073842985044e-05  -4.153177272588e-05 
4 1 -3.027435955498e-05   2.159550920418e-05   4.617267141140e-05 
5 1 -1.262309117634e-04  -1.543386721073e-04  -9.057266998402e-05 
6 1  1.528523345455e-05  -1.519019326206e-04  -4.416107205998e-05 
7 1 -3.467128266447e-05  -1.060767009395e-04  -6.796640721938e-05 
8 1 -3.981444088296e-05   7.638533102387e-05  -2.859022131872e-05 
8
Step 1300
1 1 -6.892605336687e-05   2.894266038868e-05   9.806852577332e-05 
2 1 -3.285699385254e-08  -6.688687434351e-05   7.162313945862e-05 
3 1 -2.640663131039e-05  -4.577362010354e-05  -5.166099006656e-05 
4 1 -3.068789620031e-05  -3.740546993170e-05   1.709446824796e-05 
5 1 -1.317487033162e-04  -1.527321581180e-04  -1.018484954574e-04 
6 1 -1.784826530655e-05  -1.071576674099e-04  -4.879050383221e-05 
7 1 -1.761710000933e-05  -3.627604176678e-05  -1.406229748536e-05 
8 1 -6.689164195702e-05   8.199521897005e-05   1.558461531865e-05 
8
Step 1400
1 1 -5.125542610168e-05   6.671281513955e-05   1.110709618053e-04 
2 1 -4.135646578871e-05  -5.462719515590e-05   3.948051637442e-05 
3 1 -3.152140155464e-05  -5.653129956479e-05  -4.493988962730e-05 
4 1 -2.655962108822e-05  -2.652258481304e-05  -1.704528664932e-06 
5 1 -1.259318521407e-04  -1.141991258761e-04  -4.842136473259e-05 
6 1 -1.800237151888e-05  -6.655746735007e-05  -6.996143715446e-05 
7 1 -2.111304965851e-05  -5.925708537749e-07   2.990535399585e-05 
8 1 -1.264710374011e-05   5.453726991639e-05   4.054920938235e-06 
8
Step 1500
1 1 -4.397312232974e-05   1.999087412916e-05   1.651969649390e-05 
2 1 -3.283254703492e-05  -6.334088507671e-05   2.366606152256e-05 
3 1 -2.660386956173e-05  -1.270628137081e-04  -2.927971368312e-05 
4 1 -1.302219832363e-05   2.196927093028e-05  -2.033548237570e-05 
5 1 -7.878273924729e-05  -7.616158913926e-05   6.182792404877e-06 
6 1 -1.684789610809e-05  -7.813359059455e-05  -6.189543977501e-05 
7 1  1.905554260012e-06   4.013209358100e-06   5.949051515594e-05 
8 1  3.903520720056e-05   6.547976694761e-05   9.633226142572e-07 
8
Step 1600
1 1 -2.640048885349e-05  -4.650912316870e-05  -4.080497355726e-05 
2 1 -1.350676552433e-06  -8.433108599799e-05   4.395356335271e-05 
3 1 -5.476546087332e-06  -1.467673134772e-04  -4.572801064147e-05 
4 1 -1.864706764477e-05   1.457430353719e-05  -6.403551828357e-05 
5 1 -1.205427862923e-04  -5.507592989685e-05   5.958867218088e-05 
6 1 -5.472528686555e-05  -6.794631823211e-05  -2.256692697077e-05 
7 1  5.755935473085e-05   1.790560941368e-05   8.108527750874e-05 
8 1  4.440775120033e-05   4.132804558499e-05  -2.610992555939e-06 
8
Step 1700
1 1 -6.152751390545e-05  -1.012382503364e-04   4.676734724594e-06 
2 1  7.007158378289e-05  -6.694758872429e-05   2.267149129458e-05 
3 1 -3.285260026214e-05  -1.260612349690e-04  -6.819922577511e-05 
4 1 -3.400092978342e-05  -3.991143844122e-05  -9.113565485939e-05 
5 1 -1.034699304542e-04  -7.935287123473e-05   2.492041004790e-05 
6 1 -1.058133341649e-04  -5.810177382967e-05  -7.795963538066e-06 
7 1  8.604327255256e-05   9.826457668077e-06   6.304965394549e-05 
8 1 -1.944798896185e-05  -6.079364447211e-05   1.309663470255e-05 
8
Step 1800
1 1 -6.746172039770e-05  -5.920818059625e-05   7.881168914334e-05 
2 1  9.716076846747e-05  -8.543219125405e-05   8.934756149138e-05 
3 1  1.419087746992e-05  -6.302293488317e-05  -5.876283271468e-05 
4 1 -4.028369170961e-05  -2.326679797236e-05  -9.504324254313e-05 
5 1  6.528048783082e-07  -7.476938477251e-05  -4.445886804662e-05 
6 1 -1.012066672884e-04  -4.568172658434e-05  -2.641251836438e-05 
7 1  1.338703116546e-04  -4.573617436127e-06   1.463731075262e-05 
8 1 -5.314342955518e-05  -1.160350414562e-04   6.930037256565e-05 
8
Step 1900
1 1 -5.633416669914e-05  -1.557885992757e-05   1.082891257782e-04 
2 1  8.631196508501e-05  -4.959915005067e-05   1.024513175979e-04 
3 1  2.353018268898e-05   1.758317710021e-05  -5.295773673406e-05 
4 1 -3.559110980498e-05  -1.032965477060e-05  -7.693426600248e-05 
5 1  5.874127916506e-05  -1.155950403033e-05  -4.125948772142e-05 
6 1 -4.337062439829e-05  -2.897957685955e-05  -4.689127998003e-05 
7 1  1.247996040150e-04   1.158366554921e-07  -1.896061569678e-05 
8 1 -5.678032929258e-05  -8.642932619053e-05   4.588483784130e-05 
8
Step 2000
1 1 -6.271066289504e-05  -1.500041522271e-05   6.162244333856e-05 
2 1  7.887246737726e-05   4.690318651858e-05   1.687809756110e-05 
3 1  1.877848737952e-05   8.421253971980e-05  -3.526743347880e-05 
4 1 -6.406860550365e-05  -5.992865376813e-05  -7.031928274028e-05 
5 1  4.055895820754e-05   5.357952683384e-05  -2.943100382889e-05 
6 1 -3.635119225712e-06  -2.405329417889e-05  -3.202965211277e-05 
7 1  7.516744371242e-05  -4.732156583743e-06  -1.120967800634e-05 
8 1 -6.790506579231e-05  -4.978118744777e-05   4.632909605734e-06 
8
Step 2100
1 1 -7.270430882938e-05  -1.895738669667e-05   1.249718247129e-05 
2 1  2.199188186730e-05   1.457540933742e-05  -9.465147787325e-05 
3 1  1.453116383580e-05   1.077891819543e-04  -1.944467012862e-05 
4 1 -7.883668134151e-05  -5.414961178737e-05  -5.868515223071e-06 
5 1 -1.987823241127e-05   6.378802920403e-05  -1.976368128093e-05 
6 1  3.950468788784e-05  -4.282853480316e-05  -2.675087416864e-05 
7 1  1.022489330104e-05  -2.492091132578e-05   3.018399492024e-06 
8 1 -5.840383069208e-05  -8.117118796282e-06  -1.548836940270e-06 
8
Step 2200
1 1 -6.330555003911e-05  -7.271420016587e-05  -4.396770202869e-07 
2 1 -1.675543614224e-05  -2.199975356908e-05  -6.267177352832e-05 
3 1 -7.228605838494e-06   8.887177037373e-05  -3.963065635020e-05 
4 1 -1.010302157437e-04   1.612010428819e-05   2.245061394213e-05 
5 1 -6.446668064570e-05   5.004528240293e-05   3.446714627259e-05 
6 1  9.159039939950e-05  -2.981059612366e-05  -4.767687102383e-05 
7 1 -5.894926168497e-06  -3.832054230056e-05   1.074398943561e-05 
8 1 -4.222105864550e-05  -3.653368875587e-07  -3.652420876864e-06 
8
Step 2300
1 1 -5.171359862563e-05  -7.949005906679e-05   2.313938935566e-05 
2 1 -8.236256043911e-07   1.065165942008e-05  -1.591787152011e-05 
3 1 -1.133854062759e-07  -8.665209864533e-07  -4.643597028335e-05 
4 1 -1.034600438826e-04  -9.792899106300e-08   1.039971186454e-05 
5 1 -6.282706557141e-05   7.640239011162e-05   2.883746812639e-05 
6 1  5.696099496699e-05  -5.556066917210e-05  -1.333943283966e-05 
7 1 -9.092446890585e-05   6.484534975167e-05  -2.948346565137e-05 
8 1 -2.970001822626e-05  -4.093116633783e-05   5.594218934674e-05 
8
Step 2400
1 1 -6.145551614623e-05  -8.342526518925e-05   3.278038391260e-05 
2 1  2.617298114441e-06   1.092249157338e-05   5.598827284196e-05 
3 1 -2.574865818578e-06  -1.073522666150e-04  -4.050280672478e-05 
4 1 -7.033685904381e-05   9.425469432089e-06  -2.870347539308e-06 
5 1 -1.371826035305e-05   8.950005244740e-05  -4.994029718521e-06 
6 1  5.132689083733e-05  -4.087231078922e-05  -3.930629510304e-05 
7 1 -1.195501424346e-04   1.622390207011e-04  -4.448240652285e-05 
8 1 -4.821705833167e-05  -4.567207396186e-05   7.604093828050e-05 
8
Step 2500
1 1 -1.177816742222e-04  -9.520735686943e-05   3.771920235523e-05 
2 1  1.643676651590e-05   1.019087976198e-05   3.531812015499e-05 
3 1 -2.272111042861e-05  -7.238135907534e-05  -2.391741553219e-05 
4 1 -2.671176511644e-05   1.112273986216e-05   1.441713384650e-05 
5 1  4.943051897812e-05   8.459945732195e-05   5.258757412783e-06 
6 1  4.658132672970e-06  -7.129506494382e-06  -5.910395415953e-05 
7 1 -2.988590545245e-05   2.233980329515e-04  -9.784169956690e-06 
8 1 -4.127773055939e-05  -1.673769500151e-05   4.108653948254e-05 
8
Step 2600
1 1 -1.175312529207e-04  -9.011987912205e-05   6.433786928245e-05 
2 1  2.741143112263e-05  -4.387084501838e-06   6.328200002503e-05 
3 1 -1.034568820344e-04  -3.872048784089e-05   2.227674952317e-05 
4 1  1.823592035801e-05   1.805536708712e-05   4.571373891785e-06 
5 1  9.513342806885e-05   6.539651566119e-05  -3.825874907075e-06 
6 1 -3.079511826884e-05  -4.143107125595e-05  -4.815436409344e-05 
7 1  2.747849263321e-05   2.215865609171e-04   2.088283922603e-05 
8 1 -7.279600902527e-05   4.763399419276e-05  -4.725083216031e-05 
8
Step 2700
1 1 -1.171821720178e-04  -1.163536397873e-04   7.808543944795e-05 
2 1  8.800821437284e-06  -3.874286992607e-05   7.300299290306e-05 
3 1 -8.837898589262e-05  -2.659412398706e-05   3.094402418144e-05 
4 1  7.772293797313e-05   4.520773283015e-05  -3.105411419124e-05 
5 1  2.284815867874e-05   2.258674776992e-05  -3.520214514654e-06 
6 1 -4.926008832075e-05  -4.740453675049e-05  -4.214355053922e-05 
7 1  8.217388866647e-05   1.797868527144e-04   2.049591148947e-05 
8 1 -1.417379350827e-04   8.329526863849e-05  -2.516984327365e-05 
8
Step 2800
1 1 -1.351454782265e-04  -7.998532318583e-05   4.634618186331e-05 
2 1 -1.744143062430e-05  -7.300835308348e-05   5.939301608007e-05 
3 1 -5.521997863593e-05   1.090881205747e-05  -5.680293117899e-06 
4 1  1.245953800474e-04   7.434606630438e-05  -5.369324540463e-05 
5 1 -2.864111863282e-05   4.683943426365e-05  -4.390127157337e-05 
6 1 -5.402394848359e-05  -8.294090911793e-06   3.428453813192e-06 
7 1  7.507480532482e-05   1.685693043257e-04   1.884934077385e-06 
8 1 -1.367066394779e-04   6.714472142672e-05   3.108844320646e-05 
8
Step 2900
1 1 -1.172752172712e-04  -5.082460276267e-05   7.056949915066e-05 
2 1  1.132016503949e-05  -1.317398850255e-04   6.373569535586e-05 
3 1 -2.272802136604e-05   4.183248602090e-05  -3.130316326984e-05 
4 1  1.327604158625e-04   5.601195600037e-05  -6.016609022500e-05 
5 1 -4.566783221563e-05   8.142482676922e-05  -8.726467924593e-07 
6 1 -2.625255417766e-05   4.764863411652e-05   1.813078759129e-05 
7 1  7.470370676761e-06   1.074616325562e-04  -2.417727029155e-05 
8 1 -9.011721762420e-05   1.366689287270e-05   8.166298264994e-05 
8
Step 3000
1 1 -9.917177254850e-05  -2.714194299963e-05   7.852997504498e-05 
2 1 -3.476993569863e-06  -1.675257122096e-04   3.467625376850e-05 
3 1  5.481839312588e-05   8.101488905047e-05  -1.349363910736e-05 
4 1  3.482828761371e-05   4.953907095554e-05  -2.058003470300e-05 
5 1 -5.055396405890e-05   8.419432998844e-05   1.867617012270e-05 
6 1  2.667008103373e-05   3.408974978484e-05   5.165354772384e-06 
7 1 -2.098560073481e-05   7.159887642225e-05   1.787903369836e-05 
8 1 -4.688796523564e-05   1.929896155021e-05   5.072517137290e-05 
8
Step 3100
1 1 -7.810410713515e-05  -6.782309004304e-05   4.923512585908e-05 
2 1 -3.474414244205e-05  -2.002184400984e-04  -5.376948069973e-06 
3 1  4.788097240476e-05   6.259293077966e-05  -1.109353200729e-05 
4 1 -2.509790318183e-05   8.625344513450e-05  -2.528271918635e-05 
5 1 -1.487357313194e-05   1.450210965947e-05   6.000092004671e-05 
6 1  3.675483471641e-05  -8.318342410449e-06   3.435622867693e-05 
7 1  4.338511751737e-08   6.545669625655e-05   1.085797095460e-05 
8 1 -4.789483343990e-05  -5.907103042490e-05   4.967914532834e-05 
8
Step 3200
1 1 -1.049380853659e-05  -2.806935884394e-05  -1.194313120587e-05 
2 1 -3.115078380236e-05  -1.933300284066e-04  -3.069000317883e-05 
3 1 -9.681039964111e-06   2.001067547377e-06   6.638194377111e-06 
4 1 -1.353301726150e-05   1.312845322017e-04  -2.832401697588e-05 
5 1  7.713935745295e-06  -3.590795249505e-05   9.837219318888e-05 
6 1  4.863862390532e-05  -1.219670606314e-05   6.058411607521e-05 
7 1 -3.264422638387e-05   5.905918090344e-05   1.220118692189e-05 
8 1  2.012048572515e-06  -7.043694486315e-05   3.795477057092e-05 
8
Step 3300
1 1  5.663002470034e-06  -1.232206114464e-05  -4.505743389852e-05 
2 1 -8.733795384258e-05  -1.719127893260e-04  -2.489344822469e-05 
3 1 -2.691572967767e-06  -5.842240773746e-05   1.676963597410e-05 
4 1 -7.480412262202e-05   1.233812460595e-04  -7.782399591947e-06 
5 1  5.091382870741e-05  -5.780570350696e-05   1.241233283405e-04 
6 1  3.559613677095e-05  -6.125092447884e-05   6.864345526599e-06 
7 1 -5.695750444702e-05   7.103511231057e-05   1.199076263033e-05 
8 1  7.298504500498e-05  -5.878960615223e-05   4.212694999905e-06 
8
Step 3400
1 1 -3.837151052501e-05   2.139644989582e-05   3.669449158963e-06 
2 1 -1.158262556312e-04  -1.762506342310e-04  -4.075347716490e-05 
3 1  8.025910863446e-05  -5.295586421597e-05   3.005814935783e-05 
4 1 -9.364052026650e-05   8.103392576750e-05   7.014081264658e-06 
5 1  4.152616693692e-05  -7.692921919548e-05   9.046168990550e-05 
6 1 -6.683033874417e-06  -8.262621595313e-05  -1.907747945983e-05 
7 1 -5.872484431083e-05   7.751775814003e-05  -3.679459948171e-05 
8 1  1.380136839466e-04  -4.232187054139e-05  -6.077231681875e-05 
8
Step 3500
1 1 -5.782009019495e-06  -9.432599167293e-06   3.766249660467e-05 
2 1 -1.169381252884e-04  -1.289865198670e-04  -7.745129492282e-05 
3 1  9.630666282647e-05  -4.856180338559e-05   3.856615483946e-05 
4 1 -2.471010334597e-05   1.731490188925e-05  -4.718653781041e-05 
5 1  1.770167020829e-05  -6.079905198072e-05   5.766813348990e-05 
6 1  1.977467389723e-05  -3.193053418364e-05  -6.204908826827e-05 
7 1 -3.815667280919e-05   1.261847047809e-05  -6.264308885059e-05 
8 1  1.358542426128e-04  -3.525985049698e-05  -8.464093969198e-05 
8
Step 3600
1 1  3.158035622242e-05  -6.439544350555e-05   1.868206293663e-05 
2 1 -7.013646379615e-05  -9.824122420473e-05  -6.375698246244e-05 
3 1  7.346726826855e-05  -1.132726349540e-05   1.018789306826e-05 
4 1  5.152086301413e-05  -3.935636508257e-05  -4.039010225147e-05 
5 1 -1.996098271303e-05  -6.639733300480e-05  -1.503948258650e-05 
6 1  1.633676769562e-05   3.622593437446e-07  -1.201076737111e-04 
7 1 -1.305556244930e-05  -3.842880405543e-05  -3.139555610291e-05 
8 1  1.299739387256e-04  -6.942448740744e-05  -4.952111792256e-05 
8
Step 3700
1 1  4.018091688211e-05  -1.182854922099e-04   2.468551643748e-05 
2 1 -4.742704937033e-05  -7.367377103213e-05  -3.393045251325e-05 
3 1  9.506334221450e-05  -1.697922586682e-05  -1.380735964962e-05 
4 1  1.033745894095e-04  -7.173207000315e-06   6.910387632079e-06 
5 1  3.122247164004e-05  -1.859432845297e-05  -5.413776304048e-05 
6 1 -1.670066845286e-05   1.645843207507e-05  -1.389773749911e-04 
7 1  4.916282562101e-06  -7.836095053634e-05  -3.278812295845e-05 
8 1  1.423660190636e-04  -6.732537574187e-05  -3.516561978107e-05 
8
Step 3800
1 1  5.420506283968e-06  -9.303901843301e-05  -1.894906009038e-05 
2 1 -3.573459693242e-05  -5.896383285801e-05  -1.238559724549e-05 
3 1  6.034701941874e-05   1.701756805157e-05  -3.282701945440e-05 
4 1  1.106099487718e-04  -3.024711856413e-05  -6.594334866683e-06 
5 1  4.889914285571e-05   7.420754754690e-05  -4.224839508866e-05 
6 1  6.913949748705e-06  -6.327584088719e-06  -1.163888136903e-04 
7 1  4.189570908888e-05  -6.548424869637e-05  -2.242016374267e-05 
8 1  1.522077418941e-04  -2.820375425518e-05   3.646940550270e-05 
8
Step 3900
1 1 -4.925671336519e-05  -7.100572869992e-06  -4.615638521287e-05 
2 1  6.568793682605e-06  -4.880854929792e-05  -2.948938220719e-05 
3 1  3.723805251553e-05   2.055623019202e-05  -5.785704889658e-05 
4 1  9.647445063534e-05  -4.535702777374e-05   2.486838807101e-05 
5 1  4.563085000753e-05   9.286855207846e-05   2.197844822154e-05 
6 1  3.819235306852e-05  -2.819535433228e-05  -9.153855049218e-05 
7 1  3.425299934753e-05  -4.430087669516e-05   6.236960742910e-06 
8 1  9.803236857719e-05  -1.225888614714e-05   1.289808815415e-04 
8
Step 4000
1 1 -5.923401802201e-05   1.652105104194e-05  -5.876642643616e-05 
2 1  1.010337888086e-05  -2.324132052076e-05  -6.450863041778e-05 
3 1  2.532280105437e-05   5.327995138122e-06  -5.699593706973e-05 
4 1 -3.577269700079e-05  -6.584979014634e-05   6.054119562773e-05 
5 1  4.510501850837e-05   7.938453524877e-05   9.174501959921e-05 
6 1  6.258414249890e-05  -1.090296281186e-05  -2.703789342985e-05 
7 1  4.814076613758e-05  -1.393612122310e-05   3.744415795417e-05 
8 1  2.923371177176e-05  -5.859626565946e-05   1.072596054289e-04 
8
Step 4100
1 1 -3.947863492347e-05  -6.056426607509e-06  -4.012970227207e-05 
2 1 -2.618903242107e-05   1.812691331945e-06  -2.628471441702e-05 
3 1  1.888933339951e-05  -1.224822846596e-05  -4.087702390732e-05 
4 1 -1.352845132875e-04  -3.398742136004e-05   1.083876908205e-04 
5 1  6.998899604840e-05   2.444944936793e-05   1.190647838678e-04 
6 1  4.734637328883e-05  -1.881133163328e-05  -2.299261653741e-05 
7 1  7.778028588578e-05   4.123483157402e-05   8.826331871894e-05 
8 1  1.349290138949e-05  -1.165729163095e-04   6.729874660652e-05 
8
Step 4200
1 1 -5.592602114594e-05  -3.575572685653e-05   1.921716840398e-05 
2 1 -6.703712025760e-05  -4.555084420174e-05   5.923360651791e-06 
3 1 -6.210621173247e-07  -7.986707106783e-06  -7.013238761283e-05 
4 1 -1.833061616997e-04  -1.298564005037e-05   1.572046482618e-04 
5 1  7.389561204676e-05  -4.552996694949e-05   1.257622947748e-04 
6 1  1.259232566006e-05   1.885991299942e-05  -5.818107221225e-05 
7 1  8.726627273225e-05   6.979056899032e-05   6.110919818612e-05 
8 1  2.896714870677e-05  -9.175519345004e-05   1.315046049379e-04 
8
Step 4300
1 1 -1.048304722962e-04  -1.061043833122e-05   4.631573052658e-05 
2 1 -3.199411545622e-05  -6.058967739888e-05   2.820720506729e-05 
3 1 -2.297224652939e-05  -1.695562012517e-05  -3.760717272001e-05 
4 1 -1.764308817068e-04  -3.669128847640e-06   1.513126930107e-04 
5 1  8.913516529224e-05  -1.065229303668e-04   4.166829849093e-05 
6 1 -1.684076332353e-05   1.869276716404e-05  -8.386582225309e-05 
7 1  8.472570767148e-05   6.404564524418e-05   2.553224784375e-05 
8 1 -6.354994396931e-06  -4.217024751448e-05   1.757162841436e-04 
8
Step 4400
1 1 -8.359322838354e-05  -6.120704488088e-06   6.492601218540e-05 
2 1 -4.450538338420e-05  -8.733338067900e-06   1.868284483524e-05 
3 1 -8.893322601300e-06  -2.273994640223e-06  -5.587424108484e-05 
4 1 -1.584697353166e-04  -2.355944385881e-05   1.078539749266e-04 
5 1  1.187984491150e-04  -1.063235980494e-04   1.674810136727e-05 
6 1 -3.998415954446e-05   4.789662514376e-05  -8.498709436840e-05 
7 1  7.843106575907e-05   5.587023029964e-05   4.729344487568e-05 
8 1 -1.035243898945e-05  -1.940914653993e-05   1.612645550515e-04 
8
Step 4500
1 1 -3.518213429941e-05   3.532993161472e-06   5.174572828973e-05 
2 1 -6.982252146597e-05   1.792887964082e-05   5.279238541331e-06 
3 1 -3.948726000097e-05   1.239119846788e-05  -1.007813331680e-04 
4 1 -1.270919957984e-04  -8.095367387195e-07   6.766373988610e-05 
5 1  1.294289756812e-04  -4.005556100127e-05  -1.596942953308e-05 
6 1 -5.145595075008e-05   1.344655843435e-04  -2.747356954601e-05 
7 1  7.303845968698e-05   8.533777362734e-05   6.984483584372e-05 
8 1 -4.794045106498e-06  -8.297988073192e-06   6.571289807272e-05 
8
Step 4600
1 1  1.457523115323e-05  -4.269281794036e-05   5.093815739812e-05 
2 1 -1.168929959822e-04   5.800609085544e-05   5.857814565652e-05 
3 1 -5.535616054645e-05  -2.189171179753e-05  -1.438219735707e-04 
4 1 -5.629958169292e-05  -2.728413016715e-06   3.321534193629e-05 
5 1  1.498377915649e-04  -1.393222191046e-05  -4.509422743030e-05 
6 1 -6.550296895833e-05   1.473413908436e-04   5.651942859067e-05 
7 1  1.595366608503e-05   9.770845848692e-05   7.862342789133e-05 
8 1 -3.359118597206e-05   5.351589575501e-05  -3.160647324682e-06 
8
Step 4700
1 1 -8.318503719316e-06  -6.198801300923e-05   2.088973552009e-05 
2 1 -1.005414432438e-04   6.701687144562e-05   9.833328688509e-05 
3 1 -1.826437668261e-05  -8.808950458163e-05  -1.327211023704e-04 
4 1 -2.869360979090e-05  -1.534878950164e-06   1.428352792966e-05 
5 1  9.596498055719e-05  -5.329667680021e-06  -9.565164893106e-05 
6 1 -1.650758813389e-05   1.633462916105e-04   1.217310735675e-04 
7 1 -2.281988139907e-05   9.516011108547e-05   9.580315993515e-05 
8 1 -5.476881076245e-05   8.005518814289e-05   1.469767219120e-05 
8
Step 4800
1 1 -6.940541900586e-06  -4.713273164385e-05  -3.706648474504e-05 
2 1 -7.622195621469e-05  -8.586101693744e-06   9.735303715672e-05 
3 1  3.337615191947e-06  -5.968617371409e-05  -1.173501168878e-04 
4 1  1.537063169561e-05  -1.937411765581e-05  -2.585631493226e-05 
5 1  2.570705932717e-05   3.336519697096e-06  -9.369333300457e-05 
6 1  4.694486074205e-05   1.654348028102e-04   6.753706244988e-05 
7 1 -5.104745795895e-05   1.057167616199e-04   1.137346952061e-04 
8 1 -4.822178903663e-05   5.054393096923e-05   4.893753060575e-05 
8
Step 4900
1 1  6.173457674520e-07  -1.841656002350e-05  -7.473153906017e-05 
2 1 -6.721478205391e-05  -1.011787805143e-04   3.579162369643e-05 
3 1 -3.067558001504e-05   5.367322578124e-05  -6.234818069159e-05 
4 1 -1.707632655537e-05  -2.050864767581e-05  -1.994263505641e-05 
5 1 -9.596702246267e-06  -5.118577970484e-05  -8.321751657331e-05 
6 1  3.430315843803e-05   1.340789108695e-04   5.969138307025e-06 
7 1 -4.949087275636e-05   8.639487147379e-05   5.184586021835e-05 
8 1 -5.613805630180e-05   2.631858064610e-05   2.551721003096e-05 
8
Step 5000
1 1 -5.698867345693e-06   2.976901275791e-05  -4.625806022167e-05 
2 1 -7.614754577854e-06  -1.086445413926e-04  -6.400070537970e-05 
3 1 -1.019348911038e-05   1.055824894613e-04  -4.226060630031e-05 
4 1 -6.403332493864e-05   4.693783703016e-05  -3.774788188598e-05 
5 1  2.868097958584e-05  -6.344963744619e-05  -8.402614973940e-05 
6 1  2.395419445858e-05   2.512877149828e-05  -3.267964507640e-05 
7 1 -5.155319433918e-05   4.360049043695e-05   2.747433836823e-05 
8 1 -4.308915764986e-05   3.005288561016e-05   4.004139049540e-05 
8
Step 5100
1 1 -9.046505492080e-05   8.657618918545e-05  -7.948691730547e-05 
2 1  4.578212707373e-05  -6.814003289520e-05  -1.146132155925e-04 
3 1 -1.152105555834e-05   1.356642816567e-04  -2.300827030371e-06 
4 1 -5.072395320810e-05   7.004545588528e-05  -9.050328509421e-05 
5 1  6.140130882674e-05   6.819211065497e-06  -6.406404503507e-05 
6 1  8.276970135684e-05  -4.913711881321e-05  -3.997119878091e-06 
7 1 -7.244298912913e-05   4.353655760279e-05   4.966574851215e-06 
8 1  4.074326385284e-06   2.931584226067e-05   3.312835044726e-05 
8
Step 5200
1 1 -1.537599755003e-04   2.481616167826e-05  -1.326570374741e-04 
2 1  3.308859060092e-05  -2.984669532870e-06  -1.062812749975e-04 
3 1 -1.165691066399e-05   8.296324087174e-05   1.166742537214e-05 
4 1 -5.044904311797e-05   6.540772203321e-05  -9.988824108954e-05 
5 1  2.829849789801e-05   6.838366998618e-05  -8.450908083024e-06 
6 1  1.185787858290e-04  -5.686502600998e-05   1.643320136709e-05 
7 1 -2.026042826419e-05   4.604231786490e-05  -4.375569338311e-05 
8 1  4.217746577516e-05   4.356966619416e-05   1.039726523577e-05 
8
Step 5300
1 1 -1.472435053890e-04  -2.869497960196e-05  -1.365961628332e-04 
2 1 -1.796901476694e-05   1.566752616095e-05  -8.741558748691e-05 
3 1 -2.588857660741e-05   1.584285475908e-06   3.026564813954e-05 
4 1 -5.273054495584e-05   4.096797917028e-05  -9.200177190838e-05 
5 1  2.352323219052e-05   5.735741539617e-05   4.090200905122e-05 
6 1  7.405563475773e-05  -7.456589971438e-05  -3.135729123593e-05 
7 1  5.592026300897e-05   2.448938742323e-05  -5.279185311551e-05 
8 1  6.208188238686e-05   8.414065110732e-05   8.838943771671e-06 
8
Step 5400
1 1 -1.072523738621e-04  -7.909018621691e-05  -1.330546360943e-04 
2 1 -5.301669450149e-05   4.643949065217e-06  -7.688794169714e-05 
3 1 -4.614396878141e-05  -3.307393488649e-05   4.893102452760e-05 
4 1 -5.329336423238e-05   5.046581417397e-05  -1.150420018918e-04 
5 1  6.671171506248e-05   1.318021621424e-05   4.407837624191e-05 
6 1  1.737783859108e-05  -5.068505078129e-05  -2.476741739313e-05 