8
Step 0
1  4.876430362593e+01   3.604609035164e+02   6.098475967773e+02 
1 -1.226853795494e+02  -3.989859253822e+02  -2.499864071027e+02 
1  2.341627212537e+02   4.547871264247e+02  -2.213268289048e+02 
1 -2.306758912571e+02   4.831366144294e+02  -5.522624748716e+02 
1 -2.877270793319e+02  -2.650705997917e+01   5.480070424582e+02 
1  3.942263764950e+02  -2.578338582513e+02  -3.249648679985e+02 
1 -5.420655860033e+00   3.286778150045e+01  -1.398997635434e+02 
1 -5.764290742362e+02  -2.852104532885e+02  -6.061573592877e+02 
8
Step 100
1  6.317392218930e+01   1.428599660657e+02   4.144300052739e+02 
1 -1.549803934703e+02  -2.822171871085e+02  -2.627167822184e+02 
1  1.265375796282e+02   3.438950968661e+02  -2.138083714560e+02 
1 -2.675060116096e+01   4.573719334909e+02  -3.971579215100e+02 
1 -1.739908399151e+02  -1.651212112389e+01   3.386953816542e+02 
1  3.622463443624e+02  -8.818464403096e+01  -2.215959892840e+02 
1  7.434858531394e+01  -1.245130252136e+01   5.270198358760e+01 
1 -3.458431016515e+02  -1.131863272858e+02  -2.935560073868e+02 
8
Step 200
1  4.850234825074e+01  -1.186464306241e+02   1.783171860289e+02 
1 -1.881539693596e+02  -1.313033139514e+02  -2.105599023671e+02 
1 -1.110056063487e+01   1.750630399070e+02  -1.577140083442e+02 
1  1.901777347640e+02   3.983292446549e+02  -1.650284256606e+02 
1 -2.726989390458e+01   4.956045330475e+00   2.178666057786e+01 
1  2.606146821545e+02   1.477797465766e+02  -6.906477359214e+01 
1  1.377557773707e+02  -2.721789036799e+01   2.526240979447e+02 
1 -6.117173404933e+01   1.349762203649e+02   9.450408768029e+01 
8
Step 300
1  2.557742038224e+01  -1.887164782618e+02   6.919311902149e+01 
1 -1.519488914427e+02  -2.373545174456e+01  -1.330881843089e+02 
1 -5.080846037654e+01   6.386031536000e+01  -7.113823735502e+01 
1  1.844682486894e+02   2.662129744341e+02  -5.275056066040e+01 
1  6.593493852407e+01   5.896298555865e+01  -1.426103734736e+02 
1  1.531711180222e+02   1.904192608275e+02  -2.915030472795e+01 
1  1.237549593681e+02  -6.613379103798e+01   2.836361458299e+02 
1  5.066245543029e+01   2.034726007237e+02   1.456122524006e+02 
8
Step 400
1 -9.051447306807e+00  -9.807123627343e+01   7.613108638799e+01 
1 -8.149604523603e+01   2.147018628004e+01  -5.640355884148e+01 
1 -5.125702888774e+01   9.300757270002e+00  -2.936221631297e+01 
1  6.937707687427e+01   1.545032812906e+02  -5.230120532938e+01 
1  1.110092566259e+02   4.138782521019e+01  -1.203508349637e+02 
1  5.646712417725e+01   1.057841459635e+02  -9.181918198130e+01 
1  2.588171228165e+01  -9.194837203133e+01   1.952256123664e+02 
1  2.039762818325e+01   1.362310969015e+02   7.590620005947e+00 
8
Step 500
1 -9.764751116781e+00  -2.875847399177e+00   1.220821997659e+02 
1 -4.236008909130e+01  -4.035879682773e+00  -9.017417293619e+00 
1 -2.030523953702e+01  -1.707001206385e+01  -3.833813839673e+01 
1  2.109891020698e+01   7.851121049985e+01  -5.701440643274e+01 
1  9.479155720784e+01   2.547282708435e+01  -4.493416882586e+01 
1  1.099714189797e+01   1.521919189516e+01  -1.369062477874e+02 
1 -5.824016874281e+01  -7.478941760992e+01   8.972267601317e+01 
1 -2.419601051395e+01   5.393351327264e+01  -6.667004231449e+01 
8
Step 600
1 -1.034369204838e+00   1.287085349258e+01   1.028211261437e+02 
1 -3.075727557244e+01  -2.931059202333e+01   3.590898227860e+01 
1  2.270017590634e+01   1.720528372069e+01  -7.607153958418e+01 
1  2.466465180761e+01   5.880202069968e+01  -2.429977473675e+01 
1  8.958555819480e+01   5.053224146043e+01  -3.309982095771e+00 
1 -5.220461331911e+01   1.859854359355e+01  -1.208083558090e+02 
1 -7.962484835919e+01  -3.513197302996e+01   3.117957603194e+01 
1 -1.268734142433e+01  -1.042459661728e+01  -7.476286297064e+01 
8
Step 700
1  1.585036020158e+01   2.654527653516e+01   5.496568598738e+01 
1 -3.711885810482e+01   9.344651075108e+00   4.024810621716e+01 
1  3.199714541821e+01   3.978502702351e+01  -7.908896289915e+01 
1  5.344208835728e+01   6.303496716507e+01  -2.691425156752e+01 
1  8.173184081270e+01   5.388281609231e+01  -1.519217818214e+01 
1 -8.745434223823e+01   4.956462271091e+01  -8.370548096760e+01 
1 -2.871999364360e+01  -3.013546554356e+01   1.394535895567e+01 
1 -8.557853746658e-01  -1.488884208824e+01  -5.046136086560e+01 
8
Step 800
1  1.177915291926e+01   4.024104487470e+01   3.361462815135e+01 
1 -2.710748020225e+01   1.630010019823e+01   1.681171811340e+01 
1  4.434760812236e+01   6.833828952668e+00  -7.225833159237e+01 
1  6.310927405065e+01   4.146684331841e+01  -3.525557644921e+01 
1  7.940355998618e+01   3.149893853631e+01  -2.799670932763e+01 
1 -4.192898191409e+01   7.759790761480e+01  -3.845494795735e+01 
1  5.275067915054e+00  -6.975000016291e+01   1.761336693293e+01 
1 -5.591746862344e+00   1.154363335911e+01  -2.179748239352e+01 
8
Step 900
1  1.233705681270e+01   4.687447708075e+01   1.238196345948e+01 
1 -2.283640890255e+01   6.351505659938e+00   1.115843128506e+01 
1  2.467433913463e+01  -1.960710943760e+01  -3.646952563382e+01 
1  5.449198035512e+01   4.874372086074e+01  -3.094738547489e+01 
1  9.160946706663e+01   2.204137168958e+01  -3.402210079427e+01 
1  2.679828949183e+01   7.010320064999e+01  -1.573161576197e+01 
1 -4.524421939142e+00  -6.527995389508e+01  -8.047132695341e+00 
1 -6.992579201261e+00  -1.278604376801e-01  -1.658674856135e+01 
8
Step 1000
1  2.430614167377e+01   3.395786057443e+01   3.822559492567e+01 
1 -9.594415048395e+00   3.545624546736e+01  -6.065535142275e+00 
1  2.504902238732e+01  -3.066101950372e+01   1.563791942205e+01 
1  1.365644270328e+01   6.712639094943e+00   8.038256152594e+00 
1  7.580295507461e+01   2.963418604684e+01   2.597931534615e+00 
1  1.584060873043e+01  -1.025816068234e+00   9.496716003621e+00 
1 -2.763771538476e+01  -2.378940896963e+01  -4.024568603837e+01 
1  1.116569694338e+01  -1.310024214664e+01   8.083369045934e+00 
8
Step 1100
1  3.683489300507e+01   5.012227001431e+01   2.717447898559e+01 
1 -7.983265614725e+00   3.946319790455e+01   1.320402235478e+00 
1  1.968135122937e+01  -1.069319944991e+01   4.104300841936e+01 
1  1.788426788093e+01  -2.841405842294e+01   9.242402402353e+00 
1  4.352593999353e+01   6.072956714863e+01   8.049405833105e-02 
1  1.268071347878e+01  -4.681170109775e+01   1.737493318448e+01 
1 -2.931796503462e+01  -1.443126606628e+01  -3.263356261022e+01 
1  5.601004216339e+01  -2.402395698614e+01   2.380656940158e+01 
8
Step 1200
1  2.414057678674e+01   1.629728159572e+01   5.065860159321e+00 
1 -1.474270692237e+00   2.833129827108e+01   2.637237517342e+00 
1  1.202840874947e+01   5.482181143306e+00   2.914700290407e+01 
1  1.664015949645e+01  -8.878189129635e+00   2.804157452801e+00 
1  1.520570155247e+01   5.641898651525e+01  -1.818481690575e+01 
1 -1.326813207659e+01  -4.538925951302e+01   2.871241958234e+01 
1 -2.385191904965e+00   2.986128292039e+01  -3.611853503585e+01 
1  7.017653970629e+01  -4.816771780930e+01  -1.249041409565e+00 
8
Step 1300
1  9.692169826216e+00   6.397136757521e-02   1.241891103091e+01 
1  7.588074954653e+00   1.097200666194e+01   2.296349966111e+00 
1  4.914954242691e+00   2.114044364218e+01   1.493529538807e+01 
1  1.996542853558e+01   3.128218821320e+01   9.840818134293e+00 
1  2.697125868711e+00   2.227193243009e+01  -5.425830228233e+01 
1 -2.578773418157e+01  -6.354358048604e+00   2.524503027332e+01 
1  4.703908072075e+00   5.262877684631e+01  -6.054042245973e+01 
1  3.485789888724e+01  -2.989017310609e+01  -1.730349593555e+01 
8
Step 1400
1  1.561703111794e+01  -1.921997110163e+01   3.703715868970e+01 
1 -5.377020908943e+00   1.812478845657e+01   9.709870419844e+00 
1  2.148125715838e+01   9.837837128326e+00  -2.554245509619e+00 
1  1.880993929923e+01   6.007464569042e+01   2.055130436742e+01 
1 -1.900366085790e+01   9.062094462954e+00  -4.203103119484e+01 
1 -1.940639197258e+01   8.238057592258e+00   1.496040207479e+01 
1 -1.923596808002e+01   1.401572834445e+01  -7.386066349923e+01 
1  1.943053299453e+01  -4.334992257183e+00  -4.057783701538e+01 
8
Step 1500
1  4.294724541128e+01  -3.197195286816e+01   4.344026075886e+01 
1  1.482193957803e+01   2.018126256971e+01   6.718051486090e+00 
1  5.799293327454e+01  -8.806562571183e+00  -3.989268978098e+01 
1  6.132133469158e+01   5.405564973321e+01   1.027003677954e+01 
1  3.823341544310e+00  -2.008953876750e+00  -2.928115499941e+01 
1 -1.452170978160e+01  -1.873122909266e+00   6.009635598761e-01 
1  9.186946158688e+00   1.989528852616e+01  -6.000696319344e+01 
1  3.502723270807e+01   1.733625638462e+01  -4.489599430648e+01 
8
Step 1600
1  4.072990742178e+01  -4.565426948959e+01   4.048806446633e+01 
1  4.019497050518e+00   2.673419127254e+01   3.926017511243e+01 
1  3.245865384770e+01   5.600769963447e+00  -6.690669108366e+01 
1  7.401424682633e+01   4.521732535276e+01  -1.909012507125e+01 
1  6.713608688155e+00   1.499759869483e+01  -5.029581330776e+00 
1 -2.808476606908e+01  -1.560661187677e+01  -3.302806664464e+00 
1  1.959802794563e+00   3.111974354292e+01   6.556235016777e+00 
1  5.357908730237e+01   1.107792185329e+01   2.551848789267e-01 
8
Step 1700
1 -1.981476350014e+01  -4.310748236717e+01   3.521906310202e+01 
1  3.132090311948e+00   7.515935600354e+00   6.368485133927e+01 
1 -2.756930081164e+01   2.354288599186e+01  -4.320445128236e+01 
1  5.819851732707e+01   2.515037990152e+01  -8.424662957560e+00 
1  8.805019699747e+00  -1.969793573967e+01  -1.864078330892e+01 
1 -3.080645842070e+01   1.093196500234e+01   5.013927576130e+00 
1  5.444037091305e+00   2.592679692559e+01   1.412999629476e+01 
1  6.759669173675e+01  -3.518732079816e+00   3.294384148475e+01 
8
Step 1800
1 -3.689795285808e+01  -2.484242391468e+01   9.225966734024e+00 
1 -1.271793901174e+01  -1.804269540554e+01   4.861960276383e+01 
1 -4.559268834975e+01   4.037287272111e+00  -4.695737753068e+01 
1  5.745382195743e+01   1.446199317550e+01  -1.262694001117e+01 
1 -8.109388157965e-02  -5.436046145829e+01  -2.952090494169e+01 
1 -9.667961580927e+00   4.796741254356e+01  -2.196857488432e-01 
1  9.128570129678e-01   2.839502782549e+01   3.802566676550e+00 
1  5.376338408017e+01  -1.427857883467e+01   1.706384812723e+01 
8
Step 1900
1 -2.518425481412e+01   2.875177623241e+00  -1.971764873180e+01 
1 -3.865213750693e+01  -9.116314264821e+00   2.423584486840e+01 
1 -6.487215032913e+01  -1.741053364745e+01  -2.641670572531e+01 
1  3.935950801066e+01   1.548793346526e+01  -1.680691518680e+01 
1  6.289178422015e+00  -2.426486120132e+01  -2.628892107458e+01 
1  1.872790559988e+01   4.279345405061e+01  -2.468161927610e+01 
1 -2.730931624496e+01  -1.283508678252e+00  -1.422202622545e+01 
1  1.550396753257e+01  -2.915978541226e+01  -1.335162329214e+01 
8
Step 2000
1 -8.927590891622e+00   1.926110786940e+01  -4.109422591743e+01 
1 -5.355212903667e+01   2.016682742458e+01  -2.078053210563e+01 
1 -4.852565488894e+01  -3.138709501077e+01  -2.108375440039e+01 
1  4.680347277791e+01   1.778144076015e+00  -8.034520231206e+00 
1  8.157783908824e+00   6.526891463709e+00  -1.677128771398e+01 
1  4.405829113554e+01  -1.614145433384e+00  -2.120904174160e+01 
1 -2.503508350569e+01  -3.404450696573e+01   7.627507668285e+00 
1 -6.689832302497e+00  -1.767273360789e+01  -3.877484906191e+01 
8
Step 2100
1  1.919906692356e+01   4.046424983283e+01  -2.849468852597e+01 
1 -4.766659876880e+01  -6.436029535735e-01  -5.655999280297e+01 
1 -4.565114843080e+01  -5.145726147566e+01  -3.473164529317e+01 
1  5.508517287280e+01   1.780984445996e+01   6.666011638392e+00 
1  6.716110981943e+00   3.292377393098e+01   6.576087266186e-01 
1  4.926254059420e+01  -3.514795571322e+01  -3.481991308980e+01 
1 -1.989849072237e+01  -2.956310582912e+01   1.315039571043e+01 
1  1.620642820187e+01   8.880074762006e+00  -4.395902608935e+01 
8
Step 2200
1  1.031600460107e+01   3.634379160954e+01  -1.069424403738e+01 
1 -3.643461604220e+01  -2.763582646715e+01  -3.315768350303e+01 
1 -3.663133375568e+01  -4.857285720804e+01  -4.536666925514e+01 
1  4.122207429576e+01   6.567167625490e+01   4.365440968417e+00 
1  4.089585448598e+01   5.761343069125e+01   7.294900768067e+00 
1  5.652680182677e+01  -1.253208808694e+01  -4.461092829841e+01 
1 -5.071978691311e+00  -1.860676400218e+01  -1.898949966795e-01 
1  5.156852571322e+01  -2.199818393503e+01   4.556467349206e+00 
8
Step 2300
1 -1.525897673383e+01   2.137792279034e+01  -1.201934299660e+01 
1 -3.214000427851e+01  -3.000326206828e+01   7.227854795337e-01 
1  4.093024059089e+00  -4.970797556854e+01  -5.022848158156e+01 
1  2.030260272229e+01   7.631491243640e+01  -8.364646312725e+00 
1  3.296911356713e+01   6.740206019535e+01  -6.589153411219e+00 
1  3.293546245629e+01   3.795751014214e+01  -1.645859228687e+01 
1 -3.064353730783e+01   9.006848384076e+00  -2.051630723002e+01 
1  5.257994465648e+01  -4.816808456620e+01   4.989044963199e+01 
8
Step 2400
1  1.324915820708e+01   1.302231765781e+00   1.375049381709e+01 
1 -3.949908073240e+01  -3.445660889830e+01  -1.599961825080e+00 
1  3.533610669865e+01  -6.847242815663e+01  -2.664497687828e+01 
1  7.392319223457e+00   6.053229603102e+01  -6.280717757360e+00 
1  2.017862490072e+00   5.737951161339e+01   6.030919575523e+00 
1  2.590380572266e+01   8.937556101614e+01   7.323910328868e+00 
1 -1.496756864281e+01   1.655497581010e+01   4.848705984468e+00 
1  3.081467450668e+01  -7.144096191680e+01   1.163252472710e+01 
8
Step 2500
1  1.150635195418e+01  -3.473088747563e+01   1.501702581620e+01 
1 -4.196440104595e+01  -1.421717153845e+01  -4.932219073049e+01 
1  2.141822258330e+01  -2.896112496649e+01  -1.077674843804e+00 
1 -1.922461145891e+01   2.700299636001e+01   3.129146224358e+01 
1 -1.713219405026e+01   3.070480442899e+01  -2.591034729988e+01 
1  4.362604976367e+01   9.664903060859e+01   1.573357150945e+01 
1  1.721113245117e+01   2.576338953792e+01   3.083228766365e+01 
1  2.603214858666e+01  -8.166287011447e+01  -1.259203883834e+01 
8
Step 2600
1  1.995778391489e+01  -1.705746910955e+00   8.086900256486e-01 
1 -5.989390190182e+01   3.055696499105e+01  -2.320680103658e+01 
1  8.015848374571e+00   7.216835984736e+00   3.598189397996e+01 
1 -1.285613590908e+01  -2.417739554289e+01   4.382270732429e+01 
1 -4.396409123702e+01   5.040134139298e+00  -7.885241733057e+01 
1  4.909219805082e+01   5.516050332815e+01   3.452614438277e+01 
1  1.386045294086e+00   8.217058391595e+00   3.907856574715e+01 
1  1.974742426095e+01  -5.978979236698e+01  -3.445847292440e+01 
8
Step 2700
1  1.112341876849e+01   1.941990054274e+01   3.922100730484e+00 
1 -7.563880583028e+01   7.130182259456e+01  -1.043450256559e+00 
1 -5.136497528201e+00  -1.431995963891e+01   2.178367572697e+01 
1  1.087002265790e+01  -1.199066985459e+01   3.817015446779e+01 
1 -5.375292014592e+01  -2.546236119707e+01  -7.405722931999e+01 
1  5.142549625201e+01   3.874961070948e+01   4.595020718333e+01 
1 -1.408189959180e+01  -8.109444719217e+00   2.554890261338e+01 
1 -1.076978626131e+00  -4.137142938052e+01  -1.528117638292e+01 
8
Step 2800
1  3.273834494287e+01   3.143738716385e+01  -5.335722777610e+00 
1 -5.114511551134e+01   7.149323165704e+01   8.079336080474e+00 
1 -2.467413193557e+01  -1.033976212666e+01  -3.137729299033e+00 
1  3.412442779478e+01  -6.072746086304e+00   2.580244910204e+01 
1 -4.162765872421e+01   1.289651864059e+00  -6.020119863743e+01 
1  2.194932567265e+01   4.188217405379e+01   4.984323376874e+01 
1 -2.880711326129e+01  -5.578498551934e+01   2.205740999012e+01 
1  1.554997337460e+01  -2.707319919341e+00  -2.035570745648e+01 
8
Step 2900
1  3.149428053416e+01   1.298714005204e+01  -7.062637768804e-03 
1 -2.589340588913e+01   3.760452427379e+01  -1.761304228798e+01 
1 -4.239890871279e+01  -2.188036262568e+01  -4.779492377248e+00 
1  4.714608824168e+01  -4.115263880660e+01   7.536378692160e+00 
1 -2.557806827460e+01   1.981484126176e+00  -3.624971428274e+01 
1  2.200062676326e+01   4.452284133615e+01   7.067860816121e+01 
1 -5.402533088693e+01  -8.376567294656e+01   2.532907080101e+01 
1 -2.386440373373e+01   1.984647015489e+01  -2.367240056478e+01 
8
Step 3000
1 -1.903415693891e+00  -8.627385434278e+00   1.024477216604e+01 
1 -1.502470260547e+01   1.844115231662e+01  -3.040351140837e+01 
1 -5.220908718192e+01  -3.436535287308e+01  -8.536141290815e+00 
1  4.398365843976e+01  -6.776098768027e+01   1.423566441365e+01 
1  7.949769200991e+00   1.921346430913e+00  -4.676110241654e+01 
1  4.095003577054e+00   4.345649238984e+01   5.683880197108e+01 
1 -5.327307610185e+01  -1.127080878615e+02   4.412042707759e+01 
1 -1.995160975172e+01   2.971343799152e+00  -4.176822281705e+01 
8
Step 3100
1 -3.735211112169e+01   4.575216882540e+00   5.202420919341e+00 
1  3.944163935055e+00   5.647080300823e+00  -3.072863159136e+01 
1 -1.076622541345e+01  -4.383334938510e+01  -3.416520457870e+01 
1  4.764524811648e+01  -6.796245837120e+01  -1.195345034389e+01 
1  6.563314823492e+00   1.789620692264e+01  -3.606521355017e+01 
1 -1.695938177990e+00   5.473082464361e+01   3.071645389821e+01 
1 -3.538035688644e+01  -7.025656659793e+01   5.043698202750e+01 
1 -2.556611242782e+01  -1.292839560479e+01  -3.687371924314e+01 
8
Step 3200
1 -2.256755686542e+01   1.888773357821e+01   2.385386071173e+01 
1  4.557015047853e+01   2.364913787639e+01  -7.505723920649e+01 
1  2.866462096798e+01  -3.288786269935e+01  -4.217773203936e+01 
1  4.104680938128e+01  -1.560691575840e+01  -3.508199305814e+01 
1 -1.047033110422e+01   1.330429989851e+01   4.043674062223e-01 
1  2.452324282752e+01   8.544455685552e+01   3.292309092479e+01 
1 -2.840023627824e+01  -8.689727853634e+01   3.486406866801e+01 
1 -6.040185722189e+00  -6.550752478105e+00  -3.255575662554e+01 
8
Step 3300
1  2.160292785078e+00   3.950244772881e+01   3.858531170091e+01 
1  6.646596884587e+01   2.202111886199e+01  -7.997702486992e+01 
1  6.989251185849e+01  -4.555976098508e+00  -2.022794806906e+01 
1  2.966921594082e+01   1.168379657322e+01  -2.860748298051e+01 
1 -2.821848362192e+01   1.370609790746e+01  -1.870235795356e+01 
1  1.276851264835e+01   8.591611601347e+01   2.289446194265e+01 
1  6.181928152543e+00  -8.349764752293e+01   1.587744496063e+01 
1  1.088520423156e+00   5.785968747039e+00   1.010570385735e+01 
8
Step 3400
1 -2.203447162553e+01   1.766516841951e+01   6.616564801664e+01 
1  6.628247531458e+01   6.908993249347e+00  -4.935681934826e+01 
1  7.474026000473e+01   3.484149135444e+01  -1.177941522090e+01 
1  1.174874884311e+01  -4.099734796203e+00  -9.461594421675e+00 
1 -1.950379647587e+01   2.732451975399e+00  -1.060351133918e+01 
1  7.910952814953e+00   3.732280811851e+01   7.681788489324e+00 
1  1.103337396364e+01  -6.508804917080e+01   4.326072368157e-01 
1  9.230731978836e+00   1.680629871992e+00   4.466784394362e+01 
8
Step 3500
1 -2.964941713716e+01  -9.258831983531e+00   8.684991088469e+01 
1  4.415422174813e+01   3.119171241066e+01  -4.782885840589e+01 
1  6.886773754774e+01   4.513382626435e+01  -1.543266824597e+01 
1 -8.809976913125e+00  -4.090814200275e+01   1.164150017423e+01 
1 -1.825876034132e+01   1.600685455478e+01   3.172061450636e+01 
1  4.197148161264e+01   2.681313398812e+01  -2.557079137856e+00 
1 -1.704189946729e+00  -9.045767735430e+01  -1.899554117235e+01 
1 -2.018931118073e+01  -3.129211292944e+01   5.087317830840e+01 
8
Step 3600
1 -1.731715599126e+01  -1.264396303796e+01   6.894047696884e+01 
1  3.019818098636e+01   4.274065488586e+01   1.681668445005e+00 
1  6.921509096266e+01   3.070537836271e+01  -1.041871427281e+01 
1 -2.245425628949e+01  -6.555265330833e+01   2.263156562015e+01 
1 -3.138466446806e+01   7.940650695081e+00   5.738382022341e+01 
1  3.785875355263e+01   3.839470451303e+01  -4.034827367278e+01 
1 -2.492022751191e+01  -1.023726194990e+02  -8.469787452457e+00 
1 -2.974471013512e+01  -5.091256986716e+01   3.399032111281e+01 
8
Step 3700
1 -1.118111374793e+01  -1.275906904405e+01   6.570724705485e+01 
1  2.067559329380e+01   2.768344658664e+01   2.204413254444e+01 
1  5.772382972066e+01   1.191528314553e+01   1.569125666776e+01 
1 -1.010880660216e+01  -5.193665788850e+01  -6.336298372158e+00 
1 -3.183961650338e+01   1.730132675646e+00   2.612364543219e+01 
1  3.716079537313e+01   4.508189486108e+01  -1.839708731221e+01 
1 -5.855380471110e+01  -8.202246075309e+01   1.007982193283e+01 
1  7.053521113008e+00  -2.806065723557e+01   3.301836069240e+01 
8
Step 3800
1 -4.740298706575e+00  -9.311966802217e+00   5.877719658846e+01 
1  1.208980123348e+01   2.612038953700e+01   2.415938439457e+01 
1  2.695080328265e+01   1.737043042877e+01   2.195948313592e+01 
1 -1.271902973142e+01  -3.669559997531e+01  -2.060640118090e+01 
1  4.186604377375e+00   2.700703618608e+01   1.340617370830e+01 
1  1.416218084078e+01   3.271957176766e+01   5.861129443554e+00 
1 -3.701561139369e+01  -5.693947185347e+01  -9.715517948449e+00 
1  5.494679368444e+01  -1.125056546061e-01   1.319704435585e+01 
8
Step 3900
1 -1.135973651614e+01   6.665635543323e+00   4.698237329935e+01 
1  1.383582294872e+01   1.846825933524e+01   1.495753736008e+01 
1 -3.159272305101e+00   2.688934819034e+01  -1.781229980372e+01 
1 -2.337195175382e+01  -1.666876554890e+01  -2.073224668532e+01 
1 -7.008573095625e+00   1.986863562339e+01  -2.561566654609e+00 
1  1.303874544768e+01   3.026592386396e+01   2.899362351918e+01 
1 -4.080960535043e+01  -1.141359935803e+01  -1.715630077541e+01 
1  6.809341930057e+01   5.588130741105e+01  -1.569394837638e+01 
8
Step 4000
1  3.271186584002e+00   4.806680798595e+01   4.148367680128e+01 
1  2.865032164948e+00  -1.401674031926e+01  -1.030254624045e+01 
1 -2.069915679863e+01   6.679464239421e+01  -2.555859867016e+01 
1 -2.575839258250e+01  -2.044886053501e+01   6.993223755778e+00 
1 -4.767748792636e+01   3.138567212060e+00  -3.851602565554e+01 
1  2.938771174722e+01   7.505451246085e+01   5.941997399399e+01 
1 -3.308531499000e+01   1.082203206485e+01   2.453505058934e+01 
1  7.397491708097e+01   2.436229924697e+01  -3.313092943072e+01 
8
Step 4100
1  3.313973659167e+01   7.051025634579e+01   4.019433524932e+01 
1 -1.304642007062e+01   3.364115808452e+01   2.424961098950e+01 
1 -3.297924015287e+01   4.555483647753e+01   1.301113500016e+00 
1  1.074095036337e+01  -1.221388417391e+01   2.664322122953e+01 
1 -7.866380989351e+01  -1.267139969058e+01  -4.267571834847e+01 
1  4.801045791838e+01   5.448777501620e+01   3.551187366907e+01 
1 -1.119746023687e+01   1.188181248699e+01   3.496482211948e+00 
1  6.548197614726e+01  -3.044698819975e+01  -4.090442723173e+01 
8
Step 4200
1  3.024176961118e+01   4.525942187912e+01   1.253684413463e+01 
1 -3.724624859076e+01   3.322471757002e+01   4.710479588471e+01 
1 -8.092680341359e+01   1.675494412517e+01   2.922423727741e+01 
1  5.195982908592e+01  -3.667394719254e+01   4.943674236505e+01 
1 -8.554971554642e+01   4.604878007798e-01  -4.083417552277e+01 
1  3.983531716017e+01   3.797139327667e+01  -1.406993701713e+01 
1 -1.713472491077e+01   2.496037620290e+01  -4.060187849560e+01 
1  1.907415951117e+01  -2.752550519253e+01  -3.807547030096e+01 
8
Step 4300
1  1.607687008883e+01   1.095572271778e+01   2.221852449106e+01 
1 -3.117729792060e+01   4.513223910348e+00   4.635981400026e+01 
1 -6.422290726522e+01   1.564906872313e+01   5.043287471378e+01 
1  4.159956189355e+01  -3.709637686589e+01   3.028974207851e+01 
1 -7.661451867836e+01  -6.294581168022e+00  -6.736266696190e+01 
1  3.776039528375e+01   5.463847660089e+00  -1.922367471956e+01 
1 -3.455066866819e+01  -1.199919420388e+01  -4.072405174646e+01 
1 -2.822645039756e+01   1.411353347465e+01  -2.750265276652e+01 
8
Step 4400
1 -1.962974259716e+00   2.247160462157e+01   3.312034964418e+01 
1  3.522623516255e+01  -2.457350534057e+01   2.143067787281e+01 
1 -2.693950121253e+01  -1.336249484268e+00   4.967365147174e+01 
1  3.683729038398e+01   6.237943405200e+00  -5.807238383148e+00 
1 -3.731919967460e+01   8.522498684286e+00  -6.305772670115e+01 
1  2.352807760169e+01  -5.679727068329e+00  -2.527384172952e+01 
1 -3.623236291373e+01  -3.067228785332e+01   5.234712236257e+00 
1  2.522924689983e+00   4.457950454304e+01  -1.598338511895e+01 
8
Step 4500
1 -2.012890685391e+01   7.316174853243e+01   4.390712384325e+01 
1  5.398834777951e+01  -8.486395434595e+00  -1.256607256939e+01 
1 -1.991548630915e+01  -2.023129327612e+01  -1.476387516754e+01 
1  4.199288498040e+01   2.988256332359e+01  -2.353958633446e+01 
1 -3.781627097706e+01   2.458408270983e+01  -7.407248013745e+01 
1 -6.265674528931e+00  -4.094367262021e+00   7.549504930928e+00 
1 -2.852569209888e+01   1.181944395182e+01   2.714884545496e+01 
1  1.756431934375e+01   2.027789296991e+01  -1.228998234301e+01 
8
Step 4600
1 -1.947282315283e+01   4.577673100270e+01   6.106306215946e+01 
1  4.677215318881e+01   2.158084070939e+00  -3.385033164298e+01 
1 -1.005267976048e+01  -7.942370691981e+00  -5.251981025640e+01 
1  6.338476586344e+01   2.876322494239e+01  -1.633684226353e+01 
1 -1.494763410654e+01   1.718964498483e+01  -7.931545594150e+01 
1 -1.668515768740e+01  -1.974326128390e+01   3.924100995860e+01 
1 -3.722396693811e+01   1.612794605006e+01   4.391501644769e+01 
1  9.912115185270e+00  -5.783325801111e+00  -4.230128558106e+00 
8
Step 4700
1 -3.006876762836e+01   8.911054820078e+00   3.202034857401e+01 
1  5.112653823234e+01  -1.434789705659e+00  -3.121760016575e+01 
1  1.105313545664e+00  -2.492328630182e+01  -3.875928838352e+01 
1  4.374314950861e+01   6.957332820739e+00  -8.294805375338e+00 
1 -3.503276943876e+01   2.350916246296e+01  -7.048910589151e+01 
1 -4.815324258923e+00  -3.096786651563e+01   5.420944614735e+01 
1 -1.589451153009e+01  -1.396551717824e+01   4.583335441517e+01 
1  2.048789536668e+01  -4.139567837617e+00   1.126502848592e+01 
8
Step 4800
1 -3.668051195797e+01  -1.471814267631e+01   3.307422895111e+01 
1  3.909684497757e+01  -3.719082490145e+01  -2.595783395077e+01 
1 -3.329721201258e+00  -1.775834369624e+01  -1.079945298664e+01 
1  4.282349247336e+01  -3.181793933894e+01  -1.988800107397e+01 
1 -1.072247632266e+01   5.744050026625e+01  -2.676552930037e+01 
1 -1.979732916593e+00  -2.495227601295e+01   2.283048607109e+01 
1 -1.577468909282e+01  -4.456925005367e+01   1.822870409803e+01 
1  9.814189944369e+00   5.745091007851e+00   8.001968705158e+00 
8
Step 4900
1 -3.671269323575e+01  -8.893405934362e+00   4.194306140730e+01 
1  2.973088666609e+01  -7.823448499210e+01  -3.686640487478e+01 
1 -5.470706104275e+00   4.470810141184e+01   3.268080256592e+01 
1  5.623007272524e+00  -6.487279572197e+01  -3.281945621869e+01 
1  6.032036089381e+00   3.857355514037e+01  -3.528724671984e+01 
1  5.454036618054e+00  -2.304211439478e+01  -4.694898423625e+00 
1 -2.676732658548e+01  -8.341467969879e+01  -2.611654286273e+01 
1  1.255180673249e+01  -5.618207291088e+00   1.826130353013e+01 
8
Step 5000
1 -2.732565594574e+00   1.061950299563e+01   3.410149110165e+01 
1  2.121716745277e+01  -1.126261535129e+02  -4.475249237612e+01 
1  9.508760024551e+00   5.844889932041e+01   5.444906362601e+01 
1 -3.600212654436e+01  -3.187779858407e+01  -1.722210158901e+01 
1  1.427684900050e+01  -9.220274015003e+00  -2.374869002469e+01 
1  2.669045728207e+00  -1.513801517341e+01  -3.625727827338e+01 
1 -2.216667174491e+01  -9.785239956208e+01  -4.102868655775e+01 
1  2.126378158816e+01  -3.794426376215e+01   4.177581245486e+01 
8
Step 5100
1  3.834251409462e+01   3.819707232286e+01   7.520160925041e+00 
1 -1.187771493120e+00  -7.895676717992e+01  -4.551873477147e+01 
1 -3.279229515193e+00   2.977670604177e+01   3.772919769075e+01 
1 -3.093774358636e+01  -3.266183755991e+00  -2.047480294559e+01 
1 -2.191050966140e+00  -1.820078635038e+01  -1.603243608012e+01 
1  4.417612831032e+01  -1.395828048899e+01  -7.383964213549e+01 
1 -1.686979767242e+01  -6.663393466549e+01  -2.242808520189e+01 
1  2.001660956968e+01  -3.648349326352e+01   2.667979183486e+01 
8
Step 5200
1  3.386607925764e+01   2.255210284528e+01  -7.928140990582e+00 
1  1.855764553649e+01  -1.839063664469e+01  -2.205184400673e+01 
1  6.708107857372e+00  -8.774047206201e+00   1.898936362188e+00 
1 -2.467981801882e+01   1.373846274337e+01   1.336148074610e+00 
1 -1.540863080261e+01   1.357691672042e+01   1.736431120625e+01 
1  5.267977686440e+01   1.636654602876e+01  -6.099536531896e+01 
1 -1.793277888013e+01  -2.300584923558e+01  -1.463505255238e+01 
1  5.959854345618e+00  -2.270533018645e+01   2.642605981989e+01 
8
Step 5300
1 -7.575714046189e-01   1.026469447177e+00  -1.694715728942e+01 
1  8.572278506983e+00   1.679996248814e+01  -1.002884399213e+01 
1 -4.435438965037e+00  -4.233674442624e+01  -1.638519999016e+01 
1 -5.660922240046e+01   2.135594416353e+00   1.212438483649e+01 
1 -5.302968463891e+00   3.309922567928e+01   2.880844280993e+01 
1  1.741450153861e+01   6.597524221816e+00  -3.550329141194e+01 
1 -1.090605588467e+01   1.755119951328e+01  -1.000330733007e+01 
1  1.424215844298e+01  -1.616999900821e+01   3.823444051781e+01 
8
Step 5400
1 -1.001619389761e+01   1.725104707948e+01  -2.444876415528e+01 
1 -2.318646290710e+01   1.919454875854e+01  -1.893120040016e+00 
1  2.687383680086e+01  -3.502805889890e+01  -2.295918869889e+01 
1 -4.281252945467e+01   4.198065447603e+00   1.821765998857e+01 
1  1.027943115717e+00   9.411070973887e+00   1.735832497303e+01 
1  2.509607221672e+01  -1.351000278047e+01  -2.498912204905e+01 
1  4.251310475528e+00   2.490505927401e+01   5.514134526087e+00 
1  1.918721131879e+01  -2.130948071992e+01   3.745406899186e+01 
8
Step 5500
1 -1.178307916200e+01   2.381884492332e+01  -2.479952523433e+01 
1 -4.268848433588e+00   1.894566548544e+00   2.258259813634e+01 
1  3.487333114582e+01  -4.726485174167e+01   1.388849060095e+01 
1  1.431613945530e+01   1.189876649855e+01   1.359576880317e+01 
1 -3.891811513625e+01  -1.000975378102e+01   3.367279275669e+01 
1  1.013224518961e+01  -4.552889301365e+00  -7.092888780024e+01 
1  1.458218268768e+00  -1.243246907420e+01   2.269158778597e+01 
1  2.503106188271e+01  -7.615797883381e+00   3.728731904549e+01 
8
Step 5600
1 -1.022898445593e+01   2.923362822228e+01  -3.397355275922e+01 
1 -2.670427861177e+00  -1.164764170393e+01   3.777993958536e+01 
1  7.760037229030e+00  -2.995686614010e+01   7.368818693976e+01 