8
Step 0
1 -3.725609721510e+02   3.755376068281e+01   2.003144348063e+02 
1  2.702184259474e+02   1.940885871767e+02  -4.504086892699e+02 
1 -6.143886054221e+02   2.046284953525e+02  -4.887892839025e+02 
1  4.272190790357e+02  -2.304902992146e+01  -3.792784389004e+01 
1 -1.341709354384e+02   5.371985670023e+02   4.150598171875e+02 
1 -4.323687805359e+02   3.297703400286e+02  -6.487103398667e+01 
1 -5.531583529799e+02  -4.904936835904e+02  -6.399893603187e-02 
1  5.401589627151e+02  -6.116312495915e+02  -6.183126594955e+02 
8
Step 100
1 -2.059394617477e+02   9.707955628539e+00   2.035544353111e+02 
1  2.057205478486e+02   2.508791062609e+01  -2.231739210616e+02 
1 -3.956492540627e+02  -8.657245782424e+00  -4.190930729810e+02 
1  2.839275299419e+02  -4.963416635726e+01  -1.058157892942e+02 
1  2.348983814370e+01   4.154659906835e+02   1.249172611071e+02 
1 -3.353715806025e+02   1.537625635859e+02  -7.306179827296e+01 
1 -4.229109542800e+02  -3.262815180099e+02  -4.874755963420e+01 
1  3.628340828668e+02  -4.909766144010e+02  -3.866608721725e+02 
8
Step 200
1  2.707569569615e+01  -6.900888347060e+01   2.108077269066e+02 
1  9.132028398777e+01  -1.564832352275e+02   7.392577086959e+01 
1 -9.151427095433e+01  -2.063504355996e+02  -2.803050880386e+02 
1  1.320203901273e+02  -7.546465197196e+01  -1.529879386594e+02 
1  2.045562958969e+02   2.403290212318e+02  -1.646587111896e+02 
1 -1.874760742527e+02  -5.831765490029e+01  -6.594838890200e+01 
1 -2.748703844174e+02  -1.530923918929e+02  -1.296715574880e+02 
1  1.621214630707e+02  -2.961190315507e+02  -6.094082424068e+01 
8
Step 300
1  7.133870965439e+01  -1.119104977463e+02   2.098796594345e+02 
1  1.710169120277e+01  -1.849414510571e+02   1.480116595519e+02 
1  3.001046884427e+01  -2.338391720217e+02  -1.096976110035e+02 
1  4.518237820252e+01  -4.686637101417e+01  -1.698046240163e+02 
1  2.521907659189e+02   1.419742257251e+02  -2.024087088577e+02 
1 -8.035333706780e+01  -1.000195435277e+02  -4.661622862913e+01 
1 -2.124527772287e+02  -6.368687557951e+01  -1.621893719735e+02 
1  9.188983387194e+01  -1.516471305719e+02   6.471043476913e+01 
8
Step 400
1  4.167468875951e+01  -1.163573217561e+02   1.620993403465e+02 
1 -2.126733287445e+01  -1.209175820616e+02   8.584344165875e+01 
1  2.594244698529e+01  -1.497227169599e+02  -2.831403182854e+01 
1  4.458888677612e+01  -1.430892585262e+01  -1.758124916385e+02 
1  1.781271063740e+02   9.389353383779e+01  -9.527517701399e+01 
1  3.615259490850e+01  -2.605460949872e+01  -8.039564144321e+00 
1 -1.864935414719e+02  -5.740362103641e+01  -1.491531041223e+02 
1  8.593565132171e+01  -7.032214455975e+01   7.663583916562e+01 
8
Step 500
1  1.590446908435e+01  -9.297473251838e+01   8.447501425906e+01 
1 -2.172224741879e+01  -4.081777460409e+01   4.665455404873e+01 
1  2.937142077263e+00  -4.959974586830e+01  -7.416042525470e+00 
1  7.228858999066e+01  -5.252403166079e+00  -1.532551828445e+02 
1  9.692052212375e+01   6.755856942034e+01  -2.726937893371e+01 
1  1.063031564107e+02   4.084870200318e+01  -2.104035082898e+00 
1 -1.606978114422e+02  -4.614205890477e+01  -1.107867304467e+02 
1  1.038946424990e+02  -2.503658254057e+01   1.376954788489e+01 
8
Step 600
1 -4.135870282552e+01  -3.819650522808e+01   3.478013904675e+01 
1  8.277569963738e+00  -2.518146364604e+01   1.887815049917e+01 
1 -1.568148629524e+01  -1.005828757359e+01  -2.744390224046e+01 
1  9.436275918539e+01   2.801228292212e+01  -8.066847067186e+01 
1  6.327197925397e+01   6.132428875538e+01  -1.169577588578e+01 
1  1.130726990017e+02   5.137471211511e+01  -6.259125025102e+00 
1 -1.256483557784e+02   1.766975207608e+01  -5.697038758397e+01 
1  5.167853960961e+01  -1.705160864096e+01  -2.987591353141e+01 
8
Step 700
1 -5.857312696212e+01  -3.892520114451e+01   6.808782358632e+00 
1  4.202052533582e+01  -6.177710639669e+01  -6.729830837337e+00 
1 -2.047341772975e+01  -2.624025443467e+01  -3.097241084275e+01 
1  8.270432543874e+01   4.144944939603e+01  -9.567663367402e+01 
1  5.230685846001e+01   2.330758853664e+01  -2.936360750133e+01 
1  5.731005701280e+01   3.364058902572e+01  -2.478293588893e+01 
1 -9.092760708007e+01   3.627986450595e+01  -2.583146739897e+01 
1 -9.367337232068e+00  -3.006950036670e+01  -2.721482856598e+01 
8
Step 800
1 -4.379233361257e+01  -4.487969120206e+01   3.389715295739e+01 
1  7.056104323949e+01  -6.856814982405e+01   3.318325513720e+00 
1 -1.492971923939e+01  -1.400488956115e+01  -8.998706984193e+00 
1  5.233866572115e+01  -3.193233275856e+01  -1.324103085573e+02 
1  6.904204126998e+01   7.130177973924e+00  -4.909763714871e+01 
1  3.341553882067e+01  -9.467247300597e+00  -3.546388351379e+01 
1 -4.503134967860e+01   6.495040885854e+00   2.195353014573e+00 
1 -8.305392267366e+00   7.247811492113e+00  -3.693441411767e+01 
8
Step 900
1 -1.085772465074e+01  -6.852735157063e+01   3.305870346277e+01 
1  7.182038098801e+01  -5.070550125533e+01   3.092830156439e+01 
1 -1.227307452582e+01   1.254154474642e+01  -1.432620258265e+01 
1  2.916506677394e+01  -7.917023386380e+01  -1.131740387555e+02 
1  6.166343902602e+01   2.059812494598e+01  -7.406950681176e+01 
1  7.671469082685e+00  -3.550862609543e+00  -1.119658322224e+00 
1  1.655113254963e+01  -3.158635468997e+01  -4.396996393646e+00 
1  5.956842851807e+00   3.678987936499e+01  -3.765356848570e+01 
8
Step 1000
1  4.236656848449e+01  -5.331036050547e+01   5.865566173488e+00 
1  6.218541835129e+01  -2.347891329069e+01   7.637571101515e+00 
1 -2.349938249639e+01   1.856984502955e+01   6.782356279538e+00 
1  6.379450927954e+00  -5.517499796177e+01  -5.615718077783e+01 
1  8.936068636542e+01   3.617378768407e+01  -9.502010436097e+01 
1 -1.533993733520e+01  -1.422175081200e+01   4.449074411107e+01 
1  4.698049337396e+01  -2.406537743928e+01  -9.984379080651e+00 
1 -2.349848558297e-02   2.628008780768e+01  -3.014893027072e+01 
8
Step 1100
1  5.099923325301e+01  -2.049145573322e+01   1.496665099630e+01 
1  2.275808502993e+01   7.802810517076e+00  -2.415152381915e+01 
1 -7.081784861203e+01   8.787208760986e+00   1.144054155034e+01 
1 -1.846754258456e+01  -3.182763563219e+01  -1.718524234610e+01 
1  8.403877807821e+01   3.680628206317e+01  -8.368393148068e+01 
1  2.472374250414e+00  -1.290070996224e+01   3.160366188881e+01 
1  5.788350883579e+01  -2.202810176079e+01  -4.289530123139e+01 
1 -1.533129351846e+00  -2.227380708120e+00  -3.292887451112e+01 
8
Step 1200
1  4.829495841374e+01   1.494165538836e+01  -1.181299379192e+01 
1 -2.726634476171e+00   2.470127119878e+01  -3.301791713043e+01 
1 -8.830079027758e+01  -1.960966011518e+01   3.891814451592e+01 
1 -3.853025891603e+00  -1.135915257117e+01   1.164090372664e+01 
1  7.016683802493e+01   1.830200320951e+01  -6.273136748259e+01 
1  5.831179896847e+01  -1.206586475514e+01  -4.417591059401e+00 
1  1.885650857857e+01  -1.268807042290e+01  -4.954368053361e+01 
1 -2.543092370752e+00  -1.290796878802e+01  -1.149970647633e+01 
8
Step 1300
1  2.613800792769e+01   5.406700504886e+01  -8.729669075569e-01 
1 -3.718098081407e+01   3.722988328803e+01  -2.036141766624e+01 
1 -4.397439587181e+01  -1.795681139297e+01   3.147670539339e+01 
1  3.403562811032e+01  -1.651026996404e+01   1.032151803464e+01 
1  5.047786945887e+01  -9.300932832506e+00  -3.766051630861e+01 
1  7.421520766173e+01  -2.443712735216e+00  -2.342387304260e+01 
1  8.370527584775e+00   2.342970672818e+01  -3.859265576273e+01 
1 -3.185252742067e+00  -2.451438693995e+01   8.654910184615e+00 
8
Step 1400
1  9.874190909503e+00   7.672069612345e+01   2.174583078846e+01 
1 -3.064752101840e+01   9.608102186766e+00  -2.548346325456e+01 
1 -2.782283848635e+01   4.310842345094e+00   2.394433177928e+01 
1  3.177099708631e+01   2.568404879069e+00   1.114517521210e+01 
1  2.275948811449e+01  -1.360142739101e+01  -1.037225363256e+01 
1  5.374020044112e+01   2.464978988821e+01  -3.365561656545e+01 
1 -1.634029460737e+01   2.569827926492e+01  -5.091160589013e+01 
1  5.199954636306e+01  -1.693471308744e+01   4.437727200521e+00 
8
Step 1500
1 -1.769643261534e+01   9.456314146899e+01   9.271360098681e+00 
1  4.887814196372e+00  -2.935873882201e+01   7.804494612245e+00 
1 -2.782675367290e+01  -1.225194851257e-01   1.802415891269e+01 
1 -3.337094211229e+01   9.131913729959e-01  -1.501660419998e+01 
1  2.457075732969e+00  -1.707398367777e+01   6.799195953597e+00 
1  5.670340926566e+01   6.129052609420e+01  -1.466379076308e+01 
1 -2.945268539377e+01  -1.540140846757e+00  -6.854045960043e+01 
1  6.906816143841e+01   9.367250960562e+00   1.037322719462e+01 
8
Step 1600
1 -6.223964876259e+00   9.226650867226e+01   8.239828934229e+00 
1  2.241889547469e+01  -3.572095913844e+01   2.489655288188e+01 
1 -5.270021971812e+01  -3.508248330481e+00   3.811266814829e+01 
1 -2.500595003076e+01  -1.737617066210e+01  -8.280634551384e-01 
1 -5.532061102911e+01   2.208955856367e+01  -6.926797283810e+00 
1  6.494603312397e+01   7.148774446643e+01   1.196946290210e+00 
1 -1.540630709071e+01  -6.505215442623e+00  -5.091093901252e+01 
1  3.709592576633e+01   1.171510582973e+01   4.461777006485e+01 
8
Step 1700
1 -2.654466509666e+01   7.667985600939e+01   2.717991464666e+01 
1  2.085232651835e+01  -2.924875884720e+01  -1.042650687361e+01 
1 -6.233265659000e+01  -3.858830379059e+01   1.836828829792e+01 
1 -2.264319024740e+01  -3.583153823450e+01  -3.527529044366e+01 
1 -4.405167109399e+01   6.509129472528e+01  -2.376093790271e+01 
1  3.769800332656e+01   6.067669023726e+01  -7.289508896955e-01 
1 -3.959320177409e+00   6.106175981811e+00  -5.108530188538e+01 
1  4.553700592961e-01   5.676551529571e+00   4.184613617848e+01 
8
Step 1800
1 -2.045403376252e+01   1.134872745281e+02   2.841957893314e+01 
1 -1.184890975052e+01  -4.124098117228e+01   9.388377034448e+00 
1 -3.471219450623e+01  -2.846673637085e+01   2.074821511503e+01 
1 -4.601967345928e+00  -7.394373603581e+00  -7.264893911587e+01 
1  2.356482592679e+01   8.250001003852e+01  -3.098383822912e+01 
1  1.573511287536e+01   3.376631269991e+01  -4.570524835399e+00 
1  3.434489126575e+01   1.578872647274e+01   2.349580628438e+00 
1 -2.329935518751e+01  -1.056935433332e+01   7.434346388039e+00 
8
Step 1900
1 -5.452899862420e+00   1.456018013438e+02   1.226212152093e+01 
1 -2.308163215490e+01  -1.598362095668e+01   1.383947221972e+01 
1  7.642453643991e+00  -9.520157311229e+00   1.549448227348e+00 
1  2.036768734468e+01  -5.123912024235e+00  -6.035646716239e+01 
1  5.947262184865e+01   8.765189410573e+01  -3.209151002549e+01 
1  2.531094509412e+01   1.206406218073e+01   2.363138607698e+00 
1  5.667077898763e+01   2.848448304411e+01   6.343823601835e+01 
1  2.499504576287e-01  -8.062810792444e+00  -2.606139132857e+01 
8
Step 2000
1 -3.583232097166e+00   1.106434284185e+02  -2.306566373599e+01 
1  2.251967607098e+00   1.291993530742e+01   1.379077259699e+01 
1  3.933314160186e+01  -2.642310702757e+01  -1.448721088822e+01 
1  3.054614555864e+01  -2.663182481718e+01  -5.495099716402e+01 
1  4.040279521520e+01   7.592426849321e+01  -2.597026492029e+01 
1  3.677770775636e+01   2.891115535276e+00   6.674808513766e+00 
1  7.464135434109e+01   2.109866078478e+01   9.717636044004e+01 
1  1.090093977647e+01   5.242410341179e+00  -3.319404670308e+01 
8
Step 2100
1 -1.641177868948e+01   7.678982456068e+01  -3.702360985780e+01 
1  8.017225898919e+00  -1.398725483173e+01   7.030928229565e-01 
1  4.186969669688e+01  -1.263020914256e+01  -2.667610133684e+01 
1  3.646827125700e+01  -4.211043397821e+01  -4.377999747791e+01 
1  4.515185786636e+01   6.706235538985e+01  -3.577700809955e+01 
1  2.629439418281e+00  -1.302882431898e+01   5.381381411698e+01 
1  2.969275041540e+01  -6.436944772565e+00   8.175347794776e+01 
1  2.455222298059e+00  -1.474125330524e+01  -3.808989372452e+01 
8
Step 2200
1 -1.109326137566e+01   4.070800872940e+01  -4.966088264669e+01 
1 -8.932165059324e+00  -5.440858803726e+01  -5.583183170394e+00 
1 -2.015605716725e+01  -3.841839608196e+01  -1.520181933459e+01 
1  7.105287419453e+00  -3.899896123875e+01  -3.059971942870e+01 
1  5.684516820823e+01   4.279048673565e+01  -1.225707180108e+01 
1 -3.635051319086e+01  -6.054590979860e+01   5.781848968126e+01 
1 -1.276782724947e+01   1.106683044376e+01   2.103205663075e+01 
1 -2.503549313399e+01  -2.696213644795e+01  -3.519088318941e+00 
8
Step 2300
1 -3.524968755016e+00   5.410145447790e+01   6.283963104507e+00 
1 -2.229381602550e+01  -2.864314622690e+01  -1.436933620935e+01 
1 -2.650372492030e+01  -4.372236633932e+01  -8.035303661241e+00 
1  4.964552483323e+00  -3.207659972610e+00  -3.752247319225e+01 
1  3.574157499191e+01   2.329818543469e+01   1.533424199530e+01 
1 -5.961114696219e+01  -7.821760140940e+01   6.643088538702e+01 
1 -3.773938372036e+00   7.083528626015e+01  -8.661926493213e-01 
1 -1.141934506430e+00  -3.062782708361e+01   3.479808591446e+01 
8
Step 2400
1 -2.910859941732e+01   6.276075339589e+01   6.384090649321e+01 
1 -2.078211398355e+01  -4.567883947876e+01   1.435590456458e+01 
1 -3.569910494791e+01  -4.898165870547e+01   3.792735542746e+00 
1  6.214106223650e-01   6.415163917981e+01  -9.267124226773e+00 
1  1.973011781271e+01  -2.262997102050e+01   1.762074485726e+01 
1 -5.591860444254e+01  -4.128672092544e+01   4.032933084435e+01 
1  2.573732628638e+01   8.853216845567e+01   5.909916946992e+00 
1  3.215146266972e+01  -2.159045246839e+01   2.352828881312e+01 
8
Step 2500
1 -4.735084087848e+01   5.774323789964e+01   6.050646725833e+01 
1 -2.445783906888e+00  -6.140258803753e+01   5.227551809522e+01 
1 -1.270943911133e+01  -1.690201789082e+01  -3.327543339817e+01 
1 -1.671016054367e+00   6.958002871344e+01   2.580476349154e+01 
1  1.695806683809e+01  -3.785865201000e+01   2.975835968218e+01 
1 -5.748304265732e+01  -1.074069449617e+01   2.636497248195e+01 
1  4.095896793383e+01   5.079043668570e+01   3.841673426554e+01 
1  2.340910524222e+01  -1.715901140927e+01  -1.751447835259e+01 
8
Step 2600
1 -1.998893058805e+01   4.010778828374e+01   1.471185068656e+00 
1  2.402031209321e+00  -8.715526153600e+01   6.829532696014e+01 
1 -4.196532876724e+01  -1.988828997904e+01  -5.252478637708e+01 
1  1.154732037546e+01   7.362965639114e+01   4.128659030650e+01 
1  1.128247507922e+01  -2.702367584483e+01   2.622485101501e+01 
1 -4.298908315930e+01   1.544913295587e+01   1.951951582130e+01 
1  3.084348138598e+01   3.963276478976e+01   4.920748903241e+01 
1  3.669769915392e+01   3.556325828897e+01  -6.472827660475e+01 
8
Step 2700
1  1.552818113739e+01   4.786005259119e+01  -4.176884768605e+01 
1  2.233529711062e+01  -7.714241615668e+01   3.359738695839e+01 
1 -2.769812998870e+01  -7.896747188200e+00  -3.646336841600e+01 
1  1.155477171834e+01   6.043495313176e+01   1.402903263992e+01 
1 -2.742166307691e+01  -4.426446581712e+00  -1.395435608673e+00 
1 -4.624515736737e+01   6.356322890069e+01   2.226916218083e+01 
1  4.415804464938e+01   4.128382350354e+00   1.073619386766e+01 
1  3.093746250088e+01   2.424021175479e+01  -6.823191199471e+01 
8
Step 2800
1  1.804985149038e+01   5.331640717309e+01  -2.211730462951e+01 
1  1.907814649060e+01  -4.299295469496e+01   1.985287035361e+01 
1 -3.093045714144e+01  -8.705535954988e+00  -1.857246388321e+01 
1  3.104409765906e+00   6.512495348220e+01  -5.846239714231e+00 
1 -1.063567303092e+01   9.454077487177e+00  -5.048885654475e+01 
1 -3.256163332387e+01   8.133162206115e+01   2.337084807088e+01 
1  3.947723819138e+01  -3.045531666202e+01  -1.901058329685e+01 
1  4.412863654687e+01  -1.161459718371e+01  -3.546175828227e+01 
8
Step 2900
1  2.217551876427e+01   5.653184717164e+01   2.849152242427e+01 
1  2.118234661118e+01  -8.281029053282e+00   3.214333481962e+01 
1 -7.379225319422e+01  -3.345165381838e+01  -4.431265210034e+01 
1 -2.573202368690e+01   4.098334062939e+01  -5.132814066833e+00 
1 -3.177361060030e+01   1.234031900718e+00  -4.538671029614e+01 
1 -5.335345161022e+01   9.245570117797e+01   4.291508801524e+00 
1  1.130107044338e+01  -6.121430710564e+01  -6.378386260124e+01 
1  9.467059022816e+01  -7.241489472075e+00  -4.174946421485e+00 
8
Step 3000
1  5.873134550837e+01   6.012198717160e+01   4.079456987267e+01 
1  1.314300246602e+01   2.715415577723e+01   2.640677036286e+01 
1 -5.802573541116e+01  -2.204270989610e+01  -5.354500470552e+01 
1 -4.097269852978e+01   1.555485944088e+00   3.383579495335e+01 
1 -3.424121347812e+01  -1.193011710295e+01  -4.239535620412e+01 
1 -7.591962568985e+01   5.060124641705e+01   1.650918696677e+01 
1 -2.024720411807e+01  -7.585554373335e+01  -4.639911433436e+01 
1  9.799475331235e+01   2.671527943039e+00  -2.291418972606e+01 
8
Step 3100
1  7.791830066274e+01   4.685039464124e+01   2.149802856010e+01 
1  9.244415336641e-01   2.288102170804e+01   1.184521845030e+01 
1 -3.835071326261e+01  -3.269904494135e+01  -2.851761217189e+01 
1 -4.061575853163e+01   5.405407111726e-02   5.065248965206e+01 
1 -1.840031812580e+01   7.501689034433e+00  -4.131755509294e+01 
1 -7.237125268676e+01   2.436590151960e+01   3.603113254263e+01 
1 -3.353243198572e+01  -8.064719904574e+01  -3.611164050818e+01 
1  4.654554890459e+01   2.534688479996e-01  -4.158064065371e+01 
8
Step 3200
1  7.114359756478e+01   1.956829410804e+01  -1.070399174812e+01 
1  3.178330951059e+01   1.192850125957e+01  -6.755543621431e+00 
1 -3.826778036276e+01  -5.906813553502e+01   1.540334085236e+01 
1 -1.839822505515e+01   4.252055915660e+01   5.358488112116e+01 
1 -1.676792091127e+01   3.658095077637e+01  -3.073705695331e+01 
1 -6.925779740408e+01   1.731714917969e+01   8.228616290402e+01 
1  2.225545274405e+00  -6.540021865451e+01  -2.364605009179e+01 
1 -5.593528313574e+00  -3.810133089143e+00  -6.511490058806e+01 
8
Step 3300
1  3.866463079065e+01   4.632646710577e+01  -9.050881820708e+00 
1  4.428563964562e+01   1.759837512646e+01   2.858934360834e+00 
1  8.413142504698e-01  -5.322911938423e+01   1.418182321001e+01 
1 -2.188624735810e+01   4.923939283192e+01   4.849737361644e+01 
1 -5.910312877374e+00   3.175640662894e+01   2.769167345290e-01 
1 -3.605896585427e+01  -1.319215529393e+01   6.227432413961e+01 
1  2.763731954816e+01  -4.337811845881e+01  -2.785731873980e+01 
1 -6.688554778082e+01   2.191856145434e+01  -4.937113615115e+01 
8
Step 3400
1 -3.412772390676e+00   4.008489284003e+01   9.298846425400e+00 
1  4.687430592029e+00   1.850615090652e+01   1.888673842486e+01 
1  3.478215464300e+01  -3.284179358549e+01   1.000570298989e+01 
1 -4.284428684793e+01   1.070311340569e+01   2.796443879321e+01 
1  8.248094420190e+00   2.223111703945e+01   1.629783217976e+01 
1 -4.940736590549e+00  -4.167415457964e+01   6.729617928544e+01 
1  4.655275555055e+01  -2.926752152187e+01  -4.103366215113e+01 
1 -9.257209902385e+01   4.573417630190e+01  -5.274396160364e+01 
8
Step 3500
1  1.853546626173e+01  -1.767726041929e+01   2.790252737251e+01 
1 -1.200430201727e+01  -1.103733596551e+01   1.726370372796e+01 
1  2.171748532925e+00  -2.785659062668e+00   6.086002717908e+00 
1  2.539201375736e-01  -2.088067931053e+01  -6.487403033328e+00 
1  2.401738915027e+01   1.828604485182e+01   3.388157007668e+01 
1  2.580260637453e+00   5.384388370106e+00   5.020487611626e+01 
1  3.080224545489e+01  -7.979478877765e+00  -3.471539305161e+01 
1 -6.101019957460e+01   5.844481274722e+01  -7.652815695296e+01 
8
Step 3600
1  2.704877253480e+01   1.303755655030e-01   3.490411926868e+01 
1 -2.338376572995e+01  -6.582111678193e+00   1.903194421063e+01 
1 -6.588485773678e+00   5.220413046321e+00  -3.760983732003e+01 
1  1.803708961464e+01  -3.808663094195e+01   2.691002923378e+01 
1  1.861681022306e+01   2.060665515116e+00   3.991638285135e+01 
1  5.930767565091e+00   3.488760158644e+01   2.602992578862e+01 
1 -2.934801853472e+01  -9.734421275948e+00  -2.270072708982e+01 
1 -4.005850607769e+01   1.807704612711e+01  -3.996727578284e+01 
8
Step 3700
1 -1.790073357397e+01  -6.491544668863e+00   4.165213050894e+01 
1 -2.996850667303e+01  -4.591899380523e+00   4.153346224430e+00 
1  2.081883727808e+01  -9.871540819949e+00  -5.001421597201e+01 
1  3.974582030343e+01  -2.753283329865e+01   6.091614579146e+01 
1  5.198782464049e+00  -4.737765386577e+00   1.405482307072e+01 
1 -8.260841363283e+00   4.440497677246e+01   3.092292515578e+01 
1 -1.620873501095e+01  -7.188973409853e+00   4.998489152067e+00 
1 -2.312206085248e+01  -6.647943606264e+00   2.196555088214e+01 
8
Step 3800
1 -2.692724918096e+01   3.446546705425e+01   2.707890789256e+01 
1  4.891813922432e+00  -3.418455366322e+00   1.104668582151e+01 
1  3.547254824744e+01  -3.983802273208e+01  -3.582913237401e+01 
1  4.301761054696e+01  -4.329363494053e+01   1.958190753130e+01 
1 -1.549458134253e+01   1.330981126915e+01   1.475478692101e+01 
1  8.693168332942e+00  -4.191366067015e-01   3.019948216227e+01 
1  9.161363913891e+00   1.713002955285e+01   3.473046284388e+01 
1 -3.281933642564e+01   2.650924884396e+00   4.208718479031e+01 
8
Step 3900
1  8.933936885181e+00   1.838899367904e+01   1.836187805175e+01 
1  7.677207300403e-01   1.453531813653e+01   2.720326545151e+01 
1 -1.361815088082e+01  -2.980734395676e+01  -1.576063095613e+01 
1  4.001214556254e+01  -3.393772988682e+01  -2.045176931676e+01 
1 -8.478267884012e+00   1.353545775923e+01   2.463325122989e+01 
1  1.687247247043e+01  -2.978771122228e+01   2.846701713717e+01 
1  5.196578529285e+00   1.097900550403e+01   4.347918696629e+01 
1 -2.630839231130e+01   6.060815334876e+00   2.797712824631e+01 
8
Step 4000
1  4.508205070873e+00   2.837358431651e+01   3.414912987337e+00 
1  6.331901156046e+00   3.130967097510e+01   2.328497436305e+00 
1 -4.539337486278e+01   1.986542048010e+00  -1.307802915519e+01 
1  2.482389253347e+01  -2.352202142578e+01  -7.315944708451e+01 
1 -7.709736174264e+00  -1.336835520733e+01   4.435208811481e+01 
1  4.197389477121e+01  -3.622904138433e+01   3.985195602730e+01 
1 -1.415745179536e+00   2.093562119496e+01   9.323974034111e+00 
1  1.589019658360e+00  -6.380062908980e+00   7.921269297153e+00 
8
Step 4100
1 -1.042822457879e+01   1.743039431182e+01   1.464279359641e+01 
1  1.320773670864e+01   2.060262802779e+01   4.527849004701e+00 
1 -6.262716251235e+01   2.987652070134e+01  -1.784071346113e+00 
1  1.393083687075e+01   9.170686429095e+00  -5.691837798400e+01 
1  1.340679210689e+00  -1.093417877639e+01   3.409087275451e+01 
1 -1.547539923249e+00  -1.941399167486e+01  -4.909876202919e-01 
1 -1.916193721463e+01   3.177159486644e+01  -2.955572970469e+01 
1  1.626049207342e+01  -3.327769582596e+01  -1.188028846184e+01 
8
Step 4200
1 -2.522330806800e+01  -1.015729566267e+01   3.797256248967e+01 
1  4.798487104989e+01   1.337256173787e+01  -1.261044955714e+00 
1 -7.681692349409e+01   3.466422181333e+01   5.463197227161e+00 
1  1.974919939734e+01   3.794943709244e+01  -6.543095353353e+00 
1  3.414971869063e-01  -2.760665184270e+00   1.977443114089e+01 
1 -1.677606545501e+01   6.084332551493e+00  -2.036022924349e+01 
1 -7.301988270127e+01   3.003071846754e+01  -4.810782176705e+01 
1  1.517252500523e+01  -1.314782509570e+01  -3.803994288376e+01 
8
Step 4300
1 -9.065914905459e+01  -4.602132912038e+00   4.551785614743e+01 
1  6.649715211885e+01   4.115820968368e+01  -6.446543352442e+00 
1 -8.618728329087e+01   3.077074780315e+01   8.325113831921e+00 
1  3.461058461448e+01   2.179518826729e+01   2.792262438932e+00 
1 -7.764156430494e+00  -4.257061919606e+00  -1.024376888114e+00 
1 -7.722210782008e+00   8.757713492172e+00  -5.521403638414e+01 
1 -7.481699793314e+01   1.505646510730e+01  -5.514859067502e+01 
1 -5.873141489415e+00  -1.437922216816e+01  -5.106375660012e+01 
8
Step 4400
1 -7.704311196781e+01   5.306249799662e+00   5.311373392859e+01 
1  5.670201373152e+01   6.898307793546e+01  -7.506134875390e+00 
1 -9.870583245104e+01   4.868883712703e+01   4.858273373241e+01 
1  6.206462385650e+01   2.597111093368e+01  -1.753237979654e+01 
1 -1.524456598832e+01   3.964997814667e+01  -1.221594029684e+01 
1 -1.432375456294e+01   3.253300288550e+01  -6.275721045620e+01 
1 -2.058248523598e+01   7.363518116242e+00  -5.570375432947e+01 
1 -2.998476126898e+01   3.256434765058e+00  -3.538594031480e+01 
8
Step 4500
1 -2.999661795749e+01  -2.371344340136e+00   6.128048652869e+01 
1  2.227591944083e+01   1.127723263535e+01   6.589559448132e-01 
1 -1.066888892072e+02   5.248685829002e+01   4.209579724505e+01 
1  8.440190939301e+01   2.390769520348e+01  -1.252658172811e+01 
1 -3.621436032019e+01   4.991127508580e+01   2.041301530135e+01 
1  9.193138050271e+00   6.306009403585e+01  -4.553642644161e+01 
1  2.593998911174e+01   7.114733663780e+00  -3.196603721722e+01 
1 -4.429286318344e+00  -7.328193222914e+00  -4.826527319231e+01 
8
Step 4600
1 -7.235245471651e+00  -1.116259277965e+01   6.721638878184e+01 
1  1.786605763584e+01  -1.599820302521e+01   2.785073122497e+01 
1 -1.083458157796e+02   3.476166040948e+01   3.018369688455e+01 
1  4.211465767447e+01   3.723934838356e+00  -1.141665851035e+01 
1 -5.777058729299e+01   5.453667183486e+01  -7.809766688033e+00 
1  2.963158167705e+01   6.900468736747e+01   1.187563458396e+01 
1  2.981650344016e+01  -2.144141062152e+00  -9.223115137216e+00 
1 -2.866070542098e+01  -5.386548757517e+00  -7.085416622267e+01 
8
Step 4700
1 -3.545030398369e+01   1.099594228057e+00   2.003185327974e+01 
1  7.222710891206e+00  -2.055498496130e+01   5.154091864424e+01 
1 -8.863286167149e+01  -6.023190222561e+00   2.271209240795e+01 
1  1.803327820391e+01  -1.019574165993e+01  -1.009355064429e+01 
1 -2.349330457602e+01   7.126294684245e+01  -1.485745598777e+01 
1  1.044979348701e+01   4.170940783453e+01   3.976802019854e+01 
1  3.789348189252e+01   2.194080187383e+01   4.258437204855e+01 
1 -3.911126350237e+01  -2.993871593756e+01  -6.241830854954e+01 
8
Step 4800
1 -3.191127683721e+01   2.783474523022e+00  -1.570006952436e+01 
1 -6.689149469803e+00  -4.493102163879e+01   7.273308313836e+01 
1 -6.582805074927e+01  -2.992683987735e+01   3.518748717239e+01 
1  8.316598696320e+00   1.141917810196e+01   1.721663076509e+01 
1 -1.811451833791e+01   7.627986005007e+01  -5.222912397143e+01 
1  1.814296278858e+00   1.197942817293e+01   2.068673596016e+01 
1  1.827676116631e+01   2.978666020791e+01   6.669342743987e+01 
1 -2.756400227776e+01  -4.223142188797e+01  -4.037063770305e+01 
8
Step 4900
1 -3.475592686317e+01   1.246345105423e+01   1.649447204963e+01 
1 -2.238830625671e+01  -4.089937165921e+01   5.921911827239e+01 
1 -7.357132955981e+01  -3.485917205883e+00   3.580022923395e+01 
1 -2.001682121058e+01   4.077078905897e+01   9.201993304983e+00 
1  9.240150451942e-03   6.480737761049e+01  -7.157835525099e+01 
1 -2.767997734652e+01   9.226035543639e+00  -2.470151442314e+01 
1 -8.562295228011e+00   1.089309677178e+01   4.819078881404e+01 
1 -2.955098711671e+01  -5.127074926165e+01  -2.417912382148e+01 
8
Step 5000
1 -1.672668274472e+01   3.420890808909e+01   5.834118455827e+01 
1 -1.539893673684e+01  -4.169725308044e+01   2.127215458608e+01 
1 -6.519124912981e+01   4.518900594252e+00   3.808573737174e+01 
1 -6.080759499825e+01   6.327180415310e+01  -4.775559765252e+00 
1  1.792648783307e+01   7.466482197802e+01  -6.410800337640e+01 
1 -4.167257599336e+01   2.030982581864e+01  -3.420752071073e+01 
1  2.488852104076e+01  -1.242264310374e+01   2.949036980180e+01 
1 -5.904126772042e+01  -5.963822865781e+01  -4.057037249944e+01 
8
Step 5100
1 -2.455874393878e+01   5.202693441010e+01   3.351993216014e+01 
1 -4.150047945900e+00  -2.218859010763e+00   4.095774574504e+01 
1 -6.315962395614e+01  -1.379203751465e+01   4.379420498436e+01 
1 -3.808468648324e+01   2.727723257632e+01  -2.569974532226e+01 
1  1.978294168680e+01   7.697198155299e+01  -2.860279008178e+01 
1 -2.165221213494e+01   1.408360823649e+01  -4.790846105172e+01 
1  3.483063179991e+01   9.270343861481e+00   2.489693778682e+01 
1 -5.765862767290e+01  -5.067363681546e+01  -6.531378785166e+01 
8
Step 5200
1 -1.381665388818e+01   2.804910267904e+01  -1.685745342862e+00 
1 -3.160600176825e+00   2.501882483831e+01   4.905287004987e+01 
1 -5.576115523825e+01  -3.051874008063e+01   2.808753674110e+01 
1  1.432034903690e+00   9.301883075339e+00  -1.518335997209e+01 
1  2.351487028033e+01   5.866419849013e+01   9.516416362243e+00 
1  2.000159990167e+01  -3.383159179527e+01  -4.611902635834e+01 
1  1.430247861937e+01   1.509905491660e+01  -1.030536895358e+01 
1 -5.166251680942e+01  -1.393509393429e+01  -5.301703391508e+01 
8
Step 5300
1  1.775947663277e+00  -9.035120714949e+00   4.400874943263e+01 
1 -2.811533021794e+01   3.001816024431e+01   2.391156564267e+01 
1 -3.411052255835e+01  -5.574063383954e+01   1.426859941454e+01 
1  4.020109069236e+01   4.654723156270e+00   3.122200351311e-01 
1  2.397894836737e+01   3.102715768019e+01   3.517921990483e+01 
1  4.466008005587e+01  -3.772836968540e+01  -1.445704345674e+01 
1  8.851423670522e-02   7.947756378987e+00  -1.011070414459e+01 
1 -2.993657801707e+01  -1.587382448464e+01  -1.229898991382e+01 
8
Step 5400
1  5.406757033499e+00  -2.456408761207e+01   6.882359317502e+01 
1 -3.617779177705e+01   5.543502394210e+00   4.931925721055e+00 
1 -8.488984804299e+00  -6.337853301022e+01  -1.657933725349e+00 
1  5.308646341148e+01   2.103295858114e+01   1.324099762741e+01 
1  7.983278011771e+00  -1.826539058602e+01   5.040895611331e+01 
1  5.073223975601e+01   1.332064039260e+01   2.935359630047e+01 
1  3.014801431179e+01   3.953695983690e+00  -2.649659880024e+00 
1  5.056850586541e-01  -3.458631805546e+01   2.226337180935e+01 
8
Step 5500
1  3.568894120419e+00  -2.872515854499e+01   2.031557558881e+01 
1 -3.257231424836e+01   1.899213545474e+01   1.889236466531e+01 
1  1.468257702053e+01  -2.247220339373e+01  -2.691088962540e+01 
1  2.753818070159e+01  -1.354740767721e+00   2.140115889601e+00 
1  2.168215691912e-01  -3.774923715678e+01   4.471676010036e+01 
1  5.603500166802e+01   3.581529930531e+01   4.364244005060e+01 
1  8.141512397127e+01  -1.407999203878e+01   4.751649594250e+00 
1  1.283472264201e+01  -3.616650757542e+01   6.996417314926e+00 
8
Step 5600
1  3.451557249898e+01  -5.488235412791e+01   1.259415191558e+00 
1  4.231856141701e+00   1.750368058253e+01   9.102288415873e+00 
1  2.686104458906e+01  -1.148079573157e+01  -4.638652660945e+01 