8
Step 0
1 -2.158830235783e+02  -3.142408652792e+02   1.167810667624e+02 
1  3.296897109744e+02  -5.507807655964e+02   2.693926396295e+02 
1 -2.669372731777e+02  -5.431606441563e+02  -6.222014149850e+01 
1 -3.552929618605e+01  -4.177581202499e+02  -5.317095545143e+02 
1  6.240102309409e+02   4.422151443761e+02  -5.955950649110e+02 
1  2.819999597600e+02  -3.673184511150e+02   2.540559007329e+02 
1  8.371624351045e+01   3.742086875642e+01  -2.962222465916e+02 
1  3.559014991594e+02   1.441370710462e+02   6.379664327236e+02 
8
Step 100
1 -2.279493673982e+02  -2.257815747077e+02   1.679564057036e+02 
1  2.546735347336e+02  -3.235195392864e+02   1.370632228602e+02 
1 -3.488266761901e+02  -3.342868851819e+02  -6.926543977370e+01 
1  7.794569136177e+01  -2.562709259181e+02  -4.300806782216e+02 
1  4.323801481507e+02   4.309754514564e+02  -3.344403405809e+02 
1  1.904888676807e+02  -1.472012528607e+02   1.291903054990e+02 
1 -8.078444915025e+00  -4.041321778492e+01  -2.687406640569e+02 
1  3.492370600693e+02  -5.504189359898e+01   4.489286979237e+02 
8
Step 200
1 -1.706604426255e+02  -1.146144392137e+02   1.913760757950e+02 
1  1.268582431375e+02  -3.298415503176e+01  -5.404294004854e+01 
1 -3.537192768024e+02  -1.059118709608e+02  -8.786282921089e+01 
1  1.903386783538e+02  -2.441409989078e+01  -2.831533657992e+02 
1  1.583726803178e+02   3.738028285073e+02   2.603341328692e+01 
1  5.467373456190e+01   1.431736201757e+02  -1.128134399207e+01 
1 -8.724859058060e+01  -9.316051836582e+01  -2.136437504437e+02 
1  3.184136065324e+02  -2.942169193565e+02   1.578642098777e+02 
8
Step 300
1 -5.623956818567e+01  -6.450150044536e+01   1.368555654803e+02 
1  1.656865009081e+01   4.115221931903e+00  -1.098701912560e+02 
1 -2.084570123304e+02  -6.301023170464e+01  -8.291685809933e+01 
1  1.732621421475e+02   4.194884331992e+01  -1.881039799907e+02 
1  3.462531258596e+01   2.724783716593e+02   9.492186779112e+01 
1  1.061967761931e+01   1.941972489198e+02  -2.222111256897e+01 
1 -9.864704336400e+01  -8.140772510840e+01  -1.599979653410e+02 
1  2.648998712422e+02  -3.334173724103e+02  -1.071708201391e+00 
8
Step 400
1  1.800932265825e+01  -7.515663250324e+01   7.918474132614e+01 
1 -3.374922013793e+01  -6.800120720521e+01  -5.356143920226e+01 
1 -6.013624329032e+01  -7.635487879837e+01  -6.621781191876e+01 
1  1.101068071537e+02   3.024201399613e+01  -1.496335968495e+02 
1  7.233551987354e+01   1.853685597420e+02  -1.229398822014e+01 
1  1.689928576212e+01   1.031325857512e+02  -9.772174419003e+00 
1 -1.202705151362e+02  -2.310202146837e+01  -9.504541938450e+01 
1  2.015247568035e+02  -2.294508434599e+02  -9.341459764831e+00 
8
Step 500
1  4.097660814933e+01  -8.153542699357e+01   6.556839030059e+01 
1 -1.758563162440e+01  -1.137208413200e+02  -1.875101801648e+01 
1  3.936393476684e+01  -7.528524647767e+01  -3.469737881078e+01 
1  6.607517559976e+01   1.973284441230e+01  -1.376409468885e+02 
1  1.061654952917e+02   1.148945201631e+02  -5.730256733838e+01 
1  3.366047627576e+01   3.335236243495e+01  -3.705948884344e+00 
1 -9.419561372503e+01   3.313175537669e+00  -2.419417810582e+01 
1  1.055885675311e+02  -1.064555886536e+02  -3.103354122874e+01 
8
Step 600
1  2.788347954099e+01  -8.108463484799e+01   7.424838714799e+01 
1 -4.932230718574e-01  -1.025287200838e+02   8.134867119081e+00 
1  5.434183941525e+01  -4.259519569079e+01  -6.169898714846e+01 
1  3.574653756666e+01  -8.585714031169e+00  -1.233892617112e+02 
1  8.856934173236e+01   9.592322407404e+01  -8.228627097091e+01 
1  2.494436993117e+01  -1.087075756452e+01   1.526716098692e+01 
1 -4.712537399112e+01   3.129286463144e+00   9.789526394223e+00 
1  2.958955134315e+01  -1.891919879070e+01   2.617347854410e+00 
8
Step 700
1 -1.465089168706e+01  -7.405474269488e+01   6.515691642219e+01 
1 -1.649298774493e+00  -7.132923464983e+01   3.469252488725e+01 
1 -5.991395368537e-01  -9.044314708225e+00  -6.630846405361e+01 
1  3.217214267774e+01  -2.761080827230e+01  -1.137889229678e+02 
1  7.658136428461e+01   8.011016310607e+01  -7.645716226343e+01 
1  3.744342136998e+00   5.212698780944e+00   4.476727048843e+01 
1 -1.536780171238e+01  -1.288759369881e+01   2.825378457523e+01 
1  8.664506971620e+00  -9.669250383554e+00   1.030663842128e+01 
8
Step 800
1 -5.375889235112e+00  -3.884443793157e+01   3.239825609790e+01 
1 -9.786459801976e+00  -5.918597569549e+01   2.531604586037e+01 
1 -4.978128101667e+01  -8.227794182639e+00  -3.075354330981e+01 
1  4.262681746387e+01  -2.831494159364e+01  -6.837755725080e+01 
1  7.111911350406e+01   6.564041246840e+01  -3.911335057438e+01 
1 -3.506482634758e+00   1.916476384820e+01   4.164405508567e+01 
1 -5.041899867502e+00  -7.165059180488e+00   6.330815114634e+00 
1 -1.631061203786e+00  -2.192174537546e+01  -1.556813250865e+01 
8
Step 900
1  2.472746970706e+01  -6.546735545099e-01   4.201057200568e+01 
1  1.358115255496e+01  -2.237017498540e+01   2.878216344732e+01 
1 -6.616632454095e+01  -7.560578188089e+00   1.605963770883e-01 
1  6.484358312672e+01  -1.315053225703e+01   1.331409744906e+01 
1  6.497839835908e+01   6.090055828627e+01  -4.270958637364e+01 
1  1.235734965258e+01   4.580936351398e+01   5.518850590854e+00 
1  3.540863740944e+01   2.731156107079e+00  -1.043806028964e+01 
1 -3.218461289527e+01  -3.039131320066e+01  -1.064164451469e+01 
8
Step 1000
1  4.163870155175e+01   4.586905780619e+00   4.542741379731e+01 
1  2.159698094388e+01   2.183514611977e+01   2.695768318778e+01 
1 -5.798526284596e+01  -1.292744192751e+00   1.819961332706e+01 
1  5.384675571927e+01   5.346211764703e+00   3.815974929581e+01 
1  4.377621103920e+01   1.329442836377e+01  -5.036319932657e+01 
1  4.136126006318e+01   4.983040312755e+01   1.385924638720e+01 
1  6.079922721777e+01   1.904878568320e+01  -2.522258277857e+00 
1 -2.455963143433e+01  -1.410120980810e+01  -1.886945065130e+01 
8
Step 1100
1  5.868984617617e+01   2.744324845503e+01   5.445904123973e+01 
1  2.193088722247e+01   1.291334406776e+01   8.426327554309e+00 
1 -4.141986563072e+01  -3.220823708603e+00   2.675225791379e+01 
1  5.663941594616e+01   1.016096424639e+01   3.588582341694e+01 
1  4.382349705295e+01  -1.549710681732e+01  -5.841793567191e+01 
1  3.410879010054e+01   1.802802399145e+01   3.486919969268e+01 
1  2.316967867415e+01   4.161838718908e+01  -1.905542506358e+01 
1 -2.605528253748e+01   1.341595709524e+01  -1.750504424610e+01 
8
Step 1200
1  4.401147823205e+01   2.246766820168e+01   9.353125888469e+01 
1  5.617931445283e+00   2.539286657530e+01   4.251242450810e+00 
1 -4.013289411601e+01   3.218097495605e+01   3.678429927334e+00 
1  9.993140801808e+00   4.357439075659e+00   3.052226869983e+01 
1  5.243943358039e+01  -6.537443893536e+00  -6.532675696875e+01 
1  1.349075604257e+01  -2.095362067415e+01   3.676661939888e+01 
1  8.020889343961e+00   5.250837870815e+01  -3.265084387939e+01 
1 -4.408093031439e+01  -1.513737670061e-01   4.235978660553e-01 
8
Step 1300
1  2.506499070391e+01  -1.351835904040e+01   9.742841265194e+01 
1 -4.686163105117e+01  -8.986098815239e+00  -1.407828262409e+01 
1 -3.140692856283e+01   8.763225556022e+00  -7.399202475008e+00 
1 -1.711040132902e+01  -4.846297061863e+00   3.186165777626e+01 
1  4.410577521297e+01   2.839904068369e+01  -4.063895037081e+01 
1  9.739325344643e+00  -1.080105546631e+01  -3.891341697094e+00 
1  1.954400103539e+01   4.091561779176e+01  -3.576585517319e+01 
1 -4.511882689796e+01  -7.484245756054e+00  -2.632033876884e+00 
8
Step 1400
1  4.796854547718e+00   3.000578317624e+01   5.648482941757e+01 
1 -5.882605048608e+01   1.643416046952e+00   7.938480924342e+00 
1 -3.334525052971e+01  -4.721272861532e+00   1.350604297735e+01 
1  2.986889855530e+00  -7.606828571399e+00   2.502197559931e+01 
1  3.055796474667e+01   2.469559131612e+01   9.530598926119e+00 
1  3.012594682007e+01  -1.175840650705e+01  -3.176200883498e+01 
1  6.983191544199e+00   1.565053841287e+01   3.932886701462e+00 
1 -3.158179676688e+01  -1.368338536373e+01  -1.921039948908e+01 
8
Step 1500
1  2.343898102997e+01   3.162954683580e+01   9.653637339449e-01 
1 -4.062452727987e+01   7.943492566600e+00  -1.245616211210e+01 
1 -6.869717195285e+01  -2.544914097510e+01   3.426184446005e+01 
1  2.964370292187e+01   1.335598605886e+01   2.031421116517e+01 
1  6.770444111784e+00   1.202315213669e+01   2.829225286396e+01 
1  3.223811627118e+01  -9.223929371500e-01  -2.931260961830e+01 
1 -1.617894312395e+01  -1.422679420286e+01   2.258382408059e+01 
1 -4.567824706714e+00  -3.577916598723e+01  -2.563146397659e+00 
8
Step 1600
1  2.850599424254e+01   3.546318946068e+01  -3.715738239266e+01 
1 -5.383497188835e+00  -1.239420222119e+01  -2.100333677842e+01 
1 -7.387120869721e+01  -5.037705025855e+01   1.704970556841e+01 
1  6.783110246655e+00   4.387508118091e+00  -1.006486743842e+01 
1 -1.850579984971e+00  -1.375450469553e+01   4.901907351410e+01 
1  4.792050857670e+00   3.453363460513e+00  -7.264521446140e+00 
1 -1.833870431398e+01  -1.681850274472e+01   8.786722456095e+00 
1 -3.429509901634e+00  -2.132962819642e+01   1.232771762870e+01 
8
Step 1700
1 -1.440509079411e+01   6.747416697214e+01  -2.092238403158e+01 
1  2.013556589299e+01  -1.631706351971e+01  -2.052489609439e+01 
1 -7.357950967419e+01  -6.772432784399e+01   4.352494443248e-01 
1 -2.107794144058e+01   1.751282264989e+01  -1.981687664452e+01 
1 -4.310636436254e+00   2.685207610991e+01   3.739733072347e+01 
1 -1.174873417347e+01  -1.062067106145e+00   5.626402441524e+00 
1  1.748465852955e+01   8.240493940639e-01   3.705753974534e+01 
1 -2.276203711789e+01  -7.227773914317e+00  -2.708969374086e+01 
8
Step 1800
1 -1.420589671731e+01   6.773497448704e+01   2.591334724940e+01 
1  2.999907492861e+01  -2.600856501289e+01   1.336364936971e+00 
1 -5.297743952706e+01  -5.767389147272e+01   2.640784734015e-01 
1 -1.982976446942e+01   8.244075032448e+00  -4.076311592679e+01 
1  4.241508612295e-01   4.943568925952e+01  -2.298349092877e+01 
1 -1.246821783127e+01   1.027007674190e+01  -1.591474773941e+01 
1  3.992541523941e+01   1.740600444750e+01   6.468721422837e+01 
1 -2.983483683289e+01   8.716430574328e-01  -5.326371292211e+01 
8
Step 1900
1  2.118824636125e+00   5.419447603825e+01   4.344591625587e+01 
1  3.526987328043e+01  -5.495676000121e-01   2.065547191702e+00 
1 -2.356298332474e+01  -5.478077368034e+01  -1.806651133636e+01 
1 -1.296846037262e+01  -2.453282330834e+01  -5.939111043865e+01 
1 -9.558282982401e+00   6.290154656116e+01  -5.349581681355e+01 
1 -1.716936961678e+00  -1.781131591171e+01  -8.200791854646e+00 
1  5.554250044235e+00   3.873249015421e+01   2.583581338243e+01 
1 -6.528800451035e+00  -6.749359621936e+00  -3.569805677292e+01 
8
Step 2000
1 -1.002873961784e+01   7.578528296498e+01   2.506453120886e+01 
1  1.154856537449e+01   9.231575655431e+00  -3.961544508215e+01 
1 -3.141321076195e+01  -3.098107445495e+01  -8.890553888642e+00 
1  5.678600428950e+00  -1.006723537115e+01  -6.027855734327e+01 
1  5.677785185332e+00   8.407072112994e+01  -3.101740176735e+01 
1  7.179047265239e-01  -4.846679939005e+01   3.089309196709e+00 
1 -2.031087694131e+01   5.828357382654e+01   9.813381742712e-01 
1  6.631684431478e+00  -9.566570535402e-01  -1.440312576327e+00 
8
Step 2100
1 -8.354861380014e+00   8.497519712331e+01   1.817588622258e+01 
1  1.894855803100e+01  -3.709371441136e+01  -3.190532910999e+01 
1 -3.573533509528e+01  -3.766180466767e+00   1.669387233947e+01 
1 -6.241735971664e+00  -1.199882857370e+01  -4.583322053774e+01 
1 -1.941362522520e+01   7.652406356550e+01  -3.311082228524e+01 
1  1.743910002503e+01  -3.572175644223e+01  -2.842226064854e+00 
1 -6.654563175636e+00   5.422093754760e+01  -1.128731426692e+00 
1  4.238575462632e+00   6.989098379782e+00   3.350838882657e-01 
8
Step 2200
1 -1.260899199899e+01   4.890713719644e+01   1.281843702265e+01 
1  3.247555015693e+01  -7.210942895251e+01  -4.144669844414e+01 
1 -9.487800811269e+00   2.669022777185e+01  -2.657157656321e+00 
1  1.311147635892e+01   1.767339365684e+01  -6.870943599722e+01 
1 -1.482652899861e+01   5.582230357798e+01  -3.665913208914e+01 
1  1.177366890725e+01  -4.065848486749e+00   1.327508167613e+01 
1  2.143379709682e+01   1.823575980079e+01   3.070912992853e+01 
1 -3.674843302083e+00  -9.180263327962e+00  -2.787850689050e+01 
8
Step 2300
1 -2.212942833735e+01   2.196675709623e+01   2.667026957131e+01 
1  2.978081674399e+01  -6.993192368471e+01  -3.108312374896e+01 
1  3.546382040271e+01   2.243541690495e+01  -2.537956913383e+01 
1  3.927889485019e+01   1.733725072410e-01  -4.282138314017e+01 
1  1.654139270717e+01   2.981084337015e+01  -4.255537915607e+01 
1 -3.421789468171e+01   3.111911708714e+01   1.603213756596e+01 
1  2.270891037576e+01  -1.250187493501e+01   3.212491508598e+01 
1 -6.151023434631e+00  -3.440685254399e+01  -2.285292764240e+01 
8
Step 2400
1 -1.297858170201e+00   1.357719324341e+01   5.189735129088e+00 
1 -1.151721756092e+01  -5.532411626497e+01  -1.882190683467e-01 
1  3.844775547531e+01  -1.089261161667e+00  -5.510730513771e+01 
1  4.954677209424e+01  -5.036916044200e+00  -1.540912703749e+01 
1  2.718584648566e+01   1.755572313533e+01  -4.494316301816e+01 
1 -3.394382962743e+01   4.740920665782e+01   1.653039071965e+01 
1  3.235349595493e+01   2.357088156921e+01   4.549638122588e+00 
1  2.826440141608e+00  -1.889069302109e+01   6.315801222785e+00 
8
Step 2500
1  1.503022709511e+01   1.695869159575e+01   2.147131061086e+01 
1 -3.279293938882e+00  -7.139839298700e+01  -3.667928727965e+00 
1  2.508134394240e+01  -1.420881762067e+01  -3.862528464680e+01 
1  2.364418896918e+01   1.268270010013e+01  -2.776219631707e-01 
1  1.330627531127e+01   1.382351458515e+01  -2.578780227625e+01 
1 -2.589344465689e+01   1.345056256373e+01   2.237753930758e+00 
1  4.474734723303e+01   6.305094219377e+01  -2.569426529809e+00 
1  1.352441588163e+01   6.430817360525e-01   2.467664590995e+01 
8
Step 2600
1 -1.252148722634e+01   5.292719687678e+01   2.468088440095e+01 
1  9.732416787119e+00  -6.957408548732e+01  -4.860721818841e-01 
1 -7.630916772818e+00  -2.894081169351e+01  -2.987361080007e+01 
1 -3.307324916755e+01   1.244226395325e+01   3.043444438028e+01 
1  2.933556859787e+01   3.473198282224e+01  -1.396204964852e+01 
1 -3.368480859198e+01   4.559829046192e+00  -9.505578690519e+00 
1  4.228915207273e+01   4.323451123296e+01  -1.368589490937e+01 
1  4.347579812043e+00  -1.708336131122e+01   4.926371397959e+01 
8
Step 2700
1 -2.684140281129e+01   4.237684065969e+01   3.766948772147e+01 
1  1.182537994843e-01  -2.734587236606e+01   2.511663948302e+01 
1 -3.104323171772e+01  -3.374343702339e+01  -2.514915052528e+01 
1 -4.026878126526e+01   9.648014264773e+00   2.727493276003e+01 
1  5.586257571934e+01   3.879990166377e+01  -1.856632500940e+00 
1 -6.901184516881e+01   3.199933898242e+01  -1.928480937961e+01 
1  5.646685740183e+01   2.432470736750e+01  -2.202252231843e+01 
1  2.081820857888e+01  -3.843962292779e+01   1.032761313433e+01 
8
Step 2800
1 -2.235078355657e+01   4.646733805797e+01   8.963721573817e+00 
1  5.235668746476e+00   5.034942155979e+00   4.007721888416e+01 
1 -4.245630393567e+01  -6.051171106937e+00   2.900752699255e+00 
1 -2.666600243541e+01   1.945097410260e+01  -1.291271994055e+01 
1  2.675304990410e+01  -7.116378837880e+00   1.278918216805e+01 
1 -9.783892539077e+01   4.557503949590e+01   2.462522079821e+01 
1  4.136209426674e+01   3.700478301050e+00  -8.908889152467e-01 
1  4.181801729029e+01  -5.683799172049e+00  -4.774302562367e+01 
8
Step 2900
1  1.876041757468e+01   4.088434814356e+01  -2.076647028969e+01 
1  3.128520439343e+01   2.258662895126e+01   3.623899723382e+01 
1 -2.644274120675e+01   2.333831123404e+01  -1.999870722776e+01 
1 -2.184677089550e+01   1.559476327113e+01  -3.048692138582e+01 
1  1.248874204365e+01  -1.897689936569e+01  -3.793760282492e+01 
1 -6.945917262334e+01   6.801300065858e+01   4.432252352150e+01 
1 -6.593134747713e+00  -3.836474375404e+01  -1.709770329360e+01 
1  5.670316025643e+01   2.365134716601e+01  -4.675963935187e+01 
8
Step 3000
1  2.172042251873e+01   2.418653667101e+01  -1.146136765842e+01 
1  3.508204515156e+01   3.174326702767e+01   4.318718498100e+01 
1 -2.678235403499e+01   2.339608685269e+00  -2.178527113822e+01 
1 -6.951948597334e+01   2.948492412778e+01  -2.646911425903e+01 
1 -1.601454415432e+01  -2.196330312537e+00  -6.002786307733e+01 
1 -5.151658708271e+01   6.138185073001e+01   2.175675371820e+01 
1 -3.147167539899e+01  -4.040097168267e+01  -1.102744837266e+01 
1  2.583572607410e+01   4.822945863305e+01  -1.810148217196e+01 
8
Step 3100
1  2.419058896886e+01  -6.955287335222e+00   1.924603585800e+01 
1  1.897189911541e+01   1.932223829852e+01   6.010768407390e+01 
1  1.249066759365e+01  -2.149640049361e+01  -2.097373007540e+01 
1 -6.392702813886e+01   2.279762132202e+01  -8.416803796935e+00 
1 -2.274427529222e+00   2.540613610334e+00  -1.446366826988e+01 
1 -3.927502069332e+01   5.296964477451e+01   2.678649084102e+01 
1 -4.412646793118e+01  -3.699102832237e+01   6.153656402872e+00 
1 -2.405423624007e+01   4.364659178028e+01   2.946229433774e+00 
8
Step 3200
1  4.362140779398e+01   3.338615900647e+01   3.700279485356e+01 
1  6.649914774165e+00   4.587839992250e+00   5.755120682351e+01 
1  3.179115940624e+01  -3.848898357684e+00  -5.200108440376e+01 
1 -4.344755182671e+01   1.596039665771e+01  -3.300372989484e+00 
1  4.052363037235e+00  -7.666080839230e+00   3.237833144640e+01 
1 -1.194892294279e+01   4.935693236115e+01   9.491464501561e+00 
1 -2.633397067402e+01  -3.526143087329e+01   1.967381031814e+01 
1 -3.784279208019e+00   4.398197890618e+01  -2.169282152901e+01 
8
Step 3300
1  5.949218740088e+01   4.650010116128e+01   2.966677466120e+00 
1  1.127577857379e+00  -1.549642821972e+01   3.990836946772e+01 
1  2.441183558716e+01  -4.806441026843e+00  -8.221588438395e+01 
1 -4.322444596756e+00   2.013118039451e+01  -1.374227624683e+01 
1  6.259288703334e+00   2.256642919644e+00   3.955411626534e+01 
1 -3.410164401562e+01   4.849244508099e+01   3.449449462355e+01 
1  1.549701977947e+01  -1.932848019966e+01   3.710540711020e+00 
1  1.745395980154e+01   2.288210938831e+01  -3.504710824734e+01 
8
Step 3400
1  5.870499207633e+01   6.001146056738e+01  -7.353529760753e+00 
1 -2.559896524160e+01  -2.447301253362e+01   3.465349521298e+01 
1 -1.137376600856e+00  -1.672741052288e+01  -7.010813539939e+01 
1  5.696962256470e+01   3.913325340283e+01   2.664884869291e+00 
1 -8.236548755612e+00   6.249199568055e+00   4.131756556494e+01 
1 -3.605079991647e+01   2.349907247989e+01   5.539624067611e+01 
1  1.902666040604e+00  -2.083159145429e+01   6.497688538380e+00 
1 -6.072504800905e+00   2.594806245640e+01  -4.614032402268e+01 
8
Step 3500
1 -9.330105374092e+00   5.937289647785e+01   1.739233631208e+01 
1 -2.884456444411e+01  -3.455065514182e+01   2.004079410788e+01 
1 -5.696795322697e+00  -3.653147876669e+01  -1.796302506186e+01 
1  7.830596597875e+01  -2.318587236320e+01   9.303018552698e+00 
1 -2.112902245484e+01  -7.429514163446e+00   3.870167975504e+01 
1 -8.921670885562e+00   1.746537770037e+01   4.222516732541e+01 
1  2.264266062422e+01  -4.373714031400e+01   1.889305494552e+01 
1 -6.951352701927e+01   3.052518150560e+01  -3.544460626506e+01 
8
Step 3600
1 -1.878973751595e+01   5.402209587007e+01   1.070950007935e+01 
1  1.238506996596e+01  -3.991010552710e+01   6.174031816010e+00 
1 -7.006637768777e+00  -2.711089699158e+01   1.567510679418e+01 
1  4.920154259521e+01  -6.535923399208e+01   8.217636382787e+00 
1 -2.700469523918e+01  -1.917344987915e+01   4.259235478548e+01 
1 -2.649002734609e+00   1.796520157027e+00   9.396032268371e+00 
1  4.302359178452e+01  -1.855298646729e+01   6.374443710649e+00 
1 -7.539968703000e+01   3.340231326800e+01  -3.161075823449e+01 
8
Step 3700
1  1.211835801113e+01   3.776293238466e+01   3.131192132216e+00 
1 -4.296156932900e+00  -5.454249120163e+00  -3.528548288939e+00 
1 -2.282399569476e+01  -2.610356819218e+01   2.906388156804e+01 
1  1.278076272422e+01  -7.713806184341e+01  -1.784148278750e+01 
1  2.322586716436e+01  -2.471011017970e+01   5.255638781869e+01 
1  1.745260175860e+01   2.455186597310e+01   7.465780276556e+00 
1  2.262231053086e+01   2.599234001860e+01  -5.953579521502e-01 
1 -3.757180060531e+01   3.575836766658e+01  -2.831387356129e+01 
8
Step 3800
1  1.589202374617e+01   2.250925575104e+01   1.042848129662e+01 
1 -3.370066588149e+01   1.481238649892e+01  -5.897214933014e+00 
1 -2.448619992168e+01   5.944019374645e-01   9.194248373724e+00 
1 -7.598609789259e+00  -7.161705058533e+01  -8.894522617208e+00 
1  2.580314480226e+01  -4.138709896636e+01   4.228413338608e+01 
1  2.999342411226e+01   4.039725080504e+01   4.312099647760e+01 
1  1.233749936139e-01   2.805902659498e+01  -1.234376104329e+01 
1 -1.524895815066e+01   3.335717361277e+00   1.472754327168e+01 
8
Step 3900
1 -3.481369827315e+01   3.022629546017e+01   1.153628266048e+01 
1 -2.982530163133e+01  -8.589089334731e+00  -5.650986910862e+00 
1 -4.942162816331e+00   1.245073657313e+01   2.327237894629e+00 
1  8.780960279897e+00  -6.791461496120e+01  -3.129872102206e+01 
1  1.336794879837e+01  -3.041435850052e+01   7.258206023346e+00 
1  1.402063213973e+01   1.313314463097e+01   5.031104539513e+01 
1  8.269993757680e+00   3.803217862900e+01  -4.323686740607e+01 
1 -3.300200031143e+01  -1.832555770355e+01   6.352763647103e+01 
8
Step 4000
1 -4.038150565281e+01   5.507359413562e+01   2.495612598236e+01 
1 -5.596150297935e+00  -1.002756847417e+01  -3.344974012917e+00 
1 -5.052904793064e+00  -1.583043400979e+01   2.344887868462e+00 
1  3.787416081723e+01  -1.474148259217e+01  -6.680228477841e+01 
1  3.006696736726e+00  -2.610636534622e+01   2.240083316041e+01 
1 -6.680107894468e+00  -1.809561975808e+01   3.153615389460e+01 
1 -9.315594923909e-01   3.724465665887e+01  -3.981146252677e+01 
1 -4.844896308894e+01  -1.959030030645e+01   1.722944671644e+01 
8
Step 4100
1 -5.654378147971e+01   3.198416949164e+01   6.668004430471e+01 
1  2.170931480564e+01   6.431990632610e+00   9.020670685364e+00 
1 -8.581360089738e+00   3.606740491617e+00  -2.324135586815e+01 
1  3.747081567968e+01   3.874626845873e+00  -6.077097600784e+01 
1 -6.294251002174e+00  -5.735019092340e+00   8.013463797557e+00 
1 -1.593288000595e+01  -6.077850262042e+01  -1.274722299523e+01 
1 -2.235920508199e+01   4.130117975257e+01  -5.076878604892e+00 
1 -2.730958689090e+01  -3.562623099604e+01  -1.706436519494e+01 
8
Step 4200
1 -7.806049792920e+01   2.525282117607e+01   9.987475245760e+01 
1  4.529595164792e+01   9.151552250412e+00  -5.854172641305e+00 
1 -1.410421059510e+01   2.615914710532e+01  -1.462582983632e+01 
1 -1.514059951947e+00   4.662226639389e+00  -7.939786456015e+01 
1 -9.928892314893e+00   3.317990829289e+01   6.357178047336e+00 
1 -1.102882659987e+01  -4.017362566436e+01  -7.614094676960e+01 
1 -1.910735715746e+00   5.268043937799e+01  -1.103426645361e+01 
1 -1.803617233918e+01  -6.059633620897e+01  -1.955167070482e+01 
8
Step 4300
1 -8.272934797190e+01  -8.344563503962e+00   6.108893653634e+01 
1  6.159808980920e+01  -1.642694581864e+01   2.086646250779e+01 
1 -4.525043695766e+01   4.807693184750e+01   8.171643497168e+00 
1 -8.953217901977e+00   6.962223425418e+00  -3.892281491267e+01 
1  5.243740431628e+00   5.080218617926e+01   1.772317087214e+01 
1  1.003621014885e+01  -1.196912366506e+01  -9.312498255413e+01 
1 -3.160809158973e+00   1.633090206316e+01  -2.165296299593e+01 
1 -7.925267667027e+00  -7.811801226794e+01  -2.232648582565e+01 
8
Step 4400
1 -7.834896115989e+01  -3.735119969526e+01   3.701235148747e+01 
1  2.835294315582e+01  -7.084799396992e+00   2.968926804770e+01 
1 -3.675980782648e+01   2.899863569916e+01  -3.180873014867e+00 
1  3.940495989108e+01  -7.892388750832e+00   1.077133772514e+00 
1 -1.820092059965e+01   5.733729971099e+01   2.532688235677e+01 
1  2.135086422866e+01   8.119396741148e+00  -5.624319571105e+01 
1  3.490765165346e+01  -6.281615829844e+00  -3.487621459534e+01 
1 -2.823339086439e+01  -6.547005544864e+01  -2.540327384619e+01 
8
Step 4500
1 -6.751969255549e+01  -1.695009750511e+01   4.252257443618e+01 
1  4.925504920602e+01   3.723373534459e+00   2.304647030235e+01 
1 -2.546589093653e+01   9.857289855339e+00  -1.089158198896e+01 
1  4.766517288277e+01  -2.862640775087e+01   2.809200963339e+01 
1 -1.245064446987e+01   5.803162057652e+01   8.174242217248e+00 
1 -3.769654912736e+00   3.372185780991e+01   4.261774298919e+00 
1  4.132181228515e+01  -2.631472986230e+01  -4.320765575405e+01 
1 -4.202327931080e+01  -6.813762133851e+01  -3.972407090296e+01 
8
Step 4600
1 -1.179923671933e+01   1.404560678080e+01   5.256020467902e+01 
1  4.252087054809e+01  -1.991839532948e+01   1.243760685356e+01 
1 -3.220799466853e+01  -1.113571227219e+01  -1.819544766655e+01 
1  6.706827613854e+01  -3.346526274010e+01   1.877312435404e+01 
1  2.616851617017e+01   5.746198846254e+01  -2.137665666026e+01 
1 -3.390313385667e+01   6.556192407193e+01   3.406132070469e+01 
1  8.669813545302e+00  -1.181278735781e+00  -2.859750386830e+01 
1 -1.235331967825e+01  -4.725982485642e+01  -4.700179830545e+01 
8
Step 4700
1  3.659335429421e+01   1.704959945429e+01   3.444756962529e+01 
1  1.693767045943e+01  -3.654711912601e+01   2.596810822025e+01 
1 -3.114040281735e+01  -3.856614197575e+00   4.317943591158e+00 
1  5.853631825118e+01  -2.176661499347e+01  -3.831474177427e-01 
1  2.923306538290e+01   5.658493531712e+01  -9.578358664859e+00 
1 -4.067951958513e+00   8.621652999934e+01   4.186134146981e+01 
1 -1.509000752753e+00   1.217418187346e+01  -3.476561454610e+01 
1 -2.724052007836e+00  -4.935103017411e+01  -3.677947697302e+01 
8
Step 4800
1  2.935649397169e+01   1.041127247795e+00   1.591156675633e+01 
1 -1.688296529843e+01  -5.394841811593e+01   2.601496930976e+01 
1 -4.136689913037e+01   1.636509001844e+01   2.476525477847e+01 
1 -1.428325548589e+01   7.319581441851e+00  -1.664889847943e+01 
1  4.412738490810e+01   7.454697354051e+01  -9.693285615354e+00 
1 -2.366869418923e+00   7.004155440666e+01   3.683928536553e+01 
1 -1.818871664204e+01  -1.507646276333e+00  -2.579380333104e+01 
1 -3.102221052193e+01  -7.623991604706e+01  -3.553313231141e+01 
8
Step 4900
1  9.890983906168e+00  -2.521715284968e+01   7.487878350720e+00 
1 -6.748711216800e+00  -5.015172508167e+01   6.896890424958e+01 
1 -2.789710192505e+01   4.701041521469e+01   5.056842175480e+01 
1 -3.459265528343e+01   4.006225255276e+01   2.450963625799e+00 
1  3.257666727206e+01   7.081270372291e+01  -1.792169861416e+01 
1 -4.953587474268e+01   4.921372655752e+01   1.432373486530e+01 
1 -8.759178100074e+00  -8.554963243953e+00   2.771609223809e+01 
1 -4.068602203676e+01  -7.347057998585e+01  -5.616946004655e+01 
8
Step 5000
1  1.072297514116e+01  -4.809813235190e+01   1.271336030799e+01 
1 -6.277555714469e+00  -3.325455517117e+01   9.514782214729e+01 
1 -5.317084234041e+01   4.512309857504e+01   5.534624376025e+01 
1 -5.379483180024e+00   6.269416964426e+01   2.655611668222e+00 
1 -2.940813571416e+00   4.141137867264e+01  -3.098627841205e+01 
1 -2.508552845113e+01   3.077826407801e+00  -1.670046923588e+01 
1 -8.262221938288e+00   2.159440411626e+01   4.166262024477e+01 
1 -6.727471985673e+01  -3.149974221519e+01  -5.183449596806e+01 
8
Step 5100
1 -3.612501424366e+00  -1.015238113312e+01   4.026250474868e+01 
1 -6.898720132579e+00  -5.776077176952e+00   8.863050946005e+01 
1 -4.230414422261e+01   6.388410164205e+01   2.795306267326e+01 
1  5.474387628303e+00   3.998193859089e+01   3.774636289218e+00 
1  1.941231938703e+01   2.228916964958e+01  -5.478707763037e+01 
1  6.249089379830e+00  -2.746513667513e+01  -4.033156525280e+01 
1  2.202118394058e+01   7.654890071122e+00   2.832130478229e+01 
1 -8.507358339492e+01  -5.485301856046e+01  -3.730549512415e+01 
8
Step 5200
1  3.640004221515e+01   2.947839235489e+01   3.311267765806e+01 
1 -3.228662977977e+01   3.790850645424e+01   9.082656203286e+01 
1 -1.933582620577e+01   4.102048418462e+01   1.137061154870e+01 
1  9.514207238995e+00   3.106575786320e+01  -4.284501614966e+00 
1  9.859747759766e+00   4.089309321068e+01  -2.656121382122e+01 
1  1.062068200680e+01   8.396481144870e+00  -2.224924924971e+01 
1  4.668676979021e+01  -6.584245435063e+00  -6.112134549489e+00 
1 -6.791578771117e+01  -6.005870538076e+01   9.428745235415e+00 
8
Step 5300
1  3.234282235743e+01  -4.543368634613e+00   8.196970540241e-01 
1 -3.165595593932e+01   4.608892007013e+01   6.348583382548e+01 
1 -1.191485030000e+01   2.017857694921e+01  -9.990921708978e+00 
1  3.918907934813e+01   2.262617422258e+01   1.595447521493e+01 
1  4.048766361695e+01   2.713227681337e+01  -3.943139640617e+00 
1 -2.230218287114e+00   2.581858862051e+01  -3.322129616925e+01 
1  7.194497265429e+01  -1.211624519325e+01  -1.856406686786e+01 
1 -3.806940427690e+01  -3.525078026529e+01  -3.610298792105e+01 
8
Step 5400
1  1.600202439213e+01  -7.753585715761e+01  -1.280061124418e+01 
1  1.217509172719e+01   4.460051596683e+01   2.989096593768e+01 
1 -2.890864707009e+01  -1.345397718032e+01  -3.998520148064e+01 
1  4.364032850656e+01  -3.911443319810e+00   2.748869164328e+01 
1  7.130099368284e+01  -1.224577666189e+01  -8.142070944458e+00 
1  4.648843753764e+00   3.302751222677e+01  -2.782632531239e+01 
1  5.967909200043e+01  -3.166587521181e+01   5.763928307750e-01 
1 -1.582400463800e+01  -3.439502149058e+01  -5.076842474433e+01 
8
Step 5500
1  2.936464068005e+00  -1.089473547494e+02   9.700177778313e+00 
1  2.999252561889e+00   4.149443976310e+01   2.424538743882e+01 
1 -6.456250279987e+00  -2.838923805660e+01  -1.708475082494e+01 
1  4.761230641966e+01  -3.091332170720e+01   4.160786361883e+01 
1  4.752276135103e+01  -2.144549184073e+01   1.200597496457e+01 
1  2.288022805492e+01   3.179041287744e+01   5.322999978757e+00 
1  4.400237410258e+01  -4.950575030038e+01   2.294053927188e+01 
1  3.810963933985e+00  -4.642837302801e+01  -3.334850666307e+01 
8
Step 5600
1  1.201519237592e+01  -5.054087598119e+01   2.499212867290e+00 
1 -2.874226790168e+01   7.073871009611e+00   4.448583185723e+01 
1  3.090463143141e+00  -1.140086115998e+01   1.196196338314e+01 