8
Step 0
1 -3.725609721510e+02   3.755376068281e+01   2.003144348063e+02 
1  2.702184259474e+02   1.940885871767e+02  -4.504086892699e+02 
1 -6.143886054221e+02   2.046284953525e+02  -4.887892839025e+02 
1  4.272190790357e+02  -2.304902992146e+01  -3.792784389004e+01 
1 -1.341709354384e+02   5.371985670023e+02   4.150598171875e+02 
1 -4.323687805359e+02   3.297703400286e+02  -6.487103398667e+01 
1 -5.531583529799e+02  -4.904936835904e+02  -6.399893603187e-02 
1  5.401589627151e+02  -6.116312495915e+02  -6.183126594955e+02 
8
Step 100
1 -3.125440404573e+02   4.363916021190e+01   1.767749974752e+02 
1  2.416510024257e+02   1.365693595044e+02  -3.931461436053e+02 
1 -5.225118700892e+02   1.242239498593e+02  -4.640806235870e+02 
1  3.634196102413e+02  -2.729465655327e+01  -5.712141094749e+01 
1 -6.065869962664e+01   4.617061510545e+02   2.979707944180e+02 
1 -3.715455019611e+02   2.539963736817e+02  -6.290425936393e+01 
1 -5.028332678624e+02  -4.146287090424e+02   1.369689849265e+01 
1  4.341567042960e+02  -5.410185846125e+02  -5.475750286991e+02 
8
Step 200
1 -2.137205364375e+02   2.643418377843e+01   1.537009434396e+02 
1  2.036113865047e+02   1.819664552753e+01  -2.189376551741e+02 
1 -3.499241530719e+02   2.077905453645e+01  -3.727517190260e+02 
1  2.624845107400e+02  -5.022238604480e+01  -7.402169682971e+01 
1  2.157754087997e+01   3.363533466232e+02   1.290517400108e+02 
1 -2.490918736748e+02   1.296624017923e+02  -4.052078503498e+01 
1 -4.098211842792e+02  -3.181792768799e+02  -6.004971147446e+01 
1  2.940679645106e+02  -4.076402929404e+02  -3.587070635632e+02 
8
Step 300
1 -1.233796188808e+02   1.468769680564e+01   1.056220444074e+02 
1  1.593192818891e+02  -7.932482074801e+01  -5.173335491163e+01 
1 -1.988008813948e+02  -5.641568052262e+01  -2.933886849458e+02 
1  1.780902507600e+02  -5.502548039420e+01  -7.651983916885e+01 
1  6.145770339230e+01   2.291586559688e+02   2.820025445970e+01 
1 -1.359078629968e+02   3.990986349347e+01  -4.102083930258e+01 
1 -3.243960335998e+02  -2.213929468089e+02  -8.929189122137e+01 
1  1.773130348097e+02  -2.871088666008e+02  -1.838840966013e+02 
8
Step 400
1 -5.005228970657e+01  -5.752742023716e+00   7.540588376809e+01 
1  1.206209290931e+02  -1.159717427984e+02   1.241727627469e+01 
1 -7.640656265776e+01  -9.678300271806e+01  -2.299650567314e+02 
1  1.126539310620e+02  -5.208349701163e+01  -8.199113896493e+01 
1  6.033756679635e+01   1.593151857814e+02  -1.838907254660e+01 
1 -8.485206210024e+01  -9.416235889910e+00  -5.757934844058e+01 
1 -2.494777397902e+02  -1.575406335868e+02  -1.133370893287e+02 
1  1.129418139847e+02  -1.902642639790e+02  -7.219261911851e+01 
8
Step 500
1 -1.867635972573e+01  -2.354021834640e+01   6.016902726986e+01 
1  1.109327886155e+02  -1.009661253880e+02   1.623515503602e+01 
1 -9.366217596541e+00  -7.639107594780e+01  -1.701818915467e+02 
1  5.748255487159e+01  -3.811998852249e+01  -7.593618601898e+01 
1  8.555688574849e+01   1.055829033146e+02  -4.780721902576e+01 
1 -7.090484517394e+01  -2.893944309462e+01  -6.388970516625e+01 
1 -1.899039362036e+02  -1.185330932226e+02  -1.069846267741e+02 
1  7.140055365408e+01  -1.273189497709e+02   1.042028312412e+00 
8
Step 600
1  7.163320709647e+00  -2.486104016346e+01   6.277251210799e+01 
1  8.784028919914e+01  -7.530803622969e+01  -1.219336245606e+00 
1  3.040787638794e+01  -5.047919123154e+01  -1.130246435166e+02 
1  1.938903167516e+01  -3.838885173392e+01  -8.627413791937e+01 
1  1.136663803363e+02   8.422091624301e+01  -4.665986098713e+01 
1 -5.359926771431e+01  -2.778531422002e+01  -4.374557496100e+01 
1 -1.564575151708e+02  -8.895959826826e+01  -7.671695943882e+01 
1  5.977795512940e+01  -1.129857684671e+02   3.838239889525e+01 
8
Step 700
1  1.393510997555e+01  -2.159062393838e+01   4.169125220403e+01 
1  5.619067852435e+01  -5.807856081040e+01  -1.002768832107e+01 
1  3.567291522323e+01  -2.122726029930e+01  -8.114753557435e+01 
1 -1.641045879649e+01  -1.919177612592e+01  -7.459914363423e+01 
1  1.183203538632e+02   8.479874812025e+01  -4.625254921584e+01 
1 -3.171236212056e+01  -2.488062098481e+01  -2.032164383436e+01 
1 -1.126740822701e+02  -8.529040893072e+01  -4.355184828769e+01 
1  4.902087805116e+01  -1.036094096408e+02   5.402216211911e+01 
8
Step 800
1  3.637719185338e-01  -2.401869696368e+01   2.851161586172e+01 
1  7.429602878114e+00  -5.386401479668e+01  -3.449989699876e+01 
1  2.086883858975e+01  -1.262723331511e+01  -5.331205416143e+01 
1 -1.817960394463e+01   9.947300308798e+00  -5.582351602500e+01 
1  1.219747342871e+02   8.858575786231e+01  -1.953828823810e+01 
1 -3.514655936491e+01  -2.448397225737e+01  -1.528201195758e+01 
1 -8.993471034822e+01  -7.075895257715e+01  -3.480376177253e+01 
1  5.215296389169e+01  -1.045766128176e+02   4.235908894446e+01 
8
Step 900
1  3.908281712191e+01  -1.352128473551e+01   2.466113510802e+01 
1 -1.444439786739e+01  -1.022936618734e+01  -4.383024882832e+01 
1  2.831912618995e+01  -3.551142821204e+00  -3.126876308707e+01 
1 -3.067191829364e+01   2.880722246126e+01  -4.125348215312e+01 
1  1.187003987977e+02   7.731145848790e+01  -7.731747783195e+00 
1 -3.836427074712e+01  -2.305754368664e+01  -2.057093036857e+01 
1 -7.152787763787e+01  -4.092462819600e+01  -2.664714965876e+01 
1  2.148320293127e+01  -1.051342925768e+02   2.749480553188e+01 
8
Step 1000
1  6.884081212786e+01   2.596297489824e+00   1.645777645972e+01 
1 -1.537252897910e+01   1.200753846474e+01  -5.619420912699e+01 
1  2.786456986032e+01   1.858548208424e+01  -4.115764066818e+00 
1 -1.976405668671e+01   2.307040655992e+01  -3.657952085013e+01 
1  1.219146418862e+02   7.631163183547e+01  -3.171454539500e+00 
1 -2.725732206683e+01  -1.383864985791e+01  -2.153920960641e+01 
1 -4.324666247538e+01   1.730217900216e+00  -1.420464730114e+01 
1  1.041898760568e+01  -8.054980606098e+01   1.163625477884e+01 
8
Step 1100
1  6.463223392493e+01  -1.185268277145e+00   2.874290523030e+00 
1 -2.522534727669e+00   1.538444985375e+01  -5.184709995987e+01 
1 -3.606709305507e+00   1.714969643270e+01   1.611205709048e+01 
1  1.385283102684e+00  -1.041405028330e+01  -4.050499153303e+01 
1  9.397260706239e+01   7.475920246130e+01   1.163096262819e+01 
1 -1.586073274808e+01   2.623610907202e+01  -7.314985507845e-01 
1 -6.157052183325e+00   4.642220323434e+01   1.146956238853e+01 
1  1.809655250551e+01  -5.750244910625e+01   5.499702445471e+00 
8
Step 1200
1  5.267486799719e+01  -6.210281404140e+00  -6.442614827027e+00 
1 -1.049930196160e+01   2.723158501367e+01  -4.118077572680e+01 
1 -1.011629160631e+01   1.778306318451e+01   3.158274420698e+01 
1  2.513043470497e+01  -1.671737392110e+01  -2.509500218477e+01 
1  8.505601696194e+01   8.532410748988e+01   2.180420089753e+01 
1  2.454420179875e+00   5.389966369366e+01   2.336271089706e+01 
1  1.575528822743e+01   4.978950864563e+01   1.080489946243e+01 
1  3.532584332755e+01  -4.862023070932e+01   1.669233095656e+01 
8
Step 1300
1  4.077132526931e+01  -1.641202591310e+00  -3.199831992228e+01 
1 -6.975396697865e+00   4.021419762166e+01  -3.367352665902e+01 
1 -2.301276527810e-01   1.770711112597e+01   3.556820786497e+01 
1  2.749951826143e+01   2.030446639256e+01  -1.169645672558e+01 
1  7.799120889682e+01   7.871783950699e+01   2.254307364268e+01 
1  1.850102614706e+01   3.889680663023e+01   2.077749367916e+01 
1  7.003274151542e+00   2.516650876997e+01  -1.909120721652e+01 
1  4.242600725484e+01  -4.917729971796e+01  -2.521414563033e+00 
8
Step 1400
1  2.553272285208e+01  -1.870276696092e+01  -3.364690710256e+01 
1  9.704846565352e+00   3.406002883731e+01  -1.815904073091e+01 
1  6.325200051053e+00   2.542948330425e+01   2.810913859413e+01 
1  2.211285920651e+01   2.622108955918e+01  -1.861557682181e+00 
1  5.966846786864e+01   5.368343713744e+01   4.629053335236e+00 
1  1.771026243318e+01   3.171015139954e+01   2.529436385282e+01 
1 -2.561224479129e+00   4.367936446250e+00  -3.968460647433e+01 
1  2.082477051100e+01  -3.154107592881e+01  -3.271074751212e+00 
8
Step 1500
1  2.042045113896e+01   4.383197850557e+00   3.843515062094e+00 
1  1.498155398306e+01   3.054261733916e+01  -8.544736187567e+00 
1  5.653475021208e+00   5.316529922019e+01   1.036865366202e+01 
1  9.997142537154e+00   5.895312274369e+00   4.872597021094e+00 
1  3.229180928294e+01   2.932174414017e+01  -1.524154971238e+01 
1  1.650888692992e+01   4.450739281819e+01   2.635378398548e+01 
1 -1.408231129291e+01  -9.167835024652e-01  -5.114196427954e+01 
1  9.582753461480e-01  -3.150019996532e+01  -5.121035702266e+00 
8
Step 1600
1  1.527700991304e+01   3.201982506969e+01   2.399310820446e+01 
1  5.224785911195e+00   3.642960718832e+01  -1.215633694270e+01 
1 -9.127007075362e+00   6.120930196808e+01   1.315834991885e+01 
1  1.550495682857e+01   7.038535347569e+00   2.251998318938e+01 
1  4.225709836210e+01   2.470824427172e+01  -3.283650610618e+01 
1  3.350998552750e+01   4.000119503870e+01   1.435684087663e+01 
1 -3.866368838135e+01  -6.048418681960e+00  -5.013107121020e+01 
1 -2.300894129691e+00  -1.869386553892e+01   3.001728612615e+00 
8
Step 1700
1  2.105746160715e+01   5.660798234015e+01   4.675054490133e+00 
1 -2.460866560046e+01   2.920037246071e+01  -1.806817921580e+00 
1 -6.558455368871e+00   4.598640307213e+01   1.981909381337e+01 
1  2.481074066673e+01   2.564760629478e+01   2.912913991696e+01 
1  3.936508323840e+01   3.990798202683e+01  -1.753153708952e+01 
1  5.487597151239e+01   4.296641406780e+01   7.547386054590e+00 
1 -4.425967154155e+01   2.207862458212e+00  -3.957482885837e+01 
1  2.288180234721e+01   2.766269896398e+01  -1.230379480614e+00 
8
Step 1800
1  2.216532644304e+01   4.688054546477e+01  -2.808543524313e+01 
1 -4.216062877250e+01   3.373989320814e+01  -3.025558068678e+01 
1 -2.701393426529e+01   1.915350832579e+01   1.595601472113e+01 
1  3.256340488761e+01   1.232211315004e+01   2.069122892348e+01 
1  4.755097075931e+00   3.879961939167e+01   1.121290406901e+01 
1  5.145405151173e+01   4.397486216541e+01   1.057518254249e+01 
1 -5.799520364140e+01   1.205477324660e+01  -8.187499958658e+00 
1  3.339493168073e+01   5.318265120119e+01  -3.159899729070e+01 
8
Step 1900
1  1.819896486001e+01   3.549348212406e+01  -4.452944098034e+01 
1 -4.600911455199e+01   2.226337184213e+01  -3.795244294743e+01 
1 -2.854295073348e+01  -1.659646050046e+01   1.477193023909e+01 
1  2.814345584272e+01   3.271816773476e-01   1.054125718958e+01 
1 -1.749260920772e+01   1.990200942487e+01   7.900062809141e+00 
1  2.769041789152e+01   2.555654633588e+01   1.389244422134e+01 
1 -5.118837281248e+01   6.829008822965e+00   1.431072428148e+01 
1  3.541648621456e+01   3.367782598504e+01  -2.556455498389e+01 
8
Step 2000
1  2.361202617442e+01   3.369769516276e+01  -3.077942418911e+01 
1 -4.470067724482e+01  -1.597482430591e+01  -1.321876936712e+01 
1 -1.904260874667e+01  -5.058955745285e+01   5.811131854009e+00 
1  4.368429092026e+01   2.137795485983e+01   1.176491166048e+01 
1 -8.726270770777e+00   3.411105179625e-01   6.252271761349e+00 
1  1.436721619283e+01   1.243816672638e+01   1.058291224102e+01 
1 -2.324850840219e+01   5.262885822912e+00   2.143562273004e+01 
1  3.882910645425e+01   1.852091069471e+01  -9.942968499575e+00 
8
Step 2100
1  3.132488650494e+01   3.672354401282e+01  -1.383954374152e+01 
1 -1.851506850358e+01  -1.106744095108e+01   2.686348656007e+01 
1 -1.067662131583e+01  -6.164038601485e+01  -5.758274521237e+00 
1  4.880735877878e+01   2.183636576209e+01  -8.324445400549e+00 
1  2.128879268822e+01  -1.353137327228e-02   3.682744392573e+00 
1 -6.288762901316e+00   1.501679009742e+01   1.473278530991e+01 
1  3.109496826899e+00   9.056747830404e+00   1.697089431475e+01 
1  3.193802327203e+01  -3.658521340264e+00  -1.254615878195e+01 
8
Step 2200
1  2.490246678326e+01   5.306812139431e+01  -9.923221511369e+00 
1 -3.153082949527e+00  -8.156246927593e+00   1.326604109657e+01 
1 -5.544863533503e+00  -5.430735897742e+01  -1.602969570463e+00 
1  5.370271224646e+01  -9.548502043346e-01  -1.460725853593e+01 
1  4.752638740438e+01   3.974437619508e+00  -1.806714308287e+01 
1 -3.107710638953e+01   4.203514261768e+00   2.560617965570e+01 
1  6.324850021020e+00   1.454695343252e+01   9.347713473023e+00 
1  1.879694068954e+01  -1.645007946821e+01  -7.245027676245e+00 
8
Step 2300
1  2.013683080257e+01   5.182493466197e+01  -1.232211227157e+01 
1 -1.329317781271e+01  -1.979456619757e+01  -4.389400012563e-01 
1 -4.986762672669e+00  -1.631174272486e+01   2.874395582513e+00 
1  5.374218637437e+01   1.432703044824e+01  -7.177003248133e+00 
1  4.388989430227e+01  -1.227659112621e+01  -1.457242202860e+01 
1 -2.665354952104e+01   1.960173113140e+01   1.225766521264e+01 
1  3.665244613324e+01  -2.025622316102e+01   2.168972210983e+01 
1  1.741588225170e+01  -1.568184339510e-02  -2.061453887418e+01 
8
Step 2400
1  2.608028077358e+01   5.108948277613e+01  -3.512219549636e+00 
1 -1.910225094683e+01  -1.968464943871e+01  -2.131441355511e+01 
1 -8.714300504039e-01   2.795682368606e+01   7.255810649281e+00 
1  3.496397525971e+01   1.850316126692e+01   9.091223647695e-01 
1  1.066374779525e+01  -2.786471657851e+01   2.207830100241e+00 
1 -2.606842965525e+01   2.385066394522e+01   2.296445542916e+01 
1  5.427494701099e+01  -5.291121651583e+01   2.506286360170e+01 
1  3.272408523225e+01   2.272261061011e+00  -2.848256186523e+01 
8
Step 2500
1  4.835817612888e+01   5.258187825400e+01  -2.887102460299e+00 
1 -2.342977620384e+01  -2.109789624999e+01  -9.271151405704e+00 
1  1.225866724958e+01   2.188408593734e+01   4.820196134536e+00 
1  7.971939265144e+00   1.583844978752e+01   4.454693985236e-01 
1 -2.587477962948e+01  -3.085760061240e+01  -6.709889872756e+00 
1 -4.706910272893e+00   1.183412753131e+01   3.465402381819e+01 
1  2.087909152294e+01  -7.877706574219e+01   1.352427378178e+01 
1  3.399172808921e+01  -9.650520534444e+00  -2.001777749111e+01 
8
Step 2600
1  5.004071565225e+01   5.369213983004e+01  -2.318431351587e+01 
1 -2.796071385664e+01  -1.099392659804e+01  -1.861519249733e+01 
1  4.134680903597e+01   9.630410662035e+00  -1.463653101051e+01 
1 -1.070309322491e+01   6.977819289570e+00   9.702789801136e+00 
1 -5.185917865675e+01  -2.751900081682e+01  -1.099715901122e+01 
1  1.246939832492e+01   2.910585253432e+01   3.381720616278e+01 
1 -4.648451922091e+00  -8.404854953343e+01   4.900931607893e+00 
1  4.905882880183e+01  -2.624568678932e+01   9.496348500866e+00 
8
Step 2700
1  5.593050939357e+01   6.471143869265e+01  -3.493181970995e+01 
1 -1.889454900450e+01   1.756276473258e+01  -2.450504295008e+01 
1  2.889068774187e+01   2.628335292112e+00  -2.069040384276e+01 
1 -3.139033056836e+01  -6.330253150355e+00   2.154125920836e+01 
1 -2.463367101925e+01  -1.495671779984e+01  -1.411108439288e+01 
1  1.597388111472e+01   4.406737874099e+01   3.458409597333e+01 
1 -2.774696988559e+01  -7.910457346739e+01   9.881766331577e-01 
1  7.559392680433e+01  -3.869712123538e+01  -5.258615254121e+00 
8
Step 2800
1  6.893432998582e+01   4.982454565451e+01  -2.225264322947e+01 
1 -2.101243670152e+00   4.073783570107e+01  -1.877357881372e+01 
1  5.701823051249e+00  -1.038720276490e+01  -5.049545107237e+00 
1 -4.802278469877e+01  -1.885159287416e+01   2.640040223908e+01 
1  1.315263959367e+00  -2.726259165491e+01   1.697963384789e+00 
1  1.894778186289e+01   3.362156851806e+01   1.882551051200e+01 
1 -2.828854750056e+01  -9.291179588071e+01   8.008720823922e+00 
1  7.629706980084e+01  -2.716817454945e+01  -3.214097016085e+01 
8
Step 2900
1  6.433697845197e+01   3.845744485917e+01  -3.000878382060e+01 
1 -8.648746656625e+00   6.835132833656e+01  -2.390304816336e+01 
1 -1.638791057479e+01  -2.610192173993e+01   3.716508576445e+00 
1 -5.320461952192e+01  -2.277650766606e+01   2.738185659041e+01 
1  1.004809313597e+01  -4.162815055679e+01  -1.906511471739e+01 
1  8.720858149577e+00   1.097846380376e+01   1.198082335304e+01 
1 -1.048549519478e+01  -7.940083463229e+01   8.959092780304e+00 
1  5.700927567684e+01   3.600461971928e+00  -5.272485250445e+01 
8
Step 3000
1  5.836419627548e+01   2.541227600755e+01  -3.038082270929e+01 
1 -1.653610231124e+00   8.956201334207e+01  -1.564457434371e+01 
1 -4.916279626083e+01  -4.557799445391e+01  -1.472361754715e+00 
1 -1.156520611682e+01  -2.960058465709e+01   1.605477799323e+01 
1  1.329716399848e+01  -4.034414559218e+01  -3.245199618756e+01 
1 -2.339714206514e+01   1.236597092400e+01   1.585294328906e+01 
1 -7.635249808159e+00  -7.114663212231e+01  -1.196190193901e+01 
1  3.648453560888e+01  -9.002401143483e-01  -4.002219749192e+01 
8
Step 3100
1  4.536232178903e+01   4.244532413152e+01  -1.554125475104e+01 
1  1.759148458565e+01   9.998023098122e+01  -4.804389597870e+00 
1 -3.316166197257e+01  -4.563862531152e+01  -6.237221518310e+00 
1  1.705892653491e+01  -4.787632779163e+01   1.901374675772e+01 
1 -1.602783750340e+00   1.799702208916e+00  -4.646416140581e+01 
1 -2.926286009804e+01   2.751090340333e+01   2.679317818075e+00 
1 -1.893909010427e+01  -6.337820491203e+01  -9.720610820300e+00 
1  2.191664976363e+01   2.941320507492e+01  -3.881401996697e+01 
8
Step 3200
1  1.548344941858e+01   2.570028129779e+01   1.602974768917e+01 
1  2.671684087968e+01   9.577821769233e+01  -6.887960582400e+00 
1  4.516198313508e+00  -2.091119541249e+01  -1.292092951059e+01 
1  8.966772807081e+00  -5.461341765125e+01   1.785137344598e+01 
1 -1.351524073054e+01   2.936229638450e+01  -5.417274035542e+01 
1 -3.217672918410e+01   3.197873128295e+01  -2.469766992979e+00 
1  4.298490845442e+00  -5.899971064032e+01  -6.543068353904e+00 
1 -4.646323505324e+00   3.343062645566e+01  -3.399351696561e+01 
8
Step 3300
1  5.914468464246e+00   2.661302682156e+01   2.918475626019e+01 
1  5.857365062222e+01   8.582865854285e+01  -9.598482887820e+00 
1  1.498709705363e+01   1.003008866750e+01  -1.690841689122e+01 
1  3.423598817625e+01  -4.506650459371e+01   8.468785684156e+00 
1 -3.283259410106e+01   3.903920407698e+01  -6.103430883670e+01 
1 -2.321061911050e+01   4.970408414612e+01   1.779066604065e+01 
1  2.770014351369e+01  -5.866442854258e+01  -1.122702520665e+01 
1 -3.984962223135e+01   2.921950293146e+01  -1.000065290276e+01 
8
Step 3400
1  1.444628633305e+01   9.597953797801e+00   1.048542603634e+01 
1  6.662955976171e+01   8.786416473557e+01   7.047202991663e+00 
1 -1.547809571221e+01   1.854429583030e+01  -1.859490355225e+01 
1  4.073778903141e+01  -3.296095598856e+01   1.391868215665e+00 
1 -2.237255855519e+01   4.391028703381e+01  -3.485071709287e+01 
1  9.524745384513e-01   4.479919717627e+01   2.676803768879e+01 
1  2.958915226224e+01  -5.900054414045e+01   6.229928348986e+00 
1 -7.400707402806e+01   2.217201614598e+01   2.365340319304e+01 
8
Step 3500
1 -4.615805132445e+00   9.705338165514e+00   4.801570245863e+00 
1  6.588269481032e+01   5.988240650792e+01   2.764523953783e+01 
1 -2.583582189790e+01   2.417271382519e+01  -1.831840758298e+01 
1  1.486571940254e+01  -1.686018150985e+01   2.455689297445e+01 
1 -6.473670395982e+00   3.482706885436e+01  -1.027411550404e+01 
1 -4.726765357340e-01   2.226282909405e+01   4.162351296356e+01 
1  1.808243704996e+01  -3.094602394528e+01   1.683748286130e+01 
1 -7.772768508989e+01   1.488410655980e+01   3.416602615928e+01 
8
Step 3600
1 -1.830483333685e+01   2.948106021889e+01   1.476321125753e+01 
1  4.205742898122e+01   4.651965028354e+01   2.912785652902e+01 
1 -1.776345933004e+01   1.315129033388e+01  -7.711288162605e+00 
1 -2.166418303983e+01   1.605412987967e+00   2.860706622813e+01 
1  7.063022268683e+00   3.235162207804e+01   2.916022956514e+01 
1  3.200748629752e+00   1.096863007516e+01   5.719384350024e+01 
1 -1.223725677663e+00  -5.510539717634e+00   1.272163682301e+00 
1 -7.475118402517e+01   2.055214435559e+01   2.236021199441e+01 
8
Step 3700
1 -2.219775794304e+01   5.019732785621e+01   1.376269356237e+01 
1  2.258632269352e+01   3.849936618421e+01   1.723242105003e+01 
1 -2.893490796975e+01   1.055984716510e+01   3.272110329149e+00 
1 -4.385509188537e+01  -1.139655811238e+01   7.813855520242e+00 
1 -1.931309919641e+01   6.008170047400e+00   3.708712883355e+01 
1  1.543760223588e+01   5.118610277267e+00   6.628379136497e+01 
1 -1.371091377535e+01   1.476773768332e+01   9.249963653992e+00 
1 -7.174487268186e+01   2.210725214209e+01   2.214995949395e+01 
8
Step 3800
1 -4.394594868775e+00   4.521128377408e+01   3.104019501035e+01 
1  1.491094110440e+01   3.340952372883e+01   1.234942745925e+01 
1 -1.317460008977e+01  -9.927516514721e+00   1.335735769485e+01 
1 -4.497344397794e+01  -3.417092555768e+00   1.074438593000e+01 
1 -2.773809056868e+01  -3.313260349859e+01   2.528601055276e+01 
1  3.095475848171e+00   8.623449369174e+00   6.003780467844e+01 
1 -2.793339613789e+01   1.448236529206e+01   7.801634826382e+00 
1 -6.627723552022e+01   1.061185218113e+01  -1.289458441997e+01 
8
Step 3900
1  2.128844716010e+01   9.676172937149e+00   3.775748778496e+01 
1 -5.905073842365e+00   2.671672938118e+01   2.463867774704e+01 
1 -1.198422725658e+01  -7.966009722639e+00   2.294234219928e+01 
1 -3.820014933721e+01   8.588977460369e+00  -1.121563004744e+01 
1 -2.534832909297e+01  -3.608957725696e+01  -1.085729603594e+01 
1 -1.445192384055e+01   1.386849151772e+01   4.935479962740e+01 
1 -2.549860421721e+01   1.062402295701e+01  -1.674636555865e+00 
1 -3.679500002055e+01   1.137399371406e+01  -6.037035632278e+01 
8
Step 4000
1  2.756363877597e+01   1.028816429582e+01   3.944773707852e+01 
1 -5.204392067735e+00   1.284955775660e+01   3.271353445108e+01 
1 -1.873884442887e+01   6.640960389364e+00   2.302858694788e+01 
1  2.421212102310e+01   2.297629068965e+01  -3.908958893626e+01 
1 -3.027775241188e+01  -2.895023824478e+01  -4.254885090638e+01 
1 -1.823292682992e+01   1.301726154851e+01   2.768830152835e+01 
1 -3.193264594676e+01   5.511645276812e+00  -1.035142308330e+01 
1 -1.869094167289e+00   2.756582152994e+01  -5.523987288922e+01 
8
Step 4100
1  2.027481655645e+01   2.434013696905e+01   3.655360518571e+01 
1  1.140772515722e+01   7.927655013235e+00   1.744358045384e+01 
1 -2.503450021646e+01   1.487626785159e+01   1.839886799719e+01 
1  7.374461054104e+01   1.657605624577e+01  -5.913626895968e+01 
1 -4.824718334007e+01  -7.223366917266e+00  -5.809500245796e+01 
1 -1.071955762630e+01   1.337289730085e+01   1.778519002028e+01 
1 -4.714768313680e+01  -1.020581650574e+01  -3.797955432252e+01 
1  1.212411611644e+01   4.386403821574e+01  -3.977159711539e+01 
8
Step 4200
1  2.373533691114e+01   3.092270453034e+01   1.298159639704e+01 
1  3.369855647679e+01   2.887619187896e+01   3.651362441048e+00 
1 -2.518898259543e+01   1.319625519115e+01   3.263949344415e+01 
1  1.029401875790e+02   5.638615740276e+00  -6.973189963290e+01 
1 -5.230437384926e+01   2.131498100868e+01  -6.201054476864e+01 
1  3.714754864563e+00  -1.376502314056e+00   2.079298928400e+01 
1 -5.944055715843e+01  -2.064428775619e+01  -3.766560416186e+01 
1  1.187927371841e+00   3.276687143768e+01  -6.947056794304e+01 
8
Step 4300
1  3.594806783124e+01   1.186651976945e+01  -1.329854802956e+00 
1  2.549067500398e+01   3.598024127521e+01  -4.669324175885e+00 
1 -1.800354598252e+01   1.827149440864e+01   2.226078018450e+01 
1  1.019920544814e+02   2.411587625567e+00  -6.314018588230e+01 
1 -5.875685448029e+01   4.609052267702e+01  -3.016172757604e+01 
1  1.676670028993e+01  -3.024397526577e+00   2.043705158147e+01 
1 -5.853382431545e+01  -2.806733723937e+01  -2.788381024894e+01 
1  6.606499999427e+00   1.333021159829e+01  -9.248417810457e+01 
8
Step 4400
1  2.380418186406e+01   8.257436395229e+00  -1.171576052245e+01 
1  3.542792971582e+01   1.574724305108e+01  -2.191333850203e+00 
1 -2.282896087522e+01   1.024758086292e+01   3.510387011869e+01 
1  9.757076315494e+01   1.691580929057e+01  -5.067678159522e+01 
1 -7.122545677196e+01   5.707315449703e+01  -2.177525772247e+01 
1  2.185607147106e+01  -2.176082573931e+01   2.035746465962e+01 
1 -4.484082116055e+01  -3.150481234689e+01  -3.233602721455e+01 
1  5.867752365703e+00   9.407411737882e+00  -8.488339905514e+01 
8
Step 4500
1  1.583086736400e+00   1.031000239650e+01  -5.437359797368e+00 
1  4.638547728841e+01  -8.262647484585e-01  -3.381776925024e-01 
1 -9.139574263933e+00   3.201488692703e+00   4.758460260438e+01 
1  8.441900283183e+01   4.369219606983e+00  -3.323115715254e+01 
1 -7.694636513310e+01   3.432164912995e+01  -7.689180921753e+00 
1  2.373835730578e+01  -5.717405600737e+01   4.657946645756e+00 
1 -3.746707958369e+01  -4.085877794278e+01  -3.756061203908e+01 
1  1.194553059330e+00   2.947002662115e+00  -4.153075740324e+01 
8
Step 4600
1 -1.442180659350e+01   3.231242489758e+01  -1.307648497966e-01 
1  6.675530491887e+01  -2.534912849469e+01  -2.710598291233e+01 
1 -3.050514226933e+00   1.641483246622e+01   6.289472323484e+01 
1  5.199183516922e+01   4.250108864862e+00  -1.707412858702e+01 
1 -8.229858527747e+01   2.508522330339e+01  -6.226324078469e-01 
1  2.893833669055e+01  -5.894756391062e+01  -1.699991842934e+01 
1 -1.218614601831e+01  -4.613634056431e+01  -3.058057600180e+01 
1  6.759560988185e+00  -2.581054928646e+01  -1.309913621666e+01 
8
Step 4700
1 -8.034986607303e+00   3.749544959893e+01   8.803882365643e+00 
1  5.787827873930e+01  -3.413634514572e+01  -4.440686103238e+01 
1 -1.391904850877e+01   3.865966951068e+01   5.793455295450e+01 
1  3.101080822244e+01   1.643374232350e+00  -5.124680879282e+00 
1 -5.607420893653e+01   2.238585397479e+01   2.488574404233e+01 
1  5.422393009769e+00  -7.018826320606e+01  -3.988325497285e+01 
1  1.152564347772e+01  -4.219474073633e+01  -3.047010634598e+01 
1  1.794094342334e+01  -4.035969588121e+01  -2.017589089801e+01 
8
Step 4800
1 -1.124878334875e+01   2.382751560548e+01   3.057693046357e+01 
1  4.351899563585e+01  -1.446006707874e+01  -4.184363702399e+01 
1 -1.798970335794e+01   2.135075000170e+01   5.591655455589e+01 
1  3.737081088283e+00   7.021082296273e+00   1.229165081433e+01 
1 -1.605592262491e+01   2.491137472990e+01   2.624266133266e+01 
1 -2.050416210048e+01  -7.374464627447e+01  -2.304370580794e+01 
1  2.493071962224e+01  -5.303660485836e+01  -3.833860759584e+01 
1  1.765543868831e+01  -2.755575086680e+01  -3.434259024301e+01 
8
Step 4900
1 -1.417621348471e+01   9.350528578360e+00   5.032704711015e+01 
1  3.540386658472e+01   2.042451823370e+01  -1.135078227479e+01 
1 -2.052128878660e+00  -2.067694014631e+01   3.737170107779e+01 
1  4.582666349334e+00   8.714046983834e+00   7.631774826731e+00 
1  4.265099219751e+00   4.728937705736e+01   1.664779550576e+01 
1 -2.018131698867e+01  -5.911974113179e+01  -3.434788966727e+00 
1  1.713726015137e+01  -5.454092479494e+01  -1.196670137846e+01 
1  2.160518680136e+01  -1.726723017907e+01  -2.273422907781e+01 
8
Step 5000
1  5.368358106215e-01  -1.158719303844e+01   4.174276570502e+01 
1  4.196199518585e+00   1.779155149180e+01   2.986656563663e+01 
1 -1.320195477430e+01  -4.331560441902e+01   3.467071000893e+01 
1  1.208696442881e+01  -1.515038002468e+01   1.543033628898e+01 
1 -8.003285336314e+00   4.575088245652e+01   1.545571948699e+01 
1 -1.785602051535e+01  -1.171784854139e+01   5.787951017751e+00 
1  2.055377499536e+01  -3.923835199904e+01  -7.144647915679e+00 
1  1.093150619956e+01  -2.420376114766e+01  -2.801038907251e+01 
8
Step 5100
1  4.341186890047e+01  -2.432842459460e+01   5.253808640615e+01 
1 -2.113571326270e+01   1.081595686275e+01   5.188494189143e+01 
1 -9.969746993902e+00  -6.192040077327e+01   1.881437344955e+01 
1  7.137134875243e+00  -2.596984981186e+01   3.622674323066e+01 
1 -2.056825296552e+01   7.790359594856e+00   1.291435500632e+01 
1 -3.358989355303e+01   1.961794963324e+01  -2.334247438490e+01 
1  3.521834048669e+01  -3.227231404191e+01   2.035439964784e+00 
1 -1.218291319684e+01  -2.854988633726e+01  -2.892474229349e+01 
8
Step 5200
1  7.415133791544e+01   4.636837925940e+00   6.678264951767e+01 
1 -1.185795128686e+01  -2.873391781584e+00   5.029885569765e+01 
1 -1.957506999140e+00  -4.348044422790e+01   5.329458864423e+00 
1  1.347968553109e+01  -2.435217439453e+01   4.279464570091e+01 
1 -9.275936652478e+00  -2.025228735843e+01   3.404226900975e+00 
1 -4.036555032594e+01   2.307525389309e+01  -3.552772551574e+01 
1  1.000831583375e+01  -2.424094482332e+01   1.621061117165e+01 
1 -2.760817270108e+01  -3.473198094457e+01  -8.584490523982e+00 
8
Step 5300
1  6.604078630565e+01   1.954441990827e+01   6.750630647414e+01 
1  6.761075369767e+00  -3.009898055262e+00   3.787864172970e+01 
1  7.674565966171e+00  -1.131462277372e+01  -1.064158225864e+01 
1  1.813773546830e+01  -1.487298787085e+01   4.483185865019e+01 
1 -5.538911037944e+00  -1.647904015054e+01  -6.890778559659e+00 
1 -1.803416245833e+01   2.789714839541e+01  -8.124280135314e+00 
1 -2.354338718570e+01  -6.900247913298e+00   1.873540192222e+01 
1 -3.101791955943e+01  -5.207751069194e+01   2.357508595900e+00 
8
Step 5400
1  4.695363507674e+01   3.328844886355e+01   6.492506696189e+01 
1  1.582039437047e+01   5.846123048104e-01   3.469429426609e+01 
1  2.375603897085e+01   1.229866854320e+00  -2.758179358477e+01 
1  2.464733321000e+01  -1.681992899498e+01   5.796931616325e+01 
1 -2.453914865089e+01  -5.407781460839e+00  -5.252682789125e+00 
1  1.106802585335e+01   2.097952873345e+01   1.138052852034e+00 
1 -5.350928735645e+01   1.090558297446e+01   8.957296855190e+00 
1 -1.824677290209e+01  -5.285135391981e+01  -2.325383669902e+00 
8
Step 5500
1  4.490786861920e+01   2.246838901842e+01   5.840074101206e+01 
1  9.004276105055e+00  -5.315997667961e+00   6.342404017074e-02 
1  2.803335903284e+01  -6.357746502841e+00  -4.548215523158e+01 
1  3.329637048989e+01  -2.546363311554e+01   4.836447298790e+01 
1 -2.083176035301e+01   1.279931364475e+01   7.523858750233e+00 
1  1.819370382221e+01   3.532957823820e+00   1.072889831564e+01 
1 -5.096221708554e+01   2.466594909225e+01   6.172829572942e+00 
1 -5.321481877423e+00  -3.236962023424e+01  -4.691688010268e+00 
8
Step 5600
1  3.661175652292e+01   3.476987236000e+01   6.145071425092e+01 
1 -5.754154283084e-01  -1.154572472822e+01  -9.222146328289e+00 
1  1.668326272734e+01  -1.859598027610e+01  -5.719523816376e+01 