8
Step 0
1 -2.526747284012e+02  -9.139898326518e+01   6.153100321031e+02 
1 -1.258207520092e+02   5.954881177993e+02  -1.504192038587e+02 
1 -6.369877599390e+02  -7.416346211132e+01   2.694691806287e+02 
1  4.335563653125e+02   4.553172070703e+02  -5.768887597283e+02 
1  4.918422941353e+01   4.104898738733e+02   3.662172568987e+02 
1  4.401477329557e+02   4.801209372720e+02  -2.382806015216e+02 
1  4.157396733158e+01   2.433279188640e+02  -4.636222617984e+02 
1  3.420269462983e+02  -5.302369339801e+02   6.603489089374e+02 
8
Step 100
1 -1.606120683333e+02  -1.522545682143e+02   4.314600962927e+02 
1  9.459078061774e+00   3.121989335096e+02  -1.465220756321e+02 
1 -5.085314524392e+02  -1.389662318858e+02   1.614570827730e+02 
1  3.364284737304e+02   2.297065200085e+02  -5.237099228306e+02 
1  1.324212801899e+02   3.729059363412e+02   2.206462426752e+02 
1  4.378643287102e+02   3.585972221856e+02  -8.535748689873e+01 
1  7.275603159311e+01   2.169879560898e+02  -4.125499188157e+02 
1  3.646942167084e+02  -4.279635939525e+02   5.521318614117e+02 
8
Step 200
1  1.147950388040e+01  -1.667724518469e+02   1.790068317199e+02 
1  1.082061818278e+02  -6.189437750187e+01  -1.129036273705e+02 
1 -2.697499404828e+02  -2.161862685689e+02  -5.251728257383e-01 
1  1.935819574501e+02  -3.111024533397e+01  -4.133420859077e+02 
1  2.054014579501e+02   3.124017050834e+02   3.251034497590e+01 
1  3.315015475339e+02   1.476700578068e+02   7.765958880139e+01 
1  1.078599471023e+02   1.627162160174e+02  -3.023118035453e+02 
1  3.462029596187e+02  -2.706596864733e+02   3.603578342309e+02 
8
Step 300
1  2.964446958656e+01  -1.008450685463e+02   6.233613819502e+01 
1  1.171399468435e+02  -1.814955589265e+02  -7.948464370782e+01 
1 -1.455304733877e+02  -1.613039236559e+02  -7.691077695714e+01 
1  6.024753092081e+01  -7.694286815797e+01  -2.701713917732e+02 
1  1.622532007536e+02   2.600428589536e+02  -3.751323448554e+01 
1  1.527365347768e+02   3.108230794665e+01   8.688825076514e+01 
1  4.917781987952e+01   8.027578344526e+01  -1.910578325765e+02 
1  2.869956218640e+02  -1.994852396263e+02   1.664617030973e+02 
8
Step 400
1 -4.714154162061e+00  -1.970687207845e+01   6.087277163556e+01 
1  5.983382863827e+01  -1.254314419132e+02  -5.029868997920e+01 
1 -1.129080142460e+02  -8.897302217077e+01  -8.445356086461e+01 
1  3.774246752991e+00  -4.586740632701e+01  -1.646968479798e+02 
1  6.159547665997e+01   2.145163005953e+02  -3.479525983295e+01 
1 -6.290111731521e-06   1.764644682168e+01   2.533676382495e+01 
1 -2.073867036538e+01   1.853769962429e+01  -9.088705871663e+01 
1  1.767972886575e+02  -1.386102778522e+02   5.330137740956e+01 
8
Step 500
1 -3.339221319047e+01  -3.248020606801e+00   8.883043669480e+01 
1  4.298623410305e+00  -5.512918337737e+01  -2.240433188090e+01 
1 -6.925873064689e+01  -4.021930434025e+01  -9.177288081142e+01 
1 -1.044758934083e+01  -6.284029422330e+00  -8.881349250412e+01 
1  2.727783123769e+01   1.613870969745e+02  -1.168874069001e+01 
1 -6.550877786045e+01   2.873137859670e+01  -2.589917600760e+01 
1 -1.937726828719e+01  -2.482306501303e+01  -3.183664150248e+01 
1  6.774294899868e+01  -8.571713176768e+01  -5.000641033531e-01 
8
Step 600
1 -1.917064735239e+01  -4.958914903993e+00   9.389911634595e+01 
1 -1.953918313378e+00  -3.681235669120e+01   2.218053219750e+01 
1 -5.134127761138e+01  -3.994626820947e+01  -4.694547303236e+01 
1 -4.536272572708e+01  -2.209649612463e+01  -6.272351995638e+01 
1  2.000762830767e+01   1.208327225119e+02  -9.185455430459e+00 
1 -9.143401844742e+01   5.633483070548e+01  -1.913760777993e+01 
1 -6.259118976812e+00  -2.420096241989e+01   2.574534337132e+01 
1 -4.468483091266e+00  -3.854000724550e+01   1.073320042670e+01 
8
Step 700
1 -1.217073720521e+01  -1.316471978027e+01   5.566089912027e+01 
1  1.561047244683e+01  -9.465250102630e+00   2.871807818426e+01 
1 -2.172487583214e+01  -1.064486526860e+01  -3.034094167564e+00 
1 -1.031144773869e+01  -7.964626668293e+00  -3.561346494170e+01 
1  2.785075840002e+01   8.455417135548e+01  -5.433159709833e+01 
1 -7.078388795476e+01   4.494158513580e+01   8.482943728037e+00 
1 -8.212956753888e+00  -2.390833405085e+01   1.451450594753e+01 
1 -2.825318094853e+01  -2.895852025586e+01   9.992700124351e+00 
8
Step 800
1 -4.046038479497e+01  -3.473845245997e+01   3.731866262843e+01 
1  2.445630842600e+01   3.226231809538e+00   2.160634206718e+01 
1  7.639603330274e+00   2.998925354922e+01   6.865599577884e+00 
1  1.886242728807e+01  -4.164355138070e+00  -3.482468865741e+01 
1  4.817473579721e+01   6.103203525340e+01  -4.635988585267e+01 
1 -3.572530774603e+01   3.644495021251e+01   2.731294368505e+00 
1 -1.399168936564e+01   2.117195339846e+00  -3.524389494537e+01 
1 -3.617073706574e+01  -4.235178360445e+01   4.435321538065e+00 
8
Step 900
1 -1.576806022030e+01  -3.633578128223e+01   3.449679428333e+01 
1  3.158492507984e+01   2.097260468812e+00   4.287583713234e+00 
1 -4.531858855632e+00   9.386555928023e+00   1.813137329698e+01 
1  3.283609266144e+01  -1.269276954893e+01  -1.384436999736e+01 
1  4.232090447739e+01   3.961710522602e+01  -3.562972593708e+01 
1 -3.470719810924e+00   3.630617371247e+01   1.660114968941e+01 
1 -3.035694220876e+01   3.306177293654e+01  -5.631530260465e+01 
1 -7.336407807585e+01  -3.788290774941e+01  -3.562915247942e+01 
8
Step 1000
1  2.332297065406e+01  -3.841603881416e+01   5.950149058479e+01 
1  3.198930500284e+01   1.761830686928e+01  -6.916299068192e+00 
1 -2.003178714683e+01  -1.830271494664e+01  -9.018275919653e-01 
1  3.655690092712e+01  -2.261064205916e+01  -2.725395227032e+01 
1  2.576730271737e+01   4.262799670856e+01  -6.814093696204e+01 
1  3.318832732132e+01   2.780206519914e+01   1.069670889347e+01 
1 -1.317559577132e+01   4.443359647354e+01  -4.630409010597e+01 
1 -6.882813407853e+01  -2.909651641484e+01  -4.307348068752e+01 
8
Step 1100
1  5.032337009585e+01  -2.075653168280e+01   5.003766548926e+01 
1  9.570717484261e+00   2.324789977348e+01  -3.469233324325e+00 
1 -2.846882404332e+01  -4.009511210858e+01   6.291198038755e+00 
1  4.688595165352e+01  -1.220382332707e+01  -1.243448383717e+01 
1 -2.470529637972e+01   3.019720421704e+01  -5.388123146487e+01 
1  5.555099300206e+01   2.528500947230e+01   9.388383779695e+00 
1  1.441342780466e+01   6.025875385571e+01  -4.452345788013e+01 
1 -3.586683277349e+01  -1.412634006592e+01  -3.824114004165e+01 
8
Step 1200
1  3.525265717320e+01   3.119763791365e+00   1.207793025503e+01 
1 -5.094146057699e+00   2.460341724383e+01  -8.993380690303e+00 
1 -2.151943400062e+01  -3.062091182803e+01   6.104631461576e-01 
1  5.451196457214e+01  -1.958472466683e+01  -1.146373001381e+01 
1 -5.585205376974e+01  -1.484991535796e+01  -1.449284502276e+01 
1  3.711532116930e+01   2.576186213941e+01  -1.565152655683e+00 
1  4.786710393913e+01   4.882166048942e+01  -5.000410034182e+01 
1 -2.027172636984e+01   4.611369666729e+00   2.719219614059e+00 
8
Step 1300
1  9.447284889273e+00   2.561865266452e+01   1.584951356529e+01 
1 -1.540654820969e+01   3.541206155432e+01   1.978921990959e+01 
1  5.614281977129e+00   5.990078037032e+00   2.183490116490e+00 
1  2.616161189531e+01  -1.801937915525e+01   3.693365788757e+00 
1 -3.519967327913e+01  -1.689833159965e+01   3.960923702640e+00 
1 -3.759105530308e-01   1.645842676018e+01   4.113910901903e+01 
1  6.135489408600e+01   3.487475713590e+01  -1.914996823980e+01 
1  1.126622569580e+01  -1.263460119463e+01   1.902479128983e+01 
8
Step 1400
1  6.260748927988e+00   4.909313790766e+01   4.682612970399e+01 
1 -1.934461483531e+01   1.261212027677e+01   7.203019748716e+00 
1  9.400259504951e+00   2.065604753847e+01   6.500922410139e+00 
1 -1.032937390695e+01   5.106181411323e+00   1.028475033951e+01 
1  1.938084402019e+01   1.634762905901e+01   1.044064976174e+01 
1 -3.011060492963e+00   2.034010718331e+01   2.182920822709e+01 
1  5.886936825826e+01   2.331934871261e+01   1.865526113549e+01 
1  2.734520267802e+01  -9.350968509550e+00   2.276770334612e+01 
8
Step 1500
1 -1.482135163280e+01   1.990872436480e+01   4.342116039982e+01 
1 -2.614164768158e+01  -6.476302427956e+00   5.532347467633e+00 
1 -1.904109555642e+01   1.413778663246e+01  -1.349737705178e+01 
1 -1.139152974912e+01   6.343561777605e+00   4.306161178048e-01 
1  2.387712411378e+01   5.898736270726e+01   1.682322889295e+01 
1 -2.816297544336e+01   3.021895343765e+00  -1.884447706699e+01 
1  5.662689317294e+01   1.824521759805e+01   4.756689148245e+01 
1  1.000986094834e+01  -7.220141510435e+00   4.291729608688e+01 
8
Step 1600
1 -1.850755955224e+01  -3.180730391239e+00   5.165105753265e+01 
1 -1.946596658772e+01  -3.083999577173e+01   2.298339732895e+00 
1 -3.432771962951e+01  -2.560005524823e+01  -1.525790037264e+00 
1  1.513465249020e+01   1.801218200341e+00   8.815188919834e+00 
1 -2.806938635755e+01   7.997585620176e+01  -1.841944247653e+01 
1 -5.757356227578e+01  -3.837325629673e+01  -4.738644116748e+01 
1  5.198998900099e+01  -3.209282131079e+01   6.378063595091e+01 
1 -3.906008641111e+01  -1.491106739952e+00   2.111875885736e+01 
8
Step 1700
1  4.427700119504e+00  -1.665418120112e+01   2.414873992100e+01 
1  5.703706774577e+00  -5.525878673595e+01   6.071539787918e+00 
1  1.018915705131e+00  -6.948853620040e+01   4.340818793601e+01 
1  2.154809337469e+01   6.060566656132e+00  -2.712367715910e+00 
1 -5.591950509552e+01   6.644283464755e+01  -1.547242083382e+01 
1 -6.755192871548e+01  -5.984536520504e+01  -2.698493117992e+01 
1  4.102751345307e+01  -3.156757195357e+01   6.667826460023e+01 
1 -4.252124874514e+01  -1.144878969393e+01  -1.618408659730e+00 
8
Step 1800
1  3.229780187241e+01   5.180038557058e+00  -2.612020017119e+01 
1  3.057750895143e+01  -7.937384368069e+01  -3.192666357197e+01 
1  9.796231612331e-01  -7.879457068095e+01   2.800618387556e+01 
1  4.390588078779e+01   2.166316373156e+01  -1.040220244964e+01 
1 -4.357091154065e+01   2.737538872775e+01  -7.333765128583e-01 
1 -5.632980382635e+01  -7.335372008535e+01   1.322922002084e+01 
1 -8.990284932226e-01   1.588031395173e+01   5.819399679982e+01 
1 -2.859050561048e+01  -1.730365982436e+01  -1.329791211815e+01 
8
Step 1900
1  2.018856915625e+01   3.410967958932e+01  -1.327586472780e+01 
1  1.607705825659e+01  -8.293611503913e+01  -3.516328868878e+01 
1 -2.329897388874e+00  -5.946011462687e+01   4.792995168891e+01 
1  6.260321274775e+01   1.338591375264e+00  -3.416528234457e+01 
1  1.827121234473e+00   2.093616937236e+01   1.980277606976e+01 
1 -2.983018150444e+01  -5.170018614748e+01  -8.955323363949e-01 
1 -4.277091916408e+00   5.284611418636e+01   2.833334229260e+01 
1  3.178913186817e+00   3.404625990956e+00  -2.837828045766e+01 
8
Step 2000
1 -4.034932283137e+01   4.380447909298e+01  -2.674348319460e+01 
1 -7.666661411932e+00  -9.770297744437e+01  -1.048727731308e+00 
1  2.297279769283e+00  -1.281771551527e+01   5.343129425744e+01 
1  4.265024359834e+01   1.181520801295e+01  -5.857251469224e+01 
1  1.073454867323e+01   4.006109883822e+01  -6.628776656835e+00 
1 -2.202131830309e+01  -4.570998671910e+01  -1.366093162463e+01 
1 -3.943733815519e+00   2.601603470805e+00   5.261821811563e+00 
1  2.868853440401e+01  -1.434656714880e+01  -5.116180681303e+00 
8
Step 2100
1 -2.151386071153e+01   3.149818699113e+01  -3.324642083044e+01 
1  8.712305620132e+00  -7.171491758678e+01   2.113567740992e+01 
1 -2.044134391915e+01  -9.630439972265e+00   3.308432805450e+01 
1  3.500234991101e+01   3.476363959683e+01  -4.742042147864e+01 
1  2.397528855770e+01   3.992557584321e+01  -3.531057629183e+01 
1 -2.275972138580e+01  -1.414163985752e+01  -1.171118297405e+01 
1 -5.348817810027e+00  -1.168431373237e+01   2.347020846952e+01 
1  3.228163817876e+01  -1.231323367850e+01  -5.385789959691e+00 
8
Step 2200
1 -3.864008775514e+00   9.649088121102e+00   6.480873022628e+00 
1  2.189926920866e+01  -5.699513817280e+01  -1.993971374270e+01 
1 -4.734606495297e+01  -2.273336679783e+01  -1.682131849521e+01 
1  1.619299223461e+01   1.446020515462e+01  -4.146239745076e+01 
1  3.983402062240e+01   5.564046849910e+01  -4.716880620552e+00 
1 -3.252872449425e+01   2.281211736850e+01   5.406500073626e+00 
1  5.415759846306e-01   2.293416009308e+00   1.893734116892e+01 
1  1.866622377866e+01   4.007767055755e+00  -1.341346191931e+01 
8
Step 2300
1 -2.582506961133e+01  -1.715394958357e+01   1.283482741173e+01 
1  9.254939191195e+00  -7.661204973328e+01  -5.852847883405e+01 
1 -2.993465630492e+01   7.678134056241e+00  -4.106376226641e+01 
1 -1.609694506889e+00  -8.254193325980e+00  -7.082275779228e+01 
1  1.481602061964e+01   5.639638673572e+01   4.909608429163e+00 
1 -2.096384710174e+01   6.133172011492e+01   1.276898546549e+01 
1  4.204678411550e+01   1.593104902182e+01  -1.318713674473e+00 
1 -6.653277093545e-01  -3.065864554445e+00  -1.881816179815e+01 
8
Step 2400
1 -2.506247367508e+01   2.642106903388e+01  -6.891731067537e+00 
1  2.737287925717e+01  -7.437226440203e+01  -8.045797258530e+01 
1 -1.527059850192e+01   2.179391879491e+01  -4.734459007478e+01 
1 -3.133810878729e+00  -9.233449475859e+00  -3.456792304734e+01 
1  2.603168052848e+01   4.235415362423e+01   9.219582101127e+00 
1 -1.719560843813e+01   8.448395645178e+01   3.560800990277e+01 
1  5.119977421435e+01  -5.701399706230e+00  -8.673262585090e+00 
1 -3.419155139604e+01  -2.554755975461e+01  -2.677453872557e+01 
8
Step 2500
1 -1.362616263105e+01   1.447045072634e+01  -1.673759782901e+01 
1  1.667242853030e+01  -1.084794645706e+02  -4.662688017444e+01 
1 -1.937228804078e-01  -7.682237008644e+00  -4.604225848987e+01 
1 -1.125068481191e+01  -1.963965877704e+01   1.665967564633e+01 
1  1.489855982830e+01   3.832828965821e+01  -1.902557127760e+01 
1 -4.485655504749e+01   1.038159911695e+02   1.451560988559e+01 
1  4.468691209083e+01  -2.275268342286e+01  -3.649125324764e+01 
1 -1.916527892326e+01  -3.785478536441e+01   4.027268330639e+00 
8
Step 2600
1 -1.314683737463e+01   2.910046842254e+01   2.407688312696e+00 
1  3.334981359911e+01  -9.875968250393e+01  -9.368487164638e+00 
1 -1.556194901587e-01  -1.328906229024e+01  -2.848826362867e+01 
1 -3.150701063085e+01  -8.874672488454e+00  -4.322869158707e+00 
1  3.349373931408e+01   4.920037899136e+01  -1.549416109143e+01 
1 -6.170321471485e+01   6.748246177976e+01  -2.047362620098e+01 
1  1.991985976569e+01  -2.100429438197e+01  -5.582594561327e+01 
1  5.275445735796e+00  -6.734800069396e+01   1.181889077190e+01 
8
Step 2700
1 -3.062901652395e+01   1.152294243419e+01   1.704456214296e+01 
1  5.734775738597e+01  -6.116695264520e+01   2.189334403531e+01 
1 -3.701447556960e+01  -9.189897905424e+00   5.101483988072e+00 
1 -5.636793004827e+01  -1.547191165078e+01   2.481116421886e+00 
1  2.952415698248e+01   3.753209717593e+01   4.399750362035e+00 
1 -3.531936597572e+01   1.100589185011e+01  -2.885766440837e+01 
1  3.406383347078e+01  -2.545415487552e+01  -5.768031822679e+01 
1  1.531741214740e+01  -5.314833006879e+01   1.617084101688e+01 
8
Step 2800
1 -6.818757373416e+00  -9.657103918564e+00   4.377540573997e+01 
1  4.882932546693e+01  -1.803631738425e+01   1.199025801808e+01 
1 -4.207866739636e+01  -7.521804446873e+00   6.401639674792e+00 
1 -6.621962806940e+01   1.239675921093e+01   1.712930345378e+01 
1  4.039491110258e+01   2.054728197328e+01   1.106838923716e+01 
1 -3.665812612092e+01   1.459516576016e+01  -1.214339622409e+01 
1  1.051674081962e+01  -4.509024267064e+00  -1.527175209394e+01 
1  1.811067180573e+01  -5.150699929790e+01   1.580094985241e+01 
8
Step 2900
1 -2.218658064013e-01  -1.682145356480e+01   5.354245669252e+01 
1  3.709075807264e+01  -5.134287426757e+00   3.942889816919e+01 
1 -2.560680230454e+00  -2.373274741664e+01  -2.799601034974e+01 
1 -7.538018474495e+01   3.334330265958e+01  -2.166032762761e+01 
1  2.722908981157e+01  -2.230826027358e+01   1.776085635659e+01 
1 -4.927770532753e+01   3.164900489546e+01   1.088584049694e+01 
1 -4.646869574690e-01  -8.797487510856e+00   1.975262055230e+01 
1  2.810677708868e+01  -5.797091500067e+01   4.489568403615e-01 
8
Step 3000
1 -9.929677428438e+00  -3.194851641549e+01   4.952184934153e+01 
1  1.614511944282e+01  -3.004239789826e-01   6.964497660335e+01 
1  1.178214540540e+01  -1.797814272297e+01  -3.835456015262e+01 
1 -6.198644705593e+01   2.566848999972e+01  -3.883659388279e+01 
1  1.930620889549e+01  -4.447830598923e+01   1.519026704408e+01 
1 -2.864893910083e+01   4.177379215927e+01   2.626077574601e+01 
1 -8.484899741407e+00  -2.224964306392e+01   2.735581654509e+01 
1  3.730533693543e+01  -5.416116075243e+01   4.123558561515e+00 
8
Step 3100
1 -1.938918680561e+01   1.221597253311e-01   3.877877265898e+01 
1  6.571535019272e+00  -1.517953785327e+01   6.717430180264e+01 
1 -1.691014468357e+01   1.294199938865e+01  -3.141977138165e+01 
1 -5.120546039624e+01   2.909396940900e+01  -2.419269331974e+01 
1 -5.726965486281e+00  -2.788940415489e+01  -1.422979507944e+00 
1 -3.744602375704e+01   3.550579385341e+01   3.630017452763e+01 
1  2.595577359875e+00  -3.314910408424e+01   5.585832164855e+01 
1  3.739009960797e+01  -4.914626506013e+01   1.115297065503e+01 
8
Step 3200
1 -1.607551478089e+01   2.894761156356e+01   1.894709573815e+01 
1 -2.111206824318e+01  -3.645631632332e+01   5.635903410867e+01 
1  2.048499115600e+00   3.334518085041e+01  -2.039910085067e+01 
1  1.990004897369e+01   3.415490154270e+01  -1.971522768600e+01 
1 -5.229267888493e+00  -1.362491550081e+01   7.107278731751e+00 
1 -4.422993815423e+01   2.359457161541e+01   2.073167843756e+01 
1  5.447130131835e+00  -1.269283130216e+01   6.962126432358e+01 
1 -2.569420457549e+00  -1.371344521907e+01  -4.908402800796e+00 
8
Step 3300
1  3.467229883623e+01   2.028309980305e+01   5.412529596112e+00 
1 -2.681789919499e+01  -3.426086498634e+01   7.849500537709e+01 
1  2.592619205687e+01   2.284296858573e+01  -1.448608413787e+01 
1  4.233054944774e+01   1.239270353622e+01  -4.952859046303e+01 
1 -2.259107589576e+01  -3.501584158914e+01   3.696331307145e+01 
1 -5.501547886907e+01   1.547159892762e+01   5.753661136879e+00 
1  2.439142901136e+01  -1.887483721418e+01   6.776056095614e+01 
1 -5.561485500951e+01   4.362080259437e+00  -1.443389480479e+01 
8
Step 3400
1  5.381267490500e+01  -1.813002651163e+00   1.484863103531e+01 
1 -2.103352139120e+01  -3.576036230660e+01   7.221202248260e+01 
1  3.126805711926e+01  -3.902643486483e+00  -4.898596348803e+01 
1  5.568479298800e-01  -2.155313070887e+01  -4.622191627203e+01 
1 -4.754931196026e+01  -3.117014018598e+01   6.887486764227e+01 
1 -3.666059462958e+01   4.610730521829e+01   9.543086655712e+00 
1  2.080494817944e+01  -8.492493006070e+00   5.648617711245e+01 
1 -4.781161543990e+01   1.366039765448e+01  -2.358391255419e+01 
8
Step 3500
1  3.138474592162e+01  -1.028879622259e+01   2.370123644829e-01 
1 -2.851080031835e+01  -2.988872542903e+01   4.212301577224e+01 
1  1.352478401629e+01  -2.051380753183e+01  -4.267087238128e+01 
1  2.503700656919e+01  -6.725910187038e+01  -2.696569321186e+01 
1 -1.527344454551e+01   1.758285913909e+00   4.356540447354e+01 
1 -6.144224008121e+01   3.225707333062e+01   3.765714032932e+01 
1 -2.950146475240e+01   1.104662256551e+01   2.956655417751e+01 
1 -1.735624214830e+01   1.837040466282e+01  -2.057652149456e+01 
8
Step 3600
1  3.083855541374e+01   3.245381784290e+01  -1.677251799876e+01 
1 -4.343117821630e+01  -4.237232618630e+01  -2.371124226235e+01 
1  5.024324902884e+00  -1.609398272145e+01  -6.856136947719e+00 
1  3.131205518834e+01  -7.825772700598e+01  -2.187819366586e+01 
1  3.231005136661e+01  -7.787664159649e-01   2.778023423074e+01 
1 -3.539575562092e+01   3.589610321077e+01   3.859683035446e+01 
1 -4.210307370615e+01   1.327349510599e+01   2.088703944576e+01 
1 -8.544656111964e+00   4.617077201347e+01  -1.856227416810e+01 
8
Step 3700
1  2.041770222981e+01   8.068005120563e+01  -2.931661044077e+01 
1 -5.643543379073e+01  -1.980346999444e+01  -2.483854920170e+01 
1  1.046850825243e+01  -4.831640096957e+00   8.459089528661e+00 
1  1.220201378018e+01  -7.404062641967e+01  -6.283728857095e+00 
1  5.090884044312e+01  -1.431526984411e+01   5.347511967981e+01 
1  2.317757275672e+01   4.968345393686e+01   3.320185133954e+01 
1  1.602948972391e+01   6.270950990118e+01   3.185154492361e+01 
1 -1.595880476875e+01   1.466082901397e+01   5.949985656073e+00 
8
Step 3800
1 -1.568008174018e+01   9.720480373984e+01  -1.261651708506e+01 
1 -5.405469606608e+01   1.203927602549e+01  -2.959863413502e+01 
1 -4.477367662736e+00   5.487033621987e+00   7.150276335751e+00 
1 -1.241455069238e+01  -8.025951319107e+01  -1.881946314681e+01 
1  5.205076141200e+01  -5.076774016971e+01   3.955460842607e+01 
1  2.119643719973e+01   3.399266439559e+01   9.541588572634e+00 
1  2.147693104158e+01   6.790219276169e+01   1.380886921820e+01 
1 -7.359239282888e+01   1.372924940663e+01   2.528486969915e+01 
8
Step 3900
1 -2.628884582825e+01   4.689176143160e+01  -1.467543362959e+01 
1  3.346972775830e+00   3.810149270198e+01  -1.855765246403e+01 
1 -3.731429057993e+01  -1.543516074943e+01   2.279683909009e+01 
1 -6.056356004189e+00  -4.465517627368e+01  -5.465728899761e+01 
1  4.003404371523e+01  -6.031390009919e+01   8.061956595295e+00 
1 -2.258739344215e+01   1.625351822703e+01   6.256170956389e+00 
1  5.917171070913e+00   8.304142145741e+01  -1.171169406183e+01 
1 -6.617742374322e+01   1.814843374459e+01   3.578576950748e-01 
8
Step 4000
1 -2.963511608264e+01   7.209253126217e+00   2.230750496859e+00 
1  3.143651916360e+01   5.543234712352e+00  -3.529100684529e+00 
1 -2.017172881820e+01  -1.111530692690e+01   9.320955547521e+00 
1 -2.394311759948e+00  -3.244291373528e+01  -8.294078926238e+01 
1 -8.265365800049e+00  -1.792743669718e+01   1.119057644302e+01 
1 -3.743432038744e+01  -2.160302360090e+01  -3.155936852906e+01 
1  2.323477354466e+01   7.449894068031e+01  -5.710307824194e+01 
1 -6.063044134858e+01   7.337078841497e+00   8.074941023163e+00 
8
Step 4100
1 -3.664579342174e+01   5.720501083851e+00   1.849906832167e+01 
1  1.096958687617e+01  -2.988535506175e+01  -4.646600385850e-01 
1 -4.419542835837e+00  -1.689622616808e+01   5.759793591204e+00 
1 -2.614546497280e+01  -2.624986735142e+01  -7.664114762435e+01 
1 -3.228909015851e+01   5.086717060922e+01   1.514099653217e+01 
1 -2.218823947609e+01  -3.025668086413e+01  -1.468773926534e+01 
1  3.520614035972e+01   5.140739458666e+01  -7.560914644144e+01 
1 -4.890447756542e+01  -2.190065672191e+01   1.797071252794e+01 
8
Step 4200
1 -6.188984256256e+01   5.381400527133e+00   2.795926623158e+01 
1 -1.990587133181e+01  -3.032647802649e+01   1.257971148416e+01 
1 -1.396562831096e+01  -1.419603843666e+01   5.239365532172e+01 
1 -2.799482001891e+01  -3.603626974183e+01  -2.868326450960e+01 
1 -1.193030884059e+01   6.990435860401e+01   1.537717489518e+01 
1  2.981256114747e+00  -8.801181699526e-01   3.839450752545e+00 
1  1.693647304291e+01   4.838707860287e+01  -5.328094277502e+01 
1 -4.071741283465e+01  -3.554138993554e+01  -2.282667160488e+01 
8
Step 4300
1 -7.741825708182e+01   2.286999508064e+00   5.734555872065e+01 
1 -1.544965807773e+01  -9.045814850938e+00   3.672249435857e+01 
1 -3.054372838485e+01   1.606818747374e+01   2.268934810832e+01 
1 -2.380405724450e+01  -2.380791513395e+01  -1.806149323953e+01 
1  1.457232521397e+01   4.487704047890e+01   7.355718040459e+00 
1  5.175585611346e+01   1.805867247756e+01  -2.837134061045e+01 
1 -3.255429712341e+00   6.028672493366e+01  -2.391219089770e+01 
1 -3.226613699083e+01  -3.704630254014e+01  -2.486468725640e+01 
8
Step 4400
1 -9.380811211571e+01  -1.390862097948e+01   8.095536437853e+01 
1 -6.505940650570e+00  -1.226487040967e+01   4.881595698478e+01 
1 -2.671581973399e+01   9.428371833287e+00  -1.333354584137e+01 
1 -3.367455571473e+01  -6.218970452489e+00  -2.462536092301e+01 
1  1.984552992019e+01   3.156325834867e+01  -2.231452937194e+01 
1  4.619121652560e+01   4.477566495026e+01  -4.382511816549e+01 
1  2.062610347696e+01   4.902729421129e+01  -1.571997757226e+01 
1 -3.608930196824e+01  -2.351980197471e+01  -1.472612935295e+01 
8
Step 4500
1 -3.322183943920e+01  -4.140137904572e+01   7.794786871230e+01 
1  2.920136014107e+01  -2.917766443041e+01   3.541916653232e+01 
1 -4.676824154403e+01   1.390397592798e+00  -7.377373822372e+00 
1 -2.147897288210e+01   9.013679501610e+00  -2.819714410816e+01 
1  3.126500931231e+01   3.874113973917e+01  -5.495280395028e+00 
1 -1.892898985674e+01   5.244397676767e+01  -4.501014438401e+01 
1  6.321084688093e+01   4.150169326022e+01  -1.748751543616e+01 
1 -1.689499112504e+01  -3.363920575683e+01  -9.088245780969e-01 
8
Step 4600
1  7.034820969947e+00  -4.636789395967e+01   3.386933457371e+01 
1  1.542761787979e+01  -3.406235551727e+01   1.176382837219e+01 
1 -3.114502121539e+01   9.412688584721e+00  -1.317747352980e+00 
1 -5.136298431300e+00   5.782310695354e+00  -7.496213163231e-01 
1  4.720495700913e+01   6.483769964242e+01  -1.487594460392e+01 
1 -4.165944108802e+01   2.427078049402e+01  -5.931768812493e+01 
1  2.034583958501e+01   2.194330380782e+01  -2.403961269174e+01 
1  7.223473993079e+00  -8.341064760840e+01   2.395687923085e+01 
8
Step 4700
1  3.957026357945e+01  -2.796465921323e+01  -6.895209048397e-01 
1  4.016682621870e+00  -3.088155123545e+01   3.770035442800e+00 
1 -4.287803182688e+01   4.215336363075e+01   3.805525668452e+01 
1 -1.362989369087e+00   8.529025776319e-01  -1.125944045954e+00 
1  4.182203734449e+01   8.091828480469e+01  -2.643426933159e+01 
1 -6.082275881986e+01   1.949729299903e+01  -3.850209510603e+01 
1 -1.673109157449e+01   1.687260824403e+01  -2.780332352398e+01 
1  8.441677137109e-01  -1.193613650789e+02   8.484265458439e+00 
8
Step 4800
1  2.225412599238e+01  -3.564834026622e+01  -2.205511125892e+01 
1 -1.537883582832e+01  -1.919458036210e+01   5.112269435068e+01 
1 -5.082685643041e+01   5.602244389572e+01   4.245175737409e+01 
1 -1.179362068608e+01   2.851431100198e+01  -9.936780641437e+00 
1  4.488212330311e+01   7.676238808407e+01  -3.625929073486e+01 
1 -6.104277934251e+01   4.614726737717e+00   2.816330276293e+01 
1 -5.670275922496e+00   1.396859110654e+01  -5.203675138575e+01 
1 -1.234265565460e+01  -9.007080652394e+01  -3.957477222502e+00 
8
Step 4900
1 -1.060803843738e+01  -4.762284058427e+01  -2.146121479793e+01 
1 -9.164536089825e+00  -3.411933317286e+00   8.257970963997e+01 
1 -2.981497262767e+01   5.300676169906e+01   3.237366305613e+01 
1  4.636968441504e+00   3.756341098244e+01  -4.317945894594e+01 
1  4.541838081573e+01   7.437429835176e+01  -3.820236856055e+01 
1  6.803075004393e+00   6.039536925292e-01   5.357622304663e+01 
1  2.459738794694e-01   2.402269790741e+01  -5.874827991479e+01 
1 -2.084804039052e+01  -4.954272295479e+01  -4.256862596871e-01 
8
Step 5000
1 -2.605853689614e+01  -3.807580565817e+01  -2.238945729664e+01 
1 -8.936127836975e+00  -2.600732571786e+01   9.685794981291e+01 
1 -1.294859730458e+01   5.580657669281e+01   3.258163323672e+01 
1  1.401743605513e+01   4.082903705348e+01  -1.229000803919e+00 
1  4.067732769983e+00   5.158939525674e+01  -2.000482165223e+01 
1  5.236400984679e+01  -7.939041758516e-01   1.019229237869e+01 
1 -1.172957293778e+01   6.253942067108e+00  -2.393519039339e+01 
1 -4.364998327314e+01  -2.454188621660e+01  -1.681699518112e+01 
8
Step 5100
1 -2.190741791146e+00  -3.921955236983e+01  -2.796342738153e+01 
1 -4.200708057255e+01  -5.115421967938e+00   6.285904542966e+01 
1 -1.816761761594e+01   4.291721363510e+01  -4.036614375812e+00 
1  1.630823751662e+00   4.170996839768e+01   9.134568260606e+00 
1 -1.925824545689e+01   3.527557568193e+01   1.261927688249e+01 
1  1.945568641233e+01  -8.077151847777e-01  -4.195605254922e+01 
1 -2.511479851112e+00  -3.120967269667e+01   7.377851477282e+00 
1 -2.515033252934e+01  -2.866990487777e+01  -1.996987613158e+01 
8
Step 5200
1  2.149821137542e+01  -3.816263853436e+01   2.511659667658e+01 
1 -5.808182045810e+01   2.246327344131e+01   3.330379875034e+01 
1 -1.187925725902e+01   2.236303182159e+00  -1.070345871623e+01 
1 -1.104516661010e+01   4.224543045012e+01   1.157503073013e+01 
1 -6.682835031905e-01   2.722267189348e+01  -1.311401169961e+01 
1 -3.297926462654e+01   1.541455031533e+01  -2.031948321396e+01 
1  2.967873003611e+01  -6.507553354019e+01  -5.714565182481e+00 
1 -3.406048422816e+01  -4.743332000991e+01  -3.927127697448e+01 
8
Step 5300
1  4.713627310312e+01  -1.980017226719e+01   5.691587268741e+01 
1 -4.085865796918e+01   6.326951913018e+01   4.887606487386e+01 
1 -8.138717772684e+00  -5.312606405679e+01   2.128809670045e+00 
1  2.022927677289e+01  -3.188732319424e+00   3.026345557199e+01 
1 -1.508440173111e+01   2.606366151934e+01  -3.639184390814e+01 
1 -2.847433334055e+01  -1.319518030639e+00   2.162138942825e+01 
1  3.065557821568e+01  -4.779664732258e+01  -5.748054605287e+01 
1 -2.903945646134e+01  -5.765297040723e+01  -5.248488566381e+01 
8
Step 5400
1  5.507205531124e+01  -2.673319273750e+01   4.403336777371e+01 
1 -2.323676454196e+01   8.038100462825e+01   5.356330586047e+01 
1 -1.250227375268e+01  -2.228498209503e+01   8.939351727946e+00 
1  3.408464015695e+01  -5.967975565394e+01   4.953372172152e+01 
1 -1.910924304804e+01   3.611549815659e+01  -2.259572751880e+01 
1 -2.078379208138e+01   1.698895901634e+00   3.530316215552e+01 
1  2.831365603644e+01  -2.816463005919e+01  -3.662954851695e+01 
1 -4.632486127405e+01  -3.668951004844e+01  -5.918558181531e+01 
8
Step 5500
1  3.063263653501e+01  -3.582282870510e+01  -1.145328611132e+00 
1  2.640193528234e+01   4.701288320434e+01   1.917286524764e+01 
1 -3.140809362603e+01   1.813679921494e+01   3.947750936673e+00 
1  3.846263769926e+01  -7.247916762254e+01   6.894601997842e+01 
1 -5.777120127540e+00   2.154849468161e+01   2.702005385599e+01 
1 -9.040685771882e+00  -3.820794124496e+00   2.848790160097e+01 
1  6.977799884864e+01  -4.291260982956e+01  -3.929392749028e+01 
1 -1.704219717033e+01  -3.346173304093e+01  -2.951211460259e+01 
8
Step 5600
1  3.480666720626e+00  -5.996811837113e+01  -2.901695106808e+01 
1  4.156531539461e+01   2.700445263487e+00  -1.461557075401e+01 
1 -3.050637148987e+01   3.625258890116e+01  -1.095082435636e+01 