8
Step 0
1 -2.158830235783e+02  -3.142408652792e+02   1.167810667624e+02 
1  3.296897109744e+02  -5.507807655964e+02   2.693926396295e+02 
1 -2.669372731777e+02  -5.431606441563e+02  -6.222014149850e+01 
1 -3.552929618605e+01  -4.177581202499e+02  -5.317095545143e+02 
1  6.240102309409e+02   4.422151443761e+02  -5.955950649110e+02 
1  2.819999597600e+02  -3.673184511150e+02   2.540559007329e+02 
1  8.371624351045e+01   3.742086875642e+01  -2.962222465916e+02 
1  3.559014991594e+02   1.441370710462e+02   6.379664327236e+02 
8
Step 100
1 -2.041328071479e+02  -2.635267572026e+02   1.352044303902e+02 
1  3.018600385665e+02  -4.595969001886e+02   2.256536580493e+02 
1 -2.658692015054e+02  -4.450409260556e+02  -4.569277268538e+01 
1 -1.566391665726e+01  -3.634997779439e+02  -4.813378070317e+02 
1  5.273632957522e+02   4.127244715683e+02  -5.028492049770e+02 
1  2.524310357924e+02  -2.918014184808e+02   2.055912118066e+02 
1  5.436306084986e+01   1.460255628120e+01  -2.527914715521e+02 
1  3.443301476253e+02   9.207002428980e+01   5.657110972048e+02 
8
Step 200
1 -1.741733351149e+02  -1.808577737640e+02   1.498922530826e+02 
1  2.365500512202e+02  -2.767218998596e+02   1.264091029292e+02 
1 -2.372157053464e+02  -2.845887963525e+02  -4.003220707458e+01 
1  2.183263021854e+01  -2.275350310913e+02  -3.859768754219e+02 
1  3.600563934998e+02   3.416029781813e+02  -3.108095758960e+02 
1  1.890278721983e+02  -1.811170704432e+02   1.175488040837e+02 
1 -9.679125964246e-01  -1.207675726187e+01  -2.078900084702e+02 
1  3.368311195634e+02  -1.288737895194e+01   4.125998102198e+02 
8
Step 300
1 -1.386690533543e+02  -1.163717841120e+02   1.326499260680e+02 
1  1.831041213779e+02  -1.158878128173e+02   5.439798928027e+01 
1 -2.011692059835e+02  -1.665720912259e+02  -2.430965620293e+01 
1  3.506604829820e+01  -9.991017432743e+01  -2.914341290570e+02 
1  2.251128688146e+02   2.643471659977e+02  -1.636168532437e+02 
1  1.162863528413e+02  -1.045086638524e+02   3.494539791827e+01 
1 -6.191952749512e+01  -2.266083211708e+01  -1.853094330304e+02 
1  3.122574199282e+02  -9.436774088943e+01   2.630044378350e+02 
8
Step 400
1 -9.558782796977e+01  -6.858465284351e+01   1.105863371046e+02 
1  1.370780457304e+02  -2.522133765024e+01   3.141514068380e+01 
1 -1.738046593319e+02  -1.103484104529e+02  -4.383120961867e+01 
1  3.296091459728e+01  -1.656025814962e+01  -2.269843388785e+02 
1  1.315271236049e+02   1.753651222075e+02  -7.045669659100e+01 
1  7.708065143208e+01  -3.725944758827e+01  -4.035423514262e+01 
1 -1.052817642880e+02  -5.009891091210e+01  -1.568649426782e+02 
1  2.403562445552e+02  -1.450707553843e+02   1.449962237810e+02 
8
Step 500
1 -7.375651666523e+01  -2.525611156659e+01   9.989535558537e+01 
1  9.876090453998e+01   1.748051579650e+01   5.528255299675e+01 
1 -1.202703680031e+02  -6.375114067977e+01  -5.966731421814e+01 
1  2.544268157674e+01   3.902715368011e+00  -1.779258074424e+02 
1  6.725206588022e+01   9.691113202620e+01  -1.887449259152e+01 
1  5.259687037186e+01  -5.441242464286e+00  -8.819174842405e+01 
1 -1.399058442807e+02  -5.050001275008e+01  -1.241889218147e+02 
1  1.715909896534e+02  -1.395899557201e+02   7.604236526343e+01 
8
Step 600
1 -8.452254099391e+01  -2.695277409529e+00   9.341361303775e+01 
1  7.216547532772e+01   3.448460524119e+01   8.860435746805e+01 
1 -8.724714323640e+01  -4.875634069540e+01  -7.659481690442e+01 
1  2.098401117484e+01  -2.616911125390e+00  -1.073997305987e+02 
1  3.527214814128e+01   5.469959129116e+01  -5.115343760124e+00 
1  2.704949038156e+01   2.626900180270e+01  -9.581167635267e+01 
1 -1.478324855022e+02  -2.336743393488e+01  -7.969876444233e+01 
1  1.071362766121e+02  -1.199789185351e+02   1.949594463798e+01 
8
Step 700
1 -6.983638120113e+01  -5.734037528594e+00   6.225473059270e+01 
1  4.468152972041e+01   5.626689125985e+01   8.286473847668e+01 
1 -7.455476247129e+01  -5.035892685482e+01  -4.663046449285e+01 
1  2.219724500422e+01  -3.158531890817e-01  -8.452780558512e+01 
1  2.974382289992e+01   2.691082516437e+01  -1.039253171218e+01 
1 -1.163377185619e+00   4.754225753626e+01  -9.386971133437e+01 
1 -1.234020440370e+02  -2.496506412971e+01  -6.633068472698e+01 
1  5.185073220313e+01  -1.103305332435e+02  -1.696149483125e+01 
8
Step 800
1 -5.887641120568e+01  -2.131756225243e+01   6.951731243531e+01 
1  5.107306680554e+01   6.244872317545e+01   7.448878625638e+01 
1 -3.963219007387e+01  -4.999971336570e+01  -1.706545859160e+01 
1  2.724571321352e+01  -2.194361829946e+01  -7.212399385984e+01 
1  4.165815850133e+01   1.122044516739e+01  -8.880728584034e+00 
1  3.630786804992e-01   5.551359203510e+01  -7.346692019683e+01 
1 -9.669969043704e+01  -3.594183921418e+01  -4.816583866439e+01 
1  2.908790381357e+01  -8.673318839323e+01  -3.507796616817e+01 
8
Step 900
1 -3.461189837557e+01  -3.429078433287e+01   5.929435126377e+01 
1  5.705196487823e+01   6.248988049939e+01   7.467517040526e+01 
1 -2.799096067420e+01  -3.819619158431e+01  -4.173874022077e+00 
1  1.911974910852e+01  -2.873155471772e+01  -4.470367417470e+01 
1  5.161365722191e+01   1.168556789037e+01  -2.136882859597e+01 
1  5.007675845227e+00   4.737784345046e+01  -3.749655564415e+01 
1 -5.636154471302e+01  -3.565192465604e+01  -3.106658696910e+01 
1 -1.333865519687e+01  -6.009558144188e+01  -5.370779247140e+01 
8
Step 1000
1 -1.082868062713e+01  -3.207521698735e+01   5.813390630911e+01 
1  4.577465879252e+01   7.464642129220e+01   3.844739071226e+01 
1 -3.508364177257e+01  -2.939577230840e+01  -2.871116676766e+00 
1  1.042721535452e+00  -5.020544154272e+01  -2.097682154925e+01 
1  7.025161641082e+01   1.962258685278e+01  -4.465527038866e+01 
1 -4.926153268452e+00   1.443649130505e+01   6.816729624359e+00 
1 -3.364153339189e+01  -1.562407148282e+01  -3.011208150858e+01 
1 -2.614459880580e+01  -5.020053935394e+01  -4.914029000830e+01 
8
Step 1100
1  1.684016071763e+00  -1.661415202659e+01   4.844805349402e+01 
1  3.006046057170e+01   6.797338528818e+01  -1.405891943260e+01 
1 -4.805019063915e+01  -2.456148393512e+01   1.741370044231e+01 
1  9.792593943706e+00  -4.694126310513e+01  -2.259894753609e+01 
1  6.520823837668e+01   2.561905017376e+01  -4.709476558818e+01 
1  2.044228121202e+00  -1.290348912511e+01   2.361568469624e+00 
1 -3.494142237202e+01  -4.489996097268e+00  -4.676831784187e+01 
1  9.637042230796e+00  -5.219425625348e+01  -3.717346533320e+01 
8
Step 1200
1  1.915926908344e+01  -7.409327633408e+00   1.543316703752e+01 
1  1.722869834835e+01   7.736893210883e+01  -3.858701033508e+01 
1 -4.757280837515e+01  -2.227546826917e+01   4.479956318683e+01 
1  4.555977183120e+01  -1.721197649905e+01  -2.498745494673e+01 
1  4.067485508606e+01  -7.856989617080e-01  -3.401643391007e+01 
1  2.173196282366e+01  -2.265650773215e+01  -4.315568716943e+00 
1 -1.740714131819e+01   6.069548653094e+00  -5.666870890339e+01 
1  3.444948296737e+01  -4.868958496268e+01  -1.186863516210e+01 
8
Step 1300
1  1.483547225542e+01   6.936070190720e+00   3.315302009861e+01 
1 -1.000585735461e+01   6.645628533238e+01  -2.223799204707e+01 
1 -2.871350102261e+01  -1.493178693063e+01   5.222611614320e+01 
1  5.074693526858e+01   8.677372326771e+00  -4.187042954116e+01 
1  1.148734585865e+01  -1.942189794426e+01  -3.244743847627e+01 
1  3.961784777050e+01  -5.749744535606e+00   9.720503805423e+00 
1 -1.062385824712e+01   2.401833771687e+01  -6.454456028650e+01 
1  4.711617043455e+01  -4.257038714472e+01   9.257085252690e+00 
8
Step 1400
1  8.181588377227e+00   2.327632163127e+01   4.584468743315e+01 
1 -2.897227439770e+01   5.283718966425e+01  -1.123235142342e+01 
1 -1.705166115556e+01  -1.169970968466e+01   3.249203883244e+01 
1  4.498198660162e+01   4.812789852939e+01  -4.268229745709e+01 
1 -1.967934833721e+01  -1.792914957261e+01  -2.581915628691e+01 
1  4.290891036918e+01   1.481184747873e+01   5.860067452454e+00 
1 -1.585000335769e+01   1.694638789932e+01  -5.156253080888e+01 
1  7.258339710542e+01  -1.125308824678e+01   1.817755550570e+01 
8
Step 1500
1 -1.876167122233e+01   3.225337167232e+01   3.927673323111e+01 
1 -9.783786648141e+00   2.212351109813e+01  -7.830451616767e+00 
1 -2.508806235562e+01  -3.350372324721e+01  -1.055570809184e+00 
1  2.137316904109e+01   5.069532358517e+01  -4.906701266317e+01 
1 -2.699454572530e+01   4.130028561009e+00  -1.067564047766e+01 
1  1.903753502050e+01   2.361872868863e+01   1.578829415784e+01 
1  4.170233854548e+00   6.053382845072e+00  -2.767242109229e+01 
1  6.358268047684e+01   8.976588005436e+00   2.414577895778e+01 
8
Step 1600
1 -1.881438207400e+01   3.004518226126e+01   2.794601051143e+01 
1  6.295672985686e+00   9.838203150240e+00   7.288348525800e+00 
1 -3.932715525396e+01  -2.767029275175e+01  -1.734694044888e+01 
1  2.991840013409e+01   4.593403339313e+01  -4.015823350407e+01 
1 -5.728121045673e+01   4.768540953060e+01  -3.124449089596e+00 
1  1.851051851988e+00   9.325480044779e+00   2.522341725393e+01 
1  2.377801013523e+01  -1.382885840127e+01   7.051215103767e+00 
1  4.170560189877e+01   7.800524045680e+00   1.872729100372e+01 
8
Step 1700
1 -1.976497801282e+01   2.665493294533e+01   2.161602670535e+01 
1  1.934837346501e+01   1.328299523021e+01   5.127289267483e+00 
1 -5.425029693201e+01  -3.766412366445e+01  -1.386684189396e+01 
1  4.485452669810e+01   2.970475623735e+01  -4.784213896785e+01 
1 -4.377870625233e+01   6.591921331777e+01  -1.650053145290e+01 
1  4.233436262187e+00   1.620017572983e+01   2.303774123758e+01 
1  4.070572668568e+01  -1.586842314823e+00   6.133711319040e+00 
1  2.761575410820e+01  -3.481058641345e+00   1.741046405103e+01 
8
Step 1800
1 -5.124106835745e+00   4.889906155054e+01   1.233460416579e+00 
1  1.279287508580e+01   4.483927974999e+00  -2.121703761753e+01 
1 -4.887056725156e+01  -2.638521960569e+01  -8.260117073544e+00 
1  6.978399587256e+01   1.660668294069e+01  -4.882890638918e+01 
1 -1.403484596431e+01   5.793588200874e+01  -1.472872553925e+01 
1  8.991985738302e+00   2.547138831378e+01   1.609341934952e+01 
1  3.323277190344e+01   1.920618007575e+01   2.347058031120e+01 
1  1.914101007502e+01  -1.306417910934e+01   1.380481407189e+01 
8
Step 1900
1  2.145564695312e+00   6.144410702423e+01  -1.057465133052e+01 
1 -7.121178651307e+00   7.444322776446e+00  -3.146465470043e+01 
1 -4.271333969697e+01  -1.891743179443e+01   1.950113763140e+00 
1  6.825149718192e+01  -1.136936014243e+01  -5.419744533083e+01 
1 -1.918396949763e+00   7.568364361653e+01   1.611890790816e-02 
1  2.160004776897e+01   2.558209487769e-01  -7.595241560346e+00 
1  4.263470683928e+01   2.356736129550e+01   3.140297338480e+01 
1  3.170559682321e+01  -2.226896246387e+01   7.844790932923e+00 
8
Step 2000
1  1.456013542917e+01   4.817694549594e+01  -3.217425641638e+01 
1 -8.975794243462e+00  -6.155674891605e+00  -3.352946176900e+01 
1 -2.885525005056e+01  -2.467090203361e+01   3.019360285068e+00 
1  6.295556704566e+01  -2.344071775289e+01  -4.644400795995e+01 
1  8.735105408231e+00   9.435906600563e+01  -3.399688144717e+00 
1  2.517392540840e+01  -1.195874875615e+01  -8.738579135184e+00 
1  5.176883011249e+01   3.245410645220e+00   6.260830279940e+01 
1  2.832662503031e+01  -1.302762623963e+01   8.039224819921e-01 
8
Step 2100
1  2.978140105468e+01   4.550759789570e+01  -4.840883785560e+01 
1 -9.297658244109e+00  -4.638079607815e+01  -2.574116628966e+01 
1 -1.848646499591e+01  -3.303882201341e+01  -4.579203830049e+00 
1  5.780820348181e+01  -1.097577766305e+01  -2.986675793176e+01 
1  4.426775829128e+01   9.995530453718e+01  -1.137859000675e+01 
1  1.737053635041e+01  -1.097234375772e+01  -3.641812272851e+00 
1  5.816056814145e+01  -2.474894841627e+01   8.608342991553e+01 
1  1.291038630556e+01  -8.480826721416e+00  -1.326651434873e+01 
8
Step 2200
1  2.165623955531e+01   2.720112842042e+01  -3.811574226336e+01 
1 -2.643854735305e+01  -8.351129140557e+01  -2.763895618466e+00 
1 -4.971030482241e+01  -5.100128480819e+01  -2.440591403973e+01 
1  3.098106955103e+01  -9.753771022641e-01  -3.525401010087e+00 
1  8.187035272220e+01   7.630539981210e+01   1.091730430128e+00 
1  1.262214336690e+01  -2.474277454223e+01  -7.962196253818e+00 
1  4.562805792560e+01  -2.473358470715e+01   6.907178877476e+01 
1 -2.794211034768e+00  -1.372747544187e+01  -5.240514431986e+00 
8
Step 2300
1  1.194055597444e+01   8.610185186801e-01  -1.716010289782e+01 
1 -4.371648247720e+01  -9.093494087956e+01   2.672774623700e+01 
1 -5.807139584394e+01  -5.533446098906e+01  -2.074342687994e+01 
1  1.784591323879e+01   1.683915576299e+01  -1.216338576158e-01 
1  7.915770304501e+01   4.997476871805e+01   1.105381229242e+01 
1 -9.818787241364e+00  -2.461350162219e+01  -1.473098238604e+01 
1  1.955056661597e+01   1.814943889203e+01   4.971915924611e+01 
1  2.339621531565e-01  -5.520429912173e+00   5.315074563384e+00 
8
Step 2400
1 -1.309864581547e+01   1.211098574937e+01   2.389701465520e+01 
1 -2.925521402743e+01  -8.919874580099e+01   3.386530631276e+01 
1 -4.738205064594e+01  -6.608979125788e+01  -1.002295036630e+01 
1  3.332994304952e+00   3.326179133139e+01   1.371638190124e+00 
1  5.623311944775e+01   1.534596416555e+01   2.893565938243e+01 
1 -1.743325736520e+01  -2.293240127956e+00  -1.820801966169e+01 
1  1.406931318576e+01   4.928107297954e+01   3.274561978434e+01 
1  2.854457190483e+00  -7.433018610177e+00  -1.042008596817e+01 
8
Step 2500
1 -3.838178862770e+01   2.229395999296e+01   2.938498014974e+01 
1 -2.361291024533e+01  -1.021648741817e+02   2.235913727064e+01 
1 -1.238580202235e+01  -4.120617197190e+01  -4.899861811202e+00 
1 -2.049402951939e+01   2.760495545868e+01   2.884510136210e+01 
1  1.691375786856e+01   1.756853037774e+00   1.622193542764e+01 
1 -2.639618112831e+01   3.083780707771e+01   1.183140355229e+01 
1  2.643679007786e+01   4.576405796750e+01   2.178624990908e+01 
1  1.411321633158e+01  -6.226511835055e+00  -3.764665783048e+01 
8
Step 2600
1 -3.462180341425e+01   4.504624205462e+01   1.645579622916e+01 
1 -1.735665926859e+01  -8.709288639074e+01   1.912018945775e+01 
1 -9.698525277934e+00  -2.435335619526e+01  -1.286015193182e+01 
1 -1.189827244854e+01   2.282933618127e+01   2.064139390069e+01 
1 -1.418449981131e+01  -2.604881751345e+00  -2.471821165820e+00 
1 -3.712209481445e+01   4.890671944460e+01   5.014277588275e+01 
1  2.751287589495e+01   1.431719679912e+01   2.405277388362e+01 
1  3.444068125930e+01   1.074574219272e+01  -7.175825318791e+01 
8
Step 2700
1 -1.683622017396e+01   3.478916877866e+01  -8.502201461832e+00 
1 -1.163604857112e+01  -4.515451597286e+01   1.190336052906e+01 
1 -2.995437649263e+01  -2.308491366169e+01  -2.071303868412e+01 
1  7.703301985685e+00   3.173910759484e+01  -5.905542310989e-01 
1 -4.516935584134e+01  -1.274024209338e+01  -1.037955774632e+01 
1 -4.673898552153e+01   7.731205291529e+01   6.894022097076e+01 
1  2.329858309263e+01  -4.152092289750e+01   9.122641811261e+00 
1  2.838463723767e+01   2.124782497415e+01  -7.236938263435e+01 
8
Step 2800
1  1.437117968067e+01   3.772171195819e+01  -1.952067144318e+00 
1 -1.857975967956e+00  -2.123673442607e+01   2.962723944920e+00 
1 -4.720594636387e+01  -1.538161914499e+01  -2.220067832103e+01 
1  1.663709210556e+01   5.400055541950e+01  -1.011560336602e+01 
1 -3.955276304317e+01  -8.193606427989e+00  -1.599259268075e+01 
1 -3.095015839773e+01   9.678232393726e+01   6.655680087327e+01 
1  1.492992960173e+01  -9.500998388614e+01   7.297393450143e+00 
1  3.612581239913e+01   2.009956292283e+01  -5.389264268118e+01 
8
Step 2900
1  3.579944465803e+01   4.582129639914e+01   1.900961014317e+01 
1  1.680437529581e+01  -2.412462380394e+01   3.278290888330e-02 
1 -5.545399701921e+01  -3.153916078257e+01  -2.236442524561e+01 
1  1.240010193291e+01   4.110642212640e+01  -2.261291686055e+01 
1 -3.069678402141e+01  -7.783088324208e+00  -9.707381884735e+00 
1 -2.202507288278e+01   1.022995766119e+02   6.427014563839e+01 
1 -2.656604733608e+01  -1.069391385932e+02  -1.483678465377e+01 
1  6.148502722536e+01   2.069893041503e+01  -4.295375221079e+01 
8
Step 3000
1  4.841732229717e+01   2.259868998436e+01   2.716077460966e+01 
1  1.449342175421e+01  -7.334213238910e+00  -7.806977772955e-01 
1 -3.845060903720e+01  -4.506870158802e+01  -1.541416212857e+01 
1  1.986170797277e+01   2.254426323625e+01  -9.255752180908e+00 
1 -1.480258383556e+01  -1.335056833700e-01  -1.188797319831e+01 
1 -2.694560341821e+01   8.844660554847e+01   6.581798519457e+01 
1 -6.072395247734e+01  -1.036917909440e+02  -2.295180612328e+01 
1  8.080382863852e+01  -1.562898947028e+01  -4.065398176130e+01 
8
Step 3100
1  2.605506592136e+01   2.238774770597e+01   3.225457967816e+01 
1  2.426624045149e+01  -1.665216577749e+01  -1.905818922367e+01 
1 -1.665565797240e+01  -6.239046954498e+01  -2.533785809940e+01 
1  2.602295019555e+01   2.008589198118e+01  -1.109691890142e+01 
1 -1.406721837085e+01   2.220020898121e+01  -4.289235056936e-01 
1 -2.276118459447e+01   8.211807566924e+01   7.075226676127e+01 
1 -5.442598530154e+01  -8.051141173708e+01  -1.879796165403e+01 
1  5.768585939841e+01  -5.597103499790e+01  -4.711343277314e+01 
8
Step 3200
1  8.071842961295e+00   2.160507773197e+01   2.857343339916e+01 
1  3.059867815775e+01  -1.988169113482e+01  -4.252988284995e+01 
1  1.787334547776e+01  -5.539831738946e+01  -8.151548187506e+00 
1  2.741890625448e+01   4.080153220087e+01  -1.899110338895e+01 
1 -2.143371157436e+01   2.426444209504e+01   6.097042711143e+00 
1 -1.935768294830e+01   8.061328810582e+01   7.244017889535e+01 
1 -3.803334057222e+01  -6.197722692139e+01  -5.800112861606e+00 
1  4.963154109263e+01  -6.725422839180e+01  -5.251095907607e+01 
8
Step 3300
1  2.715289019254e+00   4.135922433960e+01   1.331256408986e+01 
1  2.078269703518e+01  -3.139953746986e+00  -2.828766970266e+01 
1  5.095606890902e+01  -4.986853491340e+01   2.182454671357e+01 
1  3.882117322537e+01   4.119874673020e+01  -2.172477824482e+01 
1 -3.890398220504e+01   2.842922257050e+00  -4.630057185009e+00 
1 -2.145995804943e+01   5.650304875804e+01   4.288149302008e+01 
1 -2.366957870102e+00  -3.326763015242e+01  -1.735825935403e+01 
1  1.265973462601e+01  -5.735298524483e+01  -3.406657875400e+01 
8
Step 3400
1 -1.031249680007e+01   3.766696756218e+01   2.182080762958e+01 
1  3.488188010025e+00   8.146923328198e+00  -6.802774506272e+00 
1  6.255423194178e+01  -2.117012084270e+01   3.201454526218e+01 
1  1.515934408428e+01   8.120005901937e-01  -1.065732012482e+01 
1 -3.356320498819e+01  -1.926691720612e+01   2.058547374218e+01 
1 -3.145580502937e+01   2.319843288592e+01   2.986723265986e+01 
1  7.679812830186e+00  -3.586223791326e+01  -4.172001705371e+01 
1 -1.597536977339e+01  -4.124172249986e+01  -3.177072188599e+01 
8
Step 3500
1  1.481775710007e+00   6.932721400790e+00   4.394180389825e+01 
1  3.951017425456e+00  -5.729518166758e+00   1.588358044483e+01 
1  4.485278220271e+01  -2.873666203901e+00   2.414882680134e+01 
1  1.352090659456e+01  -4.047498671455e+01   4.507770087286e+00 
1 -2.685107030824e+01  -2.981926256195e+01   5.706266041195e+01 
1 -3.111294658770e+01   7.436826063636e+00   2.380946699674e+01 
1 -2.946338579361e+01  -4.856647197439e+01  -4.928482529285e+01 
1 -3.010021167401e+01  -3.846387108305e+01  -3.824726519592e+01 
8
Step 3600
1  2.488595721869e+01  -1.895020564234e+01   5.067483366976e+01 
1 -1.729256137942e+01  -1.158682541323e+01   2.378658825636e+01 
1  3.615945324071e+01   8.514695406891e+00   1.536885121593e+01 
1  1.403101099674e+01  -6.199317740872e+01   3.566904790931e+01 
1 -1.931553650994e+01  -4.071062249097e+01   7.733636379422e+01 
1 -3.453473715143e+01   1.352976654569e+01   1.106144731549e+01 
1 -6.333495329538e+01  -5.055547732210e+01  -5.216468268486e+01 
1 -2.833387943580e+01  -2.934729824946e+01  -1.590440236735e+01 
8
Step 3700
1  2.194254284385e+01  -5.130544017723e+00   4.735545732516e+01 
1 -3.198498889018e+01  -3.877469549085e+00   1.421292192020e+01 
1  3.852310035488e+01  -1.303162725758e+00   1.244371561827e+01 
1  1.952946029330e+01  -4.488134606398e+01   4.731442395446e+01 
1 -1.207134079441e+01  -3.919696584437e+01   7.354224811100e+01 
1 -2.025086333188e+01   1.434177787625e+01   2.256109561463e+01 
1 -6.481800004118e+01  -4.365209721293e+01  -2.564137849625e+01 
1 -1.788369083114e+01  -1.106425977939e+01   1.627330194199e+01 
8
Step 3800
1 -6.417839841994e+00   2.300890006045e+01   4.837407959499e+01 
1 -3.719907324506e+01   1.198388241551e+01   1.033841531031e+01 
1  4.020308172508e+01  -1.107599981804e+01   1.815047818975e+01 
1  3.181214607986e+01  -5.161964229622e+01   3.086863962085e+01 
1  1.009520132961e+00  -3.366340983047e+01   6.479214629443e+01 
1 -1.405099530824e+01  -1.164365069200e+01   2.852928864625e+01 
1 -4.293081379206e+01  -2.989607131601e+01  -6.952786259409e+00 
1 -1.238671789678e+01   7.825439366498e+00   2.898091776129e+01 
8
Step 3900
1 -1.537130146420e+01   1.686108950099e+01   2.747912761875e+01 
1 -3.303556927085e+01   2.611797713099e+01   1.853173247287e+01 
1  2.375942931980e+01  -1.543496718530e+00   2.309917756748e+01 
1  2.275517082317e+01  -3.264106724796e+01   7.534565027110e+00 
1  8.812493410207e+00  -1.719142994563e+01   2.799799667795e+01 
1 -2.043841438539e+01  -1.100466428030e+01   1.963596697771e+01 
1 -4.480282148137e+01  -1.903507810134e+01   1.713136789316e+01 
1  4.302293471001e+00   2.071160817832e+01   1.497327396792e+01 
8
Step 4000
1 -1.313703508384e+01   2.183167641352e+01   8.928662767219e+00 
1 -1.164604691887e+01   1.323853409735e+01  -9.797215186509e-01 
1  1.536027992803e+01   2.319530559214e+01   1.851503878440e+01 
1  8.648384726910e+00  -2.958762282153e+01  -2.306703534085e+01 
1 -7.754239628752e+00   1.306975578918e+01   8.683400009694e+00 
1 -3.594119265839e+00   1.421738540702e+01   2.106403947044e+01 
1 -3.142318715375e+01   1.563766191947e+01   3.634991476700e+01 
1  1.021964185171e+01  -7.936426855697e+00   8.071787734552e+00 
8
Step 4100
1 -1.817861847562e-01   3.188328279159e+01  -1.237209013497e+00 
1 -8.476435580586e+00   7.754860961025e+00  -1.731852774773e+00 
1 -7.318807389400e+00   3.025899922267e+00   2.263020928135e+01 
1  6.352076328852e-01  -4.523479626677e+00  -2.389638680112e+01 
1 -2.940910877066e+01   3.852830952546e+01  -1.394861209954e+01 
1 -9.547928679382e-01   5.051815566321e+00   1.235280656096e+01 
1 -2.721244211081e+01   4.755881391038e+01   1.102498150709e+01 
1  3.101071199707e+01  -4.382431157867e+01   1.269566963773e+00 
8
Step 4200
1 -1.242592217444e+01   1.962611594679e+01  -1.462078467143e+01 
1 -3.236641982048e+00  -6.299994440587e-01   7.820589634834e+00 
1 -3.327840082018e+01   1.478983281681e+00   2.673454403647e+01 
1  3.076103070083e+01  -2.435407526406e+01   2.346592191808e+01 
1 -3.430596461750e+01   3.369601464510e+01  -5.243260347154e+00 
1 -3.965220456875e+00  -2.243187822031e+00   4.435539599930e+00 
1 -4.279724422714e+01   5.469610140474e+01  -3.414433910019e+01 
1  1.360154828762e+01  -4.572879929159e+01  -3.072831602416e+00 
8
Step 4300
1 -3.875080053421e+01   1.669913948186e+01  -2.079415402430e+01 
1  1.274109194123e+01  -3.575186744253e+00   1.971180814653e+01 
1 -5.497051504659e+01   1.009498258935e+01   3.135721368548e+01 
1  4.580082011191e+01  -3.421173872275e+01   2.361944776842e+01 
1 -3.606231406472e+01   1.362908703601e+01  -1.816953371446e+01 
1  6.840047375281e+00  -5.240494480584e+00  -2.264105186247e+01 
1 -3.754113212318e+01   3.603361708166e+01  -6.311993996003e+01 
1 -1.542027169360e+01  -2.512084429938e+01  -4.850268517562e+00 
8
Step 4400
1 -4.325669372040e+01   1.004222091895e+01  -2.934806428340e+00 
1  5.081001557231e+00   2.479432096658e-01   1.955028479909e+01 
1 -6.340534526172e+01   7.035832731625e+00   3.904060876386e+01 
1  4.678094958536e+01  -2.735258115801e+01  -1.514467342579e+00 
1 -5.341732699500e+01   3.039469213799e+01  -3.858566573483e+01 
1  1.699012960668e+01  -7.736376351228e+00  -3.668662485688e+01 
1 -1.052128048594e+01   1.801487637763e+01  -4.276271982930e+01 
1 -1.098385621920e+01   1.119891972640e+01  -8.992525945992e+00 
8
Step 4500
1 -2.152441472590e+01   1.833578471878e+01   2.485092880125e+01 
1 -4.882575768143e+00  -1.033772395724e+01   1.353871052352e+01 
1 -7.577144314213e+01   2.338162949401e+01   2.316120810559e+01 
1  4.478685095111e+01  -2.777277641576e+01  -1.696413490742e+01 
1 -6.961533583396e+01   4.256952153041e+01  -4.678516592707e+01 
1  1.096266926879e+01   1.491035213189e+01  -3.561179430370e+01 
1  8.005059080131e+00   4.253392668983e+01  -2.345085201866e+01 
1 -1.550824678534e+01   2.819729482262e+01  -1.253226373983e+01 
8
Step 4600
1  1.283667980868e+01   2.121922619243e+01   4.983052519240e+01 
1 -1.089492296892e+01  -6.042985331910e+00   1.568581132082e+01 
1 -7.942522671541e+01   2.335876179677e+01   7.388117352607e+00 
1  4.565655066923e+01  -2.038860579379e+01   3.405301520369e+00 
1 -5.689026913397e+01   5.520324574992e+01  -6.200466430892e+01 
1  6.990099458888e+00   1.339918539247e+01  -2.086328712243e+01 
1 -1.378426057926e+00   4.476713014255e+01   1.931608196965e+01 
1 -4.106843104921e+01   2.397197150374e+01  -7.183453977340e+00 
8
Step 4700
1  1.203840861452e+01   9.138749592777e+00   4.902574945951e+01 
1 -8.891238370687e+00  -1.118951903108e+01   8.905801878472e+00 
1 -7.613522977870e+01   1.851593185298e+01   7.709368677215e+00 
1  1.960541449830e+01  -2.103012237548e+01   4.638831110263e+01 
1 -4.575543621779e+01   6.100335261845e+01  -5.388420187562e+01 
1 -1.893275928778e+01  -1.862514778690e+01  -2.663090532681e+01 
1 -4.807035873734e+00   5.974547575479e+01   4.093780152180e+01 
1 -3.839747208489e+01   2.056432383697e+00  -1.325110650839e+01 
8
Step 4800
1 -8.404352187414e+00  -1.658138599275e+01   2.547809893404e+01 
1  1.766367710675e+00  -4.204211394523e+01   1.690902056283e+01 
1 -6.203490607547e+01   2.832283435955e+01   2.053932070053e+01 
1  6.317398395476e-01  -3.057582015763e+01   5.211176258276e+01 
1 -2.283684567871e+01   7.035081612985e+01  -4.796568688522e+01 
1 -2.903315070738e+01  -3.362439357136e+01  -3.173129111563e+01 
1  9.808348496589e+00   5.664724553341e+01   3.490802175761e+01 
1 -1.843168554140e+01  -2.578124885944e+00  -1.795725978325e+01 
8
Step 4900
1 -3.063406048142e+01  -1.088675357215e+01   1.102644514156e+01 
1  1.437533154723e+01  -5.498385442247e+01   2.039715416231e+01 
1 -6.879708745507e+01   4.617434324106e+01   2.890749910823e+01 
1 -2.602017988236e+01  -1.824960608434e+01   3.281181098183e+01 
1 -9.613574040091e-01   6.372827005543e+01  -6.262773155666e+01 
1 -3.383846638304e+01  -3.240641579375e+01  -2.223430048666e+01 
1  1.553136149707e+00   4.211283330844e+01   8.182444329887e+00 
1 -1.285254830304e+01  -1.254048880408e+01  -1.701681831599e+00 
8
Step 5000
1 -1.313157459704e+01   7.410474398499e-01   2.112240789413e+01 
1  8.975207373470e+00  -7.611461472986e+01   3.742783709260e-01 
1 -7.695843538585e+01   3.373261547622e+01   3.126145522350e+01 
1 -6.490574226354e+01  -3.119978458120e+00   3.800685517677e+01 
1  1.093706081849e+01   4.957529198594e+01  -6.792244011096e+01 
1 -2.815846769630e+01  -3.348859399739e+01  -2.001110598163e+01 
1  7.790175903680e+00   1.716006444841e+01  -2.030360215729e+01 
1 -2.657980741961e+01  -4.061356879667e+01  -7.250170492120e+00 
8
Step 5100
1  5.854377378747e+00   2.244060439145e+01   1.618326366707e+01 
1 -6.826472299573e+00  -4.269275078484e+01  -2.298016874215e+01 
1 -7.058655801248e+01   2.520798568057e+00   1.846003192782e+01 
1 -6.800022938258e+01   4.817154322211e+00   2.425390564279e+01 
1  1.691650144222e+01   3.494919059516e+01  -3.397106628090e+01 
1  4.558561161522e-01  -3.780630166350e+01  -6.071907814573e+01 
1  6.518535008589e+00   2.825133639309e+00  -2.905854725564e+01 
1 -1.888714621954e+01  -4.391634037128e+01  -3.092620842916e+01 
8
Step 5200
1  1.050949136754e+01   5.056705011933e-01   1.713067295060e+01 
1 -1.153361692873e+01   2.548556771646e+00  -3.824968170242e+01 
1 -4.657222600523e+01  -2.258574691729e+01   1.527769500038e+01 
1 -5.711554896931e+01   6.552855884215e+00   1.230714131892e+01 
1  1.170569516398e+01   3.118692806030e+01   1.279210851924e+01 
1  1.614820039319e+01  -2.661536079536e+01  -6.304723388129e+01 
1  1.604442149699e+00  -3.706768705806e+00  -3.949596344878e+01 
1 -6.373382463013e+00  -4.379340252161e+01  -3.621568223179e+01 
8
Step 5300
1 -5.342252784338e+00  -2.192568390147e+01   2.755109672970e+01 
1 -2.943133378637e+01   3.000592468151e+01  -4.680720090246e+01 
1 -2.905791803508e+01  -3.401387027708e+01   4.279796357729e+00 
1 -5.505771975510e+01  -2.353817399308e-01   2.052785200958e+01 
1  1.263631750887e+01   2.590309382194e+01   4.338677418246e+01 
1  3.199934525718e+01  -3.776234430265e+01  -3.704820511874e+01 
1  5.639774893711e+00   3.315664862184e+00  -3.797716461642e+01 
1  1.336972814814e+01  -4.958706639744e+01  -2.077290117299e+01 
8
Step 5400
1  9.107257335226e+00  -3.733613022969e+01   2.625320186315e+01 
1 -5.814203507250e+01   2.507523286244e+01  -3.718868005432e+01 
1 -5.307149380509e+00  -3.566570329283e+01  -1.221179621525e+01 
1 -4.148019502231e+01  -1.080301636036e+01   2.192843173387e+01 
1  1.007423020762e+01   2.072585951488e+01   4.911753970363e+01 
1  3.535420738711e+01  -3.810990044719e+01  -4.106616158489e+00 
1  2.195659199896e+01   8.953476187463e+00  -9.777854594629e+00 
1  1.731148069343e+01  -5.014961798673e+01  -7.563082119552e+00 
8
Step 5500
1  2.827793962640e+01  -2.673728334038e+01  -7.100461026652e-01 
1 -5.099872511882e+01   2.172957823439e+01  -2.535809864698e+01 
1  2.010156796964e+00  -2.417564839620e+01  -1.759687043736e+01 
1 -2.466722292927e+01  -3.422471045387e+01  -1.764315024648e+00 
1 -3.091778280952e+01   1.537571922517e+01   6.043445515200e+01 
1  2.304498281510e+01  -4.044279119574e+01   1.815048473463e+01 
1  3.585375853978e+01  -3.061018061072e+00   9.704536906610e+00 
1  2.814849876813e+01  -5.196814632683e+01   6.532744571577e+00 
8
Step 5600
1  3.399272600336e+01  -2.303389667892e+01  -1.815513820296e+01 
1 -2.046888201062e+01   2.081152906628e+01  -8.205000484385e+00 
1 -1.391144460607e+01  -8.917528484689e+00   9.577523880901e+00 