8
Step 0
1  5.854051177305e+02  -2.841389406478e+01   5.016505855149e+02 
1 -3.716605965379e+02  -3.157347621074e+02   6.502572045012e+02 
1  6.469245543057e+02  -5.810478960450e+02  -6.539554565289e+02 
1  6.340371909667e+01   1.021183614821e+02   9.520920988084e+00 
1  1.210770460596e+02  -1.049354269047e+02  -4.780773672669e+02 
1 -5.591487414874e+02  -2.585970701202e+02  -3.580310115032e+02 
1 -5.807987240504e+02  -1.777150272331e+02  -2.642056281941e+02 
1 -2.788968567768e+02  -6.514713253371e+02  -1.251377270472e+02 
8
Step 100
1  4.986106630371e+02  -9.007597011157e+00   4.389579607095e+02 
1 -3.314528348786e+02  -2.738427961918e+02   5.515250974160e+02 
1  5.589169320181e+02  -4.719279640851e+02  -5.870954146288e+02 
1  6.794043146025e+01   9.744358348627e+01   2.093924797985e+01 
1  1.141911793714e+02  -5.291280782567e+01  -4.112474940724e+02 
1 -5.086511375578e+02  -2.044235814849e+02  -3.100050793627e+02 
1 -5.235674895941e+02  -1.872448565013e+02  -2.292718849569e+02 
1 -2.169363426527e+02  -5.972849935210e+02  -7.946733574574e+01 
8
Step 200
1  3.284336895337e+02   2.968943672679e+01   3.043190263292e+02 
1 -2.253558328906e+02  -2.291285899648e+02   4.062246121832e+02 
1  3.849369475873e+02  -2.752005231388e+02  -4.766333844472e+02 
1  9.307708484008e+01   9.126239308403e+01   3.624400975915e+01 
1  1.136640371664e+02   3.357407746020e+01  -2.693502384830e+02 
1 -4.156306098537e+02  -9.393365212959e+01  -2.499647815328e+02 
1 -4.447833987811e+02  -2.000960332884e+02  -1.386859603891e+02 
1 -9.809291700457e+01  -4.943436404323e+02  -4.841947049336e+01 
8
Step 300
1  1.750734112576e+02   4.975177975105e+01   1.806131855614e+02 
1 -1.330664061424e+02  -1.961458191637e+02   2.620012613810e+02 
1  2.430844072550e+02  -1.308752424868e+02  -3.669530628374e+02 
1  1.054524075291e+02   5.304536813572e+01   3.189466792151e+01 
1  1.072137611240e+02   9.542955822652e+01  -1.663010468693e+02 
1 -2.982381428994e+02  -9.245116244346e+00  -1.914406480867e+02 
1 -3.616251160967e+02  -1.996303547596e+02  -3.855612576559e+01 
1  5.663251480097e+00  -3.860128028884e+02  -3.187844624615e+01 
8
Step 400
1  6.463568788026e+01   3.947800926668e+01   9.741381341914e+01 
1 -7.890994557126e+01  -1.422636981231e+02   1.498565671365e+02 
1  1.499026386787e+02  -3.105548552111e+01  -2.798672591900e+02 
1  1.188922157215e+02   2.327677682032e+01   1.442039117273e+01 
1  1.175818034567e+02   1.026111332779e+02  -1.070854640058e+02 
1 -1.879690367109e+02   3.707965701811e+01  -1.407154067887e+02 
1 -3.171550912282e+02  -1.789959496458e+02   1.349584642419e+01 
1  6.547901717486e+01  -2.809330349807e+02   5.338590034402e+00 
8
Step 500
1  2.115522571492e+01   3.128187181082e+01   5.492109937134e+01 
1 -4.278893861859e+01  -8.315937163628e+01   6.658742919394e+01 
1  1.035182206918e+02   8.233115542614e+00  -1.952653967463e+02 
1  1.318131481152e+02   9.572927000158e+00  -1.041718540660e+01 
1  1.299908130280e+02   8.783066990840e+01  -6.871274506251e+01 
1 -8.629536031783e+01   5.496620343915e+01  -9.879118280169e+01 
1 -2.610916307910e+02  -1.429878954836e+02   3.782265622313e+01 
1  8.586344932923e+01  -1.943852438152e+02   1.298123947812e+01 
8
Step 600
1 -2.990030229923e+00   2.508480163863e+01   2.869775492748e+01 
1 -5.183375613218e+00  -4.337150392787e+01   1.943194541933e+01 
1  8.263548651541e+01   3.556330681944e+01  -1.565281776489e+02 
1  1.384506631877e+02   2.117904816861e+01  -1.565567289384e+01 
1  1.399747088314e+02   8.410370165163e+01  -6.497358636161e+01 
1 -3.424054312211e+01   4.275769211208e+01  -6.677761773385e+01 
1 -2.049401757263e+02  -8.442041266756e+01   2.124138579277e+01 
1  8.158788661777e+01  -1.396760072341e+02   2.643265483954e+01 
8
Step 700
1 -8.144184101849e+00   1.083395613483e+01   6.931280328081e+00 
1  1.459198660031e+01  -4.246425419938e+01   1.162746623839e+01 
1  4.739739199291e+01   3.159091206479e+01  -1.323875069408e+02 
1  1.219003189227e+02   2.603964755303e+01  -5.290463467013e+01 
1  1.382178151534e+02   6.737838384924e+01  -7.731802964424e+01 
1 -2.664741747558e+01   3.970178415727e+01  -3.691140243078e+01 
1 -1.405241732175e+02  -4.695885831923e+01   1.046291348294e+01 
1  6.830095967626e+01  -9.839855734732e+01   4.155969045755e+01 
8
Step 800
1  2.337679328000e+01   1.273782024401e+01   8.669764275730e-02 
1  1.649595410138e+01  -5.175122059424e+01   1.013007179268e+01 
1  2.003600919751e+01   6.668909560705e+00  -1.019981527245e+02 
1  9.392538123786e+01   3.197216724550e+00  -6.694316710350e+01 
1  1.365538052721e+02   4.737687835565e+01  -7.056264753975e+01 
1 -6.382533496482e+00   1.821036706378e+01  -1.997537935648e+01 
1 -7.523341922976e+01  -4.511350257719e+01   1.189944082528e+01 
1  6.052389607744e+01  -4.609338205557e+01   1.830080682170e+01 
8
Step 900
1  4.972654863022e+01   2.296587930696e+01  -2.770369021250e+00 
1  2.990907093728e+00  -5.635714364146e+01   2.399262539882e+01 
1  3.776623891558e+00   6.185906094095e+00  -8.134487152464e+01 
1  7.112589570573e+01  -9.786268714118e+00  -5.739945964518e+01 
1  1.143870081926e+02   4.204296072471e+01  -7.337156429268e+01 
1  2.543025367827e+01   2.105124682052e+01  -2.683928974459e+01 
1 -1.561954195332e+01  -5.636760541214e+01   3.869041278113e+00 
1  6.594583229011e+01  -1.897562446572e+01   1.615194392245e+01 
8
Step 1000
1  6.765152583560e+01   3.701960940955e+01  -1.140958574207e+01 
1  7.698557787060e+00  -3.783329260410e+01   2.436835074173e+01 
1  1.079404610506e+01   3.764420658671e+00  -3.038339532443e+01 
1  4.182513943502e+01  -1.531114919474e+01  -3.722801752409e+01 
1  9.310070203175e+01   3.305259619933e+01  -4.905780633827e+01 
1  3.103988191114e+01   1.090917612115e+01  -1.279851305111e+01 
1  1.350103415778e+01  -3.586464388915e+01  -3.931452955149e+00 
1  6.455121474020e+01   5.167757172021e+00   1.964434726038e+01 
8
Step 1100
1  6.262966603062e+01   6.802175414297e+01  -1.004133299777e+01 
1  4.518419500964e+00  -3.367898986814e+01   3.358883287855e+01 
1 -8.389676691471e+00  -4.124456743927e+00  -6.303607450022e-01 
1  2.582282358224e+01  -2.141382235379e+01  -2.349272305714e+01 
1  8.337016582216e+01   4.427014064934e+01  -3.947626929159e+01 
1  2.683232859456e+01  -1.452528904984e+01   6.402168013142e+00 
1  2.427712904436e+01  -2.588070001461e+01  -1.791231952951e+01 
1  5.745881421807e+01   1.069217811183e+01   3.333387287681e+01 
8
Step 1200
1  4.532645491077e+01   6.304994860252e+01   7.077467753865e+00 
1 -8.651273155861e+00  -2.640608066589e+01   3.751487350932e+01 
1 -2.158941563193e+01   1.192309390358e+00   1.030875605815e+01 
1  3.572103661481e+00  -1.269731092271e+01   6.294952296266e+00 
1  8.034022186700e+01   6.939052121189e+01  -4.586657592542e+01 
1  1.782057173794e+01  -3.765635168676e+01   1.947790574174e+01 
1  1.831597642179e+01   3.452880306040e+00  -2.689501415943e+01 
1  3.983952857020e+01  -1.242989999026e+01   2.834546139721e+01 
8
Step 1300
1  2.713571827562e+01   4.122880433193e+01   1.768376445534e+01 
1 -1.970354512738e+01  -2.296804075234e+01   1.557221045094e+01 
1 -2.257336108949e+01   2.984558178905e+00   5.234579552990e-01 
1  7.666158055676e+00   6.357307077232e+00   2.472583646676e+01 
1  6.898865212961e+01   6.300944603776e+01  -6.577743330121e+01 
1  5.011398985959e+00  -3.308335822872e+01  -1.436564089204e+01 
1  6.825808955562e+00   1.383271367556e+01  -4.338769900037e+01 
1  5.763616060683e+00  -1.022903398131e+01   9.717544646453e+00 
8
Step 1400
1  2.687868107246e+00   2.433162522293e+01   2.275695812593e+01 
1 -8.570777245037e+00  -1.214875831843e+01   9.269441017323e+00 
1 -1.611821140480e+01   1.207901138340e+01   1.359777680894e+00 
1 -1.598239697084e+00   1.278719344949e+01   3.152291755667e+01 
1  3.336211530643e+01   2.852704525474e+01  -4.675675320353e+01 
1 -1.934161074570e+00  -6.839896111637e+00  -3.164156851308e+01 
1 -3.525937437421e+01   4.892587029055e-01  -6.013044415097e+01 
1 -8.168752244265e+00  -1.890062062690e+01  -2.435500469790e+01 
8
Step 1500
1  2.177690062791e+01   2.446183002333e+01   8.531572874416e+00 
1  1.090717915576e+01  -1.298571485419e+01   1.660120521268e+01 
1 -1.568103651511e+00   1.739208816395e+01  -1.065806345774e+01 
1 -3.692681799195e+00   1.621581734586e+01   3.103422268599e+01 
1  1.414759678286e+01  -2.460663510558e+01  -4.232474738534e+01 
1  1.903058937087e+01   1.668967947034e+01  -2.170006163356e+01 
1 -6.039244049134e+01  -2.304099347565e+00  -7.635220049480e+01 
1  1.485837003383e+01  -1.810939287813e+01  -4.407590492474e+01 
8
Step 1600
1  3.344759994204e+01   1.743818314635e+01  -3.710467187209e+00 
1  1.333744172096e+01  -1.566916982840e+01   2.478326615940e+01 
1 -9.898095090864e+00   8.207085191276e+00  -1.384652286228e+01 
1  4.551203534972e-01   1.174745717749e+01   1.387487511195e+01 
1  7.229256068588e+00  -4.759880776277e+01  -2.291137863372e+01 
1  3.631270739938e+01   3.123905498232e+01  -7.197561689669e+00 
1 -7.844667403529e+01   2.223488647776e+01  -6.563793343620e+01 
1  3.311887777280e+01  -8.516711910713e+00  -1.094370571148e+01 
8
Step 1700
1 -7.956242384273e+00   2.106535450372e+01   7.163785447511e+00 
1  9.557326326673e+00  -1.672133925665e+01   3.038612686852e+01 
1 -3.621378166741e+01  -7.051064178301e+00  -3.182834217813e+01 
1 -4.181114385933e+00   3.265053178319e+00  -1.981017144448e+00 
1  1.396158827184e+01  -4.748212442842e+01  -1.053465159292e+01 
1  2.740921301627e+01   5.572252320625e+01  -5.812402782556e+00 
1 -6.489208607371e+01   2.969163411489e+01  -5.421501990328e+01 
1  3.258492666899e+01   5.231529538556e+00   2.311324985221e+00 
8
Step 1800
1 -2.919406473763e+01   3.755158547050e+01   2.954655770880e+01 
1 -6.877317351660e+00  -2.384448509136e+01   6.284600109347e+01 
1 -3.890810698077e+01  -1.227718736575e+01  -3.587610235277e+01 
1 -8.129886205916e+00  -8.562183521390e+00  -4.430159465366e+01 
1  3.548863731784e+01  -3.547729120040e+01  -2.231534868700e+01 
1  1.688325498886e+01   7.439955096719e+01  -2.146680855577e+01 
1 -2.467982706825e+01   2.331551317190e+01  -3.038268898477e+01 
1  2.154743403517e+01   1.803592915591e+01  -1.607867401422e+01 
8
Step 1900
1 -3.212181620802e+01   5.972998527646e+01   2.762355846578e+01 
1 -2.398875540833e+01  -7.314783974367e+00   6.534515386446e+01 
1 -3.377111328755e+01  -1.812207184028e+01  -4.005930624117e+01 
1 -1.644293374463e+01  -6.919666032109e+00  -4.757198668397e+01 
1  3.948272538796e+01  -1.311886641263e+01  -4.504509724029e+01 
1  1.346181998704e+01   5.315387670829e+01  -2.269438745764e+01 
1 -2.243251603047e+01   5.677953262798e+00  -6.702533785798e+00 
1  1.064598631337e+01   7.449090188445e-01  -2.908135321711e+01 
8
Step 2000
1 -3.367803952829e+01   6.646672771979e+01   1.875608354882e+01 
1 -3.074643449594e+01   2.761746374602e+01   9.502521147617e+00 
1 -1.630361007861e+01  -2.990654778762e+01  -4.551090192591e+01 
1  6.504991684869e-01   1.277359073668e-01  -3.752207178420e+01 
1  3.144770836013e+01   9.168123002974e+00  -2.609760841889e+01 
1  2.896409042462e+01   1.899810001575e+01  -7.303478153042e+00 
1 -7.373782890420e+00   1.010738633022e+01   7.141105338598e+00 
1  7.334895880820e+00  -3.095839015228e+00  -3.423707027032e+01 
8
Step 2100
1 -3.515759821822e+01   7.445787540389e+01   1.339715395131e+01 
1 -2.749703182379e+01   2.711044114803e+01  -4.040965546622e+01 
1  7.928755862250e-01  -2.358961634516e+01  -5.693973925759e+01 
1 -5.635943537417e-01   6.211135014318e-01  -1.669421049011e+01 
1  8.342637584019e+00   2.151338502333e+01  -1.062193635721e+01 
1  3.116361386036e+01  -6.798427866766e+00   1.529442980181e+01 
1 -2.546457097187e+01   1.576365908125e+01  -8.203274404575e+00 
1  1.156402193660e+01  -2.253299133735e+01  -4.300789972082e+01 
8
Step 2200
1 -3.642287115767e+01   5.981684484581e+01  -4.897550089305e+00 
1 -1.888440779484e+01   6.932660324782e+00  -6.025238492155e+01 
1  1.237191882809e+01  -1.050098586149e+01  -5.790963745738e+01 
1  4.787588424360e+00   2.762840341085e+01  -1.578637330875e+01 
1 -2.693018094230e+00   3.593085237543e+01  -1.221531417161e+01 
1  2.978813265940e+01  -1.418532628359e+01   2.596156727470e+01 
1 -2.997696315297e+01   1.355434783990e+01  -8.873187172801e+00 
1  2.247158570388e+00  -5.688461438661e+01  -3.251070953054e+01 
8
Step 2300
1 -2.487759006263e+01   6.796409320840e+01   8.872873813795e+00 
1 -1.435126771980e+01   2.709723210077e+01  -5.891936928158e+01 
1  3.666065894448e+01  -1.564450485149e+01  -5.550763455024e+01 
1  1.346131381195e+01   4.386696496219e+01  -1.056895603905e+01 
1 -1.231245380963e+01   4.340584654484e+01  -1.804956564342e+01 
1  5.055601058839e+00   2.072916138427e+00   4.141475307332e+01 
1 -3.699585263769e+01   1.929819980641e+01  -1.370421052221e+01 
1  1.720376189310e+01  -7.252651277645e+01   1.364773504201e+01 
8
Step 2400
1  6.862559532582e+00   4.609112625849e+01   2.362713588893e+01 
1 -4.694673752932e+01   2.634418254749e+01  -1.778930515204e+01 
1  3.877277868746e+01  -1.961112779114e+01  -3.630263008650e+01 
1  1.126801300875e+01   6.333727256586e+01  -2.976152007705e+00 
1 -3.704553639112e+01   3.673516012117e+01  -2.906635812067e+01 
1  4.423093375374e+00   2.579507940992e+01   4.092680435480e+01 
1 -1.115191029979e+01   3.492665503679e+01  -1.096949269400e+01 
1  4.436826773687e+01  -6.992189038708e+01   3.423352304525e+01 
8
Step 2500
1  1.952096353297e+01   1.980439302151e+01   3.020526446022e+01 
1 -4.465361801074e+01   3.190989940610e+01   5.523208380441e+00 
1  2.120026427456e+01  -3.680010246999e+00  -2.017978669273e+01 
1  3.486233548845e+00   6.090212813195e+01   5.151322487105e-01 
1 -3.271375707950e+01   2.826752445382e+01  -3.472152638728e+01 
1  1.526536217970e+01   5.876729044639e+00   2.285269495734e+01 
1  5.366108638668e+00   4.502624605857e+01   1.705418916698e+01 
1  5.171774730303e+01  -6.667802839188e+01   3.084347737147e+01 
8
Step 2600
1  2.338919331738e+01   1.146338358678e+01   7.580053988654e+00 
1 -4.925878571071e+01   3.200845692541e+01   2.232372514757e+01 
1 -1.167100990039e+01  -8.484111209150e+00  -6.907275136267e+00 
1  1.150314482923e+00   4.122607128315e+01   2.930655100965e+01 
1 -2.498308405931e+01   1.023434773631e+01  -5.155715438810e+01 
1  3.144995417469e+01  -4.133823756522e+00   1.845369860786e+00 
1  5.081129632739e+00   5.061712833716e+01   3.656223128713e+01 
1  3.538115303268e+01  -3.154483111092e+01   2.209935140965e+01 
8
Step 2700
1  3.130144311012e+01   1.857521062075e+01   8.800122550848e+00 
1 -5.190254718020e+01   4.598846855947e+01   2.302755001539e+01 
1 -1.563036140039e+01  -1.641012297210e+01  -8.272018224487e+00 
1  6.956020738577e+00   2.748389603264e+01   3.298217467183e+01 
1 -1.599925394816e+01  -7.797446377811e+00  -5.630188073919e+01 
1  2.078292031497e+01   1.966987638354e+01  -2.241100449978e+00 
1  1.532549665991e+01   4.783311621882e+01   3.412522888658e+01 
1  2.287138814678e+01  -2.702763248663e+01   2.066736666910e+00 
8
Step 2800
1  2.113991671929e+01   2.165779812167e+01  -4.329287561719e+00 
1 -4.030138292314e+01   5.528816646651e+01   3.039889334742e+01 
1 -3.376290714636e+01  -7.983032920663e+00  -1.008272858491e+01 
1  1.663039068296e+01   7.517392815585e+00   2.002843937570e+01 
1 -9.422930283888e+00  -1.844128900602e+01  -6.042953784155e+01 
1  8.557854138274e+00   3.031439577477e+01   1.998705520658e+01 
1  7.867471781840e+00   2.126758343361e+01   3.033233667347e+01 
1  2.770411596646e+01  -7.648410275554e+00  -2.348442714145e+01 
8
Step 2900
1  1.421765558488e+01   2.080155088083e+01  -1.210686558606e+01 
1 -3.199655581232e+01   6.364603799433e+01   1.980106824014e+01 
1 -5.749828424935e+01   2.983185227705e-01  -2.147711982562e+01 
1  1.439923990419e+01  -3.119948771406e+01   2.436534183041e+01 
1 -1.360123160588e+01  -1.401765409606e+01  -7.298562584233e+01 
1  9.075197996147e+00   3.513917037488e+01   2.119269873032e+01 
1 -3.767136981777e+00  -2.579872451893e+01   6.853195000456e+00 
1  9.128147260790e+00   2.064131401256e+01  -2.555642669764e+01 
8
Step 3000
1  1.070418330611e+01   3.369881119626e+01  -6.673313184907e+00 
1 -2.814580783040e+01   6.882758723574e+01   3.518891378725e-01 
1 -6.606328536865e+01   5.699351871600e+00  -1.655116317938e+01 
1 -2.662752828228e+00  -5.397285639011e+01   3.828351508556e+01 
1 -2.499509059084e+01  -1.093362565666e+01  -9.045834531487e+01 
1 -2.168615413021e+01   2.905751765814e+01   1.140094563167e+01 
1 -1.170821839460e+01  -6.228826714707e+01   6.173739042393e+00 
1 -1.506632088215e+01   4.857034105377e+01  -3.280880365382e+01 
8
Step 3100
1  1.794312874181e+01   2.879958460765e+01  -4.507324935999e+00 
1 -1.569201981081e+01   6.014023475570e+01  -1.160533876549e+01 
1 -3.306715037203e+01  -1.233329313644e+01  -2.230647574352e+01 
1 -1.334607006924e+00  -5.924333839882e+01   4.374152815704e+01 
1 -2.108141676575e+01   1.307767206811e+01  -8.274171656592e+01 
1 -3.158798810751e+01   1.896091529437e+01   6.089364008892e+00 
1 -2.598620862510e+01  -6.415312289788e+01  -1.830404116258e+00 
1 -5.578296700825e+01   6.844335031582e+01  -2.320720475928e+01 
8
Step 3200
1  3.774350422329e+01   3.414962980254e+01   1.680260163019e+01 
1  2.360600922436e+01   5.863388376482e+01  -4.521457092699e+01 
1 -1.712251599436e+01  -2.966601900114e+01  -3.411813625495e+01 
1 -1.509088275263e+01  -2.280164872409e+01   4.090124867047e+01 
1 -2.131245614272e+01   3.212079779897e+01  -4.892736225163e+01 
1 -2.473552282735e+01   3.206595700715e+01   3.248507025933e+01 
1 -5.889601225856e+00  -7.626611803687e+01   1.235963202104e+00 
1 -6.554605963002e+01   7.514752321373e+01  -1.965836760637e+01 
8
Step 3300
1  3.321127048261e+01   4.827590280301e+01   2.488689830070e+01 
1  6.177431136903e+01   4.040776724334e+01  -5.993368940486e+01 
1  7.614165835433e+00  -1.880547011542e+01  -6.173984967073e+01 
1 -3.582509166042e+01   2.320390939320e+00   4.289208737751e+01 
1 -3.642156163228e+00   5.295242397989e+01  -1.830332341855e+01 
1 -9.373504141679e+00   3.805644423144e+01   4.580998360898e+01 
1  1.158502388363e+01  -8.073467238620e+01  -7.514517347016e+00 
1 -4.298049067044e+01   6.953818582251e+01  -4.123138005748e-01 
8
Step 3400
1 -1.391697455716e+00   4.388981250108e+01   2.973518677827e+01 
1  5.903333186341e+01   2.950791599771e+01  -4.088699593187e+01 
1  2.456701429423e+01  -9.022101768365e-01  -5.378104521911e+01 
1 -2.041562496249e+01   1.347980695736e+01   2.993595811123e+01 
1  1.758930218033e+01   5.933202502729e+01   3.635847675392e+00 
1  2.277178098272e+01   9.791045096037e+00   4.755658963340e+01 
1  6.199851405503e+00  -6.721816478825e+01  -1.901048068532e+00 
1 -3.563150247164e+01   5.484734054626e+01   1.652153153325e+01 
8
Step 3500
1 -3.211548735614e+01   1.634628940886e+01   4.821877512014e+01 
1  5.327789375677e+01   1.450194520236e+01  -4.594275233484e+01 
1  2.881920297268e+01   1.309459120709e+01  -2.853107973982e+01 
1  2.584695418472e+00   1.803510684791e+00   9.966088314234e+00 
1  3.306115897918e+01   6.200940921290e+01   9.137171929168e+00 
1  6.677783391635e+01   2.635189043692e+01   3.488538560014e+01 
1  3.362284515545e+01  -5.892003694157e+01   1.502521890795e+00 
1 -4.143406212442e+01   3.454869911075e+01   2.220531507305e+01 
8
Step 3600
1 -4.251955900980e+01   2.156707660412e+01   4.766397128222e+01 
1  6.242392334331e+01   2.213952683128e+01  -2.145453385863e+01 
1  2.830902798796e+01   2.580065560487e+01  -2.873380487230e+01 
1 -7.952715200580e+00  -6.163550744448e+00   8.967117325804e+00 
1  1.130596426070e+01   5.171403116235e+01   1.794776078451e+01 
1  7.926265173635e+01   3.377922452818e+01   3.199653899400e+00 
1  3.326098484934e+01  -4.607829695934e+01  -2.241830681289e+00 
1 -4.175258196489e+01  -1.556659275831e+01   1.659419426273e+01 
8
Step 3700
1 -3.973642110076e+01  -6.873377625687e+00   5.816847162858e+01 
1  3.762532466571e+01   2.714724132518e+01  -5.614584826658e+00 
1  1.960844010222e+01   1.383649694151e+01  -2.484179039607e+01 
1 -8.977399785552e+00  -1.722234669878e+01  -9.386323644508e-01 
1 -1.052941501519e+01   2.930775538006e+01  -1.905560282472e+01 
1  5.404630932963e+01   3.876921478003e+01  -5.615672826593e+00 
1  1.591021537093e+01  -4.287202114413e+01   2.489022222888e+00 
1 -1.581650073281e+01  -2.324098101449e+01   1.087235113518e+01 
8
Step 3800
1 -1.933136048677e+00  -8.105995107675e+00   4.745190868564e+01 
1  3.249348693130e+01   1.767779956173e+01   1.855256934419e+01 
1  1.877281982950e+01   1.303242825091e+00  -2.391970771687e+01 
1 -1.222880699616e+01  -2.052917661969e+01   2.233866745272e+00 
1 -2.574131133250e+01   3.422036057519e+01  -3.781145869509e+01 
1  4.037953379033e+01   3.623996255196e+01   4.904217278577e+00 
1  4.026295809623e+00  -3.330879903417e+01  -2.602663255912e+00 
1  2.067508282023e+01  -1.645556073359e+01  -1.430549428856e+01 
8
Step 3900
1  1.200961465292e+01   1.073683923111e+01   4.506245136771e+01 
1  2.045242893865e+01  -5.554576464200e+00   3.000558441898e+01 
1 -3.750416143405e+00   6.849234904152e+00  -3.581647403510e+01 
1 -1.314341436770e+00  -1.726634511406e+01  -7.825013792589e+00 
1 -2.961393988818e+01   4.073280251003e+01  -3.227124426803e+01 
1  3.177732507324e+01   1.623190231804e+01   1.573632020826e+01 
1  1.686086155291e+00  -2.021085810275e+01  -1.236651341157e+01 
1  2.607877427805e+01   4.274996165267e+00  -2.583032536195e+01 
8
Step 4000
1  1.743781375245e+01   5.337023420197e+01   4.677270102715e+01 
1  8.774880813763e+00  -2.903753057820e+00   1.711960345827e+01 
1 -4.676013809639e+01   1.518074563977e+01  -2.922522505417e+01 
1  2.610528218780e+01   1.787188386773e+00  -2.773091489313e+01 
1 -3.500001474103e+01   1.512604155766e+01  -1.473571356020e+01 
1  4.533320992638e+01   2.033667631847e+01   4.510524755064e+01 
1 -1.258111410121e+01  -1.876258469672e+01  -9.008500259855e+00 
1  3.753114728875e+01   1.346150093679e+01  -3.850571567294e+01 
8
Step 4100
1  1.114074348946e+01   6.002863300139e+01   8.014382697935e+01 
1  7.067291632564e+00   2.939268979847e+01   2.579398904983e+01 
1 -6.309558822756e+01   3.686636131496e+01  -2.230855181927e+01 
1  5.505564145478e+01   1.022360291446e+01  -2.094880942339e+01 
1 -4.231087302946e+01  -2.264900052018e+01  -6.129460245980e+00 
1  4.559683666660e+01   1.594708488992e+01   1.943320022000e+01 
1 -2.499081889389e+01  -1.237671507699e+01  -4.290074207317e+00 
1  4.622525408469e+01   8.165391876806e+00  -4.209199127854e+01 
8
Step 4200
1  6.757919582001e+00   4.368117848493e+01   1.064068367029e+02 
1  1.874589109356e+01   3.657797864728e+01   1.898334834929e+01 
1 -7.496293881518e+01   3.939176107131e+01  -2.162349042774e+01 
1  5.752797763166e+01   2.357961758561e+01  -2.034066700883e+01 
1 -4.721515677806e+01  -2.984489094472e+01  -1.871682641182e+01 
1  4.374401302396e+01   3.232387524692e+01  -2.690532296544e+01 
1 -4.358085082805e+01  -9.476395096947e+00  -9.519262449755e+00 
1  4.663433782838e+01   1.018639779065e+01  -4.165381601470e+01 
8
Step 4300
1 -8.181349056117e+00   1.352134888837e+01   1.033807412586e+02 
1  3.464547078330e+01   4.106543389006e+01   1.418179768955e+01 
1 -6.531382098460e+01   3.525933831622e+01  -8.392092224339e+00 
1  5.155692325164e+01   3.747119341557e+01  -3.703214805305e+00 
1 -4.384937698895e+01  -2.067821134784e+01  -3.063908300548e+01 
1  3.233742346046e+01   2.799886485149e+01  -5.027501397148e+01 
1 -4.982334533928e+01  -3.330830851667e+01  -6.748788484952e+00 
1  3.139193200774e+01   1.435923629437e+00  -5.345855494381e+01 
8
Step 4400
1 -1.482907360026e+01   1.339260206616e+01   7.683476183231e+01 
1  6.070491594101e+01   5.004255104371e+01   6.729866076702e+00 
1 -5.056539264899e+01   3.218608037179e+01   3.708534772639e+00 
1  6.600423905938e+01   5.436365428619e+01  -8.393060058457e+00 
1 -2.297516226523e+01   9.614283247657e+00  -2.205569258395e+01 
1 -2.736323162864e-01   6.499180118819e+00  -3.870390025943e+01 
1 -3.063752671075e+01  -4.547495931209e+01  -4.570310872860e+00 
1  1.619993519152e+01  -8.193042226338e+00  -4.454430566783e+01 
8
Step 4500
1 -3.877464002282e+01   3.221465471835e+01   5.062295360092e+01 
1  6.900710171465e+01   4.098326443231e+01  -4.918254627169e+00 
1 -3.830296468145e+01   1.383250227676e+01  -1.292155632902e+01 
1  7.188029080251e+01   4.480052266176e+01   4.635233317505e+00 
1 -1.083931611320e+01   2.699209596911e+01  -1.631962985325e+01 
1 -8.101649373073e+00  -1.733280878709e+00   3.067522468022e+00 
1 -2.809777799608e+01  -5.360990702972e+01  -3.123752516262e+00 
1  1.145192383959e+01  -3.148092400370e+01  -3.878822719155e+01 
8
Step 4600
1 -4.636408641853e+01   3.477840593434e+01   4.665887784248e+01 
1  7.191857675238e+01   8.814916066204e+00  -1.929100249012e+01 
1 -3.900222560641e+01   4.700352675124e+00  -1.407661930961e+01 
1  6.805941770331e+01   3.325434773427e+01  -1.269326239577e+01 
1 -7.430373392016e+00   2.487080783132e+01  -2.655322172318e+01 
1 -8.789919690584e+00   1.677056016031e+01   5.628867421661e+01 
1 -2.002084965385e+01  -5.470569229140e+01   5.004310941636e-01 
1  5.801413753464e+00  -3.171569561651e+01  -5.451197428990e+01 
8
Step 4700
1 -6.203673272135e+01   3.212738159818e+01   2.819070083356e+01 
1  6.333806159064e+01  -6.218994993892e+00  -1.030334053851e+01 
1 -1.781996001366e+01  -2.202907294969e+01  -1.433066689759e+01 
1  5.753077859074e+01   2.509060020378e+01  -4.095684943599e+01 
1 -9.742615545380e+00   2.398706670428e+01  -2.257789641339e+01 
1  1.052944907132e+01   3.151156183100e+01   8.903603357874e+01 
1  1.031782906298e+01  -5.778646666925e+01   1.207831337831e+01 
1  1.030682741424e+01  -2.107536992857e+01  -4.449901814376e+01 
8
Step 4800
1 -5.262800532427e+01   2.805775663626e+01   3.386238849715e+01 
1  3.798312179566e+01  -3.577387907841e+01  -9.279883684245e+00 
1 -8.066182900403e+00  -5.128947965553e+01  -6.453369881764e+00 
1  4.453505232428e+01   2.350606477735e+01  -4.913017003273e+01 
1  3.572003928894e+00   4.188400820077e+01  -1.899834765599e+01 
1  3.132376107042e+01   3.537442311262e+01   6.245971644940e+01 
1 -1.101311939732e+00  -8.065621143657e+01   1.882780597326e+01 
1  1.600692986019e+00  -1.824510746469e+01  -3.477181635516e+01 
8
Step 4900
1 -2.844148812617e+01   1.554189947933e+01   6.049807752731e+01 
1  8.043346570190e+00  -5.096938156054e+01  -4.515492792054e-01 
1  1.633345748491e+00  -3.179948275818e+01   1.114650065869e+01 
1  1.296433068117e+01   1.621382520344e+01  -3.836911808884e+01 
1  8.056430460594e-01   3.974392344186e+01  -2.515829216433e+01 
1  1.341680612965e+01   3.657726984796e+01   1.900791807824e+01 
1 -2.300429270697e+01  -1.093266854323e+02   3.973122212256e+01 
1 -2.272970486357e+00  -1.070760371964e+01  -4.630896552045e+01 
8
Step 5000
1  4.555995996029e+00   6.725746844279e+00   6.816367744865e+01 
1 -5.647837812081e+00  -5.525269202650e+01   4.633104307342e+00 
1  1.427341395247e+00  -1.668123147251e+01   3.558278236030e+01 
1 -5.715814476917e+00   2.815183194868e+01  -4.434053364750e+01 
1  9.689170626777e+00   2.399342501901e+01  -2.647071362467e+01 
1 -2.096625828043e+00   3.155968935092e+01  -1.764881597039e+01 
1 -1.864952003066e+01  -1.008649873671e+02   4.228037035476e+01 
1 -9.050749830911e+00  -5.001704837574e+00  -3.551435033451e+01 
8
Step 5100
1  6.304465467659e+00   3.910003664584e+01   5.567886846335e+01 
1  4.217676284566e+00  -4.115476030179e+01   2.514520084996e+01 
1  6.263759040723e+00  -7.232917557266e+00   5.712131082751e+01 
1  1.697366402166e+00   1.825346772144e+01  -4.270609131431e+01 
1  1.264351121000e+01   1.115303304129e+01  -3.319244474745e+01 
1  1.446976811304e+01   2.757251893914e+01  -4.610615880923e+01 
1  5.151066282826e+00  -5.704483036409e+01   4.717167060307e+01 
1 -2.513039472550e+01  -2.157500134670e+01  -2.889491858779e+01 
8
Step 5200
1  1.171137554997e+01   6.648048089659e+01   1.397622916934e+01 
1  2.417395198045e+01  -2.044729928659e+01   4.954718991509e+01 
1  1.604419397668e+01  -4.156686922811e+00   2.960182630544e+01 
1  1.829351772184e+01   1.455759372143e+01  -2.072426583262e+01 
1  2.782830847738e+00   1.301849359076e+01  -1.442378156725e+01 
1  3.820147540019e+01   1.635292430197e+01  -5.664474511107e+01 
1  2.333570468683e+00  -1.160416651749e+01   2.503278313832e+01 
1 -3.061208141418e+01  -2.081728414291e+01   1.953833400853e+01 
8
Step 5300
1  5.506581464742e+00   5.032486688915e+01  -8.731621871604e-01 
1  2.393343933556e+01  -1.294948732113e+01   4.125845624159e+01 
1  1.235453041385e+01  -1.105718447034e+01   8.152197596185e+00 
1  3.168669594835e+01   1.507269074378e+01  -5.261460970569e+00 
1  8.637670529319e+00   1.333262446926e+01   5.250807327143e+00 
1  3.243952500093e+01   1.427096492541e+01  -5.722213777280e+01 
1  8.330815442902e-01   1.401305157542e+01   1.702953885943e+01 
1 -2.692624969141e+01  -1.145143575476e+01   4.763234956286e+01 
8
Step 5400
1 -1.387768884786e+01   2.813936037743e+01  -3.798877853856e+00 
1  2.437669709976e+01  -1.374306449230e+01   3.816265025746e+01 
1  1.836347863768e+01  -2.211815472246e+01  -1.179496254689e+01 
1  4.470398000491e+01   3.546030891907e+01   5.279479818488e+00 
1  1.272585336564e+01  -1.859961274124e+01   1.253374797578e+01 
1  4.479458254602e+01   3.071404289610e+01  -3.824225071160e+01 
1  1.555444050872e+01   1.935001249388e+01   1.091639722657e+01 
1 -4.484457074644e+00  -7.661315892089e+00   6.606133134651e+01 
8
Step 5500
1 -2.253925529028e+01  -1.415395226038e+00  -5.804107800739e+00 
1  1.243686609476e+01   8.069341098601e+00   3.990397530416e+01 
1  2.935612981450e+01  -3.297655544815e+01  -4.410318612879e+00 
1  4.399373304324e+01   3.414468407123e+01   1.265717001074e+01 
1  4.940085669884e+00  -3.085418254480e+01   2.251300778016e+01 
1  4.482913861056e+01   5.140615037533e+01  -4.744487068272e+01 
1  1.940165366637e+01  -3.920003399239e+00   2.180435817285e+01 
1  2.926205554134e+00   3.903875146569e+00   4.784763893254e+01 
8
Step 5600
1 -6.211352325578e+00  -1.543103701169e+00  -1.834694678854e+01 
1 -8.436252822554e+00   4.731038721958e+00   3.759266837265e+01 
1  3.620556433150e+01  -3.804430853825e+01   1.741661769958e+01 