8
Step 0
1  5.673418056429e+02  -4.628436099907e+02   1.450497756956e+01 
1  1.785201629494e+02  -4.362662897724e+02  -5.299309931838e+02 
1 -3.184056323091e+02  -3.657961676757e+02  -4.107676916923e+01 
1  3.218258291505e+02   4.952880269401e+02   3.094924502577e+02 
1  4.987239025196e+02  -1.478778429024e+02  -6.305671509398e+02 
1  5.617336029350e+02   4.425364783636e+02  -2.519007552474e+02 
1  6.568948294788e+02  -4.626386768802e+02   4.384210720659e+02 
1  6.071083467259e+02   4.486797571527e+02   4.960959665132e+02 
8
Step 100
1  3.594729009440e+02  -2.653345030134e+02   1.349231786680e+02 
1  8.634002643642e+01  -2.777545105761e+02  -4.071285351806e+02 
1 -2.539685684018e+02  -2.324520181904e+02  -1.495450636675e+01 
1  2.103498583040e+02   4.775138040461e+02   2.179396941074e+02 
1  3.408785806916e+02  -5.994521629767e+01  -4.109229846401e+02 
1  4.338645686647e+02   3.211916138728e+02  -2.724073216351e+02 
1  5.033462065055e+02  -3.599336004640e+02   3.318527907821e+02 
1  3.601407864201e+02   3.220746949253e+02   2.476603274880e+02 
8
Step 200
1  7.386633169295e+01  -2.336325729567e+01   2.624496631676e+02 
1 -1.673442247667e+01  -8.329756200451e+01  -2.107983526279e+02 
1 -1.610688116016e+02  -1.982678565735e+01   2.628114245654e+00 
1  6.496566619189e+01   3.884228492279e+02   1.617994596103e+01 
1  1.413249926385e+02   3.875845084357e+01  -1.111985686853e+02 
1  2.297615164676e+02   1.450392208175e+02  -2.770587612731e+02 
1  2.302971173324e+02  -2.373851966514e+02   2.575682476241e+02 
1  9.982731261418e+01   1.505915844773e+02  -4.924256527853e+01 
8
Step 300
1 -6.233956038093e+01   3.402079576867e+01   2.483837155748e+02 
1 -5.022054496854e+01  -2.179014126939e+01  -9.370891803602e+01 
1 -1.065991320569e+02   6.609487889322e+01  -4.875388541363e+01 
1  4.754165470783e+01   2.731514568493e+02  -1.106006736712e+02 
1  4.487147141621e+01   5.897593401367e+01   5.012749139294e+01 
1  1.004131589091e+02   4.527756720257e+01  -2.262461409418e+02 
1  7.040938280673e+01  -1.316877096828e+02   2.278564558527e+02 
1  3.370569311917e-01   6.143454739088e+01  -1.263059673599e+02 
8
Step 400
1 -7.438097267486e+01  -2.992323252221e+01   1.406984778230e+02 
1 -6.312757901498e+01  -1.487162366244e+01  -4.500816586116e+01 
1 -6.783749784082e+01   6.088895711835e+01  -8.985168231198e+01 
1  1.127623630819e+02   1.673084603104e+02  -9.005141966554e+01 
1  3.927258233370e+01   5.902267946597e+01   6.669516618700e+01 
1  1.034906206739e+01   2.644855883013e+01  -1.317317164524e+02 
1  1.412074660272e+01  -8.095693532198e+01   1.776444092217e+02 
1 -2.464656782667e+01   6.909650472129e+01  -6.084467491511e+01 
8
Step 500
1 -3.994577893649e+01  -4.824077350877e+01   4.391681358446e+01 
1 -8.295986871434e+01   6.684137378371e+00  -5.627385737921e+01 
1  4.481522576744e+00   8.204278323845e+00  -1.022320234088e+02 
1  1.251988991244e+02   1.114258633235e+02  -6.153016912744e+01 
1  7.073475896808e+01   5.066171788389e+01   4.316490449982e+01 
1 -1.674554257506e+01   2.249673788943e+01  -3.820125881124e+01 
1  4.644786527290e+01  -8.800208935494e+01   1.354098124999e+02 
1 -2.923326669307e+01   7.101215198589e+01  -1.286289041876e+01 
8
Step 600
1 -2.560485935367e+01  -1.906095477245e+01   8.404150220272e+00 
1 -3.098555582177e+01   4.599166625116e+01  -7.915858783621e+01 
1  4.201454868493e+01  -2.484776589964e+01  -8.981201109709e+01 
1  7.963262744497e+01   7.323721075399e+01  -4.614783398602e+01 
1  4.792780775011e+01   5.849447586253e+00  -1.108917108012e+01 
1 -2.862802910272e+01   7.881418781894e+00  -8.562496653913e+00 
1  3.502403929028e+01  -8.267380238924e+01   6.491461013019e+01 
1 -4.636689324210e+01   6.551680964823e+01   2.160368387771e+01 
8
Step 700
1 -5.007526673287e+00  -3.112908449202e+00   3.281870251824e+00 
1  6.697500167821e+00   4.010947758334e+01  -5.177480453263e+01 
1  3.315733869686e+01  -3.267145347255e+01  -6.667749817332e+01 
1  2.951378194884e+01   4.998044927158e+01  -3.608050273214e+01 
1  2.513209194533e+01  -2.003520138500e+01  -7.254271911041e+01 
1 -3.362613283931e+01   1.496265391573e+01   9.083970141550e+00 
1 -8.786190114698e+00  -5.525761848481e+01   4.522467621661e+00 
1 -5.391445139596e+01   4.829067779224e+01   3.620800884004e+01 
8
Step 800
1  5.248749137652e+01  -2.231238269682e+01   2.011247769964e+01 
1  1.993219795399e+01   6.583456953287e+01  -2.428536962474e+00 
1  3.176553934138e+01  -1.597516311829e+01  -4.384904851857e+01 
1 -1.582999335304e+01   4.078197780465e+01   2.838983551031e+00 
1  3.819460441713e+01  -2.943832664091e+01  -6.637445037914e+01 
1 -2.213173095265e+01   1.009426433224e+01   2.588948037828e+00 
1 -9.388430178267e+00  -2.863583492917e+01  -1.727082084860e+01 
1 -4.291045808858e+01   2.100588012845e+01  -4.366393137225e+00 
8
Step 900
1  6.978600357936e+01  -2.312346871631e+01   2.546867344972e+01 
1 -5.374900725752e+00   4.760319069054e+01   1.390907284956e+01 
1  2.548459996254e+01   9.230786837762e+00  -3.851353329254e+01 
1 -4.229025194078e+01   3.277116005601e+00   1.652185498470e+01 
1  1.758398721822e+01  -1.644282625658e+01  -5.287805638102e+01 
1  1.829053698853e+01   3.313108360307e+01  -2.472671440921e+01 
1 -1.321798514438e+01  -4.938680953088e+01  -7.363449645988e-01 
1 -9.801174508103e+00   9.485747946245e+00  -3.104451418728e+01 
8
Step 1000
1  5.569887153190e+01  -7.135845458316e+00   1.582381480229e+01 
1  7.337368305796e+00   4.653674080380e+01   3.050507304536e+01 
1  5.605427763750e+01   3.280541382383e-01  -4.012886202004e+01 
1 -4.089533058139e+01  -4.802122060909e+01  -2.558722308678e+01 
1  6.632287027000e+00   1.077082781664e+01  -4.209194455950e+01 
1  5.747041716378e+01   8.109764444845e+01  -4.034973099439e+01 
1 -3.122563943454e+01  -4.553831705975e+01   4.838125905049e+00 
1 -1.093498969882e+01   3.255633993124e+01  -5.213895769374e+01 
8
Step 1100
1  2.522822402707e+01   2.592149485814e+01   1.736998856950e-01 
1  1.609302024781e+01   1.731335639049e+01   5.491919777826e+01 
1  5.265671870940e+01  -3.782430140911e+01  -2.862108407774e+01 
1 -3.207011647737e+01  -4.198852226333e+01  -3.120900501082e+01 
1  2.604841772424e+01   4.037810429567e+01  -2.952974952191e+01 
1  5.819756680644e+01   4.573290182757e+01  -2.365471229624e+01 
1 -4.141422978786e+01  -3.113801416113e+01  -2.344100315707e+01 
1 -1.681895159871e+01   3.702862449215e+01  -3.412903333525e+01 
8
Step 1200
1  1.963010611833e+01   3.923192510185e+01   3.517569623570e+00 
1 -5.079138662821e+00   4.542532940784e+00   4.387274004309e+01 
1  5.501165721400e+01  -3.617965170005e+01  -1.757907507384e+01 
1  3.137943054588e+00  -3.729618803410e+01  -6.154215392171e+00 
1  2.505225670002e+01   7.071624364679e+01  -1.566086853675e+01 
1  2.579412555896e+01  -8.529442442011e+00  -1.136154541594e+01 
1 -1.767340311819e+01   7.902171935962e+00  -3.727501290721e+01 
1 -2.191191584175e+01   2.451287224133e+01  -1.629619172046e+01 
8
Step 1300
1  1.984195347649e+01   1.563477493113e+01   1.960975197366e+01 
1 -3.109124075594e+00   2.508543016208e+01   1.578580501680e+01 
1  4.019969839331e+01  -8.862265121282e+00  -1.846522770079e+01 
1  3.037115018985e+01  -5.020692948187e+00  -1.454614494435e+01 
1  6.652297800306e+00   6.488063274074e+01  -5.790754051937e+01 
1 -1.296735188178e+01  -4.126322198723e+01  -2.285081177153e+01 
1 -7.575704059421e+00   5.820188245529e+00  -3.353515602877e+01 
1 -7.256700368253e+00   3.286911248660e+01   2.950005590245e+00 
8
Step 1400
1 -1.974087828022e+01  -7.266148388925e+00   3.828895439512e+01 
1  1.564831336569e+01   4.101016170497e+01  -5.367094612146e+00 
1  3.802572845078e+01   2.392218789995e+01  -3.653918017976e+00 
1 -1.495181214097e+01   1.125291990242e+01  -4.176650953431e+01 
1 -3.380516417216e+01   1.257461493609e+01  -4.757152961778e+01 
1 -1.790294194079e+01   1.671879103741e+01  -1.817864236595e+01 
1 -2.024946101077e+01   1.949217778592e+01  -2.296241478524e+01 
1 -9.209066009689e+00   2.810668756175e+00   1.483894945518e+01 
8
Step 1500
1 -2.184154004989e+01  -1.315568057219e+01   2.425009931699e+01 
1 -4.757128605483e+00   2.520373926944e+01   2.537850894203e+01 
1  2.613397614759e+01   5.182464831929e+01  -4.114489638841e+01 
1 -3.864295889041e+01   3.212368647449e+01  -2.865066437082e+01 
1 -5.713807122625e+01  -4.023548260896e+01  -5.544560746930e+01 
1 -3.370554911617e+00   2.858089694583e+01   2.491979865595e+01 
1 -2.491514511571e+01   4.056124181458e+01  -2.863879994823e+00 
1  2.282003470415e+01  -9.249615397037e+00   1.211313606474e+01 
8
Step 1600
1 -3.271137652788e+01  -4.471358104038e+01   2.091121533673e+01 
1 -2.082831441799e+01  -1.755028276375e+01   1.865359005215e+01 
1  1.834153477679e+01   3.833717381058e+00  -4.701816877466e+01 
1 -2.550572979163e+01   5.993125301803e+01  -2.057131399826e+01 
1 -5.813143799258e+01  -5.686337952130e+01  -5.972313934928e+01 
1  1.574899126338e+01   1.125201002747e+01   5.173554506669e+01 
1 -3.105531597223e+01   3.757280044524e+01   1.774877768936e+01 
1  2.602249299180e+01   2.532601989146e-01  -1.190201881701e+00 
8
Step 1700
1 -2.827589511768e+01  -7.067551926821e+01   1.729237965894e+01 
1 -8.527887472902e+00  -2.536408975601e+01   4.027618483250e+01 
1  1.824779747900e+01  -4.470666434592e+01  -6.522327223836e+01 
1  1.224987326586e+01   6.899222988249e+01  -2.247382537687e+01 
1 -5.379889832670e+01  -7.439622128689e+01  -3.065822500762e+01 
1 -1.076850433157e-01   2.730142281570e+01   4.960310121592e+01 
1 -2.711944431248e+01   9.929409506065e+00   2.094523894377e+01 
1 -3.489287701880e+00  -6.326764519274e+00  -4.120753898858e+00 
8
Step 1800
1 -1.138482032360e+01  -4.478007722363e+01   2.311003807536e+01 
1  2.551725378360e+01  -2.585943689391e+01   6.931919550409e+01 
1  7.694149456484e+00  -4.899857016830e+01  -6.885295986649e+01 
1  3.768495611129e+01   4.862340046805e+01  -5.461168862428e+01 
1 -1.383335217677e+01  -7.324719530951e+01  -1.442633120406e+01 
1 -2.256081267215e+01   3.175465622540e+01   3.666182461457e+01 
1 -1.816285273667e+01  -1.488289193963e+01  -6.948595096651e+00 
1 -1.273829336659e+01   2.551617970286e+01  -1.233717514443e+01 
8
Step 1900
1 -1.368370476173e+01  -1.895388782199e+00   2.536736985642e+01 
1  6.294849783024e-01  -4.070610406389e+01   6.891157701430e+01 
1 -1.987706934462e+01  -4.105588116357e+01  -2.672360873796e+01 
1  5.566707646281e+01   4.121853980643e+01  -4.685797154099e+01 
1  1.849286152982e+00  -6.146165409386e+01  -8.476154949539e+00 
1 -4.906376360418e+01   9.676887565940e+00  -5.369502011529e+00 
1 -9.761051600815e+00  -3.017229727136e+01   3.727904679623e-01 
1 -4.088887137178e+00   2.475413341768e+01  -2.460159039778e+01 
8
Step 2000
1 -3.972929927853e+01   1.113807356467e+01   1.445731564745e+01 
1 -2.374089257822e+01  -4.670673685153e+01  -2.094308672283e+01 
1 -1.161011724768e+01  -2.604522460232e+01  -8.387387227335e+00 
1  7.036847269385e+01   5.784704244493e+01  -4.358196928035e+01 
1 -1.021733207199e+01  -1.163910993034e+01   3.156754955242e+01 
1 -4.268089412700e+01  -4.277367432879e+00  -3.633347525006e+00 
1  6.902281815785e+00  -1.548734713631e+01  -1.464113753625e+01 
1  4.331012948871e+01   4.326019028715e+00  -1.609046604913e+01 
8
Step 2100
1 -4.358756544884e+01   2.201669660012e+01  -3.417124978016e+01 
1 -3.669268378152e+01  -2.616889632742e+01  -9.644015645043e+01 
1  1.486376187140e+01  -2.583287255348e+01  -2.200638804319e+01 
1  3.844500121562e+01   8.960179758864e+01  -1.003449108699e+01 
1 -2.483797733426e+01   7.798610427963e+00   6.413834378164e+01 
1 -2.928458415789e+01   3.593468291928e-01   1.121925044212e+01 
1 -2.374516685390e+01   1.523165071088e+00  -2.104776727661e+01 
1  7.042455247501e+01  -4.919200046232e+01  -2.317199887808e+01 
8
Step 2200
1 -3.839370286480e+01   7.391362094357e+00  -4.032613886997e+01 
1 -4.043796440716e+01  -3.240916753672e+01  -1.178593602135e+02 
1  2.719084773750e+01  -1.831353445081e+01  -5.386138093077e+01 
1  3.195860178554e+01   1.070396951902e+02   1.553823496057e+01 
1 -4.859911095337e+01   5.065181981262e+01   5.982086751976e+01 
1  4.120800176883e+00   2.561468047851e+01   1.987769866337e+01 
1 -2.471550980722e+01  -1.171865752268e+01   3.424210566314e+01 
1  2.833624460822e+01  -8.488948881420e+01  -5.920227858727e+01 
8
Step 2300
1 -5.582799656528e-01   8.608433552024e+00  -2.153526721305e+01 
1 -5.230807519047e+01  -1.099755399116e+01  -1.081146286886e+02 
1  1.157049157597e+00  -3.383488456053e+01  -4.769783863550e+01 
1  2.030104362822e+01   1.086020915445e+02   1.276276537410e+01 
1 -5.190350544185e+01   7.894660173222e+01   2.605845159897e+01 
1  1.944497517595e+01   5.106966744990e+01   8.476178779127e+00 
1 -2.769120288528e+01  -1.060101997056e+01   4.206223469543e+01 
1  2.441343688250e+01  -8.167573947336e+01  -3.242148743679e+01 
8
Step 2400
1  2.798573466696e+01   3.311694867303e+00  -1.929277974656e+01 
1 -9.254658180849e+01   2.164990124297e+01  -3.930944925670e+01 
1 -2.828497687692e+01  -9.556534398299e+00  -1.894518100466e+01 
1  6.004805021639e+00   1.061323537020e+02   1.476924363545e+00 
1 -5.575574677317e+01   8.820983873628e+01  -2.057586520296e+01 
1  4.336792023835e+01   5.000916191873e+01   2.283511688787e+00 
1 -1.765603502795e+01   2.978645831263e-01   1.707453946383e+01 
1  2.931358794360e+01  -8.469999073578e+01  -8.496118983605e-01 
8
Step 2500
1  1.694746456548e+01  -7.001109403386e+00  -1.346069255088e+01 
1 -1.037332206021e+02   2.880821916792e+01   1.892972689044e+01 
1 -4.464844403834e+01  -1.092102970501e+01   1.535139599480e+01 
1  1.995950994243e+01   6.845538525059e+01  -3.140173977156e+01 
1 -3.033249617885e+01   1.042711172929e+02  -5.795100883681e+01 
1  3.107619047290e+01   2.001092739178e+01  -2.104949352853e+01 
1 -2.854283342157e+01   1.415648636433e+01  -6.633378910513e+00 
1  5.519509892655e+01  -8.916084240924e+01   1.656927004943e+00 
8
Step 2600
1 -9.048549945411e+00  -1.255129629528e+01   6.806432672062e+00 
1 -7.778231206473e+01   2.132663047749e+01   2.696450536717e+00 
1 -4.288129200988e+01  -2.923335271615e+01   1.909392537862e+01 
1  4.126724972017e+01   4.520619414078e+01  -4.908971440416e+01 
1 -1.073954669975e+01   7.273091323847e+01  -6.378910874752e+01 
1  2.564597512911e+01  -5.110818889094e-01  -4.943797371434e+01 
1 -1.720887596376e+01   3.050407211426e+01  -5.047070596368e+00 
1  2.904242314856e+01  -7.535840203330e+01  -1.002065160567e+01 
8
Step 2700
1 -1.681613447242e+00  -1.996954667678e+01   4.374559995259e+01 
1 -4.382166395815e+01   1.392389725582e+01  -5.129731699689e+00 
1 -4.334388536585e+01  -3.307136209477e+01   6.893377260530e+00 
1  4.358467007866e+01   1.043767337878e+01  -4.418302002895e+01 
1 -3.046219270753e+01   2.695360351193e+01  -4.718398189037e+01 
1  8.102847924439e+00  -3.767334742583e+00  -2.770253991810e+01 
1  1.575094165248e+01   9.252054545988e+00   1.148925696999e+01 
1  1.453888127424e+01  -5.005775695572e+01  -1.750580297030e+01 
8
Step 2800
1 -1.617674839594e+01  -4.998659137533e+01   4.601649073669e+01 
1 -2.447690928192e+01   2.091446137449e+01  -1.232553335839e+01 
1 -7.824185910643e+01  -2.339123366143e+01  -3.376585050827e+01 
1  3.905903976491e+01  -1.787408331510e+01  -2.094241171770e+01 
1 -3.295818926638e+01  -7.028383344893e-01  -2.579453857561e+01 
1  2.351688786638e+01   1.866165873115e+01   2.975151722663e+01 
1 -1.612911373465e+00  -2.704229980184e+00   3.461479138372e+01 
1  4.737954371670e+00  -4.331523614318e+01  -5.734642507531e+00 
8
Step 2900
1 -3.117785708499e+01  -4.085065823413e+01   3.369497216820e+01 
1 -2.701333667100e+01   3.458912929434e+01   8.618941026143e-01 
1 -7.722596266966e+01  -2.440176686534e+00  -4.002226391374e+01 
1  1.957275160245e+01  -4.047939537641e+01   6.453663053505e+00 
1 -1.599703179209e+01   7.701504013125e+00  -1.839999814609e+01 
1  5.085520743896e+01   1.757995742246e+01   1.892687098692e+01 
1  7.693609358262e+00  -5.526764672067e+01   4.563990804771e+01 
1 -2.357449373537e+01  -4.232680114736e+01  -9.864797763551e+00 
8
Step 3000
1 -2.332994042954e+01  -1.014829493477e+01   4.458433296393e+01 
1 -3.670438267645e+01   3.809358213253e+01  -7.835947709190e+00 
1 -5.948984453553e+01   3.218135090094e+01   7.137648234531e+00 
1  1.072856118128e+01  -4.201519201369e+01   1.356244719616e+01 
1 -2.872446027047e+01  -8.995072017327e+00  -2.532893807398e+01 
1  4.086660580083e+01   4.453810653624e+01   7.881761523192e+00 
1 -4.378290334380e+00  -8.397537507972e+01   2.513122843748e+01 
1 -2.966926658942e+01  -8.738072926717e+00  -1.321569444858e+01 
8
Step 3100
1 -1.873749103868e+00  -4.627670191059e+00   5.385131712620e+01 
1  1.534962746762e-01   2.442741392057e+01  -4.785173813914e+01 
1 -6.202327317004e+01   2.248595078707e+01  -5.876223549989e+00 
1  9.908146571174e+00  -2.481758176631e+01   3.288473454292e+01 
1 -3.944505655636e+01   1.113723803385e+01  -4.166784188883e+01 
1  2.301733538150e+01   2.083418878250e+01   2.458981360259e+01 
1 -1.771288607439e+01  -8.399921340687e+01  -8.768758588521e-01 
1 -3.877677934512e+01   8.224267472314e+00   1.401584479092e+01 
8
Step 3200
1  1.533083255370e+01   1.865672326786e+01   8.786305824232e+01 
1  7.391482949523e+00   1.657863277383e+01  -9.845066116445e+01 
1 -5.142224149693e+01  -9.077963444557e+00  -2.082531607875e+01 
1  3.015541107697e+00   1.350507807239e+01   3.353774057884e+01 
1 -3.650803701036e+01   3.606152115347e+01  -3.443279002734e+01 
1 -9.641014082493e+00   2.870703636437e+01   7.422985185668e+01 
1  2.876452967084e+00  -5.729649064878e+01   2.877139265843e+01 
1 -5.811856879548e+01   2.884457436573e+01   5.800474031799e+01 
8
Step 3300
1  2.052639150357e+00   9.543703268354e+00   7.743317025446e+01 
1  2.347999741990e+01  -1.458516393327e+00  -9.307603791530e+01 
1 -1.644627253192e+01  -1.167001147232e+01  -5.444650651563e+01 
1 -4.102133405104e+01   1.579515641820e+01   2.023010542607e+01 
1 -1.786172972914e+01   4.031950354058e+01   1.835485267851e+01 
1  5.805501590369e+00   4.250822313667e+01   7.041673245526e+01 
1 -2.900762168713e+00  -7.185386027070e+01   3.415878520980e+01 
1 -4.006385425518e+00   1.230908497527e+01   5.849703789982e+01 
8
Step 3400
1 -4.492382993451e+01   9.510688889347e+00   5.113177293416e+01 
1  3.558216989882e+01   6.428925612453e+00  -5.416695522404e+01 
1  5.037366938761e+01  -2.283805844893e+00  -4.683512095700e+01 
1 -3.719761590627e+01  -3.162474756367e+00  -2.194521166814e+01 
1 -1.671064415011e+01   3.825195362414e+01   5.977224898894e+01 
1  4.164507758825e+01   6.591180951472e+01   1.815746522541e+01 
1 -3.626777375762e+01  -5.307689509594e+01   4.280915139581e+01 
1  2.819666235330e+01  -2.097406315740e+01   5.734820698747e+01 
8
Step 3500
1 -8.231150644040e+01  -7.607360271782e+00   3.887248728382e+01 
1  6.522871035812e+01  -1.020483806436e+01  -4.239582311710e+01 
1  8.158603894713e+01   3.903484256350e+00  -1.420190218817e+01 
1  9.758839200962e+00  -2.315276320598e+01  -5.643398576631e+01 
1  1.804969619821e+01   5.524530568544e+01   7.112662496629e+00 
1  5.326168547865e+01   7.601452597107e+01  -1.202674275504e+00 
1 -2.960899918048e+01  -2.047224848420e+01   2.415925281941e+01 
1  5.349805692987e+01  -4.004282223180e+01   7.257045094402e+01 
8
Step 3600
1 -8.380060375774e+01  -5.472970872812e+00   3.586919711229e+01 
1  9.665145342764e+01  -1.195142389759e+01  -4.976004382668e+01 
1  4.562333566556e+01   5.400515815980e+01   1.594500642986e+00 
1  7.195324551312e+00  -2.278087274072e+01  -7.555335765377e+01 
1  7.228492993576e-01   5.651695369720e+01  -8.474905528132e+00 
1  5.596511994783e+01   7.436676562007e+01  -3.192096358106e+00 
1 -2.649175780333e+01  -4.530577108496e+00  -1.189191629554e+01 
1  4.734246933602e+01  -8.524159607031e+01   5.708807323771e+01 
8
Step 3700
1 -4.685646097194e+01  -3.896291009037e+01   4.431960488753e+01 
1  5.108141087693e+01   3.859618051356e+00  -2.303439168341e+01 
1 -1.362139704157e+00   6.255123233121e+01  -1.450630591787e+01 
1 -8.849822641823e+00  -4.351005476447e+01  -4.205611251952e+01 
1 -3.838060172973e+01   2.830390358347e+01  -2.984514039029e+01 
1  5.411727977150e+00   4.704611984051e+01  -1.571338932042e+01 
1 -1.724861391751e+01  -1.981109771596e+01  -2.446736442424e+01 
1  3.940047641216e+01  -9.278375556220e+01   1.444589514065e+01 
8
Step 3800
1  1.087708101645e+01  -1.876801850507e+01   1.698374069950e+01 
1  1.946427611792e+01  -2.582012970777e+00   2.293583256559e+00 
1 -3.386373907000e+00   6.704030591976e+01  -1.396467518611e+01 
1 -1.302313534353e+01  -5.478321948029e+01   2.598257830987e+01 
1 -4.899740094448e+01   1.296902362527e+01  -4.954445133965e+01 
1  4.169906223526e+00   4.586341044671e+01  -1.216866671074e+01 
1 -4.848998584055e+01  -1.339524637286e+01  -3.274995978323e+01 
1  3.004198838546e+01  -4.482654130000e+01  -4.934228748565e+01 
8
Step 3900
1  1.400386010385e+01   4.974892248252e+01   7.548473458344e-02 
1  1.696466606538e+01  -1.909240570393e+01   1.349644632063e+01 
1 -2.480145781537e+01   7.144369023717e+01   4.825304243597e+00 
1  1.009171675201e+01  -3.564869465924e+01   5.492481552761e+01 
1 -1.104944331330e+01   2.672765697056e+01  -3.099804800628e+01 
1 -6.002993149830e+00   2.914860585116e+01  -1.171467885434e+01 
1 -4.663944256079e+01   1.107476259914e+01  -1.741128900072e+01 
1  2.374350130812e+00  -1.941764847941e+01  -9.044016050091e+01 
8
Step 4000
1  9.275248439266e+00   7.569164867367e+01   8.248246702158e+00 
1  4.638618633994e-01  -1.211078393447e+01   1.956988924468e+01 
1 -7.518191521347e+01   5.572244038009e+01   4.168296972120e+01 
1  4.305217995930e+01  -2.513334008889e+01   3.271805493186e+01 
1 -7.143982608067e+00   4.115251573509e+01  -6.399998445426e+00 
1  1.345895462048e+01   2.586795125644e+01  -3.322197475023e+00 
1 -3.829561460329e+01   1.385230003919e+01  -2.751127971915e+01 
1 -3.620468897352e+01   3.282781780008e+00  -7.558831195641e+01 
8
Step 4100
1  9.560263585716e+00   6.758327470469e+01   6.189654025386e+01 
1 -2.509714119889e+01  -1.914617936573e+01   4.453645898781e+00 
1 -6.616423998967e+01   4.169361539032e+01   5.823889279955e+01 
1  4.285811244853e+01  -3.524640913332e+01   5.806085579787e+00 
1 -4.372212517275e+01   1.096896114780e+01  -4.157064256765e+00 
1  5.203841778011e+01   4.497408010501e+01  -7.109944348719e+00 
1 -2.557195163360e+01   4.313416074091e+01  -3.571055099332e-01 
1 -3.484086431433e+01   1.860596753419e+01  -4.327409365400e+01 
8
Step 4200
1  1.447601705798e+01   3.789601884901e+01   1.119494130038e+02 
1 -4.241078983692e+01  -4.625109981161e+01  -1.894586654736e+00 
1 -2.156028169727e+01   2.014427536856e+01   3.794031281882e+01 
1  3.324991433302e+01  -2.491312410847e+01  -1.047164178614e+01 
1 -5.516494322444e+01  -2.762725260907e+01  -3.545861613920e+01 
1  8.543580112031e+01   8.982591878546e+01  -1.918885954880e+01 
1 -3.898074024895e+01   2.762358189416e+01   2.183044875229e+01 
1  1.101217482243e+01   7.410116034408e+00  -1.495559009676e+01 
8
Step 4300
1  2.194799215247e+01   1.391065337563e+01   1.191112127607e+02 
1 -1.831277317332e+01  -1.938019742853e+01  -7.103958963800e-01 
1  1.277638672222e+01  -2.849600010740e+00   9.009211118577e+00 
1  5.179271183432e+01   2.962577866010e+01   4.071120188315e+00 
1 -4.763019314771e+01  -2.311965956239e+01  -4.849769772468e+01 
1  8.048481985891e+01   9.507486228745e+01  -4.621590743382e+01 
1 -3.949287509496e+01   2.352461592882e+01   2.294053912822e+01 
1  2.880762351095e+01  -1.787713136938e+01  -2.154771502794e+01 
8
Step 4400
1 -1.784905396379e+01   1.792763741389e+01   7.319258241696e+01 
1 -5.996242405472e+00   1.827685645416e+01   2.111016120268e+01 
1  1.739476072488e+01  -3.504788360701e+00  -4.862315290142e+01 
1  4.098356312518e+01   4.186323933459e+01  -2.269735804398e+01 
1 -1.545871544738e+01  -8.996816806362e+00  -4.896070937861e+01 
1  2.406343405101e+01   1.774681785192e+01  -1.770290851041e+01 
1 -3.741995074670e+01   4.951938553787e+00   1.824570930383e+01 
1  1.841033822283e+01  -6.663959095243e+01  -2.076601337282e+01 
8
Step 4500
1 -6.287651074419e+01  -7.790929996698e+00   6.121714966735e+00 
1  4.024397489205e+00   3.188584000471e+01   3.482052855174e+01 
1 -7.069764803846e+00  -2.286735820726e+00  -6.623302322015e+01 
1  2.243247726777e+01   1.608873998127e+01  -2.332159545029e+01 
1  3.109019547446e+01   2.875827458099e+01  -4.649620665755e+01 
1  4.149756147744e+00  -2.222719781777e+01   1.209718424872e+01 
1 -4.399212064593e+01  -1.587586814036e+01   7.956998364308e+00 
1 -7.270559686625e-01  -6.678572239503e+01   4.334353914411e+00 
8
Step 4600
1 -7.038839041878e+01  -1.208140699259e+01  -2.468204932745e+01 
1 -7.559162236030e+00   4.287341493782e+00   1.465229873953e+01 
1 -3.480165141364e+01   1.034731131636e+01  -4.101121861576e+01 
1  2.734701001691e+01   1.847138190927e+01  -4.491227058485e+01 
1  2.752221324903e+01   5.798825674827e+01  -4.626629294223e+01 
1 -5.941896848212e+00  -1.207089782387e+01   2.885386540799e+01 
1 -2.202597783122e+01  -2.477994702584e+01  -1.779340404060e+00 
1 -4.053457399342e+00  -7.025975868635e+01   2.478490713489e+00 
8
Step 4700
1 -5.731612089294e+01  -6.157152842265e-01   1.858014324168e+01 
1  3.450937141886e+00   4.645560450171e+00  -1.646407528320e+00 
1 -2.415863409560e+01   2.676498171242e+01  -2.172510448192e+01 
1  3.172668257808e+01   3.883324198449e+01  -6.373831650089e+01 
1 -5.631083172517e+00   5.025395665568e+01  -6.341918300623e+01 
1 -1.935102548698e+01   3.427651026806e+00   3.490884431714e+01 
1  1.937563359560e+00  -1.894440643435e+01  -1.260257205179e+01 
1 -4.671428659915e+00  -6.398734241723e+01   1.082218964488e+01 
8
Step 4800
1 -2.237036963263e+01   7.641885329852e+00   5.628867031893e+01 
1  1.361079872650e+01  -1.909143221623e+01  -1.308367711695e+01 
1 -1.316977658141e+01   6.729666822088e+00  -1.711211899565e+01 
1  5.108033653679e+01   5.614860782847e+01  -6.255449757903e+01 
1 -1.483884807082e+00   4.044308017516e+01  -4.750658033720e+01 
1  9.847350233349e+00  -2.931925601219e+00   3.618722249917e+00 
1  1.071485393249e+01  -4.328663908332e+01  -4.485618858794e+01 
1  6.095490029375e+00  -5.813758602701e+01   2.177676014723e+01 
8
Step 4900
1  2.540164254261e+01  -1.865759011308e+01   7.526927572516e+01 
1 -8.967951386624e+00  -3.292519339687e+01  -8.532418092424e+00 
1  7.156135874696e+00   1.045702058913e+00  -1.128968310752e+01 
1  3.250465403235e+01   4.650395242049e+01  -4.159274785116e+01 
1 -2.334470210958e+01   3.758494324275e+01  -1.593207341754e+01 
1  3.820865742510e+01  -6.408209561827e+00  -2.346345516106e+00 
1 -1.828531404150e+01  -5.407933849899e+01  -3.326358792152e+01 
1  9.402146321817e+00  -9.153706989566e+00  -1.819301205078e+01 
8
Step 5000
1  3.239699134912e+01  -4.219453762502e+01   5.692824428230e+01 
1 -2.417979056896e+01  -3.550019165209e+01   1.714844883198e+00 
1  5.371237675522e+00   1.720042663408e+01   2.472291189409e+01 
1  2.653661288048e+01   4.170099692744e+01  -4.140572558534e+01 
1  7.278626649097e+00   2.755997097382e+01  -1.431607118427e+01 
1  4.525489340988e+01  -3.069049058839e+01  -1.652602089090e+01 
1 -5.407246826140e+01  -4.537100974929e+01  -2.605439442282e+01 
1  2.833207663572e+01   4.165124800543e+01  -2.207099616913e+01 
8
Step 5100
1  8.826600207732e-01  -6.471586641241e+00   2.960148834112e+01 
1 -1.110945101725e+01  -3.707225337115e+01  -6.244115248505e+00 
1  2.143151635358e+01   1.314520500950e+01   7.479075424541e+01 
1  6.147210056323e+00   5.806280885662e+01  -3.047202818833e+01 
1  1.474821134040e+01   9.957681284041e+00  -1.815404766583e+00 
1  4.365353086268e+01  -2.043459253184e+01  -2.248833121564e+01 
1 -3.773039286108e+01  -1.681010029489e+01  -7.170174274539e+00 
1  4.106982785906e+01   2.948811692231e+01  -1.295414117580e+01 
8
Step 5200
1 -2.822738076910e+01   3.591913541796e+01   8.943694971412e+00 
1  3.944469067968e+00  -5.030254924118e+01  -1.278790190340e+01 
1  3.990976890666e+01  -4.414054061105e-01   3.846279708527e+01 
1 -1.226372943664e+01   5.718837282142e+01  -7.529460620185e+00 
1 -2.802182207602e+00  -1.901984152147e+01  -2.155673964018e+01 
1  4.198630878992e+01  -2.888157623002e+01  -4.785904453690e+01 
1 -2.621810592927e+01  -2.386556489352e+00  -1.853334811369e+01 
1  4.033572850280e+01  -1.831972857924e+01   2.094340416919e+01 
8
Step 5300
1 -1.369803726949e+01   6.101064399130e+01   1.420663456605e+01 
1  1.245711587929e+01  -4.375313956491e+01  -5.787995058069e+00 
1  4.215041252227e+01  -2.314698283087e+01   3.453780483929e+01 
1  4.310950179694e+00   4.223378948209e+01   8.211490852728e+00 
1 -5.307641689879e+01  -2.211862042530e+01  -1.590377681102e+01 
1  4.065718969549e+01  -3.920186835567e+01  -6.830874584442e+01 
1 -3.174793975816e+01  -6.162035515336e+00  -5.212843726145e+01 
1  1.949871684780e+01  -3.944960056758e+01   5.666234604364e+01 
8
Step 5400
1 -1.596883261713e+01   4.747637068047e+01   1.690294515298e+01 
1 -4.731957476512e+00  -2.930850756201e+01   4.351642343576e+01 
1  3.717636043789e+01  -8.111785407653e+00   3.983355174476e+01 
1  2.043694360756e+01   4.947159478909e+01   1.122805839243e+01 
1 -7.149659118755e+01  -8.340738857820e+00   2.664156497273e+00 
1  4.410161411118e+01  -1.506153398309e+01  -4.181547187222e+01 
1 -3.203905996637e+00  -6.374115187809e-01  -5.284803432423e+01 
1  7.000926659233e+00  -1.459709378852e+01   8.838382511703e+01 
8
Step 5500
1  4.122722937773e-01   2.277007733107e+01   1.203026339455e-01 
1 -8.652130869659e+00   1.802428111081e+01   2.097555212911e+01 
1  9.675644980796e+00   3.344436126203e+00   3.307967381315e+01 
1 -1.236318601078e+01   3.022846554902e+01   3.594266245257e+01 
1 -6.720671860256e+01   8.315488912787e+00   2.784517694655e+01 
1  3.276254170777e+01   9.356798725666e+00  -4.343022676158e+01 
1 -5.168540384238e+00  -2.468572449278e+01  -4.545888756630e+01 
1 -9.290695044277e+00  -1.510330417617e+01   7.614761724984e+01 
8
Step 5600
1  2.242317407238e+01  -2.998857993841e+00  -5.443010916606e+01 
1 -2.701181689399e+01   3.109676285260e+01  -2.388607842110e+01 
1  1.533237414359e+01  -2.144378819307e+00   3.292407101804e+01 