8
Step 0
1  8.007571172427e+01  -3.110845953379e+02   3.800107656691e+02 
1 -5.019994772206e+02   1.856027071839e+01   1.621393706246e+02 
1  2.207658232920e+02  -1.104410825658e+02   2.470314518826e+02 
1 -1.415348931650e+02  -1.523649789114e+02  -2.476720116951e+02 
1  5.676001120780e+02   2.888057127613e+02  -1.504853858455e+02 
1 -1.790786513439e+02  -9.031868555372e+01   1.561677563649e+02 
1 -5.707928555522e+02  -1.331594404432e+02  -2.466767960142e+02 
1 -3.040050612691e+02   6.518498697881e+02  -5.665670346277e+02 
8
Step 100
1  7.676695232161e+01  -2.447889005408e+02   3.125775634441e+02 
1 -4.433571193639e+02   6.832894426725e+00   1.507922919957e+02 
1  2.236437341608e+02  -7.792100122921e+01   2.947308851612e+01 
1 -3.368717326235e+01  -5.690232391661e+01  -1.802085742105e+02 
1  3.862896783785e+02   1.932237551165e+02  -1.729606542655e+02 
1 -1.520262753159e+02  -8.748377941077e+00   1.260293823953e+02 
1 -5.079173653305e+02  -5.724126438260e+01  -1.398250243963e+02 
1 -2.995363584700e+02   4.072573400111e+02  -3.537556459252e+02 
8
Step 200
1  4.769760624055e+01  -1.487230862494e+02   2.210530005115e+02 
1 -3.095307097359e+02  -5.037291233914e+01   1.342249270096e+02 
1  1.654318006623e+02  -8.736639904480e+00  -2.191149163023e+02 
1  1.480422983177e+02   8.054649483114e+01  -1.221911776071e+02 
1  1.022761314755e+02   8.035197814004e+01  -1.198094197979e+02 
1 -1.027179519389e+02   6.871161800664e+01   6.920249939989e+01 
1 -3.729440547975e+02   2.723054564791e+00  -2.957341591950e+01 
1 -2.705266808356e+02   6.858673919216e+01  -8.027095420488e+01 
8
Step 300
1 -3.486256964529e+00  -6.166644912413e+01   1.500337777511e+02 
1 -1.596565199748e+02  -1.097033543764e+02   7.199061808729e+01 
1  8.303614694655e+01   3.560225704628e+01  -2.773242690389e+02 
1  1.825187854580e+02   1.095395343506e+02  -1.026490793633e+02 
1 -3.917424149578e+01   5.598860696031e+01  -4.576893054786e+00 
1 -2.558905385779e+01   8.608423928927e+01   6.786224170422e+00 
1 -2.575465849123e+02  -1.966388571986e+01   4.232637580878e+01 
1 -1.889520655297e+02  -9.102985838534e+01  -1.995704751320e+01 
8
Step 400
1 -2.293677595376e+01  -3.040522640047e+01   1.140051144913e+02 
1 -3.498346492428e+01  -1.079618937214e+02  -3.823722127563e+01 
1  4.050819316216e+01   3.448689687111e+01  -1.802710118911e+02 
1  1.175298475743e+02   5.946802190368e+01  -1.059619941144e+02 
1 -4.043125147300e+01   7.317344066661e+01   6.163838669952e+01 
1  2.260576770564e+00   3.242379480147e+01  -3.022965328603e+01 
1 -1.819005859050e+02  -5.907528531467e+01  -4.262798685275e+00 
1 -6.493728291526e+01  -5.309238798067e+01  -5.370719885228e+01 
8
Step 500
1 -2.573191015157e+00  -4.939056486543e+01   8.515329668081e+01 
1  5.297274414016e+01  -7.940802474289e+01  -1.095789095913e+02 
1 -8.920024112694e-01   1.687402179155e+01  -8.277875679626e+01 
1  5.475102711406e+01   3.331114269347e+01  -8.474373667540e+01 
1  5.590602279567e+01   8.099523185086e+01   2.581722471298e+01 
1  9.144018752376e+00  -1.703546598203e+00  -4.423330898831e+01 
1 -1.074394209952e+02  -9.325620873939e+01  -5.094617566911e+01 
1  5.163635704909e+00   1.628653530629e+00  -6.336003268543e+01 
8
Step 600
1  3.871841926725e+01  -4.933032547785e+01   6.458474272410e+01 
1  6.645490959429e+01  -6.999389987564e+01  -1.129397221985e+02 
1  9.598072469375e+00   1.681004936961e+01  -2.301394058606e+01 
1  1.465279190580e+01   2.723559085120e+01  -9.321754773612e+01 
1  1.318752457519e+02   9.095236906075e+01  -7.211342370356e+00 
1  2.328368897531e+00  -5.053485990466e+00  -2.840074895384e+01 
1 -7.698930010178e+01  -8.252205140038e+01  -4.940567048255e+01 
1  3.807022349956e+01  -7.728196562225e+00  -1.197440455616e+01 
8
Step 700
1  2.653243058527e+01  -3.070536596876e+01   4.049879889371e+01 
1  4.672447169583e+01  -7.822589626771e+01  -6.108123474428e+01 
1  2.134620220521e+01   2.745983877473e+01  -4.058321936451e+01 
1 -1.089156021534e+01   3.749724399519e+01  -7.421624710371e+01 
1  1.287800424895e+02   8.516738105243e+01  -4.172533608576e+01 
1  1.127454252874e+00  -5.197320090375e+00  -8.473894771854e+00 
1 -4.754354367474e+01  -6.653259078204e+01  -5.194834630262e-01 
1  3.658574820781e+01  -1.474056015606e+01   3.316441974862e+01 
8
Step 800
1 -4.878382019097e+00  -1.255295876133e+01   1.516729353068e+01 
1 -2.352597094527e+01  -8.098360286971e+01  -5.681327585600e+01 
1  4.641071491965e-01   1.466624277913e+01  -4.095954227849e+01 
1 -8.442161939475e+00   4.342228084720e+01  -6.340987692479e+01 
1  1.182452534156e+02   7.816979234655e+01  -2.391888403975e+01 
1 -1.158801356988e+01  -1.129997580160e+01  -2.364969825327e+01 
1 -3.508921782725e+01  -5.578305886031e+01   4.750269526242e+00 
1  3.281122135714e+01  -2.727788633902e+01   2.089158882683e+01 
8
Step 900
1  3.376622361195e+01  -1.099812942820e+00   1.539204483436e+01 
1 -4.755548154571e+01  -2.883940847685e+01  -6.335893810112e+01 
1  2.218886689526e+01   4.900875516325e-01  -1.676969562014e+01 
1 -1.150680381320e+01   4.288176734428e+01  -6.056407966504e+01 
1  1.075336063543e+02   6.358280525685e+01  -6.256671615944e+00 
1 -1.275513093020e+01   5.860898952577e-01  -3.546187121804e+01 
1 -4.209890248647e+01  -3.177039612699e+01  -1.761070053769e+01 
1  2.306372768784e+01  -5.200243899971e+01   8.463427587284e+00 
8
Step 1000
1  7.868071935280e+01   2.330930073689e+00   9.231831184271e+00 
1 -1.716740004935e+01  -1.682466327888e+00  -6.667616968564e+01 
1  4.923793924461e+01   1.380337777145e+01   3.410144390476e+01 
1 -1.269956459695e+00   4.018164421093e+01  -4.735882463796e+01 
1  1.072568132676e+02   7.019631073541e+01   1.566647183608e+01 
1 -7.905644999284e+00  -9.014091271340e-01  -2.742521792546e+01 
1 -1.899535065176e+01   1.088789902537e+01  -1.044137742830e+01 
1  1.215401409536e+01  -3.496285666359e+01  -4.337889503181e+00 
8
Step 1100
1  7.527246403252e+01  -6.412532178795e+00  -1.585671124230e-01 
1  1.519326451936e+00   1.062790936860e+01  -3.030360560463e+01 
1  7.645539941231e+00   1.655374223671e+01   3.227836890407e+01 
1 -3.112267965247e+00  -1.607658103604e+01  -3.133836892175e+01 
1  7.582337931767e+01   8.125872392193e+01   1.833126864694e+01 
1 -7.720945715443e+00   3.228350107067e+01   3.163780855956e+01 
1  4.192207384279e+01   4.967880333937e+01   2.923688764517e+01 
1 -5.389469275672e+00  -1.750909167714e+01  -9.705818981932e+00 
8
Step 1200
1  4.058229433175e+01  -1.711658054274e+01  -6.156661716150e+00 
1 -1.188696867331e+01   7.996008746042e+00  -2.535972876114e+01 
1 -1.551305176704e+01   1.862582812687e+01   1.795782931373e+01 
1 -1.261185837372e+01  -3.745271716027e+01  -1.603603711057e+00 
1  8.339106548407e+01   1.112737270047e+02   5.968103619101e+00 
1 -5.431940909336e+00   5.172530368130e+01   5.775594370381e+01 
1  4.374190013860e+01   5.235434864303e+01   2.213561093451e+01 
1  1.030253926918e+01  -3.162979384245e+01  -4.782063495994e+00 
8
Step 1300
1  2.925791927022e+01  -5.597243646370e+00  -6.165225744995e+01 
1  2.794443750354e+00   3.594497384867e+01  -4.784732662616e+01 
1 -7.096770483104e+00   2.405537852771e+01   1.665415943176e+01 
1  1.074874602793e+01   9.441375680955e+00   3.100511778541e+01 
1  9.057356204522e+01   8.476983266206e+01   4.468760045179e+00 
1 -9.951312393942e-01   2.242426742353e+01   2.232602334671e+01 
1  2.446187379762e+01   2.108256958335e+01  -1.726223910417e+01 
1  2.031330535548e+01  -4.493401856914e+01  -2.738988759811e+01 
8
Step 1400
1  2.816079085757e+01  -2.155594884042e+01  -5.108449606290e+01 
1  3.002313443950e+01   2.992969226884e+01  -3.761583174955e+01 
1  7.733578397410e+00   3.619859548589e+01   3.538575550574e+01 
1  1.705363762385e+01   1.010937953388e+01   3.381484540483e+01 
1  7.269588160533e+01   3.605408030657e+01   8.936190656075e-01 
1  6.715019188434e+00   1.699532934988e+01   2.115196415664e+01 
1  1.002840749881e+00  -1.987545963930e+00  -6.379414201867e+01 
1  5.816744583234e+00  -4.362417717132e+01  -2.816890412266e+01 
8
Step 1500
1  5.432584797835e+01   8.200532644844e+00   1.010532316989e+01 
1  2.192717692613e+01   3.405891079430e+01  -2.958579797126e+00 
1  3.272791482466e+01   7.895056279464e+01   2.619415611598e+01 
1  2.349284105500e+01  -4.637719876586e+00   2.244158286788e+01 
1  3.644615260208e+01  -1.141023589372e+01  -2.205774291814e+01 
1  3.935713725315e+01   4.465623004033e+01   1.272639509099e+01 
1 -2.247725262460e+01   5.299040312979e+00  -9.141832916560e+01 
1  1.823817729029e+01  -3.221714815162e+01  -1.749630056783e+01 
8
Step 1600
1  3.709929610873e+01   3.919002316969e+01   5.128815952481e+01 
1 -6.750779852658e+00   3.462755835821e+01   2.751911840405e+00 
1  9.336064258469e+00   6.567366694814e+01   2.631147789160e+01 
1  2.157213558027e+01  -2.916102683273e+00   2.735850177239e+01 
1  5.054935622664e+01  -8.926900740750e+00  -4.531513150465e+01 
1  5.710544435423e+01   5.361207916946e+01  -6.537943323001e+00 
1 -5.519139154827e+01   1.688130317625e+01  -7.281793532563e+01 
1  2.095811117953e+01  -1.507845834736e+00   2.783473804959e+01 
8
Step 1700
1  3.954279992959e+00   6.028291493020e+01   2.994143271486e+01 
1 -4.221489338311e+01   3.397397170942e+00   1.708030958659e+01 
1  4.160738313246e+00   4.256415222021e+01   2.070705003645e+01 
1  4.955650222270e+00   1.905725812073e+01   3.884812294663e+01 
1  2.862428973450e+01   2.820706482407e+01  -1.749038289382e+01 
1  4.351894200774e+01   4.759187556679e+01  -3.496091828450e+00 
1 -5.554277769534e+01   5.853768914941e+00  -3.883412713948e+01 
1  3.965607839400e+01   5.519528827373e+01   1.843681856091e+01 
8
Step 1800
1 -5.266314363297e+00   4.086610466226e+01  -1.322340761601e+01 
1 -5.427090375143e+01   3.708025758435e+00   4.995451307574e+00 
1 -2.622692076352e+01   2.755651876468e+00   2.167729222880e+00 
1  7.118916238444e+00   1.691355132074e+01   1.690331483333e+01 
1 -1.563251889608e+01   4.010721370294e+01   6.117747936151e+00 
1  2.776655469372e+01   3.748613744289e+01   8.915897387622e+00 
1 -4.319720813282e+01   4.426232425590e+00  -4.533408598790e+00 
1  3.340769902285e+01   6.420816337450e+01  -4.146780976430e+01 
8
Step 1900
1  5.962838885308e+00   4.260168796104e+01  -4.630768103812e+01 
1 -4.571099613108e+01   4.386291882875e+00  -1.559734974984e+01 
1 -2.689145330560e+01  -2.793310012677e+01   1.287549523328e+00 
1  2.647259594899e+01   1.874474032507e+01   1.621597066505e+01 
1 -1.325227946712e+01   6.563037171243e+00  -1.148400720675e+01 
1  1.254754762447e+01   3.937705736059e+01   2.462262700285e+01 
1 -4.993347792916e+01   3.312109546099e+00   2.028462425983e+01 
1  1.501696084414e+01   2.820659524495e+01  -4.476517593605e+01 
8
Step 2000
1  5.468936935895e+00   5.263721013098e+01  -3.837639312909e+01 
1 -4.701493970869e+01  -3.950005214257e+00  -5.503567889622e+00 
1 -8.498896912417e+00  -4.929982585740e+01  -1.521695540508e+00 
1  5.777975884365e+01   2.884484472541e+01   1.135307625352e+01 
1 -4.881115638409e+00  -2.862778342907e+01   1.470971835845e+00 
1  2.159884712601e+01   1.539160404344e+01   1.171246701382e+01 
1 -1.943148825473e+01   9.385421193613e+00   1.161413394006e+01 
1  2.700048407212e+01   1.580020701873e-01  -1.832427445378e+01 
8
Step 2100
1  1.509810531534e+01   4.707053865504e+01  -7.416696470879e+00 
1 -1.468307078566e+01   2.268238310455e+01   2.336843595206e+01 
1 -7.445138090838e+00  -4.983289942585e+01  -1.265342913616e+01 
1  6.290683642631e+01   9.180026960252e+00  -1.814804732887e+01 
1  4.216063104101e+00  -2.121751994341e+01   4.810518237038e+00 
1  7.099167176479e-01   2.694807889740e+00   1.505113224223e+01 
1 -1.054159077945e+01   2.583824212342e+01  -5.340406037640e+00 
1  4.213573873637e+01  -1.875198304958e+01  -1.322933898779e+01 
8
Step 2200
1  2.591453060366e+01   6.022802851105e+01  -1.289545374461e+01 
1  1.397124828815e+01   2.366405161342e+01  -3.962728551933e+00 
1  1.017935194935e+01  -4.107511823689e+01   7.592145170258e+00 
1  6.609010195397e+01  -9.347158456661e+00  -4.236672890046e+01 
1  3.397370450650e+01   1.669312833064e+01  -2.699227245121e+01 
1 -3.710281750925e+01   1.901982102675e+00   2.787332842712e+01 
1 -1.074544365558e+00   2.447846713374e+01  -4.992188099636e+00 
1  3.397201377998e+01  -2.579503839031e+01   3.866778076178e+00 
8
Step 2300
1  1.910886511844e+01   7.569271636236e+01  -1.600201839718e+01 
1  3.482937087554e-01   5.485891747942e+00  -2.837363031133e+01 
1  2.283149046599e+01  -7.005535346573e+00   3.161859774040e-01 
1  5.251016684214e+01   1.008030151573e+01  -3.076312445503e+01 
1  3.718268934315e+01   1.076162926016e+01  -2.622978853539e+01 
1 -2.201626765219e+01   2.897862500238e+01   3.227033492574e+01 
1  5.402265002500e+01  -3.733713002014e+01   1.160207404190e+01 
1  2.685639308120e+01  -1.387799689759e+01   1.466610492549e+00 
8
Step 2400
1  4.446447561959e+01   5.334359740604e+01  -1.209154758025e+01 
1 -3.187524059737e+01  -1.719549220303e+01  -3.427450777613e+01 
1  7.333552418868e+00   3.158730190305e+01   5.791724936014e+00 
1  2.825656393392e+01   2.801535047511e+01   5.661647539944e+00 
1  1.375486303866e+01  -1.433909466898e+01  -8.806872720070e+00 
1 -1.671269737781e+01   3.221978141356e+01   4.622211081876e+01 
1  7.442304958444e+01  -8.232902737331e+01   3.188049774177e+01 
1  3.917980456491e+01  -9.728861593394e+00  -1.396351261382e+01 
8
Step 2500
1  6.805725653356e+01   2.813731142222e+01  -2.585929285517e-01 
1 -2.898004473067e+01  -1.047294761086e+01  -3.611161093338e+00 
1 -1.100310563650e+01   5.771853354249e+00  -5.269189177940e+00 
1  5.692614207442e+00   2.639489273523e+01   7.632781420536e+00 
1 -3.531275753613e+00  -3.900858881480e+01  -1.685569713607e+00 
1  1.165614022532e+01  -4.903926369300e+00   1.856489110779e+01 
1  1.425230829228e+01  -8.724736002590e+01   2.994093340796e+01 
1  2.485792790578e+01  -2.932292659702e+01  -1.699627306880e-01 
8
Step 2600
1  5.296543478531e+01   2.833622484982e+01  -2.475827743918e+01 
1 -3.203161663431e+01  -7.206306254356e+00  -2.018546989268e+00 
1  2.660560777080e+01  -9.692446000337e+00  -8.302666546854e+00 
1 -2.182620750743e+01   7.334360191608e+00   3.328626116576e+01 
1 -3.007853844711e+01  -4.210338878863e+01  -2.579504158398e+00 
1  3.400892089043e+01   5.972994295228e+00  -6.615031159439e+00 
1 -3.200614747552e+01  -5.180928634375e+01   9.143840404676e+00 
1  3.311218741371e+01  -4.526241980700e+01   3.116480247414e+01 
8
Step 2700
1  4.123450139868e+01   7.554525154460e+01  -2.476279959420e+01 
1 -1.538760696143e+01   9.123955370763e+00  -1.489506559842e+01 
1  4.706343771800e+01  -3.123237210071e+00  -4.775717579288e+00 
1 -5.099337936811e+01  -1.606736421526e+01   5.084230642443e+01 
1 -9.460627484105e+00  -2.053860283445e+01  -1.086244704924e+01 
1  3.707267384241e+01   2.590910852475e+01   1.307515928782e+01 
1 -3.673485648353e+01  -1.951280957582e+01   4.192251115469e-01 
1  7.290783856818e+01  -6.108382732119e+01  -1.403554446706e+00 
8
Step 2800
1  4.991530346214e+01   5.602326819804e+01  -2.293924753824e+01 
1 -6.981295020061e-01   4.264343287069e+01  -9.406683761720e+00 
1  2.512539239821e+01  -1.007097177780e+01   5.981396226081e+00 
1 -5.631491640697e+01  -3.647902583670e+01   4.235809497680e+01 
1  3.554780097922e+00  -2.234543346549e+01  -1.231935244793e+01 
1  1.131008027669e+01   2.229038892535e+01   2.631243431395e+01 
1 -2.912457316843e+01  -4.231322046501e+01   6.096051430896e+00 
1  7.741716585218e+01  -3.493384349229e+01  -4.801300483508e+01 
8
Step 2900
1  4.689955567098e+01   2.410476393504e+01  -3.682880559080e+01 
1 -2.085999218612e+01   8.781491290079e+01  -1.868939120994e+01 
1 -1.984636551757e+01  -2.305757583231e+01  -4.788711475512e+00 
1 -4.982986557283e+01  -3.071961557181e+01   3.540673576285e+01 
1 -7.072403967890e+00  -4.060538784154e+01  -4.042800722855e+01 
1 -9.250076124516e+00   1.027566861796e+01   2.179975528308e+01 
1  1.445202376654e+01  -7.187497207027e+01   1.758787261111e+01 
1  2.965963231211e+01   9.583768545889e+00  -5.652454348772e+01 
8
Step 3000
1  4.527183734441e+01   3.053723823989e+01  -2.604903059918e+01 
1 -6.516984247339e+00   9.362313192755e+01  -1.166985762993e+01 
1 -7.209526080311e+01  -3.839673501861e+01  -2.300024004104e+01 
1 -1.049561298100e+01  -3.886630475183e+01   1.975080329811e+01 
1 -2.575607197829e-01  -4.656056721667e+01  -5.196384644481e+01 
1 -3.972724080445e+01   1.344779289995e+01   1.296431356881e+01 
1  2.222653657986e+01  -9.307271255674e+01   6.509140801315e+00 
1  2.158507270959e+00   2.940451259667e+01  -3.729648715665e+01 
8
Step 3100
1  5.515909560600e+01   5.309447769345e+01  -1.543913043311e+01 
1  9.819829583283e+00   1.008353188867e+02   1.495232601840e+01 
1 -4.471267707845e+01  -3.396122931775e+01  -1.083597314969e+01 
1  1.909550027583e+01  -6.277508548752e+01   2.577813576511e+01 
1 -7.099669846909e-01   1.234655952627e+00  -6.736834141137e+01 
1 -4.455395054611e+01   2.369732185101e+01  -1.354468103829e+01 
1 -1.874896431558e+01  -8.313422859586e+01   6.692860492139e+00 
1  1.267774998193e+01   7.171411804774e+01  -2.495409813968e+01 
8
Step 3200
1  3.456903573954e+01   2.709278861138e+01   1.632354610489e+01 
1  3.889475039101e+01   9.480927742390e+01   2.112296773952e+00 
1 -1.170063957526e+01  -2.412106565052e+01  -1.866646196189e+01 
1  2.105965068543e+01  -6.057883418239e+01   2.564055977086e+01 
1 -3.756744167266e+00   4.240362580702e+01  -5.445474474765e+01 
1 -3.613432007172e+01   3.098614291696e+01   2.001266676144e+00 
1  2.248609769842e+00  -7.697838854527e+01  -5.464432589447e+00 
1 -1.571823240693e+01   5.648665895059e+01  -3.234048269997e+01 
8
Step 3300
1  1.742389751094e+01   2.060302575173e+01   4.008369466397e+01 
1  9.352950792031e+01   6.671234530720e+01  -2.068043336802e+01 
1  8.003451255299e+00   1.718331971641e+01  -3.544312933979e+01 
1  3.104808836437e+01  -3.825671927548e+01   1.015580065851e+01 
1 -1.395717616877e+01   6.088832321747e+01  -4.514091350996e+01 
1 -1.556934610152e+01   5.777895175972e+01   4.286920642969e+01 
1  2.266177841908e+01  -8.438454593541e+01  -3.808128283944e+00 
1 -4.589563887028e+01   3.585081457926e+01  -1.415051066642e+01 
8
Step 3400
1  7.297483375077e+00  -4.939417086380e+00   1.321416867297e+01 
1  8.955674830265e+01   6.230002679547e+01  -4.319049910535e+00 
1 -1.516731458241e+01   1.498387034387e+01  -2.820077463367e+01 
1  3.987909417122e+01  -8.677195687662e+00  -8.048320897659e+00 
1 -1.237433794147e+01   6.288390135737e+01  -4.216515557033e+01 
1  3.006910089129e+01   4.721033107034e+01   4.303382925427e+01 
1  3.535022622813e+01  -5.420254154949e+01   3.120532136129e+01 
1 -7.647322826356e+01   2.258731809083e+01   2.985558470085e+01 
8
Step 3500
1 -2.417318439284e+01  -8.063853963609e-02  -4.714085041843e+00 
1  5.727471816703e+01   6.055581505788e+01  -1.100991300502e+00 
1 -1.793883276168e+01   2.379397004335e+01  -7.215393419271e+00 
1  7.794099803279e+00   2.089384926551e+00   1.042747743753e+01 
1  3.677133970412e+00   5.325776813832e+01  -3.584204524483e+01 
1  2.188115232750e+01   3.319710377014e+01   3.962914269111e+01 
1  5.239903209451e+01  -8.633396794288e+00   2.986677043864e+01 
1 -7.733477526701e+01   2.348550625006e+01   3.807689253926e+01 
8
Step 3600
1 -3.818170962212e+01   5.969813436278e+01   6.563792244849e+00 
1  3.976342339734e+01   6.211864797406e+01   1.701165632951e+01 
1 -7.855031064327e+00   9.286018030016e+00  -5.315120801953e+00 
1 -4.690228368289e+01   5.256628534297e+00   1.150061825806e+01 
1  9.264909215400e+00   4.072249535755e+01   1.444983345368e+01 
1  1.800098385937e+01   1.660361607562e+01   4.102413536556e+01 
1  1.691244140088e+01  -8.175445527512e-01   9.744615024451e+00 
1 -7.846651837302e+01   1.895387669378e+01   3.895864965916e+00 
8
Step 3700
1 -3.077503700727e+01   4.996566945799e+01   2.257098265878e+01 
1  2.024531340165e+01   3.857772756776e+01   2.384555578776e+01 
1 -2.359014322697e+01   1.425219524586e+01  -1.075319863350e+00 
1 -6.289008733613e+01  -3.064955670726e+01  -5.018424316013e+00 
1 -2.558872974074e+01   3.832463145467e-01   2.575377601532e+01 
1  1.545691248945e+01   1.779226751844e+01   5.287170374597e+01 
1 -1.661207170386e+01   1.356932915031e+01   1.044176193900e+01 
1 -6.422602273268e+01   1.015464653977e+01   8.087152468456e+00 
8
Step 3800
1  2.078016245149e+01   2.543954535312e+01   3.899139601690e+01 
1  2.517315848841e+01   1.976932915023e+01   2.111921347031e+01 
1 -1.253924749948e+01  -7.210537048254e+00  -2.573420728871e+00 
1 -6.244769226633e+01  -5.946631358706e+00   5.497135727373e+00 
1 -3.186529916957e+01  -2.605890253523e+01   2.108665420936e+01 
1  3.105684718075e+00   3.050314206694e+01   5.225206721237e+01 
1 -4.016975302585e+01   7.679064906825e+00   4.087322977680e+00 
1 -5.543762441009e+01   3.760598801553e+00  -1.948431452397e+01 
8
Step 3900
1  4.662228277039e+01  -4.468781590679e+00   5.868346969099e+01 
1  5.606269975084e+00   1.314466267949e+01   2.360337628161e+01 
1 -2.460403314570e+01  -1.708027988857e+01  -3.564531008825e+00 
1 -2.994219304869e+01   1.041042971380e+01  -1.866072300473e+01 
1 -2.961404024028e+01  -3.454845115107e+01   9.311606617686e+00 
1 -1.033728592926e+00   1.452225360592e+01   5.933645797191e+01 
1 -2.269127870501e+01   1.150221226558e+01  -1.640718548493e+01 
1 -3.014776320031e+01   2.652850314256e+01  -5.649185608381e+01 
8
Step 4000
1  2.978415023938e+01   1.282760948556e+01   6.299036555950e+01 
1 -8.145587288784e+00   1.286186460237e+01   3.413320932670e+01 
1 -3.794155568876e+01   8.072015323717e-01   3.550207459949e+00 
1  4.878316729058e+01   2.801926651815e+01  -4.242228432876e+01 
1 -3.476590768264e+01  -5.566941247132e+01  -2.914640506041e+01 
1 -4.735774302223e+00  -6.889131497650e+00   3.594057984095e+01 
1 -2.702781317978e+01  -1.362517957531e+01  -2.879776225009e+01 
1  2.196520187859e+01   6.053714035130e+01  -4.744443946229e+01 
8
Step 4100
1  6.266693790976e+00   2.153656397004e+01   5.640841708377e+01 
1  1.436450191364e+01   2.429994517343e+01   2.525703950418e+01 
1 -2.838885316816e+01   4.090529568273e+01   9.778980850929e+00 
1  9.298398168272e+01   2.562498004597e+00  -5.893437424987e+01 
1 -4.778200762149e+01  -3.263878125833e+01  -4.419576277282e+01 
1 -1.047420312941e+00   1.410323499422e+01   8.134038811841e+00 
1 -3.578804664011e+01  -4.524806215326e+01  -4.171748238754e+01 
1  2.099493335261e+01   6.400441767895e+01  -3.155419822516e+01 
8
Step 4200
1  2.495200885483e+01   2.190184499715e+01   1.896771385755e+01 
1  3.909128820871e+01   4.690627946773e+01   1.136530891449e+00 
1 -3.452633695634e+01   2.638223184323e+01   4.305637087592e+01 
1  8.073677751258e+01   1.360972815080e+01  -8.681208183071e+01 
1 -5.380635325926e+01   3.511145545860e+01  -7.140317958110e+01 
1  1.632730089194e+01   2.203662545838e+01   4.758345645017e+00 
1 -5.368663953964e+01  -3.217349991473e+01  -1.757518730631e+01 
1  1.278583306633e+01   3.355777650649e+01  -8.268473142780e+01 
8
Step 4300
1  3.949850260028e+01  -5.334647729036e+00   3.281322729230e+00 
1  1.809666459557e+01   5.134973095493e+01  -1.440272922239e+01 
1 -1.881940101277e+01   2.231482051764e+01   2.722414639582e+01 
1  6.557151868434e+01   1.112540635398e+01  -5.921918521794e+01 
1 -5.941179511491e+01   7.191156782494e+01  -3.401817595992e+01 
1  2.576630893756e+01   9.101991483004e+00   2.848641014471e+01 
1 -7.163049828224e+01  -2.405577479270e+01  -1.793574330982e+00 
1  1.733008139933e+01  -4.906303524492e+00  -1.105081716483e+02 
8
Step 4400
1  1.718575633973e+01   1.501735130672e+01  -1.693668677171e+01 
1  6.110950373324e+01   1.626669597679e+01  -8.585960374169e+00 
1 -2.540234287024e+01   1.793897942080e+01   4.460913797807e+01 
1  8.492449277982e+01   3.158104145146e+01  -2.814694207802e+01 
1 -4.475829839821e+01   6.011695621407e+01  -8.991523502439e+00 
1  8.153518448639e+00  -8.776001008232e+00   3.550587912949e+01 
1 -6.014022799768e+01  -2.121284813678e+01  -4.057693640947e+01 
1 -3.581580845571e+00  -1.080658068444e+01  -8.117522080218e+01 
8
Step 4500
1 -1.531036068488e+01   2.406017056794e+01  -1.104643618097e+01 
1  7.717458225260e+01  -1.029505780188e+01  -6.229584786983e+00 
1 -1.443090971526e+01  -1.078965350206e+01   5.351794797355e+01 
1  9.127236291998e+01   2.286909453568e+01  -8.275722728680e+00 
1 -5.125254423454e+01   1.572348760240e+01   1.476387147229e+01 
1  1.144750659333e+01  -5.924567176242e+01   1.806278913093e+01 
1 -3.625647432119e+01  -4.750420554635e+01  -5.156638231386e+01 
1  1.002292016724e+01  -1.986118270435e+01  -3.096112795207e+01 
8
Step 4600
1 -4.203104957168e+01   2.860717096231e+01   1.248899959626e+00 
1  8.807958021646e+01  -4.618690567879e+01  -4.061914225205e+01 
1 -7.043944148793e+00   1.670712936799e+01   6.836483527542e+01 
1  4.434784503498e+01   9.557351908762e+00  -2.736775535914e+01 
1 -8.112755028286e+01  -1.144020170142e+00   7.935497118997e+00 
1  2.819531969325e+01  -5.217618767994e+01  -9.965052357701e+00 
1  1.305392178259e+00  -5.175033481653e+01  -5.755247313153e+01 
1  3.406714853262e+01  -3.720206074344e+01  -1.536256519817e+01 
8
Step 4700
1 -2.164639041342e+01   3.821097764227e+01   1.493737596652e+00 
1  6.298250057136e+01  -3.851292647881e+01  -3.949348873299e+01 
1 -1.456627908511e+01   3.601031115559e+01   6.090854206465e+01 
1  3.375481965791e+01   1.882857932011e+00  -5.895212738636e+01 
1 -5.916176418777e+01   1.660469978517e+01   1.825967898449e+01 
1  2.294020711922e+01  -3.957018063527e+01  -1.731957823214e+01 
1  3.362972439393e+01  -5.627510245958e+01  -3.116785690829e+01 
1  3.026988773750e+01  -3.494732051796e+01  -1.678630663301e+01 
8
Step 4800
1 -5.755573956580e-01   3.245399186781e+01   4.364456107860e+01 
1  2.573437107939e+01   4.856971021888e+00  -2.605172871537e+01 
1 -2.559773963554e+01  -2.846150881871e+00   5.000573273545e+01 
1  1.534738639463e+01   2.063584552370e+01  -1.322251673437e+01 
1 -1.849949016840e+01   3.532360323627e+01   1.536497509931e+01 
1 -1.076891031433e+01  -5.401914079198e+01  -2.200711923280e+00 
1  1.570461525255e+01  -6.639953654721e+01  -1.830229040244e+01 
1 -2.446915625629e+00  -1.936186388808e+01  -2.932006566045e+01 
8
Step 4900
1 -2.881860366156e+00   1.970875739329e+00   8.107253903327e+01 
1  1.217525488402e+01   3.555758309577e+01  -8.507414686191e-02 
1  7.116507950370e+00  -3.416236338461e+01   3.301986348376e+01 
1  1.987495304109e+01   8.763714046133e-01   6.405207855148e+00 
1  1.623891337397e+00   5.694905655203e+01   1.334333769471e+01 
1 -1.284598633798e+01  -5.327189805110e+01  -1.041220790385e+01 
1  8.990290348923e-01  -6.596605501432e+01   1.732382989228e+01 
1  6.253522763961e+00  -1.136057223195e+01  -2.426829068733e+01 
8
Step 5000
1 -1.200778642052e+01  -1.331670384411e+01   4.448892681301e+01 
1  1.837814573377e-01   1.819876205253e+01   4.652115584130e+01 
1  1.297629185852e+01  -2.902307426080e+01   3.984241829476e+01 
1  3.208853764476e+01  -2.327553669354e+01   1.013981795386e+01 
1 -1.160450813874e+01   4.521351718989e+01   2.433282145550e+01 
1 -1.724014942293e+01   7.293202407125e+00  -1.106116170798e+01 
1  1.522074462760e+01  -3.908742291567e+01   2.328973366731e+01 
1  1.085518563863e+01  -1.686055039476e+01  -1.516254223637e+01 
8
Step 5100
1  2.797783076954e+01  -1.850465363304e+01   2.999812740506e+01 
1 -1.348298816326e+01  -1.009650149416e+01   7.985195504169e+01 
1 -5.034103641958e+00  -3.813846328268e+01   2.683094306921e+01 
1  1.816724641429e+01  -4.084867541456e+01   2.823858256370e+01 
1 -3.021178558001e+01   8.325404030846e+00  -7.832824795755e-01 
1 -4.386978529480e+01   4.346536820983e+01  -1.530238714185e+01 
1  4.437924208928e+01  -1.840778853793e+01   2.288216605504e+01 
1 -1.586947002359e+01  -3.667764885267e+01  -2.695161936774e+00 
8
Step 5200
1  7.229581081564e+01   3.386485314241e+01   3.789617260392e+01 
1  3.143144350480e+00  -3.196267388672e+01   7.544556690745e+01 
1 -1.667893944384e+01  -3.129146298265e+01  -7.480978944842e+00 
1  1.539138033693e+01  -2.837599100296e+01   4.607974833886e+01 
1 -4.256039840468e+00  -1.438903275028e+01  -2.739728502928e+01 
1 -4.419158021785e+01   2.598640019365e+01  -2.371206314856e+01 
1  9.354536715691e+00  -1.403712704177e+01   1.891442349737e+01 
1 -4.723271280065e+01  -3.564128877283e+01   1.626179405759e+01 
8
Step 5300
1  7.858398148357e+01   3.999379983571e+01   5.709880309429e+01 
1  2.404004328573e+01  -1.637364433216e+01   4.784373104931e+01 
1 -1.139892148642e+01  -2.892453153313e+01  -1.760650316832e+01 
1  2.570937182076e+01  -1.402068060147e+01   3.583866609347e+01 
1 -5.584902840786e-02  -4.751065569163e+00  -3.281003899864e+01 
1 -2.448197340763e+01   3.687461048285e+01  -2.873656591449e-01 
1 -4.333718333213e+01  -4.136391175241e+00   1.113268601639e+01 
1 -4.768410371955e+01  -4.735052772964e+01   9.469818187299e+00 
8
Step 5400
1  3.227308962309e+01   5.107398158307e+01   6.740587630643e+01 
1  3.747435909517e+01   8.751459840118e+00   2.731816998462e+01 
1  1.596915090180e+01  -1.351069150773e+01  -1.996025156607e+01 
1  3.154282549138e+01  -4.601219950122e+00   5.319190988168e+01 
1 -2.843350694884e+01  -1.329535993325e+01  -5.912048395375e+00 
1  2.586362107912e+01   3.800525659102e+01  -6.528182921356e-01 
1 -7.260497563438e+01   1.118872439044e+01  -9.022963471323e+00 
1 -1.421254364005e+01  -4.946828650898e+01  -4.353028595966e+00 
8
Step 5500
1  9.763395227116e+00   1.539469158213e+01   6.195678320010e+01 
1  1.632965689389e+01   3.266901573306e+00  -3.769725142724e+00 
1  3.477093388101e+01  -1.850401461529e+01  -3.219817781040e+01 
1  3.975368131923e+01  -2.780596886715e+00   6.044035279213e+01 
1  2.411672521195e-01  -6.289721995080e-01   1.779852338955e+01 
1  4.557845391743e+01   2.464449356858e+01  -1.453872728356e+01 
1 -4.293340999808e+01   2.052454035479e+01  -6.376311027019e+00 
1 -3.658658671846e-01  -1.483491133111e+01  -1.470172534468e+01 
8
Step 5600
1  2.006694153790e+01   2.211561961178e+01   5.933022330528e+01 
1 -1.660467841524e+01  -2.144544040092e+01  -1.648937808684e+01 
1  3.705204659485e+01  -3.033334370132e+01  -6.640074131217e+01 