8
Step 0
1 -2.526747284012e+02  -9.139898326518e+01   6.153100321031e+02 
1 -1.258207520092e+02   5.954881177993e+02  -1.504192038587e+02 
1 -6.369877599390e+02  -7.416346211132e+01   2.694691806287e+02 
1  4.335563653125e+02   4.553172070703e+02  -5.768887597283e+02 
1  4.918422941353e+01   4.104898738733e+02   3.662172568987e+02 
1  4.401477329557e+02   4.801209372720e+02  -2.382806015216e+02 
1  4.157396733158e+01   2.433279188640e+02  -4.636222617984e+02 
1  3.420269462983e+02  -5.302369339801e+02   6.603489089374e+02 
8
Step 100
1 -2.631111227174e+02  -1.040868435025e+02   5.410911619209e+02 
1 -5.782521386999e+01   5.005164328183e+02  -1.094714453068e+02 
1 -5.771936820354e+02  -7.292976893244e+01   2.177032578707e+02 
1  3.908268426760e+02   3.544761207265e+02  -5.250967477026e+02 
1  5.644678799917e+01   3.574259614426e+02   3.020298772733e+02 
1  4.082108760359e+02   4.193952210757e+02  -2.198187913420e+02 
1 -2.965788794056e+00   1.914936100507e+02  -4.561783234138e+02 
1  3.000660478538e+02  -4.983294425212e+02   5.688444410939e+02 
8
Step 200
1 -2.147668836035e+02  -9.551508754316e+01   3.978924817237e+02 
1  1.647711977872e+01   3.169565425757e+02  -2.080000711191e+01 
1 -4.343479764757e+02  -1.034650222764e+02   1.266528278741e+02 
1  2.981495775324e+02   1.920981448442e+02  -4.570729631691e+02 
1  7.379129636881e+01   2.656663818457e+02   2.008947114722e+02 
1  3.252901184661e+02   2.898830791592e+02  -1.809669272725e+02 
1 -5.991262241516e+01   1.141059463163e+02  -3.824957733142e+02 
1  2.187451731312e+02  -4.117369378985e+02   4.157721540718e+02 
8
Step 300
1 -1.830056529594e+02  -8.275133642218e+01   2.614928464086e+02 
1  6.797266618415e+01   1.472461539700e+02   4.420650244902e+01 
1 -3.157101322206e+02  -1.232689972768e+02   5.096513146527e+01 
1  1.773181388670e+02   6.305734987281e+01  -3.832565599619e+02 
1  7.882979682407e+01   1.811814643853e+02   1.089447398116e+02 
1  2.388069664351e+02   1.654065360550e+02  -1.260394088944e+02 
1 -1.124657664778e+02   5.239907018884e+01  -2.871603816621e+02 
1  1.725595171551e+02  -3.246498604497e+02   2.678294049985e+02 
8
Step 400
1 -1.529817982841e+02  -7.776248038087e+01   1.639725383971e+02 
1  8.189298619929e+01   5.082696276055e+01   7.719842304769e+01 
1 -2.420519762266e+02  -1.291106463559e+02   1.132174567768e+01 
1  1.043438580087e+02  -2.613761255917e+01  -2.980765798344e+02 
1  7.713883261612e+01   1.359624388627e+02   3.906756175798e+01 
1  1.455711727386e+02   8.525917498682e+01  -8.824471266322e+01 
1 -1.476499962755e+02   2.825314548706e+01  -1.887232886404e+02 
1  1.383201180515e+02  -2.192540017980e+02   1.748667994475e+02 
8
Step 500
1 -1.211513155459e+02  -7.408325171233e+01   1.099619777933e+02 
1  7.945669883520e+01   5.705442358087e+00   6.309543849434e+01 
1 -1.669020182626e+02  -1.252771373143e+02  -2.301357696532e+01 
1  7.286172859336e+01  -5.400571093119e+01  -2.260915340902e+02 
1  8.375802457552e+01   1.103193769802e+02   2.845976925855e+01 
1  7.851614195033e+01   4.334477035954e+01  -6.458492502065e+01 
1 -1.002173691634e+02  -6.113850602191e+00  -9.827996414582e+01 
1  9.076149634292e+01  -1.388585218694e+02   8.183391295032e+01 
8
Step 600
1 -8.798621589337e+01  -5.931871825158e+01   8.531428012649e+01 
1  9.029038290006e+01  -9.829532644166e+00   4.496751545234e+01 
1 -1.254312481714e+02  -1.191788716040e+02  -3.268367426176e+01 
1  2.506208656384e+01  -7.884733368981e+01  -1.803264844749e+02 
1  5.797465431394e+01   9.485519580864e+01   9.836256061318e+00 
1  1.733354565421e+01   2.591493186897e+01  -3.253620951465e+01 
1 -4.588825857240e+01  -2.335754269375e+01  -2.994308329517e+01 
1  4.135038656616e+01  -7.396164171100e+01   5.707738389046e+01 
8
Step 700
1 -7.064174992558e+01  -4.557792039774e+01   5.566987312645e+01 
1  8.949582024014e+01  -1.466370815366e+00   3.711486072525e+01 
1 -1.021395161056e+02  -8.967952295243e+01  -2.193394325262e+01 
1  1.508011465906e+01  -6.642256236976e+01  -1.293360495773e+02 
1  4.167873905605e+01   7.555036208018e+01  -3.821457731140e+01 
1 -1.178241178374e+01   2.226859442620e+01   2.357319025562e+00 
1 -1.851545037197e+01  -3.595688972560e+01  -1.129958812330e+01 
1  2.029933118173e+01  -5.123503978641e+01   4.231768396121e+01 
8
Step 800
1 -4.866269453163e+01  -4.372734222562e+01   3.681617945272e+01 
1  7.015506009143e+01   1.886837172620e+01   3.106212161589e+01 
1 -7.934466506706e+01  -5.417804136984e+01  -4.899582760008e+00 
1  3.208226472479e+00  -4.285916107929e+01  -7.361668946796e+01 
1  5.219462075473e+01   5.686213751083e+01  -3.973071276047e+01 
1 -1.212902012193e+01   2.322226270956e+01  -2.059897552825e+00 
1 -9.031343294155e-01  -2.122569336606e+01  -3.872736556971e+01 
1  5.251559330781e+00  -5.696522046774e+01   1.798569726695e+01 
8
Step 900
1 -6.748097800854e+00  -3.451179871367e+01   4.198206533530e+01 
1  5.211337041348e+01   3.358092500086e+01   1.786096928096e+01 
1 -6.745925415157e+01  -5.122474715980e+01   1.157750123671e+01 
1 -3.166111563637e+00  -3.234258878578e+01  -8.901376315732e+00 
1  4.490235541971e+01   4.208475959802e+01  -4.637695581137e+01 
1  1.332152032164e+01   4.496511488773e+01  -8.048891123937e+00 
1  1.389868747832e+00  -5.556022908146e+00  -5.335319444432e+01 
1 -2.826262629407e+01  -5.707318357520e+01  -9.510665707952e+00 
8
Step 1000
1  2.971970605521e+01  -3.527809137098e+01   5.690821870275e+01 
1  4.406440043681e+01   6.228651540658e+01   1.393455426059e+01 
1 -3.892032367526e+01  -5.719739013649e+01   3.475013692612e+00 
1 -8.724810315771e+00  -3.193068686942e+01  -6.097145496175e+00 
1  2.585889465881e+01   3.036828240456e+01  -7.026485262830e+01 
1  5.702720244516e+01   6.721954267721e+01  -1.027861917529e+01 
1  5.930430458943e+00   9.799573565526e+00  -4.169137999076e+01 
1 -4.314045442683e+01  -3.815318247807e+01  -3.211896109495e+01 
8
Step 1100
1  4.966641471776e+01  -1.505837424608e+01   5.244780906750e+01 
1  2.689643587354e+01   5.782811071275e+01   2.179602831007e+01 
1 -1.683050610643e+01  -6.891171851702e+01   5.313602034101e+00 
1 -2.767332309927e+00  -1.922911241317e+01   6.174638297387e+00 
1 -9.655738125921e-01   1.633645871381e+01  -6.576094552034e+01 
1  7.701618726278e+01   5.789095180951e+01   6.633393357665e+00 
1 -2.182732643585e+00   3.075271257485e+01  -4.248566706126e+01 
1 -4.696534813983e+01  -1.303851703346e+01  -3.876765283807e+01 
8
Step 1200
1  3.800875621093e+01  -2.598130672710e+00   4.588920272106e+01 
1  4.217566337118e+00   5.342295590091e+01   1.782534272088e+01 
1  2.296009263494e+00  -4.726550269339e+01  -1.080014843913e+01 
1 -2.803485452869e+00  -2.516925281138e+01   1.069980772675e+01 
1 -2.076195441789e+01   5.372951902127e+00  -4.244764973130e+01 
1  5.747333138424e+01   3.349693038117e+01   6.478801084193e+00 
1  7.620380675047e+00   4.112151277243e+01  -4.570614274695e+01 
1 -5.294299719613e+01  -5.574076596216e-01  -1.561251947306e+01 
8
Step 1300
1  2.079258218635e+01  -7.247338436552e+00   4.729655404597e+01 
1 -1.528001950250e+01   5.098870939883e+01   2.083310959492e+01 
1  2.169297491403e+01  -2.420769218031e+01  -2.037981456113e+01 
1 -7.556807611094e+00  -2.018177691840e+01   1.611433289526e+01 
1 -2.398681284282e+01   1.851181676103e+01  -2.968484989060e+01 
1  2.065798234686e+01   1.124156483801e+01   1.426274974248e+01 
1  2.409745437231e+01   3.192296208923e+01  -2.601316246203e+01 
1 -3.088269651551e+01  -1.084852900903e+00  -1.472027439014e+00 
8
Step 1400
1  2.610372721504e+00   1.442842099575e+01   5.433401820648e+01 
1 -1.472748305723e+01   4.236890284399e+01   1.408995961030e+01 
1  2.560553935727e+01  -6.631196927264e+00  -5.514886757454e+00 
1 -2.537832219386e+01  -9.242851927088e+00   3.962277398132e+00 
1 -1.173114176028e+01   2.390925468692e+01  -2.868846141462e+00 
1  1.523330080399e+01   1.559353236246e+01   3.335651194181e+00 
1  2.718662326955e+01   2.715011123508e+01   8.824826870436e+00 
1 -1.489837134863e+01  -8.451350603899e+00   7.012562615065e+00 
8
Step 1500
1 -3.182792602881e+00  -7.973913881011e-01   3.390024690309e+01 
1 -2.275673597023e+01   2.885826962586e+01   1.414112959289e+01 
1 -1.596837624476e+00   2.308231458671e+00  -1.575318246857e+01 
1 -2.350951653415e+01   2.140701215413e+00  -6.704125704248e+00 
1 -1.959472773786e+01   2.716432612627e+01   6.779555422441e+00 
1  4.125861883914e-01   7.272257051176e+00  -2.879055510346e+00 
1  2.716001699800e+01   2.566570312362e+01   3.836155287404e+01 
1  4.275503468151e-01  -2.142284211008e+01   3.132054315135e+01 
8
Step 1600
1 -1.282086324169e+01  -2.020517373293e+01   3.082924264007e+01 
1 -1.727418587100e+01  -6.718282624326e+00   2.409508375609e+00 
1 -1.507911906543e+01  -3.455828826480e+01  -1.680094839604e+01 
1 -2.017709106427e+01   3.002670820463e+00  -1.303987694522e+01 
1 -4.086744306107e+01   2.200026434887e+01  -8.162431864322e+00 
1 -2.400237560790e+01  -1.730706939573e+01  -3.595008925706e+00 
1  2.980287441685e+01  -6.319477740132e-01   5.210724900435e+01 
1 -2.239154760218e+01  -1.661034193217e+01   2.457881367252e+01 
8
Step 1700
1 -1.612566099785e+01  -2.545866530224e+01   2.280344938701e+01 
1  4.329369250917e+00  -2.993060400385e+01   7.082135785512e+00 
1  4.750018862763e+00  -7.474109621346e+01  -5.388342383464e+00 
1 -1.682088276335e+01   1.837859995485e+01  -1.588826967512e+01 
1 -5.601367734875e+01   1.848094755855e+01  -2.034344881355e+00 
1 -4.657901659972e+01  -2.760328723796e+01   1.288317290188e+01 
1  4.060986655427e+01  -9.520150001216e+00   6.928541663797e+01 
1 -4.231150116406e+01  -2.170427152428e+01  -8.165794859594e+00 
8
Step 1800
1  4.604099179997e+00  -9.716197005392e+00   1.255228725612e+01 
1  3.402957647260e+01  -4.693536977755e+01   2.075012756510e+00 
1  8.035511796250e+00  -8.709950320092e+01  -1.896834261770e+01 
1  9.402755865862e+00   3.279906654625e+01  -2.694901947569e+01 
1 -4.573968232830e+01   5.758658951519e-01  -8.678293035702e+00 
1 -5.295180201443e+01  -3.316381782283e+01   2.684365632637e+01 
1  3.080651179239e+01   4.886983401441e+00   6.512725945809e+01 
1 -4.610976721423e+01  -1.076310292004e+01  -3.689012070299e+01 
8
Step 1900
1  6.452357159435e+00   1.398249349946e+01   2.517030069717e+01 
1  3.035505925355e+01  -4.802973227384e+01   1.003724076396e+00 
1  2.147141520330e+00  -8.136205796253e+01  -5.242631397768e+00 
1  4.028371017652e+01   2.134280517243e+01  -3.698012627341e+01 
1 -2.320645528142e+01  -4.422985262966e+00  -3.957517498741e+00 
1 -5.030246180898e+01  -3.466533691807e+01   1.173734866189e+01 
1  1.653682170199e+01   2.430350309103e+01   3.618288051536e+01 
1 -2.267196281747e+01   7.375389666854e+00  -4.952160955478e+01 
8
Step 2000
1 -3.818326799609e+01   3.309978748401e+01   8.093642960492e+00 
1  8.654180653363e+00  -6.325265310447e+01  -1.988788428189e+01 
1 -3.474448188917e+00  -3.918709452126e+01   1.138869207449e+01 
1  4.976179834312e+01   3.877445916736e+01  -5.289205748600e+01 
1 -2.002352511375e+01   1.901442313998e+01   7.834936425127e+00 
1 -5.141029809725e+01  -4.797851872409e+01   2.735176726059e+00 
1  9.165345122016e+00   1.181208443571e+01   2.716073617472e+00 
1  1.469038223525e+01   4.446965298247e-02  -2.237084170347e+01 
8
Step 2100
1 -3.068124657072e+01   3.393893716302e+01  -1.215763797690e+01 
1  1.692263784011e+01  -6.448812410879e+01  -2.913669388099e+01 
1 -1.697763827962e+01  -1.841159228407e+01   1.878657874496e+01 
1  3.927561241150e+01   6.193998962485e+01  -4.261381429812e+01 
1 -3.243884893075e+01   1.890047899951e+01   9.900300831300e+00 
1 -4.792487967866e+01  -2.795333952740e+01  -5.529298041779e+00 
1  1.086849000395e-01   1.434163338969e+01  -1.127624436338e-01 
1  3.710257541989e+01  -1.082354265842e+01  -1.343661964890e+01 
8
Step 2200
1 -1.977066300901e+01   1.129475638170e+01   4.967113102197e+00 
1  2.481080048243e+01  -6.975687249735e+01  -6.622662640705e+01 
1 -1.797174790334e+01  -5.696717683770e+00  -4.676187532487e+00 
1  3.597139482566e+01   7.234471012976e+01  -4.649924254723e+01 
1 -3.305268577372e+01   3.409417720787e+01   2.679998146102e+01 
1 -4.545440492224e+01   1.633446351808e+01  -7.859894068065e-01 
1  1.068078775025e+01   6.166749065725e+00   2.175423164763e+01 
1  2.921895503457e+01  -1.870645996807e+01  -3.290169017409e+01 
8
Step 2300
1 -2.308268527811e+01  -6.611730187028e+00   1.561727554229e+01 
1  1.014058839748e+01  -7.106967252164e+01  -9.105430112368e+01 
1 -8.631190107878e-02   1.050858205065e+01  -1.104323860650e+01 
1  2.667947257083e+01   5.845492899200e+01  -5.436692439636e+01 
1 -3.578387497795e+01   3.593516513435e+01   1.807071501882e+01 
1 -3.647632771372e+01   6.413513433197e+01  -7.455204889952e+00 
1  3.480388867029e+01  -8.766618498155e+00   2.058181945891e+01 
1  2.178371380735e+01  -3.237526118420e+01  -3.736587785744e+01 
8
Step 2400
1 -4.884497622668e+00   1.295279952068e+01  -8.785796157822e+00 
1 -1.281427092923e+01  -5.300428187398e+01  -8.411950107411e+01 
1  6.332278744598e-01   2.557652900487e+01  -1.129666181495e+01 
1  2.226976436974e+01   5.432074403979e+01  -2.738988150120e+01 
1 -2.049513892644e+01   3.100878040062e+01  -1.338304325298e+00 
1 -1.396967677908e+01   8.571687846367e+01   2.335624347168e+00 
1  4.554623756690e+01  -2.352792390620e+01   1.313325153994e+01 
1  4.020963341116e+00  -3.999786222039e+01  -3.408715420653e+01 
8
Step 2500
1  6.784299063178e+00   4.635511808109e+00  -1.219757576527e+01 
1 -2.897999398615e+01  -6.742701656521e+01  -5.367712020387e+01 
1 -2.840225444771e+00   5.010636643689e+00  -2.644059369719e+00 
1  1.664251958971e+01   3.738384629101e+01  -8.286093604381e+00 
1 -1.230698253536e+01   3.599574908451e+01  -2.945279341535e+01 
1 -1.866536888652e+01   7.633087442453e+01  -1.783600551957e+01 
1  3.845784342899e+01  -2.689570941437e+01  -7.076881653451e+00 
1  1.441952405581e+01  -4.405343764451e+01  -8.350445889943e+00 
8
Step 2600
1 -8.789853260311e+00   2.201852359471e+01   3.869383678152e+00 
1 -1.971685984637e+01  -6.198911404527e+01  -3.223582946375e+01 
1 -6.104738092914e+00  -1.290001976072e+01  -1.659878078856e-03 
1 -3.922836439661e+00   2.853363861468e+01  -2.018680534949e+01 
1  1.959357438367e+01   4.768791768757e+01  -3.065037379971e+01 
1 -3.011354915289e+01   4.346754121759e+01  -4.353623697112e+01 
1  2.081337363051e+01  -2.438966980174e+01  -2.920118628843e+01 
1  1.346384325948e+01  -7.096037106631e+01   1.412508270641e+01 
8
Step 2700
1 -2.505747655473e+01   1.253597546597e+01   3.157376269930e+01 
1 -2.384016663894e-01  -3.709674121249e+01  -5.711465502358e-01 
1 -2.501439358229e+01  -2.031113117924e+01   1.078114193882e+01 
1 -2.146741290868e+01   5.064948831837e+00  -2.343887826417e+01 
1  2.959564535562e+01   4.227538307952e+01  -7.823555455010e+00 
1 -3.580804614335e+01   9.540025604269e+00  -4.081423770479e+01 
1  3.847243052497e+01  -2.525404179114e+01  -3.669823839823e+01 
1  2.115905964852e+01  -7.144012330213e+01   1.411876527315e+01 
8
Step 2800
1 -2.364467171411e+01  -7.682180349936e+00   4.325572559910e+01 
1  1.260003852843e+01  -5.329962760793e+00   2.086494299909e+00 
1 -4.064845357289e+01  -1.451580562803e+01   6.012986172053e+00 
1 -2.840397836597e+01   4.664002963670e+00  -2.567125898782e+01 
1  2.763339372762e+01   2.186533619528e+01   1.605933341932e+01 
1 -4.753253391054e+01   1.253421011854e+01   1.826527437773e+00 
1  1.605036620979e+01  -6.310067286466e+00  -8.524773554853e+00 
1  2.373842155498e+01  -6.429943487151e+01   4.507188268628e+00 
8
Step 2900
1 -1.897945007481e+01  -1.642826695525e+01   3.929894077560e+01 
1  2.387904939503e+01   1.474291285021e+01   2.230049716426e+01 
1 -1.773007493572e+01  -1.113295380415e+01  -2.641720443490e+01 
1 -4.094933197691e+01   7.665766506073e+00  -3.846659333621e+01 
1  2.191829904990e+01   5.884283584955e-01   1.460362585154e+01 
1 -3.765697603139e+01   2.393383899608e+01   1.771615537618e+01 
1  2.231264463755e+00  -2.521760354421e+01   1.310881576727e+01 
1  1.946400869080e+01  -6.294350597573e+01  -5.582517133040e+00 
8
Step 3000
1 -2.533142628073e+01  -2.240457187555e+01   4.573421311868e+01 
1  1.753428773176e+01   2.341490312223e+01   4.383495419098e+01 
1 -6.477616865591e+00  -4.994740595922e+00  -2.585982312975e+01 
1 -5.654312327244e+01   1.181284365243e+01  -4.155315354516e+01 
1  7.801913267229e+00  -1.738348135093e+01   9.479541158263e+00 
1 -1.576687624120e+01   3.932457227202e+01   1.380763271571e+01 
1 -1.225368192762e+01  -3.535334787707e+01   2.414028716548e+01 
1  7.540033292287e+00  -3.923372495698e+01  -1.902051651208e+00 
8
Step 3100
1 -2.075620771073e+01  -1.645179581156e+01   5.213468864702e+01 
1  1.714395280845e+01   1.228507780274e+01   4.593062558384e+01 
1 -1.255441871530e+01   8.065619714672e+00  -2.432162179015e+01 
1 -5.291893730947e+01   2.082163438936e+01  -2.342121289461e+01 
1 -4.456866562095e+00  -1.428579177908e+01   6.017354218323e+00 
1 -1.404303379095e+01   3.655002702844e+01   2.447427677091e+01 
1 -2.013453705659e+01  -4.471548161027e+01   4.580249847034e+01 
1 -5.049556536854e+00  -2.415087552047e+01   1.374267053236e+01 
8
Step 3200
1 -3.956037810957e+00   1.936395225177e+01   5.725995501150e+01 
1 -2.634814335983e+00  -8.397868754744e+00   2.782958983978e+01 
1 -3.694357579610e+00   2.241730699371e+01  -2.873521122508e+01 
1 -4.343705487049e+00   3.368322473711e+01  -1.769848524618e+01 
1 -4.457662045561e+00  -1.066934384414e+01   1.745139780217e+01 
1 -1.419042240809e+01   3.881734040976e+01   2.641942902413e+01 
1 -1.374346095774e+01  -3.137755076339e+01   6.807295401264e+01 
1 -2.220080965970e+01   8.627378300806e+00   1.284191239224e+01 
8
Step 3300
1  3.151095221411e+01   1.731821324074e+01   3.819017166348e+01 
1 -9.437102969867e+00  -3.103907680594e+01   2.582162593381e+01 
1  4.413048400718e+00   2.285489268341e+01  -3.877683358480e+01 
1  1.547639134460e+01   2.718324884055e+01  -3.946591218053e+01 
1 -9.758440595740e+00  -2.104841911731e+01   4.404219001937e+01 
1 -2.525132542844e+01   4.276654685684e+01   2.975960048616e+01 
1  5.594997739371e+00  -4.183231542649e+01   6.793413115869e+01 
1 -2.599736896401e+01   1.254191202524e+01   4.361785707880e+00 
8
Step 3400
1  3.641203938420e+01   1.285317373617e+01   2.650302173449e+01 
1 -1.847495698119e+01  -4.387084486702e+01   2.304206384252e+01 
1  1.365059678687e+01   7.665871199817e+00  -4.770437802250e+01 
1  2.070245727484e+01   1.451727650044e+01  -4.799112742856e+01 
1 -3.092539777458e+01  -1.927195132886e+01   7.182662209305e+01 
1 -1.113086947206e+01   6.671106972563e+01   1.971531647786e+01 
1 -6.131383459784e+00  -3.512008567410e+01   7.366541891534e+01 
1 -1.810870927601e+01   1.330434115492e+01  -5.342476821015e+00 
8
Step 3500
1 -8.689921593426e+00   9.982514643769e+00   1.154408377373e+01 
1 -1.630034496781e+01  -4.884223833057e+01   4.324328468701e+00 
1  1.771710508132e+01  -8.423773539521e+00  -1.994769846214e+01 
1  5.043283598469e+01  -3.629336814432e+01  -5.297770029587e+01 
1 -1.086092428837e+01   2.292961362049e+00   4.565500326698e+01 
1 -2.056492272654e+01   6.948736226109e+01   1.703531966420e+01 
1 -2.332828066523e+01  -2.423372344427e+01   6.629828294121e+01 
1 -5.724798853857e+00   1.374664282109e+01   1.024970256225e+00 
8
Step 3600
1 -2.515587276333e+01   4.074959513112e+01  -5.179420999664e+00 
1  1.261754805656e+01  -5.663745281673e+01  -3.884072989544e+01 
1  5.707129725754e+00   7.834206536509e+00   1.360225411631e+01 
1  3.817101686117e+01  -6.029447047348e+01  -6.667826328379e+01 
1  6.686938177349e+00   8.488641620129e+00   2.905965186468e+01 
1 -8.950280428081e+00   6.840955653592e+01   8.979729909864e+00 
1 -3.078334255855e+01  -1.285633974547e+01   5.266376351768e+01 
1  8.505229603565e+00   1.285494251897e+01  -4.376289619451e+00 
8
Step 3700
1 -1.949007481647e+01   5.295983248515e+01  -1.060148182348e+01 
1  4.678740208704e+00  -3.058527869346e+01  -4.125822665448e+01 
1 -1.548835622885e+01   1.748958377035e+01   2.495197260444e+01 
1  6.273209094351e+00  -7.171151673454e+01  -6.543489286403e+01 
1  2.354019361778e+01   2.632982649534e+00   3.774094447158e+01 
1  1.320333067640e+01   7.198079922181e+01   9.297248590164e+00 
1 -1.077690160664e+01   2.475211122185e+01   4.575982819598e+01 
1  2.198406701386e+01  -1.274090326385e+01  -8.794093360452e-01 
8
Step 3800
1 -1.478726518785e+01   5.926025865774e+01  -4.727364013849e+00 
1 -8.858946249128e+00  -5.343193667474e+00  -4.722942939536e+01 
1 -3.207870497470e+01   3.363077257420e+01   2.008214729766e+01 
1 -2.439185992278e+01  -7.452331319941e+01  -4.799432390502e+01 
1  2.200831202768e+01  -2.307191049478e+01   2.178416053765e+01 
1  2.036294096613e+01   6.490718007534e+01   1.484316298790e+01 
1 -2.100682903180e+01   3.622522513650e+01   1.878141336721e+01 
1 -8.642212676615e+00  -1.322888857499e+01   6.704463303253e+00 
8
Step 3900
1 -2.559404015073e+01   5.306814549217e+01  -5.883026228647e+00 
1  1.469061252529e+01   1.905908005104e+00  -4.321150114909e+01 
1 -5.059373567427e+01   2.576080182700e+01   3.168519916423e+01 
1 -1.686620922603e+01  -5.200425019257e+01  -4.986596993989e+01 
1  2.410430543606e+01  -2.884082903907e+01  -6.615018880847e-01 
1 -5.880280089328e+00   3.520188912925e+01   2.080200686295e+01 
1 -1.488939012088e+01   6.341718222790e+01  -1.497725901821e+01 
1 -2.887785043878e+01  -8.856160476065e+00  -4.031366290596e+00 
8
Step 4000
1 -2.485565368609e+01   4.194398396126e+01   1.019342191806e+01 
1  2.606311648519e+01  -1.244430985130e+01  -2.578217858352e+01 
1 -5.485941091903e+01   1.245275268477e+01   3.748308482533e+01 
1  3.977518040699e+00  -2.774023841575e+01  -5.807169546662e+01 
1  2.178645401896e+00  -9.445861558829e+00   3.925018905547e+00 
1 -2.382100965873e+01  -1.036976649237e+01  -7.285307826392e+00 
1  3.459937574011e+00   6.322458695659e+01  -5.561281439443e+01 
1 -5.519468959619e+01  -1.792676866873e+00  -1.427040766182e+01 
8
Step 4100
1 -3.015352616917e+01   2.722238279410e+01   4.405579144474e+01 
1  1.487701152162e+01  -3.532552233396e+01  -1.799211347756e+01 
1 -3.742488219473e+01   1.257104210954e+01   3.457149501079e+01 
1  1.860522296547e-01  -3.087307190897e+01  -4.969349600438e+01 
1 -2.260597718541e+01   3.088358418943e+01   4.013934854653e-01 
1 -1.631845943453e+01  -3.395418120492e+01  -1.822032335269e+01 
1  1.597723779702e+01   6.277939317821e+01  -5.621102114418e+01 
1 -6.162793517565e+01  -1.183410636042e+01  -7.273978330143e+00 
8
Step 4200
1 -4.595138494100e+01   1.739438534382e+01   7.433645665275e+01 
1 -4.980176146189e+00  -5.072344424418e+01  -1.733830619091e+01 
1 -1.776623028207e+01   1.272938274725e+01   6.147677195245e+01 
1 -1.456996533971e+01  -3.812540077168e+01  -4.426501774692e+01 
1 -1.854728556133e+01   5.785068704870e+01  -9.520800379709e+00 
1  1.180355847741e+01  -2.020686697261e+00  -2.867106255738e+01 
1  1.323028139176e+01   6.206304976755e+01  -4.045456690313e+01 
1 -4.946677964477e+01  -3.281817852841e+01  -1.876396365556e+01 
8
Step 4300
1 -5.206844197845e+01   1.144800594976e+00   8.586781835562e+01 
1 -9.856423179787e-01  -4.416790653094e+01  -3.523957673636e-01 
1 -8.166087801735e+00   2.806349724550e+01   4.448827056965e+01 
1 -1.072277395223e+01  -1.935517813578e+01  -3.016463969178e+01 
1 -5.395552972497e-01   6.331414844633e+01  -1.039345865168e+01 
1  5.633491675504e+01   2.615823369385e+01  -4.829991365791e+01 
1 -4.877906433806e+00   5.673309909442e+01  -1.921347409110e+01 
1 -3.359919460997e+01  -5.597168048934e+01  -2.353010267005e+01 
8
Step 4400
1 -7.423547272602e+01  -1.181585889689e+01   8.264374108827e+01 
1 -9.132722713754e+00  -3.384254285342e+01   1.554729444104e+01 
1  1.264184230642e+01   1.935751127661e+01  -3.374577194052e+00 
1 -8.070342303641e+00  -9.723409159438e+00  -2.937114552986e+01 
1  3.172529827599e+00   5.691655360864e+01  -2.084764946647e+01 
1  5.503036981566e+01   3.828522954055e+01  -3.210928838248e+01 
1  9.199948609795e+00   4.023375115044e+01  -1.369381058467e+01 
1 -4.143531640935e+01  -7.479844017021e+01  -2.038396228981e+01 
8
Step 4500
1 -5.583448238185e+01  -3.167669730019e+01   6.189192273165e+01 
1  1.754809964089e+01  -2.863770617210e+01   2.136424535036e+01 
1  6.824101191211e+00   5.838946702395e+00  -2.162662948811e+01 
1 -1.311237284204e+01  -9.269919072077e+00  -1.865292529867e+01 
1  2.771597386558e+01   5.985158359068e+01  -1.273761731924e+01 
1  1.223438783713e+01   4.186378790303e+01  -4.016660709126e+00 
1  2.981179128333e+01   2.535535575728e+01  -1.705904932044e+01 
1 -3.219265349119e+01  -9.342170399669e+01  -1.197184351708e+01 
8
Step 4600
1 -2.558184995546e+01  -3.151212760571e+01   2.563826827774e+01 
1  8.245499984541e+00  -3.693935246026e+01   1.205403562620e+01 
1  4.767340502562e+00   4.750380698401e+00  -2.767909272272e+01 
1 -5.971936670770e+00  -1.008907300184e+01  -1.086562064366e+01 
1  5.734298346019e+01   7.480306809142e+01  -2.081944361548e+01 
1 -2.453348650971e+01   3.309032865442e+01  -1.877196024125e+00 
1  6.644190729644e+00   2.546688337235e+01  -2.773730526248e+01 
1  2.962485963740e-01  -1.206769769843e+02   8.635956733385e-01 
8
Step 4700
1  1.192042773775e+01  -1.700044123503e+01   8.711597898632e+00 
1  3.722112149947e+00  -3.244303918812e+01   1.612589330403e+01 
1 -6.584612282961e+00   3.293096769281e+01   5.451935536993e-01 
1 -2.183885316488e+00  -3.824309469828e+00  -2.627941882428e+01 
1  5.784387586476e+01   8.394844429092e+01  -2.400920094621e+01 
1 -4.438466905132e+01   3.398403520210e+01   7.936888350786e+00 
1 -8.286903526136e+00   2.960173683799e+01  -4.539675196511e+01 
1  2.811517542069e+00  -1.397496657262e+02   6.431416464862e+00 
8
Step 4800
1  1.807178375782e+01  -1.916464774300e+01   3.809039911019e+00 
1 -1.049644400961e+01  -3.034481534100e+01   3.601679602752e+01 
1 -2.405703618763e+01   4.919290141845e+01   1.399869484971e+01 
1 -1.778314381073e+01   2.687088117361e+01  -3.581839336889e+01 
1  7.010276431517e+01   8.577772174280e+01  -2.283102501095e+01 
1 -4.898284643002e+01   1.032784308909e+01   3.197001393838e+01 
1 -6.939752038905e+00   1.776912527401e+01  -7.609305010795e+01 
1 -1.222696671495e+01  -1.310472908437e+02   1.080820957146e+01 
8
Step 4900
1  1.640283898549e+01  -4.259490926229e+01   9.200162692070e+00 
1 -1.061158658682e+01  -1.929486044707e+01   6.194434522457e+01 
1 -1.041062813124e+01   6.147443797706e+01   2.552268144813e+01 
1 -1.012353354544e+01   4.120363406064e+01  -4.079548294146e+01 
1  5.769984278246e+01   8.128862623818e+01  -1.722500869132e+01 
1 -2.113569954879e+01  -3.145936747615e+00   4.065397646920e+01 
1 -7.003887043705e+00   2.087661322571e+01  -7.018568546853e+01 
1 -1.938087310089e+01  -9.159863737904e+01  -4.881399696720e-01 
8
Step 5000
1  1.120533953433e+01  -5.685825975890e+01   1.394826530912e-01 
1 -1.821255159583e+01  -1.747473696798e+01   8.486671238297e+01 
1 -1.173877203707e+01   6.930762669924e+01   4.296454722696e+01 
1  1.677460262838e+01   5.202736070194e+01  -1.972597539741e+01 
1  2.213472395510e+01   5.659493600945e+01  -1.222157031898e+01 
1  2.433729083044e+01  -2.618451796199e+01   1.206487023303e+01 
1 -2.746089143220e+01   2.804646719300e+01  -4.815221581704e+01 
1 -3.121248945597e+01  -3.802639631583e+01  -5.719965950017e+00 
8
Step 5100
1  1.082517749803e+01  -4.642800799383e+01  -1.031374758580e+01 
1 -3.812789765046e+01   4.960052014232e+00   7.388388789921e+01 
1 -1.091049400634e+01   6.429058388052e+01   3.178501521581e+01 
1  1.683640173438e+01   5.263229916480e+01  -9.774722801080e+00 
1  2.970941857787e+00   3.612481750522e+01  -1.041847124748e+00 
1  2.693990729172e+01  -3.399001662520e+01  -1.483267525795e+01 
1 -1.737548993075e+01   1.374806198934e+01  -2.591945677583e+01 
1 -1.675942476656e+01  -3.671216882136e+01   1.240761967190e+00 
8
Step 5200
1  2.683829947508e+01  -2.429678698698e+01   8.314296693449e+00 
1 -5.621933181039e+01   2.392365109714e+01   6.328959049702e+01 
1  1.400688237341e+00   2.672750916339e+01   1.366711723154e+01 
1  5.051833287207e+00   5.527371416393e+01  -4.697281118943e+00 
1 -3.046121207289e+00   2.124899876348e+01  -1.621498040574e+01 
1  2.448208809490e+00  -1.469073752333e+01  -8.523835826853e+00 
1  4.281527433310e+00  -1.095400853330e+01  -3.604276626803e+01 
1 -9.617875156594e+00  -5.303213651713e+01   9.917788146231e+00 
8
Step 5300
1  4.456631315141e+01  -1.186340930384e+01   2.112159412796e+01 
1 -4.240073173528e+01   4.065138562471e+01   6.438375696901e+01 
1  8.488040856893e+00  -2.018302285814e+01   1.741051541779e+01 
1  2.906222772304e+01   3.058282297954e+01   1.628196068816e+01 
1 -1.902529633496e+01   3.577315752584e+00  -3.044635892381e+01 
1 -5.658301936771e+00  -9.517466951968e+00  -2.244183471972e+00 
1  9.137755045277e+00  -1.446576595829e+01  -6.814241133186e+01 
1 -1.530341396270e+00  -5.765631061888e+01  -9.136176515771e+00 
8
Step 5400
1  4.188457546854e+01  -3.060483480742e+01   1.470689925910e+01 
1 -1.698088870627e+01   4.976272586877e+01   6.701265712020e+01 
1 -3.421069973706e-01  -8.925915753697e+00   1.916865770726e+01 
1  3.625789324205e+01  -4.062430473072e+00   3.560204833967e+01 
1 -2.340308131142e+01  -6.052739421240e+00  -3.173069104586e+01 
1  1.470439288516e+00   9.312880364949e+00   1.035203838087e+01 
1  1.210580451993e+01  -1.419107893566e+01  -4.969805393048e+01 
1 -1.180494288317e+01  -4.423948519353e+01  -1.338206269641e+01 
8
Step 5500
1  2.897211122730e+01  -4.894410576036e+01  -5.417474998163e+00 
1  1.099457005349e+01   4.324701355206e+01   3.853580255224e+01 
1 -1.314320211075e+01   1.714142338723e+01   2.030305844620e+01 
1  2.855276510587e+01  -3.144646610406e+01   6.517115318290e+01 
1 -2.371852886150e+01  -8.514995537643e+00  -1.280503486388e+00 
1  1.667206793658e+01   1.438409342352e+01   1.347439833457e+01 
1  3.362909219075e+01  -3.676209968633e+01  -4.475216425189e+01 
1 -6.869784994478e+00  -4.605151105996e+01   4.323198505849e+00 
8
Step 5600
1  2.356122870175e+01  -5.343202692599e+01  -3.843420655991e+01 
1  6.710982786812e+00   1.404050749627e+01   4.941358374849e+00 
1 -1.118617909198e+01   3.576588941658e+01   1.255962063469e+01 