8
Step 0
1  5.854051177305e+02  -2.841389406478e+01   5.016505855149e+02 
1 -3.716605965379e+02  -3.157347621074e+02   6.502572045012e+02 
1  6.469245543057e+02  -5.810478960450e+02  -6.539554565289e+02 
1  6.340371909667e+01   1.021183614821e+02   9.520920988084e+00 
1  1.210770460596e+02  -1.049354269047e+02  -4.780773672669e+02 
1 -5.591487414874e+02  -2.585970701202e+02  -3.580310115032e+02 
1 -5.807987240504e+02  -1.777150272331e+02  -2.642056281941e+02 
1 -2.788968567768e+02  -6.514713253371e+02  -1.251377270472e+02 
8
Step 100
1  3.843176326316e+02  -4.369679123474e+01   4.311426179440e+02 
1 -2.982966628153e+02  -1.783931897562e+02   3.850452330666e+02 
1  4.071252545632e+02  -3.664445153198e+02  -4.734357724094e+02 
1  7.123245352536e+01   3.491441819188e+01  -2.351248600340e+01 
1  1.223762737747e+02   1.574058497623e+01  -2.975035836613e+02 
1 -4.506332285150e+02  -1.428412939753e+02  -2.247029757700e+02 
1 -4.999498855283e+02  -1.987466576308e+02  -2.163359737589e+02 
1 -1.765759726629e+02  -4.132680464434e+02  -2.056754123382e+02 
8
Step 200
1  7.472773438325e+01  -6.693524055477e+01   2.695815294928e+02 
1 -1.315764307398e+02  -3.691622767014e+01   5.752226151002e+01 
1  7.325100358846e+01  -6.273515757829e+01  -2.327275525084e+02 
1  6.906217401743e+01  -4.143791770098e+01  -8.374540218968e+01 
1  1.325930442595e+02   1.819149367847e+02  -5.827396880028e+01 
1 -2.469258113368e+02  -2.866107730823e+01  -2.334417325668e+01 
1 -4.004944902434e+02  -2.163341150330e+02  -1.543547445442e+02 
1 -4.297483103980e+00  -1.153303258508e+02  -2.415769061540e+02 
8
Step 300
1 -5.838812882258e+01  -8.230524389278e+01   1.069432464028e+02 
1 -2.828308713242e+01   3.938521487878e+00  -5.830855912313e+01 
1 -6.591287019261e+01   4.983444038086e+01  -1.321034769232e+02 
1  9.615879432848e+01  -2.763723140730e+01  -1.098382820269e+02 
1  1.150333768146e+02   2.015612110445e+02   8.648424087995e+00 
1 -7.687562207955e+01  -1.154413878059e+01   4.708779758595e+01 
1 -3.070289665505e+02  -1.527493118635e+02  -9.090595450453e+01 
1  5.429144533536e+01   9.728027795001e+00  -1.529539932442e+02 
8
Step 400
1 -4.560088759376e+01  -1.092902960734e+02   4.877557006678e+01 
1 -1.623741914739e+00  -4.104757056293e+01  -2.455797154829e+01 
1 -5.238450166867e+01   1.438419103460e+01  -1.339968368074e+02 
1  1.180412608627e+02   3.170458004726e+01  -1.266367833548e+02 
1  6.671922595780e+01   1.524394193794e+02   1.071311722873e+00 
1  6.368526595923e+00  -5.680087947500e+00   9.334973408512e-02 
1 -2.148122307429e+02  -8.111741916421e+01  -5.266935210496e+01 
1  3.755041084885e+01  -1.674181935942e+01  -4.199102964865e+01 
8
Step 500
1 -4.562821246696e+01  -1.131057747845e+02   7.245978380877e+01 
1  1.222192602599e+01  -7.459337057427e+01   1.077642997036e+01 
1  2.993869230181e+01  -9.450919255890e+00  -9.811310745763e+01 
1  1.074703470533e+02   6.530645729167e+01  -1.485730450297e+02 
1  4.640936068293e+01   6.437422557937e+01  -1.035686132306e+01 
1  4.598148975379e+01  -7.182014195353e+00  -2.937248524881e+01 
1 -1.780455885311e+02  -4.310714224836e+01  -2.295346802072e+01 
1  1.710104317526e+01  -2.760512187449e+01   3.643380287304e+01 
8
Step 600
1 -4.153855342217e+01  -9.643000745488e+01   9.010600581846e+01 
1  3.314156628035e+01  -3.529226953394e+01  -7.613443438215e+00 
1  5.037827917376e+01  -4.468843995888e+01  -7.447100943283e+01 
1  8.135412263361e+01   3.344748515039e+01  -1.306293806392e+02 
1  7.149704753404e+01  -1.571532926349e+01  -3.002262391254e+01 
1  5.651720489355e+01  -2.522144425394e+01  -2.923263784557e+01 
1 -1.486031432693e+02  -2.791068461134e+01  -3.639170726595e+01 
1  6.714954736673e+00  -2.111127308915e+01   2.911202847977e+01 
8
Step 700
1 -1.797144793090e+01  -8.281534021604e+01   4.234347562464e+01 
1  3.450354355025e+01  -1.029742526324e+01  -5.636272978694e+01 
1  2.752389160444e+01  -3.396370673340e+01  -8.234882184729e+00 
1  3.650106447773e+01  -1.088305218994e+00  -9.850602572221e+01 
1  1.103997963403e+02   2.537285109151e+00  -3.107368187848e+01 
1  4.125724578110e+01  -1.742543596629e+01  -8.414609798839e+00 
1 -9.926432431996e+01  -3.064723341149e+01  -5.705565748192e+01 
1  2.365315195063e+00  -2.277110665293e+01   3.512700490825e+00 
8
Step 800
1 -1.161687248670e+00  -1.020766417385e+02   1.674456364436e+01 
1  3.999279386080e+01  -1.398450000697e+01  -8.443062077372e+01 
1  1.277913792010e+01   2.383776528874e+00   1.003151506740e+01 
1  2.980465354634e+01   1.366158237821e+01  -5.232324357528e+01 
1  1.354258447928e+02   4.283520697773e+01  -2.800916738063e+01 
1  1.063458363709e+01  -7.249730507717e+00   1.956816939304e+01 
1 -6.852933687246e+01  -3.688367088264e+01  -4.125415453845e+01 
1  1.669871706964e+01  -1.423877038861e+01  -1.877478323891e+01 
8
Step 900
1  2.855907435477e+01  -5.647211662617e+01   1.781249764502e+01 
1  4.373665278803e+01   1.804790588733e+01  -7.106329336057e+01 
1 -5.817481007707e+00   2.910690751041e+01  -4.080243718571e+00 
1  2.636586032480e+01   2.783188192629e+01  -3.540264219327e+01 
1  1.300291863526e+02   5.083467621501e+01  -5.437651850397e+01 
1 -4.958059738266e+00  -2.362648758336e+01   2.658649906733e+01 
1 -2.048422657908e+01  -4.799455260518e+01   2.625005571878e+00 
1 -4.144949826092e+01  -1.900191671276e+01  -3.687095513856e+01 
8
Step 1000
1  3.263665853622e+01  -1.422062936046e+01  -7.169933410267e+00 
1  3.202535526908e+00   4.337815471863e+01  -6.486062234428e+01 
1 -2.172367729638e+01   5.099288336505e+01  -8.339190651329e+00 
1  2.861521065559e+01  -2.140364007653e+01  -5.148627229251e+01 
1  1.143800266397e+02   4.841874881724e+01  -7.721186891189e+01 
1  6.677601737312e+00  -2.121541623933e+01  -2.441926011594e+01 
1  1.089655148226e+01  -4.248691645767e+01  -1.034047665139e+01 
1 -4.750429471686e+01  -7.323037068514e+00  -3.894900915466e+01 
8
Step 1100
1  3.487727778331e+01  -4.198261898838e+00  -2.108902662179e+01 
1  5.355737962650e-01   4.564190445027e+01  -6.263822532402e+01 
1 -2.784813158013e+01   3.503660287219e+01   3.051768289109e+01 
1  2.141612763740e+01  -4.503723117863e+01  -7.019995810809e+01 
1  9.061948929609e+01   3.945447552084e+01  -5.931534441818e+01 
1  1.850537452728e+01   1.601418076717e+01  -2.653440388997e+01 
1  2.842250678851e+00  -2.296846715628e+01  -2.415362013963e+01 
1 -4.378849912538e+00  -2.952410767150e+01  -1.035710734914e+01 
8
Step 1200
1  6.135075808177e+01   8.632481094049e+00  -8.334700388643e+00 
1 -3.648050523224e+00   7.144618939814e+01  -3.982842568305e+01 
1 -1.666456387057e+01   1.684802208179e+01   7.441294302078e+01 
1  2.260833289710e+01  -1.629288324579e+01  -1.844742011264e+01 
1  8.662261375597e+01   4.489039563256e+01  -2.156844900857e+01 
1  5.025550330030e+01   3.436989973638e+01   1.691951310395e+00 
1  2.528101379447e+01   7.713361715145e+00  -6.592437388582e+00 
1  2.327018521606e+01  -4.078957607101e+01   3.241110037162e+01 
8
Step 1300
1  4.509175790099e+01  -3.962472918615e+00  -2.181804682250e+00 
1 -8.664634219130e+00   6.962913117507e+01  -1.274578842491e+01 
1 -2.118673422489e+01  -2.054962328767e+01   7.849318038074e+01 
1 -1.022096903717e+01   5.028579960691e+01  -3.523190140282e+00 
1  7.204354398084e+01   4.811383346615e+01   1.085256090192e+01 
1  7.327858761734e+01   3.988148300950e+01   1.805026850662e+01 
1  1.792827236551e+01   1.392122555340e+01  -1.893550187063e+01 
1  4.127980727693e+01  -2.557402275220e+01   1.903871869763e+01 
8
Step 1400
1  1.682635236050e+01  -6.847527170521e+00  -1.374144594270e+01 
1 -3.075264732034e+01   6.469424403121e+01   3.963663688211e+00 
1 -3.391681600276e+01  -2.985293431153e+01   4.374811001442e+01 
1 -2.035000958509e+01   6.575953277984e+01  -8.138398969794e+00 
1  3.879181764593e+01   4.116565983014e+01  -6.442987231911e+00 
1  6.265866672200e+01   5.252251966591e+01   8.842475624427e+00 
1 -3.225109544463e+00   9.380394722746e+00  -3.459445651567e+01 
1  4.951679170259e+01   3.317051502786e+00   5.730469653964e+00 
8
Step 1500
1 -1.766478534470e+01   1.787564350487e+01   6.377418092651e+00 
1 -2.385779668497e+01   3.701199815128e+01  -1.914648808002e+01 
1 -5.538431124666e+01  -1.658791925503e+01   3.022219204341e-01 
1 -2.565201223340e+01   2.891619056601e+01   5.937188527399e+00 
1 -2.401284399373e+01   3.727211261655e+01  -5.083537185317e+01 
1  3.280189197874e+01   4.974288434137e+01   2.574675634959e+01 
1 -2.098013804160e+01  -1.558014645153e+01  -5.122621489063e+01 
1  1.536632197483e+01  -1.596632799397e+01  -1.218607530924e+01 
8
Step 1600
1 -2.971031697232e+01   6.174531845496e+01   7.730751590585e+00 
1 -9.442229573054e+00   9.588819341455e+00  -8.039638766227e+00 
1 -4.001657405562e+01   3.706169971870e+01  -1.904442934253e+00 
1 -8.334030479578e+00  -6.099436810881e+00  -3.693369892010e+00 
1 -2.424600821587e+01   2.732599024391e+01  -5.570826110335e+01 
1  6.348018457811e+01   3.957474927115e+01   3.468232108844e+01 
1 -4.457912764786e+01  -2.424590346407e+01  -6.320847196778e+01 
1 -4.404449787593e+00  -2.321320570344e+01  -2.195203019494e+01 
8
Step 1700
1  1.927302871346e+01   8.868384226880e+01   3.824042996929e+00 
1  1.652909402688e+01   5.428354933922e+00  -1.605520754675e+01 
1 -3.006367248265e+01   4.160428905628e+01   1.627971796487e+01 
1  3.469125548337e+01   4.828552613975e+00  -1.714714552027e+01 
1  2.339844442393e+01   1.744333481575e+01  -2.695062953719e+01 
1  9.847987332295e+01   7.087454056755e+01   2.304154789081e+01 
1 -3.446936914722e+01   6.003604831070e+00  -5.157052998440e+01 
1  1.320577369135e+01   2.927325242992e+01  -1.118174508120e+01 
8
Step 1800
1  1.702225675587e+01   8.686792391375e+01  -2.669415092596e+01 
1  1.372680620377e+01   1.411484479954e+01  -5.920410461520e+01 
1 -3.960909641959e+01   2.702289702023e+01   4.768082021858e+01 
1  3.375591461850e+01  -2.381809469782e-01  -1.380458471247e+01 
1 -9.481055511159e-01   2.114844396101e+01   1.186830888572e+01 
1  8.844105980301e+01   8.014485479278e+01   2.091358911984e+01 
1 -4.762941127142e+01   3.164984575352e+01   1.072476803184e+01 
1  2.074246562001e+01   8.142120095100e+01  -1.188109344528e+01 
8
Step 1900
1 -8.184846831850e+00   7.209259691369e+01  -2.720956464349e+01 
1 -1.117632111252e+01   4.173606903270e+00  -4.675062495090e+01 
1 -5.262874308188e+01  -2.593140053973e+00   4.301655924352e+01 
1  8.512927273914e+00  -2.024551273875e+01  -3.307147241857e+01 
1 -4.534416101609e+01   4.699963789197e+01   2.377839605167e+01 
1  4.896012720208e+01   3.679799603546e+01   1.945913189297e+01 
1 -1.198198574503e+01   3.903596459569e+01   3.859758643720e+01 
1  5.327484981748e+01   6.997838063569e+01   8.007887380963e+00 
8
Step 2000
1 -1.761930791052e+00   8.563099444690e+01  -1.152477966901e+01 
1 -9.769517214480e+00  -3.781610236040e+01  -2.001116768559e+01 
1 -5.980705708432e+01  -3.694524880706e+01   2.667742593062e+01 
1  4.158160345691e+00  -1.164342313286e+01  -1.812017527602e+01 
1 -3.031962247262e+01   7.718630145812e+01   1.999129096057e+01 
1 -6.422328716821e+00   1.793597402219e+00   3.268216967133e+00 
1  8.686391828118e+00   3.206163363049e+01   6.382450621435e+01 
1  5.614161513490e+01   4.147913645797e+01   1.677392232757e+01 
8
Step 2100
1  1.977034761288e+01   1.212189445978e+02  -1.084755002110e+01 
1 -6.581625667578e+00  -4.148957718714e+01   5.347346296465e+00 
1 -2.333953579745e+01  -6.429063012826e+01  -6.493108288070e+00 
1 -2.795688056448e-01   3.746636854445e+00  -2.606081971868e+01 
1  3.142986705148e+01   7.209084126879e+01  -4.854617948216e+00 
1 -3.566402599846e+01  -4.236744802150e+00  -4.299423270097e+00 
1  4.171935057077e+01   4.966199044436e+00   7.552836446818e+01 
1  3.216889526799e+01   3.194971565742e+00  -9.636450762664e+00 
8
Step 2200
1  2.793092321869e+00   1.047872160403e+02  -4.505832386630e+00 
1 -1.383066182794e+00  -3.121135035311e+01  -4.542003644631e+00 
1  1.515504818590e+01  -4.534715778377e+01  -1.669011823162e+01 
1  1.451196478969e+01   1.489762181770e+01   4.468488532928e+00 
1  6.070542924209e+01   2.778503004704e+01  -1.163022917824e+01 
1 -3.100267803933e+01  -3.275357563169e+01   3.362498745839e+00 
1  5.316199544896e+01   1.569365882148e+00   5.612063675446e+01 
1  1.547005299151e+01  -1.760536476784e+01  -4.115753099729e+01 
8
Step 2300
1 -1.351542856309e+01   4.785115291771e+01  -1.429365823988e+01 
1 -4.153673391852e+00  -4.318223671755e+01   1.402025004300e+00 
1  2.048135180521e+01  -2.500200927608e+01   2.180747038164e+01 
1  4.139126726716e+01   4.592894598911e+01   3.715530454981e+01 
1  7.281884755422e+01  -4.991982433991e+00   1.328178376778e+01 
1 -2.592116939599e+01  -3.302813547487e+01  -1.358171642165e+01 
1  5.338157101352e+01   2.443289716735e+01   2.839048928989e+01 
1  7.429757944750e+00   4.000105115200e+00  -5.979524896619e+01 
8
Step 2400
1 -1.078711531124e+01   3.344973608330e+01   1.942924978030e+01 
1 -4.960321344953e+00  -9.752454886831e+00   3.028897128526e+00 
1  1.773672357736e+01  -4.081698942911e+00   2.870887458443e+01 
1  4.813482111888e+01   4.418655921999e+01   6.531881871169e+00 
1  2.462312772190e+01  -1.084381802886e+01   2.770798881500e+01 
1 -3.673337569960e+01  -3.524705762835e+01   4.180552944696e+00 
1  5.846714745515e+01   2.789433247290e+01   1.156186195491e+01 
1  8.965538044303e+00   3.153959310438e+00  -2.701970255023e+01 
8
Step 2500
1  2.068933716975e+01   5.906967725219e+01   3.490396993307e+01 
1 -1.666612826006e+01  -2.463409133264e+01  -1.403230102544e+00 
1  7.550057458087e+00  -3.905513545210e+00   2.168848257759e+00 
1  3.461321142083e+01   2.359689318901e+01  -4.916224784856e+00 
1 -5.556619509692e+01   1.712845429879e+01   1.696771499256e+01 
1 -3.709094782886e+01  -2.142761426676e+01   5.909106782779e+01 
1  3.686818002365e+01  -1.113668036757e+01   9.225362474370e+00 
1  5.285273234225e+01  -4.393357785869e+00  -1.680717993954e+00 
8
Step 2600
1  2.148123338699e+01   1.015000049143e+02   2.115557404876e+01 
1 -3.804712503365e+00  -2.910835989177e+01  -1.563974266857e+01 
1  3.535264559404e+01  -5.321431021960e+00  -5.186738840495e+01 
1  2.508965425788e+01   1.838817297491e+01  -6.549321330047e+00 
1 -8.273489761848e+01   1.631288158292e+01  -3.635349931636e+00 
1 -4.231078020445e+01   1.197233481460e+01   8.419458208472e+01 
1  3.265842166765e+01  -6.540018250865e+01  -2.726569578633e+00 
1  7.874059255919e+01  -4.757407990685e+00   1.180722975167e+01 
8
Step 2700
1  1.908517758285e+01   9.959547313395e+01   2.327727565376e-01 
1 -2.904286704149e+00  -1.940699274596e+01   1.248252710425e+01 
1  1.051067415513e+01  -9.194224833279e-01  -7.296559134011e+01 
1  1.674104613373e+01   1.391939928548e+01  -1.062084644523e+01 
1 -2.768058753982e+01  -7.839407918351e+00  -2.874215323964e+01 
1 -3.239350540328e+01   4.397074551513e+01   3.853804577063e+01 
1  5.789911657510e+00  -7.564350386879e+01  -1.736620814779e+01 
1  9.180509287121e+01  -2.756056013608e+01   1.032145006772e+01 
8
Step 2800
1  3.934245596647e+01   8.134810576242e+01  -2.199272782407e+01 
1  1.437969739213e+01  -1.988828995973e+01   3.146894258247e+01 
1 -1.503837049502e+01  -1.126859574331e+01  -5.127054733472e+01 
1 -8.298057700893e+00   2.369114201407e+01   1.157425011027e+01 
1  1.203938432150e+01  -4.940206049384e+00  -1.040183806334e+01 
1 -6.853700602168e-01   4.676883478318e+01  -1.632448534017e+01 
1 -2.326407160217e+00  -8.580498826923e+01  -1.294397418142e+01 
1  7.273897957475e+01  -2.571198095610e+01  -1.712620573013e+01 
8
Step 2900
1  5.252254154564e+01   7.493648099460e+01  -4.173607752003e+01 
1 -1.677330759425e+01  -1.502803946490e+00   3.993060501701e+01 
1 -4.853573981113e+01  -2.141151057894e+01  -8.090292213592e+00 
1 -3.403209113955e+01  -1.596452247745e+01   2.083731421576e+01 
1  5.205085021494e+01   8.428924132494e-01  -3.932459601746e+01 
1 -1.178594182399e+01   4.991051515406e+00  -3.737319707621e+01 
1 -2.581292010362e+01  -5.093398592014e+01  -3.504570364111e+01 
1  7.374424905795e+01   4.916151423060e+00  -5.383803740517e+01 
8
Step 3000
1  6.711618447537e+01   3.480582336095e+01  -4.826424538081e+01 
1 -4.971466066077e+01   2.987576931170e+01   3.596098511557e+01 
1 -7.335717795703e+01  -3.176672739418e+01   9.895700409153e+00 
1 -1.945906176610e+01  -2.571113031028e+01   5.066401458232e+00 
1  2.912842878325e+01  -2.255640519663e+00  -6.069316995136e+01 
1 -4.730567502970e+01   1.270841250377e+01  -5.787752957294e+00 
1 -2.064547224799e+01  -3.101499085746e+01  -6.335061069610e+01 
1  7.140628611624e+01  -9.412457894102e+00  -6.455002431021e+01 
8
Step 3100
1  3.966226270996e+01   1.968215126358e+01  -4.237526135966e+01 
1 -1.746153521191e+01   4.838331869052e+01   2.058386450608e+00 
1 -5.669171640559e+01  -5.158443688418e+01   5.294018451575e+00 
1  1.617230828744e+01  -1.541319529934e+01   2.650131539604e+01 
1 -3.145005165377e+01   3.140688377243e+01  -3.266354685707e+01 
1 -7.016244710929e+01   2.680409915556e+01   1.759607091946e+01 
1 -3.447462218851e+01  -2.891348477967e+01  -4.419545233711e+01 
1  2.601475570244e+01   2.423755283417e+01  -7.438755778483e+01 
8
Step 3200
1  1.187200984371e+01   1.210047277361e+01  -6.893048764483e+00 
1 -7.292476373609e+00   7.318152018344e+01  -1.849230906556e+01 
1  5.736330177444e+00  -2.873296949412e+01   1.171133348176e+01 
1 -1.720796058862e+01  -4.999187529468e+00   2.445183431245e+01 
1 -5.137393746765e+01   3.564612447417e+01  -1.226184816678e+01 
1 -6.742319574096e+01   2.648842061377e+01  -1.468041696051e+01 
1 -2.489686320150e+01  -3.880416491538e+01  -6.846745593921e+00 
1  2.293737976292e+01   3.148652249053e+01  -4.712503026834e+01 
8
Step 3300
1  9.960267768470e+00   3.404822456801e+01   2.172075931206e+01 
1  2.474856987614e+01   9.386937116850e+01  -7.916776526168e+00 
1  3.984149463890e+00  -2.970436328933e+01  -6.922855639028e+00 
1  1.952387946294e+00   5.898697571964e+00   1.410854253869e+01 
1 -5.777458091518e+01   1.818980773393e+01  -2.258942502902e+01 
1 -3.818869645738e+01   2.101568618794e+01  -1.650751294068e+00 
1 -1.224538601905e+01  -3.520825776767e+01  -1.953757235452e+01 
1  7.638050727293e+00   2.473610976238e+01  -1.630859859313e+01 
8
Step 3400
1  1.118288547255e+01   4.069105583938e+01   1.218248578857e+01 
1  3.846642575795e+01   8.560571420802e+01  -6.643142864961e-01 
1 -5.247731869128e+01  -6.595365775335e+00  -4.664035064976e+01 
1 -4.682899984134e+00   8.925443289083e+00   8.959946474538e+00 
1 -2.824730362603e+01   5.712082687794e+00   1.054363495939e+01 
1 -2.534165756255e+01   1.433642498616e+01   2.689698322523e+01 
1 -9.356260712004e+00  -4.788560354552e+01  -1.181077095535e+01 
1 -3.564232479537e+01   2.564648436724e+01   2.066555194566e+01 
8
Step 3500
1  4.871678470308e+00   4.937989774304e+01   2.159816497684e+01 
1  3.564580135433e+01   3.085369885334e+01   4.422781266353e+00 
1 -5.720117299157e+01   3.778320702794e+00  -6.001715257536e+01 
1 -5.772290390622e-01   2.336952542459e+01   1.332418090040e+01 
1 -1.108651943661e+01   5.758586009576e+00   2.273213158113e+01 
1 -1.713505638211e+01  -3.226871723336e+01   3.132284880666e+01 
1  2.390610627686e+01  -6.577439771259e+00  -5.569674376342e+00 
1 -8.035782307028e+01   2.314166038554e+01   3.112802149675e+01 
8
Step 3600
1  1.815396628672e+00   4.013113703767e+01   4.657563140258e+01 
1  5.315850852597e+00   6.053663661551e+00  -1.903398455326e+01 
1 -2.131541700249e+01   2.528295858223e+01  -1.191555907753e+01 
1  9.869277764800e+00   5.038215011381e+01   1.400613688122e+00 
1  9.697032721256e+00   2.138439085019e+01   3.342769728044e+01 
1 -1.594557163296e+01  -3.794421431337e+01   6.535009868644e+01 
1  5.217820706806e+01   2.525522644645e+01  -2.697801176196e+01 
1 -9.138589801790e+01   3.694976695399e+01   1.627973318178e+01 
8
Step 3700
1 -3.753205436252e+00   3.492867731204e+01   2.915002896747e+01 
1 -1.074545618946e+01   2.094592972251e+01  -1.994581650203e+01 
1 -1.022989821754e+01   1.748019653350e+01   1.936293668766e+01 
1  3.694690333473e+01   3.412676011998e+01  -1.655011266396e+01 
1 -6.821942777653e+00   2.818765083005e+00   2.904798118893e+01 
1  1.029383303667e+01  -2.372719265505e+01   7.067074093768e+01 
1  1.836799161442e+01   2.194995311059e+01  -2.332301611619e+01 
1 -7.778992577885e+01   4.190489224896e+01  -3.631934563388e+00 
8
Step 3800
1 -7.199128141988e+00   2.584873699823e+01   1.549996929799e+01 
1 -1.948544588559e+01   4.393473965874e+01   9.313848043521e+00 
1  4.884590497678e+00  -1.251183428014e+01   4.441990172399e+01 
1  3.911046573440e+01   1.757846333008e+00   1.207687665579e+01 
1 -9.520616812384e-01  -6.111772527907e+01   2.056608585353e+01 
1 -4.290093099095e+00  -2.264694161354e+01   6.218300733866e+01 
1 -1.194448161581e+01   4.298488445657e+00  -2.564212403080e+01 
1 -4.787429163937e+01  -4.090611205341e-01  -1.808592738431e+01 
8
Step 3900
1  9.329715746671e+00  -1.734091339049e+01   1.563586847710e+01 
1 -1.017241787237e+01   3.851839677764e+01   1.015022825074e+01 
1  1.619554166882e+01   5.970603191104e+00   5.167122472207e+01 
1 -3.017518905975e+00  -9.527839507254e+00   9.214726309687e+00 
1  8.342175247154e+00  -1.805089948441e+01  -1.943206066011e+01 
1  2.505632540425e-01   1.627523111191e+01   5.611353481429e+01 
1 -3.744279887451e+01  -1.862635860635e+00  -3.769865761832e+01 
1 -1.202565559765e+01  -1.073779776209e+01  -4.608090185759e+01 
8
Step 4000
1  1.649377134816e+00  -1.898912585612e+01   1.859988518923e+01 
1  1.156360561765e+01  -2.418683933432e+00  -1.062892725625e+01 
1  2.458175082519e+01   1.519268191088e+01   3.474466804660e+01 
1  3.670974007427e+00  -1.622972126938e+01  -3.158812244750e+01 
1 -4.304374687750e+00   2.196601823597e+01  -4.651662657959e+01 
1  1.677168168085e+01   3.090666208655e+01   1.161974106457e+01 
1 -5.359755992240e+01   1.516814236218e+01  -6.805817624727e+00 
1 -9.758370396708e+00  -6.429578506472e+00  -5.017716826477e+01 
8
Step 4100
1 -4.148948180358e+00  -7.023112121735e-02   1.587888011193e+01 
1  2.855507138184e+01  -2.688867454495e+01  -2.065080659373e+01 
1 -1.668790665886e+01  -2.019906423827e+01   7.001445865935e+00 
1  3.455212971333e+01   6.020166934207e+00  -5.190730415081e+01 
1 -4.201885868238e+01   4.410051319878e+01  -5.540456855526e+01 
1  1.121347573601e+01   2.370122368941e+00  -4.376365446222e+00 
1 -8.971167452719e+01   2.219513549319e+01  -1.173588735309e+01 
1  5.145345019266e+00   2.755427143679e+01  -3.542910196881e+01 
8
Step 4200
1 -1.790542593531e+01  -1.866172289087e+00   6.633134936185e+00 
1  5.132508849530e+01   1.889865511195e+01  -1.813403526660e+01 
1 -3.873730260762e+01  -3.764356192346e-01  -1.521800527710e+01 
1  1.146776335310e+02  -2.464546123173e+01  -3.618775852542e+01 
1 -3.974525076156e+01   1.600572730956e+01  -2.733630594075e+01 
1 -7.586837948958e+00  -2.127156654711e+01  -9.780349262693e+00 
1 -6.652494642828e+01   1.349585153324e+01  -3.408823915921e+01 
1  1.676118521911e+01   4.718270865235e+01  -4.047198737236e+01 
8
Step 4300
1 -1.865847812970e+01  -2.936195639361e+00   1.459965137375e+01 
1  4.251444720530e+01   5.749694398708e+01  -1.669505979771e+01 
1 -5.555936606046e+01   1.920303300051e+01  -4.570027338952e+00 
1  1.314362963758e+02  -1.014485485184e+01  -4.133891780051e+01 
1 -1.727532224200e+01   1.004190799377e+01  -2.832137132856e+00 
1 -2.401420739312e+00  -1.736122545675e-01  -3.927510072966e+01 
1 -4.010897063753e+01   4.513596423289e+00  -5.987236191642e+01 
1  2.045617190083e+01   4.197102137769e+01  -6.662310351472e+01 
8
Step 4400
1  1.037633554987e+00  -1.728247549361e+01   1.859892327755e+01 
1  6.357290630725e+00   5.988857386022e+01  -1.244397304671e+01 
1 -4.392406093887e+01  -8.263261175135e-01   3.159813199120e+01 
1  1.057451806853e+02   2.076806742207e+00  -5.720598137419e+01 
1 -5.822242531317e+01   5.183525642318e+01  -4.788051041389e+00 
1  3.174153993406e+01  -3.295367324407e+01  -3.360090403322e+01 
1 -4.544361593450e+01   1.546970064328e+01  -5.296434276377e+01 
1  3.286008734150e+01   2.398071576091e+01  -1.021785065670e+02 
8
Step 4500
1 -2.393580780591e+01  -9.726606998087e+00   1.209375850038e+01 
1 -5.488906901810e+00   4.727457337592e+01  -7.952983050865e-01 
1 -3.428881885738e+01   2.588684697099e+01   8.026853582149e+01 
1  6.699430010681e+01   4.117830537841e+00  -3.251019237032e+01 
1 -9.376777645750e+01   6.887160296596e+01  -1.718324772186e+00 
1  3.946602300326e+01  -4.572173903278e+01  -2.508237253390e+01 
1 -5.633018788488e+01   2.997401577196e+01  -4.062224472158e+01 
1 -2.049337489628e+01   1.124997307079e+01  -6.181960962252e+01 
8
Step 4600
1 -1.868171258273e+01   2.992709644275e+01   1.912189763932e+01 
1  9.693940264211e+00   9.280681651188e+00   7.459573314629e+00 
1 -6.220118207480e+01   4.247250103973e+01   9.722925454953e+01 
1  6.442451781669e+01   1.783745049573e+01   1.138079437757e+01 
1 -8.562645659308e+01   6.806335310424e+01   1.112324570813e+01 
1  3.894405036006e+01  -2.258133705088e+01  -7.089696407753e+00 
1 -1.867002140065e+01   9.048151647282e+00  -2.085620964258e+01 
1 -4.411348312173e+01  -3.374571111171e+01  -2.369125485894e+01 
8
Step 4700
1 -1.611533217746e+01   4.627720671235e+01   2.632781108349e+01 
1  1.091351433131e+01  -2.020765463567e+01  -8.680224044389e+00 
1 -6.923396773656e+01   5.730721327741e+01   6.653846365817e+01 
1  5.123384781869e+01  -1.054870608504e+01   6.992650700645e+01 
1 -8.791129951438e+01   4.508619807201e+01   7.869484237098e+00 
1 -6.426653481539e-01  -3.083476678057e+01  -2.564500878193e+01 
1  3.175210902755e+01  -3.032775881329e+00  -1.315808432159e+01 
1 -1.533126656426e+01  -5.148767380440e+01  -3.140357643626e+01 
8
Step 4800
1 -3.593049014002e+01   2.417056602539e+01   1.852730679155e+01 
1  3.431720897086e+01  -1.933845912592e+01  -6.878637352353e+00 
1 -5.900236720079e+01   3.627905583964e+01   4.973420476385e+01 
1  7.373468319760e+00  -3.810618600123e+01   4.766599861672e+01 
1 -6.162361101409e+01   7.302264605125e+01  -7.184177988002e+00 
1 -2.694606331685e+01  -2.088655167892e+01  -3.380903619056e+01 
1  7.649228537556e+01  -1.860977664123e+01   8.458875656050e+00 
1  4.250587693523e+00  -2.809828387600e+01  -5.595819215700e+01 
8
Step 4900
1 -4.352401705217e+01   2.079659993691e+01   3.006023918520e+01 
1  3.269142048012e+01   1.651269921896e+01   2.761386819754e+01 
1 -4.651124282534e+01  -1.231667383376e+01   2.546425123345e+01 
1 -7.645705272530e+00   1.043153883808e-01   1.216071817266e+01 
1 -1.954248919822e+01   7.082650817200e+01  -1.929448755565e+01 
1 -3.654660710279e+01  -6.917299281302e+00  -3.370341601288e+01 
1  4.840541344981e+01  -9.318332023423e+00   4.353880366456e+01 
1 -9.593492354401e+00  -2.337330677802e+00  -5.844680795041e+01 
8
Step 5000
1 -8.575702653228e+00  -1.348352813245e+01   2.375298106676e+01 
1 -1.492581716567e+01   2.985567166378e+00   5.074890025490e+01 
1 -5.885269529771e+01  -4.399928310623e+01   1.509355649802e+01 
1 -1.278424406374e+01   8.065069865993e+00   7.260239310199e+00 
1 -4.304236190044e+00   3.731483071180e+01  -1.658773292652e+00 
1 -3.033304323923e+01   1.660447073401e+00  -1.951534050150e+01 
1  1.749488418493e+01   3.213645020198e+00   3.728837773595e+01 
1 -3.774629140791e+01  -2.751191944670e+01  -7.040761417670e+01 
8
Step 5100
1  1.775637304671e+01  -2.264812499980e+01   5.014858004984e+01 
1 -2.188887301005e+01  -6.939119546808e+00   2.810750541250e+01 
1 -3.594992357663e+01  -7.490890739369e+01   1.487097713846e+01 
1 -9.730565843111e+00   7.593018818381e+00   2.368102468494e+01 
1  1.696574270901e+00  -1.415793986748e+00   4.083271568928e+01 
1  3.456261727050e+00  -9.390870705159e+00  -4.913255548094e+01 
1  1.361166790894e+01  -3.302982058017e+00   1.067222759343e+01 
1 -3.215324713734e+01  -2.626989559438e+01  -7.401391846721e+01 
8
Step 5200
1  4.079215538278e+01  -1.204752031949e+01   6.039014103888e+01 
1 -6.469005122667e+00   1.205481835971e+01  -1.191192542225e+01 
1 -1.279797503484e+01  -6.459190088368e+01   2.309670470731e+01 
1  9.052507199965e+00   3.473453812647e+00   1.366131763909e+01 
1  3.467568856431e+00  -1.376718131900e+01   5.339535471390e+01 
1  1.671339664198e+01   5.699768695968e+00  -2.227919713417e+01 
1 -5.735859714749e+00   1.119388148748e+01   1.650284825957e+01 
1 -2.114000719844e+01  -2.663832199592e+01  -3.375206473141e+01 
8
Step 5300
1  2.677863085141e+01   2.085219500376e+01   5.158497362491e+01 
1  1.022748455969e+01   1.458456174951e+01  -3.169402086206e+01 
1 -8.037950808115e+00  -1.105751181507e+01   1.170660466041e+01 
1 -7.637034273888e+00   1.281919734869e+01   5.595129799726e+01 
1 -8.284115722790e+00  -1.065622969149e+01   2.948343938849e+01 
1  7.558848359740e+00   1.984916114646e+01   1.006486139851e+01 
1 -5.993935589635e+00   3.148582058925e+01   3.526998516779e+01 
1 -1.313952452855e+01  -4.233833421579e+01   1.501994495840e+01 
8
Step 5400
1  4.136201790765e+01   3.779065907214e+01   5.374944253805e+01 
1 -4.015387277851e+00   5.607977765852e+00   5.785812652611e+00 
1 -7.423687581690e+00   4.564050550678e-01  -3.045299342700e+01 
1  1.815732164562e+01   6.533439558609e+00   5.852866547165e+01 
1 -1.415907413103e+01  -1.051033854568e+01  -2.743488955812e+00 
1 -2.024855494892e+00   3.545749005651e+01   1.499670744481e+01 
1 -3.945331455179e+00   3.905345810105e+01   2.955440021855e+01 
1 -9.627597026217e+00  -1.016742858824e+01   3.099834484247e+01 
8
Step 5500
1  4.567187287054e+01   3.461353560097e+01   6.450041433672e+01 
1  1.665867945315e+00   6.609007154400e+00   8.955090257609e-01 
1  9.913939403368e+00   4.236982960986e+00  -4.729803000549e+01 
1  4.156388292961e+01  -1.176063089624e+01   6.346375089870e+00 
1 -5.758253555694e+01  -1.585867720937e+01   3.310544651521e+00 
1 -7.200275151878e+00   1.803749053713e+01   2.384048377592e+01 
1 -4.498777244537e+00   2.124993822639e+01   3.192565249339e+00 
1 -2.876194417087e+01  -1.691982643767e+01   1.073876370453e+01 
8
Step 5600
1  4.496484550116e+01   3.867672079883e+01   4.568359678882e+01 
1  1.188696392227e+01   7.089329603092e+00   7.392248212473e+00 
1  5.079391654663e-01  -1.756994415823e+01  -2.211389029007e+01 