8
Step 0
1 -3.667134699379e+02  -4.123784025325e+02  -3.724352894162e+01 
1 -6.134875609703e+02   3.546872966150e+02  -2.129568259624e+02 
1 -1.085612203914e+02   5.714618773966e+02  -4.201339180976e+02 
1  5.776160757834e+02   5.150527109729e+02  -2.790509322489e+02 
1 -3.640504577084e+02   1.459409628465e+02   1.790603989506e+02 
1  2.252651748308e+02   5.190313869790e+02   4.248133453922e+02 
1 -1.143210776159e+02   4.864662517631e+02   6.502292776888e+02 
1 -3.151580651484e+02   3.728094634919e+02   6.083085494358e+02 
8
Step 100
1 -2.532574578480e+02  -2.919490048076e+02   9.662962511479e+01 
1 -5.027685620008e+02   1.405674434110e+02  -1.689114244354e+02 
1 -2.761871777180e+01   4.162849086539e+02  -2.456099812113e+02 
1  3.558485334280e+02   4.077699823829e+02  -2.784781228845e+02 
1 -2.115463285028e+02   1.715108876334e+02   1.477251590323e+02 
1  1.603110745461e+02   2.987393241689e+02   2.854452159527e+02 
1 -1.559470604067e+02   3.273589564092e+02   4.196558792930e+02 
1 -3.223137772119e+02   2.903468770213e+02   2.842694798598e+02 
8
Step 200
1 -6.659624429904e+01  -1.129594868349e+02   2.449218204751e+02 
1 -2.856208927206e+02  -8.635910584966e+01  -7.132386573178e+01 
1  9.371561283898e+01   1.651031267184e+02  -5.559576323699e+01 
1  4.797004515109e+01   2.365216820759e+02  -2.330262924844e+02 
1  1.477344726825e+01   1.236023289835e+02   6.573650641833e+01 
1  1.162765833691e+02   3.015458085797e+01   5.652665586444e+01 
1 -1.722757704136e+02   7.407646699767e+01   5.774487593626e+01 
1 -2.444659207176e+02   1.778820449242e+02  -1.153219712489e+02 
8
Step 300
1  6.491102805014e+01  -3.170548910120e+01   2.415771974223e+02 
1 -1.397125233801e+02  -1.866264837015e+02   2.230108075960e+01 
1  1.127662734526e+02   2.953861139245e+00  -1.840280534610e+01 
1 -4.072680949378e+01   1.456754709024e+02  -1.389384350409e+02 
1  1.064453943780e+02   6.991593771341e+01  -1.163339987282e+01 
1  6.208493570860e+01  -3.817175998219e+01  -6.009804128931e+01 
1 -1.420981652381e+02  -4.537282123164e+01  -9.430486429411e+01 
1 -1.314393481530e+02   1.060374322315e+02  -1.805627970123e+02 
8
Step 400
1  9.855563813835e+01  -2.404582532411e+01   1.535448732785e+02 
1 -7.213647167205e+01  -1.624833170917e+02   1.627890054889e+01 
1  7.750246951838e+01  -3.596507331567e+01  -8.503735201043e+01 
1  5.139541036858e-01   1.123456923978e+02  -5.703504806293e+01 
1  9.222398805073e+01   2.958710815180e+01  -7.999487059220e+01 
1  2.010795434453e+01   2.907544524336e+01  -8.178445636360e+01 
1 -9.599799358163e+01  -1.126509564345e+02  -6.758938765088e+01 
1 -5.511309585345e+01   5.213414619929e+01  -9.079447901953e+01 
8
Step 500
1  6.242806618295e+01  -4.857727213975e+00   6.476538124753e+01 
1 -2.210110570069e+01  -6.981629157076e+01  -1.287933391390e+01 
1  3.281670728934e+01   1.432053248276e+01  -1.239179186787e+02 
1  1.343905188971e+01   7.204321037731e+01  -1.642574601927e+01 
1  6.685366706384e+01   1.464095039349e+01  -7.837355372866e+01 
1 -3.052749507277e+01   7.132901602808e+01  -7.930767994057e+01 
1 -6.631212372267e+01  -1.062560267988e+02   9.726309805887e+00 
1 -1.668756059856e+01   1.663386145068e+01  -1.212409231487e+01 
8
Step 600
1  1.564416863880e+01  -2.859330476912e-01   5.614094866041e+01 
1 -9.221076795506e+00  -1.737736919815e+01  -3.108268259955e+01 
1  1.996343218647e+01   4.372132694155e+01  -1.026252975423e+02 
1  1.396151150652e+01   2.610720653671e+01  -2.542312720839e+01 
1  4.514561379744e+01   5.122130878411e+01  -3.803812627197e+01 
1 -1.777516887995e+01   8.544651567464e+01  -5.612107067624e+01 
1 -6.307763527759e+01  -8.699756280366e+01   7.675327360461e+01 
1  2.186950368287e+01  -1.834188511965e+01  -5.349986774748e+00 
8
Step 700
1  1.274056004228e+01  -1.611603450804e+01   5.071247762205e+01 
1 -2.169700975829e+01   1.618411244720e+01  -3.178255597039e+01 
1  2.474820543264e+00   2.809906488312e+01  -7.303541838008e+01 
1 -7.807247439610e+00   3.162092746614e+01  -5.260500987539e+01 
1  4.991318007484e+01   6.373131833399e+01  -1.379401061846e+01 
1  1.100148171299e+01   6.574548624362e+01  -4.109219930598e+01 
1 -4.720689480152e+01  -1.004427272705e+02   6.956933990305e+01 
1  3.406296315447e+01  -4.686284016974e+01  -1.593018174363e+01 
8
Step 800
1  1.922116226078e+01  -1.257764755620e+01   6.581525045727e+01 
1 -3.049381601379e+01   1.730321804830e+01  -2.610538772582e+01 
1  1.217205765638e+01  -1.978543420350e+01  -3.089522348083e+01 
1 -1.445276057984e+01   3.525024019581e+01  -5.033276729410e+01 
1  6.502973325020e+01   5.509126010814e+01   2.103070165315e+01 
1  6.301091696749e+00   3.532515596658e+01  -2.566262313696e+01 
1 -3.961194097858e+01  -6.630468102672e+01   3.564472998347e+01 
1  4.420586732124e+01  -8.226419101412e+01  -2.126573111400e+01 
8
Step 900
1  5.817436911021e+01  -2.189372663039e+01   4.597620598476e+01 
1 -3.890285092170e+01   1.431550716698e+01  -6.137325405177e+00 
1  3.490905367323e+01  -1.492250863730e+01  -1.625559044083e+01 
1 -5.274335777453e+01   3.474691961089e+01  -1.648800419569e+01 
1  7.586251992709e+01   4.704991099957e+01   3.265527530569e+01 
1 -1.395635079103e+01   1.540191534201e+01  -2.978421718847e+01 
1 -1.287216549724e+01  -1.554795847574e+01   2.830701867985e+01 
1  2.204379577791e+01  -6.819867949798e+01  -1.413723141470e+01 
8
Step 1000
1  7.497806168935e+01   1.161476665039e-01   4.787856681542e+01 
1 -2.749446098797e+01   8.032538914966e+00  -1.936086409798e+01 
1  2.082194057938e+01   1.503739675144e+00  -2.295147197437e+01 
1 -5.647446251723e+01   3.157671804514e+01   7.909138381309e-01 
1  1.028006536614e+02   3.925525443969e+01   1.953578535688e+01 
1 -2.469255582097e+01   2.001716107164e+01   2.704408424829e+01 
1  6.964125443704e-01   3.704967748698e+01   4.368544138097e+01 
1  1.466400914367e+01  -5.145867285766e+01  -1.297955797618e+01 
8
Step 1100
1  5.932414761080e+01   1.720736489188e+01   3.415548895209e+01 
1 -2.408340934955e+00  -1.396026662762e+01  -6.068435699374e+01 
1 -5.216895407452e+00   1.114731173903e+00   1.516876105223e+00 
1  7.109389395577e+00   2.538747213154e+01  -1.073070501432e+01 
1  1.018085151393e+02   3.859462665162e+01   2.913901593093e+01 
1 -2.514603920078e+01   1.268039268184e+01   1.113465014513e+01 
1 -1.042820419818e+00   8.249074844422e+01   3.654824323431e+01 
1  3.920588752918e+01  -1.456805045824e+01  -1.330340554027e+01 
8
Step 1200
1  5.270168961493e+01   1.483057409946e+01   1.009079115916e+01 
1 -4.351535855772e+00   9.634348894509e+00  -5.749144879192e+01 
1 -4.435857515364e+00   2.102177531374e+01   3.054497447556e+01 
1  8.704776850333e+01   1.700479717197e+01  -4.306970759473e+01 
1  6.764337100500e+01   3.101448551578e+01   3.135525396377e+01 
1 -1.691724844567e+01   1.059384605503e+01   1.790625093583e+01 
1  1.605556352559e+01   5.839468542482e+01  -8.280840331638e-01 
1  5.212104585993e+01   6.446888148104e+00  -3.619864567477e+00 
8
Step 1300
1  4.823559411822e+01   1.838683955069e+01   2.959631747158e+01 
1 -2.619333234214e+01   5.204712630348e+00  -2.981196560771e+01 
1  1.342786975794e+01   4.602391566830e+01   3.533819648231e+01 
1  8.886185233108e+01   2.972598154455e+00  -6.579340150194e+01 
1  3.441983157330e+01   4.900883714087e+01  -1.131768960137e+01 
1  6.730639291238e-01   1.536450071584e-01   2.685947751353e+01 
1 -6.154460682396e-01   2.906217016466e+01  -4.380439262975e+01 
1  4.274039300361e+01  -1.064661230442e+01   8.388490370383e-02 
8
Step 1400
1  1.821815401538e+01  -1.821986718564e+00   2.417877469792e+01 
1 -3.935064161393e+00   5.169361100718e+00  -7.851084531877e+00 
1  2.515491438040e+01   5.964048227145e+01   7.213075885112e+00 
1  7.107326029432e+01   1.833395633081e+01  -3.844845323686e+01 
1  8.607331109961e+00   4.039516901043e+01  -3.539158111828e+01 
1 -2.394062047231e+00  -7.044151683760e+00   3.122965760045e+01 
1 -8.030171867881e+00   8.791970518356e+00  -2.566128353178e+01 
1 -2.204894962433e+00  -2.394260783239e+00   1.042416295798e+01 
8
Step 1500
1 -5.392339054137e+00   4.699823381782e+00   1.293530224549e+01 
1  2.258143156229e+01   4.186998830204e+00  -4.063259115649e+00 
1  7.062297036867e+00   5.127103988374e+01  -9.783510855152e+00 
1  2.561871624553e+01   2.571156963080e+01  -1.680679317363e+01 
1  2.907771633269e+01   2.997764578683e+01  -5.152500816893e+00 
1 -2.767333150630e+01   9.302992902718e+00   3.185075667181e+01 
1 -6.865651898501e+00   9.191610263817e+00  -6.545811115866e-02 
1 -3.372154339951e+01  -7.096923066256e+00   4.429956264918e-01 
8
Step 1600
1  2.160726701966e+01  -5.780581917128e+00  -8.396273201534e+00 
1  3.200528491905e+01   3.607963228698e+01  -2.607388479754e+01 
1 -1.492188575462e+01   3.090374670466e+01  -1.685892153480e+01 
1  3.039702625302e+01   6.344926123877e+01   2.620568692016e+01 
1  2.961302891380e+01   2.642866252212e+01   1.009508235376e+01 
1 -3.616095865221e+01   1.472608792835e+00   2.407353634121e+01 
1 -9.186171350579e+00  -6.077991540229e+00  -3.594811285642e+00 
1 -1.366872471830e+01  -7.975520750257e+00  -3.141972877688e+01 
8
Step 1700
1  2.783142065847e+01   6.931712524806e+00  -3.169901978118e+01 
1 -1.670288136624e+01   7.021493357085e+01  -1.803860836025e+00 
1 -2.470830684078e+01   3.927058026218e+00  -2.493073994539e+01 
1  4.912111211604e+01   6.397434947151e+01   2.491771046786e+01 
1  1.854322088121e+01   4.085981835663e+01  -1.649573240448e+00 
1  9.141418275394e+00   7.744320046311e+00   6.336570027960e+00 
1 -1.679444091514e+01   1.480249462041e+01  -2.606426599102e+01 
1  1.634802537568e+01  -1.179384797444e+01  -3.272322159546e+01 
8
Step 1800
1  3.819490284102e+01   1.626779115775e+01  -2.160392573162e+01 
1 -4.502812014932e+01   7.507497734854e+01  -1.268681654790e+01 
1 -3.445471529824e+01   6.215577341082e+00  -3.869636108449e+01 
1  7.703930880340e+01   1.064943851926e+01   5.510451357004e+00 
1  3.352028769727e+01   3.025238220215e+01   4.303488550337e+00 
1  2.470642498095e+01   3.465160951853e+01  -1.601652551363e+01 
1 -3.991091327277e+01   2.269958193748e+01  -2.966136628751e+01 
1  4.533360798949e+01  -6.658394746487e+00  -2.176168617154e+01 
8
Step 1900
1  2.789089805614e+01   2.656154947356e+00  -1.511995786769e+01 
1 -5.444860525368e+01   5.658190953160e+01  -1.205249006215e+01 
1 -2.668253169735e+01  -1.785571839410e+01  -3.226419592198e+01 
1  5.202146421738e+01  -2.179124010526e+01  -1.542927619381e+01 
1  1.946728680769e+01   2.038293830320e+01  -3.609548652551e+00 
1  1.386212851319e+01   1.208180249625e+00  -3.983901378980e+01 
1 -3.180901877224e+01  -5.315169631539e+00  -1.502055484902e+01 
1  4.440101590934e+01  -2.259450190891e+01  -9.416115940938e+00 
8
Step 2000
1  4.384415274981e+01  -2.793570353909e+01  -5.673931863842e+00 
1 -5.668693040293e+01   8.205241328165e+00  -7.701545023689e+00 
1 -1.264433880622e+01  -5.245191756186e+01  -3.501193261842e+01 
1  5.676740634156e+01   1.804648593650e+01  -1.386579590489e+01 
1  3.220532824289e+01   1.092499036325e+01  -2.264473103211e+01 
1  2.426757873161e+01   1.708463687541e+01  -7.745063027172e+00 
1 -7.232583641584e+00  -1.224399540471e+01   1.256563137221e+01 
1  2.535003999138e+01  -2.067582364230e+00  -1.506763615533e+01 
8
Step 2100
1  3.626684792517e+01  -3.741798646322e+01  -1.830976505270e+01 
1 -3.760524173750e+01  -2.387561454587e+01   1.651576490821e+01 
1 -8.140385219016e+00  -5.478330654908e+01  -2.082214547011e+01 
1  6.066663611421e+01   3.695345173303e+01  -1.984700230724e+00 
1  5.348904742253e+01   1.875192667958e+01  -8.426601017690e+00 
1  3.460159180975e+01   3.894892333004e+01   1.740298741497e+01 
1  1.841860085238e+01  -1.114911013267e+01   2.249827302164e+01 
1 -6.552505067957e+00  -7.205655393444e+00  -1.976338847539e+01 
8
Step 2200
1  1.571372007655e+01  -3.149544308036e+00  -2.002146024145e+01 
1 -4.884442466160e+01  -4.910763010558e+01   2.045966364112e+01 
1 -5.555175508929e+01  -6.455219815593e+01  -3.758204930184e+01 
1  5.226927997895e+01   3.421254926923e-01   3.561445873865e+00 
1  5.975895131239e+01   1.731866021780e+01  -1.712825590473e+01 
1  2.517895434275e+01   2.219911047434e+01   2.883524199126e+01 
1 -1.196653615791e+01  -3.399244543922e+00   2.633284694419e+01 
1 -3.197059674474e+01  -2.238579252549e+01  -9.987716107836e+00 
8
Step 2300
1  3.620224322762e+01   1.648587244028e+01  -8.815873682481e+00 
1 -6.203132560520e+01  -4.585372110515e+01   2.326447199198e+01 
1 -7.989306977985e+01  -3.929811789016e+01  -4.848788925962e+01 
1  4.809688018188e+01  -1.419782694756e+00  -9.408279137152e+00 
1  3.224197318168e+01   5.773163870527e+00  -2.898783780365e+01 
1 -6.429948952349e+00   1.944188435904e+01   1.546192819222e+00 
1 -3.946560029829e+01  -2.331370957243e+01   5.665875178811e+01 
1 -8.909562536336e+00  -1.022905450814e+01  -6.771276495372e+00 
8
Step 2400
1  1.517788368021e+01   5.090030348912e+01  -5.306004548692e+00 
1 -4.215956595510e+01  -4.542204210931e+01  -5.273857267818e-01 
1 -4.245645946970e+01  -5.398122819285e+00  -4.023096507444e+01 
1  1.767342424303e+01   1.102040734154e+00  -1.253987702813e+01 
1 -4.153809133813e-01  -8.119205112578e+00  -1.577355231746e+01 
1 -9.387212263418e+00   3.404299586700e+01  -7.770075218505e+00 
1 -3.583059094502e+01  -1.730123094562e+01   3.091972388076e+01 
1  3.666075796577e+01  -7.025085010208e+00  -1.515745113578e+01 
8
Step 2500
1  4.734637326270e+00   6.386754365797e+01  -2.042270075125e+01 
1 -4.486749759703e+01  -4.916330886951e+01   5.520002864563e+00 
1  4.009456962514e+01   1.827201152376e+01   1.217438794233e+01 
1 -2.296922993865e+01   2.456428527057e+01  -5.871407240285e+00 
1 -1.604384260105e+01  -1.534695670585e+01  -4.189310888450e+01 
1  3.741620468452e+00   4.618757946216e+01   2.232526054342e+01 
1 -1.704342933344e+01  -1.598308807943e+01  -1.830797733971e+00 
1  3.485156352987e+01  -3.895595982256e+00  -3.786915300602e+01 
8
Step 2600
1  2.347109558089e+01   2.651257056664e+01  -2.692553848426e+01 
1 -6.184961266496e+01  -1.535902591266e+01  -9.519042013500e+00 
1  2.957047938665e+01   8.288604831369e+00   1.499017345267e+01 
1 -2.288867585629e+01   2.992367348094e+01  -4.613927699927e+00 
1 -3.239494775212e+01  -1.519275746936e+01  -4.080580531957e+01 
1  2.107764270274e+01   6.733127345937e+01   4.353981408558e+01 
1 -3.109730231972e+00  -2.585855894726e+01   2.767151737632e+01 
1  4.046459262235e+01  -1.038878844835e+01  -2.987956824751e+01 
8
Step 2700
1  6.938274907089e+01  -1.811286831822e+01  -4.396383657863e+01 
1 -6.163467756439e+01   5.362946382504e+01  -3.822934055935e+01 
1 -2.698316953358e+01  -2.232388361559e+01   6.386261468792e+00 
1 -1.421161890198e+01   2.756300449601e+01   7.462863128610e+00 
1 -4.390837059363e+01  -4.445906943689e+00  -1.935283796258e+01 
1  1.254927589641e+00   8.519262374389e+01   7.068723613215e+01 
1 -2.201329218193e+01  -7.039544595805e+01   4.851195628314e+01 
1  3.538065950024e+01   1.152555137540e+01  -4.854299718912e+01 
8
Step 2800
1  8.085760897043e+01  -1.087672974806e+01  -1.781045639933e-01 
1 -4.490723554878e+01   8.172836113409e+01  -4.905650505916e+01 
1 -5.411117227281e+01  -2.393096329628e+01   1.197796994587e+01 
1 -1.377466909130e+01   8.003022599378e+00   3.639523818316e+00 
1 -3.204854523289e+01  -5.113785009518e+01   5.288334138172e+00 
1  2.037681701601e+01   7.662851206988e+01   7.201478286709e+01 
1 -2.143057515037e+01  -1.031667041123e+02   5.638654360697e+01 
1  4.526038051707e+01   1.840335634899e+01  -4.482655282029e+01 
8
Step 2900
1  6.954010381146e+01   2.147388083081e+01   1.018560106185e+01 
1  9.371744641836e+00   7.629137303632e+01  -6.676339385616e+01 
1 -2.804080600927e+01  -2.963109931046e+01   1.038504598450e+01 
1 -6.709788595419e+00   7.788139348588e+00   4.275962232847e+00 
1 -2.893297332326e+01  -6.023541136231e+01   1.779193231246e+00 
1  4.328754151206e+01   7.782795367099e+01   7.745299895150e+01 
1 -2.846363176386e+01  -8.807437174322e+01   3.903734796021e+01 
1  5.898656146215e+01   2.154033069443e+01  -5.159213033501e+01 
8
Step 3000
1  4.829381535462e+01   1.716780228064e+01   3.455979827314e+00 
1  4.552805044725e+01   1.021599006510e+02  -6.185614556867e+01 
1 -1.609358050565e+01  -5.311948930680e+01   1.515790596563e+01 
1  3.584478676179e+01  -2.197303074757e+00   1.534192979186e+01 
1 -1.232700869257e+01  -3.036126294495e+01  -8.953161423929e+00 
1  2.006101427135e+01   6.824954905207e+01   6.317761516877e+01 
1 -5.928839621031e+01  -7.285303451186e+01   4.502121472865e+00 
1  4.263256571490e+01  -1.221290795770e+01  -2.243771018741e+01 
8
Step 3100
1  2.074548713365e+01   4.211971306748e+01   3.578778738279e+01 
1  5.828226913726e+01   9.244346916856e+01  -5.445964247454e+01 
1 -2.737266403103e+00  -5.670075642556e+01  -2.157581500579e+01 
1  3.338619758125e+01  -3.685198763377e+01  -2.401265713418e+00 
1  8.022069104278e+00   3.420842112895e+00  -4.183754673655e+01 
1  3.267537495010e+01   7.447173832102e+01   4.041551159425e+01 
1 -2.958571470589e+01  -6.989986240125e+01  -1.968339062246e+01 
1  1.046941151470e+01  -3.702968015101e+01  -2.036697245464e+01 
8
Step 3200
1 -5.475240714393e+00   4.156273097656e+01   5.649451927893e+01 
1  4.591378870921e+01   5.775840053823e+01  -4.397441932076e+01 
1  1.839449188759e+01  -2.933660918500e+01  -4.182807576392e+01 
1  1.513395926060e+01  -5.749397571769e+01  -3.593101872510e+00 
1 -9.366382075204e-01   1.875264063656e+01  -8.513251873416e+01 
1  1.172024638881e+01   7.657652299219e+01   4.237340457248e+01 
1  4.725289855907e+00  -5.823662005504e+01  -2.047915311415e+01 
1 -1.844090575958e+01  -2.373925783243e+01  -1.983443946136e+01 
8
Step 3300
1 -1.134398141400e+01   4.081210408206e+01   2.010734738238e+01 
1  3.382790842196e+01   4.743733152551e+01  -3.456298338459e+01 
1  4.054573874625e+01  -2.722684352327e+00  -1.343295941889e+01 
1  3.950416355913e+01  -6.015511936610e+01   5.960233634496e+00 
1 -2.945658328690e+01   3.262667524194e+01  -9.469182818105e+01 
1 -1.496827960202e+01   8.622400978156e+01   2.493707466472e+01 
1  4.670964005393e+01  -4.270189900429e+01  -2.804325336715e+01 
1 -4.971735754994e+01  -9.732185943678e+00  -1.492982889524e+00 
8
Step 3400
1  1.205761388762e+01   2.974933032525e+01   1.179586916293e+01 
1  4.337813370343e+01   7.260784572010e+01  -5.347306576426e+00 
1  5.934359956884e+01   1.541965965236e+01   2.520035513903e+01 
1  5.128090090554e+01  -6.936116738025e+01   1.794660126363e+01 
1 -1.766192333744e+01   4.424143993040e+01  -3.360319649699e+01 
1 -1.942573264708e+01   6.730951019174e+01   1.583388346975e+01 
1  3.342431996133e+01  -7.689570064675e+01  -4.257895561128e+01 
1 -6.530240172400e+01  -1.378393062371e+01  -3.973699525233e+00 
8
Step 3500
1 -2.222521055996e+00   1.513515042994e+00   3.277691479798e+01 
1  9.190710083995e+01   3.620371977218e+01   5.745808004108e+01 
1  4.756028703731e+01   2.097470543534e+01   2.176008259361e+01 
1  2.530169001928e+01  -6.622855378649e+01   5.017294270622e+01 
1 -5.877406005721e+00   1.696784843481e+01   3.091090098124e+01 
1  7.463735578852e-01   5.778815070458e+01   4.858126634824e+01 
1 -4.829072833415e+01  -1.098985246792e+02  -1.851863149281e+01 
1 -4.279443319207e+01  -3.459485345509e+01   4.919870347328e+00 
8
Step 3600
1 -1.216678698566e+01  -4.369309453001e+01   3.367133827747e+01 
1  7.411624878520e+01   2.154173287708e+01   7.436322146906e+01 
1  2.038074122384e+01   1.008768787916e+01   7.579920163551e-01 
1 -1.046465954539e+01  -6.033503349770e+01   7.883959704970e+01 
1 -5.185827300442e+00   2.813476635525e-01   7.183536907894e+01 
1  2.312483356954e+01   5.319495528868e+01   3.801379915286e+01 
1 -7.775626932659e+01  -7.582918964606e+01  -2.347322629488e+01 
1 -2.345098801626e+01  -3.544004968740e+01   4.100526284050e+01 
8
Step 3700
1 -1.600870374130e+01   1.568235849375e+01   3.480941077356e+01 
1  4.271444632774e+01   2.994925593837e+01   3.809940893031e+01 
1 -4.718984332223e+00   1.294760826093e+00  -1.192010651957e+01 
1 -7.099809233973e+01  -3.974992268438e+01   6.232241362013e+01 
1 -2.170756190419e+01  -7.735077244174e+00   6.782872755537e+01 
1  2.997901640663e+01   2.324308998039e+01   2.889277216220e+01 
1 -4.295333525557e+01  -4.476270217098e+01   1.798502618687e+00 
1 -3.871223915366e+01  -1.386662286147e+01   5.568967550393e+01 
8
Step 3800
1 -3.006590599097e+01   4.416216866092e+01   7.200571952644e+01 
1  1.218282921537e+01   2.324762896909e+01   1.284409029524e+01 
1  1.480767453926e+01  -1.583404619008e+00  -8.419939494191e+00 
1 -5.875351577105e+01  -3.399143769165e+01   3.191455929059e+01 
1 -4.929189563043e+01  -1.356610654202e+01   3.222333690795e+01 
1  2.387906440320e+01   1.345565736680e+01   2.113292034381e+01 
1 -2.528750436358e+01  -1.915984555527e+01   1.972608368257e+01 
1 -4.089782030537e+01   1.151559661575e+01   7.287024508899e+00 
8
Step 3900
1 -1.885129812945e+01   4.037851856847e+01   4.879744686046e+01 
1 -3.059976826544e+01   1.079976101403e+01   5.362534771722e+01 
1  2.085364403469e+01   8.665958561702e+00   1.167552916566e+01 
1 -3.382760168206e+01  -1.317044437520e+01  -1.409789143906e+00 
1 -5.145754076043e+01  -2.869137789350e+01  -3.152191597963e+01 
1 -3.213221929087e+01   8.766356338733e+00  -1.707602919524e+01 
1 -1.816208526332e+01  -2.272119338892e+01   5.018848208286e+01 
1 -1.676857995512e+01  -2.713140253217e+00  -4.091490125929e+01 
8
Step 4000
1  2.919690045044e+01   4.318332314358e+01   3.016337362026e+01 
1 -2.046851593117e+01   1.463398170514e+01   7.007739920080e+01 
1 -1.188291660052e+01   2.294830900243e+01   2.159388515203e+01 
1  3.017908390389e+01   1.572250974524e+01  -2.794599756279e+01 
1 -4.372385853919e+01  -1.620204347710e-01  -3.478552810321e+01 
1 -4.065931133224e+01   3.300033733864e+01   1.985135016134e+01 
1 -1.436387069699e+01   4.630905870340e+00   3.433319305226e+01 
1  6.861327799461e+00  -1.258412621010e+01  -3.362533389497e+01 
8
Step 4100
1  4.828826962309e+01   6.878716626124e+01   3.697503761374e+01 
1 -1.662572878349e+01   2.177078586742e+01   4.191798114548e+01 
1 -2.833058648063e+01   2.779997744497e+01   2.636679423566e+01 
1  7.392430970317e+01   2.326950637639e+01  -4.289086006323e+01 
1 -4.469300797280e+01  -2.161606458788e+00  -4.954211691833e+01 
1 -8.722578624375e+00   2.507993930061e+01   5.269609331189e+01 
1 -1.316760959288e+01   3.130842484574e+01  -1.136705953289e+01 
1  4.575066067543e+01  -1.471820262390e+01  -2.962131484347e+01 
8
Step 4200
1  4.174979941916e+01   9.073017555948e+01   3.860854851116e+01 
1 -3.051997789632e+00   5.494348402455e+00   3.117064274192e+01 
1 -1.500543503081e+01   3.347211440191e+01   3.202357128896e+01 
1  9.466108332454e+01   5.383927463593e+00  -3.115410382617e+01 
1 -5.370537610134e+01  -1.115001372544e+01  -4.329876462472e+01 
1  2.552435872266e+01  -4.056875350599e+00   5.892809276845e+01 
1 -4.812215297901e+01   5.672407856945e+00  -4.021065249207e+01 
1  1.006417361196e+01  -3.184270337371e+01  -3.129084146060e+01 
8
Step 4300
1  5.034354203823e+01   6.654357889020e+01   2.463712998246e+00 
1  2.578736274644e+01  -2.036132559606e+01   3.417519383147e+01 
1 -1.746103266383e+01   3.531706420325e+01   2.480721513394e+01 
1  9.655530784990e+01  -6.600783792761e+00  -2.770609778663e+01 
1 -8.824304486080e+01  -6.867882468848e-01  -3.495287124361e+01 
1  3.299598199247e+01  -1.149990528029e+01   2.901492953780e+01 
1 -3.875515411091e+01  -2.558346416482e+01  -3.116303655572e+01 
1 -5.007050152192e+00  -2.838407400793e+01  -3.840879733736e+01 
8
Step 4400
1  2.220877917145e+01   3.119590837655e+01  -8.399159365500e+00 
1  2.488635291599e+01  -2.156565733962e+01   3.080278011574e+01 
1 -4.045834985623e+01   3.319830449031e+01   8.745764303706e+00 
1  8.483252743834e+01  -4.716319686146e+00  -2.331747563035e+01 
1 -1.104448734230e+02   1.475388480034e+01  -5.188675415424e+01 
1  2.568950263128e+01  -2.628002458617e+01   4.880896934797e+00 
1  2.959187619207e+00  -6.114374922283e+01   4.275112981205e+00 
1 -4.930747139859e+00  -3.379742698542e+00  -2.734677784192e+01 
8
Step 4500
1  1.777157717471e+01   2.401994337486e+01   9.095838355075e+00 
1  4.326740258361e+01  -1.766107975290e+01   1.784543951157e+01 
1 -2.690547942601e+01   2.911714082575e+01  -1.934671488940e+01 
1  7.428438877351e+01  -3.962059685242e+01  -3.011132452434e+01 
1 -8.087071000559e+01   9.575935671500e+00  -6.298379403106e+01 
1  1.267551346904e+01  -3.547133174407e+01  -1.621391113971e+01 
1 -1.902006072084e+00  -6.504649074864e+01  -3.399232145936e+00 
1 -6.070047269819e+00   1.732199661674e+01  -1.671940770417e+01 
8
Step 4600
1  1.529046267849e+01   5.203288036831e+01   1.471643126789e+01 
1  6.781794263729e+01  -5.855447510128e+00  -2.086853343812e+01 
1  2.511459701584e+00   1.608083923687e+00  -1.864817045038e+01 
1  5.988123056232e+01  -2.908353575053e+01  -9.161181220499e+00 
1 -5.151896926459e+01   1.944706244891e+01  -5.914050574173e+01 
1 -1.603160519743e+00  -5.126221331171e+01  -3.047691295158e+01 
1 -1.942198240373e+01  -5.005544932316e+01   3.169489682908e+01 
1 -1.779012278368e+01   2.010124353110e+01  -7.036314649243e+00 
8
Step 4700
1 -1.741203560342e+00   2.997127529351e+01   4.423013508666e+01 
1  7.218324036853e+01  -1.951280789093e+01  -5.567367905331e+01 
1  1.594436227169e-01   6.369820760048e+00  -5.537958621285e+00 
1  1.989489572086e+01   7.184124213746e+00   1.531730428692e+01 
1 -2.280119930893e+00   1.182702163414e+01   1.176756570904e+00 
1 -2.087922743926e+01  -8.662106148717e+01  -4.804098953668e+01 
1 -4.077544627301e+01  -8.474938319130e+00   2.698724441823e+00 
1 -5.783807814542e+00  -9.637508039767e-01  -2.581006560412e+01 
8
Step 4800
1 -2.718458987050e+01   5.834187222676e+00   4.791401009374e+01 
1  5.938176409477e+01  -5.235411326622e+01  -6.873238345400e+01 
1  9.131354162715e+00   1.755443101676e+01   1.666544174670e+01 
1 -2.751991724166e-01   1.505715337483e+01   1.311462511386e+01 
1  4.151561477052e+01  -2.229826290371e+01   2.214979647013e+01 
1 -7.242761390797e+00  -8.118381715730e+01  -1.405031989826e+01 
1 -1.875183892420e+01  -1.470595423150e+01  -4.897103748096e+01 
1  3.110369677089e+01  -1.347157089957e+01  -2.517496245994e+01 
8
Step 4900
1 -2.122932429480e+01   3.984173604888e+00   2.665756113824e+01 
1  5.289753986904e+01  -5.271129093587e+01  -4.224087103872e+01 
1 -1.172811776355e+00  -9.058528255712e+00   2.015455523690e+01 
1 -1.243981146976e+01   1.050067888160e+01   6.763208884678e+00 
1  3.124832043419e+01   1.732020410972e+01  -1.293119203697e+00 
1 -4.113379368295e+00  -5.255913326576e+01   5.216485808106e+01 
1 -3.970699010960e+00  -4.125024867361e+01  -4.963191057916e+01 
1  4.789589292405e+01  -2.727528960808e+01   1.981418955271e+00 
8
Step 5000
1  2.005465270541e+01  -5.077799847498e+00   5.885730079983e+01 
1  2.065810637196e+01  -3.870187642178e+01  -2.196875484595e+01 
1 -3.973590425364e+01  -4.787703727465e+01   2.995201220615e+01 
1 -2.758515661633e+01  -2.517867798383e+01   2.106696936328e+01 
1  1.038553206540e+01   5.600421590808e+01  -5.192205957911e+01 
1 -4.284420805647e+00  -2.736493811916e+01   5.269289010034e+01 
1  1.170405608421e+01  -5.567809379135e+01  -5.525773940889e+01 
1  3.507447825355e+01  -2.907197653748e+01  -7.515954005752e+00 
8
Step 5100
1  6.233840855286e+01   3.916816371691e+00   8.367627707203e+01 
1 -1.916238864763e+01  -4.892907559537e+00  -2.671379601712e-01 
1 -1.812687538133e+01  -4.900368547707e+01   2.413722973133e+01 
1 -3.466999521646e+01  -2.182024228390e+01   2.904980857743e+01 
1  7.537238060380e+00   2.755824556913e+01  -6.103196742249e+01 
1 -2.807988826441e+01   7.705059005779e+00  -2.759239861418e+01 
1  2.222068784932e+01  -6.054884711656e+01  -1.946926169084e+01 
1 -2.928815798586e+00  -3.443953310768e+01  -2.453269737372e+01 
8
Step 5200
1  6.476211891855e+01   1.575123727281e+01   8.296586537268e+01 
1 -2.371879438636e+01  -1.078752484397e+01   3.234113490679e+01 
1  1.468662683969e+01  -9.881936933741e+00   2.993645685673e+01 
1 -2.649205697473e+01  -2.422740248577e+01   2.431704243154e+01 
1 -8.284013549541e+00  -6.632099234594e+00  -3.006616681812e+01 
1 -3.730711349525e+01   2.133689314970e+01  -9.588376421726e+01 
1  1.943079618592e+01  -4.973750193329e+01  -1.577011417245e-01 
1 -4.030146159184e+00  -6.242703773102e+01  -1.317033332016e+01 
8
Step 5300
1  3.281503865615e+01   3.890379234892e+00   4.813699615537e+01 
1 -2.251164507614e+01  -1.722706674915e+01   4.495704828729e+01 
1  3.638726372417e+01   2.876899727699e+01   1.168332220028e+00 
1 -3.638685049759e+00  -1.867773111670e+01   6.867875949522e+00 
1  9.871679420946e+00  -9.274276116808e+00   8.852653995306e+00 
1  2.270769747113e+01  -7.084970462697e+00  -8.885641497679e+01 
1  7.550087103929e+00  -2.562012566701e+01  -7.287828810332e+00 
1 -1.117924999702e+01  -6.905435266022e+01  -8.416755227921e+00 
8
Step 5400
1  2.550944673072e+01  -2.011907161854e+01   1.425203947593e+01 
1 -1.659458598379e+01  -2.454025912418e+01   3.420070082791e+01 
1  4.776334804442e+01   1.343692303738e+01  -1.986531486078e+01 
1 -6.413298837193e+00  -2.244254432909e+01   1.776560080057e+01 
1  7.575539562010e+00   3.050379473153e+01   2.487354268053e+01 
1  4.878755828097e+01  -4.682252975675e+01  -4.734235439803e+01 
1 -2.099470044761e+01  -9.128440841067e-01   5.305824384357e+00 
1 -1.464881944073e+01  -8.531129998633e+01  -5.602683936435e+00 
8
Step 5500
1  5.430315036401e+01  -1.312297454804e+01  -1.157809627574e+01 
1 -2.850665794064e+01  -1.485549098861e+01  -7.572164931622e+00 
1  2.194832986008e+01  -2.130284145769e+01  -3.950501925004e+01 
1 -1.073870509543e+01  -3.890045639082e+01   2.581853124944e+01 
1 -9.354491513183e-01   6.357797810475e+01   3.322710598146e+01 
1  3.500127102667e+01  -5.492334542999e+01   1.100373988605e+01 
1 -5.099591429760e+01   3.174027562569e+01   3.514355354521e+01 
1  2.898038133870e+01  -6.387211960766e+01   2.435072411231e+01 
8
Step 5600
1  2.368341228776e+01   1.356378640910e+01   1.035666301816e+01 
1 -2.303428025124e+01   8.739551582886e+00  -3.030213836981e+00 
1 -3.820263727242e+00  -2.168427936471e+01  -2.523517796524e+01 