8
Step 0
1 1 -4.056280126003e+01   1.371449901251e+02   1.470598043154e+01 
2 1  2.107064351758e+02  -1.422930152425e+02   3.573847818657e+02 
3 1  1.728894614324e+01   1.616061682560e+02   7.171819774615e+01 
4 1 -2.215106457595e+02  -8.152548699606e+01   1.534420046062e+02 
5 1 -2.211490956104e+01   2.753994767903e+01  -6.917218018508e+01 
6 1  2.526194619112e+02   4.566550928053e+01   6.289639186301e+01 
7 1 -6.646355944841e+01  -3.811521897182e+02   2.681196536707e+02 
8 1 -8.566791962942e+01   7.859889221480e+01   3.953139915609e+01 
8
Step 100
1 1 -1.259226874084e+00   7.095804081959e+02   7.025546360829e+01 
2 1 -5.425865993596e+02   1.776293103530e+03  -1.089150350751e+03 
3 1  2.668144817917e+02   1.356462195097e+03   1.326810479550e+02 
4 1  4.086026776298e+02   1.023546746880e+03   8.624972114551e+02 
5 1 -1.585588900249e+03  -5.032807862740e+02   1.703051364911e+03 
6 1 -3.872653161927e+02   1.165530166381e+03  -8.183122047293e+02 
7 1 -5.347400894030e+02  -3.016501695542e+02   5.770959286481e+02 
8 1 -2.432893843067e+01  -8.765284632225e+02  -1.327862088510e+03 
8
Step 200
1 1  3.500125642054e+02   9.095648157323e+02  -1.383686316229e+02 
2 1 -6.695113024041e+02   1.722808421882e+03  -8.810132969127e+02 
3 1  4.415243179681e+02   1.566083031800e+03   4.293199857849e+01 
4 1  3.025995290194e+02   1.392967765895e+03   8.655665251272e+02 
5 1 -1.584880402056e+03  -6.140878832325e+02   1.899634653098e+03 
6 1 -7.206732211277e+02   8.956356807297e+02  -9.164175195267e+02 
7 1 -4.613717602901e+02  -2.419683112140e+02   1.684174152908e+02 
8 1 -1.820840530233e+02  -1.098567683689e+03  -1.649998142556e+03 
8
Step 300
1 1  3.514991288524e+02   4.972770800598e+02  -1.702152923334e+02 
2 1 -5.284381396717e+02   1.268681110798e+03  -5.428105878670e+02 
3 1  2.603605190790e+02   7.301600909208e+02   1.449787694223e+01 
4 1  3.428367932335e+01   1.001881999897e+03   8.431506102764e+02 
5 1 -1.261525989551e+03  -1.062372169943e+03   1.145932532977e+03 
6 1 -5.364451070630e+02   8.079349563992e+02  -8.912813350284e+02 
7 1 -6.867001020860e+02  -1.458651012827e+02   1.751240224327e+02 
8 1 -4.341802077141e+02  -5.252511372049e+02  -1.574447750660e+03 
8
Step 400
1 1  7.144848602640e+02   4.819730674737e+02  -4.586785664154e+02 
2 1 -4.567063676540e+02   6.095091531592e+02  -3.550332203212e+01 
3 1  4.687188831591e+02   6.776448564287e+02  -7.088254653031e+01 
4 1 -2.295521928726e+02   3.640279971241e+02   4.256119691954e+02 
5 1 -6.380843130734e+02  -7.039016430921e+02   6.095983786689e+02 
6 1 -3.918849708248e+02   5.559828921869e+02  -6.261321799371e+02 
7 1 -3.925626791031e+02  -2.736572878477e+02   3.123530822159e+02 
8 1 -7.719248636963e+02  -3.946989321670e+02  -8.337833902750e+02 
8
Step 500
1 1 -1.293834168822e+02   2.556044454940e+02   1.079035131387e+02 
2 1 -4.148945420242e+02   3.683993063610e+02   4.371712161815e+02 
3 1  4.139516789147e+02   1.322450406910e+02  -3.087864158188e+02 
4 1 -4.477814563693e+01   7.308752175436e+01   7.167098252640e+02 
5 1 -3.680670791110e+02  -7.218198405353e+02   3.678660934842e+02 
6 1 -2.269510086652e+02   3.172347456566e+02  -3.365486946315e+02 
7 1 -8.445215332128e+01   3.523282810040e+02   3.818740847404e+02 
8 1 -6.441351296886e+02   2.128062766119e+02  -5.446698171717e+02 
8
Step 600
1 1  1.919692894896e+02   6.257987153816e+01  -5.349624745399e+02 
2 1 -1.815523072671e+02   1.164313266263e+02   1.215413719236e+02 
3 1  2.780536548037e+02   1.188062205872e+02   8.989649238601e+00 
4 1 -5.134648799471e+01  -1.177474822652e+02   5.383330334133e+02 
5 1 -2.174538553270e+02  -1.042444876346e+02  -8.328555225901e+01 
6 1 -3.102280449278e+02   1.109262841591e+02  -2.759861334560e+01 
7 1  2.246693631002e+02   1.710981979537e+02   3.601884182628e+02 
8 1 -6.604136099190e+02   1.528834489768e+02  -6.448684597246e+02 
8
Step 700
1 1  7.262748408487e+01  -1.529828089252e+02   9.934287651743e+01 
2 1 -1.519251059641e+02   2.265765988641e+02  -2.151974393518e+02 
3 1  1.649247728771e+02  -8.385354238993e+01   4.497901825090e+02 
4 1 -4.668482441617e+01   5.315609165362e+01   6.995316431803e+01 
5 1  1.653450741376e+02  -2.457240427353e+02  -3.378128335654e+01 
6 1 -2.282625774574e+02   2.173376279095e+02   8.580667928444e+01 
7 1  1.963555109034e+02  -3.368435733268e+02  -2.537134785431e+01 
8 1 -2.762466311993e+02   3.706345406553e+02  -1.495304894657e+02 
8
Step 800
1 1  1.958246874743e+02  -1.093174078843e+02   8.166661395140e+00 
2 1  2.542445187997e+02  -3.689894308830e+01  -1.200875188834e+01 
3 1  1.344779201006e+02   9.969478741306e+01   3.108466116909e+02 
4 1 -2.753630218535e+01  -1.251216501819e+02   1.718181850323e+02 
5 1  1.126531509648e+02  -2.854054759968e+00  -1.298118841918e+01 
6 1  1.015899613161e+02  -2.154892656951e+01   3.438819162381e+02 
7 1  3.218267689565e+02   2.792239174145e+01   8.926854055098e+01 
8 1 -3.099233682000e+02   1.300778784680e+02  -2.456268036654e+02 
8
Step 900
1 1  1.427566200985e+02  -3.732420212683e+01  -1.329616028289e+02 
2 1 -1.579114206276e+02   6.182812905542e+01  -1.516543354873e+02 
3 1 -3.424742751914e+01   1.589847107305e+02  -1.059875981735e+02 
4 1 -2.794666085433e+02  -1.545825768371e+02   1.597351758510e+02 
5 1  8.942647401119e+01   9.496767800257e+01  -2.640074822607e+02 
6 1  1.577509707403e+02  -2.348998174804e+02   4.607630722452e+02 
7 1  3.218973038884e+02   1.165991288205e+02   1.548008779420e+02 
8 1 -4.206562755642e+02   2.143543011019e+02  -1.384029252767e+02 
8
Step 1000
1 1  3.368587630949e+02  -6.549846093205e+01   5.045955193156e+01 
2 1  9.413385623084e+00   5.941666613145e+00  -4.857706290368e+02 
3 1 -2.216398724972e+02   2.541258344413e+02   9.856277044669e+01 
4 1 -3.293052313551e+02  -2.036348561804e+02   1.230501855746e+02 
5 1  3.535497885696e+01   1.442371105188e+02  -2.889795537027e+02 
6 1 -2.004903160334e+02  -8.358490083354e+01   2.652477809547e+02 
7 1  2.066495015265e+02   1.846211294669e+02  -1.981359118712e+02 
8 1 -1.258253283943e+01   1.110149289697e+02   6.055073305242e+01 
8
Step 1100
1 1  3.258057337007e+02   3.947805588973e+02  -2.757100117786e+02 
2 1 -2.508667258982e+02   1.650220725464e+02  -5.496497784786e+02 
3 1 -4.719968102975e+01  -6.743179982618e+01   2.747401221524e+02 
4 1  3.909153607625e+02   2.346098581397e+02   2.071958689352e+02 
5 1 -2.169914977903e+02  -1.569897470412e+01   1.852187776821e+02 
6 1  2.536027989182e+02  -2.873023506769e+02   1.624144081670e+01 
7 1  1.061948532317e+02   1.160184953311e+02  -2.554854113932e+02 
8 1  3.633810748080e+02  -1.472743244344e+02   2.011960354220e+02 
8
Step 1200
1 1 -9.772634075383e+01  -1.022593956722e+02  -1.887197160824e+02 
2 1  2.960071683506e+01  -1.515745115638e+02   4.828892012395e+01 
3 1  7.224149442214e+00   9.260009623309e+01   2.112709686686e+02 
4 1  2.432285571153e+02   2.732797398018e+02  -1.806303135629e+02 
5 1 -2.778314680655e+02  -3.689848139741e+02   2.765371437704e+02 
6 1  2.605524898283e+02   1.804609168021e+02   6.611424552072e+00 
7 1  1.822455704808e+02   1.209615793514e+01  -3.486879951115e+01 
8 1  4.790578329903e+01   2.059333133559e+02   4.088340915787e+02 
8
Step 1300
1 1 -2.831222320986e+02   3.304155014319e+02   1.976374106425e+02 
2 1 -3.137412515656e+02  -8.692307963205e+01   1.374317018812e+02 
3 1  3.133681882995e+02   2.283755898424e+02   3.121470739021e+01 
4 1  1.006416129508e+02   3.534284899437e+02  -1.533739119802e+02 
5 1 -2.401317383936e+02  -5.733117926737e+01  -1.717014502339e+01 
6 1  3.883300753937e+01   1.345646831761e+02   8.217406715373e+01 
7 1 -1.281305793399e+02   9.966638721012e+01   2.835694970963e+02 
8 1  3.083910111029e+02  -3.913288686280e+01   2.331479041752e+02 
8
Step 1400
1 1 -1.192971327720e+02  -2.945225918197e+01   1.048843939346e+02 
2 1  5.762216664541e+01  -1.968541461328e+02  -6.521686199281e+01 
3 1 -1.904039212834e+02  -1.994355501081e+02  -3.517353274333e+02 
4 1 -6.836161671238e+01   2.934596153405e+02   5.764289466378e+01 
5 1 -2.329834679867e+02  -6.238400717206e+01   1.751467784467e+02 
6 1 -1.271014488541e+02   2.176399413734e+02   2.305992977734e+01 
7 1  2.361424987807e+01  -1.692441750481e+02   2.383233236204e+02 
8 1  2.126051839609e+02   4.128356761613e+02   1.518111876855e+02 
8
Step 1500
1 1 -1.472519628940e+02   9.524956840893e+01  -1.136747222874e+02 
2 1  7.645731614940e+01  -3.943512893899e+02   2.482042251205e+02 
3 1 -1.631244705501e+01  -2.625043047406e+02  -2.001657509582e+02 
4 1 -1.900385879725e+02  -1.387107647839e+02   2.231874622726e+02 
5 1 -2.960661355074e+02   4.609735000388e+02   1.672784193468e+02 
6 1 -1.803484546205e+02  -1.886765989794e+02   9.191140539501e+01 
7 1  3.211775859960e+01  -1.697668567276e+01   2.813907902519e+02 
8 1 -3.489025169214e+02   1.750428529588e+02  -1.470321270560e+02 
8
Step 1600
1 1 -6.120559162203e-01  -2.479768375756e+02  -1.216208147225e+02 
2 1  7.699722093752e+01   3.814431349817e+01   1.108498231250e+02 
3 1 -2.858697299143e+02   5.217002755813e+01  -2.502748079465e+02 
4 1  1.866609693541e+02  -1.166128856728e+02   2.245570802188e+01 
5 1 -2.543183206890e+01   3.463377466077e+02  -1.583432782857e+02 
6 1  1.104407900469e+01  -2.774501512134e+01  -4.114727802290e+01 
7 1  1.163040579554e+02  -1.340341853489e+02   1.292223533872e+02 
8 1 -1.937313130042e+02   1.211222086436e+01   1.424811868745e+02 
8
Step 1700
1 1 -1.530562679125e+01   2.558137509551e+02  -1.088604822877e+02 
2 1  1.639721870908e+02  -1.207290874894e+02  -1.554415167997e+02 
3 1 -4.168360994860e+01  -9.249057249215e+00  -3.688765227550e+01 
4 1  4.005798312097e+02  -6.067226961224e+01  -1.306174568436e+02 
5 1  3.343175131666e+02   3.531016494560e+01  -5.927094595165e-01 
6 1  1.207182696868e+01  -1.019295576013e+00   1.319810666111e+01 
7 1  6.205287484137e+01   3.201389230838e+02   7.467665664129e+00 
8 1 -2.530721804739e+02  -3.712378550837e+02  -8.408947028006e+01 
8
Step 1800
1 1  3.148787515925e+02   2.850740600285e+02  -1.893830248971e+02 
2 1 -2.657305736596e+02  -2.330536257097e+02  -1.240523928498e+02 
3 1  3.447414012667e+01   6.927997521691e+01   2.829299864875e+02 
4 1  6.243754525390e+01  -3.108493603527e+02  -2.092782367854e+02 
5 1  2.345410922151e+02   4.481085759396e+01   9.061871146893e+01 
6 1  1.087078612324e+02  -5.415567101794e+01  -2.187475599278e+02 
7 1 -2.291829009919e+01   1.347346308020e+02   2.120195706122e+02 
8 1  1.002441760930e+02   9.492510560443e+01  -1.347742182853e+02 
8
Step 1900
1 1 -7.160329284638e+01  -7.492936665418e+01  -2.251902693344e+01 
2 1 -1.989021818379e+02   9.835951596833e+01  -4.307179446032e+01 
3 1 -2.730810533132e+01  -7.703994846394e+01   1.087786609677e+01 
4 1  1.831502387287e+01  -1.745358980873e+02   6.559740504468e+01 
5 1  1.328804274768e+02   1.534019220829e+02   1.732447086395e+02 
6 1 -1.571197369627e+02  -4.157209103060e+02  -9.783213638333e+01 
7 1  1.101477960686e-01  -1.550670324011e+02   1.988558200444e+02 
8 1  2.545127731247e+02   8.808648319920e+01  -5.168892175892e+01 
8
Step 2000
1 1  1.167095113249e+02  -1.371576856978e+02  -1.418278788096e+02 
2 1 -2.495001822262e+01  -4.312684186096e+02   2.905457638680e+01 
3 1  1.558120123096e+02  -1.443448398959e+02  -9.208955088943e+01 
4 1 -5.545738124965e+01   1.973646031164e+02   2.598871319888e+02 
5 1  2.069547480249e+02   2.748827249058e+01  -2.519193518603e+02 
6 1  4.427989811975e+01   5.258183911284e+01   4.804082870492e+01 
7 1  1.831348125772e+02  -3.386700449227e+02   3.622393749436e+02 
8 1 -1.895084331726e+02   3.373707291106e+01   5.310244814403e+01 
8
Step 2100
1 1  1.801413031721e+01  -1.221904949750e+02  -1.209982918254e+02 
2 1 -2.320155771651e+01  -3.141801002194e+02   8.997651663547e+01 
3 1 -2.749317373436e+02  -1.905318815717e+02  -2.055022723210e+02 
4 1 -3.503937395561e+02  -5.603979151426e+01   1.551651891217e+02 
5 1  6.024014398940e+02   1.519932469502e+01   1.410788695770e+02 
6 1 -1.641594789042e+02  -2.320439908348e+02   2.319998809099e+01 
7 1 -1.473513911461e+02  -1.485275230169e+02  -1.267716196821e+02 
8 1 -2.395999255696e+02   3.215083282425e+01  -2.370552148586e+02 
8
Step 2200
1 1 -1.415435496874e+02  -1.931215230231e+02   2.234806512708e+02 
2 1 -1.612933930807e+02  -4.076236273950e+02   3.415993721987e+02 
3 1 -1.535898850522e+02   3.540733531349e+00  -1.406533065834e+02 
4 1 -2.179203805276e+02   1.596766043315e+02   3.552369810593e+02 
5 1  5.189342314621e+01  -1.503925493589e+02   2.888887821720e+01 
6 1 -2.126959300531e+02  -1.053276611542e+02   3.202876527710e+01 
7 1 -2.427174257937e+02   2.273320543978e+02  -1.996088019025e+02 
8 1  4.929908464077e+01   1.144405832785e+02   3.193448981714e+02 
8
Step 2300
1 1 -1.003158538258e+02  -1.083563263214e+02   5.515402692550e+02 
2 1 -3.006413704687e+01  -8.541540781593e+01   2.157943694305e+02 
3 1  5.771122965179e+01  -1.076624076520e+02   1.951107607002e+02 
4 1 -1.123137190473e+02   3.404588858601e+02  -7.887483252945e+01 
5 1  2.709897815902e+01  -4.857320794745e+02   2.122149283581e+02 
6 1 -4.682952131254e+01   1.947354061287e+02  -1.195498179742e+02 
7 1 -2.004132839078e+02   4.864943706130e+02  -9.712780153989e+01 
8 1 -1.301577540514e+01   4.436798150942e+01  -2.133111814976e+01 
8
Step 2400
1 1 -8.094583185235e+01   2.423278753436e+02   1.642350328025e+02 
2 1 -1.700888874466e+01   6.728476935763e+01   1.002032544402e+02 
3 1  3.547968774949e+02  -1.633955188739e+02   1.853806049938e+01 
4 1 -2.752843310443e+02   3.407565672833e+01   3.389022682732e+02 
5 1 -3.862226733026e+02  -3.220815804569e+02   5.805787050184e+00 
6 1 -8.536335743519e+01   2.066799847800e+02   2.068999658508e+02 
7 1  6.015300530909e+01   3.636350627307e+02  -3.108467096405e+02 
8 1  1.189442751436e+02   1.421974270584e+02  -3.416883993501e+02 
8
Step 2500
1 1 -3.689493386893e+02   4.673603425931e+01  -1.800523527467e+02 
2 1  1.273298532055e+02   1.375400190749e+02  -5.978116814045e+01 
3 1  3.363474311874e+02   4.066325141462e+02   6.071162461154e+01 
4 1 -6.594516123508e+01   7.682140458368e+00   1.406186107714e+02 
5 1 -2.151921274673e+02   2.276850122255e+01  -1.445448767703e+02 
6 1 -8.708789388037e+01   3.526252265690e+02   2.781285416313e+02 
7 1  2.078496915502e+01  -3.135396977003e+02  -2.327326846082e+00 
8 1  2.562477651887e+02   1.268205954518e+02  -3.204990026379e+02 
8
Step 2600
1 1  2.069371109097e+02   1.814015455241e+02  -2.211171804183e+02 
2 1 -3.382512252075e+01   2.627277853415e+02   5.211391372576e+01 
3 1 -7.659417220652e+01   3.679471720976e+00  -8.000285393965e+01 
4 1  2.851857746629e+01  -7.182137171955e+01  -1.550732388574e+01 
5 1 -3.676531530672e+02  -2.190646824350e+02  -1.271560512453e+02 
6 1 -1.280202606586e+02   2.069404712686e+02   4.212351899683e+02 
7 1 -8.879781418827e+01  -5.185221077787e+02  -1.366405515474e+02 
8 1  2.273523874897e+01   1.911268355967e+02  -2.803431134083e+02 
8
Step 2700
1 1  3.498532746104e+02  -1.006754547583e+02  -1.552384311808e+02 
2 1  1.287613483686e+01   4.643731742632e+02   5.940495058704e+01 
3 1 -2.900144440056e+02   6.748770545463e+01  -3.117969111973e+01 
4 1  6.601183167551e+01   2.146089851124e+02  -2.909437961983e+02 
5 1  5.228406877547e+01  -3.384055738421e-02  -9.518078183998e+01 
6 1 -4.680115122961e+00   2.359354264333e+02   1.806848176007e+02 
7 1 -2.780260610897e+01  -6.780605947303e+02  -1.290147173824e+01 
8 1  5.038893018481e+01   1.636172249580e+01   1.665403839740e+02 
8
Step 2800
1 1  4.255725670387e+02   6.082069150548e+01   1.762347672821e+02 
2 1  2.638895554681e+02  -7.372036868079e+01  -2.857609593048e+02 
3 1 -7.386862619736e+01   5.387125242082e+01   4.050397396927e+01 
4 1  3.925221253799e+01   6.741142828928e+01  -4.699340153901e+01 
5 1  2.076475936977e+02  -2.123951480805e+01  -2.631702821456e+01 
6 1  2.469375829852e+02   2.253009435409e+02  -1.595290784933e+02 
7 1 -2.051638263058e+02  -5.042067462296e+02  -1.311886945634e+02 
8 1  1.757648933939e+02  -8.774778751681e+01   2.392970459325e+02 
8
Step 2900
1 1  2.184122878194e+02  -5.359307614331e+01   6.210328876512e+01 
2 1 -2.297713162087e+01   1.501181626742e+02   2.010906215065e+02 
3 1  1.024572722163e+02  -1.781016505401e+02   6.063720114916e+01 
4 1 -2.187413804735e+01  -2.952250538166e+02   6.918469304549e+01 
5 1  8.879405887093e+01   4.679929051936e+01  -3.931401106914e+01 
6 1 -9.276899591397e+01  -1.811374995940e+02   5.532662791533e+01 
7 1 -4.941972320347e+02   2.378883436768e+00  -2.317795391625e+02 
8 1  2.210382529219e+02  -1.745884900606e+02   1.999585159453e+02 
8
Step 3000
1 1 -6.560026996261e+01  -5.245618502538e+01  -2.811561917428e+00 
2 1  8.737967658000e+01  -6.421003777974e+01  -1.697095390695e+02 
3 1  1.974385767568e+02  -2.458084161443e+02   2.312942499790e+01 
4 1  1.117369227258e+02   1.852778406320e+01   7.602374371220e+01 
5 1  1.381438974468e+02  -1.737414940098e+02   7.095440958683e+01 
6 1 -4.895610636065e+01  -2.798371010941e+01  -7.982674541171e+01 
7 1 -1.032892843885e+02  -2.996957363769e+01   7.372052137344e+01 
8 1 -1.569013672905e+02  -4.979937365806e+02   7.943933112693e+00 
8
Step 3100
1 1 -2.112658885965e+02   3.202546127546e+01  -1.896547822695e+01 
2 1  1.845303640862e+02  -1.773219165185e+02  -3.611360487713e+02 
3 1  7.813045970274e+01  -6.312570205449e+01  -6.112980548349e+00 
4 1 -1.422772787777e+02   3.415471933201e+01  -1.076847713353e+02 
5 1 -4.677555769786e+01   1.483677577869e+02   5.176945860511e+01 
6 1  6.208022703283e+01  -7.148723689727e+01   1.822439615647e+02 
7 1  8.734412253991e+01   2.922336688230e+02  -5.133078686432e+00 
8 1 -8.353027277470e+01  -1.453675599151e+02  -2.497025976055e+02 
8
Step 3200
1 1 -1.853125404001e+02   1.189001273121e+02   2.683802561487e+01 
2 1  3.376408414413e+01   1.155597965900e+01  -5.502172719145e+01 
3 1  5.369955105127e+02   4.202599489487e+01   1.077004411932e+02 
4 1  2.520295821606e+02   2.352985536430e+02  -9.755230263332e+01 
5 1 -1.872865676796e+02  -1.257950680469e+02  -2.559081207981e+00 
6 1  8.416535957112e+01  -7.114285762813e+01  -2.864581658174e+02 
7 1  2.972252277142e+02   3.061120632323e+02   1.302332878698e+02 
8 1 -1.031028494652e+02  -7.443399364849e+01   9.046834250373e+01 
8
Step 3300
1 1 -6.337897945669e+01  -1.468801792715e+02  -1.829227428724e+02 
2 1 -1.539579320850e+02   1.259214386202e+02   2.919737798347e+02 
3 1  1.142837984651e+02   1.464120932692e+02   3.658289548556e+02 
4 1 -2.789018380740e+02  -2.902706097532e+02   1.315564699015e+02 
5 1 -6.338490054447e+01  -3.991531753751e+02   1.401225397220e+02 
6 1 -1.247643147059e+02  -3.437585170603e+02  -2.777597995789e+02 
7 1  4.445678987614e+02   2.045003105242e+02  -1.815662250221e+02 
8 1 -5.881933596501e+02   8.784145631885e+01   1.690361603203e+02 
8
Step 3400
1 1 -5.256697036326e+01  -2.863847034743e+02   2.436579567718e+02 
2 1  1.181560517410e+02   2.305946304615e+02   2.693252990682e+02 
3 1  1.144941533045e+02   2.661010801975e+02  -6.056418094608e+01 
4 1 -9.419909107534e+01  -5.507222317144e+02   2.224980386984e+02 
5 1  7.719327152668e+00  -4.409750441424e+01   3.693393163229e+02 
6 1 -1.317297694827e+01  -2.069511162890e+02  -7.680565002640e+01 
7 1 -2.671686402486e+02  -2.190426283571e+02  -1.617203172264e+02 
8 1 -1.703515827491e+02   2.395574423876e+02  -7.949498401687e+00 
8
Step 3500
1 1  2.109999356635e+02  -2.081967715736e+02   1.845872255968e+02 
2 1  2.709405405109e+01  -1.561391723349e+02   2.990112838242e+02 
3 1 -3.001195748143e+02   9.700279884315e+01  -1.143988320306e+02 
4 1 -1.556490144868e+01  -4.667348161125e+02   2.190932541809e+02 
5 1  4.105676433241e+02  -1.700983668953e+02   3.872251713194e+02 
6 1  1.957084262026e+02  -4.803039112772e+01  -9.714491730735e+01 
7 1 -3.689687982680e+02  -1.367508368317e+02  -3.177890159770e+02 
8 1 -8.308891176128e+01   2.146004071324e+02   1.115136661056e+02 
8
Step 3600
1 1  2.634897069840e+02  -2.241726036161e+01   3.755357095629e+01 
2 1 -2.854859708895e+02   1.638227811359e+02  -5.556679711391e+01 
3 1  2.590567210129e+02   6.377834356138e+00  -4.986639213354e+01 
4 1 -2.321439225272e+01   1.792828197117e+02   4.487044950827e+02 
5 1  1.490962082949e+01  -2.346045187747e+02   4.420778602445e+01 
6 1  1.827161914523e+01   3.066631719430e+02   1.823407409870e+02 
7 1 -1.009421375468e+02   1.126250038153e+02   2.932971824420e+02 
8 1  2.736389156561e+02   3.580741127595e+01   2.351665110620e+02 
8
Step 3700
1 1 -2.370525809344e+02   3.545503206260e+02  -1.245465041830e+02 
2 1  1.150849025746e+02   1.354965654361e+02  -7.168650825849e+01 
3 1  4.242592569474e+01  -9.616263758772e+01  -5.186376232612e+01 
4 1  1.490423534033e+02   8.198888123939e+01  -1.520459431853e+01 
5 1  4.180313805560e+01   2.167520045559e+02  -9.784262428392e+01 
6 1  4.724833710915e+01  -4.481121402807e+01   8.944534010759e+01 
7 1  1.752992785066e+02   9.558501520047e+00   7.869645121172e+01 
8 1  1.346543296685e+02  -2.579012286911e+01   3.126345174824e+02 
8
Step 3800
1 1 -2.194376122144e+02  -1.667778318261e+01   6.679876324584e+01 
2 1 -1.469379828956e+02   2.686800936785e+02   1.463314364845e+02 
3 1  3.690273095633e+01  -6.608791386117e+01   1.980581828626e+02 
4 1  3.281591601784e+00   1.066310661044e+02  -2.416553128727e+02 
5 1  2.677318582421e+01   1.279336270781e+02  -1.098077270351e+02 
6 1 -6.380045751924e+01  -3.895549250270e+02  -1.859049238296e+02 
7 1  1.950717071209e+02   1.552769406539e+02   3.000331571001e+02 
8 1  9.620917454806e+01   3.915278021825e+02   5.553411233201e+01 
8
Step 3900
1 1 -6.490245754197e+01  -9.900594562618e+00  -1.673758986324e+02 
2 1  8.728726838302e+01   4.974705163157e+01  -1.077277655309e+02 
3 1  3.726991480425e+00   1.523133193404e+02  -8.345138829473e+01 
4 1 -2.851021828287e+02   5.399702827230e+01  -4.133626204350e+02 
5 1 -2.161691006385e+01   9.670475493351e+01  -3.659613058323e+02 
6 1  4.497878444675e+01   1.880391372348e+02   8.974456738762e+01 
7 1  6.286186852233e+01   5.906814448011e+01   1.213564492314e+02 
8 1  1.864446619731e+02   3.589401874217e+01  -2.847875796921e+02 
8
Step 4000
1 1  1.084512647518e+02   1.815461953879e+02  -1.492315423284e+02 
2 1  6.028483152789e+01  -2.538980206301e+02  -2.085280693983e+02 
3 1 -1.371820348496e+02   3.564828107974e+01  -3.290766332824e+01 
4 1 -1.784333135994e+02   1.283099071965e+02  -8.935295361513e+01 
5 1 -2.655790395753e+02   2.811057778720e+02  -1.410706060017e+02 
6 1  2.200810117805e+02   1.904100435752e+02  -4.789917888629e+01 
7 1  2.029250600212e+02   2.122123835281e+02  -2.246786735118e+01 
8 1  2.538335598241e+02  -5.577024504407e+02  -5.982082428730e+00 
8
Step 4100
1 1  3.626823238985e+01  -1.624675860808e+02  -8.680406245283e+01 
2 1  7.555330118647e+01   1.401583102953e+01  -5.451088612205e+01 
3 1 -2.342790715317e+02  -2.029948834227e+02  -1.874276813817e+01 
4 1  5.248376352491e+01   7.981499417648e+01   1.682144638306e+02 
5 1 -9.444075706877e+01   8.707635166359e+01  -9.154457697096e+01 
6 1 -1.089193972079e+02  -1.065197535859e+02  -5.014884355342e+01 
7 1  1.003400384221e+02   3.129549435919e+02  -2.312124377406e+02 
8 1 -7.985447703767e+01  -3.975925100344e+02  -7.447818701049e+01 
8
Step 4200
1 1 -1.947305669542e+02  -1.462160558727e+02  -1.508629247967e+02 
2 1  1.228666105541e+02  -1.100423686060e+02   2.145889002263e+02 
3 1 -3.137593433160e+02   2.740963316277e+02   5.269592390901e+01 
4 1  3.294159584117e+02  -2.132189236780e+02   2.633109357077e+02 
5 1 -8.615682117653e+01  -2.083374549472e+02  -1.194876789816e+02 
6 1  1.176775099529e+02   6.623164167221e+01  -1.650224117722e+02 
7 1 -7.953805174370e+01  -1.700118060532e+02  -2.722351934785e+02 
8 1 -3.208764114341e+02   1.770452163533e+02  -2.187634958151e+02 
8
Step 4300
1 1 -1.910490599740e+02  -8.355391170943e+01   1.556601110434e+02 
2 1  1.529261850462e+02   9.405978773372e+01   7.338187869297e+01 
3 1 -8.298114601777e+01   3.358583939632e+01   9.767747249587e+01 
4 1  1.246573025620e+02   1.052795239150e+02  -3.867563517852e+02 
5 1 -1.315390628732e+02  -1.169377806250e+02  -7.617701571928e+01 
6 1  9.817421156464e+01  -1.417375326358e+02  -3.113511955904e+02 
7 1  2.702365170671e+02  -2.730008033042e+02   7.078877429009e+01 
8 1 -1.092236350739e+02   3.483933015522e+02  -6.438111804733e+01 
8
Step 4400
1 1  1.235245276403e+02  -3.412489461767e+01   2.456012981502e+02 
2 1 -1.244963191080e+02  -1.528531838728e+02  -9.354844567864e+01 
3 1 -1.763262526954e+02   4.213761284412e+01  -1.018097977317e+02 
4 1 -1.851227447984e+01  -1.015571136585e+02  -3.613745247575e+02 
5 1 -1.841460411317e+02   1.436491330843e+02  -2.393158801295e+02 
6 1  5.484664794146e+01   1.487139044266e+02  -1.207911026198e+02 
7 1  1.769370177108e+02   1.287509386426e+02   2.646286234188e+02 
8 1 -1.045567006926e+02   3.468175266033e+02  -1.670978143707e+02 
8
Step 4500
1 1  3.570582571195e+02   3.740409120418e+01   1.181646035476e+02 
2 1 -1.715236386980e+01   1.208259425100e+02  -5.882804837462e+01 
3 1 -2.134962833469e+02   5.762340003900e+01  -1.996014306725e+02 
4 1  8.659402326893e+01   1.311076533917e+02  -8.817350900361e+01 
5 1  1.575043803112e+02   1.924672970958e+01  -2.023330437957e+02 
6 1 -1.873308275730e+02   6.704517313073e+01   1.248133812988e+02 
7 1 -6.069100805984e+01   5.620146646079e+01   2.662705126028e+02 
8 1 -1.674938482276e+02  -1.729933137861e+00  -4.542250995976e+01 
8
Step 4600
1 1  2.034711277152e+02  -6.040735315884e+01   1.643200110495e+02 
2 1  3.048605545533e+01   1.311270673235e+02  -2.429323925278e+01 
3 1  2.198734825448e+02  -8.248522132813e+01  -1.169820590707e+02 
4 1 -1.631977792742e+02  -7.537483411687e+01   5.398943752784e+02 
5 1  1.485238970288e+02   5.304603082336e+01   7.486523991983e+01 
6 1 -5.514933795691e+01  -2.863221079950e+02  -5.827052437399e+01 
7 1 -1.153845664351e+02  -2.671546042245e+01   3.885449142204e+02 
8 1 -1.886878879373e+02  -2.116272130145e+02   1.629786859494e+01 
8
Step 4700
1 1 -5.174994420761e+01  -1.858562325231e+02  -1.302790367917e+02 
2 1  1.202464075962e+02  -2.712707579717e+02   1.039710404838e+02 
3 1 -9.839506679222e+01  -6.301893945253e+01   6.735328408716e+01 
4 1 -2.119477837796e+02  -1.230436144858e+02   2.197339059599e+02 
5 1  3.136777836355e+02   1.150871552701e+02   2.406126186155e+02 
6 1 -3.607005639114e+02  -2.951585776513e+02  -2.054849059538e+02 
7 1  1.548293066368e+02  -2.022268321672e+02   1.626502731006e+01 
8 1  1.374803626366e+02  -2.378164876418e+01  -4.306066988033e+01 
8
Step 4800
1 1 -4.435613515824e+02  -1.994411620849e+02  -2.741478456131e+02 
2 1  5.626821423269e+01  -2.842564723697e+02   1.096469455235e+02 
3 1 -1.931568391942e+01   1.672889408992e+02   1.844796534968e+02 
4 1 -2.708720241209e+02  -8.257531217668e+01  -5.484591138578e+00 
5 1  2.280291665730e+02   1.752055405229e+00  -5.381471871661e+01 
6 1  1.768878836715e+01   2.815322678857e+01   7.965135836334e+01 
7 1 -5.923644299263e+01   1.764608632476e+02  -8.182046288189e+01 
8 1  2.331650021058e+02  -2.540236126731e+02   1.668797022000e+02 
8
Step 4900
1 1 -4.373187057640e+01   2.288044426319e+02  -1.430556564368e+02 
2 1 -1.266247023802e+02  -1.106326262130e+02  -1.284531579883e+02 
3 1 -1.828466969475e+02   1.137438190370e+02  -7.576263988070e+01 
4 1 -3.033131189145e+02   2.449511565069e+02  -1.077215874744e+01 
5 1  5.928117400795e+01  -7.072959074429e+01  -2.304580018296e+02 
6 1 -3.007053249899e+02  -3.003230884896e+01   1.622171865904e+02 
7 1 -7.866834378470e+01  -2.260982345637e+02  -2.280124823530e+02 
8 1 -1.602905970482e+02  -2.413858008394e+02   1.458577912011e+02 
8
Step 5000
1 1  3.599250121501e+02   8.788271804751e+01   4.254230894618e+00 
2 1 -1.397483357299e+02  -2.069717366216e+02  -2.645420928018e+02 
3 1 -1.119888821497e+02  -4.287867485634e+02   6.222282267430e+01 
4 1 -3.786088428366e+02  -1.122807992867e+01   2.815006478296e+01 
5 1  6.864472686994e+01  -1.163714563391e+02   5.850294249218e+01 
6 1  2.004650309054e+02  -9.246230607811e+01  -2.222810516836e+02 
7 1  1.269317045735e+02  -1.259120063827e+02  -1.955248982586e+02 
8 1 -8.949081448806e+01  -2.574615873658e+02  -3.002386656610e+02 
8
Step 5100
1 1 -1.475563765024e+00   1.100971544769e+02  -7.502212202429e+01 
2 1 -1.959019040944e+02   5.164188839734e+02  -3.283657347039e+02 
3 1  3.140271813602e+02  -2.348038940982e+02  -1.494033204188e+02 
4 1  2.042695869082e+02  -1.629605009234e+02  -1.522021578646e+02 
5 1  3.041353029257e+01  -1.102158488498e+02   5.559663075428e+02 
6 1  3.521675090284e+02   1.377187501371e+02  -2.599396459305e+02 
7 1 -1.935962717007e+02  -9.402942534629e+01  -2.108004824280e+02 
8 1  2.622516335841e+02   9.389113545709e+01  -1.485819962076e+02 
8
Step 5200
1 1 -3.128825986365e+01  -2.824812460793e+02   6.644030836711e+01 
2 1  4.156561982195e+01   4.280659479811e+02  -7.801962222787e+01 
3 1  1.061090811254e+02  -2.578167581958e+02  -5.334937017595e+01 
4 1 -1.462157669856e+01   5.511457556403e+01  -6.738305413432e+01 
5 1 -2.495392368752e+01  -3.892102163822e+01   4.693292924716e+02 
6 1  1.164989221745e+02  -1.583304002152e+02   2.123110328462e+02 
7 1  1.628730295724e+02  -5.048389000509e-01  -1.004109392703e+02 
8 1  5.972791655984e+02  -2.040791270063e+02  -2.998701936146e+01 
8
Step 5300
1 1 -1.465970341039e+02   1.026058477693e+01  -4.667207072754e+01 
2 1 -3.058004980636e+02  -3.490376433391e+00  -1.474861932883e+01 
3 1  1.881217065331e+02   4.030456955686e+01  -1.729532434656e+02 
4 1  6.537019253177e+01  -1.756960714499e+02   1.077549139382e+02 
5 1 -1.095090648890e+02  -1.066996428932e+02   2.420827848678e-01 
6 1  2.836807426484e+02  -3.121931303885e+02   3.653260230932e+02 
7 1  9.047257988522e+01   9.865083381768e+01   1.851207267452e+02 
8 1 -6.613916737567e+01  -7.610741006202e-01   2.503718604626e+02 
8
Step 5400
1 1  2.181145847757e+02   4.209544708929e+01  -1.755614434008e+02 
2 1 -1.305868052842e+02  -1.082416260026e+01   1.106778261651e+02 
3 1  1.252460079475e+02  -7.621685061301e+01  -1.447949290406e+02 
4 1  2.519500324905e+02  -1.269648499261e+02  -3.463251194199e+02 
5 1 -2.276273003393e+02   2.054660810889e+02   8.978567384796e+01 
6 1 -1.936785399636e+02  -1.165003233153e+01   4.348613609379e+02 