8
Step 0
1 1 -4.872402067491e+02   1.022329775580e+02  -6.511940162307e+01 
2 1  3.947778191965e+02   3.240863977360e+02   5.667007810692e+01 
3 1  1.246688539527e+02   2.024226413577e+02   2.842836378722e+01 
4 1 -1.605152580277e+02   1.147449819103e+02   3.060311234281e+02 
5 1 -9.865356234022e+01  -3.299895891490e+02   1.855706873456e+02 
6 1  5.423428254614e+02   1.184374769271e+02   2.408414459882e+02 
7 1 -5.405009455555e+02  -2.194770248062e+02  -2.124412534573e+02 
8 1  2.012519992503e+02  -2.695011016607e+02  -3.983837866364e+02 
8
Step 100
1 1  1.895934499848e+03  -9.331386193068e+02  -2.868665331405e+03 
2 1  1.459320249257e+03  -4.339076010600e+03   1.107530067435e+01 
3 1  2.295882680440e+03  -1.183097844298e+03  -1.529356000768e+03 
4 1 -1.519854245782e+03  -3.352133444525e+03   5.869026769057e+02 
5 1  1.326946284390e+03  -2.824558893088e+02  -1.924381462854e+03 
6 1 -4.324688775909e+02  -2.255270377971e+03   2.077518858591e+03 
7 1  5.485502346466e+02  -1.904881844501e+02   1.073342615177e+03 
8 1  1.431548407769e+02   1.795852991072e+03  -1.687276793340e+03 
8
Step 200
1 1  1.023165089990e+03   3.677078201684e+02  -1.775346406251e+03 
2 1  5.405723901480e+02  -2.425348353311e+03   5.610758851549e+02 
3 1  2.055174287662e+03  -2.091682840037e+02  -1.390276048726e+03 
4 1 -1.648528780759e+03  -1.614860801411e+03   1.553998371242e+03 
5 1  2.110764503248e+02  -7.348146013622e+02  -1.460759630601e+03 
6 1 -1.545279778251e+03  -1.826994211512e+03   7.636310507782e+02 
7 1 -1.576744861293e+02  -9.025837693984e+02   8.587387908741e+02 
8 1 -3.435725605670e+02   1.256243662090e+03  -2.176124936928e+03 
8
Step 300
1 1 -4.849193659028e+02   7.526521732045e+02  -8.016988586093e+02 
2 1 -4.172666926180e+02  -4.600451168954e+00   3.351461832383e+02 
3 1  6.269895085272e+02   8.637609633972e+02  -2.345538043054e+02 
4 1 -7.943567691301e+02  -1.167340630770e+02   1.184606234683e+03 
5 1 -1.035136385948e+03  -5.155973244285e+02  -7.791635576109e+01 
6 1 -1.915828898568e+03  -4.496840679315e+02  -6.039468297288e+02 
7 1 -9.965362852003e+02  -7.357543500873e+02   1.158617328347e+03 
8 1 -8.347827426110e+02   6.311405694035e+02  -1.826279561800e+03 
8
Step 400
1 1 -5.173958820732e+02   4.180094764075e+02   2.383179618316e+02 
2 1 -8.047393079621e+02   7.004905900720e+02   4.324393583513e+01 
3 1  1.923823583470e+02   8.053535633779e+02  -3.471645546325e+02 
4 1 -2.774263626004e+02   6.415189423770e+02   8.786061840334e+02 
5 1 -7.568336144335e+02  -7.086548728613e+02  -1.837595390028e+02 
6 1 -1.411968134034e+03   1.101005847838e+02  -5.080169352669e+02 
7 1 -1.324798406347e+02  -4.564348112136e+02   6.930375686804e+02 
8 1 -1.121412000393e+03   5.686636930216e+02  -4.502846422673e+02 
8
Step 500
1 1  4.066713529833e+01  -1.157773084650e+02   3.928621457051e+02 
2 1 -4.547744518092e+02   2.983887981341e+02   6.132811947174e+02 
3 1  3.550283194705e+02   5.413553286984e+01   1.294434176021e+02 
4 1 -1.850572498326e+02   1.396997565336e+02   4.471550063141e+02 
5 1 -5.858360940217e+01  -5.794210053545e+02   1.451208889463e+02 
6 1  2.069744264301e+01   3.374136454453e+02  -1.001294644629e+02 
7 1  2.220143101668e+02  -4.320951737222e+01   6.234029866180e+02 
8 1 -1.000710532487e+03   4.282590725526e+02  -7.710681358312e+01 
8
Step 600
1 1  2.311421706201e+02   5.008627589332e+01  -5.520875993390e+02 
2 1  1.274711464118e+02   2.841930486358e+02   3.003194323465e+02 
3 1  2.066946869697e+02  -1.349862572615e+02   4.460676629170e+02 
4 1 -1.667128672576e+02  -6.125742285474e+01   1.595381988823e+02 
5 1 -1.258073278952e+02  -5.141886166717e+02  -4.092473604226e+02 
6 1 -3.013828068345e+02  -4.476464431128e+01   5.874832610238e+01 
7 1 -5.716973537998e+01  -4.490855395834e+01   4.332055400505e+02 
8 1 -5.816451692324e+02   1.643830805486e+02   6.438705009714e+01 
8
Step 700
1 1 -4.086497521374e+02  -3.506351511834e+02  -3.630213798443e+02 
2 1  3.771624012571e+01   1.552976550814e+02   2.979468982271e+01 
3 1  2.398259792084e+02   4.571565804512e+02   2.703626183799e+02 
4 1  5.990692588346e+02   7.490817280526e+00   2.414366226863e+02 
5 1  4.178003524137e+02  -6.922801419874e+01  -3.682719900192e+02 
6 1  5.706187968352e+02  -2.131105270144e+02   2.324903949654e+02 
7 1  7.172097242414e+01   1.041704358097e+01  -5.781001548541e+02 
8 1 -3.923408616879e+01  -2.379962152092e+01  -3.723012137996e+01 
8
Step 800
1 1 -2.360869558267e+01  -3.838530234801e+02  -2.350430430897e+02 
2 1  1.235545729008e+02  -4.387279389153e+01   6.473305536483e+01 
3 1 -2.942582695835e+01  -3.121251342268e+01   2.719158382144e+02 
4 1  1.199823092300e+02   2.388676154391e+02   2.905035768279e+02 
5 1  4.910749313561e+01   9.973187519473e+01   1.595062684355e+02 
6 1  3.381949853541e+02   1.812888757071e+02  -5.279294017673e+01 
7 1 -2.651801342118e+02   2.469098546499e+02  -4.071427785682e+02 
8 1 -4.049195231163e+02  -9.678875108298e+01  -2.745219552353e+02 
8
Step 900
1 1  2.359865334714e+02   3.977471205292e+02   1.768970892700e+02 
2 1 -2.120328065518e+01   2.419305285045e+02  -1.372753036974e+02 
3 1 -2.239124458599e+02  -2.568712147604e+02  -3.627972817611e+01 
4 1  2.503161734585e+02  -2.066203167781e+02  -7.816639236847e+01 
5 1 -5.870478338974e+01   6.341285991718e+00  -1.680945483719e+01 
6 1  5.559868555324e+02   7.955956038290e+01   2.285923519057e+01 
7 1 -1.051864680069e+01   2.334086912007e+02   2.342766213432e+01 
8 1 -5.095054969829e+02   2.184530943039e+02  -3.462237903040e+02 
8
Step 1000
1 1  7.160149730605e+02  -3.106501420392e+02   1.256316382547e+02 
2 1  2.922327578530e+01  -3.841411405783e+01  -3.705344221962e+01 
3 1 -1.929591853583e+02  -3.308114069317e+02  -2.024417388740e+02 
4 1  5.700327278421e+01   1.476965703917e+02  -4.613157843950e+01 
5 1 -4.989849880671e+02  -3.092899275216e+02  -3.465778220994e+02 
6 1  5.650714559548e+02   2.127620430397e+02  -1.709093414751e+02 
7 1  3.174289493083e+02   7.874613848117e+01   6.965796993842e+01 
8 1  2.460033989627e+02   2.485365371151e+01   1.001415305824e+02 
8
Step 1100
1 1  8.506428887545e+01   3.082806593242e+02  -4.862869912244e+02 
2 1 -4.355426607311e+02   1.989338435324e+02  -1.965279321390e+02 
3 1  1.787313461593e+02  -2.191879826504e+01   1.117081676746e+02 
4 1  1.518195984494e+02  -8.510796024881e+00   3.534272801927e+02 
5 1 -3.113735648262e+02   4.643773638897e+01   7.009991153013e+02 
6 1  9.857544392538e+01  -1.343565193625e+02  -3.150707944137e+02 
7 1  3.893598887300e+02   1.774545395480e+02  -1.190226441981e+02 
8 1  3.297652388395e+02   2.474593821904e+02   6.493924324844e+01 
8
Step 1200
1 1 -2.514142835086e+02   1.521135374019e+02  -2.113532817209e+02 
2 1 -1.402065270102e+02   6.661480379497e+01   2.125350601628e+02 
3 1  2.628411991751e+02   1.714962281207e+02  -9.139152255816e+00 
4 1  1.054711840877e+02  -1.460350733188e+02   1.336792486322e+02 
5 1 -2.576503358841e+02  -6.455559196652e+02   3.675741296512e+02 
6 1 -3.689618900907e+02   5.481951080813e+01   1.586667954664e+02 
7 1  3.688194244283e+02  -3.814164645522e+02   9.425795452322e+01 
8 1  9.536413498156e+01  -4.357762534836e+01   4.077424888743e+02 
8
Step 1300
1 1 -3.729323284664e+01   2.017076645737e+02   4.138759604243e+02 
2 1  8.581599796183e+00  -1.016333383820e+02  -1.554164862473e+02 
3 1  8.372831465297e+01   2.926897473737e+02   8.979127765789e+01 
4 1 -4.096727264631e+02   2.225480395788e+02   4.466499481076e+01 
5 1  7.775933018465e+02   1.904709278717e+02   7.123458505534e+01 
6 1 -1.764469566096e+02  -2.776992993753e+02   2.903230465936e+02 
7 1 -1.712943966897e+02  -3.371441768504e+01   3.625963948038e+02 
8 1  3.592965680351e+02   1.486915713613e+01   2.309388675469e+02 
8
Step 1400
1 1 -3.044973183733e+02  -3.549231632731e+02   1.054629851209e+02 
2 1 -1.091177099903e+02  -2.370760593365e+02  -1.229164996960e+02 
3 1 -3.660993480285e+02   7.331733563140e+01  -2.510033727930e+02 
4 1 -4.207820499080e+02   2.901173164627e+02  -2.423854784818e+02 
5 1  3.107019078328e+02   2.814901287420e+02   3.296352889473e+02 
6 1 -6.617564162946e+01   1.706878550614e+02  -6.481745035544e+02 
7 1  2.038433190511e+02  -6.371040241213e-01   4.420312878112e+02 
8 1 -5.794304507007e+01  -3.677624995322e+01   4.537875836525e+00 
8
Step 1500
1 1 -3.660545398087e+01  -1.985774554388e+02   1.832960709135e+02 
2 1 -3.769932675881e+02  -1.711890595006e+02   1.829593382645e+01 
3 1 -5.184081973778e+02  -3.600207900062e+02  -3.711682139480e-01 
4 1  2.333223338541e+02  -1.777852589280e+02   5.960525676564e+01 
5 1 -5.228454396030e+02   5.799297947893e+02  -2.736977765877e+02 
6 1 -1.358518214469e+02  -4.866579563349e+02  -2.677197201347e+02 
7 1 -6.708390610974e+00  -3.369214843891e+02   3.020118058395e+02 
8 1 -4.056467461534e+02   2.577491183974e+02  -1.664219904235e+01 
8
Step 1600
1 1 -4.304482030258e+01  -2.306058819956e+02   2.151603999171e+02 
2 1 -3.615135222021e+01  -4.654483565423e+02   6.774260612204e+01 
3 1  2.456469302834e+02  -2.671173203497e+02   1.905173271635e+02 
4 1  4.029180431852e+02   8.594288769000e+01   1.599943151986e+02 
5 1 -4.442175093652e+02  -7.541174523850e+00  -2.685143445116e+02 
6 1 -3.401540955596e+02  -1.238731443589e+02  -9.788175908473e+01 
7 1  8.516169803713e+00  -3.434793321069e+02  -2.177636575546e+02 
8 1 -3.865829069009e+02   8.419117620234e+01  -1.179329259493e+02 
8
Step 1700
1 1  4.675038624151e+02   3.028859383337e+02  -3.676636287990e+02 
2 1  5.988776180821e+02  -4.653923938342e+02  -2.052213810288e+02 
3 1  2.376749218811e+02  -4.795301267707e+02   7.491836381602e+01 
4 1  3.090979415271e+02   1.184013697794e+02  -1.987448271691e+02 
5 1  8.823081213651e+01  -2.749849841834e+02   2.116655386246e+02 
6 1  1.101309648384e+02  -4.182147057451e+02   4.984064169468e+02 
7 1 -1.409649464247e+02   1.431607428199e+02   3.161024133845e+01 
8 1  2.340153044317e+02  -2.618887378163e+02  -7.762973230304e+01 
8
Step 1800
1 1 -8.598778192567e+01   1.589837574870e+02  -2.630599130304e+02 
2 1 -2.222910891605e+01  -3.277314118439e+02  -3.654774403700e+02 
3 1 -2.084423856536e+02   1.900617320957e+02  -2.860896927776e+02 
4 1  4.201494436224e+02  -6.609255582215e+01  -1.497421701065e+02 
5 1  4.151560211159e+02  -3.960221455086e+02   1.052248234484e+02 
6 1  1.366041145101e+02   2.206692137018e+02  -6.453954611368e+01 
7 1 -6.179619809478e+02   6.820599426379e+02  -1.971784344851e+02 
8 1  1.247859741016e+02   3.427593143691e+02  -1.241824502159e+02 
8
Step 1900
1 1 -5.363453914862e+02   3.059994548458e+02  -6.963807920636e+01 
2 1 -3.679781806698e+02  -2.978078140764e+02   2.994678979971e+02 
3 1 -2.466927986731e+02   1.921635375533e+02   2.172897704627e+02 
4 1 -1.649064873333e+02   4.622036082007e+01  -5.918332680961e+02 
5 1  3.347353602030e+02   1.994851895522e+02   1.667022302345e+02 
6 1  1.301310006495e+02   1.189499496154e+02   4.936526178779e+01 
7 1  8.377464566265e+01  -1.419020644520e+02  -2.158089231594e+02 
8 1  3.241120203824e+02   2.506211111290e+02   3.934797356689e+01 
8
Step 2000
1 1 -2.467517854943e+02  -3.716183630272e+00  -1.111215494210e+02 
2 1 -1.050253368395e+02   1.365017634962e+02   5.131937487452e+02 
3 1 -1.682360801018e+02   4.434709578008e+02   2.390058764809e+01 
4 1  3.767490785020e+01   4.068871446095e+02   1.899923171963e+02 
5 1  1.320072803431e+02  -4.360471217180e+01  -5.276084891815e+02 
6 1  1.490325437922e+02  -1.914853446052e+00  -1.594680929585e+02 
7 1 -6.568026488412e+01  -4.019205470502e+02   1.998422965645e+02 
8 1  7.444664823403e+01   1.653702437453e+01   3.601403218996e+02 
8
Step 2100
1 1  2.234797056839e+02  -1.865007666998e+02   1.802515820006e+02 
2 1  3.448714140069e+02   3.871481863446e+02  -3.549385666606e+02 
3 1 -5.797813256705e+02  -2.341845997288e+02  -5.746489033291e+02 
4 1 -1.010049745911e+02  -7.525882847186e+01   1.890825317125e+02 
5 1  5.106945038314e+02   1.309523198574e+02   3.283598059606e+02 
6 1 -3.571840469359e+01   2.855560325540e+02   1.754936088365e+02 
7 1  3.694446727463e+02   3.764061100083e+01   1.629952686886e+01 
8 1 -1.051564678953e+02   4.977325764836e+02  -4.956432531201e+00 
8
Step 2200
1 1 -9.258848542860e+01  -2.160619694510e+02   3.464463256309e+02 
2 1  1.108552308672e+02  -3.502980690748e+02  -6.226659042144e+02 
3 1  3.156368159142e+02   4.611274999682e+01  -2.824383757892e+02 
4 1 -1.596700957343e+02  -5.572809425167e+01  -2.790674168414e+02 
5 1 -2.323032928679e+02   1.165004363048e+02  -4.994758064884e+01 
6 1 -5.175783189718e+01   3.742612958363e+02   2.009876988850e+02 
7 1  1.409169301776e+02   2.173362266514e+02  -2.502444749011e+02 
8 1 -1.680197395215e+02   1.896076557201e+01   1.945339136843e+01 
8
Step 2300
1 1 -9.866560764170e+01   2.530170548024e+02  -7.325900776414e+01 
2 1 -5.377901587265e+01   8.292044137342e+01  -3.704292112254e+02 
3 1  7.359787148201e+01   6.053744866251e+02  -1.670594971709e+02 
4 1 -4.578745074662e+01  -1.483949883981e+02   4.949333890455e+01 
5 1  1.818150342859e+02  -3.063098838260e+02   2.942997292779e+02 
6 1  1.475218264146e+02   3.153855507068e+02   3.428788797323e+02 
7 1  3.826824651672e+02   9.240522012750e+01  -6.839441926110e+01 
8 1 -3.550369215080e+02  -1.567515127395e+01   8.051252013228e+01 
8
Step 2400
1 1  1.553017211815e+02  -4.887066230629e+00  -3.612377356886e+02 
2 1  1.024152250760e+02  -1.548975123180e+02  -2.063467654844e+01 
3 1  4.675146130088e+01  -2.279566309725e+02   8.444758490857e+01 
4 1  1.011052831696e+02  -6.970127222742e+01   7.374244235608e+02 
5 1 -8.962141287495e+00  -4.837767164790e+02  -2.956539792294e+02 
6 1 -8.732032581026e+01   2.006218574640e+02  -1.265311845971e+02 
7 1 -1.366880801759e+01  -1.980928234387e+02  -2.071434606332e+02 
8 1  7.919987892685e+01  -2.932258987985e+02   1.240934040737e+02 
8
Step 2500
1 1  2.294184020418e+02  -7.954284622148e+01   9.751906110107e+00 
2 1 -6.334168048988e+01  -2.101687294947e+02   4.256494264012e+02 
3 1  4.627945767200e+02  -1.773141695653e+02   6.080104407101e+01 
4 1 -1.598998021331e+02   1.934739119471e+02   4.372001941732e+01 
5 1 -6.120684375636e+01   1.583797508077e+02  -1.648898079011e+01 
6 1 -4.212925907334e+02  -6.845381777810e+01  -2.284512150687e+02 
7 1 -2.901290428029e+02  -1.905315004693e+02  -7.648144767556e+01 
8 1  4.054034311293e+02  -2.227169827980e+02   2.739080066489e+02 
8
Step 2600
1 1 -2.132777338169e+02   1.718345903753e+02   1.261139843962e+02 
2 1  1.999206831792e+02   4.168192028481e+02   6.817346037560e+02 
3 1 -3.239917710033e+02   4.612395175408e+01   2.079375325702e+02 
4 1 -5.997675823161e+02  -8.056474876280e+01  -1.713012597926e+01 
5 1  9.620032475926e+01   8.788880387239e+01   6.146421872163e+01 
6 1  3.547354250532e+01  -7.089778143579e+02  -3.984242842092e+02 
7 1  1.242627247476e+01   2.223903909250e+01  -2.252068107741e+02 
8 1 -7.072991834996e+01  -8.043298163783e+01   1.474369368232e+02 
8
Step 2700
1 1 -2.845429309691e+01  -3.181395102436e+02   4.153176199629e+02 
2 1  2.350822006934e+02   4.853387785291e+02   6.085390867278e+00 
3 1 -3.345224498788e+02   9.535027638715e+01   2.916387021038e+02 
4 1  1.385813300035e+01  -4.395197990325e+00   3.869038502446e+02 
5 1  1.834611525465e+02   1.662970183375e+02  -1.107222083163e+02 
6 1  1.205350267086e+02  -2.873038286230e+02   1.201608524873e+02 
7 1 -1.332981922307e+02   9.554515770358e+01   1.484543860193e+02 
8 1  1.965135328216e+02   2.724768988848e+02  -1.479067729865e+02 
8
Step 2800
1 1  2.544006205188e+02  -1.163620186004e+02   2.118642235628e+02 
2 1  7.991671227368e+00   2.638475294011e+02   1.308365056887e+01 
3 1  4.380411315708e+02   5.280644922196e+01  -3.265995082961e+02 
4 1 -1.523789540132e+02   5.674819895399e+02  -2.878725430680e+02 
5 1  1.461074564664e+02  -4.060233484242e+02   4.845010772508e+00 
6 1 -1.494915079126e+02   3.163569800715e+02   6.971838740278e+01 
7 1 -4.772516699927e+02   7.568267240952e+01   4.114395996483e+02 
8 1  4.077975198791e+01   1.260740167693e+02   9.529207692285e+01 
8
Step 2900
1 1 -2.172819909929e+02  -3.094301438223e+02   1.627611209110e+02 
2 1 -8.554864130883e+01   1.574928625784e+02   4.171667173780e+02 
3 1  2.803232598768e+02  -2.132469590181e+02  -3.915480242969e+02 
4 1 -9.835136306983e+01   2.000064882574e+02  -2.222662357736e+02 
5 1 -1.340100599284e+02  -4.635799072747e+02   2.723366657146e+02 
6 1  4.952634790259e+01   6.389787220213e+01   5.118533453463e+02 
7 1 -1.123265470307e+02  -1.354643715201e+02  -3.994362302960e+01 
8 1 -1.990585634702e+02  -1.921062364803e+02  -1.177632050860e+02 
8
Step 3000
1 1 -8.632917045928e+01   1.126309022624e+02  -1.504225259774e+02 
2 1 -2.921217824675e+02   9.909206445750e+01   2.213117426640e+02 
3 1 -2.839894451709e+02   2.863609550381e+02   1.507836950305e+02 
4 1  2.034355637698e+02  -2.849926132154e+02   1.390961871903e+02 
5 1 -5.970967006370e+01  -2.357780148074e+02  -4.486270649656e+01 
6 1 -2.944111502160e+02   2.367733361734e+02   1.143983578223e+02 
7 1  1.608197659603e+02  -2.228898107021e+02   2.175441924301e+02 
8 1  3.047489897560e+02   5.160250521945e+01   1.547755170477e+02 
8
Step 3100
1 1 -1.248933518427e+02   5.559716343374e+02  -1.357056884261e+02 
2 1 -7.049476730209e+01  -3.504621522061e+02  -2.573008507151e+02 
3 1 -5.802666950081e+01   7.438564076072e+01   4.516421219464e+02 
4 1  4.016316107142e+01   4.396680796446e+01   2.448291735815e+02 
5 1 -2.398706532024e+02   3.871510579280e+02  -3.220645204277e+02 
6 1 -1.602211610378e+02  -1.104609605867e+02   6.000438185856e+01 
7 1 -1.842761678293e+02   3.662818938012e+01   1.774019302507e+02 
8 1 -1.854854227812e+02   3.500991173032e+02  -2.635186967802e+02 
8
Step 3200
1 1  3.170916020251e+02   2.344298074742e+02  -2.468604476421e+02 
2 1 -2.788485749414e+02   7.801775141643e+01   3.546901098755e+01 
3 1  3.164870221266e+02   3.205729545481e+01  -1.526073645304e+02 
4 1  8.725726122562e+02  -1.141246576391e+02  -3.387899035731e+02 
5 1  7.831155907218e+01  -1.330937319017e+01   1.912361156425e+02 
6 1 -2.821733753381e+02   1.577628958388e+01  -2.095282063500e+02 
7 1  1.168465188608e+02   2.518140667978e+02  -9.391605967844e+01 
8 1 -6.184904233497e+02   4.161596973204e+02   4.828265691941e+01 
8
Step 3300
1 1  3.126251975975e+02  -2.280862033267e+02  -4.433635373291e+01 
2 1  9.924856557378e+01  -5.462498367407e+01   1.734342974491e+02 
3 1  1.115936330288e+02  -1.349408188673e+02  -1.680291822701e-01 
4 1 -7.010943409116e+02  -2.762654287569e+02  -1.138254904311e+01 
5 1 -2.888329502103e+02  -3.711375672442e+02   3.734565698889e+02 
6 1  2.083266874225e+02  -3.673972482690e+01  -3.221086624055e+02 
7 1  2.706719838495e+02  -2.515588476656e+01   1.636693581206e+01 
8 1 -3.118679435838e+02   1.440966511501e+02  -1.423228132912e+02 
8
Step 3400
1 1 -2.492749562651e+01   1.124719120921e+02  -2.549780547967e+02 
2 1  1.140396351725e+02   4.302744661115e+02   1.030807446400e+01 
3 1  1.627939462273e+02  -3.757885115762e+01  -1.158781345489e+02 
4 1 -3.670286089828e+00  -6.381131527359e+02   4.124789091097e+01 
5 1  4.187002395517e+01   4.030765453210e+02   1.678284026608e+02 
6 1 -7.399181436903e+01   2.372669813644e+02   4.041016969610e+02 
7 1 -4.155098259070e+02   2.572824382075e+01  -1.801961313491e+02 
8 1  5.909626584425e+02   1.183665744101e+00   1.785076170938e+02 
8
Step 3500
1 1 -1.469408117754e+02   4.994252886675e+01  -2.529775169705e+02 
2 1 -4.171865364579e+01  -2.619765537898e+01  -5.675728137920e+02 
3 1 -4.665141684852e+02  -3.667120857501e+02   1.044437969693e+02 
4 1  3.897499263057e+02  -5.769154255339e+02   1.491707882906e+02 
5 1  5.572632476026e+02   2.808723525918e+02  -3.121148558917e+02 
6 1 -3.267237037339e+02  -2.374239139135e+02   2.613165187576e+02 
7 1 -4.277720147133e+02   1.878383150263e+02  -3.423280844199e+02 
8 1  1.910937089048e+02   3.270454170469e+02   2.557557563401e+01 
8
Step 3600
1 1 -7.751179411946e+01   3.809346176653e+02   1.807284228657e+02 
2 1 -1.861439186924e+02  -1.321828222778e+02  -2.342158942603e+02 
3 1  1.047175987829e+02   2.173564966859e+02   1.711238678029e+02 
4 1 -1.702550979185e+02   1.518956061545e+02   2.800663745116e+02 
5 1  6.741393274812e+02  -1.172688063181e+02   1.161448074324e+02 
6 1  7.822721139850e+02   1.443577576850e+02   6.940487086299e+01 
7 1  3.047614011625e+02   3.931487930138e+02  -5.636222608463e+01 
8 1  2.822837032857e+02   4.642994846510e+01   4.364786389056e+01 
8
Step 3700
1 1 -2.705450636080e+02   4.568545064930e+02  -3.956764033283e+01 
2 1  1.779351727856e+02   4.388844623148e+02  -1.005526881505e+02 
3 1  1.567871506228e+02   3.092669212947e+02  -5.561391636052e+01 
4 1 -3.686345821686e+02  -2.018960380435e+02   5.740772377918e+01 
5 1 -7.442823875565e+01  -1.073703204525e+02   4.028182219129e+02 
6 1  3.240843722322e+02   5.620645129483e+01  -3.840391500633e+02 
7 1  4.758110302630e+02   3.911715528104e+02   5.372292866434e+01 
8 1 -4.060862007138e+02  -3.138920270510e+02   2.652814395994e+02 
8
Step 3800
1 1 -4.319406824745e+02  -2.302997658949e+02   2.768540545962e+02 
2 1  2.208285143584e+02   4.948759591701e+02   1.807074109986e+02 
3 1 -4.616767088921e+01  -2.389397044526e+02   3.942191761127e+01 
4 1 -4.400345836980e+00   3.169829989775e+02  -3.486833713941e+02 
5 1 -8.628998398459e+01  -1.162430036241e+02  -2.361577535044e+02 
6 1 -2.526963128997e+02  -1.347138393439e+02  -3.408411582716e+02 
7 1 -2.860015484051e+02   4.278824523851e+02  -4.749739191704e+02 
8 1 -3.766027398017e+02   1.540901931536e+02  -1.110277085488e+02 
8
Step 3900
1 1  1.010286415694e+02  -6.996674923275e+02   1.739838269108e+02 
2 1  5.162738049139e+02  -4.283070123227e+02   2.619147355830e+01 
3 1 -2.532140113068e+02  -1.502637018606e+02   7.538993361706e+01 
4 1 -5.861152706069e+01   2.035701820824e+02  -5.138045548572e+02 
5 1 -4.204237799567e+02  -1.377021635251e+01  -3.038628538277e+02 
6 1 -4.804862659856e+02  -2.103240602282e+02  -2.082635709667e+02 
7 1 -1.700168867359e+02   1.269072773147e+01  -5.062633128730e+02 
8 1 -1.279198792564e+01   9.716275536147e+01  -2.222564909508e+02 
8
Step 4000
1 1 -2.030291349647e+01  -5.884330769816e+01   4.491806645779e+02 
2 1  2.743318606194e+01  -4.904780774654e+02   1.651277237037e+02 
3 1  1.534186065407e+02   9.951426919982e+01  -1.286265895191e+02 
4 1 -1.576815123974e+02  -3.715435130393e+01  -2.065519211278e+02 
5 1 -6.524113923267e+02   6.908029642151e+02   2.293172954914e+02 
6 1  2.244310847402e+02  -2.561045794475e+02  -4.056777255466e+02 
7 1  4.939651582258e+02  -3.137636647874e+02  -4.832628921006e+02 
8 1  9.085455307705e+01  -3.570950687729e+02   1.771810844625e+02 
8
Step 4100
1 1 -8.682441660704e+01  -1.402914513076e+02  -9.687911612562e+01 
2 1 -5.391977029341e+02  -9.329153289549e+01   1.522406348572e+02 
3 1 -4.785407110501e+01   2.091916157216e+01   1.438546304153e+02 
4 1 -1.273911191989e+02   9.448097762011e+01   3.101277263845e+02 
5 1 -3.516764182665e+01   4.895209496697e+02  -1.580679207543e+02 
6 1  3.761879777374e+02   2.294672442509e+02   4.177749362554e+02 
7 1  1.732596592599e+02  -2.995303796370e+02   1.769561350530e+02 
8 1  2.399745966781e+02  -8.020814063567e+01  -3.344326780170e+02 
8
Step 4200
1 1 -2.412092234837e+00  -2.293485981673e+02   2.190158795756e+02 
2 1 -1.261475465730e+02   4.432529121956e+01   5.949022200253e+01 
3 1 -1.918555358130e+02   1.831481026872e+02   7.792440760423e+01 
4 1  2.409927655511e+02  -6.505622069922e+01   3.008665472740e+02 
5 1  4.275359435429e+02  -2.107010971273e+02  -1.127750909117e+02 
6 1  5.271103139437e+02   2.160276956965e+02   9.316193617376e+01 
7 1 -5.535774393219e+02   7.301044461726e+01   4.346468282816e+02 
8 1 -1.086350616260e+02  -1.398163700805e+02  -4.357835644782e+02 
8
Step 4300
1 1 -2.884898544588e+02  -1.095395535248e+02   2.918022826927e+02 
2 1  1.786368093491e+02   2.050444542104e+02   3.137931902845e+02 
3 1 -1.170911004010e+01   4.534001469255e+02  -5.742574188852e+02 
4 1 -9.675492706912e+01   3.184606195437e+02  -3.198865226794e+01 
5 1  2.570032116421e+01  -1.238968509118e+02  -1.387974213557e+02 
6 1  4.418003564079e+02   4.411972414411e+02  -6.354948515244e+02 
7 1 -5.284236014556e+01  -1.348015824902e+02  -3.510777571692e+01 
8 1 -1.172634317955e+02   8.499118353175e+00   6.856874384647e+01 
8
Step 4400
1 1  3.926194233586e+02  -4.437571065189e+01   6.138163652497e+00 
2 1  3.797689475954e+02  -3.161962287400e+02  -7.641157989248e+01 
3 1 -2.303601335189e+02  -1.869031174497e+02  -2.046759794911e+02 
4 1 -3.720315561590e+01   5.813437829181e+01  -9.135079676974e+01 
5 1  2.431066856439e+02  -2.593037439835e+02  -2.338562884155e+02 
6 1 -5.702777769606e+02   2.894715895187e+02   7.513799892605e+01 
7 1  5.905384256735e+02   3.154265324417e+02   9.508069881157e+01 
8 1  2.838661496554e-01   1.901094834822e+02  -4.141677157445e+01 
8
Step 4500
1 1  3.379085485138e+02  -1.768465622542e+02  -3.478298239221e+02 
2 1  3.632575717924e+01  -1.334658632923e+01  -2.821259446461e+02 
3 1 -1.319067439331e+02  -3.024737631291e+02   1.678313780234e+02 
4 1  1.918865991767e+02   3.696536866027e+02   3.497477790372e+02 
5 1  2.326819536795e+02   6.552398715077e-01   1.289791562409e+02 
6 1 -6.893796799421e+02  -2.828222393754e+02  -1.300333744226e+02 
7 1 -7.093174566739e+01  -1.724519891012e+02   7.297009611129e+01 
8 1  2.212230952127e+02  -2.519458895639e+02   3.113223840099e+02 
8
Step 4600
1 1  4.924406186328e+02   6.660844116227e+01  -4.551850586506e+02 
2 1  4.052728642538e+00  -1.894776133627e+02  -1.869945178606e+02 
3 1  1.675325620773e+02   5.091095379841e+02   2.355658115626e+02 
4 1  2.303499992304e+01  -2.245731451096e+02   2.790456662530e+02 
5 1 -1.462165262906e+02   4.877053367219e+02   3.049925477707e+01 
6 1  1.506251977484e+02  -2.259153913774e+02  -2.054738177190e+02 
7 1 -4.297588885347e+02  -2.310902588553e+02  -2.810545619207e+02 
8 1  1.970958848641e+02  -6.414286924371e+02  -4.180560132800e+01 
8
Step 4700
1 1  1.105020787415e+02   7.394618177247e+01  -4.648144916996e+02 
2 1 -2.903938212500e+02   1.503759349615e+02   2.107838415509e+02 
3 1 -1.881282652414e+02   2.028341005364e+02   1.150666233028e+02 
4 1 -2.526912996953e+02   1.808829969313e+02  -1.579379554667e+02 
5 1  2.409271129008e+02  -5.296093997437e+01   9.852243336129e+01 
6 1 -3.526279247302e+02   3.026788855606e+01   5.084680100364e+02 
7 1 -1.228766567623e+02  -4.635294746152e+02  -1.989674212738e+02 
8 1 -2.124964879568e+02  -2.972085778885e+01  -3.841404613160e+02 
8
Step 4800
1 1 -2.757391417126e+02  -2.035140601658e+02   1.964373599868e+01 
2 1  1.161413195651e+02   1.617264148675e+02   6.491234866820e+02 
3 1  1.437506439290e+01   1.356974214943e+02  -2.527664019125e+02 
4 1  8.014810106950e+01   3.709265371234e+02   1.272605908043e+01 
5 1  4.197923433297e+01  -3.816215772057e+01  -3.137916831690e+02 
6 1  4.735680820254e+02  -3.240719913623e+01   3.933379677444e+02 
7 1  2.666179631957e+02   3.972951370548e+02  -5.470246166801e+01 
8 1 -2.189044766175e+02   3.566434206499e+02   2.284497772004e+02 
8
Step 4900
1 1 -5.792982939321e+02   2.355148829682e+01   1.418292713295e+02 
2 1 -6.530396220127e+01  -1.789585948614e+02  -1.078662543089e+02 
3 1  2.330321899719e+02   2.459350370327e+01  -1.445150578899e+02 
4 1  5.503837150944e+02  -4.370389019443e-01   1.229506001432e+02 
5 1 -3.608298363518e+02  -1.604129517988e+02   1.862404330450e+02 
6 1  7.723743623625e+02   1.234734714489e+02  -9.086282920086e+01 
7 1  3.907744216061e+01  -1.476920520224e+02   2.541794036531e+02 
8 1 -1.738731817167e+02   2.052378081578e+02   5.592345392200e+01 
8
Step 5000
1 1  4.024016793677e+02  -1.165687203865e+02  -2.942413029955e+01 
2 1 -1.798832605711e+02  -3.317546611182e+01   2.041920605182e+02 
3 1 -1.481993070322e+02  -1.871503340557e+01  -1.488304545677e+02 
4 1  3.051247218953e+01  -2.292050661703e+02   4.839039511787e+02 
5 1 -3.688296443331e+02  -3.516270826809e+02   2.925981185807e+02 
6 1  7.808349585597e+01   7.119545317181e-01  -6.493395831355e+02 
7 1 -2.394949563376e+02  -2.120909586916e+02   4.684459903697e+02 
8 1  3.057600897394e+02   1.651907458081e+02   1.198372082828e+00 
8
Step 5100
1 1  1.754492457124e+02  -1.859017610721e+02   4.729616443075e+02 
2 1 -3.849898655277e+02   2.463737137372e+02  -4.450711805490e+02 
3 1  2.245213962480e+02  -1.428192381079e+02  -2.511913146077e+02 
4 1 -4.197416608970e+02  -1.267402135213e+02   2.066960165090e+01 
5 1  9.811353073646e+01  -6.973937894748e+01   1.652619737376e+02 
6 1 -3.758693623249e+02   1.826140509510e+02  -1.186754539512e+02 
7 1  2.932939044089e+02  -5.429703634315e+02  -5.082394316960e+01 
8 1  2.961120509988e+02   1.044515949117e+02  -2.874081097917e+02 
8
Step 5200
1 1  4.221337137921e+02   2.293612780376e+02   3.527804101594e+02 
2 1  2.358019160907e+02   4.086927498008e+02  -8.507748309655e+01 
3 1  1.811100791998e+01  -5.665028385623e+02   1.661462211852e+02 
4 1  3.130475261741e+01   1.812468646271e+02   1.152576031797e+01 
5 1  8.332123348459e+01  -1.977025137623e+01  -3.025340785470e+02 
6 1 -4.281539849511e+02  -1.875940090858e+02   4.152916228357e+02 
7 1  2.944443152233e+02   4.701175971474e+01  -5.233249245581e+02 
8 1  1.762470627840e+02  -4.303635559405e+02  -2.733402632485e+02 
8
Step 5300
1 1  2.248872807498e+02   1.676376554865e+02   6.950226129702e+01 
2 1  1.383761179834e+02   3.555835662663e+02   1.556287853681e+02 
3 1 -2.152973626464e+02  -2.242498149438e+02   2.316406494974e+02 
4 1  4.228451735181e+02  -5.230030734111e+02  -1.028001048215e+02 
5 1 -3.981966025213e+01  -2.532217976529e+01  -3.845429712680e+02 
6 1  2.881854290829e+02  -2.479969475733e+02   3.902704234151e+02 
7 1 -6.614589910435e+01   2.790166630243e+02  -1.594314491159e+02 
8 1 -2.426087808278e+02   1.419736737226e+02  -1.490321194424e+02 
8
Step 5400
1 1 -2.315739600529e+02  -7.336142658865e+01  -3.829924945835e+02 
2 1  3.859635912589e+02  -1.870138645689e+02   1.201586656989e+01 
3 1  5.502288041510e+01   5.069703591606e+02  -1.595575405881e+02 
4 1  2.197698722640e+02  -5.078494076955e+02   3.029007007653e+01 
5 1 -8.194817179958e+01   2.699609995004e+02   5.456953830736e+02 
6 1  2.223720313376e+00   1.582972964165e+02  -4.377992754058e+00 