8
Step 0
1 1  1.519342487476e+02   4.700563026408e+02  -4.224587774190e+02 
2 1  1.159550722698e+02  -1.500817179083e+02  -5.305913387260e+02 
3 1 -4.239706107843e+02  -6.406994377646e+02  -2.701282450396e+02 
4 1  2.628212611285e+00   2.678364357616e+02  -1.588474963704e+02 
5 1  6.514540683736e+02   1.037833948433e+02  -3.447279968596e+02 
6 1 -2.798826898926e+00  -4.652652760502e+00  -5.343475400123e+02 
7 1  3.113910148336e+01   1.390855894842e+02   6.008123262551e+02 
8 1 -5.045781131975e+02  -5.265410217043e+01  -5.682266063532e+02 
8
Step 100
1 1  2.393599806463e+03  -7.081707636490e+02   9.574664506074e+01 
2 1 -1.166890532773e+03  -2.266536690696e+03   3.520143795567e+03 
3 1  3.760812606414e+03  -2.822209319300e+03   1.351312123594e+03 
4 1 -2.023744155085e+03  -3.300407757572e+02  -7.095217501784e+02 
5 1  2.058333204718e+03  -1.798765224739e+03  -3.797734678973e+03 
6 1  1.575996632823e+03  -2.763303637107e+03   2.382819080337e+01 
7 1  1.650275897237e+03   2.120885707040e+03  -7.999067726020e+02 
8 1 -2.399464548639e+03   1.855642356095e+03   3.757682126863e+03 
8
Step 200
1 1  1.407604295636e+03  -6.082493750609e+02   1.369487577155e+02 
2 1 -9.351574646377e+02  -1.027169003842e+03   1.858868686081e+03 
3 1  2.255069164675e+03  -1.296177033314e+03   1.472859634716e+03 
4 1 -1.146407735059e+03  -1.220211311925e+02  -4.202502406524e+02 
5 1  1.160102065136e+03  -1.288660834608e+03  -1.705787046976e+03 
6 1  1.208321745840e+03  -1.115325420828e+03   1.969017412945e+02 
7 1  1.258896557228e+03   1.229371103608e+03  -5.511857429863e+02 
8 1 -1.361513359050e+03   1.671532303694e+03   2.132662144187e+03 
8
Step 300
1 1 -1.175185208010e+02  -2.640623996817e+02  -4.860289102069e-01 
2 1 -5.778275380555e+02   2.593436993665e+02  -4.760774474687e+02 
3 1  2.821487915837e+02   6.040011906469e+02   1.803089003331e+03 
4 1 -4.564362205195e+02   4.509879314448e+02  -7.131643806275e+01 
5 1 -3.161771366164e+02  -8.808937335022e+02   6.963918788374e+02 
6 1  1.230551153869e+03   3.792666467870e+02   3.142638613745e+02 
7 1  4.390000133442e+02   3.994432969192e+02  -1.091897207580e+02 
8 1 -4.436388044098e+02   1.039955744892e+03   5.089868306240e+02 
8
Step 400
1 1 -1.537895267458e+02   3.993865253752e+01  -8.411368863669e+02 
2 1 -2.180208611385e+02   9.483318838678e+02  -4.305371675916e+02 
3 1 -2.382469454432e+02   1.194737715821e+03   2.884382560895e+02 
4 1  2.564815569300e+02  -1.965045891183e+02  -8.043722093364e+01 
5 1 -1.045666115200e+03  -2.547741888508e+02   6.370972995646e+02 
6 1  9.217895472778e+02   9.646182278231e+02   1.772788119741e+02 
7 1  3.600176849290e+01  -3.243930652504e+02   3.384029243467e+02 
8 1  2.481355499951e+02   3.758981849956e+02  -5.229080751116e+02 
8
Step 500
1 1 -5.758717072457e+02   4.412507937594e+02  -6.607623030509e+02 
2 1  2.092017224853e+02   7.411303728248e+02  -6.352175863002e+02 
3 1 -4.432061335074e+02   8.110538756421e+02  -1.409096597589e+02 
4 1  4.803340628688e+02   2.134997729951e+02   8.777159930471e+02 
5 1 -2.323431840980e+02  -1.878787505942e+02   5.845670150959e+02 
6 1  9.699933144124e+01   4.472611852447e+02  -1.030460442550e+02 
7 1  3.268626120412e+02   6.304723521653e+02   6.710564611068e+02 
8 1  1.041314476746e+01   2.935625131342e+02  -6.066138165835e+02 
8
Step 600
1 1 -1.251151990818e+02   1.923220538125e+02  -6.929104400354e+02 
2 1  4.292766250851e+02   5.528070384822e+01  -2.620148357700e+02 
3 1  7.088201484429e+01   9.255198687983e+01  -2.280706480380e+02 
4 1 -5.706753369467e+01   1.732929459419e+02   1.689648004591e+02 
5 1 -4.646510524292e+02   1.616265907581e+01  -1.573939625064e+02 
6 1 -3.925520448725e+02   2.543075939956e+01   1.284114263532e+01 
7 1  3.451215193126e+02   3.312485033994e+02   4.416328800397e+02 
8 1 -8.949554066972e+02  -2.015597352331e+02  -3.144668239511e+02 
8
Step 700
1 1 -5.124936232025e+01   8.810762182442e+01   1.602290478600e+02 
2 1  2.994975302937e+02  -3.907233629611e+02  -4.114947277177e+02 
3 1 -2.765596988030e+01   1.839260343411e+02   1.704749723004e+02 
4 1 -3.556652412958e+02  -2.531524243711e+02  -6.049922017926e+02 
5 1  6.987780443799e+00  -3.293203398100e+02  -3.805202262818e+02 
6 1 -4.194891978654e+02  -5.549010019055e+02  -2.516551617989e+02 
7 1  3.025078266546e+02  -2.258413598597e+02   1.950232306576e+02 
8 1 -2.876530988590e+02   2.634967316229e+02  -2.148817348683e+02 
8
Step 800
1 1  5.446613551426e+02  -8.098242794505e+01   3.079041043920e+02 
2 1 -6.160198771214e+01   2.207114490433e+02   3.429068532067e+02 
3 1 -1.089913546771e+02   3.760342315186e+02  -3.281456447227e+01 
4 1 -3.561867720470e+02  -9.321802148474e+02  -1.304460588077e+02 
5 1 -9.743679998571e+01   1.104958409483e+02  -1.749676549240e+02 
6 1 -1.195047057711e+02  -2.150874121535e+02   2.570865540716e+01 
7 1  6.054660505222e+02  -4.867769556938e+02   8.585818090660e+01 
8 1  2.476402185966e+02   1.385726001970e+02   6.892597808119e+01 
8
Step 900
1 1  1.984425566866e+02  -2.629151757188e+02  -4.268455005052e+02 
2 1  1.653430076093e+02  -1.658779160457e+01   2.250567328884e+01 
3 1  1.115478318754e+02  -5.287491824556e+01   8.806899374666e+01 
4 1 -4.770112471752e+02   3.301549175970e+02   3.784977191539e+02 
5 1 -2.536338024313e+01   3.174268227770e+02  -4.561023199974e+02 
6 1 -1.737549333749e+02   1.020189988524e+02   6.090811795593e+02 
7 1  3.159320609027e+02  -1.159795460231e+02  -5.461090701043e+01 
8 1 -1.901997673722e+02   1.722358526888e+02   1.772422394737e+01 
8
Step 1000
1 1  3.850125612052e+02   3.448225420682e+02   1.371132594463e+02 
2 1 -2.284120301177e+02   3.620439156464e+02  -4.185413129565e+02 
3 1 -2.674203967550e+02   9.166522770084e+01   3.857423044849e+02 
4 1 -1.724268271656e+02   2.374446254093e+02   3.911433543015e+02 
5 1  9.806291721841e+01  -6.319694683237e+01  -1.199210176809e+01 
6 1 -3.397785514380e+02  -1.057284077046e-01   4.293149362163e+02 
7 1  3.950575866960e+02   6.188587719516e+01  -1.380855279318e+02 
8 1 -1.405081840514e+02  -1.010078258378e+02   2.513720328423e+02 
8
Step 1100
1 1 -4.819938404580e+01   4.271462704683e+02  -5.173950870994e+01 
2 1 -4.173706214108e+02   2.693024512665e+02  -1.671039791743e+02 
3 1 -3.815772002142e+02  -3.123331453256e+02   1.996472448775e+02 
4 1 -2.167782415940e+02   2.441228607327e+02   2.504420919624e+02 
5 1 -2.839719305524e+02   1.432019347591e+02   7.401255873871e+01 
6 1  6.073808125447e+02   9.840399198471e+01  -1.268769718980e+02 
7 1 -1.654362486306e+02  -4.967615964931e+01  -4.397888674465e+02 
8 1 -3.732507068083e+01  -2.143392359210e+02  -8.080365333763e+01 
8
Step 1200
1 1 -2.960928424550e+01   2.778937541891e+02  -2.916325351929e+02 
2 1 -1.770679589620e+02   1.360914070204e+02   8.455119629308e+01 
3 1  1.356506415639e+02   2.766388325820e+01   1.177922169513e+02 
4 1  4.335648391654e+02   9.439175023044e+01   1.790549234660e+02 
5 1  1.310189920396e+01  -4.049442639702e+02   4.601948183130e+02 
6 1  4.574254698458e+02   4.265730707965e+01  -4.731491391081e+02 
7 1 -4.457668120289e+02   2.764425280237e+02   4.413656036559e+02 
8 1 -6.421809033311e+01  -8.981633553766e+01   5.819589156705e+02 
8
Step 1300
1 1 -3.359022131259e+02   3.111247276325e+02   3.058696178456e+02 
2 1 -1.793616597634e+02  -6.500695791268e+01  -7.585749967591e-01 
3 1  7.375842780365e+02   3.139927409638e+02  -1.047592470844e+02 
4 1  4.464924941221e+02  -4.920533064016e+01   3.630419918099e+01 
5 1 -3.126363817673e+02   8.637291084086e+01   4.272766773633e+02 
6 1 -2.373358234634e+02   4.776024635575e+01  -2.114231611189e+02 
7 1 -1.059801065990e+02   1.973516184911e+02   3.954335988482e+02 
8 1  2.263830790480e+02   2.779517107637e+01   5.262328361815e+01 
8
Step 1400
1 1 -1.371997056047e+02   3.964717788268e+02   1.155460701256e+02 
2 1  4.733520438010e+02  -2.581382563446e+02   2.856614027902e+02 
3 1 -4.283799492888e+01  -2.886841252893e+02  -1.423124654888e+02 
4 1 -6.220511441258e+02   1.337503387867e+02  -1.270139593826e+02 
5 1 -3.877458380699e+02  -7.448312168317e+01   1.527035217966e+02 
6 1 -3.397655240981e+02   4.112898402200e+02  -3.854958239407e+01 
7 1 -4.835220710921e+02  -2.739479400579e+02  -3.568936246898e+02 
8 1  6.919100218734e+02   1.299593318558e+02   3.123176246511e+00 
8
Step 1500
1 1 -3.932397586380e+01   1.419435962029e+02  -2.169534767001e+02 
2 1  1.962512288977e+02  -5.562893963907e+02   3.911662358968e+02 
3 1 -1.695383745811e+02   9.902637513500e+01   1.866005154639e+02 
4 1 -3.082456595407e+02   3.073608142044e+01   2.231747705945e+02 
5 1 -6.118577111362e+02   2.707384354175e+02   1.995754607929e+02 
6 1  3.371889687194e+02   2.001579116501e+02   3.140257475196e+02 
7 1 -1.263569312798e+02  -1.479313571423e+01  -1.090073649793e+02 
8 1 -4.349256726694e+02   1.178928353920e+02   4.593112600573e+01 
8
Step 1600
1 1  1.572673557928e+02  -3.235609585077e+02  -9.239201440555e+01 
2 1  1.495609936374e+02   3.075509826971e+02  -2.162650006689e+02 
3 1 -4.090122296066e+02  -2.284421320559e+02  -1.284396222379e+02 
4 1  4.379820343346e+01  -2.915623475424e+02  -1.212796334989e+02 
5 1 -1.310128990382e+02   4.035233203451e+02  -1.933545085666e+02 
6 1  7.732931827573e+01   7.460485455692e+01   1.164801263014e+02 
7 1 -1.590218980389e+01   1.419003372260e+02   8.057635000415e+00 
8 1 -2.003777416554e+02  -1.928058792151e+01   3.707500759002e+02 
8
Step 1700
1 1 -4.226991446394e+02  -1.420104248936e+01   2.164252310107e+02 
2 1 -3.520141392876e+02  -1.014492444121e+02  -8.452967419645e+01 
3 1  3.116439047541e+02  -1.557599562631e+02  -1.167414624405e+02 
4 1  1.720364181724e+02   9.960249001588e+01  -6.226334568763e+02 
5 1  4.309504063699e+02   4.532649568961e+02   1.007448407731e+02 
6 1 -4.354425786922e+02  -3.353373644660e+02   2.571162829834e+01 
7 1  3.276853629497e+02   1.430401776219e+02   3.830108604962e+01 
8 1 -6.709934637375e+02  -3.413885905390e+02  -3.039688347059e+02 
8
Step 1800
1 1  4.449115379926e+02   8.155740440982e+02   4.035525705617e+01 
2 1 -6.236155385611e+02  -5.492319449524e+01   1.880735944406e+02 
3 1  2.481397769996e+02   7.255741643269e+01  -1.450398346943e+01 
4 1  3.707602911370e+02   2.417533808193e+01  -4.260655279969e+02 
5 1  7.496634974860e+02   5.899179732720e+01  -1.143214091330e+02 
6 1 -1.068800365909e+01  -2.238451019880e+02  -5.882424644989e+01 
7 1  2.359134123417e+02   2.856573600804e+01   8.937114750798e+02 
8 1  1.497314858601e+02   9.214345736338e+01  -5.971288780764e+02 
8
Step 1900
1 1  4.722014676581e+01  -1.802194820713e+02  -1.084393544133e+02 
2 1  7.507777255697e+01   3.870341784307e+02  -1.537925564568e+02 
3 1  1.265792609469e+02   2.687549416952e+01  -2.097712595126e+02 
4 1  2.462552176061e+02  -1.978050017119e+02   2.370999726487e+02 
5 1  2.925660320017e+01  -1.837134776542e+02   1.463507237344e+01 
6 1 -1.106400894682e+02  -2.451334133451e+02  -1.439516506607e+02 
7 1  1.211854197658e+02   2.118795738668e+02   2.180344997799e+02 
8 1  2.475831826428e+02   7.464414559301e+01  -4.197115063041e+01 
8
Step 2000
1 1  5.234111812374e+01  -3.806070516739e+02  -3.886914293372e+02 
2 1  2.588266631178e+02  -1.645078726560e+02  -1.114575990254e+02 
3 1  3.110171159192e+02  -1.180180317274e+02  -1.815932743582e+00 
4 1 -8.740538344083e+01  -9.380532108059e+01   2.330321118005e+02 
5 1 -1.841511680442e+02   1.756648923177e+02  -2.837295049268e+02 
6 1  1.005190705737e+02  -9.649128897313e+01   4.640119980593e+02 
7 1 -1.225645485924e+02  -1.643793575627e+02   2.294836203547e+02 
8 1 -5.411336874221e+01  -1.308672912916e+02   1.221883238062e+02 
8
Step 2100
1 1 -1.692123499651e+02  -2.756715543839e+02  -9.055526937747e+01 
2 1 -1.658766311842e+02  -3.747802459439e+02   3.635013700213e+02 
3 1 -3.976150043908e+02  -5.050306363275e+01  -2.308667743505e+02 
4 1 -3.474254601041e+02  -3.791870033452e+02   3.041589972003e+02 
5 1  2.840160481900e+02  -1.169376142723e+02   1.726489049025e+02 
6 1 -7.198630414749e+02  -1.370918410640e+02   1.660264582452e+02 
7 1 -7.280357704357e+02  -2.615663180609e+02  -7.027467724554e+02 
8 1 -3.403507448305e+02  -3.255975072441e+02   3.731895577092e+00 
8
Step 2200
1 1  1.662652727964e+02  -1.201335950621e+02   1.595925203937e+02 
2 1 -1.635875330790e+02  -7.591861699787e+00  -1.852990194483e+02 
3 1 -4.312466226673e+02  -2.043286348101e+02   1.729322944692e+02 
4 1 -3.513658479511e+01  -1.601027215098e+02   8.736867538057e+01 
5 1  4.224013492019e+01  -1.039286395241e+02   1.748149417716e+02 
6 1 -3.030792768156e+02  -5.518237255690e+02   5.652446863809e+01 
7 1 -1.797132786817e+01   5.163247257282e+02  -3.216929597593e+02 
8 1 -4.279327311842e+01  -1.298322865995e+02   6.646931392675e+02 
8
Step 2300
1 1 -1.304006664174e+01   2.176614813542e+02   7.230194916440e+02 
2 1 -1.942228535585e+01   1.316995992815e+02  -8.793666275585e+01 
3 1  2.884255603622e+01   4.389716831833e+01   1.729419311386e+02 
4 1 -1.130364013386e+02   7.330523529620e+02   1.755631452885e+01 
5 1 -2.563306434032e+02  -5.026400708024e+02   2.561129981252e+02 
6 1  1.668898509902e+02   2.283894218121e+02  -2.699927932610e+01 
7 1  3.482373012444e+02   5.458908808026e+02  -2.273313600217e+02 
8 1  2.450708931808e+02  -9.225382961053e+01   1.036262126755e+02 
8
Step 2400
1 1 -2.815742801486e+02   1.859820817391e+02   7.322041946145e+01 
2 1  2.063941946759e+01  -1.555174810276e+02   4.671208719091e+02 
3 1  1.984392426586e+02  -2.370075933697e+02  -1.976506804862e+02 
4 1 -9.283270558100e+00   3.400104842979e+02   6.047998636052e+02 
5 1 -1.444654600301e+02  -4.352732908549e+02  -1.523742008918e+02 
6 1 -8.415081454921e+01   3.551044424501e+02  -1.830655416853e+02 
7 1  3.907123723598e+02  -2.481089069032e+02   2.045874626110e+02 
8 1  2.332660428952e+01   3.108764392595e+02  -2.134492308026e+02 
8
Step 2500
1 1 -6.277410624403e+01  -5.430934319787e+02  -4.537827966481e+02 
2 1  2.790252967779e+02   1.782172127148e+02   9.791432609795e+01 
3 1  1.032681109534e+00   3.403326045575e+02  -3.183402248595e+02 
4 1  3.966601108400e+00  -4.650972572771e+01   1.983260866996e+02 
5 1  1.942344967505e+02   1.169737054862e+02   4.440671597376e+01 
6 1  1.575541579898e+01   4.343705155909e+02  -7.232592742837e+01 
7 1 -6.833462745187e+01  -3.286610823094e+02   1.364185592860e+02 
8 1 -3.362182635615e+01   3.326975522681e+02  -5.330920907198e+02 
8
Step 2600
1 1  5.252300773634e+02   8.883052554760e+01  -6.774403909109e+02 
2 1  1.321184600666e+00  -2.178489893713e+02  -8.717318032191e+01 
3 1 -1.505785762077e+02  -3.291702311710e+01  -1.603441493470e+01 
4 1 -3.353281368106e+01  -1.066199905706e+02   1.103982342557e+02 
5 1 -4.708095234359e+02   1.472303662036e+02  -1.395779309417e+02 
6 1 -1.049590041519e+02   1.493544908138e+02   6.027004295634e+01 
7 1  7.092300752135e+01  -2.750324061807e+02  -1.134908684703e+02 
8 1  7.309160593208e+01   3.351628680590e+02  -2.184436506019e+02 
8
Step 2700
1 1  2.609840636181e+02   9.709499069755e+01  -1.664103081648e+02 
2 1  6.662460281930e+01   2.973392054742e+02  -9.750508360236e+01 
3 1 -2.915708406518e+01   7.320038610575e+01   3.597596592217e+02 
4 1  1.136375517661e+01   8.311429130043e+00  -3.151677812594e+02 
5 1 -5.654308702519e+00   2.204198372124e+02  -4.925123497786e+02 
6 1  2.410537082292e+02   2.021012775221e+02   9.116675992547e+01 
7 1  1.808576486032e+02  -4.414973822076e+02  -2.160011396950e+02 
8 1 -1.195838245896e+02  -4.210099334375e+02   1.409649587354e+02 
8
Step 2800
1 1 -1.280693194376e+02  -1.165203974780e+02   5.087584889490e+02 
2 1 -1.274652772140e+02   3.575520248677e+02  -2.207407101521e+02 
3 1 -1.354147109421e+02  -1.431291100735e+02   1.167943684642e+01 
4 1 -4.395279491196e+02  -2.226179928517e+01  -1.946332336745e+02 
5 1  1.802739991344e+01  -7.797492037628e+01  -1.228008238044e+02 
6 1  1.135332228986e+01   4.376949486918e+02  -2.464390203624e+02 
7 1 -3.361455922964e+02  -3.078874987199e+02  -4.343515394032e+02 
8 1  4.868015820490e+02  -2.297718033269e+02   4.120515348589e+02 
8
Step 2900
1 1  2.096699859921e+02   6.122639875760e+01   1.257271806050e+02 
2 1 -2.398653958277e+02   4.078033231534e+02   2.373158383971e+02 
3 1 -1.914339423737e+02  -1.291269365363e+02  -3.135843216879e+02 
4 1 -3.125532579593e+02  -5.614838892287e+02   1.461755070074e+02 
5 1 -3.327034519844e+02  -1.173612471127e+02  -1.303603466225e+02 
6 1 -4.449058196422e+02  -2.775967735328e+02  -2.973395379329e+01 
7 1 -2.447073392542e+02  -1.979077834687e+02  -4.693059135646e+01 
8 1  5.349268867892e+02   1.110871225039e+02   2.582308856630e+02 
8
Step 3000
1 1  1.829341159452e+02   2.012991198396e+02  -2.135549566524e+02 
2 1 -4.054960070372e+01   9.717541004415e+01  -7.885542951575e+01 
3 1  4.297567663471e+02   1.421075106506e+02  -9.094188328094e+01 
4 1 -3.167385941194e+02   3.993303267500e+01   2.368605641543e+02 
5 1  2.250648333691e+02  -1.534524102483e+02   1.810267849066e+02 
6 1  2.025710132606e+00  -1.912955575990e+02  -2.906329549147e+01 
7 1 -2.940781948956e+02  -1.843988804068e+02   3.100106969056e+02 
8 1 -2.924380818815e+02   3.469709507065e+01  -3.999647814026e+02 
8
Step 3100
1 1  1.018430385503e+02  -3.562764109473e+02  -4.018261693892e+02 
2 1  8.465726452598e+01  -3.578611197062e+02  -4.181346118552e+01 
3 1 -2.557371729463e+01  -5.199325427074e+02   4.391344724331e+02 
4 1  3.618421423306e+02   1.874511319191e+02   1.139957445410e+02 
5 1 -8.511121595586e+01   2.574137368245e+02  -2.530725573033e+02 
6 1  9.229107969251e+01  -3.191803046873e+02   4.000901318288e+02 
7 1  7.138264705181e+00  -1.919867045668e+01   5.437005679185e+01 
8 1 -7.170968074391e+02   3.501550079615e+01  -3.284970879850e+02 
8
Step 3200
1 1 -1.886256216864e+02  -2.423565834500e+01   5.505814101689e+01 
2 1  4.205477115412e+02   8.642187180908e+01   5.790958594033e+01 
3 1  1.446168422494e+02   2.232735714678e+01   2.044967896984e+02 
4 1  1.663033629159e+02   6.775865418835e+01  -1.168961262748e+02 
5 1  1.192241923327e+02   2.001425104724e+02   3.146189966472e+02 
6 1  1.412564604573e+02  -1.792563996676e+02   2.237551640344e+02 
7 1  3.677733620480e+02   2.370702985452e+02   1.932622809371e+02 
8 1 -6.384138513461e+02   2.769854970399e+02  -4.828002368051e+01 
8
Step 3300
1 1 -4.534486701647e+02   1.031779889669e+02   1.123398465272e+01 
2 1 -3.093395893260e+01   7.011796097549e+01   2.844107223831e+02 
3 1  3.425309893095e+02   1.764598168830e+02  -1.662937459072e+02 
4 1 -4.741871800876e+02  -2.572078037008e+01  -9.266780170965e+01 
5 1  1.600674656779e+02  -2.023958249269e+02   6.506473015762e+02 
6 1  4.688702202087e+02  -4.094342055734e+02  -2.053938184574e+02 
7 1  3.610067554338e+02   1.982772552455e+02  -1.981102156997e+01 
8 1 -7.668521444892e+02   2.906651470613e+02   2.385525133256e+02 
8
Step 3400
1 1 -3.395919319573e+02  -7.307536162336e+02   3.678488629052e+02 
2 1 -3.648895752589e+02  -2.510803156237e+02   2.908288992391e+02 
3 1  2.513652912996e+02   3.371754221563e+02  -1.055249948170e+02 
4 1  3.635638935682e+02  -3.592889952030e+02  -2.844478146216e+02 
5 1  9.536227234393e+01   4.938917128829e+01   6.934274571559e+01 
6 1  5.436802802948e+01   1.733999010584e-01  -1.754639316516e+01 
7 1 -1.733297031346e+02  -9.280963198239e+01  -3.276967309747e+01 
8 1  1.487040909337e+02   5.611718564640e+02  -3.037704407336e+02 
8
Step 3500
1 1  5.324373699321e+02  -4.883428763234e+01   2.967022074940e+02 
2 1  3.788050420803e+01  -1.751735914520e+02   1.117725293355e+02 
3 1 -2.280300896252e+02   2.019295294525e+02  -2.560809117534e+02 
4 1  4.061888638121e+02  -5.750212205008e+02  -6.723868925593e+00 
5 1  3.280374300200e+02  -9.333804916263e+01   2.047364993514e+02 
6 1  3.370213690410e+02   4.264761207902e+02  -2.067520392859e+02 
7 1 -2.193848977499e+02   8.188857835679e+01  -4.189707301600e+01 
8 1  2.948361967818e+02  -2.392061786681e+02  -3.731611502237e+01 
8
Step 3600
1 1 -2.165988627977e+02   2.653615060967e+02   3.199963918949e+01 
2 1 -1.535635391211e+02   3.928875301439e+02  -1.438607282643e+02 
3 1  2.578410063935e+02  -1.858677997626e+02  -4.543047555941e+02 
4 1  1.358458533685e+02   2.867305205226e+02   5.005342201639e+02 
5 1 -1.267102103923e+02  -1.631668507131e+02  -2.752169458523e+02 
6 1 -2.840269542513e+01   5.417014227166e+02   1.678432782737e+02 
7 1 -2.858716342899e+02   1.598823239398e+02   1.230023067022e+02 
8 1  3.454311266676e+02  -6.427615415498e+02   7.374497167373e+02 
8
Step 3700
1 1 -4.065386316655e+02   9.414095329066e+01  -5.188183243692e+01 
2 1  1.431701224717e+02  -3.039703212633e+02  -1.113019879731e+01 
3 1  3.949988173710e+02  -3.607774000115e+02  -1.843311487113e+00 
4 1  2.779366062598e+02  -3.824085755348e+01  -1.397665633799e+02 
5 1 -2.756825165620e+02   2.280406378970e+02  -3.432933130882e+02 
6 1  1.029487305263e+02  -2.942744148116e+02  -2.984841421380e+01 
7 1  3.879788534488e+02   1.241675602840e+02   3.576709352687e+02 
8 1  1.982536313370e+02  -9.940993759527e+01   3.547497470950e+02 
8
Step 3800
1 1  1.792465794103e+02   1.989721608789e+02  -1.752854764094e+01 
2 1  2.594695261255e+02   4.598075620213e+02   2.006433471407e+02 
3 1  1.441329922187e+02  -2.055813653814e+02   3.863583070159e+02 
4 1  7.736039302250e+01  -1.117086119519e+02  -4.626221926394e+02 
5 1 -2.482029699872e+02   9.991585993686e+01   2.051683687857e+02 
6 1  1.921764837520e+02  -7.427808490408e+02  -9.303628985825e+01 
7 1  2.607656190852e+01   3.114335731067e+02   2.845210187532e+02 
8 1 -3.138228642754e+01   3.280881793639e+02   2.170835671500e+02 
8
Step 3900
1 1  1.931328349758e+02  -7.213078219583e+01  -8.641612437968e+01 
2 1 -2.240834178121e+02   3.181884681353e+01  -5.022798921176e+01 
3 1 -4.636658254592e+02   3.206888700699e+02  -6.931519532065e+01 
4 1 -2.087946201557e+02   1.852515802462e+01  -5.281072517647e+02 
5 1  1.782528195921e+02  -1.056967946756e+02   2.088130563008e+02 
6 1  4.545603278868e+02  -1.201525134271e+02   2.874249466888e+02 
7 1 -6.613547502042e+01  -2.190550569511e+02  -1.682998036314e+02 
8 1  1.750151513357e+02  -6.003521568692e+01  -2.922201498382e+02 
8
Step 4000
1 1 -2.495652666133e+02   1.853285999386e+02  -7.149776455820e+01 
2 1  2.172721006590e+01  -6.009596175106e+01  -2.776413202896e+02 
3 1 -6.164425224404e+01   2.273502228275e+02  -1.950248296440e+01 
4 1 -1.666177887865e+01   1.092769499953e+02  -3.974672515249e+02 
5 1  3.024759879774e+02  -3.168770188038e+02   1.629948294932e+02 
6 1 -2.326348556054e+02   1.167570113170e+02  -2.320844513150e+02 
7 1 -1.880170966636e+02   2.223690562372e+00  -4.500019020615e+02 
8 1  3.421747243900e+02  -5.338713424420e+02  -1.695688369636e+02 
8
Step 4100
1 1 -1.908334398476e+02  -3.335983450656e+02   3.861143584660e+02 
2 1  1.271437410820e+02  -2.789877302986e+02  -3.756042985565e+02 
3 1 -2.762475624714e+02   3.146077427872e+02   4.329831158229e+01 
4 1  1.044074139454e+02   3.872755124982e+02   3.592697721739e+02 
5 1 -1.854444607627e+02   1.180389686559e+02  -1.247482071681e+02 
6 1 -3.763896338778e+02   2.023514062718e+02  -2.802249829122e+02 
7 1 -2.082843569028e+02   7.686013370245e+01  -3.508880742303e+01 
8 1 -1.722283858974e+02  -2.702617973271e+02  -6.102976965823e+01 
8
Step 4200
1 1 -4.712925412232e+02  -3.224461921572e+01   9.535372899259e+01 
2 1  1.044820579942e+02   2.265977594495e+02   9.484511759333e+01 
3 1 -2.184624272271e+02  -2.755160558765e+02   1.297647579794e+02 
4 1  1.049016334308e+02   6.984224897742e+01   5.031605601442e+02 
5 1  1.740092643268e+02   2.636441070326e+01  -1.579099980742e+02 
6 1  1.097229626844e+02   3.946448487833e+02  -2.219613643908e+02 
7 1 -2.947633390133e+02  -1.160501198448e+02   5.408081871359e+01 
8 1 -2.554354718643e+02   1.692145697359e+02  -6.163503410624e+02 
8
Step 4300
1 1 -3.233774111441e+02   3.136846668330e+02   2.544158084725e+02 
2 1  3.508958764186e+01   4.633996947617e+02  -5.787483903658e+01 
3 1 -2.626507881710e+01   9.782907865145e+01   2.836672400686e+02 
4 1  1.580704726693e+02  -1.830029023392e+02  -2.018066766898e+02 
5 1 -6.631043231390e+01   1.381844094278e+02  -1.482087912791e+02 
6 1  1.567086801036e+01  -5.559995146172e+01  -1.211519401990e+02 
7 1  3.509085859480e+02   4.387100364941e+01  -6.699443064173e+01 
8 1 -1.035242310578e+02   2.361650685480e+02   1.577025852846e+01 
8
Step 4400
1 1  5.710884816483e+02   1.465750448965e+01  -4.370602044430e+01 
2 1 -2.547115631489e+02  -2.052819563749e+02  -1.930446575426e+02 
3 1 -1.086344552288e+02   2.032078323797e+02   2.248995113299e+02 
4 1  4.458326625780e+02   4.817136091416e+01  -2.750513154867e+02 
5 1 -1.198813679142e+02   1.399800849849e+02   1.043176034318e+02 
6 1  1.485869713388e+02   1.763071274880e+02  -1.452515552419e+02 
7 1  6.386974606194e+02  -1.995375091691e+02   1.757519512062e+01 
8 1 -2.530487509211e+02   3.315126323494e+01   5.567828932951e+01 
8
Step 4500
1 1  5.140871800771e+02  -7.523874600994e+01  -3.648522891133e+01 
2 1 -1.182918554582e+02  -8.714534973148e+02   3.454594434767e+02 
3 1 -4.390030595191e+01  -2.257554408416e+01  -3.778028349175e+02 
4 1  4.463667939742e+00  -1.517233072823e+02  -1.695922367065e+02 
5 1 -5.605997345873e+02  -7.849930533872e+00  -2.072081499525e+01 
6 1  5.585308025042e+01   2.191009503298e+02   3.595022060284e+02 
7 1  5.896396044586e+01  -1.180243877381e+01   4.982463222057e+01 
8 1  1.437816363463e+02  -2.073685039218e+01  -2.731565245198e+02 
8
Step 4600
1 1 -3.592808097297e+02  -7.145476141224e+00  -3.335189332986e+02 
2 1  1.785060431930e+02  -4.949555983302e+01   3.077545226984e+02 
3 1  1.657683253477e+02  -5.158131675154e+02  -7.119204956127e+01 
4 1 -5.740530842437e+02  -2.235165557154e+02  -1.268602310479e+02 
5 1  1.952551641452e+02   1.093431205643e+01  -1.111787754411e+02 
6 1  1.290636847755e+02  -2.269831065014e+02   3.200634934720e+02 
7 1  2.135001241495e+02  -4.391850328152e+01   1.848073439284e+02 
8 1 -2.322859018987e+02  -1.571444108229e+02  -2.085099608647e+02 
8
Step 4700
1 1  2.254750718973e+02   5.067660661550e+01  -6.260734658353e+02 
2 1 -4.103648999950e+02  -2.135529218991e+02   4.268599401524e+02 
3 1  1.883562815937e+02  -3.291676276189e+02  -7.058115704988e+01 
4 1  4.291213418100e+01  -5.058484298430e-01   2.106614620270e+02 
5 1  2.070292112866e+02   2.579096565977e+02   3.611313630869e+01 
6 1 -3.425542351870e+02  -2.116275906679e+02  -1.598421218567e+02 
7 1 -4.539670139062e+01   2.014064354209e+02   5.932172654511e+02 
8 1  2.195417186110e+01  -2.287149567077e+00   2.983921972456e+02 
8
Step 4800
1 1 -2.091494520157e+02   6.597916579023e+01  -2.046864186699e+02 
2 1 -5.044260234300e+01  -3.798931931375e+02   8.559380906815e+01 
3 1 -1.362383795819e+02  -1.179964058679e+02   4.373857722859e+02 
4 1 -2.197329807660e+02   2.341354279503e+02   1.190709307413e+02 
5 1  1.571865126174e+02  -2.697197995077e+02  -3.071677067613e+02 
6 1 -7.453988804800e+01  -3.580079919224e+02  -3.636888315470e+02 
7 1 -4.777586312356e+02   4.533539942728e+01  -1.327584792275e+02 
8 1  1.835211078830e+01  -6.243452052794e+00   1.472409730196e+02 
8
Step 4900
1 1  2.083167434523e+02   1.237266758119e+02   5.827655625448e+02 
2 1 -3.151403739343e+02   2.251385709040e+02  -1.830781484931e+02 
3 1  8.209900594266e+01   3.559386554354e+02  -2.448482026987e+02 
4 1 -4.713650895628e+02   2.818435349546e+02  -7.716664391805e+01 
5 1  4.231686080482e+01  -3.390674951530e+01   4.686424064634e+00 
6 1 -5.373935189128e+02   6.215164507970e+01  -4.147704905229e+02 
7 1 -4.631223591177e+00  -3.317147777335e+02  -4.655924597156e+02 
8 1 -1.809909866997e+02  -1.160640133963e+02   3.557480390140e+01 
8
Step 5000
1 1 -1.567846968570e+02  -5.565318331980e+01   1.702248858372e+02 
2 1  9.362823623271e+01  -2.916560727908e+01  -1.686331383713e+02 
3 1 -3.989977743138e+01  -3.468190727811e+02   2.602809302858e+02 
4 1 -9.787734009660e+01  -1.788151047802e+02  -2.014883138766e+02 
5 1  5.350585209065e+01   3.099252927148e+02   1.750038187045e+02 
6 1  1.826230679453e+02  -7.466233096325e+01   1.563644992738e+02 
7 1  2.927375853827e+02   9.765745923165e+01   3.685010043338e+01 
8 1 -3.433417077827e+02  -3.833891980903e+02  -2.698550196625e+02 
8
Step 5100
1 1 -1.439646129293e+02   2.040378789465e+02  -4.552250182403e+02 
2 1  1.679130087428e+01   6.809204874316e+02   1.353652602551e+02 
3 1  1.686100532338e+02  -2.319988532421e+02  -1.215769761008e+02 
4 1  6.192465485333e+02  -6.268237149336e+02  -1.158914021723e+02 
5 1  1.258575157280e+02  -1.041028682395e+02   3.566233916731e+02 
6 1  4.284950613688e+02  -3.901957139829e+02  -6.419778380667e+01 
7 1 -2.788096900208e+02   2.628308820818e+02  -2.441678570596e+02 
8 1  2.482480355720e+02   4.688185215317e+02  -1.540974226503e+01 
8
Step 5200
1 1  4.733635730761e+01  -5.888013427458e+02   1.559865060450e+02 
2 1 -2.789401218974e+02  -2.891138498625e+01   8.419347565117e+01 
3 1  1.312776659910e+02  -3.018671460370e+02  -2.918774354781e+02 
4 1  4.475491659688e+02  -3.643336265040e+01   2.029837162627e+02 
5 1 -2.778911523465e+01  -1.287120074255e+02   1.360939840756e+02 
6 1  4.027579822879e+02  -1.554708658527e+02   1.289516267876e+02 
7 1  2.366555830324e+01  -2.466684817836e+02  -2.967502535731e+02 
8 1  2.350375483267e+02   1.907534468283e+02   4.114038930784e+02 
8
Step 5300
1 1 -1.840697415394e+00   9.698569612123e+01   6.265507012275e+02 
2 1 -1.371005300877e+02  -2.781861882945e+02  -4.555824871371e+02 
3 1  3.559251309437e+02   1.018139090430e+02  -1.514680766747e+02 
4 1  1.537003361605e+02   1.301642381077e+02   1.675605303202e+02 
5 1 -2.059897369489e+02  -5.208884648387e+02   7.067888458119e+01 
6 1  1.673003456717e+02   5.309385527702e+01   4.697109567329e+02 
7 1 -3.851020993779e+01  -1.386003758518e+02   1.374987599000e+02 
8 1  1.652544444909e+02  -2.085253126966e+02   5.445674777066e+02 
8
Step 5400
1 1  1.838602253763e+02   1.646554602604e+01  -3.213734444554e+02 
2 1 -7.640392381985e+01  -2.662061191565e+02  -1.059356441098e+01 
3 1  2.329237048703e+02   1.589522317039e+01  -9.694678912731e+01 
4 1 -1.050469395848e+02  -9.634230750210e-01  -2.595531575312e+02 
5 1 -2.783923537251e+02  -2.843108444502e+02   3.687927633640e+01 
6 1 -1.931377055588e+02   3.941678262510e+02   3.960004595667e+02 