8
Step 0
1 1  2.375943488016e+02  -1.480223336209e+02   1.589121402850e+02 
2 1 -1.067078471211e+02   1.323836513967e+02  -2.788207799486e+02 
3 1 -2.892588650908e+01  -2.099513818476e+01   1.229494998605e+02 
4 1 -2.431110455995e+02  -3.910494945763e+01   1.403208948989e+02 
5 1 -6.674579459913e+01   6.462618718242e+01   1.884644784966e+00 
6 1  9.746756801194e+00   1.128339223835e+02   1.492581394598e+02 
7 1  3.031961415281e+02  -2.181447178628e+02  -1.083810579019e+02 
8 1 -1.369124070865e+02   2.273844800461e+02   3.111753005513e+02 
8
Step 100
1 1 -1.622023172025e+03   3.677175352964e+02  -1.203654579961e+03 
2 1  8.069064024536e+02   6.540895427730e+02  -1.263370684965e+03 
3 1 -1.521906071866e+03   1.833180348737e+03   1.058773946848e+03 
4 1  3.300560115280e+02   1.417788349289e+02   3.240426038277e+02 
5 1 -1.114353803827e+02   8.273965711030e+02   1.184027301028e+03 
6 1  8.099309668917e+02   9.011121501894e+02   5.817822525178e+02 
7 1  7.950692223444e+02  -1.708285321441e+02   7.967352272739e+02 
8 1  9.653558673326e+02   8.723189680936e+02   4.825953696427e+02 
8
Step 200
1 1 -1.753314963842e+03   4.298318992387e+02  -1.427079836609e+03 
2 1  1.097945430699e+03   2.150244049126e+02  -1.589864609170e+03 
3 1 -1.667973449283e+03   1.717553030657e+03   1.175129822512e+03 
4 1  1.707554772973e+02  -3.279812902884e+02  -5.549797011162e+01 
5 1 -6.649422557624e+01   9.467409908763e+02   1.406228397558e+03 
6 1  1.084778805261e+03   1.274423677018e+03   7.373144791004e+02 
7 1  1.011786508639e+03  -7.991520244586e+01   1.010463213700e+03 
8 1  1.204607589008e+03   9.143743098421e+02   4.295227982845e+01 
8
Step 300
1 1 -1.395482465772e+03   2.838687685046e+00  -9.621472590606e+02 
2 1  7.214047530253e+02   4.076315489667e+02  -1.390949162200e+03 
3 1 -1.279196488171e+03   1.186687090024e+03   1.165446252318e+03 
4 1  2.113289930378e+02  -3.556663114394e+02  -1.892154617343e+02 
5 1 -1.834004916141e+01   3.439350263252e+02   6.011593975178e+02 
6 1  1.273205795803e+03   5.957163409997e+02   6.144547286711e+02 
7 1  6.598998942707e+02   1.630043475857e+02   8.288676545598e+02 
8 1  8.184262420764e+02   9.120319010779e+02   3.996614499433e+02 
8
Step 400
1 1 -6.019736329297e+02  -8.599148107671e+01  -5.607806796810e+02 
2 1  4.214868150665e+02   7.502772081941e+02  -8.797093562117e+02 
3 1 -6.484382403201e+02   7.013266260891e+02   8.318606049010e+02 
4 1  1.356281305145e+02  -3.285383415459e+02  -3.127502208914e+02 
5 1  7.799253912588e+01  -9.481450645999e+01   5.395079644048e+02 
6 1  1.157522267664e+03   4.352188759384e+02   3.732726968090e+02 
7 1  4.311524810719e+02   2.163080717155e+02   4.313881839049e+02 
8 1  2.502459398752e+02   9.739022977986e+02   1.005420299547e+02 
8
Step 500
1 1 -4.305509625144e+02  -1.696580317646e+02  -2.690589227873e+02 
2 1  3.076355844118e+02   6.850833977130e+02  -6.924289276404e+02 
3 1 -2.651673935394e+02   3.931728662288e+02   7.272762325586e+02 
4 1  2.189850809814e+02  -7.350794768457e+01   3.287816148848e+01 
5 1  3.328100615663e+02  -1.281221430145e+02   2.330199611605e+02 
6 1  6.870497518523e+02  -1.505644199755e+02   3.612195142095e+02 
7 1  4.646961603343e+02   6.162159028616e+02   4.312365742144e+01 
8 1  2.998430838475e+02   7.415149834367e+02   1.606366028309e+02 
8
Step 600
1 1 -3.423540085392e+00  -1.513408038019e+02  -2.698214793676e+02 
2 1  4.178288391345e+02   1.787620171212e+02  -2.534296267157e+02 
3 1 -3.141096688657e+02   1.539279912822e+02   1.012254356323e+02 
4 1 -6.764760153196e+01   8.997035508104e+01  -3.725851070167e+02 
5 1 -5.960235804342e+01   1.768945613893e+01  -1.569718587674e+02 
6 1  3.967078605754e+02   1.835309053848e+01   4.900752397903e+02 
7 1  5.426292916303e+02   5.359915159412e+02  -2.564496399604e+02 
8 1 -2.496432455359e+02   4.648089591677e+02   1.611618141590e+02 
8
Step 700
1 1  2.830686362044e+02   6.773791869653e+01  -5.820473551238e+01 
2 1  2.321726328771e+02  -2.441109959973e+02  -1.435804981548e+02 
3 1 -3.275445516451e+02  -5.745556270571e+01   2.399362354638e+02 
4 1 -4.066610698635e+02  -4.198058132966e+01  -4.662002801665e+02 
5 1  5.637814987556e+01  -2.649374414340e+02  -9.286865330288e+01 
6 1 -1.622826780062e+01  -1.948132540237e+02   3.508261998631e+02 
7 1  6.531253141219e+02   2.607461095132e+02  -1.770517323897e+01 
8 1  6.185193466690e+01   3.961433289136e+02  -1.190675362996e+02 
8
Step 800
1 1  3.134976390759e+02   2.050627499207e+02  -3.348112741770e+01 
2 1 -2.174162351737e+02   6.382764075055e+01   5.359098007615e+01 
3 1 -3.280573437625e+02  -1.164095327714e+02   1.929064874812e+02 
4 1 -2.844289197011e+02  -3.996504961244e+02  -5.638275644114e+01 
5 1 -2.075793605846e+01  -2.258930360940e+02  -5.834965458347e+01 
6 1  3.697750058990e+02  -1.723169018560e+02  -1.608428545402e+02 
7 1  7.319061546288e+02  -9.314939676617e+01  -1.497525979186e+02 
8 1  3.067440166052e+00   3.186429716965e+02  -1.783823571335e+02 
8
Step 900
1 1  4.206064324875e+01  -5.274212457693e+01  -6.218696265326e+01 
2 1  2.091237697775e+02  -1.144469562584e+01   2.685445749714e+02 
3 1  1.502520208668e+02  -8.227069968875e+01   4.752465523348e+02 
4 1 -3.539993595521e+02   5.739965080490e+01   2.584467173322e+02 
5 1 -2.746671756871e+02   5.179323540276e+01   8.710689326607e+01 
6 1  2.406025348655e+02   1.520130090082e+01   8.430773625496e+01 
7 1  4.305625449208e+02   9.343489272434e+01  -4.467013616885e+01 
8 1  1.297001152252e+02   2.999209150866e+02   1.397764295874e+02 
8
Step 1000
1 1  3.394279215138e+00   5.172014231070e+02   1.726782529823e+01 
2 1 -5.636198131664e+01   2.033890830011e+02  -3.326833234713e+01 
3 1  1.267196261014e+02  -1.283952652477e+02   6.045561435345e+02 
4 1 -2.186186491016e+02  -9.456483283057e+01   6.181493178112e+01 
5 1 -1.515529007097e+02   2.940892739074e+01   1.677801919084e+02 
6 1 -1.855389586677e+02  -2.316010746629e+02   2.839094035528e+02 
7 1  1.375739416020e+02   1.819455671480e+02   5.479264606304e+01 
8 1  4.693172055055e+00   2.731691069134e+02   1.549880183066e+02 
8
Step 1100
1 1 -3.349135112926e+01   1.512624578972e+02   4.620916537229e+02 
2 1 -4.536317940293e+01   2.030554710177e+01   1.832202665453e+02 
3 1 -2.035899674920e+02  -2.653465775630e+01   2.411450835352e+02 
4 1 -1.652862410266e+02  -1.024203811410e+01  -8.125555344285e+01 
5 1 -2.569576840690e+02   8.732534629781e+01  -1.706483046174e+02 
6 1 -9.973258615483e+01  -1.248604053361e+02   2.188558576843e+02 
7 1  9.230311266265e+01   1.540858014989e+02  -2.192096691340e+02 
8 1 -3.429042696597e+02  -2.488274555117e+02   3.427669162682e+01 
8
Step 1200
1 1 -3.571240698349e+01  -8.007433831161e+01   6.939571538201e+01 
2 1 -5.223137885416e+01   1.959545188096e+02  -1.360655659427e+02 
3 1 -4.982476174989e+01   1.323002008617e+02  -1.019625898866e+02 
4 1 -3.977072728029e+01   1.142986614116e+02   2.717967064493e+02 
5 1  1.923323071301e+02   3.183256985559e+02  -7.584769814701e+01 
6 1 -1.039762412789e+02  -1.362805909677e+02  -6.622686324440e+01 
7 1 -1.063210112092e+02   2.725547926086e+02  -1.009874526108e+01 
8 1 -1.639371143037e+02  -1.271470108818e+02  -5.417418547149e+01 
8
Step 1300
1 1 -4.913477283336e+02  -2.608148568449e+02   1.012391240963e+02 
2 1 -1.297359520095e+02   4.299813489396e+01   3.296704180574e+01 
3 1  5.922443159877e+01   1.725496915297e+02  -1.599760109430e+02 
4 1 -6.389403566946e+01   6.658447433160e+01   2.070973642941e+02 
5 1 -3.929368373262e+02  -2.107576093850e+02   3.833571217918e+01 
6 1 -2.303811336666e+02   2.053059836646e+02  -5.187761999586e+02 
7 1 -1.171992611818e+02  -7.210446723380e+01  -7.334138803418e+00 
8 1 -4.545291554388e+02   2.179975500767e+01  -3.161329589763e+02 
8
Step 1400
1 1  1.808813821609e+02   2.215930318001e+02  -9.739641205103e+01 
2 1  2.122761785775e+02   8.806444825686e+01   7.042097568238e+01 
3 1  2.348128108609e+02  -2.347603784778e+01  -2.251511015129e+00 
4 1 -1.710620968238e+02   2.302917275420e+02   1.186053131143e+02 
5 1 -4.081422453023e+02  -3.459165335067e+02   1.095355490303e+02 
6 1  1.605188769773e+02   3.394878619963e+02   4.709886302550e+01 
7 1 -5.071935460783e+02  -1.464846671492e+02  -2.550559150504e+02 
8 1  1.840137605338e+02  -1.161444121481e+01  -3.212274753828e+02 
8
Step 1500
1 1  2.949826061933e+02  -1.545359134975e+02  -2.366426668086e+02 
2 1  2.018259700166e+02  -1.034176081816e+02   1.072278602164e+02 
3 1  1.279803235064e+02   7.313505214696e+01  -1.892012345731e+02 
4 1  2.094283092947e+02   2.601576407308e+01   1.437906146756e+01 
5 1 -1.655709557057e+02  -5.878708605718e+02   8.982806390183e+01 
6 1  1.025963416454e+02   1.088793523032e+02   1.452176315020e+02 
7 1 -2.430845768287e+02   1.860080756749e+02  -1.497001967484e+02 
8 1  1.645173113307e+02   5.476297987799e+01   1.973589893793e+01 
8
Step 1600
1 1 -7.134977558753e+01  -1.452786066041e+02  -1.519352557469e+02 
2 1  2.364237574997e+01   2.805686231613e+02   7.641547417025e+01 
3 1 -3.775858119367e+02  -2.929404465460e+02  -3.881249820375e+01 
4 1 -2.545832957471e+02   9.223684532418e-01  -2.263733412196e+02 
5 1  1.955230337630e+02  -1.578818486409e+02   2.616146965881e+02 
6 1  2.314992027128e+02   1.692278280792e+02   1.732970380866e+02 
7 1 -4.173763287310e+01   1.901755278255e+02   2.616482795013e+02 
8 1  9.435548917442e+01   5.570193058819e+00   1.637973162402e+02 
8
Step 1700
1 1 -5.647761028989e+02   7.028821536665e+01   2.197533268446e+02 
2 1 -1.601975110951e+02   5.545195719690e+01   1.535573719014e+02 
3 1 -9.823165107246e+01  -1.210543236279e+02  -2.478894569467e+02 
4 1  5.344759182982e+01  -1.804065199746e+02  -3.121865471949e+02 
5 1  1.044120291282e+02   2.222387364192e+01   5.296008894607e+01 
6 1 -1.428698331496e+02   2.741765382796e+02  -2.908161029852e+00 
7 1  2.358326727113e+02   6.954528993244e+01   5.525970302518e+01 
8 1 -1.623413552263e+02   2.503790784303e+02  -1.219701813575e+02 
8
Step 1800
1 1  1.301959097409e+02   5.593650443448e+02   2.551131406588e+02 
2 1 -3.640428652965e+02  -1.224460020462e+02   2.791680555437e+02 
3 1  1.080972163924e+02  -2.324710093457e+02   1.137152542679e+02 
4 1 -1.445754244158e+02  -1.236499608162e+02  -3.670270130455e+02 
5 1  2.395005325881e+02   2.162293773449e+02  -2.120511896393e+02 
6 1 -1.166198614347e+02   1.139883279371e+01  -3.561943833079e+01 
7 1  1.560123066300e+02  -3.218634470143e+02   3.766214042666e+02 
8 1 -9.928571098399e+01   8.822775005585e+01  -2.672683413771e+02 
8
Step 1900
1 1 -6.116807818212e+00   5.620564544287e+01  -1.242756437599e+02 
2 1 -7.490058863628e+01   4.596105075946e+02  -4.118512636400e+02 
3 1  3.336657177622e+01  -4.967896261793e+01  -7.647296910090e+01 
4 1  4.437933297543e+01  -8.712721361197e+01   1.709493698975e+02 
5 1 -1.398315350455e+02   2.913961991336e+02  -1.563456022402e+02 
6 1  5.887420393360e+01  -4.745634507047e+02  -4.920949071305e+01 
7 1  1.314506984215e+02  -5.987225741192e+01  -2.250576057834e+00 
8 1 -1.684638461646e+02  -3.938568585953e+02  -5.479579587111e+01 
8
Step 2000
1 1  7.584843400305e+01   1.364083863235e+02  -1.154887774575e+02 
2 1 -3.801656388413e+01   1.920771578325e+02  -5.942716799487e+02 
3 1  3.398634680891e+02  -1.679324825910e+02   8.410097840643e+01 
4 1  9.854695881151e+01   9.677408705293e+01   2.417171500352e+02 
5 1 -2.870780624584e+02   2.233665679557e+02   1.726414677841e+02 
6 1  8.623661944308e+01  -3.406930808352e+02   5.022458149524e+02 
7 1 -1.109079815138e+02   1.085154774196e+02   6.012825233461e+00 
8 1  2.674915404260e+01  -3.203801366204e+01  -1.391181381466e+02 
8
Step 2100
1 1 -4.772653083391e+01   9.214826113284e+00  -1.369027559154e+02 
2 1 -4.904199232323e+01  -3.020309132681e+02  -5.161014801288e+01 
3 1  1.235598241762e+02   3.035949694658e+02  -8.075737380232e+01 
4 1 -8.128746017285e+01   1.234859057660e+02   1.530284137950e+02 
5 1 -8.300760046296e+01   1.544258771064e+02  -7.256991860268e+01 
6 1 -2.641931622745e+01  -2.690213429040e+01   4.923256531575e+01 
7 1 -2.713632100828e+02  -6.454826948532e+01  -2.256875170419e+02 
8 1 -6.341697147865e+00  -4.009171184997e+02  -8.068238381444e+01 
8
Step 2200
1 1  1.267824889881e+02  -1.242509849946e+02   1.033945621271e+02 
2 1  1.091274906929e+02   1.541584390430e+02  -1.067759995807e+02 
3 1  8.978985849874e+01   3.838472614262e+01   2.944524027082e+01 
4 1  1.656357639736e+02   5.486454872320e+01   5.388880056978e+01 
5 1  7.172401258917e+01   1.784229144087e+02  -5.181810685607e+01 
6 1 -1.617693215973e+02  -5.526959848032e+01  -2.965580285407e+01 
7 1  2.862614945166e+01   4.502493750492e+01   1.117264086991e+02 
8 1  1.605266398069e+01  -2.637545888371e+02   2.683973841016e+02 
8
Step 2300
1 1  2.175297833535e+02  -1.018694238361e+02   8.975441029245e+01 
2 1 -1.152433142426e+02   7.551202146321e+01   2.619917270271e+02 
3 1  2.309067340759e+02  -2.420915903912e+02   2.552559441503e+02 
4 1 -1.486693346529e+02   2.001440279375e+02   3.058366089028e+01 
5 1 -3.331958048278e+02  -4.527207570383e+01  -1.027774257238e+02 
6 1 -4.563178556383e+01   3.757252824766e+02   1.240561518155e+02 
7 1  1.959701977806e+01   4.153575926400e+01  -1.715872893495e+02 
8 1  2.708769676424e+02  -8.981585194012e+01   3.317408707886e+02 
8
Step 2400
1 1  1.877828713749e+02  -2.480282639566e+02   1.781672972490e+02 
2 1 -2.053312555849e+02  -1.196100163180e+02   4.195291434507e+02 
3 1 -1.556587719361e+02   9.959366067029e+00   1.732463159743e+02 
4 1  5.888309594626e+01   1.426941774881e+02  -1.134865555403e+02 
5 1 -2.150990157873e+01   5.161743945593e+01  -1.368156897202e+02 
6 1 -1.167949352141e+02   1.811003508831e+02  -1.105045212521e+02 
7 1  4.376756305620e+02  -3.726709137116e+01   2.463872784690e+02 
8 1  2.299501812312e+02  -4.166154876780e+00   5.852394157874e+01 
8
Step 2500
1 1  1.636366649338e+01  -3.186108018843e+02  -1.143168287974e+02 
2 1  8.878091287023e+01   2.590434970495e+02   1.654741709961e+02 
3 1 -3.247623507966e+02   1.262569022188e+02   1.704439257178e+02 
4 1 -7.263857144336e+01  -1.699541748353e+02   7.606632012467e+01 
5 1  5.847679495203e+01  -7.989988714330e+01  -2.190738784938e+02 
6 1  3.105206895079e+02  -2.862133295145e+02  -3.936730661899e+02 
7 1 -1.360006127579e+01   1.179325694298e+02   1.710291675455e+02 
8 1 -1.240720284228e+02   2.401576195823e+02  -1.200102550695e+02 
8
Step 2600
1 1  1.334786905495e+02  -1.225598525902e+02  -2.035665506561e+02 
2 1 -1.737752239519e+02  -1.501683816295e+02  -1.053267246179e+02 
3 1 -2.039353419043e+02  -2.272610540750e+02   1.174011488223e+02 
4 1  1.578078923920e+02   3.590565161425e+01   2.321469278333e+02 
5 1  9.147629583892e+01  -4.178894568255e+02  -1.615304408959e+02 
6 1 -4.473073216781e+01   8.853101145179e+01  -1.086401091748e+01 
7 1  1.512901042490e+02   6.717707552142e+01   2.047354110712e+02 
8 1 -8.231493032642e+01   1.876801902095e+02  -1.524771034619e+02 
8
Step 2700
1 1  1.060626776134e+02   7.213535416432e+01  -8.069797017858e+01 
2 1  1.444335138597e+02   9.191337062877e+00   2.286303826730e+02 
3 1 -1.881069133429e+02   8.930245376920e+01  -8.881898371335e+01 
4 1  5.356151880118e+01  -2.503721198951e+02  -7.107686663255e+01 
5 1 -2.823967987367e+01  -2.234386721936e+02   1.906502788746e+02 
6 1 -1.528312157272e+02   1.393073035670e+02  -6.073868064406e+01 
7 1  1.847580409488e+02   4.863640286983e+01  -5.877014713787e+01 
8 1 -1.715838741879e+02   1.255017930267e+02  -2.852208724185e+02 
8
Step 2800
1 1 -1.581774987797e+02  -1.011877726687e+02  -2.754884290554e+02 
2 1 -3.744866342665e+01   7.278429781848e+01  -1.493843770342e+02 
3 1 -2.026524949288e+02   7.445722090695e+01  -7.177710237976e+01 
4 1  2.033423319833e+01  -2.526731373201e+02  -1.077733442986e+02 
5 1 -7.470001780161e+01  -2.900383469217e+01  -4.325791550070e+01 
6 1 -8.637000144103e+01   9.831882129557e+01   3.213411745224e+02 
7 1 -1.776499411294e+02  -4.212271655135e+02  -1.101173740815e+02 
8 1  1.042124963241e+02   5.632644520504e+01  -2.609219472134e+02 
8
Step 2900
1 1 -4.236481849819e-01   3.925944788570e+01   1.368495135417e+01 
2 1  3.723920538164e+01   3.458534017537e+01  -2.880551787188e+01 
3 1 -9.106295668952e+01   1.494920416084e+02  -5.872391419550e+01 
4 1 -8.157886613375e+01  -5.087059599640e+02   4.651017943669e+01 
5 1 -1.813474993352e+02   9.008618178898e+01  -3.206704260772e+02 
6 1 -2.767420293735e+02   8.726651961547e+01  -1.993708219462e+02 
7 1 -1.042207907055e+02  -4.131661413426e+02  -6.212444646484e+01 
8 1 -1.983917362244e+02   4.106970823809e+02   5.909574972961e+01 
8
Step 3000
1 1 -1.116264145004e+01   2.362105296633e+02   3.289342400336e+01 
2 1  8.960227122406e+01  -1.624380558374e+02  -1.302322134621e+02 
3 1  2.493099587014e+02   3.800958962097e+01   1.913077710410e+01 
4 1 -3.974967413466e+02   4.633605200034e+01   1.472743279780e+01 
5 1  2.851477732038e+01   2.499091053387e+02  -4.924278965232e+01 
6 1  2.430005493032e+01  -6.791249947956e+01  -2.340965310980e+02 
7 1 -1.508034217434e+02  -1.954478178073e+02  -1.407533374199e+02 
8 1 -4.270694603796e+02   1.837989264917e+02  -3.128756662086e+02 
8
Step 3100
1 1  2.335537337277e+02  -7.817205604461e+01   7.082944885280e+01 
2 1  3.749912544847e+02   1.753385705885e+01  -1.120056205598e+02 
3 1  7.464879860160e+01  -1.589816350751e+02  -2.208469433100e+02 
4 1  1.412842318933e+02   2.394537939000e+02  -7.919334365395e+01 
5 1  3.720706074798e+01   2.583602522900e+02   3.290816931582e+02 
6 1  2.212166556647e+01  -3.268453493550e+01   2.220571099005e+00 
7 1 -3.684836904731e+01  -8.078531099042e+01   1.388522344389e+01 
8 1 -3.211047615202e+02   1.116391189967e+02   2.585585500063e+02 
8
Step 3200
1 1  1.709360675023e+02  -6.025784081025e+01   2.294436806758e+02 
2 1  4.102340963592e+02  -1.444083038980e+02  -2.900331842333e+02 
3 1  2.391848385657e+02  -4.498547182437e+01  -9.862185680019e+01 
4 1 -3.006337686010e+02   2.811146898191e+02  -7.790789703368e-01 
5 1  2.213737264932e+01   1.563377451151e+02   3.668610009373e+02 
6 1  1.792068396448e+02   1.894445997588e+02   2.593764425321e+02 
7 1  1.561979903893e+02  -1.032847060189e+02   5.058677594116e+01 
8 1 -1.033324460701e+00   1.052860705823e+02  -2.306492487771e+02 
8
Step 3300
1 1 -1.161327838133e+02   2.206591920779e+01  -1.315669368130e+02 
2 1  3.143399793178e+02  -4.895562994654e+01  -6.517606578651e+01 
3 1  2.037576353815e+02   2.537795936262e+02  -2.683745315207e+02 
4 1  7.156875623338e+01   9.446898155251e+01  -1.535253365531e+02 
5 1  2.061920881901e+02   4.915599635422e+01   4.910187200517e+02 
6 1  3.794421371313e+02  -1.817286985409e+02   1.780673508192e+02 
7 1  4.578815787376e+01  -4.772114723383e+01  -8.628052514454e+01 
8 1 -1.087749451827e+01  -1.096064067598e+02   3.463054530536e+02 
8
Step 3400
1 1 -4.323520021265e+02  -4.498692551092e+02   4.253308687313e+02 
2 1 -1.791439611312e+02  -4.165015049755e+02  -2.192285549068e+01 
3 1 -6.658085323326e+01   2.314476914732e+01   7.698561460136e+01 
4 1  3.574092064502e+02  -1.312715528045e+01  -7.395858555050e+01 
5 1  2.020905474220e+02   7.699620906129e+01   4.986390778591e+01 
6 1  3.042828462067e+02  -8.415917577621e+01   5.595960714803e+00 
7 1  1.074842893527e+02   2.093266325931e+00   1.247077213796e+02 
8 1 -3.362357699087e+01  -9.569301928781e+01   6.098633273464e+01 
8
Step 3500
1 1 -3.472890394751e+01  -6.744919906121e+01   8.995433429601e+01 
2 1 -2.381432826736e+01   2.290691593128e+01   1.198764472325e+02 
3 1  1.159369588897e+02   2.930980167200e+02   2.533784828898e+02 
4 1 -1.222912672633e+01  -7.124253269787e+01  -1.241544682192e+02 
5 1 -6.170300103361e+00   4.861586911663e+00   1.249018733268e+02 
6 1  5.738612085448e+02   2.677159808934e+02  -3.657788605145e+02 
7 1  1.834541515981e+02  -3.469446510519e+01  -6.715494562124e+01 
8 1 -6.191986628448e+00  -4.708121891912e+02  -5.614590585651e+01 
8
Step 3600
1 1 -1.388973443182e+02   1.635716533939e+02  -8.873100464530e+01 
2 1  2.647711143218e+00   2.290980133477e+02   2.194639810945e+02 
3 1 -1.164236971098e+02   4.959293875644e+01   3.745663172335e+01 
4 1 -6.504525345258e+01  -3.083400160486e+01   2.453774797228e+01 
5 1 -3.469876249164e+02  -3.046909445327e+02  -2.525028433951e+02 
6 1 -2.169067467095e+02  -7.614075180212e+01  -1.488892639051e+02 
7 1  1.255904595706e+02   1.158805808633e+02  -1.757623169430e+01 
8 1 -5.697560919806e+01  -3.550352978553e+02  -7.352794665373e+01 
8
Step 3700
1 1  4.263637285003e+02  -1.459964531633e+02  -2.237386295395e+00 
2 1 -3.096445153752e+02  -4.334758730891e+01   2.095519751056e+02 
3 1 -3.658242566244e+01  -3.155369770057e+02  -6.072547077955e+01 
4 1  4.134782294619e+01  -7.176025630441e+01  -1.696537554969e+02 
5 1 -1.630764630937e+02  -6.861699009720e+01  -4.452819332239e+02 
6 1 -2.501481693725e+02  -4.157487979389e+01   6.972264638012e+01 
7 1 -1.555165937168e+02  -2.120420976066e+01   1.522569455886e+02 
8 1  4.040400363900e+02  -3.430331708741e+01  -2.402446309494e+02 
8
Step 3800
1 1  2.367394514498e+02   5.958334405675e+01  -6.273439633032e+01 
2 1  4.732525166154e+01  -1.205827393366e+02   2.632149133855e+02 
3 1 -8.278967629526e+01   2.270587882796e+01   1.762848243781e+01 
4 1  1.569844001019e+02  -6.854239519726e+01   3.981063519486e+01 
5 1 -1.244900169065e+02  -2.570910683189e+01  -1.602859659563e+02 
6 1 -6.338835686370e+01  -3.283339041460e+02   2.620720240040e+02 
7 1 -6.961558183934e+01   9.740248156456e+01  -9.224485213135e+01 
8 1  2.907383344734e+02   4.905991695499e+01  -1.863186846303e+02 
8
Step 3900
1 1  5.041363544454e+01   5.116633094004e+02  -2.832191432280e+01 
2 1 -1.032469645934e+02  -2.274124916238e+02  -2.340670770403e+01 
3 1 -2.699389862113e+02   2.148073544015e+02  -1.297997802096e+02 
4 1  3.238578367068e+02   4.392773968961e+01  -1.989882514115e+02 
5 1  2.020819415210e+02   2.351584252404e+01   2.585135983132e+02 
6 1  7.164817033996e+01   6.600290392299e+01   3.521879230670e+02 
7 1 -4.123595235605e+01   7.778616982534e+01   1.625141914579e+02 
8 1  9.280240478173e+01   2.676956469514e+02  -8.299271721766e+01 
8
Step 4000
1 1  1.667339054321e+02   1.853159446115e+02   1.042456413656e+02 
2 1 -5.982059595939e+01   2.213186979467e+02  -3.747329796906e+01 
3 1 -2.345990399196e+02   1.046724512459e+02   1.569614594411e+02 
4 1  4.418085186649e+02   1.904285761858e+02  -9.569903540321e+01 
5 1 -8.145287607729e+01  -4.007110481955e+02   1.901475508440e+01 
6 1  1.032414353129e+02   5.283130718631e+01   1.205212762212e+02 
7 1 -2.186651646062e+02   1.925705447247e+01  -1.570140165048e+01 
8 1  1.009743667912e+02  -1.148183925625e+02  -5.095446423331e+01 
8
Step 4100
1 1 -2.639556972228e+02   8.900761732432e+01   4.114665864894e+02 
2 1  1.110240369332e+02   5.490193839929e+01  -9.783959935731e+01 
3 1 -2.111120893719e+02   9.897648325869e+01  -1.966679208154e+02 
4 1  1.707469562104e+02   2.051442020866e+01   3.999203240283e+01 
5 1 -1.117584864249e+02  -2.236783043979e+02   2.194602517025e+02 
6 1 -4.205398618844e+01   1.297958180676e+02  -4.234724241382e+02 
7 1 -1.820290627024e+02   3.895232920174e+01   7.131053470366e+01 
8 1 -1.851543405243e+02  -1.316711224245e+02   2.523198304893e+02 
8
Step 4200
1 1 -9.782979614448e+01  -3.029458658615e+02   9.755965470080e+01 
2 1  5.714010714539e+01   4.957310872637e+01   9.227809421608e+01 
3 1 -1.330652942325e+02  -2.457426674120e+02   1.897777499904e+02 
4 1 -8.863460460140e+01   2.302662129701e+02   1.497746338257e+02 
5 1 -6.619026470068e+01   6.903699897571e+01  -1.337527489296e+02 
6 1 -9.120255393707e+01   2.591824749871e+02  -5.064260725129e+02 
7 1  9.111561545798e+01  -1.475922400894e+02  -1.634970045584e+01 
8 1 -7.279738106878e+01  -9.197022921829e+00  -1.760024167491e+02 
8
Step 4300
1 1 -1.243939306859e+02  -2.581560360091e+01  -2.586234821593e+02 
2 1  2.999518425548e+02   8.167061771316e+01  -1.006637723248e+02 
3 1  2.280605710844e+02  -9.452274168699e+01   1.957766043290e+02 
4 1  4.721925725253e+01   8.115225136039e+01  -4.845401727195e+01 
5 1  2.610877864580e+02   1.474227065878e+02   4.219458952129e+01 
6 1 -1.959368387205e+02  -2.262848858285e+02   9.457573726392e+01 
7 1  1.275935802055e-01  -2.684325946831e+02   2.501723692172e+01 
8 1 -1.038659067702e+02   1.021650105367e+02  -1.129168095235e+02 
8
Step 4400
1 1  1.642570143510e+01   2.532728343104e+02  -2.393090897888e+02 
2 1  8.166655640019e+01   2.678709420460e+01  -1.793007296936e+02 
3 1  5.175219137748e+01  -6.145595995005e+01  -4.497856692327e+01 
4 1  9.800947170840e+01   1.035427311602e+02  -1.142318291544e+02 
5 1 -2.923504047150e+01   3.032684747879e+02   1.131563713800e+02 
6 1 -1.020139229297e+02  -4.012636968673e+02   2.573294789369e+02 
7 1  7.174934470717e+01  -2.991462553262e+02  -1.474429767115e+02 
8 1 -2.503610403927e+02  -1.634643596933e+02   1.947364467628e+02 
8
Step 4500
1 1 -1.050057569852e+02   1.093670794291e+02  -2.614376030323e+02 
2 1  1.538761028212e+02  -4.023902459801e+02  -9.513580920944e+01 
3 1  6.757054156927e+01   1.013707749600e+02  -1.835091735244e+02 
4 1  6.425533698719e+01  -1.813968165364e+02  -2.341445154082e+01 
5 1 -2.960666562737e+01   8.386592411615e+01  -1.270746704257e+02 
6 1  1.073234254818e+01   5.807264483961e+01   5.178197500402e+02 
7 1 -8.850673624787e+01   9.040971367231e+01   1.028977527291e+01 
8 1  5.286339449879e+01  -2.521516101144e+02  -2.152024352938e+02 
8
Step 4600
1 1 -2.473213525971e+02   8.840698235279e+01  -4.222015102357e+01 
2 1 -1.012392432839e+02  -3.055060592158e+02   9.247315991594e+01 
3 1  8.745554930717e+01  -3.050816518685e+02  -7.004356081975e+01 
4 1 -5.053185289389e+01   3.472889890356e+01  -3.714618535945e+02 
5 1  2.082223085997e+02  -1.467454429983e+02  -8.884055589981e+01 
6 1 -5.541101701448e+01   9.575928768386e+01   6.187795774296e+02 
7 1  1.598999114863e+02  -5.624570570733e+01   4.454077605311e+01 
8 1  7.758377107288e+01   4.848104279007e+01   1.036396741674e+02 
8
Step 4700
1 1  4.198697720566e+01  -2.718629202449e+01  -1.693498968036e+02 
2 1 -1.159013528890e+02  -8.029446172548e+01   1.512291360684e+02 
3 1  3.038298955249e+02  -3.476687976587e+02   2.452760437836e+02 
4 1 -1.500714781053e+01   6.918633823875e+00  -2.717104076286e+02 
5 1 -1.730458074721e+02   5.606890913913e+01   7.544453187679e+01 
6 1  3.117447659750e+02   2.178949995960e+02  -1.592950330065e+01 
7 1  1.990341384871e+02  -3.458331834898e+01   1.875144344060e+01 
8 1  2.608546111605e+01   1.668993016891e+02   2.413076020311e+02 
8
Step 4800
1 1  1.483734247980e+02   2.935366443759e-01   1.618694459317e+02 
2 1 -3.486721433226e+02  -3.352959613793e+02  -9.841720236769e+01 
3 1 -4.119624141554e+01  -1.286159124576e+02   1.394449449537e+02 
4 1 -2.343421615512e+02  -1.685738956523e+02  -3.077363377921e+01 
5 1  2.165710653600e+02   2.428839876072e+02   7.947375237211e+01 
6 1  8.791947534505e+01  -1.187536919328e+02  -3.673728524486e+02 
7 1 -2.968420817200e+02  -4.207422268104e+02  -4.857489795426e+01 
8 1 -1.263379731225e+02   2.260640990192e+02  -1.142964996522e+02 
8
Step 4900
1 1  5.747285697862e+02  -1.423311834234e+02   1.992912852211e+02 
2 1 -2.458305504973e+02  -3.814067190859e+01   3.234768475964e+02 
3 1  1.919114316249e+02   2.636158548663e+02   2.900812173232e+02 
4 1 -3.635121243118e+02  -6.062887340984e+01   5.570525185051e+01 
5 1 -2.142823754555e+02  -1.521178449446e+02  -4.723494897593e+01 
6 1 -4.020229127519e+02  -1.146707186836e+01  -4.526561816822e+02 
7 1 -2.262340795329e+02  -2.048122008324e+02   6.678494079885e+01 
8 1  6.819389181101e+01   1.127543257741e+02  -1.329624121348e+01 
8
Step 5000
1 1 -9.628323151167e+01   5.448819743500e+01  -5.447780940713e-01 
2 1 -5.914468413728e-01  -3.112089982445e+01   7.246179841294e+01 
3 1  2.729095090121e+01   4.560656925946e+01   3.346643496415e+02 
4 1  2.854106437849e+01   1.827307355519e+02  -9.463152120413e+01 
5 1  1.085028538593e+02  -1.094208197278e+02  -8.982940584504e+01 
6 1  1.317987249404e+02  -1.272783116619e+02  -3.246141639318e+02 
7 1  2.599756667955e+02   2.964030146333e+02   5.050512488943e+01 
8 1 -2.582605310051e+02  -2.087200761578e+02   3.082275728394e+01 
8
Step 5100
1 1  7.137598574135e+01   5.706439569546e+02  -4.302257979867e+02 
2 1  2.614460312129e+02   2.755205614571e+02   1.628774711596e+02 
3 1  1.273094896158e+02  -8.745503852407e+00  -1.199264822638e+02 
4 1  2.922357754549e+02  -1.114237359675e+02   1.505764217509e+02 
5 1  6.323102633978e+01  -1.890840309921e+02   7.232067584822e+01 
6 1  2.147054669689e+02  -9.826032090285e+01  -1.360073788359e+02 
7 1  8.475106149410e+01   6.185713073895e+02  -9.223583385193e+01 
8 1 -1.743101216376e+02  -1.534807600018e+02   4.620791167803e+02 
8
Step 5200
1 1 -1.461769711579e+02  -1.813933684443e+02  -2.108810218413e+02 
2 1 -1.736078615726e+01   1.823077348670e+01   1.863729328965e+02 
3 1 -3.722855703265e+01   1.146037480522e+01  -2.122674233377e+02 
4 1  9.891754478971e+01  -5.273758873428e+01   2.259018432348e+02 
5 1  1.358801112268e+00   7.907352160806e+01   1.971565642522e+02 
6 1  1.489803818313e+02   3.987644507607e+01  -1.529700175207e+02 
7 1 -1.554116746144e+01   2.352916713426e+02  -1.523032909879e+02 
8 1 -1.085793523280e+02   1.509639221013e+02   5.016100769234e+02 
8
Step 5300
1 1 -1.130022774949e+01  -5.670082696948e+01   6.579802985107e+00 
2 1 -2.496402462944e+01  -2.230140073609e+01  -1.257820438524e+02 
3 1  8.396624819372e+01  -8.543726074031e+01  -3.086174396503e+02 
4 1  1.678732667098e+02  -3.917622717641e+01   2.006595057373e+02 
5 1  6.004150596091e+01  -9.858226918068e+01   1.700233735744e+02 
6 1  4.485052687122e+01   2.690226561069e+01   1.726794538072e+02 
7 1  3.757526988220e+01   6.569963820719e+01  -3.613931340318e+01 
8 1  2.398178097022e+02  -6.065421999191e+01   2.768340308633e+02 
8
Step 5400
1 1 -6.063615028412e+01  -1.785235291413e+02   2.271808962359e+01 
2 1  8.748964951977e+00   1.340042447044e+02  -7.651818492874e+01 
3 1  1.634382144363e+02  -1.619028240239e+02   9.209614244810e+01 
4 1  5.907247425536e+01   2.471645070338e+02   5.343978648967e+01 
5 1 -5.977107635087e+01  -2.929459673772e+02   2.618541030053e+01 
6 1  1.389051357951e+01   9.362856101486e+01  -1.589662774221e+01 