8
 Atoms. Timestep: 0
1 1  0.000000000000e+00   0.000000000000e+00   0.000000000000e+00 
2 1  0.000000000000e+00   0.000000000000e+00   0.000000000000e+00 
3 1  0.000000000000e+00   0.000000000000e+00   0.000000000000e+00 
4 1  0.000000000000e+00   0.000000000000e+00   0.000000000000e+00 
5 1  0.000000000000e+00   0.000000000000e+00   0.000000000000e+00 
6 1  0.000000000000e+00   0.000000000000e+00   0.000000000000e+00 
7 1  0.000000000000e+00   0.000000000000e+00   0.000000000000e+00 
8 1  0.000000000000e+00   0.000000000000e+00   0.000000000000e+00 
8
 Atoms. Timestep: 1000
1 1 -1.143758067349e-04  -7.916493875631e-05   2.045184870815e-04 
2 1 -2.744136394703e-05   2.797635189200e-05   2.014852959160e-04 
3 1  5.977487294752e-05   4.098335359143e-05   1.511460287271e-04 
4 1 -1.210893070280e-04  -1.743036387712e-04  -1.252129263287e-05 
5 1 -7.193102193374e-05   8.298938944927e-05  -2.891601606465e-05 
6 1 -8.441267288984e-05  -3.895667812881e-05  -2.350978878638e-05 
7 1  2.389440856161e-04  -1.010810133757e-04   6.143274464615e-05 
8 1  1.779257201895e-04   1.376064638764e-04   5.389712703517e-05 
8
 Atoms. Timestep: 2000
1 1 -2.098443611049e-04  -2.228331141853e-04   2.079886532425e-05 
2 1 -7.672368048939e-05   1.295711463779e-04   3.731561609706e-05 
3 1 -5.351214222874e-05  -3.946351001531e-05  -1.803704457613e-04 
4 1 -1.745628677351e-05   1.666393095298e-05   7.378977224308e-05 
5 1 -4.623230368203e-04   3.212889929254e-06  -1.687859052620e-04 
6 1  2.643255716712e-04   2.010792867146e-04  -1.121261685560e-04 
7 1  5.934011173754e-05  -8.325767847465e-05  -9.221131873635e-05 
8 1 -2.037811103967e-04  -3.446878667557e-05   1.190471786406e-05 
8
 Atoms. Timestep: 3000
1 1 -1.143697139344e-04  -1.818022044187e-04   2.260738077909e-05 
2 1  2.420611051338e-04  -1.878172729700e-04  -4.163564265303e-05 
3 1 -1.257115181454e-04   1.308422009331e-04   1.718195477576e-04 
4 1  6.162221936508e-05  -1.456480737805e-05  -5.605184474012e-05 
5 1 -2.023751973604e-04  -1.779896536154e-04   3.910541018497e-05 
6 1 -7.416163478461e-05   1.604450251236e-04  -5.194031235123e-06 
7 1  8.452650817794e-05  -2.844659750029e-04   8.009171107442e-05 
8 1 -4.737172904339e-05   1.711636721285e-04   1.341934765051e-04 
8
 Atoms. Timestep: 4000
1 1 -7.064038331465e-05  -1.762098014616e-04  -2.449736213742e-04 
2 1 -1.311265709666e-04   3.581388878771e-04  -1.199278379323e-04 
3 1 -2.266116265445e-05  -6.393087928715e-05  -5.783603753601e-05 
4 1  1.475987152930e-04  -8.751350358382e-06   7.311109021859e-05 
5 1 -3.429395890059e-05   9.753527542353e-05   6.373607824545e-05 
6 1  2.737347658945e-04   1.556415549778e-04   1.925001754724e-04 
7 1  1.216090490272e-04   7.356340239566e-05  -2.656684298062e-05 
8 1 -2.435918036064e-04   1.307767311501e-04   2.712842380454e-04 
8
 Atoms. Timestep: 5000
1 1 -1.738349692770e-05  -8.286204932674e-05   1.003460019046e-04 
2 1 -3.007295193967e-05   2.102367451283e-04   6.293494960585e-05 
3 1  1.482181260040e-05  -3.463277802797e-05   8.584316286302e-05 
4 1  1.560091868312e-04   1.003993906912e-04  -5.619676705188e-05 
5 1 -2.645804493788e-04  -5.424359372582e-05   8.499463396012e-06 
6 1  1.449007359029e-05   9.420874066135e-05  -1.568913872619e-04 
7 1  7.618740414535e-05   1.331025769927e-04  -3.791879004201e-05 
8 1 -6.388641633458e-05  -1.514426035358e-06  -3.962757199103e-05 
8
 Atoms. Timestep: 6000
1 1  1.577389502803e-05  -6.568805844819e-05  -2.046522845838e-05 
2 1  3.215481228251e-05   1.170576120543e-05  -1.323778574151e-04 
3 1 -2.824597141291e-04   1.285736426619e-04  -2.142425269489e-04 
4 1 -3.492106249128e-04   3.368780594159e-05   2.588056917051e-05 
5 1 -1.042886773189e-04  -1.250222459771e-04  -1.496714795892e-04 
6 1 -9.901301949922e-05   2.113118144424e-05  -1.125637793945e-04 
7 1  6.305855880473e-05   2.419230654852e-04   1.019314631835e-04 
8 1  6.967865423868e-06   2.385395980978e-04  -2.554834485317e-04 
8
 Atoms. Timestep: 7000
1 1 -3.520954834051e-05  -1.742087083103e-04  -1.873500064874e-04 
2 1 -1.295729419278e-04  -1.599043202089e-04  -2.874526595756e-04 
3 1  1.259032403931e-04   1.089938628197e-04   8.429644214560e-05 
4 1 -2.264146561743e-04  -1.538493088620e-04   2.016190957290e-04 
5 1 -5.619444174496e-05  -1.050385523730e-04   1.224706226267e-04 
6 1 -9.213346552851e-05  -1.031682895861e-05   6.393642140883e-05 
7 1  3.140027566257e-04   3.135826169908e-05   4.321720716552e-05 
8 1  1.773475373817e-04  -3.506314002177e-06   2.200470173767e-04 
8
 Atoms. Timestep: 8000
1 1 -2.521836899163e-04  -3.009637685576e-04  -7.628566117988e-05 
2 1 -5.118189716960e-05   1.916172966728e-04   1.430115071424e-05 
3 1 -2.426378547287e-04   7.924891239963e-05   1.661594987274e-04 
4 1  4.696389628049e-05   2.469895360635e-04  -2.454321313480e-04 
5 1  2.564066311400e-05  -4.080480593237e-04   6.484456030027e-06 
6 1  1.249133611357e-04  -1.311991225078e-04   1.440191651277e-04 
7 1  5.838000538476e-05   1.555567108883e-04   8.508304183050e-06 
8 1 -1.326178825355e-04   1.560507121943e-04  -1.013818585435e-04 
8
 Atoms. Timestep: 9000
1 1 -8.344200672442e-05  -7.944570473024e-05  -1.470338995238e-04 
2 1 -7.689906771358e-05   3.687024644165e-04   3.746494467463e-05 
3 1  5.959928342423e-05  -5.737248142799e-05  -3.785994737086e-05 
4 1 -2.901318523873e-04  -4.650281778997e-06  -1.293601043760e-05 
5 1  4.452663037153e-05  -1.582581386791e-04  -1.035501811719e-04 
6 1 -2.494277293173e-04   1.834457516014e-05   1.386279233827e-04 
7 1  1.505005336740e-04   1.845381196844e-04  -3.210269206051e-05 
8 1 -1.433162614267e-04  -1.515477043297e-04   4.104226360198e-04 
8
 Atoms. Timestep: 10000
1 1  1.728999586411e-04   1.972323289863e-04  -2.797872299697e-05 
2 1 -1.960069049358e-04  -1.991456645978e-05  -1.579808848806e-04 
3 1  7.870378331515e-05   5.966775680805e-05   1.036350015685e-04 
4 1 -1.256597960003e-04   4.244299393194e-04  -9.741764931474e-05 
5 1  1.822363402073e-04   5.066491899679e-05  -1.759879327326e-05 
6 1  1.111420503531e-04  -6.999942853003e-05  -1.390963924559e-04 
7 1  9.989734773367e-05   1.122538177047e-04  -2.289822467965e-05 
8 1 -2.483597094368e-05  -1.827906256015e-04   2.101868733569e-04 
8
 Atoms. Timestep: 11000
1 1 -1.917779974056e-04   7.505074887336e-05  -2.767208446108e-05 
2 1  1.827936243366e-04  -1.678644307593e-04   1.868201162980e-04 
3 1 -1.444521815106e-04  -1.230767531594e-04  -1.763312320516e-04 
4 1 -4.383085001242e-05  -1.263981226608e-04  -1.769760127320e-05 
5 1 -2.678329941974e-05   7.640025179737e-06   1.260583701135e-04 
6 1 -4.737850528075e-06  -3.207569238454e-05  -9.731674176533e-05 
7 1  7.764347975437e-05   1.544133781859e-04   1.976772864677e-04 
8 1  5.734004931885e-05   6.873105471982e-05  -5.801473452160e-05 
8
 Atoms. Timestep: 12000
1 1 -3.145989443778e-06   1.419008760574e-04   3.853790292684e-05 
2 1 -1.483652413628e-04  -6.614150890607e-05   1.853744884910e-05 
3 1 -1.720042367381e-04   1.918946652477e-04  -6.963132885655e-05 
4 1 -5.795763446300e-05  -6.939469778973e-05  -6.893939166314e-05 
5 1  4.129919047675e-05   1.184664971792e-04   6.201113120743e-05 
6 1  2.011364203900e-04   1.895804444879e-04   2.711952565587e-05 
7 1  8.493702406144e-05  -3.563928748498e-04   3.547746008528e-04 
8 1  2.904074840415e-04  -3.168354001960e-05  -1.725349958409e-04 
8
 Atoms. Timestep: 13000
1 1 -6.876145605105e-05   8.072020156090e-06   2.644822573957e-05 
2 1  3.688388565445e-05   1.448489334892e-05  -8.565008453474e-05 
3 1 -7.075884642116e-05  -2.313172503412e-04  -6.951393311290e-05 
4 1  1.305355820829e-04  -3.243743079692e-05  -3.884308322171e-05 
5 1 -3.380781014696e-05   2.322713662524e-04  -5.010398924163e-05 
6 1  2.722442607414e-04  -1.823462835567e-04  -1.027514180422e-04 
7 1 -5.879548923270e-05   1.918027315633e-04   9.793794751683e-05 
8 1 -4.507059377331e-06  -1.315407768211e-04  -2.645005881412e-04 
8
 Atoms. Timestep: 14000
1 1 -1.786367191774e-04   2.194810908890e-04   1.510706320719e-04 
2 1  1.111260358792e-04  -3.165866798853e-05   1.529468041957e-05 
3 1 -8.624529934986e-05  -1.971439101901e-04  -7.187863684494e-05 
4 1  2.003575416460e-05   8.809243360085e-05   3.068786428923e-04 
5 1  2.218283305953e-04  -5.348296031754e-05  -9.917050308503e-05 
6 1 -2.178989284914e-06   1.423289293779e-04   1.045417904799e-04 
7 1  1.602831070619e-04  -1.093226673614e-04   2.614852854207e-04 
8 1 -5.877376814073e-05   4.818400573715e-05   1.192928871418e-04 
8
 Atoms. Timestep: 15000
1 1  1.993238744580e-05  -9.411173908193e-05  -1.415599770268e-04 
2 1  3.857026636980e-08  -2.354018121072e-04  -1.403976291608e-04 
3 1  1.006598777767e-04  -1.121344854538e-04   4.939736454200e-05 
4 1 -3.277517420661e-05   6.893351830029e-05   1.645664120396e-04 
5 1 -8.543799030489e-05  -7.252159269925e-05  -3.905448945851e-04 
6 1 -2.401322208938e-05  -2.141375270224e-04   8.369031273470e-05 
7 1 -8.294148993754e-06   7.076591990126e-05  -3.316604899291e-04 
8 1  1.270981601860e-04   2.599899910001e-04   9.768791065241e-05 
8
 Atoms. Timestep: 16000
1 1 -2.297726042046e-04  -4.127440503698e-05  -7.433881117992e-05 
2 1 -1.424805410721e-04  -1.552991161170e-05   5.808013578559e-05 
3 1 -1.449510401125e-05  -2.952565732796e-04  -6.115573700888e-05 
4 1  1.264240275619e-04   2.906244903200e-05   5.117933119937e-05 
5 1 -1.323541190599e-04  -9.691496503214e-05   2.247657837769e-04 
6 1  6.041443697513e-05  -4.318335420022e-05   6.458745395787e-07 
7 1  3.206525072367e-06  -1.276867040966e-04   2.393522968112e-04 
8 1 -7.805960030746e-05   1.046292549396e-04  -2.322199713962e-04 
8
 Atoms. Timestep: 17000
1 1 -3.373418185059e-05   2.355260930206e-05   5.681405989633e-05 
2 1  1.376761042739e-04   1.308220304452e-04   4.456792192168e-04 
3 1 -3.932847744265e-05  -2.979808162806e-04  -3.293960185774e-05 
4 1 -1.866248122776e-04  -9.897284694037e-05  -4.958222325845e-05 
5 1 -1.351603785189e-04  -3.854238996880e-05  -2.151027567752e-05 
6 1  1.152470353856e-04   9.926652948672e-05   4.935672446903e-04 
7 1 -1.920506921044e-04   3.758268486398e-04   9.008927326387e-05 
8 1 -4.758638585736e-05  -1.018603186428e-04   7.826157122866e-05 
8
 Atoms. Timestep: 18000
1 1  9.129193363489e-05  -5.338519821961e-05   4.447405123748e-05 
2 1 -3.805559150249e-05   2.492055766649e-04   1.312812562200e-04 
3 1  2.259364562446e-04  -2.473580523624e-05   2.531112505393e-05 
4 1  1.914234058794e-04  -1.728032167553e-04   8.818196378600e-05 
5 1  3.217193818375e-06   4.009393894574e-05  -9.067232615633e-05 
6 1  5.513600522631e-05  -4.103952447517e-05   4.437769104512e-04 
7 1 -1.261533238985e-04   9.312483360240e-05  -1.985070600919e-04 
8 1 -1.309839261907e-04  -3.394155768515e-05   4.293744405148e-05 
8
 Atoms. Timestep: 19000
1 1 -1.117804692471e-04   1.628036387464e-04  -6.771726452964e-05 
2 1  1.769153238252e-04  -8.893307039766e-05   1.939613334178e-04 
3 1  4.258815513448e-05   2.150820610152e-04   7.100396311727e-05 
4 1 -4.074592065074e-05  -8.083292968262e-05  -2.750275617424e-04 
5 1  2.001924474759e-04   8.300983101861e-05  -4.319109058255e-06 
6 1 -6.187381479927e-05   7.940059276430e-05   1.905873642926e-04 
7 1  5.719574850680e-05   2.046886936818e-04  -4.377887315172e-05 
8 1 -9.931550073289e-05  -8.874250985398e-06   1.173899373730e-04 
8
 Atoms. Timestep: 20000
1 1 -2.046045763629e-04   8.642843805534e-05  -1.732689491556e-04 
2 1  2.209074439086e-05   1.909246445352e-04   1.395229179553e-04 
3 1  7.981612503350e-05  -2.235782667500e-04   2.513270485269e-04 
4 1  1.360778416018e-04  -1.520259523034e-04  -9.461355611442e-05 
5 1 -9.437645274151e-05  -5.500016802023e-05  -6.050441682749e-05 
6 1  5.850710502267e-05   2.341106558916e-04   3.617942907622e-04 
7 1 -5.743488840316e-05   3.926901585120e-05   1.990962365273e-04 
8 1  7.887003383749e-05  -1.754998750173e-04  -7.440783572043e-06 
8
 Atoms. Timestep: 21000
1 1  7.725786031715e-05  -1.797869373948e-04   1.480490562446e-04 
2 1 -2.001945570052e-04   2.312003089387e-04   3.400389997939e-05 
3 1 -2.199285868741e-04   2.673125245809e-04   9.219536251290e-05 
4 1  4.233497867208e-04  -3.838242679240e-05   1.952432239000e-05 
5 1  3.677345335299e-04   2.398220080462e-04  -9.703542286521e-05 
6 1 -8.364522805892e-06   7.541666796807e-05   7.768682074362e-05 
7 1 -1.306680485565e-04   1.379313832504e-04  -6.135520486195e-05 
8 1 -3.228004764951e-04   7.774478805649e-05   9.335203554933e-06 
8
 Atoms. Timestep: 22000
1 1 -1.056038120085e-04  -1.600684949956e-05  -1.548011232676e-04 
2 1  6.196518861426e-06  -2.327813582867e-05   2.633485057771e-04 
3 1 -4.592244634505e-05   1.678033304795e-04  -3.483312412785e-05 
4 1  2.612058134810e-04   7.061133284805e-05  -1.314984757348e-04 
5 1  1.049092630974e-04  -8.206174583047e-05   6.810108775353e-05 
6 1  1.733817105465e-04  -3.013148400199e-05  -6.470829280635e-05 
7 1  5.260946188848e-06  -1.035927049198e-04  -7.709124493543e-05 
8 1  5.432489591114e-05  -7.633465127178e-05  -4.813646260930e-05 
8
 Atoms. Timestep: 23000
1 1  3.683068555069e-06  -7.090959470979e-05   1.450537661915e-04 
2 1 -3.029203073004e-05  -2.970426617898e-06   9.693529890504e-05 
3 1  1.516341879124e-04  -9.133753839901e-05  -3.784803136990e-05 
4 1  9.635649763070e-05  -2.257044016761e-04   4.475520369611e-05 
5 1  2.308744541766e-05   1.275208351659e-04   7.407654634146e-05 
6 1  1.123480672133e-04  -5.702508243137e-05   2.453270925084e-05 
7 1 -1.585341081524e-04  -2.774616800710e-04   1.488768958616e-04 
8 1 -5.348701283012e-05   2.357579398556e-04   1.790438247460e-04 
8
 Atoms. Timestep: 24000
1 1  6.828330277272e-05   3.840287155258e-05  -1.759858754207e-04 
2 1  2.879059379388e-05  -1.526909027113e-04  -8.127221941321e-06 
3 1  3.026796497917e-05   1.942561419273e-04  -3.736903845587e-05 
4 1  2.092437056527e-04   2.098166498210e-04   5.723162514780e-05 
5 1 -1.246836630529e-04  -1.241907919216e-04   1.768940714163e-04 
6 1 -2.105657043458e-05  -4.002991058961e-05  -1.006211378704e-04 
7 1  3.225470378475e-05   1.227715001880e-04   1.125497654748e-04 
8 1 -2.759696933328e-05   2.365156622641e-05  -1.034725762983e-04 
8
 Atoms. Timestep: 25000
1 1  1.070930402132e-04  -1.623302087314e-04  -7.478894115628e-05 
2 1  3.156528072495e-05   2.246665901936e-04  -1.302513494882e-04 
3 1 -1.242863653204e-04  -1.576155308648e-04   1.434801801448e-04 
4 1 -9.459512513135e-05   7.406377533113e-05   1.130627480232e-04 
5 1 -3.965829179593e-06   1.847686851649e-04   7.989221896245e-05 
6 1  8.155905120077e-05   1.327304767324e-05  -1.869219400905e-04 
7 1  3.207495189364e-04   1.044117452209e-04  -3.557294575630e-05 
8 1  7.258977810133e-05  -4.321646700952e-05   4.598053081161e-05 
8
 Atoms. Timestep: 26000
1 1  1.384095181623e-05   1.024138594982e-05   1.745202216478e-04 
2 1 -2.077523844616e-04  -2.398087545547e-05  -1.169115121154e-04 
3 1  1.024035960297e-04   9.012241050180e-05  -2.478048764692e-04 
4 1 -8.580044523390e-05   3.889810131856e-05   1.008749895995e-04 
5 1  4.617140321350e-05   9.044993384403e-05   1.323642458490e-04 
6 1  4.158714993744e-05   2.558160782857e-05  -4.058805783292e-05 
7 1 -1.610523568927e-04   5.750065266918e-05   9.491328285998e-06 
8 1  4.391830061988e-05  -4.182986960764e-05   6.490311552087e-06 
8
 Atoms. Timestep: 27000
1 1  1.040859794060e-06   5.342981664678e-05  -1.564604721258e-04 
2 1 -2.686712497275e-04   6.348070328031e-05  -3.514200608175e-05 
3 1  1.921952218104e-04   1.700089162557e-04  -1.258947859589e-04 
4 1 -1.925907332725e-04   5.964487077325e-05   1.887860261607e-05 
5 1  8.727248275850e-05  -2.074609196011e-04  -1.142092872166e-04 
6 1 -9.893944334507e-05  -2.147060567867e-04   2.251369619737e-04 
7 1  1.008745933246e-04  -1.305273802628e-04  -2.126333107570e-04 
8 1 -9.319271462236e-05  -2.105786213041e-04   3.717509519867e-04 
8
 Atoms. Timestep: 28000
1 1 -3.752203560891e-04   8.471062527641e-05   1.348255676718e-04 
2 1 -3.458193493871e-05  -1.687612610414e-05  -1.756962047511e-04 
3 1  6.995402767283e-05  -7.506193342618e-05   8.526720351177e-05 
4 1  8.245932163300e-05  -3.569700032796e-04  -2.486923353247e-05 
5 1  7.870683211306e-05  -7.969339968045e-05   2.810723629479e-05 
6 1  1.253919098928e-04  -1.729289947839e-04   1.721628724510e-04 
7 1 -4.382116185857e-05   7.736274550184e-05  -1.206440013119e-04 
8 1  3.504707201821e-04  -5.118749560722e-05   1.988847675405e-04 
8
 Atoms. Timestep: 29000
1 1 -1.085501229408e-04  -2.109096389305e-05   2.155794202600e-04 
2 1  1.948751435827e-04   9.382383029298e-05  -2.523985099633e-04 
3 1  5.307942329264e-05  -1.029914527336e-05  -6.130385876012e-05 
4 1  1.639784314574e-04  -1.029300232063e-04   2.986914179377e-05 
5 1 -1.809922292443e-05  -5.136071522960e-05  -2.516217491995e-06 
6 1  2.196710148430e-04   8.092953368447e-05   3.695482051423e-05 
7 1  3.988999369905e-05   8.251146656873e-05  -1.617954747776e-04 
8 1 -8.823063058336e-05  -3.802511453361e-04   2.744482316870e-04 
8
 Atoms. Timestep: 30000
1 1  8.249589838100e-05   1.889165681425e-06  -1.303684483388e-04 
2 1  5.874665905035e-05   8.333721725848e-05   7.139480215464e-05 
3 1  7.326837478859e-05  -5.294157549833e-05   3.684343805299e-05 
4 1  1.190712059671e-04   1.142839785937e-04   2.352849544842e-04 
5 1  1.515839661571e-04   3.687113889029e-04   9.422216028502e-05 
6 1 -5.376844369809e-06  -2.009927482224e-04   7.774810411712e-05 
7 1 -4.378722066939e-04   2.227552985238e-05  -6.854983027570e-05 
8 1  6.564985954912e-05   5.707692760780e-05   5.797984897142e-05 
8
 Atoms. Timestep: 31000
1 1 -5.158673802200e-05  -2.424315950043e-05   6.198761828920e-05 
2 1  6.864925362884e-06  -1.614325204387e-04   2.071139170180e-04 
3 1 -6.320911432170e-05  -2.774074779774e-04  -1.996650197222e-04 
4 1  2.369993309341e-04  -1.210265352367e-04  -5.254350120556e-06 
5 1 -3.638024014596e-05   3.408861244041e-05   1.031300745295e-04 
6 1 -1.328046950085e-05   5.670330241696e-05   1.293941546338e-04 
7 1  2.616860432012e-05  -1.700318321618e-05   2.459585424674e-04 
8 1  9.095198528346e-06  -5.070530215266e-05   1.874062045242e-04 
8
 Atoms. Timestep: 32000
1 1 -5.385228561432e-05   5.087766501845e-05  -7.194802885027e-05 
2 1 -1.741054445013e-04   2.185613847428e-04   1.830356114302e-04 
3 1 -1.893189005062e-04   2.209974490659e-04   4.535236266999e-05 
4 1 -1.664587137216e-04  -2.143410239824e-04  -1.274176365651e-05 
5 1 -9.233621657103e-05  -1.932992904598e-04  -2.036545082887e-05 
6 1 -1.566199308991e-04  -2.612976461096e-04   4.209828493401e-05 
7 1 -1.381916441185e-04  -5.736562779571e-06   1.641769092991e-04 
8 1 -1.030421311868e-04   1.827333187434e-04   3.849874314283e-04 
8
 Atoms. Timestep: 33000
1 1 -1.409282933273e-04   1.407746708951e-05   5.412326682564e-05 
2 1 -3.152050638532e-04   1.945614050641e-05   2.045913220091e-04 
3 1 -1.630630998208e-04  -8.251537297397e-05  -7.426758306237e-06 
4 1  8.300352815848e-05  -2.355289801878e-04   1.220357959494e-05 
5 1  2.108148389579e-04   7.335429405900e-05   1.406564858765e-04 
6 1  4.679371185316e-05   1.774578542305e-05   2.074699901984e-04 
7 1  5.063964984657e-05   7.294634002213e-05  -1.395246672990e-05 
8 1  6.619866205840e-05  -7.489903468705e-05  -3.965902467983e-05 
8
 Atoms. Timestep: 34000
1 1 -9.323400747368e-05  -9.692978054777e-05   1.509815681195e-04 
2 1 -5.466045350841e-05  -1.493014662715e-04   1.995346293693e-06 
3 1  9.817194467402e-05  -6.658151802300e-05   1.916190377740e-05 
4 1 -3.793914341978e-05  -9.007429732940e-05   6.302548275834e-05 
5 1 -1.350581526578e-04  -2.826538064266e-05   7.022041555017e-05 
6 1 -2.101519255703e-05  -1.135864020217e-04   9.606237369623e-06 
7 1  1.010498069863e-04   6.412415682317e-05  -1.444290018857e-05 
8 1  1.127498729343e-04   1.289696871917e-04  -4.354557912017e-05 
8
 Atoms. Timestep: 35000
1 1 -1.803726970446e-04  -2.995126871622e-05  -1.289757262902e-04 
2 1  1.570480155683e-05  -2.850398163165e-05  -2.166749959099e-05 
3 1 -8.034317749306e-05  -7.019091291767e-05  -8.302367725140e-05 
4 1 -2.726447272572e-05   1.486981937446e-04   3.035484239523e-06 
5 1  5.643814599624e-05  -2.999405863149e-05  -2.650155287215e-04 
6 1 -4.256901315323e-05  -2.338454687952e-05  -6.614348095616e-05 
7 1 -2.528604442965e-05  -3.915807665013e-05   1.346660079247e-04 
8 1  2.278832735568e-05   1.645610655516e-04  -1.806688644655e-04 
8
 Atoms. Timestep: 36000
1 1 -1.948975607437e-04   1.293879401356e-04  -1.820470786313e-04 
2 1 -1.167672424001e-04  -1.145995604072e-05  -1.458541152428e-04 
3 1  2.335848627750e-05  -6.696882440166e-05  -8.996306860946e-05 
4 1  2.050758135527e-04   5.939852306005e-05  -1.138623486669e-04 
5 1  1.023462277089e-04  -4.820691236401e-05   6.741619063524e-05 
6 1  1.467924169999e-04  -3.461291317389e-05   1.381760040559e-04 
7 1 -3.585728433418e-05  -1.350348671058e-07   2.081680099512e-04 
8 1  1.751752151560e-04   7.429765711046e-05  -9.531296102571e-06 
8
 Atoms. Timestep: 37000
1 1 -2.748065694472e-04   1.570677221716e-04   2.947654041509e-04 
2 1 -1.279160785801e-04  -9.828425476381e-05  -9.302163640274e-05 
3 1 -1.570010316431e-04  -2.006764465034e-04   6.522435693213e-05 
4 1 -1.511648291070e-05  -7.689213221824e-05  -1.972756686523e-04 
5 1 -8.879840742341e-05   2.391437720136e-04  -5.037274214585e-05 
6 1 -1.205775975734e-04  -1.853600231836e-04   3.129100291288e-05 
7 1  4.933757185832e-04   7.414435596364e-05   6.683861016092e-05 
8 1  7.459765477898e-05  -5.078920061019e-05   1.825596479604e-04 
8
 Atoms. Timestep: 38000
1 1 -5.168712862247e-05  -3.862442660214e-05   1.259751880249e-04 
2 1  4.479189769772e-06   1.136915012839e-04   9.980783810104e-05 
3 1  8.020953270430e-05   3.192983534729e-05   2.277960175694e-04 
4 1  2.375000087707e-05   2.158435910977e-04  -1.272095256212e-04 
5 1  1.151250457261e-04  -1.363397264668e-04   5.070821840250e-05 
6 1  1.994014787818e-04   2.303005692347e-04  -1.151080342490e-04 
7 1 -1.576286574762e-04   3.547353173401e-05   5.313262739030e-05 
8 1 -3.311810427600e-04  -2.726752363550e-05   2.483013571042e-05 
8
 Atoms. Timestep: 39000
1 1  1.176070182101e-05   1.834235179691e-04   1.584325249603e-04 
2 1  1.695903554596e-04   1.604649858576e-04  -8.465541621039e-05 
3 1  1.490593680592e-04  -2.132869363838e-04  -1.633585561714e-04 
4 1 -3.097496269959e-05  -6.901054498168e-05  -7.873711010026e-05 
5 1 -2.586678559829e-04  -6.494683337985e-05  -3.475070494908e-05 
6 1 -1.146050217154e-05  -4.434103585735e-05  -2.718606622147e-04 
7 1  1.136746691732e-04   3.206558427107e-05  -1.635839439413e-04 
8 1 -1.095883810855e-05  -1.615025892254e-05   2.363268681337e-05 
8
 Atoms. Timestep: 40000
1 1  1.029683756782e-04   3.826950717556e-05  -1.630130572161e-04 
2 1 -1.310142879677e-04   3.308465234802e-05  -1.521091115677e-04 
3 1  3.214186161851e-04  -7.729497935829e-06  -1.282572977494e-04 
4 1  1.745964157319e-04   6.141818295883e-06  -2.023523296483e-04 
5 1 -1.186798812356e-04  -8.230444568181e-05   1.162986981370e-04 
6 1  7.947489108737e-05  -4.832196603825e-05   9.508856965886e-05 
7 1 -1.143563226221e-04  -2.627526450952e-04  -2.285017001899e-04 
8 1  1.280804778509e-04  -1.438293271994e-04  -1.229826010671e-04 
8
 Atoms. Timestep: 41000
1 1  9.825373668837e-06   2.616529545288e-04  -1.229411559636e-04 
2 1  2.574908943680e-04   2.401445487247e-05   4.824755533896e-05 
3 1  4.427318930167e-05  -2.140125115820e-04   7.075576649329e-05 
4 1  1.655547762436e-04  -1.010387889670e-04   3.194920510308e-05 
5 1  2.162850616612e-04  -2.170852579243e-04   9.298264414003e-05 
6 1 -7.350909537207e-05   1.585701110853e-04  -2.055375877398e-04 
7 1 -1.866854765482e-05   8.575152040798e-05   5.629505339939e-05 
8 1  1.634447152890e-04  -3.425258068658e-05  -2.736839658805e-04 
8
 Atoms. Timestep: 42000
1 1 -1.573077509600e-04   1.984726340381e-04  -2.790772349237e-04 
2 1 -1.193155427335e-04  -6.343003138925e-05   2.119575700364e-04 
3 1 -1.171592299129e-05  -1.438618191076e-04  -2.838261838194e-05 
4 1  2.676594831859e-04  -3.730705786800e-05  -1.378761555213e-04 
5 1 -9.189423111382e-06   1.288836873155e-04  -6.878352423600e-06 
6 1 -2.191688797154e-04   2.044655150601e-04  -1.737503749847e-04 
7 1 -1.142004086876e-04  -2.768512196427e-04  -2.155220816555e-05 
8 1 -2.574770110532e-04  -1.123854448090e-04   8.797151917966e-05 
8
 Atoms. Timestep: 43000
1 1  1.083178827254e-05   1.186611233796e-04  -1.067322182027e-04 
2 1 -1.572866980488e-04  -4.442158771342e-06  -1.860172674572e-04 
3 1  8.713368911545e-05   4.180440134618e-05   6.668400056374e-05 
4 1 -2.481762352053e-05  -6.265330858499e-05  -4.558945727792e-04 
5 1  7.281727453359e-05   5.858202483436e-06   1.008819547874e-05 
6 1 -8.440904883352e-05   1.693024205079e-04  -4.859997724557e-05 
7 1  2.391245845480e-06  -2.121188326411e-05  -1.033092076749e-04 
8 1  2.648473358448e-04  -6.294814409894e-05   1.564439136442e-04 
8
 Atoms. Timestep: 44000
1 1 -1.389309895260e-04   1.378509910607e-04  -8.881841491092e-05 
2 1 -9.736977608831e-05  -3.971556837692e-04  -4.934441956436e-05 
3 1 -1.106148539720e-04  -1.140627978598e-04   2.138433916229e-04 
4 1 -2.169817387140e-04  -2.233023851174e-04   1.012190328525e-04 
5 1 -1.424031958084e-05   4.888450484190e-05  -1.964902219606e-04 
6 1 -4.242814043128e-05   3.953894981204e-05  -1.514704340940e-04 
7 1  1.374564025728e-04   2.274817977469e-04  -1.300123873602e-04 
8 1 -1.104461571401e-04  -1.463227858713e-05  -8.599124837595e-05 
8
 Atoms. Timestep: 45000
1 1  7.430129586907e-05   8.785593985852e-05  -9.300780843508e-05 
2 1 -9.206347115302e-05  -2.171288196283e-04  -8.793815098048e-05 
3 1 -8.404653258403e-05  -7.031441405992e-05   8.226978272575e-05 
4 1  1.857191532455e-04  -2.580386779297e-05  -1.257257807660e-05 
5 1  8.713678957062e-05  -9.650330795355e-05  -7.382039426164e-05 
6 1 -5.596934401156e-06  -1.439886508367e-04  -3.344483989648e-05 
7 1 -3.329218673665e-04  -8.223980700890e-05   1.748143324832e-04 
8 1  5.632762569613e-04   4.385951051940e-05  -4.012977210159e-05 
8
 Atoms. Timestep: 46000
1 1  2.734178103173e-04  -5.253246385083e-05   5.409636310950e-05 
2 1  1.478062638812e-04   2.080652342281e-04   3.406681782681e-05 
3 1 -3.924875341542e-04  -2.552992408149e-04  -9.899830877856e-05 
4 1 -9.137939010435e-05  -2.272956518653e-04   9.261914227013e-05 
5 1 -7.863683050869e-05   4.758451881709e-05   1.481576012231e-04 
6 1 -3.539025020719e-05   1.256640392201e-04  -1.493157466632e-04 
7 1  9.582948138440e-05  -1.464438556552e-04   1.831013064781e-04 
8 1  1.884575746444e-05   2.618385823572e-04  -2.537181024003e-05 
8
 Atoms. Timestep: 47000
1 1 -2.325229874593e-06   1.762936117418e-04  -1.213419416364e-04 
2 1 -1.405093676834e-04   1.036737442076e-04   1.707924876550e-04 
3 1  2.675165406462e-05   4.821775387299e-05   2.493458215149e-04 
4 1 -1.057025764426e-04   9.869765951461e-05  -2.460466639653e-06 
5 1  3.246155896363e-05  -3.060975271303e-04  -2.234850572240e-05 
6 1 -8.086510300218e-05   7.318154740697e-06   7.973559279044e-05 
7 1  1.247697996204e-04   2.288147676598e-04  -7.943910217848e-05 
8 1  5.239653080140e-05  -9.408056546926e-05  -3.261112579360e-04 
8
 Atoms. Timestep: 48000
1 1  1.442870043165e-04  -3.004934314569e-04   2.974306073987e-05 
2 1 -1.239879060856e-04  -1.342354732724e-04  -1.600712585884e-04 
3 1 -1.627774676026e-04   2.117052939001e-04   4.420567544682e-05 
4 1 -1.523281276987e-04   3.289343381324e-04   5.543438820769e-05 
5 1 -2.634538105600e-04   1.879843732866e-04  -3.960233218109e-05 
6 1  2.073635280380e-04   8.931348399091e-05  -1.211038912581e-04 
7 1  1.917023495532e-04   6.985435910796e-05   2.332423069770e-05 
8 1 -8.546272531517e-06   9.184713673701e-05   1.462338894697e-04 
8
 Atoms. Timestep: 49000
1 1 -7.418309260530e-05  -2.935156985590e-05  -2.798492926624e-04 
2 1 -8.303550957734e-05  -1.955359637758e-04   1.310855629483e-04 
3 1  2.036620357880e-04   1.240347184604e-04   4.796773453624e-06 
4 1 -2.623665128979e-04   2.146938253376e-04  -3.417149520148e-04 
5 1 -1.002187460172e-04   3.590091146317e-05   4.000856240476e-04 
6 1 -9.747542203191e-05  -8.578545062942e-05   2.867004958175e-04 
7 1 -1.404910032526e-04   1.130553245107e-04   1.213341120165e-04 
8 1 -3.503155626689e-05   7.553089502231e-05   1.133386085833e-05 
8
 Atoms. Timestep: 50000
1 1  3.301178933228e-05  -2.205673854754e-04  -1.614398693394e-05 
2 1  1.854277918560e-04   2.040322850093e-04  -2.078414049831e-04 
3 1  1.094589991901e-04  -3.563920184326e-05   3.064168938846e-05 
4 1 -8.061243396233e-05   7.192326349519e-05  -1.780354872180e-04 
5 1  1.765015122943e-04   9.923849255281e-05  -2.627723620374e-05 
6 1 -4.353347410067e-05   1.030656284612e-04   2.693845638632e-04 
7 1  1.975515079670e-04  -7.961286431565e-05  -4.959011092849e-06 
8 1  3.880858154367e-05   7.146802902414e-05   1.282719510770e-04 
8
 Atoms. Timestep: 51000
1 1 -3.955193850084e-05   7.086127802756e-05  -6.443740944058e-05 
2 1  3.209312090728e-05   7.703991171109e-06  -1.543477302927e-04 
3 1  6.023393412632e-05  -1.853912300415e-04   2.996335382195e-04 
4 1  1.990760034489e-04   3.626999812705e-05   1.084502026434e-04 
5 1 -8.424752697670e-05  -1.239656561272e-05  -1.667597350343e-04 
6 1  2.584816616430e-05   1.661115604416e-04  -1.401837647250e-04 
7 1 -3.683097311242e-05   6.582071001456e-05  -6.276261174691e-05 
8 1 -2.719285795178e-04  -1.677788213750e-04  -3.886246304212e-05 
8
 Atoms. Timestep: 52000
1 1 -1.777911819826e-06  -1.173100367057e-04  -1.109457347003e-04 
2 1 -1.369764665666e-04  -1.460470560352e-04  -2.661042900840e-04 
3 1  3.474324313079e-04   1.189809972119e-04   1.052436762146e-04 
4 1  2.153903074913e-04  -4.501933498244e-05   1.377983293891e-04 
5 1 -6.153063424300e-05   2.939500831977e-05  -3.601423311901e-05 
6 1 -4.937051899682e-05  -1.656643569984e-04   1.621799221254e-04 
7 1 -3.353247822393e-04   2.778857645481e-05  -5.379854968961e-05 
8 1 -1.253406228038e-04   1.789780694885e-04  -1.916936430315e-04 
8
 Atoms. Timestep: 53000
1 1 -1.107756295289e-05   9.547989199178e-06   1.152485290036e-04 
2 1 -7.083424441441e-05  -1.293841205854e-04   2.005336756639e-04 
3 1 -1.312210834343e-04  -2.243527987358e-04  -1.396126632646e-04 