8
 Atoms. Timestep: 0
1 1  0.000000000000e+00   0.000000000000e+00   0.000000000000e+00 
2 1  0.000000000000e+00   0.000000000000e+00   0.000000000000e+00 
3 1  0.000000000000e+00   0.000000000000e+00   0.000000000000e+00 
4 1  0.000000000000e+00   0.000000000000e+00   0.000000000000e+00 
5 1  0.000000000000e+00   0.000000000000e+00   0.000000000000e+00 
6 1  0.000000000000e+00   0.000000000000e+00   0.000000000000e+00 
7 1  0.000000000000e+00   0.000000000000e+00   0.000000000000e+00 
8 1  0.000000000000e+00   0.000000000000e+00   0.000000000000e+00 
8
 Atoms. Timestep: 1000
1 1 -2.040727550268e-04   2.305213295635e-04  -3.353739923466e-05 
2 1 -8.384079875427e-05  -8.375796724856e-05  -2.710893768865e-04 
3 1 -1.395941027450e-04  -1.100437508348e-04  -1.731521074805e-04 
4 1  8.597442738139e-05  -2.480779568475e-04  -5.726714231508e-05 
5 1 -3.444565000554e-06  -4.542371596209e-05  -1.433728317388e-04 
6 1 -1.358096071600e-04   1.251099160639e-04  -1.660788253191e-05 
7 1  6.418959329792e-05   1.750108142926e-04  -2.695831046788e-04 
8 1  1.939198353344e-04   4.754896346477e-05   2.426053281299e-04 
8
 Atoms. Timestep: 2000
1 1  1.095402202116e-05   7.055286863633e-05   6.843460567371e-06 
2 1  1.487918622706e-04   6.808872061897e-05   2.553981344759e-04 
3 1  3.423611338359e-05  -8.697264889154e-05  -2.471174532849e-04 
4 1  1.395539641289e-04   1.697815291417e-04  -1.112913533631e-04 
5 1 -1.982692675268e-04   3.996578978822e-05   1.629705282209e-04 
6 1 -1.571322953585e-04  -2.139828349751e-04   2.088171257692e-04 
7 1  2.596714462168e-04  -2.037032066132e-04   3.268612587942e-05 
8 1 -7.759086260104e-05   1.385709490005e-04   1.237845337493e-04 
8
 Atoms. Timestep: 3000
1 1  9.627319324008e-05  -1.364447406517e-04   1.721450599507e-05 
2 1  2.205552425437e-04  -3.802271236053e-05   2.534291543995e-04 
3 1  8.979835536820e-05   7.359597385507e-05   2.757227182768e-04 
4 1  3.969355257575e-05   1.099418515454e-04   6.239464831847e-06 
5 1 -1.249279796016e-04   1.109993463572e-04   2.428801183684e-04 
6 1  2.172898773037e-04   8.832742159342e-06  -3.190417732175e-05 
7 1  2.459171297391e-04   3.247697957877e-05  -4.621001522022e-06 
8 1 -2.535103021611e-04   4.259290808179e-06   6.151863874139e-05 
8
 Atoms. Timestep: 4000
1 1  1.612584027064e-04   2.843399126771e-05  -6.476840701148e-05 
2 1 -2.051952815484e-05  -1.732110053454e-05   1.403800587145e-05 
3 1  8.891260519519e-05   5.812545096539e-05  -7.280761215650e-05 
4 1  9.954379087223e-05  -5.419475621856e-05   6.685107585704e-05 
5 1  1.290707690711e-04   3.954741654270e-05   5.714081479920e-05 
6 1 -8.973687206333e-05   1.102888586669e-05  -1.803568512539e-06 
7 1  4.307522752583e-05  -5.350789521946e-05   1.102758576336e-04 
8 1  1.054774316648e-05   1.800317188549e-04  -2.358663056475e-04 
8
 Atoms. Timestep: 5000
1 1 -6.726876978797e-05  -2.144466457438e-04  -8.645751219011e-05 
2 1  3.034999395177e-04   6.336573761572e-06   2.108495190185e-04 
3 1 -1.192970193795e-04  -7.322301075260e-05   1.683441772873e-04 
4 1 -2.060040849972e-04   1.037422002847e-04   9.023577903039e-06 
5 1  1.421005756970e-04   1.904307469778e-04  -2.037027467561e-06 
6 1  4.967413678435e-05   2.663458633319e-05   4.297994915960e-05 
7 1 -1.041356194252e-04  -7.881234416087e-06   6.853183822797e-05 
8 1 -2.739974208740e-05  -4.565326119269e-05  -1.312448841789e-04 
8
 Atoms. Timestep: 6000
1 1  2.073334867722e-04  -3.664239588378e-04  -1.083071356879e-05 
2 1 -1.897480363611e-04   1.638937615899e-05  -2.910839918330e-04 
3 1  1.592754002798e-05  -8.446473534981e-05  -4.986359005433e-05 
4 1 -1.873166658709e-05  -2.902364520527e-04  -2.084511740516e-05 
5 1 -7.028734644360e-05   3.032536629304e-06  -2.643212179914e-05 
6 1 -2.830114875614e-05  -9.330470367048e-05  -2.615387917538e-04 
7 1 -3.415741150095e-04  -8.212583011745e-05   3.450193105193e-05 
8 1 -7.933921322694e-05   1.879449128921e-04  -2.172958726864e-05 
8
 Atoms. Timestep: 7000
1 1 -5.340133547058e-05  -2.833958441154e-05  -2.417857948046e-04 
2 1  2.477305837854e-04  -1.658478506295e-05  -2.065675143338e-04 
3 1  1.131642193556e-04  -8.179178089172e-05  -1.514070897778e-04 
4 1 -7.736434515901e-06   1.969659298210e-04  -2.406490355924e-04 
5 1  2.855539948708e-05   8.546457348320e-05  -1.229582479105e-04 
6 1 -1.372154798509e-04   3.811529633375e-05   8.730334950601e-05 
7 1  2.372990395319e-04   2.940962372782e-05   1.489304627177e-04 
8 1 -5.347546985008e-05  -7.454035933910e-05  -9.300939752188e-05 
8
 Atoms. Timestep: 8000
1 1  2.339570131906e-05   5.982084693077e-05  -1.241784889379e-04 
2 1 -3.217528541815e-06  -1.317279013177e-04   6.426193282094e-05 
3 1 -1.287801834190e-04   1.239280004803e-05   3.285131139948e-05 
4 1 -1.101909842609e-04   1.090182391979e-04   5.801998739046e-05 
5 1  7.562462325419e-05   1.681738788648e-04   8.227898513652e-05 
6 1 -1.115316585767e-04  -3.966435564007e-05  -3.378298349206e-05 
7 1 -3.703162356373e-04   5.692127180989e-05  -5.350351280750e-05 
8 1  1.004299131788e-04   1.312594608459e-04   1.352385180157e-04 
8
 Atoms. Timestep: 9000
1 1  6.936578676329e-05   1.137563510503e-04   1.029987330010e-04 
2 1 -1.729090441363e-04  -1.743762439102e-04   8.682947056530e-05 
3 1 -3.285386052953e-04   3.298746535227e-04   1.821187801818e-05 
4 1 -1.107557907307e-04  -1.817844063986e-04   7.431856278125e-05 
5 1 -1.921497458870e-04   9.421568224801e-05   7.106759732389e-05 
6 1  1.176501096429e-04   2.677898616450e-05   2.153285568569e-04 
7 1  3.428855385209e-05   2.534918348973e-04  -2.493081727527e-04 
8 1  1.608138554984e-05   6.825936373784e-05   7.355553821049e-05 
8
 Atoms. Timestep: 10000
1 1  1.171648187772e-04  -1.426532331025e-04   1.401788865612e-04 
2 1  3.065494627078e-06  -2.358049129601e-04   1.698541874373e-04 
3 1 -2.362298398821e-04  -4.203573525692e-04  -1.331115763339e-05 
4 1  9.942243000540e-05   2.529328307517e-05  -1.880087013586e-04 
5 1 -2.816023024215e-04  -1.070856568792e-04   8.588828364393e-05 
6 1  1.058919859116e-04   2.026035079883e-05  -6.823367830256e-05 
7 1  1.103624956495e-04  -2.112873127796e-04   2.130414687753e-04 
8 1 -1.522496174098e-04   1.397430367368e-04  -4.499414625419e-05 
8
 Atoms. Timestep: 11000
1 1 -4.639663043881e-05   7.816299628622e-05  -1.171990587579e-04 
2 1 -1.917451838200e-04  -1.359201139698e-04  -1.420943037951e-04 
3 1 -4.286156760049e-04  -1.359019521680e-04  -3.846573955933e-05 
4 1 -3.604734571691e-04  -6.865581272443e-05  -1.899850745109e-04 
5 1 -4.888597298990e-05   8.891254015589e-05  -7.564831150027e-05 
6 1 -1.333181075969e-04  -1.927702395230e-04  -7.560821807978e-05 
7 1  4.532970521496e-06  -3.208292048298e-05   7.690240015865e-05 
8 1 -1.132544292043e-04  -2.291062131378e-05   5.770171098827e-05 
8
 Atoms. Timestep: 12000
1 1  1.614602282878e-04  -1.785750990305e-05  -6.600947492385e-05 
2 1  1.178526082003e-04   1.482793185704e-04   1.204664881968e-04 
3 1 -4.883335922529e-05   3.052417040895e-04  -1.452751046451e-04 
4 1  4.651258589206e-05   3.793166046598e-05  -1.555489584131e-04 
5 1  1.316861731721e-04  -2.662607959296e-04  -1.484376664960e-04 
6 1 -6.401083066327e-05  -2.405555374901e-04   6.283879459166e-06 
7 1  9.743510035498e-05   1.745590152470e-04   1.189998541530e-04 
8 1 -1.455271327616e-04   7.904791438528e-06  -9.392670884231e-05 
8
 Atoms. Timestep: 13000
1 1 -3.652269784668e-05   4.493209448727e-05   1.785814951360e-04 
2 1  3.102113850381e-06   6.658953403306e-05  -1.503334230336e-04 
3 1 -3.067513030785e-06  -3.341317265381e-04   1.012290411827e-04 
4 1 -8.111900938709e-05  -3.827793964574e-04  -6.685480066282e-06 
5 1  6.473787839122e-05  -6.755935190641e-05   8.633959411692e-06 
6 1 -9.522102371567e-05  -1.235889899252e-04  -2.749008919861e-04 
7 1 -1.051885342968e-04  -6.543956399518e-05  -2.458022889420e-04 
8 1 -6.932907252885e-05  -3.296867281603e-04  -1.388204343968e-04 
8
 Atoms. Timestep: 14000
1 1  1.011902758582e-04   2.626833842232e-04  -8.076864166541e-05 
2 1 -2.836798313420e-04   1.594137355219e-05  -4.733204866220e-05 
3 1 -1.377442992798e-04  -1.091635787704e-04   1.355462536236e-05 
4 1 -1.755398155838e-04   7.888914297737e-05  -9.878504188265e-05 
5 1  1.813037348444e-04  -3.472218329533e-04  -1.368751652517e-04 
6 1 -5.254428834892e-05   9.045049982660e-05  -4.493421461640e-05 
7 1 -6.290090198333e-05   9.975421361094e-05   9.201331365412e-05 
8 1  9.416915056743e-05  -5.906858418255e-05  -1.486431127317e-04 
8
 Atoms. Timestep: 15000
1 1 -2.515955377330e-05  -6.998115177065e-06  -1.088681235408e-04 
2 1  1.911065802324e-04   1.934882947057e-04   1.442388127216e-04 
3 1 -4.334701002285e-05  -3.336563404497e-05  -1.443181713634e-04 
4 1  1.733737552403e-04   2.128732755476e-04  -1.957239539640e-04 
5 1  8.891376713815e-05   1.479704454431e-04   7.759351390592e-05 
6 1 -2.144855227584e-04  -1.994547877852e-04   1.401100946556e-04 
7 1 -6.190418429012e-05   1.013274880266e-04   7.756876297561e-05 
8 1  4.540744684635e-05  -4.203946119018e-05   4.083412205915e-05 
8
 Atoms. Timestep: 16000
1 1  5.931744194512e-05   5.943929226125e-05  -1.930456381630e-04 
2 1  6.633290200607e-05  -1.384169405337e-04  -6.859472842674e-06 
3 1  1.053638428949e-05  -7.557431403485e-05   1.292054876817e-04 
4 1 -1.241841718547e-05  -6.110493862563e-06   1.200472079407e-04 
5 1  1.695597811023e-04  -1.384293995684e-04  -1.777960361715e-04 
6 1  8.329665983660e-05  -2.690699072550e-04   2.238582819325e-04 
7 1 -6.887342543642e-06   3.936765941953e-05  -1.579581798116e-04 
8 1 -8.692683837852e-05   1.159237113225e-04   1.070397721627e-04 
8
 Atoms. Timestep: 17000
1 1  1.259248186062e-04  -4.953304175035e-05   1.354996627200e-04 
2 1 -7.850102277632e-06   1.623854310790e-04  -7.659071210073e-05 
3 1 -7.459078637809e-06  -1.086092043307e-04   1.296176625007e-04 
4 1 -7.279388242180e-05   2.019163986752e-04   1.035519038248e-04 
5 1 -1.990695014163e-04   6.107322535361e-05   3.051314792059e-04 
6 1  1.300473941743e-05   1.211497438177e-04  -6.498716848442e-05 
7 1  1.070192838052e-04   1.939046814327e-04   2.279435084650e-04 
8 1 -7.808274918307e-05  -1.447490204767e-05   1.995169945761e-04 
8
 Atoms. Timestep: 18000
1 1  2.470008428997e-04  -1.730317113270e-04   6.742597869598e-05 
2 1  5.739379473954e-05  -2.206468595999e-04  -7.668732373518e-06 
3 1 -2.442095867483e-04  -2.157306934781e-04  -1.875368455914e-04 
4 1 -2.358921426187e-05   3.154379083243e-04  -1.362271559125e-04 
5 1  2.763969809679e-05   7.703401085033e-06  -3.682370276802e-05 
6 1  9.064483454738e-06   1.759857709089e-05  -1.604018538778e-06 
7 1  5.458631666918e-05  -1.348426315401e-04  -1.045138263211e-04 
8 1 -3.949224949957e-04   6.330621319906e-05   9.499173457883e-05 
8
 Atoms. Timestep: 19000
1 1  2.112626981119e-04  -1.128773988095e-04  -1.254133241799e-04 
2 1 -1.482285185707e-05   7.712934674215e-05  -1.351879878542e-04 
3 1  4.878302313367e-06  -1.256893053854e-04  -6.523969367383e-05 
4 1  1.250128599734e-04  -1.934513026329e-06  -5.586814195292e-05 
5 1 -2.030974860881e-04  -8.801546835833e-05  -1.268161362402e-04 
6 1 -1.387513706762e-04  -5.851148864349e-05  -2.878109919418e-04 
7 1 -1.446247263648e-04   1.213433946009e-04   2.148897228808e-04 
8 1 -4.044093115100e-05   5.775658368680e-05   2.106192139386e-04 
8
 Atoms. Timestep: 20000
1 1  5.072347724590e-05   1.659628745220e-04   1.300784552225e-04 
2 1 -1.102245241178e-04  -3.815765297527e-05  -1.847649781082e-05 
3 1 -1.861195561471e-05   1.974756300553e-04  -7.239149519025e-05 
4 1 -1.503591277000e-04  -2.581895148553e-05   1.268124332476e-05 
5 1  7.665848588390e-06   2.242205018400e-04   7.868134382633e-05 
6 1 -5.377135252317e-06   5.441880198008e-05   1.480766806411e-04 
7 1 -3.949676482271e-05  -2.016298399173e-05  -4.150704095835e-06 
8 1 -7.584821115177e-05  -6.715739089647e-05  -2.437544597210e-04 
8
 Atoms. Timestep: 21000
1 1  1.443009833404e-04   1.589176848690e-04   1.569207485828e-05 
2 1  5.313864920297e-06   1.652637531047e-04   2.340040559024e-04 
3 1 -8.758152828479e-05  -1.831728064560e-04  -6.568414012861e-05 
4 1  5.370951910216e-05   4.559243075329e-04   2.038790213048e-04 
5 1 -4.215463056469e-05  -1.280051548349e-04   2.045685681140e-04 
6 1 -1.182954501597e-04  -4.577654523869e-05  -9.721496608352e-05 
7 1  8.000495734661e-05  -1.507513347612e-04   3.399636426057e-04 
8 1  9.556024519599e-05   1.955064793721e-04  -2.269569553282e-04 
8
 Atoms. Timestep: 22000
1 1 -6.700061645323e-06   2.444130376253e-04   1.759605591283e-05 
2 1  1.821822179201e-04  -1.149559392545e-04   9.822384097087e-06 
3 1  2.529537805254e-06   1.099797538256e-04  -1.510850958982e-04 
4 1  1.689485335369e-04   1.029294368017e-04   3.359070774867e-05 
5 1 -9.715976940136e-05   1.701415446066e-04  -1.255211395400e-05 
6 1 -2.153741536524e-04  -1.352084140224e-04   9.746285494999e-05 
7 1  2.965296134145e-05   1.553143741035e-04   1.770936838871e-04 
8 1  1.326307351316e-04   3.106236546322e-05  -1.392858290487e-04 
8
 Atoms. Timestep: 23000
1 1 -1.405444766894e-04  -9.688041357657e-05  -2.838059870692e-05 
2 1 -2.383010831517e-04   1.331802279976e-04  -5.633171085006e-05 
3 1 -1.108607159406e-04   1.847901330931e-04  -1.391353115064e-04 
4 1 -2.530908373002e-04  -5.479815721611e-06  -1.248875552072e-04 
5 1  1.830555649768e-04   1.120455537177e-04   8.069044647812e-05 
6 1 -2.925574379426e-05  -9.661701422898e-05   6.561650655208e-06 
7 1 -1.050340213451e-04   7.932819425305e-05   1.430473466332e-04 
8 1 -6.597853229319e-05  -1.380488332423e-05   2.228383264657e-04 
8
 Atoms. Timestep: 24000
1 1  1.070301472588e-05   1.542866187867e-04  -1.103269923005e-04 
2 1 -1.923438388281e-04  -1.475320120208e-04  -3.457940452320e-04 
3 1  1.908548801620e-04  -2.949495457402e-04  -3.101746344390e-05 
4 1  1.755987203568e-04   1.102935385958e-05  -5.187469798673e-06 
5 1 -7.343537151553e-05   4.623081939896e-05   8.113303691136e-05 
6 1  2.430697756767e-04  -2.777686959875e-04   1.360901940832e-04 
7 1 -1.341851794249e-04   1.684797708407e-04   1.210522892044e-04 
8 1 -1.813616695088e-04  -6.852978569076e-05  -5.611887336805e-05 
8
 Atoms. Timestep: 25000
1 1  7.157425776435e-05   1.775253510229e-05   2.793047632919e-04 
2 1  1.894436175857e-04  -9.353739709102e-06   9.781880763269e-06 
3 1  1.072994799748e-04  -2.234713311365e-04   1.041381443420e-04 
4 1 -2.710836680885e-05   4.638220947088e-05  -1.844023215743e-04 
5 1 -2.429510746720e-05   3.377855795395e-05   3.089843938330e-05 
6 1 -6.132156669477e-05  -8.585994180934e-05   2.539620828417e-04 
7 1 -2.490989959777e-04  -1.495256806901e-04   2.161428103048e-04 
8 1  2.995552510323e-05   1.361549087291e-05  -9.524833990021e-05 
8
 Atoms. Timestep: 26000
1 1 -2.754985789952e-04   1.802681991001e-04   7.629737545234e-05 
2 1 -3.628668396690e-05   3.599546456270e-04   3.354476885178e-04 
3 1 -2.558187210939e-04  -1.900284750571e-05   2.167116790427e-05 
4 1  7.828772728952e-05  -7.847034539261e-06  -9.551857633209e-05 
5 1 -1.547357890349e-04  -1.992169329824e-04   2.716028889425e-04 
6 1 -6.525603905722e-05   9.160668008679e-05  -1.804959539723e-05 
7 1  1.152399919801e-05  -1.653189334606e-04   1.510942025495e-04 
8 1 -2.569686324876e-05   4.423424803765e-05   1.397699343225e-04 
8
 Atoms. Timestep: 27000
1 1  2.221632540267e-05  -1.392164903821e-05   1.160278743382e-04 
2 1  1.416830351901e-04   4.885914925155e-06   1.197996405383e-04 
3 1  2.802312514016e-04  -1.359287997458e-04   1.464167102656e-04 
4 1  1.162879955284e-04  -1.309715461424e-04   1.108665606918e-04 
5 1 -1.147633034831e-05   2.719621752402e-04   1.802334532078e-04 
6 1  1.315430128517e-04  -1.746480660153e-04   1.244998409624e-04 
7 1  2.210935966713e-04   2.167690416662e-04  -7.582145085780e-05 
8 1  6.634323136054e-05   1.297340558035e-04  -8.050890391503e-05 
8
 Atoms. Timestep: 28000
1 1  1.023298632541e-04   5.873738678745e-05  -1.038565299431e-05 
2 1 -8.613981123462e-05  -9.947861854905e-05   7.192904147216e-05 
3 1 -9.889647116124e-05  -1.370733016514e-04   4.190780855417e-05 
4 1  1.307701545412e-04  -1.589749916309e-04   5.973996478811e-05 
5 1  1.477007047378e-04   6.335765735259e-05  -1.561478037179e-04 
6 1  1.542758959197e-05  -2.199549452434e-04  -6.923194641852e-05 
7 1  3.130376573471e-04  -3.482660111412e-04  -1.770911430494e-04 
8 1  1.737211462897e-06   2.896781004607e-04  -9.915598736551e-05 
8
 Atoms. Timestep: 29000
1 1 -1.117998147020e-04   7.279649529191e-05  -2.161054857220e-04 
2 1  6.091618703671e-05  -2.630771828280e-05  -4.179474740432e-05 
3 1  2.466470030505e-04   1.201659170130e-04  -1.689631855067e-05 
4 1  4.765848132205e-05   4.378577847480e-05  -1.203137302812e-04 
5 1 -2.266170987538e-05   5.951357600757e-05   5.416932961958e-05 
6 1  2.097129507718e-05   1.410867182806e-04  -2.598722160178e-05 
7 1  2.325537680234e-05  -9.006962143227e-05  -8.610459321882e-05 
8 1 -1.383179143495e-05  -1.083365454719e-04  -3.786648471219e-04 
8
 Atoms. Timestep: 30000
1 1 -2.819680980688e-04   1.366839530450e-04   1.176182081733e-04 
2 1 -5.009421311186e-05   1.390240784726e-04  -7.958735280098e-05 
3 1 -4.998877676168e-05   3.394212182116e-04   3.909696843064e-05 
4 1  6.198948106546e-05  -1.638734216395e-04   1.093192781893e-04 
5 1  1.126417478956e-04   1.327461096115e-04  -2.019447073004e-04 
6 1 -2.943147133478e-05   1.464258764392e-04  -3.840553576626e-05 
7 1 -1.388402982541e-04   1.322352067010e-05  -1.192881186346e-04 
8 1  1.820740651558e-04   3.418971376255e-05  -2.432598720067e-04 
8
 Atoms. Timestep: 31000
1 1  6.052000149700e-05   2.557976747388e-05   2.694514582079e-04 
2 1 -6.359892975252e-05   7.119323807773e-05   7.283851188407e-05 
3 1  1.089204164265e-04  -1.638741964976e-04  -1.592512700218e-05 
4 1  2.134428460793e-04   5.285314880088e-05  -2.636958491087e-04 
5 1  1.844912408556e-04   2.895232253239e-04   2.501600707379e-05 
6 1 -1.355500049016e-04  -2.580978920113e-04  -1.248835452993e-04 
7 1 -5.672347876039e-05   1.654270495509e-04   9.572288168620e-05 
8 1 -2.120335746323e-04   2.082009213825e-05   1.271023491939e-04 
8
 Atoms. Timestep: 32000
1 1 -1.301642968009e-04  -1.212790553044e-04  -2.159083687276e-04 
2 1 -2.168313355694e-05   3.637677626042e-05   9.669573140721e-05 
3 1  2.753283040678e-06  -1.152551454698e-04  -8.081112835115e-06 
4 1  1.423464434444e-04  -8.553830172503e-05  -2.949968114789e-05 
5 1  4.490936526570e-05  -1.902569865002e-04   7.065537881593e-05 
6 1 -9.895562455753e-05   6.682602735801e-05  -1.226652180551e-04 
7 1 -2.136494278961e-04  -5.268007059238e-06   4.911985771709e-05 
8 1 -9.964178306569e-06   3.793148210617e-05  -2.448084283852e-04 
8
 Atoms. Timestep: 33000
1 1 -7.533142180470e-05  -4.319074476437e-05  -1.152617513040e-04 
2 1 -1.764054022440e-04   1.987000002986e-05   2.190590585345e-04 
3 1  2.191357875074e-04   3.038723016872e-05   1.616511756697e-04 
4 1  1.136605736290e-04  -3.198137396966e-06  -1.573658378568e-04 
5 1  1.521618515519e-04   2.376145659608e-05  -5.342227105431e-05 
6 1 -1.244079433592e-04  -2.859873516628e-05   2.922527970172e-04 
7 1 -1.023911775614e-04  -1.812773153944e-04  -4.658662402943e-04 
8 1  6.007599019789e-05  -2.255452643552e-04  -1.879715406119e-04 
8
 Atoms. Timestep: 34000
1 1 -4.090915944688e-05  -1.311642901039e-05  -1.802400761975e-04 
2 1 -7.093270888898e-05  -3.415619561532e-05   1.463196369640e-04 
3 1 -1.069343689210e-04   3.118578751808e-04   1.134766256143e-04 
4 1  1.486029811079e-04  -1.819795426241e-04   2.576365496693e-04 
5 1 -2.396318430682e-04   8.212594746930e-05   1.874947657652e-04 
6 1  8.512886030541e-06   1.120052710681e-04  -1.004882934124e-04 
7 1  1.354918600191e-04   3.611740273270e-04   6.172943960855e-05 
8 1  6.844973647536e-05   1.165596792662e-04   1.223902833221e-04 
8
 Atoms. Timestep: 35000
1 1  3.523381561832e-06   2.451380544809e-04  -2.531732750770e-04 
2 1  1.586622439514e-04  -9.504715424600e-05   1.258964215544e-04 
3 1 -3.132795632933e-04  -1.943158845523e-04  -3.557861475396e-06 
4 1  4.463289163219e-05  -1.225981491939e-04  -2.305414313372e-04 
5 1  6.566452292208e-05   9.093228012443e-05  -2.735242073878e-04 
6 1 -1.319621812803e-04  -1.030420034684e-04  -2.893881789518e-04 
7 1  1.626547650691e-04   2.122066349297e-05   2.748827650963e-05 
8 1  8.479991365351e-06   2.938950895630e-04  -1.441543894353e-04 
8
 Atoms. Timestep: 36000
1 1 -2.699501642630e-04   2.265862670657e-05   8.135999003576e-05 
2 1 -4.339768509954e-05   6.562936341286e-05  -1.724983842299e-04 
3 1 -1.706943333053e-05   1.047118099227e-04  -1.066302095884e-04 
4 1  1.420423757385e-04   2.071631090424e-04   8.786199180225e-05 
5 1 -6.977843329673e-05   8.171864848014e-05  -2.378198712347e-04 
6 1 -6.952125994234e-05  -8.631334348557e-05   4.149984391169e-05 
7 1 -1.098346603802e-05  -1.680484893565e-04   3.583233415496e-07 
8 1 -1.566040716098e-04  -1.668720782509e-04  -1.815168150993e-04 
8
 Atoms. Timestep: 37000
1 1 -1.569986842219e-04  -1.182758062568e-04  -4.127263354237e-05 
2 1 -2.073826886742e-04  -2.182205022568e-04   2.099511024193e-04 
3 1 -1.236795771122e-04   5.371931627274e-05   9.925324508262e-05 
4 1  2.039729825693e-04   2.080373804962e-04   1.421319615571e-04 
5 1 -2.637598092597e-04  -8.003061269224e-05   1.090051159242e-04 
6 1 -1.759703471887e-04   1.298231876510e-04   1.049853035456e-04 
7 1 -8.518842153227e-06   5.073043763128e-05  -7.663619494356e-05 
8 1 -1.706478420846e-04  -8.626806602215e-05   5.245850846722e-05 
8
 Atoms. Timestep: 38000
1 1  2.571910648905e-04   4.043359111080e-05  -1.331161415022e-04 
2 1  5.275059795496e-05   1.367009135200e-04   5.310100768140e-05 
3 1 -1.297661027257e-04   1.296701319721e-05   5.670450641291e-05 
4 1 -6.557282071256e-05   3.954847374893e-05   1.116628775399e-04 
5 1  2.971158633978e-04   8.780558157020e-05   1.373418145716e-04 
6 1 -9.808989601827e-05   5.933280683728e-05  -8.626549259142e-05 
7 1 -1.031927749545e-04   2.522891112760e-04   1.396950416621e-04 
8 1 -8.627716442003e-05  -1.044005251778e-04   1.602163594557e-05 
8
 Atoms. Timestep: 39000
1 1  9.584607973690e-05  -1.152723353101e-04  -7.776551464211e-05 
2 1  8.217539947850e-05  -2.116744878412e-04   3.037949595622e-04 
3 1 -1.139374205647e-04   2.817983205559e-04   1.325457112764e-04 
4 1  2.804717024116e-05  -1.103258782068e-04   1.423942515149e-04 
5 1 -4.682259576149e-05   1.153339836818e-05   1.274551507451e-04 
6 1  1.278153341133e-04   5.851948334832e-05   2.835883111195e-04 
7 1 -1.775556327275e-04  -5.195733034033e-05  -1.195049750549e-04 
8 1 -4.421375856916e-05  -2.710102147607e-05  -1.921826366070e-04 
8
 Atoms. Timestep: 40000
1 1  1.541355158956e-04  -1.718007654484e-04   4.406061651514e-05 
2 1 -4.501136527609e-05  -1.188256968465e-04   1.404077213314e-04 
3 1 -8.910737492002e-05  -4.786436018300e-05   5.102630633228e-05 
4 1 -3.500325326613e-04  -2.368694101311e-04  -1.228091915864e-04 
5 1  2.687951876765e-04  -3.486203311382e-05   1.454160236456e-05 
6 1  1.843909036229e-04  -1.641500514909e-04   1.088826674595e-04 
7 1  1.100263790749e-05   1.813446369834e-04  -3.787365043135e-04 
8 1 -2.808706851308e-04   4.942959301971e-04  -5.036967604536e-05 
8
 Atoms. Timestep: 41000
1 1  1.186972753659e-06  -1.241739987548e-04   9.264132373514e-05 
2 1  4.089582761168e-05   1.549292068679e-04   2.587512569436e-04 
3 1 -8.040536522408e-05   1.820586409493e-04   2.661807029504e-04 
4 1  7.502369502444e-06   1.876215897032e-04  -8.157365665842e-05 
5 1  4.140462832130e-05  -1.215415994983e-04   9.729805948294e-05 
6 1  1.915000558297e-04  -1.179939034952e-04  -2.970130847485e-04 
7 1 -7.582828408440e-05  -4.210389993468e-05   1.331031838141e-04 
8 1 -2.087881503932e-04  -2.494028258608e-05  -3.099069974328e-04 
8
 Atoms. Timestep: 42000
1 1  2.304125111233e-04   1.355591270649e-04   8.189035196165e-05 
2 1  1.752935602522e-04  -9.759773700521e-05  -5.054036694116e-05 
3 1  8.674574764527e-05   9.806668315375e-05  -3.509256772548e-05 
4 1 -2.170806093385e-04  -1.069811841311e-04  -9.133067545862e-05 
5 1 -1.230911727326e-05  -7.878852471820e-05  -2.215668172924e-05 
6 1  6.990080282331e-05  -4.779225236521e-06  -1.784236636150e-04 
7 1  8.727616366623e-05   6.757020427336e-05  -1.156287317882e-04 
8 1 -3.683835542891e-04   9.281209686886e-06  -5.469571776592e-05 
8
 Atoms. Timestep: 43000
1 1  1.320106177098e-04  -1.375295014830e-04  -3.040926796268e-05 
2 1  5.683835964280e-05  -8.121582015585e-05  -2.571976981888e-04 
3 1  1.127154032316e-04  -2.329225677704e-04   8.745892096907e-05 
4 1  1.384351126071e-04   2.616524861210e-04   1.979485597779e-04 
5 1  3.866343063872e-06   1.866657870564e-04   1.717098458192e-05 
6 1 -2.200220372052e-04   8.613603883905e-06   2.412855133035e-04 
7 1 -2.844000656340e-05   6.111893298074e-05  -1.980594786611e-04 
8 1 -7.434638919285e-07  -1.353184417968e-04   1.598316327789e-04 
8
 Atoms. Timestep: 44000
1 1 -2.292456496596e-04  -4.555076700000e-05  -1.168530681621e-04 
2 1  3.154336005278e-05   1.475294400238e-04   1.426970231570e-04 
3 1 -3.191065586534e-04  -7.946499366935e-05  -8.748089464494e-05 
4 1 -1.462523781063e-04   1.634243748981e-04  -6.214980116597e-05 
5 1 -4.763081207617e-05   1.783074984495e-04   1.638830028624e-04 
6 1 -1.359623164036e-04   1.256675244300e-04  -1.601745264828e-04 
7 1 -1.612427647652e-04   8.251527362081e-05  -1.935591098395e-04 
8 1  1.600039802964e-04  -1.100311691409e-04   1.370657217879e-04 
8
 Atoms. Timestep: 45000
1 1 -1.750392350619e-04  -1.003762163308e-04  -5.337470831997e-05 
2 1 -1.359096146422e-04   2.112158364047e-04   1.782491357741e-06 
3 1  1.017604711034e-04   2.075595811142e-04  -7.961511128155e-05 
4 1 -1.922627897484e-04   2.757840337263e-05  -1.422086253763e-04 
5 1  1.918700541710e-05   8.289743693942e-06   6.432658497701e-05 
6 1 -1.884375856686e-04  -3.667583186436e-05   1.933400190727e-04 
7 1 -1.725677413709e-04   6.365503918587e-05  -2.230037979349e-04 
8 1  1.909508760227e-04  -1.032510202549e-04   1.140798129996e-05 
8
 Atoms. Timestep: 46000
1 1  3.748654486795e-05  -5.210576284359e-05  -1.790516911290e-04 
2 1 -5.103428986474e-05   9.228063363102e-05   4.157690191848e-05 
3 1 -6.207807057716e-05   1.687441242970e-04  -1.242123214445e-04 
4 1  9.721316688332e-05   1.744208243538e-04  -2.245508354889e-05 
5 1  2.679917823540e-04  -4.532733167520e-06  -5.339412387694e-05 
6 1  2.555353554826e-04  -2.487635745256e-05  -2.183590179456e-04 
7 1  6.216453651740e-05  -1.045900983753e-04  -3.144661923406e-05 
8 1  2.381470344708e-05  -8.832610951069e-05   2.667163369982e-04 
8
 Atoms. Timestep: 47000
1 1  5.782291883557e-05  -1.695171872774e-04   2.042767323127e-05 
2 1 -1.948167124969e-04   1.609982193818e-04  -2.467864226507e-05 
3 1  1.224460695356e-04   1.390536139679e-04   5.461116275947e-05 
4 1 -1.232097407993e-05   5.087000291693e-05  -2.404490306973e-04 
5 1 -3.492183145245e-05   3.874460229054e-06  -1.184480007554e-04 
6 1  2.771595117054e-04  -9.320633630342e-05  -1.436959419539e-04 
7 1  5.965809561702e-07  -8.016608342047e-05  -1.611024995914e-04 
8 1  2.008275780203e-05   7.182828574307e-05  -2.614209524875e-05 
8
 Atoms. Timestep: 48000
1 1 -6.911741632824e-05  -1.677269969194e-04  -4.367666318525e-05 
2 1 -9.293135355928e-05  -5.523108395361e-05   2.248573672412e-04 
3 1 -1.794576345220e-04   1.028156805018e-04   2.180421076863e-04 
4 1  7.771961879888e-05   9.403949323185e-05   8.988362763460e-05 
5 1 -3.685729543548e-05  -7.408060078576e-05   2.216802578360e-04 
6 1  1.882226188206e-04  -4.920788626246e-05  -3.140526461092e-06 
7 1  1.095731545344e-04   2.197413169107e-06  -7.457600916626e-05 
8 1 -2.792662144936e-04   5.044289241916e-05   1.115932832039e-04 
8
 Atoms. Timestep: 49000
1 1 -1.596084653825e-04  -2.107177585318e-04   1.504473281247e-04 
2 1  1.783731046162e-04  -4.821181681472e-05  -1.902413115617e-04 
3 1 -5.658574733395e-05  -2.768114430683e-04  -8.252321552860e-05 
4 1  7.685860166408e-05   1.726483770327e-04  -2.054745851818e-04 
5 1  1.716316160620e-04   1.780337403354e-05   1.348412985374e-04 
6 1 -6.237126495455e-05  -1.250172745130e-04  -6.701032244817e-05 
7 1 -3.052114953176e-05   1.531148679993e-04  -7.326022814808e-05 
8 1 -1.628151288370e-04  -7.604020751932e-05  -8.912562546288e-05 
8
 Atoms. Timestep: 50000
1 1 -5.373745190429e-05   5.578082036052e-05  -3.512907283726e-06 
2 1  1.125067441542e-04  -1.652901246168e-04   4.915327206440e-05 
3 1  3.210577560902e-05  -1.137417584490e-04  -5.343543848934e-05 
4 1 -7.074112999308e-05   8.561504310135e-05  -7.426241535672e-05 
5 1 -2.544194213748e-04   1.361200669119e-05   1.470778985370e-05 
6 1 -2.088869066364e-04   1.068555261632e-04   2.296188722512e-04 
7 1 -2.178056906190e-04  -1.652928969667e-04  -1.369451236197e-04 
8 1 -2.783877609273e-04  -9.559417268188e-05   1.249028852218e-05 
8
 Atoms. Timestep: 51000
1 1  9.916690080117e-05   2.559496941059e-05   3.779447249947e-06 
2 1 -1.622711348185e-04   1.492973912911e-04  -1.397384862420e-04 
3 1 -3.377595142571e-05  -1.166705597506e-04  -1.122094213824e-04 
4 1  1.853028487491e-04   1.590325166495e-04   3.502907729714e-05 
5 1 -2.894671109145e-04  -1.686621791919e-04  -2.075318745391e-04 
6 1 -1.646650321271e-04   1.828668147240e-04  -1.166305548011e-04 
7 1  3.243447612592e-05   9.370347901583e-05   9.588429768123e-06 
8 1  6.896411762905e-05   8.636572610790e-05  -9.369562904928e-05 
8
 Atoms. Timestep: 52000
1 1  1.405038820230e-04   1.225048053299e-04  -2.456876908013e-04 
2 1 -2.350380287706e-04   1.676892653387e-04   4.659982473651e-05 
3 1  1.138053222963e-05  -1.476596982116e-04  -1.559620562841e-04 
4 1  5.261221382036e-05   2.399337365362e-05   2.555662901619e-04 
5 1 -1.216179049621e-04   4.807627414190e-05   8.242156024581e-05 
6 1  5.660600746726e-05   1.096717761803e-04   1.999414856180e-04 
7 1  9.316124813228e-05  -9.505075993823e-05  -1.062412057867e-04 
8 1 -1.763188720092e-04  -4.522734311832e-06  -1.145217410567e-04 
8
 Atoms. Timestep: 53000
1 1  3.227096892795e-04  -1.740335530306e-05   2.952094012550e-05 
2 1 -5.658833456631e-05  -2.535604738890e-05  -3.713922983351e-04 
3 1  1.804385821254e-04   9.110013733562e-05  -3.499686760371e-05 