8
 Atoms. MD step: 0
1 -2.085286265275e+01   6.292774221803e+01   4.528091614985e+01 
1  7.223371578599e+01  -7.160191957723e+00  -4.811401682497e+01 
1  3.521294812006e+01  -5.574803034824e+01   6.932730076890e+01 
1  5.834431226767e+01   3.413925235964e+01  -3.833126681060e+01 
1 -5.863304183448e+01  -3.561420874390e+01   7.616396741191e+01 
1  7.540330238677e+01  -3.575458675880e+01  -1.940912708350e+01 
1 -7.609144493216e+01   6.472004551485e+01  -6.113465809600e+01 
1 -1.136950171554e+01   5.790460616002e+01  -3.822221383630e+01 
8
 Atoms. MD step: 1000
1  1.368348810409e+01   4.273938612621e+00  -4.736970434841e+01 
1  2.326945106231e+01  -1.552548120833e+01  -5.452910773537e+01 
1 -1.209096096850e+01  -2.983355866241e+00  -6.117023973409e+01 
1  4.838075249191e+01   4.627424380289e+01  -2.689064252833e+01 
1  1.497128980952e+01  -3.608728809535e+01   2.029056761598e+01 
1  2.691739025346e+01   4.324856060226e+01   3.683822470426e+01 
1 -4.776246020104e+01  -1.063083380529e+01  -3.487005440078e+01 
1 -1.680194205234e+01  -1.608964357380e+01  -1.283052269418e+01 
8
 Atoms. MD step: 2000
1  3.117195719560e+01   7.298559678314e+01  -3.166271393777e+01 
1  1.246672331175e+01  -1.734751845580e+01  -1.227796051169e+01 
1  3.418571135747e+01   3.513075210049e+01   1.606669233316e+01 
1  1.282307547597e+01   3.361358748286e+00   4.358263480833e-01 
1  1.023631310955e+02   4.658769383822e+00   4.225072716416e+01 
1 -5.207535332237e+01  -5.183587805820e+01   1.191446265322e+01 
1  4.054698502064e+00   2.443768427636e+01  -3.232377014777e+00 
1  2.451979919036e+01   1.438018663013e+01  -4.736900824062e+00 
8
 Atoms. MD step: 3000
1  2.414426351194e+01   3.580084840177e+01   2.728345624645e+01 
1 -3.028927658400e+01   4.320730256594e+01   1.839205791242e+01 
1 -9.562114738333e+00   3.307224081698e+01  -6.054447926357e+01 
1 -2.817323240989e+01   5.631397962906e+00   5.439056370988e+01 
1  4.749988890396e+01   2.546822983100e+01   1.067439231615e+01 
1  1.868590781044e+01  -3.530536115925e+01   2.077144749149e+01 
1 -2.573978900121e+01   5.615098050798e+01  -2.892914672181e+01 
1  1.944959734529e+01  -4.411767350149e+01  -3.074825991231e+01 
8
 Atoms. MD step: 4000
1  8.456150387407e+00   2.810226982246e+01   6.230882946555e+01 
1  2.447794932395e+01  -6.773190068006e+01   2.286322829861e+01 
1  4.699676400366e+01   3.413874695313e+01   2.526054153206e+01 
1 -5.762910166846e+01  -2.032002852998e+01  -2.899547109209e+01 
1 -3.056079611837e+01   2.903537262821e+00  -2.063495471244e+01 
1 -3.523221020560e+01   2.399157912763e+00  -4.912290589839e+01 
1 -7.655211378821e+00  -5.575484347348e+01   2.121491389080e+01 
1  1.015606257045e+01  -5.349003250363e+00  -4.084705943557e+01 
8
 Atoms. MD step: 5000
1  2.731271844485e+01   1.014391512560e+01   6.548534150361e+00 
1  4.963628307724e+01  -1.468854779135e+01  -2.307351245227e+01 
1  3.440426592735e+01   3.831660660028e+01  -2.639176727952e+01 
1 -1.023913714961e+01  -3.930586802701e+01   1.058849627233e+01 
1  6.965638713358e+01  -1.490938474668e+01  -1.624349735108e-01 
1 -9.887991930684e+00  -1.290888264529e+01   2.070536675435e+00 
1 -3.176930820357e+01  -2.649482946532e+01   4.434618208706e+01 
1 -1.127434977104e+01  -8.178398675190e+00   5.145165725080e+00 
8
 Atoms. MD step: 6000
1 -2.245823047820e+01  -6.099601248577e+00   6.405313127295e+00 
1 -1.767296086813e+01  -4.052562295849e+01   7.103817398899e+01 
1  8.862041435948e+01  -4.465450736255e+01   2.697995206518e+01 
1  9.708735621197e+01   2.580595218670e+01  -8.075366170604e+00 
1 -1.902861235355e+00   2.232714253850e+01   2.869677939992e+01 
1  2.579160608615e+01   2.091822484453e+00  -5.016848075445e+00 
1  3.412480344684e+01  -4.527858845792e+01  -3.717774951907e+00 
1 -6.514521152544e+00  -6.327191231672e+01   1.266431438724e+01 
8
 Atoms. MD step: 7000
1  1.506683851544e+01   3.127676261685e+01   5.090136532704e+01 
1  2.486302128588e+01   8.400592868360e+00   6.467276634785e+01 
1 -8.020054653692e+00   2.477074035726e+01  -2.959595411412e+01 
1  3.815235976048e+01   2.213417671576e+01  -5.433366528659e+01 
1  1.187271611782e+01   8.605380709129e+00  -2.623226085061e+01 
1  2.001572164913e+01   1.107905854806e+00   1.163797812901e+01 
1 -9.446410062763e+01  -2.373059574979e-01  -2.463867478492e+01 
1 -2.830637205213e+01  -3.512327497741e+01  -3.212451584217e+01 
8
 Atoms. MD step: 8000
1  6.589436914178e+01   4.635179231968e+01   8.629459948142e+00 
1 -3.532957750088e+00  -3.765363846529e+01   1.317881972905e+01 
1  4.912889797682e+01   7.579001959427e+00  -9.029798994068e+00 
1 -3.633740065392e+01  -3.902635265296e+01   5.123037205784e+01 
1 -2.012379930953e+01   8.813731895080e+01   1.971446548282e+01 
1 -6.738480492559e+01   9.377448726709e+00  -3.537937128523e+01 
1 -2.259538460880e+01  -2.276607134343e+01  -9.850018863729e+00 
1  6.537023263328e+01  -2.704456501227e+01   1.143072196272e+01 
8
 Atoms. MD step: 9000
1  7.622949131022e+00   8.302190258072e+00   2.744489879470e+01 
1 -1.373620596860e+00  -8.640550470038e+01   1.231102703682e+01 
1 -2.056311263946e+01   3.229239646798e+01  -4.311065931409e+00 
1  5.373453945771e+01   1.111635867058e+01   4.230966343741e+01 
1  1.270419430178e-01   3.603541629434e+01   4.301175770226e-01 
1  3.766564789740e+01  -4.189697826311e+01  -4.198341925816e+01 
1 -1.015240530533e+01  -3.334752838005e+01   1.463709159019e+01 
1  1.048125085280e+01   6.116636526547e+01  -4.458329669462e+01 
8
 Atoms. MD step: 10000
1 -2.740571777432e+01  -6.603742569488e+01  -2.982097436657e+00 
1  5.246729528707e+01  -1.394220602693e+01   5.263867990224e+01 
1 -6.996845006532e+00  -7.256659084436e+01  -1.995779578349e+01 
1  1.434833277005e+01  -8.055691523245e+01   2.314169576911e+01 
1 -4.231308898431e+01  -3.097180164712e+01  -1.294424212622e+01 
1  3.859971378760e-01   2.000916093987e+01   5.687933596658e+01 
1 -3.494352714626e+01  -1.772890443425e+01  -1.172664778635e+01 
1  1.996832441082e+01   5.138919723934e+01  -2.667278520473e+01 
8
 Atoms. MD step: 11000
1  2.233541381975e+01   9.181862250742e+00  -1.238865484774e+01 
1 -8.522746457306e+01   1.378375965741e+01  -3.497024769374e+01 
1  2.452752951539e+01  -1.654037312999e+01   5.120282005348e+01 
1 -1.318584358987e+01   1.463777173248e+01  -6.427640256312e+00 
1  3.380003628590e+01  -2.475801740189e+01  -2.178695896750e+00 
1 -1.651442262987e+01   2.144943989133e+01   3.591624483490e+01 
1 -3.895957963043e+01   5.129869955505e+00  -4.223873833854e+01 
1 -1.102547025963e+01  -1.748665391734e+01  -5.048911893491e+00 
8
 Atoms. MD step: 12000
1 -3.278780638912e+00  -2.298190378636e+01   3.849741758979e+00 
1  1.629938237283e+01   1.737744821951e+01   7.573883242501e+00 
1  9.034186810813e+01  -1.809233456047e+01   1.533660189459e+01 
1  9.103804228670e+00   2.070936985128e+01   6.086048022879e+00 
1 -2.281680219003e+01   5.510163214593e+00   2.461925724484e+01 
1 -2.768422815120e+01  -2.240975513047e+01   3.418575984611e+01 
1  1.237166450829e+01   7.137185081690e+01  -8.132097747773e+01 
1 -3.944338037138e+01  -2.351898961637e+01   4.792946884698e+01 
8
 Atoms. MD step: 13000
1  1.756456101318e+01   1.429181050320e+00  -3.745476956350e+01 
1  1.050629582331e+01  -3.193598670528e+01   3.427978495791e+01 
1 -5.523742722978e+00   5.105701423069e+01   2.204825356384e+01 
1 -1.630869895688e+01   2.538782462774e+01  -1.001567919514e+01 
1  2.775340679563e+01  -7.080684106792e+01  -2.783243341909e+01 
1 -4.834717012725e+01   4.048517202814e+01   1.468761255118e+01 
1 -2.033165225652e+01  -7.442812058427e+01  -1.459303182796e+01 
1 -5.768568362756e+00   2.837405937984e+01   8.520166810018e+01 
8
 Atoms. MD step: 14000
1  2.131942008351e+01  -4.369349512040e+01  -5.908084635642e+01 
1 -4.640225738047e+01   1.115130135228e+01   1.377971315780e+01 
1  4.281353880276e+01   7.839897926512e+01  -2.623384873990e+01 
1 -2.192693541840e+01  -8.952054367760e+00  -4.779837339311e+01 
1 -4.251376979831e+01   2.629859139399e+01   5.745883706683e+00 
1 -3.392942928901e+01  -5.408436404948e+01  -2.888417717354e+01 
1 -1.969921156234e+01   1.435708557959e+01   1.391639225330e+00 
1  1.568348879946e+01   4.552792923284e-01  -2.555383247661e+01 
8
 Atoms. MD step: 15000
1 -1.062216126659e+00   1.405868474233e+01  -1.832527991834e+01 
1  2.267546068801e+01   2.802600215029e+01   1.782423224220e+01 
1 -5.208979924234e+00   9.272937025921e+00  -4.205847078558e+01 
1 -1.889641999240e+01  -8.501566419753e+00  -4.350651649400e+01 
1  3.215206668522e+01   7.304188188380e+01   6.502694760784e+01 
1  8.616894071896e+00   6.560893202680e+01  -2.761848350025e+01 
1 -2.363869980335e+01  -9.060329277672e+00   5.569621020401e+01 
1 -4.273842858720e+01  -5.213233802613e+01  -1.570900521625e+01 
8
 Atoms. MD step: 16000
1  2.095239882256e+01  -1.638241386392e+01   3.783089143333e+01 
1 -1.275328276792e+00  -7.677971891126e-01  -1.737033021260e+01 
1 -1.302476347254e+01   6.308188273246e+01  -1.397567334042e+00 
1 -3.103465630397e+01  -1.495224898957e+01  -2.195085712688e+01 
1 -1.049369043443e+01   3.284041766547e+01  -6.079053080073e+01 
1 -5.370175669379e+01   2.550769443672e+01  -1.120054590987e+01 
1 -7.462521262638e+00   3.700315334925e+01  -3.886207161893e+01 
1  5.934904686436e+01  -1.182071957173e+01   3.465069660647e+01 
8
 Atoms. MD step: 17000
1 -7.291975150470e+00   3.576384706533e+01  -3.241281010804e+01 
1 -2.454436794514e+01  -2.452202143840e+01  -8.654529385692e+01 
1  1.444551400550e+00   6.982577907036e+01  -1.629573300502e+01 
1  4.469858199298e+01   5.379360645216e+00   1.682569824299e+01 
1  3.275645200833e+00   3.006791034414e+01   3.537752940371e+00 
1 -5.119734604675e+01   1.622876207894e+01  -7.445778804166e+01 
1  6.125240201327e+01  -9.596476173214e+01  -1.969046944149e+01 
1  2.592026725912e+01   1.325782494922e+01   2.448073747798e-03 
8
 Atoms. MD step: 18000
1  7.615111289138e+00  -1.508105025942e+00  -1.702192796523e+01 
1  2.289650147844e+01  -6.654093898791e+01  -2.426950918699e+01 
1 -3.049370834290e+01  -3.204344170701e+00   3.219771065431e+01 
1 -3.039268253095e+01   1.211006974722e+01  -4.282805500197e+00 
1 -2.669641290207e+01  -7.980079776265e+00   2.794531133014e+01 
1  8.661727046694e+00  -6.166884097461e+00  -1.084321845092e+02 
1 -9.242429940605e+00  -3.720282770150e+01   4.220402856995e+01 
1 -3.010254413138e+01  -2.113857576355e+01  -3.725056477942e+00 
8
 Atoms. MD step: 19000
1  3.948459977676e+00  -3.795555998673e+01  -2.570672843521e+00 
1 -4.266375262361e+01   5.634339983186e+01  -4.595306552581e+01 
1 -2.244183187397e+01  -4.206512627750e+01  -1.945711172643e+01 
1  2.675800224659e+01   2.415134913939e+01   5.382486835160e+01 
1 -4.737013308021e+01   1.811928006827e+01   1.231854186077e+01 
1  4.599297404669e+01  -9.080098097699e+00  -4.358088157827e+01 
1 -1.836524269699e+01  -6.806389963299e+01   3.004093124404e+01 
1  8.255231450091e+01  -2.293350866738e+01  -1.169834538510e+01 
8
 Atoms. MD step: 20000
1  9.961938391764e+00  -1.999482048037e+01   1.001907654833e+01 
1 -1.488661734747e+01  -1.850638574280e+01  -8.165537650855e+00 
1 -2.436724204159e+01   3.971811487401e+01  -6.198005974531e+01 
1  1.558465632432e+01   4.061063720717e+01   2.744474058708e+01 
1  2.116816740339e+01   1.696138431842e+01  -2.720083619882e+01 
1 -5.389314755248e+00  -3.082124203343e+01  -1.247472106449e+02 
1 -2.120266851091e+01  -1.008768557004e+01  -2.734327679403e+01 
1 -7.043056288278e+01   2.898164159133e+01  -1.134568791481e+01 
8
 Atoms. MD step: 21000
1  2.005979716069e+01   5.470142595973e+01   4.731549503384e+00 
1  2.793024808091e+01  -4.591456901175e+01  -7.725968857346e+00 
1  5.215944543869e+01  -3.092832751415e+01   1.829216521391e+01 
1 -9.159025208080e+01   2.670975529537e+01  -1.564545105394e+01 
1 -8.308823312590e+01  -4.211682106754e+01  -2.788431243264e+01 
1 -2.724864849174e+01  -2.642583865520e+01   2.020945405301e+01 
1 -2.636173449739e+01   1.393872206741e+01   2.032268841523e+00 
1  8.339990111821e+01  -1.666268042529e+00  -5.759191075626e+00 
8
 Atoms. MD step: 22000
1  3.166244588039e+01  -6.301599645305e+00  -1.545112016847e+01 
1  4.122132266226e+01   4.379937896704e+01  -5.317311691214e+01 
1  3.861532314866e+01  -1.354920786788e+01   5.539464890786e+00 
1 -3.262834992000e+01  -3.048873628763e+00   1.257666666300e+01 
1 -7.187112560608e+00   2.763128968873e+01   1.208336335959e+00 
1 -2.079011364904e+01  -1.093045976478e+01  -1.139540484418e+01 
1 -1.950839268846e+01  -2.960041932661e+00   2.727975754465e+01 
1 -1.402907818525e+01   1.186839224394e+01   1.394355741189e+01 
8
 Atoms. MD step: 23000
1  6.028498005025e+00   1.607190891634e+01  -1.549296770119e+01 
1  4.187266622353e+01   3.597804963952e+01  -5.336128963576e+01 
1 -3.532364826294e+01   3.326425580831e+01  -1.580316302983e+01 
1 -2.323973758492e+01   2.613092992905e+01  -2.269336109488e+01 
1  2.422557050937e+01  -2.901001895168e+01  -3.365418891704e+01 
1  3.544840383094e+00   6.335979707449e+00   1.561823064732e+01 
1  5.097816274528e+01   7.626058216716e+01  -2.825724814666e+01 
1  3.289622091090e+01  -5.366688834373e+01  -1.054979686275e+01 
8
 Atoms. MD step: 24000
1 -4.369051828997e+01  -1.373186826358e+01   3.259380123075e+01 
1 -7.119041455324e+00   3.550010403985e+01   1.432419715411e+01 
1  1.101309335211e+01  -3.264685416689e+01  -1.835991238505e+01 
1 -6.316780383276e+01  -4.428414402515e+01  -1.770841030905e+01 
1  3.121292152159e+01   5.688384936673e+01  -3.106346621340e+01 
1  3.920199332148e+00   4.106008659693e+01   3.423652275435e+01 
1  1.490441060258e+01  -7.270189288163e+01   9.535731595146e+00 
1  1.187724757375e+01  -2.250221737070e+01   2.421753627314e+01 
8
 Atoms. MD step: 25000
1 -1.331418263076e+01   3.916334365578e+01  -1.385143492267e+01 
1 -8.974317291852e+00  -3.329101606357e+01   3.278437377727e+01 
1  6.496671134442e+01   3.264440431440e+01  -2.246774500617e+01 
1  5.505574537007e+01   1.083028501907e+01  -2.215290306322e+01 
1  8.491639292678e+00  -4.739843703428e+01  -6.852269999789e+00 
1 -7.179741028043e+00   3.253931347615e+00   3.381830664874e+01 
1 -4.645729591385e+01  -4.938739576170e+01  -4.662972309196e+01 
1  1.565068518657e+01  -6.496372924766e+00  -3.112497009024e+01 
8
 Atoms. MD step: 26000
1  9.557979094758e+00  -1.146031593729e+01  -7.058418176934e+00 
1  4.845304446972e+01   5.128059655582e+00   4.907804727698e+01 
1 -2.894053994946e+01  -4.310077534430e+01   1.274335680488e+01 
1 -8.069572690534e+00  -1.294879503682e+01  -2.297256556537e+01 
1  1.334319149358e+01   1.560875035425e+01  -4.483253314155e+01 
1  1.764788518070e+01   3.165738986515e+01  -6.605002827992e-01 
1 -3.961066367336e+00   4.490244100551e+00   2.631862400038e+00 
1 -2.474659558544e+01   2.939769590025e+01  -8.957176944817e+00 
8
 Atoms. MD step: 27000
1 -3.332354479815e+00   5.827948721091e+00   2.518163822091e+01 
1  4.258048431491e+01  -7.693224652783e+00  -1.390507986174e+01 
1 -3.932809255732e+01  -7.679727731589e+01   1.984772275038e+01 
1 -1.567883246178e+00  -4.339196389881e+00  -3.315412608122e+01 
1 -4.805132719872e+00   2.828084694773e+01   1.949618894168e+01 
1 -2.777081734881e+00   7.168869465763e+01  -6.431746149764e+01 
1 -3.656320972559e+01   2.822736894331e+01   3.136043139769e+01 
1  2.607098639641e+01   4.790139784038e+01  -9.190747320448e+01 
8
 Atoms. MD step: 28000
1  1.042818084487e+02  -3.044685384595e+00  -6.004073167345e+01 
1 -1.291017982123e+00   3.182927512110e+01   3.540386317244e+01 
1 -1.169017595172e+01   3.331090673472e+01   4.285780587719e+00 
1 -4.180274066933e+01   1.593143038683e+01  -1.595582185010e+00 
1  2.541946273109e+01  -1.007639224046e+01   2.574720988686e+01 
1 -3.082625114997e+01   5.117053063932e+01  -3.853901735457e+01 
1 -1.649602396443e+01  -3.684943436401e+01   1.953953126998e+01 
1 -7.154268187474e+01  -5.501519451659e+01  -6.310392115736e+01 
8
 Atoms. MD step: 29000
1  2.654176631893e+01   8.543701034565e+00  -5.156007125988e+01 
1 -4.066889164373e+01  -3.844308953504e+01   3.087030817223e+01 
1 -1.271947375093e+01   1.601057470704e+00   2.285027580445e+01 
1 -1.708592254452e+01   6.984786625478e+00   1.143398390970e+01 
1  4.004170657614e+01   3.782561361585e+00   2.918236725062e+00 
1 -2.524213751329e+01  -3.566997728025e+01   2.468238344750e+01 
1  2.950312536372e+01  -3.321932230066e+01   2.289491839545e+01 
1 -2.354782607556e+00   2.317694736841e+01  -5.753030427840e+01 
8
 Atoms. MD step: 30000
1  2.750298742875e+01   2.593956391545e+01  -1.354746856280e+01 
1  1.312650733174e+00  -1.208158506780e+00  -2.124213653124e+01 
1  5.060279016669e+00   1.730566070643e+01   1.052187668304e+01 
1 -4.411640061364e+01  -1.093497228865e+00  -8.992225545707e+00 
1 -3.708468321671e+01  -9.892949056627e+01  -3.245310139164e+01 
1 -1.573250880316e+01   1.681604959168e+01  -9.289768499014e+00 
1  9.185410678419e+01  -1.976811333823e+01   1.304704453975e+01 
1  2.009415660162e+01  -4.381339716229e+01  -1.602881504056e+01 
8
 Atoms. MD step: 31000
1  2.628780902266e+01   1.494429405299e+01   2.446331454277e+01 
1  3.113982885848e+01   2.279341922050e+01  -6.811655568103e+00 
1  1.247695034113e+01   4.091560736577e+01   2.356409996903e+01 
1 -4.730751472463e+01   2.161869964944e+01   1.156072649969e+01 
1 -6.716068793078e+00  -2.465280842319e+01  -5.053394530176e+01 
1 -6.190893734767e+01  -7.317228934428e+01  -3.158824970045e+01 
1 -1.351622108712e+01  -3.971105177894e+01  -3.217520266540e+01 
1  2.186547229172e+01   6.350673645421e+00  -3.814961851491e+01 
8
 Atoms. MD step: 32000
1  1.035336672455e+01  -1.286608049082e+01   3.213039101556e+01 
1  2.967925914885e+01  -7.389084036053e+01  -1.991813451401e+01 
1  5.291889207113e+01  -5.442480726352e+01  -3.516288937632e+01 
1  1.272159612279e+01   2.031770006561e+01   2.972712298621e+01 
1  3.557244036813e+01   3.489262124065e+01  -3.841067192657e+00 
1 -3.595607780240e+00   3.830539366097e+01   7.759189589263e+00 
1  4.543805829708e+01  -3.194207537269e+01   1.419512667765e+01 
1 -1.130061060451e+01   1.707669081987e+01  -9.254433373283e+01 
8
 Atoms. MD step: 33000
1  2.684528258812e+01   3.186453353163e+01  -2.536053265720e+01 
1  6.218546113531e+01  -1.438170338127e+00  -1.776554026042e+01 
1  6.925474986541e+00   2.367442116664e+01   1.705460200699e+01 
1  1.362340954799e+01   1.380999148340e+01   4.204976673599e+00 
1 -6.431265956779e+01   1.597845078872e+01  -3.082450776220e+01 
1  1.858874451677e+01  -1.574408289262e+01  -2.077140453449e+01 
1 -5.902773214392e+00   7.917861829863e-01  -1.646197806629e+00 
1 -1.268474120956e+01   8.109234286224e+00   1.655990363883e+01 
8
 Atoms. MD step: 34000
1 -1.936174436365e+01  -2.397618040952e+01  -5.865190484087e+01 
1  3.121829565109e+01   1.901964421935e+01  -5.378723511731e+00 
1 -9.449905563324e+00   1.613301008077e+00   1.624598525341e+01 
1  2.108686171057e+01   1.143375260388e+01   3.256394847129e+01 
1  3.655339642847e+01   1.747429702295e+01  -1.006578346103e+01 
1  1.758487942431e+01   3.958448465759e+00  -5.329855773840e+00 
1 -2.120443809127e+01  -2.539606822494e+01   1.086141926356e+01 
1 -2.093675855033e+01  -7.703326464131e+00  -2.234100599950e+01 
8
 Atoms. MD step: 35000
1  5.101001601734e+01  -1.300352159384e+01   5.043218726947e+01 
1  3.711655495368e+01  -6.391276659826e+00   1.262825601092e+00 
1  1.858424626090e+01   3.233986009351e+01  -2.872322904894e+01 
1  2.596114862193e+01  -5.003174554690e+01   1.624823660082e+00 
1 -1.232999612647e+01   1.312212017370e+01   7.031510073459e+01 
1  4.385039692941e+00  -1.473873008869e+01   1.068280049698e+01 
1 -2.146330492896e+01   1.694675267295e+01  -2.742866952500e+01 
1  1.042873126200e+01  -8.705953225124e+00   2.818939861919e+01 
8
 Atoms. MD step: 36000
1  1.839539303902e+01  -4.048509393796e+01   3.287338874810e+01 
1  8.871651024915e-01  -1.081484270795e+01   4.153218172475e+01 
1  2.166618249826e+00   6.407844878471e+00   6.048055598356e+01 
1 -7.557991265877e+01  -2.125923541889e+01   2.459893228114e+01 
1 -3.842777085874e+01  -1.412159160939e+01  -2.083017967867e+01 
1 -1.536495783822e+01   3.656038934775e+01  -1.340083233313e+01 
1 -4.258484951629e+01  -1.660853004242e+00  -4.168550242375e+01 
1 -4.616829197003e+01  -4.711099504845e+00   4.111347221334e+00 
8
 Atoms. MD step: 37000
1  3.885902877262e+01  -1.812965745671e+01  -2.577297016995e+01 
1  1.995792805845e+01   1.543726452875e+01  -6.306875228827e-01 
1  8.895873100431e+00   1.543394965352e+01  -4.461855259296e+01 
1  2.463693818661e+01   9.337368539020e+00   3.267069013919e+01 
1  5.480924543627e+01  -5.175962299018e+01   3.609818719573e+01 
1  7.780265480439e+00   2.293312545191e+01   8.825685474758e+00 
1 -5.611224485383e+01   2.933850934051e+00  -1.285909807765e+01 
1 -1.488495827774e+01  -3.373709906209e+01  -6.046269263619e+01 
8
 Atoms. MD step: 38000
1  4.845048534374e+01  -2.661561701243e+01  -7.621939860883e+01 
1  2.538025295040e+01  -9.978855365280e+00   3.643946857389e+01 
1 -2.415933326000e+01  -5.377701266807e+01  -1.230015660565e+02 
1 -2.111649279800e+01  -4.544946331819e+01   1.749197400034e+01 
1  1.864320831298e+01   4.194802221468e+01  -4.329728901599e-01 
1 -1.469525337198e+01  -3.925089006515e+01   1.779676001632e+01 
1 -7.499343198691e+00  -3.137041046059e+01  -2.197457846370e+01 
1  3.814332472211e+01  -2.375328911926e+01   1.197213417506e+01 
8
 Atoms. MD step: 39000
1 -2.252492987756e+01  -1.934113892397e+01  -2.737775489779e+01 
1 -3.661838400930e+01  -4.916657320123e+01   2.607782849017e+01 
1 -2.437975523829e+01   2.007587810551e+01   2.227961758262e+01 
1 -2.128236715673e+00   3.027774190969e+01  -2.065181599253e+00 
1  4.027787947921e+01   2.195063766489e+01  -1.206145248504e-01 
1  1.774862361270e+01   3.688583590319e+01   6.344031211613e+01 
1 -2.946896447669e+01  -2.684479730838e+01   3.775552018256e+01 
1  2.053078287754e+01   6.809658450732e+00  -2.557503333843e+01 
8
 Atoms. MD step: 40000
1 -2.286659992153e+01   1.520218402726e+01   3.549983296197e+01 
1  1.062463132621e+01  -2.062223369953e+01  -1.402303938942e+00 
1 -5.409343492499e+01  -1.758427608619e+01   1.437714554654e+01 
1 -3.174961608046e+01   1.731711786471e+01   2.261395130792e+01 
1  5.318387015605e+01   7.638601481464e+00  -2.189580923526e+01 
1 -3.679796176887e+00   2.310972859452e+01  -2.370023509144e+01 
1  3.262890749762e+01   3.463621723594e+01   5.394843168122e+01 
1 -4.033482500725e+01   1.676310959397e+01  -2.871101252262e+00 
8
 Atoms. MD step: 41000
1 -9.418809560463e+00  -3.742762044814e+01   3.066627253161e+01 
1 -5.268864024114e+01   2.428061912130e+01  -3.123394057379e+01 
1  6.180222526515e+00   5.721116077008e+01   3.299505800452e+00 
1 -2.561860561825e+01   7.181644799149e+00   6.953208368539e+00 
1 -4.215194550152e+01   1.963665183121e+01   3.499967095727e+00 
1 -4.498570838408e+00  -6.469847875509e+00   6.225588372156e+01 
1  1.878437550981e+00  -4.096761124259e+01  -6.579551405807e+00 
1 -2.502534020625e+01  -1.173286385166e+01   6.213121247284e+01 
8
 Atoms. MD step: 42000
1  1.320825169018e+01  -9.420429566516e+00   7.392370226736e+01 
1 -1.416651472171e+01   2.491710847469e+01  -5.391478934043e+01 
1  1.504031624816e-01   6.743580983668e+00  -3.604119199057e+00 
1 -5.927231839030e+01   8.489100263899e+00   3.099245051877e+01 
1  1.470802844192e+01  -3.812841364007e+01   1.174590402610e+01 
1  6.587497814503e+01  -3.340219604318e+01   2.500912280715e+01 
1  4.370748505826e+00   5.742977128213e+01   2.745584282944e+01 
1  1.392099658019e+01   3.720414883528e+01  -1.868069836823e+01 
8
 Atoms. MD step: 43000
1  6.640958705571e+00  -4.665375218531e+01   2.972395287254e+01 
1  4.100974057969e+01   2.058045699143e+01   3.221791836787e+01 
1 -2.179420791549e+01  -5.539136854179e+00  -7.207786607304e+00 
1 -5.301277769441e+00   2.612721972770e+01   5.147194454881e+01 
1 -2.331824248112e+01  -1.803354294507e+01  -2.410689766103e+01 
1  2.877324060781e+01  -9.772396849415e+00  -7.986225033730e+00 
1 -2.033578004401e+01   2.135070320457e+01  -1.110049299082e+01 
1 -4.471881101396e+01  -2.301251400492e+01  -2.510686568837e+01 
8
 Atoms. MD step: 44000
1  4.102103611145e+01  -6.214449740270e+00   6.362045557464e+00 
1  2.746338606710e+01   5.537765628261e+01   3.027079289815e+01 
1  9.741707724852e+00  -5.321337133725e+00  -2.994909823265e+01 
1  4.819455888078e+01   4.304726976916e+01  -2.719750914690e+01 
1  1.068586727507e-01  -2.027435297249e+01   5.667588527134e+00 
1  5.141629847862e+00  -7.853732636535e+00  -7.826649422507e+00 
1 -4.064872247390e+01  -5.182594810334e+01   2.797891616613e+01 
1 -5.470361389765e+00   9.807409653848e+00  -2.272783024337e+01 
8
 Atoms. MD step: 45000
1 -8.306888254990e+00  -4.227212347767e+00   4.512880024125e+01 
1  1.831634943260e+01   5.600864754594e+01   2.802731398810e+01 
1  3.051208067753e+01   6.751314630386e-02   2.284669477485e+01 
1 -2.734739865873e+01   2.487098844574e+01   1.891649058938e+00 
1 -3.132114737039e+01   7.578709144381e-01  -2.938237661431e+00 
1 -4.788545552302e+01   1.839594102807e+01   5.560110561592e+01 
1  6.801154406728e+01   1.703262262577e+01  -4.328470380341e+01 
1 -1.092360725697e+02   6.777637425234e+00  -4.093748142080e+00 
8
 Atoms. MD step: 46000
1 -8.108034759062e+01  -4.209337623045e+00  -6.720914716289e+00 
1 -2.835416937787e+01  -1.355791740285e+01  -1.203553746638e+01 
1  8.360100705165e+01   7.160315635609e+01   2.736340539233e+01 
1  1.957181564332e+01   7.883637499888e+01  -2.901402486028e+00 
1 -5.590253394207e+00  -5.767783296696e+01  -4.875231957246e+01 
1  2.412481405083e+01  -1.154131483152e+01   4.349543791145e+01 
1 -1.853817478645e+01   4.077244142815e+01  -4.756600447105e+00 
1 -3.749428715489e+01  -9.143652044554e+00   1.210410499035e+01 
8
 Atoms. MD step: 47000
1  3.773212078229e+00  -5.265969417701e+01   1.479768203870e+01 
1 -8.803279185165e+00  -1.596656211078e+01  -3.093148048569e+01 
1 -1.659645150313e+01  -3.603471737979e-01  -8.324746671482e+01 
1  2.334124254012e+01  -2.431181768771e+01   1.985693699120e+01 
1 -2.105022312938e+01   6.741365651241e+01  -9.837282553780e+00 
1  5.153358787462e+01  -8.648267312300e+00  -1.288470531939e+01 
1 -1.995033571781e+01  -5.116077807253e+01   3.824906127329e+01 
1 -2.494505215534e+00   1.321903802008e+01   7.175895244242e+01 
8
 Atoms. MD step: 48000
1 -4.778073523368e+01   6.756436609676e+01  -2.131376425457e+01 
1  4.882816973473e+01   5.776492785842e+01   1.049754344961e+01 
1  2.809976230692e+01  -8.290473350727e+01   3.905620247575e+01 
1  5.169522930455e+01  -8.032548776519e+01   9.440224871823e+00 
1  5.418464116974e+01  -6.743149679551e+01  -2.631437074202e+00 
1 -5.833490700849e+01  -3.683431099571e+00   3.122948344841e+00 
1 -3.259716492884e+01  -3.828427111635e+01   1.374342577245e+00 
1  3.302942044637e+01  -4.061858748494e+01  -4.003823878427e+01 
8
 Atoms. MD step: 49000
1 -3.983278931380e+00  -1.410854584759e+01   6.705606809752e+01 
1 -1.372973528875e+01   5.974233494878e+01  -2.508696958283e+01 
1 -1.093328498146e+01  -3.411620595118e+00   2.264903805709e+01 
1  8.587008886248e+01  -6.345947134080e+01   7.974210957200e+01 
1  3.288496381761e+01  -3.483927859296e+00  -8.448534783379e+01 
1 -2.508046541165e+01   4.990738542592e+01  -6.956600497670e+01 
1  6.187383072750e+01  -5.230504587651e+01  -2.123166359460e-01 
1  1.463980258422e+01  -1.065770232512e+01   1.665677183987e+01 
8
 Atoms. MD step: 50000
1 -2.404762377760e+01   4.845141410701e+01  -2.352666738761e+01 
1 -4.461502942031e+01  -6.984466483114e+01  -1.242238346554e+01 
1 -8.024169928571e+00   2.668717939444e+01   7.824351452630e+00 
1  7.649912476705e+00   1.147979532098e+01   2.909109653813e+01 
1 -6.689396745880e+00  -2.389368614784e+01   1.798348533990e+01 
1  2.399803172070e+01  -1.706661064155e+01  -4.641694385402e+01 
1 -8.065898577535e+01  -7.725964214322e+00   2.142488627262e+01 
1 -1.267925563847e+01  -2.861044976923e+01  -3.389472529651e+01 
8
 Atoms. MD step: 51000
1  2.737263736503e+01  -2.727947262218e+01   7.885743513396e+00 
1  4.829981173542e+01   2.469410757921e+00   2.174315280124e+00 
1 -1.768850438292e+01   2.926643518987e+01  -7.755961184010e+01 
1 -2.485139735843e+01   3.663628979112e+00   2.054811908807e+00 
1  2.600589910791e+00   6.938961830795e+00   7.111671799303e+01 
1  2.178801879932e+01  -2.478355802632e+01  -6.618307883947e+00 
1 -2.094210621840e+01  -2.624445543768e+01  -2.388525924280e+01 
1  1.168992676048e+01   3.289848604819e+01   2.006030157426e+01 
8
 Atoms. MD step: 52000
1  9.931483194968e+00   2.014831695651e+01   6.849001717742e+00 
1  3.417083579984e+01   4.935387951477e+01   2.625862406614e+01 
1 -4.489399340857e+01  -3.678721975744e+01  -9.793803517466e+00 
1 -7.771792651392e+01  -2.083225106329e+01  -3.598779697099e+00 
1  6.600299349848e+01   2.877330859877e+01   1.358066822264e+01 
1 -4.866068871351e+00   3.971328025673e+01  -5.012304678255e+01 
1  8.051563828165e+01   1.036595903539e+01  -2.217526541290e+01 
1  3.214924943470e+01   5.612561601076e+00   3.609993061844e+01 
8
 Atoms. MD step: 53000
1 -6.426150067302e+00   1.977000934567e+01  -3.369076314906e+01 
1  1.172254334219e+01   2.344911092596e+01  -3.168943786580e+01 
1  1.856708218837e+01   2.373580862630e+01   4.384268662664e+00 
1 -2.376544330692e+01   2.833995545024e+01   6.693396991075e+01 
1  7.608264351945e-01   3.864814570026e+01  -2.529900988445e+01 
1  1.967738090117e+00   3.587487284581e+01  -9.444350754497e+00 
1  7.062819916562e+01   5.375230977266e+01   4.222190222133e+01 
1  3.281592850812e+01   2.528962404378e+01  -1.590711076104e+01 
8
 Atoms. MD step: 54000
1 -3.904845751242e+01   1.685455959350e+01   3.801564792088e+01 
1 -9.500861203707e+01   4.122198562390e+01  -2.946431057855e+01 
1  5.934488994616e+01  -7.064131705130e+00  -4.632440203592e+01 
1  4.132885815085e+01  -1.944330607475e+01   3.502337218969e+01 
1 -2.654078944390e-01   1.730860861937e+01  -5.269473586912e+00 
1 -1.793908566318e+01  -3.774784285874e+01   3.846881436466e+01 
1  2.992862509889e+00  -1.305577778526e+01  -4.655674759506e+01 
1 -3.547327253778e+01   2.395935367576e+01  -8.204349743788e+00 
8
 Atoms. MD step: 55000