8
 Atoms. MD step: 0
1 -3.472934504792e+01   2.985585161505e+01   4.552711624413e+01 
1 -3.872914153085e+01   5.183552870333e+01   2.841252880511e+01 
1  6.597310272429e+01   3.473535297890e+01   3.212630301548e+01 
1 -6.209027598665e+01   1.844554586020e+01  -3.110501871492e+01 
1 -4.675834713363e+01   3.854789838996e+01   6.659078998682e+01 
1 -1.328434623653e+01  -5.953552595268e+01  -6.135440417252e+01 
1  6.150941286889e+01  -3.705897999201e+01   2.680974576907e+01 
1  1.897523860070e+01  -3.176705575740e+00  -2.894581516525e+01 
8
 Atoms. MD step: 1000
1  1.795960786263e+01  -5.895373903853e+01   1.004385571756e+01 
1  1.132808302951e+01   4.798840722315e+00   2.293834091646e+01 
1  2.033732950594e+01   1.454928974150e+01   6.036492329052e+01 
1 -9.698578590243e+00   3.423461143425e+01  -2.028167641434e+01 
1 -8.280018309964e+00   3.172627293777e+01   3.108220567278e+01 
1  1.678848862745e+01  -2.038665571112e+01  -4.776962719844e-01 
1  1.057729822185e+01  -3.690001237952e+01   4.947059588341e+01 
1 -2.282041184553e+01  -1.676763443696e+01  -2.734841916997e+01 
8
 Atoms. MD step: 2000
1  4.981295219374e+00   1.205529717787e+01   1.486776534159e+01 
1 -1.455441173245e+01  -2.151643404690e+01  -7.775950542474e+01 
1 -2.794797599317e+01   4.007940241645e+01   2.127855777401e+01 
1 -2.183176627435e+01  -8.447971286854e+00   1.392610961392e+01 
1  3.133890825824e+01   3.425456359730e+01  -2.506333458673e+01 
1  2.922348198048e+01   5.248795220835e+01  -3.907066613155e+01 
1 -2.131915606293e+01   5.484245406724e+01  -2.258224819833e+00 
1 -1.001076490022e+01  -3.225130937637e+00  -2.150595348861e+01 
8
 Atoms. MD step: 3000
1 -5.690922003866e+01   5.126090664589e+01   1.959412031905e+01 
1 -6.087283798786e+01   2.672052363058e+01  -3.150552669070e+01 
1 -2.796067706928e+01   1.076751982414e+01  -4.429651295344e+01 
1 -9.580138679882e+00  -6.271521495534e+00   1.153691387847e+01 
1  4.294549985354e+01  -2.501724620518e+01  -7.321642160057e+01 
1 -5.089908963187e+01   5.443771560605e+00   3.551932791341e+01 
1 -3.179935982353e+01  -2.061213677154e+01  -1.655625192811e+00 
1  2.642018009219e+01  -2.750639065335e-01   2.957469060313e+01 
8
 Atoms. MD step: 4000
1 -5.058909787289e+01  -2.094509522315e+00   3.384947746595e+01 
1 -1.876250954988e+00  -3.778828632011e+01   4.272350461013e+01 
1  2.032431957876e+01  -2.949787344941e+01   1.668102431513e+01 
1 -5.589651210361e+01   1.166335980297e+01  -5.001220312332e+01 
1 -4.563172743821e+01  -1.871764637421e+01  -2.420867744905e+00 
1  3.467137453985e+01  -3.552717398736e+01  -8.711607358575e+00 
1 -2.685394271802e+01   1.253358402823e+01  -2.216113169037e+00 
1  7.542075064813e+00  -5.499351879285e+01   7.435018930471e+01 
8
 Atoms. MD step: 5000
1  4.181232339995e+01   5.907251912832e+01   2.145458006766e+01 
1 -4.401837323618e+01   8.712147797455e+00  -7.790361885596e+01 
1  3.348428886259e+01  -8.714647771836e+00  -3.547245526679e+01 
1  2.014956623542e+01  -3.669581820048e+01  -1.676440881934e+01 
1 -3.527405252180e+00  -1.598919962029e+01   3.747382523472e+00 
1  1.037692521369e+01   1.548206246279e+01  -1.585989582239e+01 
1  4.917698575798e+01   5.958871528092e+01  -1.881863245113e+01 
1 -1.373895136808e+01   6.043564938522e+00   3.620604998342e+01 
8
 Atoms. MD step: 6000
1 -6.694182838235e+01   7.646298899792e+01   3.367176017066e+00 
1  4.762059151011e+01  -1.346124052291e+01   5.790458064352e+01 
1  8.703212774630e+00  -2.076493021503e+01  -1.814031665367e+01 
1  3.560478484026e+01   1.033280658977e+02  -2.364466831558e+01 
1  5.992912559138e+00  -1.269249012212e+01  -7.634824613216e+00 
1  2.575200959894e+01   2.045246428870e+00   3.155003457256e-01 
1  5.510835320392e+01   2.408652571292e+01   1.097328036525e+00 
1  2.087547172738e+00  -5.629469062172e+01  -1.877178000686e+01 
8
 Atoms. MD step: 7000
1 -4.389392987994e+00   3.851149704984e+01   3.963162381382e+01 
1  1.417742274346e+01   1.319874144091e+01   1.208740669634e+01 
1  8.675883546301e+00  -1.091122413032e+00   3.195864226873e+01 
1 -2.509015744831e+00  -4.253398849478e+01   5.135535051086e+01 
1  6.803255999336e+00  -4.348054154890e+01   3.878674256860e+01 
1 -3.743638264135e+00   4.044806283964e+00  -1.405974224912e+01 
1 -6.847151444432e+01  -1.071439889910e+01  -5.563453930370e+01 
1 -1.325779747971e+01  -9.975027315640e+00   8.666961759857e+00 
8
 Atoms. MD step: 8000
1  3.493336337856e+01  -1.465588059241e+01   2.799018569220e+01 
1  2.787114859029e+00   1.845462835935e+01  -1.134632144491e+00 
1 -6.429441100183e+00   6.543251773795e+00  -7.266532200040e+00 
1  3.313077835302e+01  -4.708940759364e+01  -4.412313845490e+01 
1 -1.533883125019e+01   3.265334911334e+00   1.363584526056e+00 
1  1.249508990658e+01  -1.752227009462e+01  -2.194095180753e+01 
1  3.114068851820e+01   3.255793820771e+01  -5.868574112068e+00 
1 -3.638862986541e+01  -2.685078741174e+01  -1.612390465932e+01 
8
 Atoms. MD step: 9000
1  3.476551151943e+00  -1.757543467757e+01  -2.578304699914e+01 
1  1.605287184674e+01   2.974021905051e+01  -1.032451068939e+01 
1  6.440628584591e+01  -6.185461737178e+01  -1.257859732520e+01 
1  2.350036059742e+01   8.707316860360e+00  -1.676188545168e+01 
1  9.869060353628e+00  -1.064142798208e+01  -2.292650056330e+01 
1 -1.654312701454e+01  -4.600859181068e+01  -2.104291536394e+01 
1 -2.637352533411e+01  -3.345654631033e+01   3.585229773916e+01 
1  1.482252379400e+01   3.684403738089e+01  -2.742211430056e+01 
8
 Atoms. MD step: 10000
1 -3.402485252155e+01  -4.886158681668e+00  -4.213856839024e+01 
1  1.750246827312e+01   7.043632292064e+01  -2.903815723691e+01 
1  4.744953122254e+01   6.451001964057e+01   8.877332717984e+00 
1 -6.418513004214e+01  -4.161745012029e+01   1.481631588494e+01 
1  5.383758530263e+01  -1.700252501652e+01  -3.859178942483e+01 
1 -1.138202658089e+01  -1.015839511944e+01   3.997326182971e+01 
1 -2.537260002868e+01   1.785655658447e+01  -3.833573407142e+01 
1  5.449968652505e+01  -1.776916595994e+01   1.144370290961e-03 
8
 Atoms. MD step: 11000
1 -4.635760131282e+00  -3.732894964197e+00   2.575252137879e+01 
1 -1.667845658845e+01   1.569692863479e+01   3.985865290417e+01 
1  9.533224655605e+01   1.030970557028e+01   2.053955108192e+01 
1  7.975947721607e+01   3.187668549844e+00   8.548295646324e+01 
1 -2.773776229363e+01  -1.751254385656e+01   9.455725843499e+00 
1 -1.913468724404e+01   2.759690264565e+01   2.644070297201e+00 
1 -3.985371990346e+00   1.235242525986e+01   3.412578987332e+00 
1  1.422707290917e+01   1.907119508517e+01  -2.190179159452e+01 
8
 Atoms. MD step: 12000
1 -1.996510402623e+01  -1.273666186580e+00   3.010231930055e+01 
1 -2.878683876205e+01  -3.385592006495e+01   2.130330839540e+00 
1  3.903312396540e+01  -4.635796424465e+01  -4.747642629902e+00 
1  9.126270230759e+00  -1.408063947696e+00  -1.662513447533e+00 
1 -2.798387677272e+01   9.086218079051e+01   3.445228389731e+01 
1  1.678550334675e+01   2.961708710303e+01   1.860567820394e+01 
1 -8.480954074835e+00  -8.907232502615e+00  -1.022045897628e+00 
1  3.018350181937e+01  -3.084300135727e+01   1.782662404539e+01 
8
 Atoms. MD step: 13000
1  2.152315670067e+01   1.209328776333e+01  -6.280828424653e+01 
1  5.383045767398e+00  -2.522245054119e+01   1.933503469865e+01 
1  3.728731604905e+00   5.875014910710e+01  -4.914781150070e+01 
1  2.367446284088e+01   8.712697543339e+01  -1.308013323998e+01 
1  3.789758808732e+00   3.946774136430e+00  -1.202082415951e+01 
1 -2.500492807444e+01   6.148070258858e+01   3.030074912374e+01 
1 -6.328220709223e+00  -6.008942451500e+00   3.215550584727e+01 
1  2.729744243630e+01   9.171807709049e+01   3.849173221803e+01 
8
 Atoms. MD step: 14000
1 -2.850164454910e+01  -5.785201713102e+01  -1.511799742379e+01 
1  2.561879205022e+01   4.366710598130e+01   1.133231095671e+01 
1  4.628583096254e+01   2.343322084177e+01  -9.067448468625e+00 
1  3.107454390306e+01  -1.301963078232e+01   2.813988565069e+01 
1 -4.911038444284e+01   8.012143222431e+01   2.461768196649e+01 
1  1.835810191167e+01  -6.756058285289e+00  -2.856899671995e+01 
1  1.595247449545e+01  -3.631822790666e+01  -9.253902138115e+00 
1 -2.087277064740e+01   1.399287388471e+01   3.073941757804e+01 
8
 Atoms. MD step: 15000
1  1.520503109918e+01  -6.154567077590e+00   2.292952162297e+00 
1 -3.181656177774e+01  -2.188353438869e+01  -3.159938172351e+01 
1  5.587611522205e+00  -2.274100445278e+01   7.750709130674e+00 
1 -3.159258126398e+01  -1.183935168600e+01   3.810736476580e+01 
1 -7.747899802054e-02  -9.308127943575e+00  -4.190236840263e+01 
1  5.788596426528e+01   5.064107912917e+01  -7.953528441190e+00 
1 -2.093587783927e+01   1.925470745744e+00  -2.009559765584e+01 
1 -1.386952031861e+01   2.644856661682e+00   3.783046788610e+01 
8
 Atoms. MD step: 16000
1  2.016279969423e-01  -1.962475475374e+01   6.505722005330e+01 
1 -4.304115076252e+01   3.340295571052e+01  -4.387581609708e+01 
1  1.343006987769e+01  -1.301505068156e+00  -3.027336046008e+01 
1 -1.678657620339e+01  -1.241075467961e+01  -5.407294557084e+01 
1 -5.562894075814e+01   2.584509943348e+01  -8.723241775098e+00 
1 -3.003782922141e+01   7.619236384003e+01  -3.708814419613e+01 
1  1.167531726219e+01   4.591705881408e+01   1.690788814908e+01 
1  3.817935284646e+01   6.332930071345e+00  -4.063652788394e+01 
8
 Atoms. MD step: 17000
1 -1.736261096693e+01   2.816720449324e+01  -6.228215919481e+01 
1  4.405719816353e+01  -1.835105096520e+01   2.712275260542e+01 
1 -4.586403793433e+00   4.952142190102e+01  -5.397954985722e+01 
1  4.947951322223e+01  -5.544171784224e+01   9.976167290237e+00 
1  3.745724783844e+01   3.783521948454e+01  -5.347208893288e+01 
1  3.667391732163e+01  -4.251480726222e+01  -1.784819881553e+01 
1 -9.605727487716e+00  -6.378907840898e+01  -2.561559610613e+01 
1  9.041365302331e+00   2.110246427088e+01  -5.654160837172e+01 
8
 Atoms. MD step: 18000
1 -7.334984073310e+00   5.060998512200e+01   1.006118826920e+01 
1  2.790537273254e+01   2.842083474146e+01  -2.212865021999e+01 
1  5.814990553276e+01   5.326160061275e+01   6.597768833926e+01 
1  2.561713304271e+01  -7.869677191576e+01   5.243965370170e+01 
1 -9.391392896440e+00  -4.794903300303e+00  -4.908442149789e+01 
1 -2.399157477103e+00   1.748066620526e+01  -3.216598827343e-01 
1  1.910671860279e+00   5.895155631352e+00   2.507874472290e+01 
1  7.854126684096e+01  -6.153459132512e+01  -2.086975703741e+01 
8
 Atoms. MD step: 19000
1 -3.231439903604e+01  -6.291459280915e+00   5.394296974237e-01 
1  1.565396304541e+01  -1.929384218426e+01  -3.130739800609e+00 
1  4.055579026921e+00   3.073886790204e+01   9.706783979230e+00 
1 -2.703183771657e+01   1.213660503923e+01  -1.288424791875e+01 
1  1.534555950330e+01   4.872133283016e+00   3.096366323189e+01 
1  4.100006319806e+01   2.545866405896e+01   1.927812607744e+01 
1  4.951941150450e-02  -3.446165308737e+01  -7.066102567489e+01 
1  2.051810205180e+01  -3.009494817551e+01  -1.746883824814e+00 
8
 Atoms. MD step: 20000
1  1.463386503424e+01  -4.583129034021e+01  -5.767840985021e+01 
1  4.729060285895e+01   1.062880558140e+01   1.175749103094e+01 
1 -2.337049363466e+01  -6.498550106353e+01   5.769360443818e+00 
1  5.691974167511e+01   6.312114323311e+01   1.709215974417e+01 
1 -1.446487907801e+00  -4.511784043269e+01  -5.961786978102e+01 
1  4.296000815645e+00  -3.960999304980e-01  -5.264251159655e+01 
1 -4.648221885073e+00   4.572066856921e+00  -6.380240270132e+00 
1  3.349152386567e+01   3.452239382218e+01   5.771569261328e+01 
8
 Atoms. MD step: 21000
1 -3.357309721049e+01  -1.820166246966e+01  -1.801168920836e+01 
1 -2.205062970113e+01  -2.277434060378e+01  -4.354464153614e+01 
1 -2.444662978015e+00   1.479411170264e+01   3.977034167613e+01 
1 -3.020767961171e+00  -8.924998366012e+01  -4.447521693627e+01 
1  9.622162007474e+00   3.615215842715e+01  -3.268442968326e+01 
1  3.343124265186e-02   2.720946252992e+01   2.887229964966e+01 
1 -5.748586763318e+01   1.898850568082e+01  -4.740565538800e+01 
1 -1.772602491330e+01  -8.470146526150e+00   3.738070508647e+01 
8
 Atoms. MD step: 22000
1  7.942552106033e+00  -2.947151651235e+01  -5.094870813148e+01 
1 -6.768530429648e+00   3.333134676411e+01   8.052330212836e-01 
1  1.621187601689e+01  -3.407432347142e+01   2.557024449389e+01 
1 -2.653618191258e+01  -1.268381165261e+01   4.280009130185e+00 
1  1.118605250656e+01  -2.536377421138e+01  -4.086094198931e+01 
1 -6.579884381318e-02   1.772549178690e+01  -1.476949821858e+01 
1 -2.689219262249e+01  -2.149290166596e+01  -1.326281356849e+01 
1 -1.562370762493e+01  -6.395631669300e+00   2.623905101630e+01 
8
 Atoms. MD step: 23000
1  2.963779664871e+01   5.093292148372e+01   3.230189659092e+01 
1  5.716599755511e+01  -1.831810883469e+01  -5.484369874945e+00 
1 -6.305994550606e+00  -1.416292481397e+01   4.739991280166e+01 
1  6.159265144992e+01  -3.112320276068e+01   4.452279164769e+01 
1 -1.472846236022e+01  -2.177926520516e+01  -4.100800724427e+01 
1  3.577137697705e+01  -9.144934373349e-02  -2.276677490466e+01 
1  4.396624454923e+00   1.304482921385e+01  -4.022394551461e+01 
1  4.861302200462e+01  -3.720050827302e+00  -3.283890632044e+01 
8
 Atoms. MD step: 24000
1  2.304099757650e+01  -1.680364565771e+01   2.506823018012e+01 
1  2.949403800188e+01   6.780246220841e+01   7.641449957658e+01 
1 -4.058971478972e+00   7.251298957892e+01   1.650861986670e+01 
1 -1.853838646638e+01   2.814285796233e+01   3.531092595826e+01 
1  1.321247379483e+01  -1.115908897237e+00  -1.898758716003e+01 
1 -4.071676653441e+01   6.204143602217e+01  -2.301908803348e+01 
1  5.156129086463e+01  -5.956153184946e+01  -2.866282708224e+01 
1  5.574220516015e+01   7.498475084267e+01   1.664956484814e+01 
8
 Atoms. MD step: 25000
1 -1.003829347443e+00  -2.998319294733e+01  -1.025733659160e+02 
1  1.549230767594e+01   1.313732605353e+01  -2.255761948760e+01 
1  4.083287472790e+00   5.073134989063e+01  -1.919899479800e+01 
1  2.083612619783e+01  -2.835038859334e-01   4.611581658980e+01 
1  3.674465766360e+01  -1.648665079857e+01  -6.276128221979e+01 
1 -6.052281851330e+00   1.406954193993e+01  -6.053150540888e+01 
1  5.906557754388e+01   1.773963324511e+00  -4.518965210844e+01 
1 -1.168349949389e+01   6.275111202685e+00   1.910437720279e+01 
8
 Atoms. MD step: 26000
1  5.652885903820e+01  -2.689117468224e+01  -1.915959242242e-01 
1  1.882378467806e+01  -8.502846578841e+01  -4.258028325227e+01 
1  5.091055039461e+01  -1.380386628947e+01  -1.933305159572e+01 
1 -1.776897658299e+01  -3.009277287501e+01   1.353454362322e+01 
1  3.799472109947e+01   5.942802048639e+01  -3.670355887451e+01 
1  2.819057655036e+01   1.923357523563e+01  -5.349461470570e+00 
1 -4.564263113346e+01   6.061389841294e+01  -1.948937253326e+01 
1 -4.335692428207e+01  -2.325961383245e+01  -9.441947810786e+01 
8
 Atoms. MD step: 27000
1 -1.791014389857e+01   2.340744089935e+01  -4.156961992414e+01 
1 -2.175984336495e+01  -1.545168403492e+01  -5.861828930183e+01 
1 -5.588132930018e+01   1.909507528830e+01  -2.269819554472e+01 
1 -3.290370997099e+01   2.369447988210e+01  -1.153257043982e+01 
1 -6.799636779107e-02  -2.447787563747e+01  -2.755858983843e+01 
1 -4.601598533199e+01   8.029459558514e+01   2.499422781309e+00 
1 -2.102872779856e+01  -2.264962346376e+01   1.791420353452e+01 
1  5.363808615674e+01  -1.556372889562e+01   1.146857004856e+01 
8
 Atoms. MD step: 28000
1 -6.107216550966e+00   1.244433205839e+01  -1.304080097333e+01 
1 -1.079640302260e+01   4.675068736610e+01  -4.834882336331e+01 
1  2.432135039027e+01   4.001489546457e+01  -2.999387859714e+01 
1 -4.778890053400e+01   2.149017086434e+01   7.616023897502e+00 
1  1.804635215006e+01   2.431953162338e+00   7.226057321823e+01 
1 -9.111769733970e+00   4.946698423648e+01  -1.030358216615e+01 
1 -8.095320155728e+01   2.294734266759e+00   4.655925100560e+01 
1  6.509205857935e+00  -6.300160907528e+01   3.133526809452e+01 
8
 Atoms. MD step: 29000
1  1.549573686575e+01   9.599593109074e+00   2.583615399462e+01 
1 -2.858643661602e+01  -6.500564029686e+00   1.255798055328e+01 
1 -3.062961752200e+01  -8.800678369047e+00   8.785836754483e+00 
1 -2.493218905637e+01  -1.507862674510e+01   6.246004609988e+01 
1  1.402212503377e+01  -9.374961451280e+00   1.924923682734e+01 
1 -3.667492523744e+01  -1.904165411234e+01   2.334327997300e+01 
1  2.731995693281e+01  -1.839552809886e+00   1.378593339412e+01 
1  1.863993091890e+01   1.914859970431e+01   6.640771033267e+01 
8
 Atoms. MD step: 30000
1  6.380491719600e+01  -1.182229822456e+01  -2.135433211642e+01 
1  1.946187763617e+01  -1.109956648708e+01  -1.548095661782e+00 
1  2.158846154607e+01  -4.140191900658e+01  -4.096104551498e+01 
1 -3.344911441043e+01   4.528744595969e+01   1.945378473293e+01 
1 -3.739782721418e+01  -3.032882393407e+01   2.206319378573e+01 
1 -1.205695364359e+01  -5.186576965219e+01  -1.496623466449e+00 
1  5.466751719278e+01  -1.064831541317e+01   1.036435602940e+01 
1 -4.165566086353e+01  -2.329271898097e+01   2.722027598634e+01 
8
 Atoms. MD step: 31000
1 -1.667891521811e+01  -2.116920521232e+01  -5.835475262693e+01 
1  2.328044567013e+01  -2.351123993578e+01  -1.096871922789e+00 
1 -3.193094141596e+01   5.672145293976e+01  -2.475626863587e+01 
1 -2.120655520989e+01  -1.373292545961e+01   4.988568244534e+01 
1 -5.961570836299e+01  -3.480516119471e+01  -2.901757070848e+01 
1 -1.273451327460e+01   3.103092637056e+01   3.352629925179e+01 
1  1.945020900737e+01  -5.310382158825e+01  -3.211177984938e+01 
1  6.637301505572e+01  -3.007974763561e+01  -2.649629473578e+01 
8
 Atoms. MD step: 32000
1  2.342195709260e+01   6.214243476664e+01   3.109975981073e+01 
1  2.278145716227e+01  -4.042412851014e+01  -4.376414896930e+01 
1 -1.453531008887e+01   8.605144464090e+00  -1.116311515217e+01 
1 -3.819917243365e+01   4.227288290282e+01   4.078091586792e+01 
1  3.161265510027e+01   6.759266157383e+01  -1.487443708026e+00 
1  5.055940362268e+00  -1.141140612238e+01  -4.692159407205e+00 
1  2.720579080364e+01  -1.492430966967e+01  -7.496570373159e-04 
1 -1.564836755576e+01   5.250763374797e+00   6.935446810553e+01 
8
 Atoms. MD step: 33000
1  1.205365961625e+01   4.786049190259e+01   3.582924221257e+01 
1  6.255812883610e+01   5.275150421229e+01  -8.220440515881e+01 
1 -3.265509334421e+01   3.807221821972e+00  -3.296895617742e+01 
1 -2.779214208413e+01  -2.763437034057e+01   2.669502038126e+01 
1 -1.718616446189e+01   1.521181497606e+01   4.482552257160e+00 
1  4.518436765795e+01  -9.695427343987e-01  -6.355453696786e+01 
1  3.664014193325e+01   3.615176243547e+01   6.954778023754e+01 
1  1.729391010758e+01   4.793135365736e+01   2.528560553700e+01 
8
 Atoms. MD step: 34000
1  3.003161401804e+00   1.406235742227e+01   6.585618854574e+01 
1  2.425587227519e+01   1.838903308116e+01  -5.571278563843e+01 
1  6.172336592183e+01  -4.960133969713e+01  -7.959923742655e+00 
1 -2.695241624254e+01   3.639242297098e+01  -4.487004131363e+01 
1  8.798296576529e+01  -8.406793448301e+00  -3.192482070185e+01 
1 -2.065017155384e+01   1.312149779210e+01   5.124149583161e+01 
1 -1.381786045072e+01  -8.088959796648e+01   2.540143712588e+01 
1 -3.416191935244e+01  -3.294745879767e+01  -7.785501042593e-01 
8
 Atoms. MD step: 35000
1 -6.614192896889e+00  -2.705319725905e+01   5.539965697712e+01 
1 -3.319440661247e+01   8.006061616435e+00  -6.014549583511e+00 
1  4.953404881728e+01   3.865846682780e+01  -3.329394927996e+01 
1 -1.065529401575e+01   3.935941979743e+01   6.157421701740e+01 
1  1.317247296211e+00  -8.503280888561e+00   2.887932620905e+01 
1  2.649707109488e+01   3.546452406004e+01   1.038121749718e+02 
1 -1.208577645087e+01   2.827027541032e+01  -3.197624902086e+01 
1 -8.642845292968e+00  -1.071169018500e+01  -3.460484364748e-01 
8
 Atoms. MD step: 36000
1  2.099145608087e+01  -2.985258199822e+01  -3.131642980203e+01 
1  6.353462889502e+00  -1.835413847634e+01   4.708753280043e+01 
1  1.690259591104e+01   1.422407112440e+01   5.023379033132e+01 
1 -1.979477857089e+01  -1.166075450167e+01  -3.099590492787e+00 
1  1.185326721124e+01  -1.708066049301e+01   2.075767977886e+01 
1 -5.571684552587e+00   1.085017294979e+01  -1.216642474253e+01 
1 -1.130988007889e+01   6.116270487534e+01  -5.049771929451e+00 
1 -8.621725061087e+00   5.491291052258e+01   3.203333565978e+01 
8
 Atoms. MD step: 37000
1  1.822554029700e+01   2.259477751537e+01   1.304034388628e+01 
1  5.623581845053e+01   5.651773305576e+01  -3.913954065222e+01 
1  2.875812175998e+01   7.989700026212e+00  -3.848425091965e+01 
1 -1.722729977817e+01  -4.252240516283e+01   3.684632983968e+00 
1  6.314703094334e+01  -3.226087149044e+01  -1.585517745401e+01 
1  1.764246076045e+01  -4.460949693890e+01  -2.298475521105e+01 
1  6.259190670329e+01   1.002599605936e+01  -1.572916227297e+01 
1  2.614663524673e+01  -1.285885674356e+01   6.646160792923e+00 
8
 Atoms. MD step: 38000
1 -1.777935840760e+01  -7.254718840949e+00   3.003354644873e+01 
1 -4.044806669118e+01   1.338026091416e+01   1.318062479716e+01 
1  2.536974248658e+01  -3.923084317074e+00  -9.735644832930e+00 
1  3.137077178951e+01  -1.650058385557e+00  -3.206755990220e+01 
1 -5.263214662717e+01   2.849320663716e+00  -4.983510261776e+01 
1  6.925456478893e+01   1.810804299979e+01   1.588516606943e+01 
1 -2.803367765636e+00  -3.529017975764e+01  -2.630627904642e+01 
1  3.428527273071e+00   3.307970335488e+01  -2.604398996780e+01 
8
 Atoms. MD step: 39000
1 -1.486633418321e+01  -9.468609527111e+00   3.538694661039e+00 
1  9.621727674708e+00   1.045973536916e+01  -7.860944688509e+01 
1  5.872019738690e+01  -3.709516828086e+01  -2.853973639161e+01 
1  2.361484167991e+00   9.521896290241e+00  -1.136918931820e+01 
1  8.707611057571e+00  -1.059733553385e+01  -5.090283371381e+01 
1 -3.314405103930e+01  -7.599974894978e+00  -5.384541626837e+01 
1  6.407721968305e+01   4.719012237881e+01   3.032504379461e+01 
1 -3.217824806027e+00   2.813854722714e+01   1.823872896579e+01 
8
 Atoms. MD step: 40000
1 -2.290806337935e+01   5.773442177068e+01  -1.817984308226e+00 
1  3.720372215699e+01   2.838125165745e+01  -4.071451366472e+01 
1 -8.311387328967e+00   2.735447346378e+01  -2.032398833965e+01 
1  4.480086457564e+01   5.365209843494e+01   9.051452227157e+00 
1 -1.935474065577e+01  -1.020570657674e+01   5.736046729779e+00 
1 -4.516023826486e+01   4.537366821589e+01  -4.522517272406e+01 
1  4.090812313589e+01  -4.283924251940e+01   7.679326884076e+01 
1  5.174969988230e+01  -8.441144099577e+01  -3.130201683809e+01 
8
 Atoms. MD step: 41000
1  4.533129450257e+00   9.270871213240e+00  -7.145096512679e+00 
1 -3.428022383564e+01  -6.327508210925e+01  -6.423568032827e+01 
1  3.806610717306e+01  -1.624547872066e+00  -5.265757714325e+01 
1 -5.663610750939e-01  -3.545328542195e+01   9.698965620646e+00 
1 -4.014367344824e+01   1.354175872460e+00  -5.832583951369e+01 
1 -3.177461812942e+01   1.335575767219e+01   6.233045266807e+01 
1  3.792943925336e+01  -1.724118906831e+01  -2.944045471366e+01 
1  3.939198883172e+01   1.311595067274e+01   9.029250060061e+01 
8
 Atoms. MD step: 42000
1 -2.167233350771e+01  -3.048449061431e+01  -3.542324172830e+01 
1 -3.134156749090e+01   4.745347661621e+01  -7.263096866862e+00 
1 -5.486167117664e+01  -4.980021113367e+01   2.622954824581e+01 
1  5.547856926763e+01   1.687928918041e+01   4.104048164670e+01 
1 -2.642629488758e+01   1.562281237617e+01  -1.791005318984e+01 
1  1.048607733039e+01  -6.567143746377e+00   2.344988248140e+01 
1 -3.225260527215e+01   2.773800438027e+01   4.893609010698e+01 
1  5.219617462622e+01   3.996475546937e+01   4.443317593244e+01 
8
 Atoms. MD step: 43000
1 -3.069464040111e+01   3.719543991269e+01  -3.543757852538e+01 
1 -1.197196109942e-01   2.298417836565e+01   4.924234600412e+01 
1 -3.692210597652e+01   6.405091665128e+01  -6.329150882597e+00 
1 -4.729972594516e+01  -6.457618794509e+01  -5.100393941959e+01 
1  1.319144163608e+01  -1.280996182060e+01   2.758548346016e+00 
1  6.256240632235e+01  -1.671292268920e+01  -8.351186420731e+01 
1  3.557118180457e+00  -1.664865083567e+01   2.547233420320e+01 
1 -1.286780720895e+01   8.722605932247e+00  -2.562524886188e+01 
8
 Atoms. MD step: 44000
1  4.147347837123e+01  -2.130014034497e+00   1.558953727213e+01 
1  2.691907678880e+01  -3.672915696560e+00   1.628272315072e+01 
1  5.761910904042e+01  -1.358537910271e+01   2.703044720897e+01 
1  5.167788111926e+01  -3.083151440469e+01   2.678828786093e+01 
1  2.773256963824e+01  -6.290131980388e+01  -5.151703880715e+01 
1  1.354077444268e+01  -2.982200388619e+01   2.402165911502e+01 
1  9.222722219637e+00  -3.113473591015e+01   3.872781723594e+01 
1 -5.715683864645e+01   3.125441984680e+00  -2.784855588197e+01 
8
 Atoms. MD step: 45000
1  3.499678771123e+01   3.995947637066e+01   3.994914193712e+01 
1  4.516034200406e+01  -7.083993283394e+01  -1.392369518888e+00 
1 -2.609533431362e+01  -3.037839890932e+01   4.314690691534e+01 
1  4.701358078477e+01  -3.801091622741e+00   1.951322233915e+01 
1 -7.277362494441e+00  -4.661032507457e+00   9.409810526064e+00 
1 -2.523198790694e+01   2.663781396329e+01  -1.038370802246e+01 
1  1.633410917881e+01   9.565473126461e+00   5.614823161981e+01 
1 -5.165648145226e+01   4.321990172061e+00   3.319563099294e+01 
8
 Atoms. MD step: 46000
1 -2.324514619483e+01   5.211357680296e-01   5.957369933668e+01 
1  5.445189303917e+01  -3.107464954032e+01   7.032219894592e+00 
1 -2.028274160833e+00  -2.458437953037e+01   2.517620005433e+01 
1 -2.131281479295e+01   7.886351183836e+00   2.513217217115e+01 
1 -6.003643702584e+01  -2.754079977417e+01   1.039085371638e+01 
1 -4.088350209754e+01   1.659685461002e+01   5.497673583452e+01 
1 -1.775689395433e+00   3.102787536176e+01   7.687543310190e-02 
1 -1.466965338036e+01   4.102146528213e+01  -2.645016863818e+01 
8
 Atoms. MD step: 47000
1  1.224817165099e+01   4.160519482333e+01  -3.001231234434e+00 
1  3.893597113697e+01  -3.395889379603e+01   2.745090553928e-01 
1 -4.329255406389e+01  -5.548797052528e+01  -8.102757205342e+00 
1  1.827310375986e+01   3.294586349518e+00   2.588491223684e+01 
1 -3.712269518705e+00   2.547178785848e+01   1.686663169542e+01 
1 -6.537795290570e+01   1.891964221943e+00  -2.038457896729e+01 
1 -1.665890043009e+01   1.964127073641e+01   6.879109011172e+01 
1  1.718488158027e+00   5.973880014345e+00   5.050974757307e+00 
8
 Atoms. MD step: 48000
1  1.314261492985e+01   5.828050702987e+01   1.421455478521e+01 
1  5.498232746230e+01  -4.139536060667e+00  -7.096317179529e+01 
1  1.961555139361e+01  -2.056389349085e+01   1.515361662380e+01 
1 -1.485181677878e+01  -1.793654747123e+01  -2.158679777031e+01 
1  2.581058813609e+01   1.820843599593e+01  -4.211984711061e+01 
1 -1.912990335345e+01  -1.489871664213e+01  -3.099070206811e+01 
1 -2.953660962342e+01  -4.950882855157e+01   1.873258574477e+01 
1  5.465153545497e+01  -2.591195295992e+01  -1.582033678944e+01 
8
 Atoms. MD step: 49000
1  1.058621884756e+01   5.258186339085e+01  -2.845812347861e+01 
1 -2.676758238045e+01  -2.424585724639e+01   5.663595068301e+01 
1  3.953235863434e+01   9.454119719034e+01   3.512619798041e+01 
1  1.357960344284e+01  -6.116075469857e+01   7.741954760781e+01 
1 -2.167403273440e+00   2.021214353798e+01  -5.706891793207e+01 
1  4.413683008876e+00  -5.495725370657e+00   4.621258530535e+00 
1 -1.396733494792e+01  -5.848290745674e+01   5.733701809778e+01 
1  1.842758070431e+01  -7.219838934003e+00   2.736264718584e+01 
8
 Atoms. MD step: 50000
1  3.145294756387e+01   2.275697141303e+01  -6.605568818710e+00 
1 -7.728027328657e+00   9.230473636273e+00  -4.854708559118e+01 
1 -1.351287786108e+01   2.725342732728e+01   3.888539183930e+01 
1  2.233044138569e+01   2.002612949829e+01   2.452371638187e+01 
1  6.855703615631e+01   3.274587634871e+00  -7.295759666431e+00 
1  6.363120097624e+01  -2.221415278290e+01  -7.305514890527e+01 
1  3.465184824242e+01   3.556041297578e+01   2.430443653650e+00 
1  5.918544326282e+01  -4.050651731456e+00  -8.914582116390e+00 
8
 Atoms. MD step: 51000
1 -4.135766443445e+01  -6.288334024231e+01   1.640881484905e+00 
1  6.847275578826e+01  -4.006488910714e+01  -3.299331103829e-01 
1 -2.800385069255e+01   6.308369816858e+01   1.095347199997e+01 
1 -7.360253800518e+01  -1.439438395542e+01  -1.130804180104e+00 
1  8.448515390446e+01   2.412622192746e+01   6.381975311200e+01 
1  5.518617792257e+01  -3.624634916550e+01   1.926111568164e+01 
1 -1.721044346916e+01  -1.342791346865e+01  -6.650194369603e-01 
1 -3.256961299497e+01  -2.358129164106e+01  -1.646648385160e+01 
8
 Atoms. MD step: 52000
1 -1.798222390703e+01  -4.608487444998e+01   4.810466160901e+01 
1  5.672299665637e+01  -1.832380037082e+00  -1.885892681196e+01 
1  9.616000722878e+00   3.163248870368e+01   2.123477027425e+01 
1 -2.707798946315e+01   1.180872610048e+01  -5.095867048660e+01 
1  2.660216047896e+00   2.267134172647e+00  -1.106084748405e+01 
1 -2.749341421595e+00  -5.291872202335e+00  -6.570373126902e+01 
1 -1.909224575478e+01   4.590736870950e+01  -1.639654496315e+01 
1  4.192168086091e+01   8.996397258338e+00   2.375830742591e+01 
8
 Atoms. MD step: 53000
1 -6.395728249879e+01  -1.921360494983e+01   9.407413194596e-01 
1  1.277213634232e+01  -1.833919405212e+01   9.716168082350e+01 
1 -5.553070870825e+01  -6.220250222580e+01  -2.577396029758e+01 
1 -2.542259955267e+01   7.173550074832e-01   3.557342548232e+01 
1  1.191498840289e+01  -7.450877658162e+00   6.196233613287e+01 
1 -6.918807702484e+00   4.520666773930e+01   1.778043799421e+01 
1 -1.568184763992e+01   2.750312329219e+01  -2.049933210442e+01 
1 -3.168510910435e+01   2.182165596846e+01   5.394251286323e-01 
8
 Atoms. MD step: 54000
1  4.311411244098e+01   1.716629717566e+01   5.997044550572e+00 
1  1.609613446783e+01  -2.223070911362e+01   4.085985997502e+01 
1  3.748110319784e+01  -4.460663440567e+01   2.700560380311e+01 
1  8.863121725107e+01  -2.982009404874e+01   2.379216760880e+01 
1  3.708767568101e+01  -1.188291060203e+01   2.835677945679e+01 
1  4.035786805340e+01  -1.174413683935e+01   1.960186649005e+01 
1  2.551891693374e+01  -3.852637291055e+01   1.846092884607e+01 
1  4.971622991758e+00  -1.027881801462e+01   2.748754523585e+01 
8
 Atoms. MD step: 55000