8
 Atoms. MD step: 0
1  7.395189469585e+00   2.868572838882e+01  -2.182869978595e+01 
1  3.581768520100e+01  -5.040078629445e+01  -1.872152468762e+01 
1 -8.956057854562e+00   4.753479582038e+00   1.574679953468e+00 
1  1.977878075509e+01   3.607585693886e+01  -2.422827477529e+01 
1  7.002853144553e+01   7.647335132185e+01   2.165794942044e+00 
1  2.570063494682e+01  -1.914862205628e+01   1.732125061436e+00 
1  5.826318678326e+01  -1.353795077675e+01  -5.974027404880e+01 
1  5.370653369435e+01  -9.140397982714e+00  -5.549262301199e+01 
8
 Atoms. MD step: 1000
1 -3.338473409529e+01  -3.411080750605e+01   2.022956862625e+01 
1 -8.137881256617e+00   1.954178650711e-01  -3.755797229943e+01 
1 -2.494035580784e+00   1.256578248893e+01   5.385484503345e+01 
1  2.260412704983e+01   1.997562482007e+00  -5.644047307978e+01 
1 -2.570367782676e+01   2.522708293739e+01   3.142261550187e+01 
1 -5.072569542188e-01   1.677939380222e+00  -2.871713722976e+01 
1  2.516467125615e+01   1.916470282511e+01   9.881790973668e+00 
1  1.895667807950e+01  -2.944109519008e+01   4.545853622970e+00 
8
 Atoms. MD step: 2000
1  1.706583881005e+01   5.125357145000e+01   3.529132096059e+01 
1  5.629534839844e+00  -1.932583850272e+01  -4.141224620230e+01 
1 -2.255806311799e+01  -1.228783624781e+01  -4.022683458038e+01 
1  5.332171182627e+01   1.049605444465e+01  -1.887338455964e+01 
1 -4.017487130694e+01   4.423548401761e+01   3.117089254299e+01 
1  1.716297497131e+01   4.133706706438e+00  -7.722787676291e+00 
1  1.280302899367e+01   2.631155185279e+01   2.501084278035e+00 
1 -3.813400739560e+00   2.987408080579e+01   1.964439422071e+01 
8
 Atoms. MD step: 3000
1 -4.316597965811e+01   4.960579886141e+01   3.753893736520e+01 
1 -1.983637434259e+01   2.143617943935e+01   4.978963525315e+01 
1 -2.903168140891e+01   7.496098628752e+01   2.777452961889e+01 
1 -2.140112122158e+01   3.679572355353e+01   5.716274656436e+01 
1  3.653554926241e+01  -1.757675161957e+01  -3.143195011128e+01 
1 -2.120355764192e-01   4.158515026353e+01   2.762236061734e+01 
1  3.238815409927e+01   2.432042918031e+01  -1.056386164050e+01 
1 -6.023803416661e+01   1.020383074371e+00   4.790016898058e+01 
8
 Atoms. MD step: 4000
1 -1.870561516392e+01  -2.192506046304e+01   3.498922213492e+01 
1 -2.135275901408e+01  -9.618500436842e+01   6.211641796147e+01 
1  5.979891020931e+01   1.351882361796e+01  -1.564684896959e+01 
1 -4.254545027630e+01  -1.381896296781e+01   1.041201951176e+01 
1 -5.153121473880e+00   2.720549555345e+00  -2.225915341467e+01 
1 -1.230800876320e+01  -8.368566593838e+00  -2.531325175144e+01 
1 -3.763710889555e+01  -1.462913207414e+01   9.188294268593e-01 
1  2.162589252733e+01  -1.040703092205e+01   4.630426405345e+01 
8
 Atoms. MD step: 5000
1  6.281516654150e+00   4.297764188225e+01   1.457027729629e+00 
1  2.167613139633e+01   1.922910036686e+01  -7.275919679513e+01 
1  4.120154422725e+00  -1.039142904779e+01  -3.431174623943e+01 
1 -9.897279449045e+00  -3.065175486374e+01  -3.423672223991e+00 
1  3.842441874097e+01   2.214695929810e+01   4.112427713439e+00 
1  8.995711467504e+00   1.864313066996e+01  -2.053420005738e+01 
1 -1.438754249966e+01   8.092171477434e+01  -2.473161196971e+00 
1 -2.528631362096e+01   1.299828106952e+01   9.533730990460e-01 
8
 Atoms. MD step: 6000
1 -3.489721913768e+01   2.344484698467e+01  -4.818928942335e+00 
1  1.520491788816e+01  -3.548568924463e+01   1.373699763125e+01 
1  3.029482039494e+01  -8.383772904089e+01   2.008378611766e+01 
1  5.686262106964e+01   1.076258726487e+02  -4.724543212507e+01 
1 -3.907304504674e+01  -1.947288230862e+01   8.573637591925e+00 
1  5.628654134960e+01  -2.162042929460e+01  -4.882044280213e+01 
1 -3.613810447412e+01   1.437032140977e+00   3.248959002154e+01 
1 -3.460915432517e+01  -2.180279179066e+01  -2.722285961901e+01 
8
 Atoms. MD step: 7000
1 -4.511361308803e+01   4.940234207909e+01   1.514219393289e+01 
1  6.917936187102e+01   2.221035282650e+01  -2.478278586930e+01 
1  2.697650297420e+01  -3.375108674862e+01  -1.910998826078e+01 
1 -3.218594274474e+01  -1.321542246693e+01  -2.464067641677e+01 
1  1.897781047632e+01  -4.960816114069e+01   1.114453150865e+01 
1 -6.908365619244e+01   2.104569594956e+01   2.537927495759e+01 
1 -3.441904373277e+01   1.186422707163e+01  -3.283002609571e+01 
1  1.826646187651e+00  -5.025457860193e+01  -2.448246246124e+01 
8
 Atoms. MD step: 8000
1  6.758393154937e+01   2.551595462611e+01  -4.045821667185e+01 
1 -1.810895934086e+01  -1.101653715534e+01   3.603953443066e+01 
1 -5.307643483443e+01  -3.020370061159e+01   8.078447639712e+00 
1  5.525317701760e+00  -1.742429452003e+00  -6.664684196051e+01 
1 -8.139968151896e+00   3.778032786525e+01   1.514841866591e+01 
1 -2.008111507524e+01  -3.204066971652e+01  -4.468436747808e+01 
1 -8.062301194702e+01   4.245287649004e+01   1.219238984216e+01 
1 -3.481132213459e+01   2.915848717755e+01   1.219701057640e+01 
8
 Atoms. MD step: 9000
1  4.307233716272e+01   4.797777354094e+01  -3.848544083505e+00 
1 -2.434655187207e+01  -4.160752550763e+01   1.770337802224e+01 
1 -4.571800549583e+00  -1.019512561142e+01  -5.476003153779e+01 
1  6.423766052276e+00  -2.577312679096e+01  -2.054000013041e+00 
1 -5.369223176544e+01  -9.895986875412e+00  -4.293939345056e+01 
1 -8.612922122712e+00  -4.858049339023e+01   3.399896098800e+01 
1 -7.535360831437e+00   4.667326745089e+01  -1.948159672726e+01 
1 -1.889455269313e+01   9.250297598398e+01  -2.440807798529e+01 
8
 Atoms. MD step: 10000
1 -1.738488416734e+01  -3.118184716611e+01  -1.592652088072e+01 
1  2.459043124658e+00   6.355352298989e+01  -1.020479517474e+01 
1  4.873304059589e+01  -4.089513685795e+01  -2.088692457973e+01 
1 -5.688361240108e+01  -2.092166237428e+01  -1.145105426245e+01 
1 -2.764213007730e+01  -6.804967039627e+01  -6.852602205035e+01 
1  1.112343016674e+01  -1.258958567227e+01   3.933595987814e+01 
1 -2.936383134590e+01  -1.247639562948e+01  -3.086693779109e+01 
1  3.621001363901e+01   1.101186000502e+01  -2.260427580034e+01 
8
 Atoms. MD step: 11000
1 -3.475977350780e+01   2.027322153883e+01   7.537838101715e-01 
1 -8.136931601410e+01  -2.603947407583e+01   1.899717643097e+01 
1  4.470615963703e+01   1.314809429156e+01   2.994053337245e+01 
1 -9.939290334840e+00  -5.353350078880e+01   6.557362209853e+01 
1  3.890899922709e+00  -3.447499054777e+01  -3.861443762708e+01 
1 -6.889787299286e+01  -1.241594051058e+01   6.131860096315e+00 
1 -2.148686857319e+01   1.382715843558e+01  -2.326538355856e+01 
1  3.773248120485e+01  -1.048171428482e+01  -2.178154347920e+01 
8
 Atoms. MD step: 12000
1  1.645938410451e+01  -2.374017179175e+01   2.611817593262e+01 
1 -4.387500391783e+01  -8.480001932528e+00  -8.458064756143e+00 
1  7.667018370701e+01   1.182249543343e+01  -6.782049214589e+01 
1  3.525447640979e+01   1.835672309943e+01  -6.490505853673e+01 
1 -2.624404681511e+01   9.073751390876e+01   3.947910888215e+00 
1  4.520914457337e+00  -3.526405680070e+01   2.158937554798e+01 
1  2.140687774100e+01   2.793995055658e+01   4.204399277300e+01 
1  2.515845183447e+01  -9.639599752254e+00   3.861767208144e+00 
8
 Atoms. MD step: 13000
1  4.870417427761e+01   1.127451087168e+01  -4.441076169242e+01 
1  1.486248377481e+01  -1.164156396184e+01  -3.016526584136e+01 
1  1.536866303962e+01   1.111569051518e+01  -1.851207542057e+01 
1  2.142730231930e+01   1.524882504091e+00  -6.314374933872e+01 
1  3.776650365846e+01  -5.952676688407e+01  -2.286360349502e+01 
1 -4.677870354878e+01   4.836323602121e+01   3.727222680521e+00 
1 -2.560572360448e+00  -7.875958601653e+01  -1.440375356142e+01 
1  5.204833943572e+00   8.042379603479e+01   5.953713955994e+01 
8
 Atoms. MD step: 14000
1 -2.457023238887e+01  -1.367376240733e+01  -4.614202134625e+01 
1 -4.146020922970e+01   3.872525753387e+01   3.208891909563e+00 
1  7.618207207417e+00  -3.917328748499e+00  -1.092768824264e+01 
1  7.450042305394e+00   2.241528149315e+01   5.255414969326e+01 
1 -1.672738401737e+01  -1.189675293901e+01  -7.307616666967e+00 
1 -6.835769123972e-01   1.454975952192e+00  -5.400086162845e+01 
1  4.624965926056e+00  -4.564290458020e+01   1.192852175963e+01 
1  1.996395320999e+01  -4.734663403088e+00  -9.706429583760e+00 
8
 Atoms. MD step: 15000
1 -4.409049161088e+01   2.284525158789e+01  -5.276720445187e+01 
1  3.469298160500e+01   2.012258726202e+01   7.910882655464e+00 
1  1.337522481744e+00  -4.631737336960e+01  -2.283307010748e+01 
1  4.658301767822e+00   2.849741714780e+01  -1.366246803124e+00 
1  1.670471739586e+01   3.175237623733e+01  -7.788125509451e+01 
1  4.600949656067e+01   1.879891422911e+01   2.654046772883e+01 
1 -3.191090890784e+01   8.046967391566e+00   5.343649810457e+00 
1 -3.677524817683e+01   3.907912273134e+01   4.952817643468e+01 
8
 Atoms. MD step: 16000
1 -2.353431739852e+01   2.995425020720e+00   1.852401515762e+01 
1 -6.226247480005e+01  -1.681195396136e+01  -6.754057683506e+01 
1  1.098588880043e+01  -6.512456963822e+01   1.504890254374e+01 
1 -1.864924953814e+01  -2.291661961770e+01  -8.304171476449e+01 
1 -6.315303742441e+01  -1.572648796192e+01  -1.613064311710e+01 
1 -4.002874724914e+01   1.142065078526e+01  -5.969685530428e+00 
1  1.810382399735e+01   8.929805090216e+01   1.387791963898e+01 
1  2.602453323262e+01   2.908150821355e+01  -2.255067952253e+01 
8
 Atoms. MD step: 17000
1 -8.613377153830e+00   2.576527983881e+01  -5.390962078587e+01 
1  3.260659913164e+01  -1.822508919753e+01   6.109026575244e+01 
1  5.616695456335e+00   4.854034965466e+01  -8.951780222030e+00 
1  2.851323532087e+01  -4.616585299039e+00   3.458932840279e+01 
1 -2.896371889740e+01   6.569405301085e+01  -1.087163477268e+01 
1  6.698152035360e+01  -2.830749268894e+01  -5.918715126061e+01 
1  4.279663759760e+01  -4.377077569709e+01  -2.182988213084e+00 
1 -2.398257987439e+01  -6.915282525263e+00  -1.723640054844e+01 
8
 Atoms. MD step: 18000
1  5.783617703801e+01   2.113246347075e+00   3.102269220446e+01 
1  6.819916899919e+01   1.600948892459e+00  -5.644806277444e+01 
1  1.294766290691e+01  -2.399725612296e+00   2.086480961604e+01 
1  4.352766100257e+01  -2.417670225062e+01   1.421420635712e+01 
1 -3.855642337820e+01  -2.802424244342e+01  -5.446010592130e+01 
1  5.293058661358e+00   3.485801456985e+01  -2.073915831553e+01 
1  2.068803619182e+01  -1.679265877902e+01   4.305376720605e+00 
1 -1.766197451232e+01  -8.991509708026e+01  -1.948643007422e+01 
8
 Atoms. MD step: 19000
1 -1.590557950188e+01  -4.198694760948e+01  -4.520212527037e+01 
1  3.960175264515e+01  -1.562626410386e+01  -2.186199450983e+01 
1  5.928046031369e+00   9.728526102946e-01  -1.106826181397e+01 
1 -2.664711341603e+01   1.923657805627e+01   3.806012010981e+00 
1 -3.615073142612e+01  -1.916008370728e+01   2.276663867024e+01 
1  1.019296665573e+01  -3.332572830585e+01  -7.099884795677e+01 
1 -4.363615582479e+01  -4.803296154520e+01  -2.387127289976e+01 
1  3.580248763373e+01  -2.151524115595e+00   3.422487154952e+01 
8
 Atoms. MD step: 20000
1  2.548282455218e+01  -3.796086847710e+01  -4.918068271121e+01 
1 -4.600656839777e+00   2.335070979497e+01   5.642662509568e+00 
1 -3.013825636508e+01  -7.607591624536e+01  -3.258255759461e+01 
1  6.037694892495e+01   5.983540583961e+01   5.579376393946e+01 
1 -9.222884161945e+00   7.822287018121e+00  -6.055296550909e+01 
1 -2.246646632997e+01   8.797208034662e+00  -6.160275643718e+01 
1 -1.287875700976e+01  -1.313678284916e+00  -1.139456117255e+01 
1  9.689882132981e+00   1.028620035488e+01   7.524083318058e+00 
8
 Atoms. MD step: 21000
1  2.128392209059e+01   7.932408185180e+00  -5.544753700100e+01 
1 -3.566034130287e+01   4.055335710452e+00   1.323576662856e+01 
1 -2.995339085428e+01   8.563329233024e+00   2.451544850773e+01 
1  2.975224515143e+00  -1.439528867849e+01   2.365705642433e+01 
1 -4.764249933642e+00   2.458382125285e+01  -3.324157647694e+01 
1 -1.871479508682e+01   9.938638570222e+00  -9.164312274591e-01 
1 -6.858956539351e+01  -2.665891994333e+01   2.246561742789e+01 
1  1.106913146956e+01   4.434513816345e+01   4.468256311136e+01 
8
 Atoms. MD step: 22000
1 -2.351511684298e+00   5.095333651095e+01  -4.993697266794e+01 
1  4.459812897781e+01   7.204674286573e+01  -3.393866907702e+01 
1  6.303539764959e+01  -1.039963081396e+01  -1.407478373547e+01 
1  7.691321330662e+00   1.648850855380e+01   2.449787876367e+01 
1 -2.894428368758e+01  -7.614920710861e-01  -6.237191609225e+01 
1 -4.982696468460e+01  -1.910819578350e+01   1.514544728318e+01 
1 -2.143945361537e+01  -2.302058222058e+01   3.095920928966e+01 
1  1.324024048223e+01  -1.936467680077e+01  -3.114934138096e+00 
8
 Atoms. MD step: 23000
1 -1.097495654215e+01   2.941172532921e+01   2.050668056871e+01 
1 -1.354109465831e+01   1.126408490961e+01  -1.486057619435e+01 
1 -4.832235326728e+01   2.755748565006e+01   4.367763921191e+01 
1 -2.325567842571e+00  -5.617217718344e+01   8.435562677785e+00 
1  2.610693762173e+01  -4.665045473814e-01  -5.051194315212e+01 
1  2.086902381373e+01  -3.759405212667e+00  -2.554622329642e+01 
1 -3.297463647685e+01   2.360904001102e+01  -1.718172149624e+01 
1  5.055637006144e+01  -5.544470786426e+00   1.965492397903e+01 
8
 Atoms. MD step: 24000
1  2.718679824383e+01   1.829403525587e+01   5.998365389993e+00 
1 -2.772555372747e+01   5.465586080353e+01   1.820827314858e+01 
1  7.087213856591e+01   2.157328379010e+01   4.852880801356e+01 
1  1.172948184539e+01   5.412934266123e+01   3.480222550044e+01 
1  2.887620632544e+01   2.426830998399e+01  -1.790177704987e+01 
1  1.607487917576e+01   1.734838581942e+01   1.774128406730e+01 
1  2.170082354775e+01  -4.258868536446e+01   6.538287825252e+00 
1  3.066463028452e+01   3.845438756598e+01   3.503009659460e+01 
8
 Atoms. MD step: 25000
1  4.244172514092e+00  -5.072092168145e+01  -6.274342681969e+01 
1  3.847416919518e+01   2.390012102289e+01  -3.393760578503e+01 
1  4.796370343178e+01   2.573158429348e+01   4.453824939467e+00 
1  1.275008917150e+01   1.409728118365e+01   6.032091109242e+00 
1 -1.359204925238e+00  -2.713270645975e+01  -5.576493137209e+01 
1 -2.717578284730e+01   2.522381945602e+01  -2.703291891810e+01 
1 -2.024395507942e+00  -5.098021598953e+01  -2.589766218380e+00 
1  3.209923335167e+01   2.065071345739e+01  -5.455684924016e+01 
8
 Atoms. MD step: 26000
1  1.263007561053e+01   1.721552071407e+01   1.334703914064e+01 
1  9.404773508784e+00  -1.438961379200e+01   4.186739191303e+01 
1 -3.897681341791e+01  -5.645832104675e+01  -4.275869738108e+01 
1  2.971476115956e+01  -2.101796804475e+01  -1.874553754527e+01 
1 -7.511209481168e+00   6.475465943727e+00   1.586363560575e+00 
1  4.286103390909e+01   6.910628237767e+01   1.188647370039e+00 
1 -6.632979556042e+01   6.538128593695e+01   3.881368726676e+01 
1 -7.138943090870e+01   8.155863615403e+00  -5.965805271827e+01 
8
 Atoms. MD step: 27000
1 -1.343155794868e+01   2.454396884479e+01   6.250683426008e+00 
1 -2.311777927888e+01  -4.665333047531e-01  -5.758298067728e+01 
1  2.917782024865e+01   1.625281916022e+01   8.566522949981e+00 
1 -1.922966912864e+01   1.321300535653e+01   4.102889806370e+00 
1 -2.178656175802e+00   2.222112181320e+01   1.624297571472e+01 
1 -1.433914696815e+01   7.472900810480e+01   1.938123513222e+01 
1  3.245483376530e+00   5.391229880103e+01   3.162196697240e+01 
1  9.967633348843e+01   6.797160649952e+00   2.044051618247e+00 
8
 Atoms. MD step: 28000
1 -2.168109056410e+01   6.417775241904e+01  -4.334583864406e+01 
1 -1.569642775724e+01   7.892567049180e+01  -2.156378725734e+01 
1  4.077043259674e+01   1.267982276307e+01  -9.550324912911e+00 
1 -1.707585747303e+01  -1.408739232551e+01   2.744605778309e+01 
1  7.925707902213e+01  -9.142965167942e+00   6.591103940932e+01 
1 -2.079790413919e+01   2.552390530775e+01  -3.631168943636e+01 
1 -6.775435798858e+01  -7.085658961861e+01   1.412957740408e+01 
1  1.841808594715e+01  -5.293283973528e+00   2.407628773794e+01 
8
 Atoms. MD step: 29000
1  2.005864166271e+01   7.568617771931e+00  -4.781220883257e+00 
1 -2.668370865932e+01  -4.582873177036e+01   2.130090637527e+01 
1 -2.026117057918e+01   4.121333333481e+01  -1.677140313128e+01 
1 -2.181303856072e+01  -1.174094740250e+01   7.238103174521e+01 
1  1.029269767419e+01   9.081615875075e-01   4.373606562798e+01 
1 -2.396056234623e+01   6.362573600637e+00   3.143277922559e+01 
1  3.812402078151e+01  -3.321058629478e+01   1.207505934669e+00 
1  2.328695545391e+01  -2.276140767317e+01  -1.938447671377e+01 
8
 Atoms. MD step: 30000
1  2.507094397991e+01  -1.034318647811e+01   3.202886368073e+00 
1  5.357677835671e+01   1.263753896854e+01  -1.925448900977e+01 
1  4.529273338813e+01   1.468965501372e+01  -8.328126581919e+01 
1 -1.005051808042e+01   3.285567918917e+01   6.120243146975e+01 
1 -3.505397999453e+01  -2.929686295913e+01  -3.708849010212e+01 
1 -2.002332006881e+01  -5.626486860596e+01  -5.888926433732e+00 
1  4.174071948155e+01  -3.198572065184e+01  -2.758229262167e+01 
1  1.156248244181e+01  -2.545330483349e+01  -4.699900272412e+01 
8
 Atoms. MD step: 31000
1  2.256294422525e+01  -5.376754870462e+00   1.488849251869e+01 
1  1.980276854152e+01   1.345547805450e+01   1.312676596493e+01 
1 -1.025427833388e+01  -1.365881847687e+01  -3.598378939894e+01 
1  1.534862570330e+01  -2.666428067295e+01  -3.350967946191e+01 
1 -3.003447195053e+01  -2.272713530546e+01  -2.509241919833e+01 
1 -5.111068825064e+01  -6.038869688120e+01  -2.657340240023e+01 
1 -1.837558053453e+01  -5.499585483157e+01  -1.435139379680e+01 
1  5.038792492996e+01   1.568038922253e+01   3.412657496602e+01 
8
 Atoms. MD step: 32000
1  2.873947872979e+01   6.928057249179e+01   1.162000422751e+01 
1 -1.678442744494e+00  -8.035893206742e+01  -2.021314237054e+01 
1 -1.079184422470e+01  -1.603863922199e+00  -2.933597645892e+01 
1 -3.579839761918e+01  -2.147883175574e+01   5.896283080452e+01 
1  4.530151503780e+01   1.544756495631e+01  -1.653054669671e+01 
1 -3.523537565019e+01  -1.567316456406e+01  -8.268608630119e+01 
1  2.146572567600e+01  -2.549366989810e+01   1.746998820598e+01 
1 -5.312523268933e+01   6.540552157183e+01   1.578633930047e+01 
8
 Atoms. MD step: 33000
1  3.338293338424e+01   4.096817339091e+01   4.085038992244e+00 
1  1.382021227725e+01   2.744028172178e+01  -6.816086696778e+01 
1  1.685950737027e+01   3.220238527833e+01   2.208584322295e+01 
1 -3.984480875341e+01  -3.779133673163e+01   1.470067982706e+00 
1  3.102745426280e+01   7.103731238107e+00   2.272287703240e+01 
1  3.520611291980e+01   1.587567969334e+01  -1.059776489686e+01 
1  2.169084025131e+01   1.979036503301e+01  -2.847467625690e+00 
1  1.707983406641e+01   1.603036040474e+01  -1.953734019752e+01 
8
 Atoms. MD step: 34000
1 -2.367117420720e+01   2.892495710527e+00   6.988870405895e+01 
1  1.808482251832e+01   2.627142196590e+01  -3.129238686409e+01 
1  4.957331248134e+01   8.215721936804e+00   2.316451963823e+01 
1  3.757511248293e+01   1.237570317700e+01   3.636549062345e+01 
1  4.630750855008e+01  -7.483323114349e+00   1.890681443016e+01 
1  2.631022631376e+01   6.301065331643e+01   2.755811000404e+01 
1 -1.225902454400e+01  -1.281471659733e+01   4.355510987895e+01 
1 -2.668066576451e+01   3.923668636316e+00   3.579757433634e+01 
8
 Atoms. MD step: 35000
1  1.250502545699e+01   4.946672753016e-01  -2.051994349763e+01 
1 -3.123354371428e+01   6.253413752919e+00  -7.509890357881e+00 
1 -6.559747733517e+00   1.381272170440e+00  -8.416110463011e+01 
1  4.694883678320e+01  -2.712136027367e+01  -1.394575744865e+01 
1  3.151621168236e+01   6.233340118650e+01  -3.786479898122e+01 
1 -6.427037041036e+00   6.085705672650e+01   7.426383451558e+01 
1  1.413585439558e+01   2.573978725893e+01  -4.201094655617e+01 
1  2.309984231547e+00   3.697812899700e+01  -8.598200974966e+00 
8
 Atoms. MD step: 36000
1 -2.804695157765e+01  -1.245276709220e+01   8.147445223620e+00 
1 -1.961879392060e+01  -6.277172192956e+00  -7.522951350549e-02 
1  9.367436311500e+00   4.775332630346e+01   3.117936774556e+01 
1 -2.321336630643e+01   3.133270472931e+01   2.030334588225e+01 
1  1.259986109470e+01  -1.630367167167e+00  -3.011055968003e+01 
1 -2.873756787704e+00   2.899305818357e+01   1.119921756946e+01 
1 -1.716512157331e+01   3.284521918594e+01  -8.132502748988e+00 
1 -3.420741412333e+01   4.222819847989e+01   2.406074994910e+01 
8
 Atoms. MD step: 37000
1 -2.499125816925e+01  -1.830725930457e+01   3.075934609546e+01 
1  6.385022069537e+01   4.197323400977e+01   1.760702378780e+01 
1  1.100176798678e+01   1.162102488874e+01  -4.511550633307e+01 
1  7.651143419060e+01   6.447525267522e+00   3.340926789114e+01 
1  2.936569932061e+01  -8.093607894657e+01   6.821917500550e+01 
1 -2.324457961166e+01  -4.257750280502e+01   1.801055321348e+01 
1  6.905051918920e+01   1.818836130806e+01  -4.202271475963e+01 
1  1.290229555680e+01  -6.141341506490e+01   2.809868957099e+01 
8
 Atoms. MD step: 38000
1  3.534925994363e+01  -2.485116296287e+01   9.409806150559e+00 
1 -3.070647741042e+01   3.737151498464e+01   2.313215286277e+01 
1 -4.730061955689e+00  -1.982138371010e+01  -3.491967006241e+01 
1  4.146398467496e+01   5.004405610569e+01  -9.255832538364e+00 
1  2.310819388509e+01   3.247729341923e+01  -6.669731760843e+01 
1  3.117216832725e+01   4.718889203280e+01  -6.147750877278e+00 
1 -5.367325488747e+01   2.907501549000e+01  -2.641120682854e+01 
1 -4.996820826927e+01   8.917205855073e+00  -3.696679564143e+01 
8
 Atoms. MD step: 39000
1  1.661059659404e+01  -2.981792963090e+01   4.264235069353e+00 
1  6.497298816434e+00   8.884315969705e+00  -1.039898847662e+01 
1  7.260956577953e+01   1.700087429039e+01  -2.263061717365e+01 
1  1.384110697641e+01   1.881082749065e+00   4.856456915579e+01 
1 -1.080897362214e+01  -4.678156662640e+00  -4.538571817145e+01 
1 -1.583543943215e+01   6.086405010701e+00  -1.869066726176e+01 
1  6.042427884611e+01   6.099330798728e+01  -7.820092007939e+00 
1  2.613997593632e+01   6.172243589716e+01  -2.829100856716e+01 
8
 Atoms. MD step: 40000
1 -1.244103846723e+01   4.435256619316e+01   1.046536001157e+01 
1  4.414026264288e+01   1.501092467359e+01  -3.615396336638e+01 
1 -5.324974528705e+01   1.293571931118e+01   2.379200170618e+01 
1 -4.597639730022e+01   1.815067685031e+00  -2.618911455454e+01 
1  4.578793511104e+01  -4.810840252518e+01   2.223227406930e+01 
1 -6.932233824631e-01   7.361667202406e+00  -2.666859389592e+01 
1  4.815362032572e+01  -1.429069689726e+01  -1.970765221183e+01 
1  3.750261245430e+01  -3.740885859343e+01  -3.574477988523e+01 
8
 Atoms. MD step: 41000
1  1.318601345705e+01  -1.621767733730e+01   4.385522660190e+01 
1 -6.608318811748e+01  -1.421427047797e+01  -2.924304061051e+01 
1  4.005589050590e+01   9.447943928649e+00  -4.640706168233e+00 
1 -7.287854556626e+00   7.454283111901e+00  -1.339439989958e+00 
1 -3.702284269594e+01   9.479462674205e+00  -6.551218553974e+01 
1 -1.269232738551e+01  -1.939267970124e+01   7.251574323267e+00 
1  2.139752631245e+01  -3.424310697100e+00   6.262896115561e+00 
1 -1.315992702414e+01  -8.144910868806e+00   3.689888327380e+01 
8
 Atoms. MD step: 42000
1  1.284148825885e+01  -1.116953332393e+01  -3.102966369639e+01 
1 -8.803800149003e+00   4.274511856844e+01  -6.761365277751e+01 
1  3.123706066174e+00  -4.663896451376e+01   5.637216129333e+01 
1  2.124488964121e+00  -6.677503505320e+00   1.007868889120e+01 
1 -3.167807659757e+01   6.496181621304e+00  -1.278975205254e+01 
1  5.628610299540e+01  -6.970014232459e+00   1.533341282448e+01 
1 -8.718026621385e+00   1.571185036811e+01   6.019168438742e+01 
1 -5.213851264920e+01   6.995798951531e+01   6.362291462605e+01 
8
 Atoms. MD step: 43000
1  9.079091713506e+00  -9.958024205093e+00  -7.892394163466e+01 
1  1.288695078717e+01   1.512115202617e+01   1.471511534175e+01 
1  2.151145943137e+01   5.000476866307e+01   2.807993638737e+01 
1 -5.993902070199e+01  -2.949795983802e+01  -4.791694516228e+01 
1 -1.238079561317e+00   3.455335071634e+01   4.122683564560e-01 
1  6.270037166766e+01  -3.416336391574e+01  -2.813809541175e+01 
1 -3.756650995486e+01  -1.332453148588e+01  -5.229443853468e+00 
1 -3.212728403486e+01  -2.767430080148e+00   3.058383708750e+01 
8
 Atoms. MD step: 44000
1 -1.926214945849e+00  -8.582525276938e+00  -1.770257570641e+01 
1  5.225150171914e+01   5.911370463179e+01   4.543787738574e+01 
1  2.556961410323e+01  -5.627652528668e+01   2.570227801436e+01 
1  3.112757174628e+01  -5.944211020064e+00   2.219192987861e+01 
1 -7.929986018977e+00  -4.922086233403e+01  -3.211385562957e+01 
1 -8.735983106426e+00   1.976991017817e+01  -2.137089954759e+01 
1 -2.326605277434e+01   1.896958824271e+01   1.066490590836e+01 
1 -5.196327451401e+01  -3.101961508945e+01  -8.827857684249e+00 
8
 Atoms. MD step: 45000
1  1.559758549843e+01   3.509052742064e+01   1.405063416826e+01 
1  5.966875239623e+01  -1.623339345036e+01  -4.113672293191e+01 
1  1.064126698879e+01   1.759431530339e+01   2.723014146655e+01 
1  1.545165198283e+01  -2.474043496565e+01  -4.555344941583e+01 
1  1.061069836263e+00   1.081804251772e+01   5.433003303631e+01 
1 -7.445616821526e+01   3.280605753716e+01   4.144823428626e+01 
1 -2.071673510015e-01   2.092831964097e+01  -1.107106943370e+01 
1 -2.645259823549e+01  -1.678736628583e+01   5.762337535960e+01 
8
 Atoms. MD step: 46000
1 -6.845427955771e+00   4.230486364352e+00   1.924193178923e+01 
1  5.031411026027e+01  -1.738569121562e+01   4.622680102093e+01 
1  4.580765930808e+00   3.792635478393e+01   3.732889942008e+01 
1  1.167845204744e+01   8.510669861144e+01   4.283822545750e+01 
1 -1.211535468639e+01  -3.185613540611e+01  -1.012935839367e+01 
1  5.211587417919e+00   1.345390031496e+01   2.440488278762e+01 
1  4.585732786362e+01   6.807078100663e+00   8.722237768706e+00 
1 -3.862368109086e+01   4.533984510201e+01   8.969232082064e+00 
8
 Atoms. MD step: 47000
1  3.535179641187e+01   1.605491951832e+01  -2.704639317696e+01 
1 -2.418214751723e+01  -1.765304203549e+01   9.334497192578e+00 
1 -9.384886057489e+00  -1.332516624203e+01  -1.907399669340e+01 
1  2.053095666863e+01   5.434133184908e+01   7.571461772951e+00 
1 -1.304167726348e+01   2.828024817978e+01  -3.427225257640e+01 
1 -1.480007057775e+01  -3.282697512596e+01  -7.126993417757e+01 
1 -7.293943797560e+00  -1.864522027201e+01   2.172611177781e+01 
1 -5.046410927787e+00   1.787023759729e+01  -6.327442817849e+00 
8
 Atoms. MD step: 48000
1 -1.853736538931e+01   7.328876705484e+01   2.871275185827e+01 
1  1.557304696326e+01  -1.755392916275e+01  -4.938215714387e+01 
1 -4.566321630950e+01   1.251450372789e+01   1.036122105357e+02 
1  9.786311964472e-01  -4.820869709253e+01   9.244585129501e+00 
1  2.281188147685e+01  -3.062613162883e+01  -1.356429443637e+01 
1  1.527911785421e+00  -5.010231540274e+01  -9.601463526736e+01 
1 -3.556291188297e+01  -4.820188481196e+01   9.119852511033e+00 
1 -3.288979280268e+01  -3.151742808566e+01  -2.481697241690e+00 
8
 Atoms. MD step: 49000
1 -8.655470417342e+00   4.793847002791e+00   2.404626205019e+01 
1  1.074777173515e+01  -3.187938613414e+01   1.649221394168e+01 
1  2.617051066910e+01   3.263792983579e+01   1.335613420776e+01 
1  3.752894011060e+01  -4.248736833585e+01   9.375371044316e+01 
1  3.656644797738e+01   2.743308405780e+01  -3.623502031023e+01 
1 -1.275405265709e+01  -4.694775492172e+01   1.325300060280e+01 
1 -3.886687866656e+00  -3.997567324403e+01   8.225756074536e+01 
1 -5.498395277583e+01  -2.989678140843e+01  -3.231467669186e+01 
8
 Atoms. MD step: 50000
1  4.189885193846e+01   8.654549994499e+01   1.020700333699e+01 
1  2.997311875327e+01  -3.871239245187e+01  -5.896164040853e+01 
1  3.553845671747e+00   4.653984925321e+00   6.137529658043e+01 
1 -1.529508065514e+01   6.513141906676e+01  -2.644967953744e-01 
1  3.112172832347e+01  -1.376096970518e+01  -1.003362846548e+00 
1  6.940471186202e+00  -3.163275519974e+01  -4.322284781016e+01 
1  6.798113443150e+00  -2.873594837905e+01   4.887879537622e+00 
1 -1.117724372650e+00  -3.852804691383e+01  -6.221264798261e+00 
8
 Atoms. MD step: 51000
1 -1.195126891048e+01  -1.003120769201e+02   1.692447521931e+01 
1  6.396185279236e+01  -3.195149638866e+01  -1.413569000954e+01 
1 -1.006714941071e+01   3.859017379060e+01  -1.558135577983e+01 
1 -6.193113216695e+01   1.493331033120e+01   1.986229665713e+01 
1  4.132888520417e+01  -6.064522768214e+00   2.660175640098e+01 
1  8.737406812265e+01   9.624237401132e+00  -8.085840121122e+00 
1 -5.570214069956e+00  -7.528005500958e+00  -2.032844433190e+01 
1 -1.776624788552e+01   1.754870036301e+01  -8.969374802205e+00 
8
 Atoms. MD step: 52000
1  3.511225014450e+01  -2.190078589887e+01  -4.591465123741e+00 
1  1.487206302054e+01   7.748329033563e+01  -2.676194698120e+01 
1  4.061137931653e+01   7.552498580551e+00  -1.092889552354e+00 
1 -4.742689211988e+01   3.885808313142e+01  -1.121631226574e+01 
1 -2.330423518461e+01   7.080252668616e+01   2.947955423767e+01 
1 -4.770095823230e+01  -1.968384816469e+01  -4.732720929996e+01 
1 -4.251448498190e+01   5.430178253141e+01  -1.006255489617e+02 
1  3.534470729289e+01   7.075820961480e+00   2.341657492420e+01 
8
 Atoms. MD step: 53000
1  5.401745369634e+01  -6.288880127511e+01   2.880219717053e+01 
1 -2.833816494781e+01   7.865574718421e+00   3.370161791487e+01 
1 -2.446627875280e+01  -6.817018707986e+01  -5.143251867640e+01 
1  2.498361850185e+00   2.285866052055e+01   6.198407570767e+01 
1  1.220003047584e-01  -3.873564992163e+01   6.423419168769e+01 
1 -2.854150644234e+01  -2.606649288659e+01  -5.140202832944e+00 
1 -2.643987382839e+00  -7.435095598053e+00  -4.791132171329e+01 
1 -1.587610365914e+01   3.239650317708e+01  -1.587600669467e+01 
8
 Atoms. MD step: 54000
1  3.313031320028e+01   4.538520567185e+01  -2.876252341614e+01 
1  7.435151772112e+01   6.231313583327e+01   5.359841051023e+01 
1  1.180916601717e+01   1.882255067033e+00  -2.120967794558e+01 
1  1.379334403381e+02  -5.468812321281e+01   3.281882359144e+01 
1  1.801201445620e+01   1.781257696717e+01   4.048675018957e+01 
1 -6.893437186821e-01  -1.661871927899e+01   1.932913786311e+01 
1  4.760883401615e+00  -8.672776252315e+00   2.487356926610e+01 
1 -1.358104611334e+01  -3.474160731096e+01   1.940441505034e+01 
8
 Atoms. MD step: 55000