8
 Atoms. MD step: 0
1  2.130326814812e+00   3.841428738278e+01  -3.900125211552e+01 
1  3.567597752465e+00  -3.504277063756e+01   3.861701022475e+01 
1  6.258847992801e+01  -7.076539324116e+01   6.450599359103e+01 
1  5.978855273526e+01  -4.628740992298e+01  -3.331699604665e+01 
1  5.663920321690e+01  -5.214564811192e+01   5.649937483509e+01 
1 -4.885508989697e+01   7.742773658779e+01   3.518899981800e+01 
1  3.981944038262e+01  -7.472662646084e+01  -5.860625198879e+01 
1 -7.332626035848e+01  -1.421247514719e+01  -1.259120980933e+01 
8
 Atoms. MD step: 1000
1 -1.779054129598e+01  -7.166218607442e+00  -1.046519706099e+01 
1 -2.765818187102e+00  -2.779116927842e+01  -3.277834938448e+01 
1 -1.187772499455e+01  -2.769516509560e+01   1.836275151036e+01 
1 -6.508518244028e+00  -3.242654568662e+01  -2.280803976840e+01 
1  2.845115559987e+00   3.443822202267e+01  -2.005987163342e+01 
1 -2.115606805202e+01   5.668758519789e+00   1.958286182090e+01 
1  3.251298511958e+01  -3.036703202151e+01  -1.151048648959e+01 
1  1.492682252991e+01   9.120267683068e+00   4.092278106279e+01 
8
 Atoms. MD step: 2000
1  9.162570728899e-01   1.324228915189e+01   6.067523544587e+00 
1  2.794202985983e+01  -3.381156229124e+00  -3.620692504613e+01 
1 -3.275370497837e+01   7.356913677570e+01  -2.294519423897e+01 
1 -4.279863637349e+01   4.872071535058e+01   1.552852679643e+00 
1  2.604884802369e+01   6.257879016107e+01  -1.777581257481e+01 
1 -1.711678582846e+01   2.845153000604e+01   7.059633192624e+00 
1  5.624429611440e+01   1.720328746752e+01   7.280152962524e+00 
1 -5.879536619725e+01   2.786121099661e+01  -1.579721708346e+01 
8
 Atoms. MD step: 3000
1 -5.681280522474e+01   1.676563121409e+01   2.087104068415e+01 
1 -3.110517670450e+01   2.892666552052e+01  -9.818520847364e+00 
1  1.510626105749e-01  -1.231572014464e+01  -9.962761045978e+00 
1  1.575715673551e+01  -5.026872600573e-01  -2.462704899020e+01 
1  1.401255201305e+01   6.336622091572e+00  -4.050754198665e+01 
1 -2.672655425440e+01  -2.342827878106e+01   4.820204419655e+01 
1  3.252102185947e+00  -6.167160584440e+01   4.120307691016e+00 
1  7.196819823046e+00   3.034064320500e-01   5.718709050176e+01 
8
 Atoms. MD step: 4000
1 -3.412579243685e+01   3.010058034323e+01   2.090323094002e+01 
1  6.771544010327e+00  -8.899186452786e+00   5.405080927001e+01 
1  3.463127040505e+01  -6.142404621835e+01   2.371531191947e+01 
1 -5.328047047418e+01   1.789451692989e+01  -1.067302972883e+02 
1 -5.030540383740e+01  -3.184942878973e+01   4.327111468595e+01 
1  5.841440287644e+01  -7.741862027816e+01   2.130310298302e+00 
1 -1.066117055653e+01   2.126182278842e+01   4.592547314895e+01 
1  2.724821100291e+00  -4.476939340993e+01   3.188116673748e+01 
8
 Atoms. MD step: 5000
1  6.882522395053e+01   6.259962521375e+00   1.234260589085e+01 
1  1.007837465175e+01   6.114247483587e+00  -2.644729712404e+01 
1  2.486509514726e+01  -4.681561344974e+01   2.359235489399e+01 
1 -3.658599180642e+01  -1.397178870800e+01  -3.523811499476e+01 
1  2.021740341799e+01   2.758004261990e+01   4.520209634642e+00 
1  4.125492390636e+01   3.371618003169e+01   3.633250607109e-01 
1  9.080730894333e+01   6.802354449542e+01  -1.310953246099e+01 
1 -2.297062481827e+01  -1.925550521049e+01   2.931588376118e+01 
8
 Atoms. MD step: 6000
1 -3.789379715852e+01  -2.028465034849e+00   8.288930645607e+00 
1  1.645024137800e+01   8.796683075502e+00  -3.993834038050e+00 
1 -4.062952174652e-01  -9.603065522392e+00  -9.031872745965e+01 
1  2.545469606402e+01   1.892087433635e+01  -2.327349492227e+01 
1  2.095307265647e+01  -1.160788181415e+01  -4.072758466285e+01 
1 -3.775285244448e+00  -1.757855014445e+01  -7.493917700711e+01 
1  1.466789711625e+01   2.117022475204e+01  -1.324473555667e+01 
1  2.170185050187e+00  -3.293898023628e+01  -3.123031553820e+01 
8
 Atoms. MD step: 7000
1  8.431098253736e+00   3.578742008283e+01  -2.874417925093e+01 
1  8.514238385791e+01   3.712915414568e+00  -4.262852003105e+01 
1  4.915477104891e+01  -8.001510797713e+00   2.889201347530e+01 
1  2.207168651588e+01  -1.967262249766e+00   4.162274204856e+01 
1  1.205649548261e+01  -2.110700531360e+01   2.968471215905e+01 
1 -5.863853229102e+00   7.473223022288e+00  -1.982641070558e+01 
1 -2.801959864159e+01  -2.531291337668e+01  -3.880223750718e+01 
1 -6.127019200118e+01  -1.080968722763e+01   2.392604537036e+00 
8
 Atoms. MD step: 8000
1  3.307764599635e+01  -3.458034360790e+01   5.303956605201e+01 
1  2.371860376430e+01  -4.433150593269e+00  -8.339819645319e+00 
1 -2.473593542693e+01   5.287366124338e+01  -1.105256767615e+01 
1  2.689115013231e+01  -6.700227641164e+01  -1.878657086211e+01 
1  4.852652770660e+00   5.068665720848e+01   2.753442653706e+01 
1 -1.020929788152e+00  -3.175271168000e+01  -2.763086847496e+01 
1 -1.595507394096e+01   6.808942505930e+01  -5.271404483545e+01 
1 -1.060264287277e+01  -3.544748204040e+01   1.089733985290e+01 
8
 Atoms. MD step: 9000
1 -1.125328395719e+00  -3.883476435927e+01  -1.316459337513e+01 
1 -1.687188881007e+01   3.476477208213e+01  -2.804503083389e+00 
1  1.313667436686e+01   8.805372795123e+00   3.120087983691e+01 
1  1.045272608167e+00  -3.849589819465e+01  -5.502024084314e+00 
1 -1.253666789889e+01   2.750071864343e+01   1.803784093293e+01 
1  2.225582554376e+01  -5.656423799568e+01   1.463620465043e+01 
1 -4.371682338269e+01  -1.167188248816e+01  -7.387924524496e+00 
1  6.453738751974e+01   3.442287582828e+01  -1.082872587546e+01 
8
 Atoms. MD step: 10000
1 -1.400113044139e+01  -4.928337008384e+01  -2.528993648205e+01 
1  4.385195247609e+01   4.631673861032e+00   1.669280972693e+01 
1 -3.965501326049e+01   5.993554865345e+00   3.729556439713e+01 
1 -6.024010130946e+01  -7.367817736350e+01  -4.012792556807e+01 
1  3.147944496608e+01  -2.652387715121e+01   1.054033132360e+01 
1  1.014477882584e+01  -3.792013661004e+00   3.059851971692e+01 
1  1.690976509081e+01  -4.239916974157e+01   3.409909176547e+01 
1  3.093325647381e+01   1.001188129883e+01   1.176981860080e+00 
8
 Atoms. MD step: 11000
1  7.821962195643e-01   7.389243864123e+00   9.417668289812e+00 
1 -5.269620962801e+01   1.526339837593e+00   1.546459308700e+01 
1 -4.557623447607e+00  -5.145760164740e+01   4.372257131589e+00 
1  4.263724481030e+01   2.900203491451e+01   6.299280608923e+01 
1 -9.825413808538e+01   3.194632143993e+01   2.681472433567e+01 
1 -4.363367813195e+01  -8.680028016943e+00  -3.536767882602e+01 
1  1.343316229033e+01   2.545788372959e+00   6.863806816750e+01 
1 -5.521677172086e+01   4.844050551820e+01  -6.860169500917e+00 
8
 Atoms. MD step: 12000
1  9.280822218311e+00   1.197100039287e+01   1.958089325880e+01 
1  2.623924321512e+01  -7.653614393409e+00   7.129403072718e+01 
1  9.530916746169e-02   1.476627755506e+01  -1.353854005604e+01 
1  1.028548163411e+01  -3.898515384467e+00  -1.344150449692e+01 
1  1.725469335538e+01   1.528413729285e+01   1.363849760576e+01 
1  8.005093258453e+00  -3.414711843113e+00   2.908153159575e+01 
1  3.267548514275e+00   3.237540493338e+01   1.201531118810e+01 
1 -1.712475101445e+01  -6.563213743224e+01  -2.916446658767e+00 
8
 Atoms. MD step: 13000
1 -1.094539631663e+01   4.111580414956e+01  -3.148210840119e+01 
1  4.093384443446e-01  -2.127632624252e+01   8.110053258790e+00 
1 -7.274628741796e+00  -1.970888787548e+01  -5.921730241713e+01 
1  6.035611011073e-01   3.942856934892e+01   2.644104419943e+01 
1  2.778892264519e+00   3.746277877397e+01  -3.828086407358e+00 
1 -6.265039763938e+01   5.031997789553e+01  -5.701239567174e+01 
1 -6.375596772308e+01   3.219321785770e+01  -2.026916363354e+01 
1  3.172551215619e+01  -2.417955832231e+00  -2.701886268369e+01 
8
 Atoms. MD step: 14000
1 -2.707932865385e-01  -9.461607613393e+00  -3.106782136673e+01 
1 -2.800402255314e+01   8.076654799423e+01   3.286966714821e+00 
1  4.538538160907e+01   1.197267187062e+01  -5.852171459748e+00 
1 -1.142771947228e+01  -1.820467637556e+01  -2.749456194820e+01 
1 -2.276737243657e+01   5.183384052968e+01   5.199469851305e+00 
1  2.270083599744e+01   2.431289050442e+01  -4.061027565009e+01 
1  6.295011547630e+00   8.751963146147e-02   8.182848651263e+00 
1 -2.859970148603e+01   1.245835980201e+01   1.768058416410e+01 
8
 Atoms. MD step: 15000
1  7.107090569679e+01  -4.194975841372e+01   6.790294127030e+00 
1 -2.520247958231e+01   1.595616964583e+01  -2.018645812589e+01 
1 -7.664707068682e+00  -2.784925769657e+01  -2.604254556858e+01 
1 -3.039791925321e+00   4.255290792253e+01   5.797030755858e+00 
1  2.544540691990e+01   1.487181606912e+01   7.461333988790e+00 
1  1.689860940364e-01   1.597317175641e+01   1.981115197675e+01 
1 -5.122260025176e+01   4.514833523760e+01  -1.989443968734e+01 
1  2.286099901129e+01  -5.232448961070e+01   6.686310520263e+01 
8
 Atoms. MD step: 16000
1  5.230325668929e+01  -2.497452817546e+01   5.624274799001e+01 
1 -1.643893993272e+01   3.648217116710e+01  -4.816044727497e+01 
1  2.844769027644e+01   2.579416860454e+01  -3.108669400568e+01 
1 -3.028193362521e+01  -1.179691039678e+01   1.654329064656e+00 
1  1.360642158074e+00   1.602339358245e+01  -9.090542576506e+01 
1  2.728636721847e+00   5.567092539400e+01   1.755078117470e+01 
1  8.534382301869e+00   4.711705636367e+01  -4.578440371953e+01 
1  3.040961611311e+01   4.236014884325e+01  -3.060052802558e+01 
8
 Atoms. MD step: 17000
1  2.409746735306e+01   2.282251009240e+01  -4.115444004717e+01 
1  7.655321348508e+01   4.854204977908e+01  -2.806621150070e+01 
1 -2.092225885923e+01   2.663133107524e+01  -6.763797012304e+01 
1  6.360950379828e+01  -4.128493418725e+01   4.029574431751e+01 
1  3.013509817210e+01   6.034907138182e+01   1.917761532168e+01 
1  3.319120900717e+01  -2.293647063516e+01  -1.750242103728e+01 
1 -1.643965521255e+01  -2.733715923317e+01   4.510880047977e+01 
1  9.961550964047e+00   5.409714277492e+01  -3.262645266447e+01 
8
 Atoms. MD step: 18000
1  4.101140316137e+01   4.516418597354e+01   2.687386254806e+01 
1  3.064576284922e+01  -3.386288440223e+01  -3.910223492273e+00 
1  1.974993119127e+01   3.613498816612e+01   5.888447714120e+01 
1  1.088221087583e+01  -2.724796381133e+01   5.528145413948e+01 
1  2.765500837533e+01   1.940611433849e+01  -8.885986449765e+01 
1 -7.123701715652e+00   1.831906255101e+01   1.915091236091e+01 
1  1.020702791303e+01  -3.232480637660e+01   1.018132900074e+01 
1  3.083050007266e+01  -3.761824556649e+01   1.125019221187e+01 
8
 Atoms. MD step: 19000
1  3.372049062077e+01  -2.789751272730e+01  -1.314857296247e+01 
1 -6.547668817400e+00   2.920722743835e+00  -5.054925996693e+01 
1  6.788056945425e+00   1.793254420214e+01   4.869409689945e+00 
1  1.691897966051e+01   1.094268006727e+01  -6.343192265846e+01 
1 -2.125866105144e+01  -1.027565377059e+01  -3.821890176541e+00 
1  2.878592571495e+01   7.069641310731e+01  -1.668127866512e+01 
1 -2.512014514966e+01   1.751783464272e+01  -5.485141517533e+01 
1 -2.485423767519e+00  -4.745941926689e+01   6.161431230232e+01 
8
 Atoms. MD step: 20000
1  3.617621748888e+01  -4.377347417970e-01  -3.666810722149e+01 
1  7.328639494753e+01  -1.428795251873e+01   1.568632847823e+01 
1 -3.861445374350e+01   3.602893873119e+00   1.288753859427e+01 
1  1.386825108582e+01   8.961833223000e+01  -5.954326706964e+00 
1  9.167348917036e+00  -1.664516046473e+01  -5.474567530639e+01 
1  3.091410766232e+01   1.610685475207e+01  -2.768936576106e+00 
1 -1.784442257959e+01   3.426412152532e+00  -6.932053101259e+00 
1  4.000810610237e+01   4.619278664358e+01   2.427759096547e+01 
8
 Atoms. MD step: 21000
1 -3.858762912745e+01   2.111571763648e+01   1.676566575385e+01 
1 -1.831454252736e+01   1.629764190384e+01  -1.336743947429e+01 
1 -1.802531501260e+01  -5.789592379949e+01   4.611335576574e+01 
1  1.486517389995e+01   2.839656121917e+00  -4.052160336226e+01 
1  9.343716363237e+00   7.090383985617e+00   4.691992401054e+01 
1 -3.754238240426e+01   3.798406935715e+01   2.860067593995e+01 
1 -4.061529248688e+01   3.516662905362e+00   1.797608032889e+01 
1 -1.097862606580e+01   2.706732275646e+01  -5.698982183036e+01 
8
 Atoms. MD step: 22000
1  1.951352402119e+01  -1.006425038907e+01  -7.224077975064e+01 
1  2.482860468496e+01  -4.138580529594e+01   4.068041377446e+01 
1 -2.028687847110e+01  -2.453532445172e+01   7.639588462563e+00 
1  4.776774549224e+00   3.278215003705e-02   2.468746310223e+00 
1  1.133294203249e+01   1.680215850280e+01  -4.831468876039e+01 
1 -5.292203391915e+01   1.323291461359e-01  -6.572504683959e+00 
1 -3.334972367198e+01   4.191852809732e+01   1.940199137218e+01 
1  9.893830532366e+00   1.777022644923e+01   4.013451894014e+00 
8
 Atoms. MD step: 23000
1  1.998344642348e+01   5.496328882747e+01   4.875114112174e+01 
1  4.653153281513e+01   5.227168347633e+00  -2.602357680900e+01 
1 -2.063883011753e+01   2.416287151208e+01   1.151831485497e+01 
1  3.961532342365e+01  -2.619253383501e+01   4.617367990153e+01 
1  2.333804575363e+01  -1.977842541123e+00  -1.614109803683e+01 
1  5.686268940743e+01  -4.249257974961e+01  -2.966951086643e+01 
1 -5.785368884761e+00   4.760213789665e+01  -1.776220423448e+01 
1  4.259202054387e+01  -1.056345895038e+01   2.329258394659e+00 
8
 Atoms. MD step: 24000
1  3.695461883099e+01   1.213085041685e+01   5.692648058557e+00 
1  1.169417767031e+01   4.882336915356e+01   1.290965756662e+01 
1  9.628668294410e+00   2.376352273304e+01  -2.099794293829e+01 
1  2.440076945666e+01   2.324127374678e+01   5.321301864192e+01 
1 -2.999506925334e+01  -5.108640754763e+00   7.887943647737e+00 
1 -4.642079076629e+00   9.337604386654e+00  -1.191053517379e+01 
1  4.651656045972e+01  -2.979556473349e+01  -2.233228897200e+01 
1  2.579689844415e+01   1.210577174554e+02  -1.909358383235e+01 
8
 Atoms. MD step: 25000
1  2.727351233772e+01  -1.765714020682e+01  -6.707600985951e+01 
1  9.145558050169e+01   5.309836165628e+00  -1.920839650161e+01 
1  1.360550575467e+01  -2.166995550965e+00  -4.052316304552e+00 
1  2.773208372935e+01   7.267572180961e+00   2.431311488392e+01 
1  8.394769521783e+01   9.732177266204e-01  -9.034733991086e+01 
1 -1.754028696221e+01  -3.006409200573e+01  -7.122633023295e+00 
1  3.473967118846e+01  -1.569138453212e+01  -1.026444550301e+01 
1 -4.777128053707e+01   1.914478255547e+00   5.814699632452e+01 
8
 Atoms. MD step: 26000
1  1.010897871939e+00  -2.656766350984e-01   2.250160370435e+01 
1  2.154914208384e+01  -3.205748672518e+01   8.788658451426e+00 
1  4.759389938341e+01   1.203438523693e+01   3.538547706123e+00 
1 -3.796103545224e+01  -5.983369662539e+01   7.934002141347e+00 
1  3.117555927118e+01   5.092687601380e+01   3.372049206738e+01 
1 -1.702045925951e+00   2.381197115401e+01  -2.349373238210e+01 
1 -4.514292935189e+01   1.120517785036e+01  -1.679162188100e+01 
1 -5.195395329448e+01  -4.669147000270e+01  -1.157255801194e+02 
8
 Atoms. MD step: 27000
1 -2.188266831258e+01   2.880801553201e+01  -5.751204900369e+01 
1  3.483921429250e+01  -3.680205649214e+01  -3.556998500052e+01 
1 -3.890534620195e+01  -3.206217283479e+01   3.004936939131e+00 
1 -9.700984147433e+00  -1.487507271260e+01   1.914887946238e+01 
1 -3.461640185881e+00   4.458577106177e+01  -1.019964809023e+00 
1 -4.092655500568e+01   4.784684248792e+01   4.632158945521e+01 
1  4.817186486213e+01  -8.708314115768e+00  -2.182888063471e+01 
1  6.937245901103e+01   1.511095168757e+01  -1.100080061761e+01 
8
 Atoms. MD step: 28000
1  5.476965843665e+01  -4.312557384939e+00   4.981571921018e+00 
1 -5.299734741438e+01  -6.505333430439e+00  -6.807341804325e+01 
1 -2.554910134853e+01   2.457377513324e+01  -4.735022332921e+01 
1 -4.310113075658e+01  -6.561064000415e+00   2.052387780826e+01 
1  3.733583588581e+01   4.555153312084e+01   4.488871008080e+01 
1  4.796541676298e+00  -3.524498916309e+00  -2.306617451109e+01 
1  9.404266629302e+00  -8.913838511602e+01   2.083418648880e+01 
1 -9.105115311319e-01  -1.818087591811e+01   8.994946946151e+00 
8
 Atoms. MD step: 29000
1 -3.359910135775e+01   5.170299585320e+01  -3.194107845514e+01 
1 -1.755671485933e+01   1.664063514172e+01  -9.026852430662e+00 
1  5.924657968101e+01  -6.531773523714e+00   3.123800658693e+01 
1 -1.937769851937e+01  -6.044079447104e+00   3.037176879722e+01 
1  1.484615768919e+01   3.413713974156e+00   3.139131536299e+01 
1 -6.003233116610e+01   1.204033541041e+01   1.600808758624e+01 
1  4.296099419688e+01  -1.440254700448e+01  -6.891064123164e+00 
1  1.789084892165e+01   2.023110597431e+01   9.203510764544e+00 
8
 Atoms. MD step: 30000
1  4.133923340123e+00   4.514905953412e+01  -1.904126373325e+00 
1 -2.756409542590e+01   2.513494611531e+01  -2.261917958723e+01 
1 -1.378035666664e+01   4.087856086331e+01  -3.061958500841e+00 
1 -4.613955747171e+01   5.144479990920e+00   4.071643908707e+01 
1 -7.129737598781e+00   1.480330365161e+01  -2.557578874713e+00 
1 -2.489110740776e+01  -6.902645301457e+00  -1.623838697058e+01 
1  3.221933899929e+01   1.099711025744e+01  -2.674180576679e+00 
1 -3.158724399507e+01  -1.795123843157e+01   8.902426568510e-01 
8
 Atoms. MD step: 31000
1 -3.647845890381e+01  -3.668700471721e+01  -3.608858628864e+01 
1  9.563031465274e+00  -3.979561256452e+01   1.875464332101e+01 
1 -1.969270623980e+01   8.095881241355e+01  -3.504032965174e+01 
1  3.196906110253e+01   1.664637004825e+01   3.574869993798e+01 
1 -3.486251769141e+01   7.143399100543e+01  -3.735167499294e+01 
1 -4.608313170690e+01   1.697772651605e+01   5.300550362763e+01 
1  4.120091432249e+01  -2.294174137554e+00  -2.234484155033e+01 
1  1.870687817073e+01  -8.284483291413e+01  -4.148715238729e+01 
8
 Atoms. MD step: 32000
1 -3.071541495095e+01   3.219855953369e+01  -3.476017074355e+01 
1  4.972960174351e+01  -5.904014271890e+00  -4.587950265887e+01 
1 -2.514424193904e+01  -3.123981360621e+01  -3.119000616857e+00 
1  5.709219612067e+00   8.906419771823e+01   3.148988685142e+01 
1  5.709731067773e+01   6.714459617264e+01   4.637129389460e+01 
1  1.059974459347e+00   1.825939244108e+01   1.223807763724e+01 
1 -5.350846965446e+01  -1.525970071244e+01   5.923349066249e+00 
1  8.279692524168e+00  -3.388382712670e+01   4.533827425006e+01 
8
 Atoms. MD step: 33000
1 -3.837438279091e+01   6.110539926634e+01   3.283122322544e+01 
1  6.246807187291e+01   1.172019023411e+02  -3.815648773585e+01 
1  3.832225411164e+00  -7.973082686500e+00  -2.957769979936e+01 
1  2.276138624455e+01  -3.454633128564e+01  -8.014419500868e+00 
1 -2.594795502365e+00   4.319461632380e+01  -3.668056833091e+01 
1  2.132688459017e+01  -3.198144953846e+01  -1.306699965198e+01 
1  2.343350770199e+01  -1.349012989488e+01  -4.081999795058e+01 
1  5.585020499115e+01  -6.286913891668e-01  -5.195872036971e+00 
8
 Atoms. MD step: 34000
1  1.188233132820e+01   2.689577141960e+01   1.302460605859e+01 
1  1.028755613333e+01   4.583149948983e+00  -4.178389494994e+01 
1  5.766415443869e+01   1.321295325474e+01   1.048547782218e+01 
1 -3.586400461872e+01  -5.793226863951e+00  -2.863766359616e+01 
1  6.501909586524e+01   2.505620525534e+01  -1.141399947643e+01 
1 -7.517270819580e+01   2.396073073729e+01   5.588924681458e+01 
1  4.138339045027e+01  -2.244555373408e+01   5.093838501629e+01 
1 -2.825905746432e+01  -3.283703039366e+01   2.050052437654e+01 
8
 Atoms. MD step: 35000
1 -2.777607060654e+01   4.693679827699e+01   4.190058270402e+01 
1  2.174036340637e+01  -3.100742226045e+01   5.206041935316e+01 
1 -1.571849834902e+01   5.132386121940e+00  -2.850844763308e+00 
1 -5.299538565720e+01   6.958962856829e+01   6.192831267981e+01 
1  3.134602986936e+00  -4.081341160739e+01  -1.840713993881e+01 
1  1.147491832771e+01  -1.905526860455e+01   5.392748904768e+01 
1  3.236446036302e+01   5.681135344066e+01  -2.683739069628e+01 
1 -2.041877089175e+01   7.555169990866e+01  -6.094774561029e+01 
8
 Atoms. MD step: 36000
1 -4.673576332500e+01  -5.325387932933e+01  -4.964644739658e+01 
1  1.523000504099e+01  -9.497650308910e+00   3.858022289912e+01 
1  2.581630797081e+01   3.856965914538e+01   4.676036587968e+01 
1  4.014152628302e+01   3.745559368469e+01   1.360152022466e+01 
1 -1.545999735161e+01  -3.217952628811e+00  -2.996790653066e+01 
1 -4.451618429887e+01  -4.229907203245e+01  -2.261034989217e+01 
1 -1.704830734589e+01   4.384753005886e+01  -4.637120008877e+00 
1 -6.247500910596e+01   1.900945805305e+01  -2.842825659011e+01 
8
 Atoms. MD step: 37000
1 -3.081680243223e+00   1.987399462538e+01  -1.700053524672e+01 
1 -1.851731439746e+01  -1.079841392387e+00  -1.790657176483e+01 
1  3.785081560387e+00   3.443890417953e+01  -6.229024752094e+00 
1 -2.350710395263e+01  -1.632731461471e+01   4.372870480092e+01 
1  6.825713723736e+00  -3.985170431541e+01  -5.693088432876e+01 
1 -1.535852711468e+01  -9.903137851226e+00  -2.690674856878e+01 
1  8.728687974379e+01   3.166610558962e+01  -3.478502807072e+01 
1 -2.717798620665e+01  -1.262658531766e+01   1.391784514531e+01 
8
 Atoms. MD step: 38000
1  4.158759144443e+01   2.551867326436e+01   4.150847917645e+00 
1 -4.781913706665e+01   6.202523033663e+01   3.593528187471e+01 
1  7.935076902770e+00   1.594433618217e+01   3.697934722175e+01 
1  7.693529936880e+00  -3.543590028564e+01  -1.973503896698e+01 
1 -1.646757130565e+01   1.664508178151e+01   4.406846931781e+00 
1  9.957689217917e+01   2.747343228370e+01   5.766944767605e+00 
1 -2.660117963095e+00   6.547495247136e-01   2.553531750037e+01 
1  1.766109498310e+01   2.612631298204e+01  -2.214127395802e+01 
8
 Atoms. MD step: 39000
1 -9.055853496265e+00  -4.934881649332e+01  -3.223503205729e+01 
1  5.729810659955e+01  -8.289900588125e+01  -4.634731379669e+01 
1  2.359665649496e+01   2.215843710722e+01   1.262623489731e+01 
1  5.568876654495e+00  -3.002778193080e+01  -9.877828742592e+00 
1  1.082155691351e+01  -1.698480230870e+01  -2.434977713841e+01 
1 -8.220752615766e+00   2.310485069432e+00   1.577919965606e+01 
1  1.920890775245e+01   3.518697974623e+01   2.861057406108e+01 
1 -5.544434607107e+01  -2.523952365539e+00  -1.650587017641e+01 
8
 Atoms. MD step: 40000
1  2.715108558234e+01   2.176787079065e+01   5.861562314240e+00 
1  2.975767283595e+01   1.122027552335e+00  -1.304292369057e+00 
1 -1.048947382837e+01   3.436418251438e+01  -5.156993966282e+01 
1 -5.935908404551e+00   2.285272200656e+01  -9.108788105315e+00 
1  3.263884047421e+01   5.351368487240e+00  -6.073646012705e-01 
1 -2.720870452156e+01   3.072768492524e+01  -3.736349001563e+01 
1  6.191588980506e+01  -9.114469482172e+00   3.610605988451e+01 
1 -3.866714495951e+01   5.652821888821e+01  -6.845870716047e+01 
8
 Atoms. MD step: 41000
1 -1.004304538586e+00  -1.916799633670e+01  -1.804082389620e+01 
1 -2.283325682041e+00  -7.414012177024e+01  -1.212360932321e+01 
1  1.919416855326e+01   7.310163901221e+01  -3.517921377034e+00 
1  9.409824172620e+00  -8.942927228541e+00  -1.265913741344e+01 
1 -4.612671209470e+01  -6.389827316785e+01  -3.760862350925e+01 
1  2.247772024666e+01  -2.581759327607e+00   1.100914046605e+01 
1  3.968232886522e+01  -6.081071540898e+01  -1.830989512397e+01 
1  1.466028734929e+01   2.987639037724e+01   4.687471959141e+01 
8
 Atoms. MD step: 42000
1  4.136508719342e+01  -2.383119623307e+00  -2.074063984508e+01 
1  1.197992751473e+01   3.237199401121e+01   2.492977922139e+01 
1 -1.023933660927e+02  -3.426841640104e+01  -5.871868565024e+00 
1  3.664891416649e+01  -1.022473753879e+00   5.158974327490e+01 
1 -4.190330022799e+01  -3.988082807069e+00  -4.365862634560e+01 
1  3.877982852927e+00  -1.213490720686e+01  -4.022320463824e+01 
1 -3.236216144638e+01   8.755110594052e+01   1.013672970675e+01 
1  1.043665812353e+01   3.687419700054e+01   2.418829820107e+01 
8
 Atoms. MD step: 43000
1 -2.486038052195e+01   3.976934587541e+01  -2.637019808752e+01 
1  1.387775933845e+01   5.094713637933e+00  -1.102967687855e+01 
1 -6.244103677343e+01   3.190341286819e+00  -2.642955503684e+00 
1  4.666303188117e+00  -1.135943341085e+01   1.149761173136e+01 
1  3.688329338591e+01   2.152739423709e+01   1.483500181704e+01 
1 -7.175258926720e+00  -4.561753771090e+00  -7.094346662644e+01 
1  3.313613149301e+01  -2.281646237669e-01  -2.383004307333e+01 
1 -1.201207034778e+00  -3.933117826308e+01  -2.012371205095e+01 
8
 Atoms. MD step: 44000
1 -9.831918673578e-01  -1.857107908162e+01   1.995674047934e+00 
1  3.175371523192e+01   1.740949385049e+00   6.425245213660e+01 
1 -2.990483175501e+01  -1.638499431549e+01   1.898362672704e+00 
1  3.164110396236e+01   4.774209506808e+00   1.685309214095e+01 
1  5.631001428381e+01  -2.704091760520e+01  -2.184537739887e+01 
1 -2.132250258909e+01  -3.633617200477e+01   6.638180544297e+00 
1 -2.989845839530e+01  -5.945274179634e+01  -3.613090161647e+00 
1 -1.829575887825e+01  -1.337794529736e+01   2.747491614467e+00 
8
 Atoms. MD step: 45000
1 -9.285899388259e+00   1.949948216356e+01   6.289920411671e+01 
1 -8.675443750263e+00  -6.469758548972e+01   3.841768913667e+01 
1 -2.904442679383e+01   3.417936440810e+00   4.541610561208e+01 
1  1.345026261288e+01   2.813524720843e+01   2.782460487399e+01 
1 -1.057110455659e+01  -1.881385148966e+01   4.211265034823e-01 
1 -7.995282773177e+01   1.798634449234e+01   2.402876975643e+01 
1 -4.012803004579e+01   3.390188293339e+01   4.873936436725e+01 
1 -1.497182744502e+01  -2.131466890351e+01   3.287555598213e+01 
8
 Atoms. MD step: 46000
1 -3.486696262308e+01  -2.771246309675e+01   4.813820651260e+01 
1  6.491445525695e+01  -1.829235244754e+01  -8.403762721268e+00 
1 -3.934543326233e+01  -2.055402746426e+01  -3.197464034269e+01 
1 -1.999200290290e+01   1.817722009902e+01   1.086908461952e+01 
1 -1.408936571707e+01  -4.087740701175e+01   1.132538562934e+01 
1  1.173116579869e+01   1.722801314954e+01   1.247365532429e+01 
1 -2.079932096444e+01   2.288823917722e+01  -2.350292618200e+01 
1  1.237466097230e+01   1.771089904346e+01   5.028502706191e+01 
8
 Atoms. MD step: 47000
1  2.357517673526e+01   9.821225795832e+00   2.908507128285e+01 
1  3.116838526874e+01   7.313425711689e+00  -2.038522533871e+01 
1 -4.323466564627e+01  -6.263574417979e+01   2.432099150598e+01 
1  2.042642112302e+01  -2.166995912087e+01  -5.576338356712e+01 
1 -1.310408706335e+01   3.883782140417e+01   2.107831884161e+01 
1 -2.072605572585e+01  -6.717946172318e+00  -4.940737634878e+01 
1 -3.511116072959e+01   3.079469942270e+01   7.782304885558e+01 
1  1.901532201785e+01   3.164916059058e+01   6.819615487776e+00 
8
 Atoms. MD step: 48000
1  1.929608116459e+01  -3.828667803816e+00  -1.308998136010e+01 
1  8.105966335044e+01  -1.935980450023e+01  -2.536731371360e+01 
1  1.045529379150e+01  -1.624049021207e+01   3.907077902707e+01 
1 -2.020124326618e+00   4.703541035982e+01  -2.175121127547e+01 
1  2.577428464739e+01   4.200235119156e+01   1.121403513851e+01 
1  3.909917512143e+01  -1.151356224199e+01   1.510364201138e+01 
1  1.206241210705e+01  -7.762031295769e+01   3.363568829745e+00 
1  3.992554836473e+01  -1.085781709612e+01   1.509198498367e+01 
8
 Atoms. MD step: 49000
1 -4.023661458869e+01   2.958716240683e+01  -2.531516025849e+01 
1  5.616170622698e+00  -5.321458072680e+01   3.803030382193e+01 
1  4.818191671572e+01   7.778622196729e+01   3.735155406809e+01 
1  3.387638268656e+01  -3.200950661062e+01   6.772350154558e+00 
1  3.962576190341e+01   3.284108030265e+01  -4.578342579456e+01 
1 -5.642428717931e+00  -2.667969006066e+01  -3.332709255651e+01 
1 -4.644218739062e+01  -3.696268639308e+01   2.977830465066e+01 
1  2.465844299878e+01  -2.482154053708e+01   5.998322857208e+01 
8
 Atoms. MD step: 50000
1  1.310630060502e+01  -1.661841342129e+00  -2.880725732986e+01 
1  3.809180568364e+00  -1.635996916510e+01  -4.203147483170e+01 
1 -2.288962355016e+01   1.101028713706e+01   1.281970476920e+01 
1  3.882469515642e+01   2.696404158804e+01   2.773733584192e+01 
1  2.338181446342e+01   2.863551309848e+01  -1.068721757874e+01 
1  5.662702284749e+01   2.560203322663e+01  -3.461956355215e+01 
1 -2.173955304328e+01   4.113402756701e+01  -6.388523340206e+01 
1  2.019023907221e+01  -1.738242000253e+01  -1.067379953172e+01 
8
 Atoms. MD step: 51000
1 -4.679765011930e+01  -4.863895956537e+01  -1.091952596537e+01 
1  3.421495216942e+01   3.919893475216e-01  -5.326571321164e+01 
1 -7.778121307010e+01   6.749596859255e+01  -9.793971709940e+00 
1 -3.842123451190e+01   2.392584659796e+01  -6.076066235010e+00 
1  3.729840429140e+01  -1.244282631555e+01   3.809429889983e+01 
1 -2.438495821308e+01  -1.540979429268e+01   1.893518969727e+00 
1 -2.308420056339e+01   1.774827463729e+01   2.319116505491e+01 
1 -3.284811799317e+01  -3.684185344276e+01  -7.785301516498e+01 
8
 Atoms. MD step: 52000
1 -1.427209788070e+01  -3.784624855404e+01   1.084362385616e+01 
1  1.853732119914e+01  -2.310266093915e+00   6.300156325741e-01 
1 -1.054948100167e+01   3.178584297749e+00  -1.877501471413e+01 
1  3.096845575286e+00   2.830141831378e+00   2.355686074267e+00 
1 -2.780412675722e+01  -4.209467344132e+01  -1.856701858897e+01 
1  6.761646663040e+01   5.835864984868e+01  -2.581185280682e+01 
1  3.796136603556e+01   1.806645038784e+01   8.007057974113e+00 
1 -1.189712003973e+01   1.382375879650e+01  -1.708021637308e+01 
8
 Atoms. MD step: 53000
1 -6.420798422306e+01   5.363965638596e+00  -1.233099609118e+01 
1  3.411497764196e+01  -6.693747097643e+01   3.838981076736e+01 
1 -3.189293650440e+01  -4.783676380229e+01  -3.128314947771e+01 
1 -2.900370506093e+01  -1.505789305499e+00   5.427813289818e+01 
1 -1.921636142547e+01   1.975372222759e+01   4.115137688887e+01 
1  4.852251556155e+01   2.033842246956e+01  -3.585001745033e+00 
1 -3.719162147918e+01   2.918973025540e+01  -1.575132631883e+01 
1  8.205204300340e+00   1.902454283663e+01   1.552362416590e+01 
8
 Atoms. MD step: 54000
1 -2.219386159332e+01   2.294528070250e+01  -2.024076116353e+01 
1 -4.860644870934e+00   2.396416846701e+01   1.022420020992e+00 
1  2.946785994834e+00  -5.128410124029e+01  -3.965812296479e+00 
1  1.615681854684e+01  -5.185732902417e+01   2.219401542402e+01 
1  9.347316789484e+00   2.270249105012e+01  -1.818371029763e+01 
1  5.895370336992e+01   3.814442842490e+01   2.752926704282e+01 
1  1.183474846932e+01  -6.316005867058e+01   8.228394974508e+00 
1 -1.502348739679e+00   5.150564347007e+00  -2.155334200234e+01 
8
 Atoms. MD step: 55000