8
 Atoms. MD step: 0
1 -4.335052367192e+01   6.226770353478e+01  -1.571831079641e+01 
1 -4.197517804778e+01   5.557624918835e+01   6.050689884240e+01 
1  4.062082842113e+01  -6.869837660098e+01  -6.406602060552e+00 
1  3.202042668263e+01  -9.333787405458e+00   7.585091136361e+01 
1  2.169421302650e+01  -5.304981751903e-01  -3.452327492586e+01 
1  2.479565131470e+00   3.727202342153e+01  -7.541307749490e+01 
1  3.539535683763e+01   1.835259957186e+01  -5.811004072382e+01 
1  1.040422054410e+01   7.251222155371e+01   5.312714128624e+01 
8
 Atoms. MD step: 1000
1 -4.833332643559e+01   3.438027758453e+01  -1.717724704388e+01 
1 -1.172757463749e+01   3.328522578760e+01  -2.697504012860e+01 
1  1.956619951034e+01   7.263947741553e+00  -5.850380243808e+01 
1  3.468380961676e+01  -4.909517721888e+00  -6.424571146700e+01 
1  3.541148105540e+00   3.018485502753e+01   3.246505214031e+01 
1 -7.138664300623e+00   1.164867429648e+00   1.716822740081e+01 
1 -1.327830243114e+01  -4.535317658595e+01  -2.507322334205e+01 
1  3.039565729438e+01  -2.435065293735e+01   6.901798301117e+01 
8
 Atoms. MD step: 2000
1 -1.868950243704e+01   6.906588148433e+01  -4.011167323652e+01 
1  2.099852273032e+01   3.305700898370e+00  -2.483212788855e+01 
1  2.399134216841e+01   1.287962652634e+01  -1.667648614283e+01 
1  3.686470005902e+01   2.456179969389e+00   1.626055358549e+01 
1  9.329658048161e+00   3.610552308834e+01   3.212962816093e+00 
1  6.784000232063e+00  -9.187756324422e+00  -2.906276138625e+01 
1  3.874975141617e+01   3.441016519149e+01  -1.495723564277e+01 
1  1.574966021660e+01   7.894083419506e+00  -9.764481713901e+00 
8
 Atoms. MD step: 3000
1  2.591430560248e+01  -3.745459208709e+01   4.485573489630e+01 
1  3.174471371036e+00   2.250239576994e+01   9.261681882654e+00 
1 -2.387950671088e+01   1.036529555259e+02  -5.665557084970e+01 
1 -2.201205449622e+01  -9.552967686574e-01   3.800928882809e+01 
1  4.639120935393e+01  -2.110292879155e+00  -5.986289075783e+00 
1 -1.007766121384e+01  -2.295077856756e+01   3.363210407311e+01 
1 -2.806326396402e+01   3.799267099761e+01  -1.364738202482e+01 
1 -1.890452549427e+01  -3.918897752421e+00   2.261910822863e+01 
8
 Atoms. MD step: 4000
1 -1.436288707624e+01   7.397192176821e+00   2.448815471014e+01 
1 -1.683135388342e+01   4.832531860895e+00   1.654952638696e+01 
1  8.270515998620e+01   2.854209565023e+00   2.829751973022e+01 
1 -5.633021361623e+01  -2.951555948779e+01  -1.537046472164e+01 
1 -3.265870172058e+01   1.554699832807e+01  -4.915091758216e+01 
1  3.248015706692e+01   6.303003144615e+01  -5.023238888762e+01 
1  2.421830983349e+01  -4.628035451018e+01   1.238498164259e+01 
1 -2.086211786546e+01   6.735667621605e+01   6.359852509655e+00 
8
 Atoms. MD step: 5000
1  1.060286451735e+01   3.958414417346e+01   7.219576888229e+01 
1  8.025944105607e+01   4.885857346038e+01  -1.994864607373e+01 
1  1.203141970539e+01   5.700010896830e+01   3.777484303991e+01 
1  1.029080079779e+01  -5.409809061604e+01  -1.146565104954e+01 
1  4.380046125675e+01  -2.795902127844e+01   1.054245536566e+01 
1  6.704392290317e+00   1.584182712009e+00  -1.683941012915e+01 
1 -1.778697748682e+01   1.459879742600e+00   4.171540944262e+01 
1 -4.636682478990e+01  -3.095328109813e+01   4.307927901712e+00 
8
 Atoms. MD step: 6000
1 -1.706768570713e+01  -2.139024734537e+01  -1.492402687314e+00 
1 -2.340024269583e+01  -2.519026855392e+01   6.994200004400e+01 
1  5.202729853963e+01  -3.862119949110e+01  -4.911020401327e+00 
1  4.292337420220e+01   6.390882388589e+01  -2.323559829569e+01 
1 -6.663606065398e+01   2.966220017207e+00   2.303743135883e+01 
1  1.247104792249e+01  -1.885458650385e+00  -4.691510848887e+01 
1  1.843661341166e+01  -4.523273674963e+00   1.230364444861e+01 
1 -1.784745898462e+01  -9.857382229867e-01  -2.196909256575e+01 
8
 Atoms. MD step: 7000
1 -1.978078062191e+00  -1.019647728325e+01   2.905796398199e+01 
1  4.668209295621e+01  -3.774498877995e+01   3.444283728815e+01 
1  3.187093245031e+01   3.961905739127e+01  -1.323993990913e+01 
1 -2.631776162679e+01  -2.760192979791e+01  -2.708273837191e+01 
1 -2.243679791586e+00  -2.099537442926e+01   1.326826295126e+01 
1 -9.342295622115e+00   1.179511682307e+01   2.500700216796e+01 
1 -3.108023809965e+01   1.440420303641e+01  -4.930556387910e+01 
1  1.575195461160e+01  -4.831759501650e+01   4.277985469333e+00 
8
 Atoms. MD step: 8000
1  2.491120059006e+01  -2.222737909938e+01  -4.390408006307e+01 
1  3.993840746197e+00  -3.754192291793e+01  -5.984182808521e+00 
1 -1.742112653893e+00   1.354917022807e+01  -4.439921814171e+00 
1  1.168747470656e+01  -2.585218668088e+00   5.173568917981e+00 
1 -2.686271326781e+01   6.613291983218e+01   1.077634282958e+01 
1 -5.366832810487e+01  -2.134167655191e+00  -7.240578941585e-01 
1 -3.005956825301e+01   2.982927134794e+01  -1.708062212805e+01 
1  4.659906878717e+01   1.416926087099e+01   3.824712189267e+00 
8
 Atoms. MD step: 9000
1  1.147908084448e+01   2.514425420997e+00   3.982784223884e+00 
1  6.305297786070e+00  -2.496719070694e+01   2.132217073060e+01 
1 -3.510532280374e+01   6.050662687675e+01  -3.240395188475e+01 
1  5.368940597000e+00   3.170734127648e+00   1.014835397956e+01 
1  3.801325804704e+01   5.399522665636e+01  -2.090687859028e+01 
1 -1.836572215148e+01  -5.171981848329e+01  -2.671406073613e+01 
1  3.576908916822e+01   5.887633530707e+01  -3.071117954880e+01 
1 -1.887927635926e+00   4.272350187565e+01   2.238861844210e-01 
8
 Atoms. MD step: 10000
1  6.016574806634e+00  -3.209236181659e+01  -1.531461933033e+01 
1  1.199747800780e+01  -2.804884173698e+01   4.546855738771e+01 
1  2.670115569310e+01  -4.221452957852e+01  -5.068060151132e+01 
1 -1.767803810310e+00   2.748670081711e+00  -3.346588852903e+00 
1  1.793918338712e+01  -1.903604148617e+01  -1.133789714893e+01 
1  3.012162127169e+01   4.554752215567e+01   4.659095631135e+01 
1 -3.456663768072e+01  -7.004118195980e+00  -3.152065136397e+01 
1  2.592636280119e+01   2.157240386914e+01   8.672681018437e+00 
8
 Atoms. MD step: 11000
1 -1.480493310361e+01   4.424733744087e+01  -2.724220979580e+01 
1 -7.829642728199e+01  -3.987305408413e+01  -2.595036769497e+01 
1 -5.228986609426e+00  -3.886736914463e+01   4.820919793414e+01 
1  7.950393176993e+00  -4.016268224496e+01   7.691221895171e+00 
1  8.250702621659e+01  -3.817496108163e+01  -1.613264114534e+01 
1 -4.841411741356e+01   3.451204340885e+00  -5.329628865855e+00 
1 -3.869755419059e+01   5.881788673883e+01  -8.216362224062e+00 
1  3.730164169141e+01   2.127359945393e+01  -6.833990890300e+01 
8
 Atoms. MD step: 12000
1 -3.125760167911e+01   2.342293829554e+01   2.768697082660e+01 
1 -1.363039479616e+01   2.885800253464e+01   1.590321501429e+01 
1  7.717910364500e+01  -3.592074265668e+00  -3.561108735651e+01 
1 -3.103142102647e+00   2.334248205187e+01  -3.916600814108e+01 
1 -5.626816532087e+01   5.274018503414e+01   4.365162479768e+01 
1  6.763648264046e+01   9.044140916679e+00   3.254871096725e+01 
1  6.346576322676e+01   3.583871314318e+01   4.950389733041e+00 
1  2.496041149563e+01  -5.197213826761e+01  -1.212785868169e+01 
8
 Atoms. MD step: 13000
1  3.805887403754e+01   5.902161718967e+00  -7.552104863803e+01 
1  2.299066487938e+01  -2.913142846568e+01   1.995498052425e+01 
1 -2.649466970043e+01  -2.609678371815e+01   2.306720427417e+01 
1  1.529016281932e+01   3.380484978094e+01  -1.317635164990e+01 
1  5.391339556521e+01  -3.345851387917e+01  -2.999067431625e+01 
1  6.720057194382e+00  -4.261432222856e+00  -1.170860081237e+01 
1 -3.309865095771e+01  -4.220951651332e+01   1.254931469819e+01 
1 -4.646787772265e+01   7.588856116894e+00   4.526530060579e+01 
8
 Atoms. MD step: 14000
1 -2.639057628752e+01  -1.771477573440e+01  -4.196902437562e+01 
1 -3.362712495787e+01  -1.507745804024e+01   2.745665408069e+00 
1  4.692292546010e+01   6.784657302304e+01  -5.814861409747e+01 
1 -6.173859611338e+00   2.582134509361e+01   3.159286702654e+01 
1 -2.873897207403e+01  -6.064992957211e+00  -1.412389197103e+01 
1 -4.711574416021e+01  -3.276702111574e+01  -6.138154763692e+00 
1 -1.056331235029e+01  -2.234959851149e+01   6.131274792353e+01 
1 -1.520606699837e+01  -3.882025490429e+01  -2.931283608370e+01 
8
 Atoms. MD step: 15000
1 -3.881077343149e+01   1.085247578176e+01  -5.828889052514e+01 
1  4.617873485278e+01  -2.502126656037e+01  -5.201214115770e+00 
1 -6.971174469253e+00  -1.099067880406e+01  -1.981332755588e+01 
1 -6.688002942871e+00   1.604220829346e+01  -3.920394177756e+01 
1  1.435518345271e+01   9.002767952703e+01   7.439981277991e-01 
1  1.536777504111e+01   3.038711557330e+01   1.655481534096e+01 
1 -6.302615072263e+01   3.252920042411e+01  -2.297211477275e+01 
1 -6.474639323569e+01   6.822898055199e+01   7.571716773852e+00 
8
 Atoms. MD step: 16000
1 -6.892493176257e+00  -4.584498368949e+01   2.164908388671e+00 
1 -6.750286391580e+01  -6.829850049000e+00  -5.455123905004e+01 
1 -2.347289415045e+01   1.013026217411e+01  -2.096921299092e+01 
1  2.014990604517e+01  -2.983789790966e+01  -2.105782029594e+01 
1 -4.952654320343e+01   1.520712462069e+01  -1.328109015349e+01 
1 -4.260460502321e+01   4.174213181974e+01  -2.008785055348e+01 
1 -1.194373473220e+01   4.397941452927e+01   1.132501118981e+01 
1  8.684944189546e+01   4.705077201444e+01   2.376766885732e+01 
8
 Atoms. MD step: 17000
1 -3.691196182116e+01   7.270728484166e+00  -1.562654822686e+01 
1 -8.951293819758e+00  -3.186582567479e+01   2.733874228491e+01 
1 -2.889999107788e+01  -8.362549435923e-01  -2.424872572785e+01 
1  4.259793040282e+00   3.233938400439e+01   1.514965206754e+01 
1 -8.667519541611e+00   2.478330845999e+01  -1.025432124102e+01 
1  2.806069171375e+01   1.499572918040e+01  -9.802279648043e+00 
1  5.438743400530e+01  -4.008712320018e+01  -1.332222669787e+01 
1  6.332873680028e+00  -1.123721903575e+01   2.875542440558e+01 
8
 Atoms. MD step: 18000
1  6.121159364966e+01  -3.013069320018e+01  -1.526424426965e+01 
1 -8.284631054365e-01  -2.639267325070e+01  -5.314232621115e+00 
1  8.578997161803e+00  -9.732166574567e+00   2.886852793733e+01 
1 -1.635581346158e+01  -6.045616353951e+00   8.610865073819e-01 
1 -4.056963641103e+01  -1.339249633986e+01  -1.502057348278e+01 
1  2.817685782622e+01   1.408916847227e+01  -2.875626446846e+01 
1 -3.308532189764e+01  -2.729674124425e+01   1.036255183781e+01 
1 -5.097246533016e+01  -5.424104279543e+01   1.757761705130e+01 
8
 Atoms. MD step: 19000
1 -3.658566858302e+00  -2.369752227391e+01   3.321336867801e+00 
1  1.693009508621e+01   5.038589576565e+01  -2.495797735237e+01 
1 -3.251528851663e+01  -7.032760455252e+00   3.423204157504e+00 
1  1.702937543374e+01   3.169310728507e+00   1.014345057142e+01 
1  5.039345805423e+00   3.727925033306e+01   5.186508234922e+01 
1  2.782777062052e+01  -1.790560625437e+01  -7.678951682310e+01 
1 -2.159571632657e+00  -1.027137962809e+01   5.156329335118e-01 
1  1.144430157261e+02   1.391405569242e+01   5.417783458078e+01 
8
 Atoms. MD step: 20000
1 -3.470288304896e+01  -5.825489759027e+00  -4.485657811631e+01 
1  2.128894240157e-01   2.390291476451e+01  -5.999781567840e-01 
1 -3.177054511230e+01  -1.408153271760e+01  -1.443875897968e+01 
1  6.032340261488e+01   7.442355038530e+01   4.224881472287e+01 
1  6.606879904207e+00   1.141547724547e+01  -7.094631156263e+00 
1 -1.508981444379e+01   1.832037401681e+01  -6.437460510514e+01 
1 -3.841774164084e+01  -8.790638760577e+00   8.377427909819e+00 
1 -9.360147605713e+01  -1.286736755637e+00  -4.765032763122e+01 
8
 Atoms. MD step: 21000
1  2.851057923434e+01  -3.340070686855e+00  -1.162948894898e+01 
1 -2.920626296582e+01   2.594872441554e+01  -5.516967126132e+00 
1  2.055596444068e+01   3.457048990825e+01   2.941326745253e+01 
1 -1.468439329483e+00   4.745220315805e+01  -6.337915312170e+00 
1 -4.145854114662e+01  -9.448576070953e+00  -7.301386641940e+01 
1 -1.228693149719e+01  -3.047853137312e+01   4.836200132800e+01 
1 -6.949690628805e+01   5.102060622639e+01   6.317151475702e+00 
1  3.854136776374e+01   1.336931116802e+01  -9.632112650309e+00 
8
 Atoms. MD step: 22000
1  2.151321880256e+01  -1.522215098514e+01  -6.813482177622e+01 
1  7.948711089912e+01   6.597693085364e+01  -1.709557286143e+01 
1  5.186156707857e+01   6.912239671429e+00  -2.567075887435e+01 
1  1.973473486867e+01   7.209832754202e+01  -1.245090304895e+01 
1 -4.194662215605e+00   3.829481490728e+00  -4.691783399113e+01 
1  2.379059909182e+01  -5.124532392981e+01  -4.729998588291e+01 
1 -1.733246419527e+00  -2.490016825471e+01   1.474470443837e+01 
1 -6.314083491026e-01   4.636840242446e-01  -1.295323336958e+00 
8
 Atoms. MD step: 23000
1 -2.160011284571e+01  -1.046329669429e+00   1.923683395619e+01 
1 -3.305555572879e+00   5.034560851476e+01  -5.081779410380e+01 
1  4.776769867637e+00   4.040330236230e+01   2.904536139652e+01 
1 -4.254115671615e+01  -2.438243061787e+01  -5.423283494502e-01 
1  5.071937016844e+01  -5.460151846471e+00  -2.330768611857e+01 
1  9.805553738089e+00  -9.597486464823e-01   6.515598823707e+00 
1  9.234258101425e+00   4.467309610189e+01   5.070140384414e+00 
1  3.660510914360e+01  -1.900043426599e+00   2.042857458710e+01 
8
 Atoms. MD step: 24000
1 -2.911217901133e+01  -2.559711319064e+01  -1.491246952300e+01 
1 -1.439522367251e+01   6.000281978275e+00   5.651523619808e-01 
1  3.436755624948e+01   6.396939781198e+00   2.519679012319e+00 
1 -3.058415698384e+01   5.088866506629e+00   1.372609827546e+01 
1  7.457194588661e+00   2.189983088873e+01   1.004794990722e+01 
1  2.301275703589e+01   3.576123566461e+01   6.494012038113e+01 
1  1.239187023389e+01  -9.410799929228e+01   3.558136282866e+01 
1  1.490676436594e+01  -2.972479082927e+00   4.916725979501e+00 
8
 Atoms. MD step: 25000
1 -4.940868146874e+00   1.379467674730e+01  -7.916572934528e+01 
1  7.740560828505e+00   1.425999442082e+01  -2.187046188230e+01 
1  3.065746245693e+01   5.057688959834e+00   1.813069035256e+01 
1  9.905718021702e+00   6.390339759929e+00  -7.306354489552e+00 
1 -1.916596642076e+00  -2.544368450873e+01   1.719282974301e+01 
1 -1.997095126807e+01   1.883986421231e+01   2.619470919692e+00 
1 -8.878369560775e+00  -2.912599276344e+01  -6.399495038813e+01 
1  3.027910165366e+01   1.833037450652e+01  -5.583853315547e+01 
8
 Atoms. MD step: 26000
1  1.700761479931e+01  -1.049325105543e+01   5.556155358227e+01 
1  2.186899019539e+01  -2.389157459311e+01   4.581134989225e+01 
1 -1.430651226050e+01  -3.485888945655e+01  -5.516557769487e+01 
1  4.987940766711e+00  -1.852409636333e+01  -1.104178965302e+01 
1 -6.055100229212e+00   6.142503785996e+01  -5.132676949358e+01 
1  6.894933984187e+01   7.876006699051e+01   2.144271968538e+00 
1 -7.304113037894e+01   5.682414853472e+01   7.199096824015e+00 
1 -5.591306103165e+01   1.169650329659e+01  -9.976339794116e+00 
8
 Atoms. MD step: 27000
1 -3.076798854713e+01   8.869438485854e+00   1.736886338568e+01 
1 -6.231047776906e+00  -3.860433012403e+00   2.999589753560e+00 
1 -1.807968747880e+01  -6.158503291884e+01  -4.942699451742e+00 
1 -5.658765907783e+01   2.320012604161e+01  -6.285671930740e+01 
1 -7.522232199228e-01  -1.967401717156e+01   1.505534947704e+01 
1 -3.922310465016e+01   5.141324909717e+01  -3.490116979164e+01 
1 -3.796861787931e+01  -6.256178412128e+00  -1.620600572481e+01 
1 -4.079355286378e+00  -7.670241990948e-02  -2.129444834134e+01 
8
 Atoms. MD step: 28000
1  5.678517169299e+01   4.524515123251e+01  -7.500270463200e+01 
1  3.395159609078e+00   5.872175219000e+01  -3.918031589894e+01 
1 -1.652101348665e+01   1.866560706878e+01   2.172752336134e+01 
1 -3.740606909304e+01  -2.802714335194e+01  -2.160532912382e+01 
1  7.206607225086e+01  -2.632083199688e+00   5.946281783122e+01 
1 -2.497407611039e+01   8.227714846097e+01   6.027250288603e+00 
1 -3.690493729753e+01  -4.698619484569e+01  -8.298992906928e+00 
1  1.924994762164e+01  -7.815257172374e+01  -4.165701820698e+01 
8
 Atoms. MD step: 29000
1 -2.548193481488e+01   2.286206864797e+01  -2.434273669459e+01 
1 -1.282143565844e+01  -4.313913231359e+01  -1.124570946870e+01 
1 -2.842768129491e+01  -2.216845228898e+01  -1.627384669830e+01 
1  3.432843297860e+01  -1.244050216767e+01   7.722257666373e+00 
1  2.332640748944e+01   3.064934284363e+01  -1.632568420250e+01 
1  8.186838496253e+00  -2.080665792401e+01   2.329593606766e+01 
1  7.762537188103e+01  -9.209578801298e+00   8.106505320758e+00 
1 -4.551256114397e+00  -4.405765366065e+01  -4.999861619355e+01 
8
 Atoms. MD step: 30000
1  7.251099151713e+01   4.416078009173e+01  -5.622031630845e+01 
1  3.185722126789e+01   5.991657508988e+01  -1.787169057363e+00 
1  8.520670865867e+01  -1.270791570921e+01  -7.394835915365e+00 
1 -3.112243832251e+00   2.915650131321e+01   9.670566362105e+01 
1 -2.591827342949e+01  -7.563524895530e+01  -1.856563174318e+01 
1 -2.250417068537e+01  -3.456728128702e-01  -4.508565703514e+00 
1 -2.489424215992e+01  -3.581123103925e+01  -1.282696907051e+01 
1  4.615836948388e+01  -1.958028267593e+01  -3.571243236218e+01 
8
 Atoms. MD step: 31000
1  7.153019799198e+01   1.383100369230e+01   4.453661792628e+01 
1  5.828230257570e+01  -2.244321644437e+00   3.041796660993e+01 
1 -4.193647335105e+00   3.716316351287e+01  -5.745455839069e+01 
1 -3.349638068128e+01   5.011479736349e-01  -2.920507997450e+00 
1 -3.348641721431e+01  -5.146000213484e+01  -3.320982431997e+01 
1 -7.791243340205e+01  -7.734950936666e+01   1.821580326362e+00 
1 -2.287304032577e+01  -5.158339136170e+01  -1.420664573665e+01 
1  2.194249169698e+01   1.090519892597e+01   1.751387856975e+01 
8
 Atoms. MD step: 32000
1  2.912347465261e+01   2.932811033034e+01   1.930769476883e+01 
1 -3.839732158704e-01  -4.402206605843e+01   2.077083642068e+01 
1  4.675388199091e+01  -2.920258028607e+01  -6.546969055283e+01 
1 -3.570222519232e+01  -3.480191399579e+01   3.697127707393e+01 
1 -4.717867263462e+01  -2.358046641414e+01  -1.018559312533e+01 
1 -4.415228286497e+01  -3.916191975805e+01  -1.447461361193e+01 
1  4.059435815350e+01  -2.025541334269e+01   3.831853432369e+01 
1 -5.550139768350e+01   6.426849102769e+01  -1.276873504766e+01 
8
 Atoms. MD step: 33000
1 -1.037977383026e+01   2.685351332787e+01  -4.081919989265e+01 
1 -2.525093998795e+01   3.804609902341e+01   4.411293980743e+01 
1 -7.944663170557e+00  -8.008177766269e+00   3.298222039644e+01 
1  4.644061766599e+01  -6.909295766458e+01   4.731749836912e+01 
1 -3.804567834211e+01   4.344423423890e+01   3.159641965662e+01 
1  3.180181122035e+01   4.781132782801e+01   2.373610546189e+01 
1 -4.795286447582e+00   4.164711780419e+01  -2.233295881360e+01 
1 -1.786518941145e+01   9.465998117784e+00  -4.365432412171e+00 
8
 Atoms. MD step: 34000
1 -1.738651963871e+01  -6.389942771361e+01  -2.386649786592e+01 
1  4.952098000722e+01   4.688738357660e+00  -3.369378322604e+00 
1  3.215640948965e+01  -3.418222602868e+00   1.306531724867e+01 
1  3.791085756304e+00  -2.121318079285e-01   6.442986216204e+01 
1  6.920380428023e+01   2.201815807536e+01  -8.788712048651e+00 
1 -1.168504382272e+01  -2.949219940231e+01   9.547341713060e+00 
1 -5.893044341254e+00  -3.883434455883e+01  -1.066744857797e+01 
1 -1.582134729431e+01   6.956422410474e+00  -7.750538836995e+00 
8
 Atoms. MD step: 35000
1  5.221054980003e+01  -2.684300684427e+01   5.130416431106e+01 
1  2.437221732538e+01  -1.091269736051e+01  -5.782845117822e+01 
1  1.624870079669e+01   1.516530432720e+01  -1.098247152869e+02 
1  2.828524720318e+01  -5.580776650649e+01   1.477230826010e+01 
1  8.790988397031e+00   4.281359351067e+01  -2.996608456816e+01 
1  2.444586979234e+01  -1.853601384934e+01   3.519415481062e+01 
1 -2.508555698956e+01   1.031934550796e+00  -2.886014753989e+01 
1  1.569834148023e+01   2.073558986786e+01  -1.861715376089e+01 
8
 Atoms. MD step: 36000
1 -2.164058371238e-01  -1.169779433686e+00  -2.595147904967e+00 
1 -4.658567734740e+01  -4.058973913158e+01   1.270623218379e+00 
1 -2.846637343343e+00  -7.573488290585e-01   3.156274396371e+01 
1 -3.495181557128e+01  -3.992282824558e+00   9.236366402321e+00 
1 -2.304965494241e+01  -1.731241409751e+01   2.294031947930e+00 
1 -1.844665681658e+01   8.270914056761e+00   4.647017205000e+00 
1 -6.743030653124e+01   1.424513106591e+00  -9.564617531357e-01 
1 -1.430979907483e+01   1.880996793038e+01   3.005778406223e+01 
8
 Atoms. MD step: 37000
1 -1.527135679878e+01  -1.561719547246e+00   2.777104881705e+01 
1  3.576967442974e+01   2.069151498333e+01  -3.629771848808e+01 
1 -1.857142094905e+01  -2.667632533868e+01  -1.728535671398e+01 
1  6.535431490840e+01  -2.226444144606e+01   1.362026897406e+01 
1  4.349620157015e+01  -1.354528494924e+01   3.031086688285e+01 
1 -3.692893003214e+01  -5.239375321177e+01   4.582328758658e+01 
1  4.363149353306e+01   3.223718783568e+01   3.372578846818e+01 
1  2.096788487616e+01  -6.051149394061e+01  -1.846139161605e+01 
8
 Atoms. MD step: 38000
1  3.655620148420e+01  -4.439227620967e+01  -8.212936911577e+01 
1  5.471453399538e+01   2.849307809940e+01   7.054220702590e+01 
1 -2.404933722876e+01  -8.029663876094e+01  -7.157768878343e+01 
1 -9.858516903606e+00   6.744215160753e+01  -7.638030298881e+00 
1  7.854309151498e+01   2.224748451823e+01   1.164943694530e+01 
1  3.228169253421e+01   1.421094360612e+01  -3.345356283753e+00 
1 -3.292997032413e+01  -1.559985517692e+01  -8.440883927100e+00 
1 -9.269522791696e+00  -3.463320196091e+01   1.620379762744e+01 
8
 Atoms. MD step: 39000
1 -1.793215485605e+01  -2.330142086707e+01  -2.717439185174e+00 
1  1.166065976173e+01  -5.413112179477e+01   2.028065132563e+01 
1  2.425180819200e+01  -4.661926363303e+01  -2.134748532615e+00 
1 -2.773307286780e+01   8.356165357328e+00   3.854054660503e+00 
1 -1.058936296535e+01  -3.186807361258e+01  -2.929426422403e+01 
1  6.888300958550e+01   3.593943080292e+01   1.223395061188e+01 
1  3.619219005338e+01  -1.789417195434e+01   8.075982249887e+00 
1  4.303372309385e+01   1.450892340590e+01  -3.221247471638e+01 
8
 Atoms. MD step: 40000
1 -1.758155126593e+01   1.255957250384e+01   4.257533903997e+01 
1  2.978786328652e+01  -5.708016856024e+01  -7.259552381680e+00 
1  3.403410676727e+01  -3.175998689520e+01  -3.127224267150e+01 
1 -3.981795447365e+01   2.295883252827e+01  -2.470561634122e+01 
1  3.493906563013e+01  -6.770513712368e+00  -4.421322334664e+00 
1  4.830299351182e+01  -1.387087393112e+01   1.580206516185e+01 
1  4.152298896469e+01  -2.816036839943e+01   3.526527507563e+01 
1 -4.042218301973e+01  -1.374738728451e+01  -2.473988186930e+01 
8
 Atoms. MD step: 41000
1 -2.537041482622e+01  -2.021532305452e+01   2.079193737256e+01 
1  3.215075915399e+00   1.446520077901e+01  -7.244375362061e+01 
1  7.439484010265e+01  -4.608371449310e+00   9.335195591905e+00 
1 -1.923231116672e+01   2.278386012581e+01   1.409396199052e+01 
1  1.016099482950e+01  -8.962442762367e+00   2.808393857602e+01 
1 -5.742231409761e+01   2.111576188106e+01   2.039504868814e+01 
1  2.399557260357e+01  -2.393408678781e+01   1.699243071522e+01 
1  2.546507042619e+01  -1.512868518661e+01  -8.850878951507e+00 
8
 Atoms. MD step: 42000
1 -8.817207171394e+00   3.402070317849e+01   5.050780268880e+01 
1 -5.937797896990e+01   2.556011385289e+01  -2.399949995993e+01 
1  8.108065223874e+00  -4.559603793849e+01   1.189420828100e+01 
1 -2.463173983518e+01   2.148070856350e+01   1.249841177884e+01 
1  1.548321415766e+01  -4.884684814618e+00   4.815964768386e+01 
1  4.097955579657e+01  -1.277590121825e+01   1.183556628000e+00 
1 -2.629443795355e+01  -5.564577330089e+00   7.007737363265e+01 
1 -4.904833659397e+01   2.510084846586e+01   2.445423472007e+00 
8
 Atoms. MD step: 43000
1  2.903472331281e+01  -4.083029731007e+01   6.117450033047e-01 
1  3.404819487669e+00   4.167692687707e+01  -1.290608053255e+00 
1 -3.008971138111e+01   1.640256648971e+01   8.760903021684e+00 
1  6.389205178336e+00   1.884210587669e+01  -2.539445197269e+01 
1 -6.135964200666e+01  -3.399702324134e+01  -1.115944881878e+01 
1  4.945712620016e+01   1.368756253730e+01  -9.239742194366e+00 
1  4.056386383505e+00   5.015729166531e+01  -3.087575568108e+01 
1  2.727794875237e+01  -4.367974189678e+01   3.596831968608e+01 
8
 Atoms. MD step: 44000
1  4.909589471047e+01   1.207433344688e+01   2.142398701245e-01 
1  2.146600065115e+01  -1.939870820225e+01   3.239234914034e+01 
1 -1.929110575738e+01  -1.139989542827e+01   3.763192325069e+01 
1 -1.956240098203e+00  -1.944659376310e+01   2.271484952808e+01 
1 -4.367778197443e+01  -6.088906151778e+01  -4.063399723386e+01 
1 -1.608899343128e+00   4.798186360584e+01  -4.020678357548e+01 
1  5.697619155903e+00  -1.053706301170e+01  -1.303539887170e+01 
1 -1.221768598172e+01   8.752539662983e+00  -9.238724604174e+01 
8
 Atoms. MD step: 45000
1  5.116910776311e+00   1.681279024747e+01   3.130304550451e+01 
1  5.089026335102e+00  -1.124541029865e+01  -2.331198301930e+00 
1  1.625109268543e+01  -1.213917291099e+01   5.195558062174e+01 
1  1.713573176192e+01  -1.102959259643e+01   5.529174957725e-01 
1  1.176452785299e+01  -1.101787741873e+01   1.165666292620e+01 
1 -6.666092601676e+01   7.277012349125e+00   9.886794041223e+01 
1  1.325061881568e+01   1.807051340527e+01  -2.781669955481e+01 
1 -1.409844365765e+01   7.000244125744e+00   3.708026612306e+00 
8
 Atoms. MD step: 46000
1 -3.986536450336e+01  -7.299964602578e+00   7.851978708490e+00 
1 -3.577893661447e+00   2.666929697518e+00   9.984786897373e+00 
1  3.976284262428e+00   1.731410785499e+01   6.590490727326e+01 
1  1.700302091664e+01   7.392253382950e+01   2.236198078233e+01 
1 -1.310880283189e+01  -7.522200879775e+01  -3.255255174123e+01 
1  2.102774970499e+01   1.446392318429e+01   4.262301048517e+01 
1  3.325003100604e+01   1.978976759985e+00   5.199389059898e+01 
1 -4.657985946112e+01   4.299126854953e+01   8.573712455910e+00 
8
 Atoms. MD step: 47000
1  3.135587522649e+01   2.582343284119e+01  -1.161516490287e+01 
1 -1.274334244516e+01   5.377353745438e+01  -1.395120688064e+00 
1  2.003899156890e+01   2.211731352134e+01  -5.729092054165e+01 
1  1.330885633329e+01   2.734489744348e+01   3.162264558838e+01 
1 -3.085641438792e+01   6.193020228415e+00  -1.122793249937e+01 
1  2.366632071537e+01   7.326282080849e+00  -4.407322628939e+00 
1 -9.527733280345e+00   5.661851752029e+00   2.777414022779e+01 
1  3.204269672955e+01  -3.567953616690e+01  -1.856890483474e+01 
8
 Atoms. MD step: 48000
1 -2.138022791261e+01   2.787550423610e+01  -7.144624395546e+00 
1  1.409268713433e+01   4.034478809699e+00  -2.667203364479e+01 
1 -5.838012652399e+01  -4.245785021050e+01   8.131003735449e+01 
1  6.660006790799e+00  -2.536789330629e+01   3.553666560352e+01 
1  2.183929114315e+00  -5.649105549979e+01  -1.742261024778e+01 
1 -3.485502467341e+01   3.458708578619e+01  -6.860783863525e+01 
1 -3.495540770452e+00  -6.079174049168e+01   1.504693745207e+01 
1  1.533920623718e+01  -3.870088955816e+01  -1.944535705133e+01 
8
 Atoms. MD step: 49000
1 -6.231047523425e+00  -5.725300248117e+01  -1.195537528079e+01 
1 -4.105157266156e+01   6.946485168022e+01  -3.206259133775e+00 
1  4.498784873402e+01   9.899705445316e+00   1.474931302409e+01 
1  6.096519279547e+01  -3.823185432886e+01   6.270814609885e+01 
1  3.308711718154e+01   3.367920201827e+00  -2.739050080936e+01 
1 -7.927731568745e+01   6.572069450796e+01  -2.222144937059e+01 
1  2.706956135355e+01  -4.855554495247e+01   5.844843726705e+01 
1  1.626048035268e+01   1.270309607226e-01   2.242419639911e+01 
8
 Atoms. MD step: 50000
1 -3.323428585011e+01   1.811712336857e+01  -2.945330960905e+01 
1 -1.786484283723e+00  -5.291621852491e+01  -7.093897990405e+01 
1  3.932747470281e+01   1.766171879298e+01   1.224376099642e+00 
1 -2.586929381649e+01   5.737282204399e+01   1.018900971995e+01 
1  1.178752300262e+01  -9.504015358007e+00   6.100469774838e+00 
1 -3.163282610811e+00  -1.925323216231e-01  -1.225193031203e+01 
1 -6.378626213714e+01  -5.301040433531e+01   4.752159085576e+01 
1 -1.706379507419e+01  -8.763825338277e+00   1.502770385394e+00 
8
 Atoms. MD step: 51000
1  5.413084524417e+01  -5.127240831848e+01  -2.706910773892e+01 
1  1.176333173051e+02   8.073961067613e+00  -3.207598153809e+01 
1 -1.702016940624e+01   6.246938880602e+00  -3.770216902066e+01 
1  2.017757812091e+01   1.630401658822e+01   1.902705870212e+01 
1 -1.871688281910e+01   3.986733068431e+01   5.652504496919e+01 
1  4.241600022425e+01  -1.895952126862e+01  -2.971745811154e+01 
1 -6.093159884320e+00  -2.975726924196e+00  -1.972700288752e+01 
1 -4.060105496183e+01   2.724001249904e+01  -2.755463665064e+01 
8
 Atoms. MD step: 52000
1  3.475034341281e+01  -2.313405480410e+01  -1.092211330158e+01 
1 -2.712739349279e+01   5.538612843526e+01  -1.040641585823e+01 
1  3.067571186858e+01  -5.300787007550e+01  -1.750269288795e+01 
1 -5.460956377233e+01  -8.939264807591e+00   3.144533701006e+01 
1  6.173306669786e+01   2.422560868782e+01  -9.756705625210e+00 
1 -3.098879420176e+01   2.141692050467e+00  -9.157184504775e+00 
1  1.548431970663e+01  -1.759130121624e+01  -5.920919201750e+01 
1 -4.612677188813e+00   7.005853698186e+01   2.217100876192e+01 
8
 Atoms. MD step: 53000
1  8.976483098126e+00   3.839545673005e+01  -1.356266055528e+01 
1  6.804759088312e+00  -2.740640600965e+01   6.542446983175e+01 
1 -1.468195352635e+00  -8.315690591705e+00  -1.698653397682e+01 
1  1.692281732100e+01  -7.876246285630e+00   4.031721499229e+01 
1 -2.562494929064e+01   2.672429908377e+01   1.187035988594e+01 
1  1.394909444848e+01  -5.903211501787e+00   4.071464318188e+01 
1  2.974196894011e+01  -8.051321305334e-01   4.732052437737e+01 
1  1.673307651467e+00   7.713339732871e+00  -1.952512475889e+01 
8
 Atoms. MD step: 54000
1 -4.785565067026e+01   1.873815330390e+01  -1.372117927754e+01 
1  2.676931699215e+01   3.775548900862e+01  -1.762036066741e+01 
1  4.249725007568e+01  -4.674749925971e+00  -6.509856227017e+01 
1  1.379233460328e+02  -4.796392282663e+01   4.148513895369e+01 
1 -3.662634314797e+01   4.294188739309e+00   1.866824486911e+01 
1 -2.284190574643e+01  -8.731826240248e+00   6.673793092432e+01 
1 -8.061774052583e+00  -1.948665019791e+01  -1.111311384040e+01 
1  6.127852019213e+00  -2.131963614419e+01   2.156663873617e+01 
8
 Atoms. MD step: 55000