8
 Atoms. MD step: 0
1  6.673994264557e+01  -6.348222162079e+01   4.533458352829e+01 
1 -4.190978114971e+01   6.511705803867e+01   6.576511494826e+01 
1  6.160288589397e+01  -4.968557995687e+01  -7.759770453232e+01 
1 -5.275475819101e+01   5.263914256172e+01  -6.287078783062e+01 
1  3.368236176707e+01  -5.535420352454e+01   6.567221809806e+01 
1 -2.932215654258e+01   5.697053922066e+01   5.504311202953e+01 
1  7.435867778535e+01  -5.503844031689e+01   6.929554136757e+01 
1  4.256782595794e+01   4.207458288030e+01   4.780089100214e+01 
8
 Atoms. MD step: 1000
1 -2.698328331517e+01  -2.669307039893e+01   3.527686603950e+01 
1  1.567883142472e+01  -5.446429526248e+01  -5.299208016043e+01 
1 -3.321077566149e+01  -1.189835774306e+01   1.636168410966e+01 
1  4.995275151304e+00  -6.883555724533e+00  -4.432697644172e+01 
1 -2.209408302102e+01  -4.120756993430e+01  -7.596169870231e+00 
1 -1.047467074856e+00   7.071531854477e+01  -1.792588939349e+00 
1 -2.274196441996e+01   1.934387582768e+01   2.561899798338e+01 
1  1.497805312681e+01   2.602750829317e+01  -5.726691698126e+01 
8
 Atoms. MD step: 2000
1 -3.198452343570e+01   3.272453962591e-02   1.079757759032e+01 
1 -3.094862563148e+00  -9.410552489942e+00   8.859850813318e+00 
1  1.543859541142e+01  -2.932448379548e+01  -1.837411981887e+01 
1  2.030494108702e+01  -1.094436307906e+01   4.587353409896e+00 
1  7.124191495035e+01   1.929508255836e+01   1.107366064843e+01 
1  3.880213071045e+01   2.185037702708e+01  -1.145385583397e+01 
1 -6.236749286598e-01   4.221021670453e+00  -3.474145663457e+01 
1  1.225860137003e+01   3.724554354857e+01   4.636853557517e+01 
8
 Atoms. MD step: 3000
1  9.351183746850e+00  -1.904253026012e+01  -8.484968453565e+00 
1  1.134476953715e+02  -3.069104070837e-01  -5.898007570564e+01 
1 -1.284121726715e+01   1.708354768640e+01   2.712342350827e+01 
1 -2.602332462511e+01   7.475025071640e+01   4.741601291407e+01 
1 -1.016433318520e+01   5.958868533697e+00   4.565282275761e+01 
1  1.791382909022e+01   2.286054072569e+01  -5.175931806548e+00 
1 -1.674282577324e+01  -3.766263169472e+01  -2.534364587119e+01 
1 -1.569881895308e+01   6.905729662943e-01  -3.589030889286e+01 
8
 Atoms. MD step: 4000
1 -1.935103552692e+01  -3.386755067880e+01   5.523271219173e+01 
1 -1.469654376423e+01  -2.227806878842e+01  -2.450687098142e+00 
1 -4.621578037274e+01  -3.089230866078e+01   1.361286297974e+01 
1  1.025064403277e+01  -1.337580616020e+01   5.793781600901e+00 
1 -2.073743849618e+01  -1.578961537987e+01   3.101072950329e+01 
1  3.140209962228e+01   2.925252060899e+01  -2.131269061197e+01 
1 -5.312121789626e+01  -3.818885877082e+01   2.113492559823e+01 
1 -6.459377391740e+01  -5.502944986594e+01   4.508552074332e+01 
8
 Atoms. MD step: 5000
1  3.613192552436e+01  -4.015605457836e+01  -1.469008564695e+01 
1  6.148582926603e+01   1.071701891207e+00  -1.567638523252e+01 
1  1.697916380283e+01   6.465051319903e+01  -8.298292800894e+00 
1 -4.080774176304e+01   3.066746445898e+01   1.516613506806e+01 
1  4.391139395374e+01  -2.189218711148e+01  -5.650150013873e+01 
1  1.576462053356e+01   3.498920843478e+00  -2.920303056208e+01 
1  4.816885815406e+01   1.376691833988e+01   9.430525886765e+01 
1 -8.966077314158e+00   7.156873857381e+00  -4.147625205012e+01 
8
 Atoms. MD step: 6000
1 -4.664245108518e+01  -1.722687420597e+01  -1.707174303089e+01 
1 -1.624832235214e+01   8.518001551508e-01   3.058828380374e+01 
1  7.182376884782e+01   4.637366948715e+00  -3.416518629942e+01 
1  5.429677076644e+01   2.435387205791e+01   2.447883978996e+01 
1  3.024644975279e+00   1.164162056011e+01  -2.163521035432e+01 
1  6.268598962452e+00   2.647707593975e+01  -1.313534558207e+01 
1  4.996819602350e+01   2.256473860768e+01   3.508110292442e+01 
1  2.768494494890e+01   1.176852978550e+01  -3.450129526482e+01 
8
 Atoms. MD step: 7000
1  6.114464174203e+01  -1.465904683932e+01   6.113690958361e+01 
1  2.673108923352e+01   1.250910888321e+01   4.595642709758e+01 
1  6.098597726030e+01   6.068488388476e+01   2.761720022951e+01 
1  2.076369353259e+01   1.642909783078e+01   2.495517055531e+01 
1 -3.449725248800e+01  -1.419354770901e+01  -5.322986309750e+00 
1  1.470777522452e+01  -2.889012339811e+00  -6.794290067069e+00 
1 -7.316320044252e+01   1.920765086003e+01   4.355542610389e+01 
1 -7.889777513598e+01  -1.049292099836e+01  -2.342495082425e+01 
8
 Atoms. MD step: 8000
1  4.943410765148e+01   1.703587633600e+01  -2.196562120336e+00 
1  6.024185030291e+00   2.256173748813e+01  -1.521513163619e+00 
1 -1.594007136283e+01  -2.001296830469e+01   3.851798858061e+01 
1 -2.495363015276e+01   3.262079485864e+00   3.579532435441e+01 
1  1.616024334377e+01  -1.327494773658e+01  -1.529127265638e+01 
1 -1.243309536264e+01  -2.310501053003e+01  -1.400075027182e+01 
1  5.832550779118e+00  -2.811900314747e+01  -1.666018708187e+01 
1 -4.946096532455e+00  -4.730265611005e+01  -1.340654080284e+01 
8
 Atoms. MD step: 9000
1 -1.517548215330e+01  -3.000784844857e+01   2.617913760412e+00 
1  1.898882037676e+00   4.021817769455e+00   4.712691407719e+01 
1 -3.959642687329e+01  -3.951987925795e+01  -2.911280697868e+01 
1 -6.949546983773e-04   7.560874570337e+00   9.445724506212e+00 
1 -2.540331311996e+01  -5.725298126305e+01  -4.242093646712e+00 
1 -3.255539428840e+01  -5.692149203118e+01   5.500107859459e+00 
1  2.325491022661e+01   1.010189828995e+01   4.713199026033e+01 
1 -2.816176673581e+01   3.747948765692e+01   8.795371107404e+01 
8
 Atoms. MD step: 10000
1  3.055558237505e+01  -3.660252046534e+01  -5.824755728903e+01 
1  5.392047654739e+01   6.683352312253e+00   9.539000480292e-01 
1 -9.004027222379e+00  -6.629115013435e+01   1.438733651709e+01 
1  5.973884964383e+00  -1.685219688241e+01   2.062221437118e+01 
1 -3.030514726113e+01  -1.441392019429e+00  -4.840364032497e+01 
1  3.439486974156e+01  -4.751393784906e+01   4.974754559127e+01 
1 -8.876844997684e+00   9.114562319836e+00   3.191791361234e+01 
1 -7.482395748497e+01   1.244801179715e+01  -1.629033213342e+00 
8
 Atoms. MD step: 11000
1  9.816023841460e+00  -1.706577388129e+00   2.502642743272e+01 
1 -2.469977596252e+01  -4.214711643866e+01   2.895977209698e+00 
1  6.276958161030e+01   2.034831142155e+01   8.240203745464e+00 
1 -3.476745267568e+01  -3.861630848602e+01  -5.474716965669e+01 
1  2.196371607659e+01   1.563125474673e+00   4.988164842442e+01 
1 -8.781703617525e+00   3.246097318719e+01  -2.347249391931e+01 
1 -4.114280588943e+01   3.582153394167e+01   6.259819941704e+00 
1 -2.514993592029e+01   2.437320335578e+01   3.713035715805e+01 
8
 Atoms. MD step: 12000
1 -1.824699693526e+01   2.980791478098e+01  -1.174993719435e+01 
1 -4.440747856641e+01  -5.677777689456e+00  -9.308369169436e+00 
1 -1.166669677032e+01   4.390217797014e+01   7.869335039323e+01 
1  8.172673496083e-01  -1.842843239015e+00   9.332712350198e+01 
1 -5.781444926605e+01   1.121600019746e+01   4.235479284601e+01 
1  2.177272368883e+01  -1.972879908942e+01   2.938841031868e+01 
1  6.898729904875e+00  -9.576156675287e+01  -5.855628667635e+00 
1  4.106000494624e+01   9.849389880149e-03   3.048300341514e+01 
8
 Atoms. MD step: 13000
1 -4.204372037102e+01   1.949322206194e+01   2.138808533504e+00 
1 -5.149422075961e+01  -4.667554735109e+01   5.361321838425e+01 
1  2.300769560466e+01   1.445676803860e+01   2.697467325187e+01 
1 -5.625367894581e+00   3.242162991300e+01  -1.682194781612e+01 
1  5.387332281607e+01   7.637531394531e-01  -9.580467396390e+00 
1 -1.562819453395e+01  -8.978283077702e-01  -4.775458752181e+01 
1  2.617702402517e+01  -3.645512924374e+01  -8.458312614377e-01 
1 -2.926853359130e+01  -5.415181578952e+00   1.688948964002e+01 
8
 Atoms. MD step: 14000
1  3.657297543296e+01  -1.978988953829e+01   1.009666444005e+01 
1 -4.321726309707e+01   3.440737706253e+01  -2.181643177967e+01 
1  1.485070754844e+01   2.544318816553e+01  -6.700378654064e+00 
1 -1.192298690688e+01  -1.472218375394e+01  -6.023005631625e+01 
1 -8.921887758701e+00   2.979444872866e+01  -4.985707981861e+01 
1  1.003899404756e+01   2.211470823124e+01  -4.696905550889e+00 
1 -1.646397071061e+01  -3.680627606016e+01   3.173534805120e+01 
1  2.860274908389e+01  -1.396383681103e+00   1.971313739128e+01 
8
 Atoms. MD step: 15000
1  4.672181633745e+01   2.385730020438e+01   3.914744219118e+01 
1  4.420126433079e+01  -7.164643575172e+00  -3.109297897123e+01 
1  5.251971976717e+01   4.450978147395e+01  -5.613828626361e+01 
1 -6.999032651070e+00   4.563041570837e+01   1.791385365010e+01 
1 -4.892820873569e+00   5.772216051727e+01  -2.431062795343e+01 
1  3.217776980645e+01   6.494729706371e+01  -5.029005502078e+01 
1  4.260237148960e+00  -1.395611520123e+01   3.944336567005e+01 
1 -3.010773069026e+01  -4.923456258185e+01  -1.037549664465e+01 
8
 Atoms. MD step: 16000
1 -6.753990682747e+01  -9.385349520016e+00   2.075950801955e+01 
1  8.157296314934e+00  -5.543562745050e-01   5.679868774251e+01 
1  4.112512189168e+01  -4.765509333636e+01  -2.144937613267e+01 
1  1.170807204304e+01  -1.697799160598e+01   2.066542373167e+01 
1  2.863208588795e+01  -1.200159514689e+00  -1.146248822435e+00 
1 -5.071534330919e+01  -1.418762380031e+01  -1.578461174480e+01 
1  2.788878854561e+01  -3.905191912233e+01   3.753874793623e+01 
1 -9.869691641371e+00   4.011325021233e+01  -4.866921039455e+01 
8
 Atoms. MD step: 17000
1 -2.978072474313e+01   3.628026979600e+01  -5.759341760046e+01 
1 -2.530458618634e+01   3.146190019904e+01   1.176422778319e+01 
1  4.492435851988e+01  -1.800249836347e+01  -4.519171423350e+01 
1  2.248119478782e+01   1.831210576499e+01  -4.046606355353e+01 
1 -5.592046674181e+01   6.633543450693e+01   2.407434649194e+01 
1 -3.578762667341e+01   4.307623037755e+01  -5.503769911379e+01 
1  2.427186192493e+01  -5.924104905215e+00  -1.752097967717e+01 
1  6.814427733133e+01   1.608140481555e+01   1.892643910323e+00 
8
 Atoms. MD step: 18000
1 -4.425800067130e+01  -1.482914116674e+01   1.739394007037e+01 
1  1.155630551953e+01   4.060613765734e+01  -6.657449743210e+00 
1 -3.000759444906e+01  -2.463292204112e+01   6.935588395443e+01 
1  4.432844391472e+01  -1.076814065128e+02  -4.058678609997e+01 
1 -5.567251781224e+01   4.222171817790e+01   3.173641415992e+01 
1  4.390117273572e+00  -2.735724697695e+01  -5.298381844744e+00 
1 -5.397422276557e+01  -7.308773473016e+01   1.128072070944e+01 
1 -2.894702359377e+01   6.922128223656e-01   5.766306081656e+00 
8
 Atoms. MD step: 19000
1 -5.010286479674e+01   6.106716782293e+01  -3.806362558328e+01 
1 -2.469973820065e+01   4.271297355593e+00  -9.742257103486e+00 
1 -6.051669220227e+01   5.872692718718e+00  -1.770165921590e+01 
1  2.015425389184e+01   1.234765948309e+01   1.436866150350e+01 
1 -3.922839672420e+01   5.478131074833e+01  -2.616606074845e+01 
1 -4.343674343283e+00   1.384780557265e+01   6.521839219350e+01 
1 -2.902908092540e+01   1.693114601937e+00   7.677881814214e+01 
1  4.611528395739e+01  -5.606899253235e+01   2.159490173428e+01 
8
 Atoms. MD step: 20000
1  1.323676292655e+00   1.858151530640e+01  -4.657562346654e+01 
1  8.326055752428e+00   3.585761784298e+01   2.671678751760e+01 
1 -3.711314402309e+00   3.881359196539e+01   3.238663875515e+01 
1  5.720363081082e+01  -2.701269853465e+01   2.701484273357e+01 
1 -7.428603697036e+00   6.836610188659e+00  -1.439124685207e+01 
1 -3.133116009302e+01  -3.328783330959e+01  -6.229975881065e+01 
1 -7.181681604792e+01   4.244784379863e+00  -1.248375620407e+01 
1 -3.217298566702e+01  -3.003963811901e+00   4.723765806087e+01 
8
 Atoms. MD step: 21000
1  1.157292002477e+01   8.770460907574e+00   3.097691885742e+01 
1 -1.190470059407e+01  -5.305363572535e+01   6.493499155824e+00 
1 -1.516120232506e+01  -5.050897770256e+00   3.667684814900e+01 
1 -2.121641209478e+01  -2.245716755159e+01  -1.119157440873e+01 
1  3.392010304554e+01   9.502450033245e+00  -2.504863096788e+01 
1 -1.951325103899e+01   3.553527368551e+01   9.217968896468e+00 
1 -3.052697666965e+01   3.305754378616e+01   2.328269789017e+01 
1  4.333339791134e+01  -4.785524810401e+00  -1.713025034161e+01 
8
 Atoms. MD step: 22000
1 -3.297842350717e+00   2.753536869588e+01  -2.636678933074e+01 
1  1.729140514274e+01   4.817360510339e+01  -2.955970792271e+01 
1  2.136657295477e+01  -5.533613800280e+00   3.531566148621e+01 
1  6.476212997057e+01  -4.656593272261e+01  -3.351285013765e+01 
1  2.021790190072e+01  -1.728190671910e+01   3.742321301877e+01 
1  3.355213973564e+01   2.990286101576e+01   7.530630884729e+00 
1  1.802320892331e+01  -1.820902032092e+00   7.246979349807e+01 
1 -1.765962131921e+01   3.520065585458e+00   2.888939038890e+01 
8
 Atoms. MD step: 23000
1  2.246721577667e+01   5.683499652154e+00   2.966981731471e+01 
1  1.206082290043e+01   3.075431619355e+01  -1.224840342551e+01 
1  9.730195084959e+00   2.994947946728e+01  -8.392258476797e+01 
1  3.613339808666e+01   3.928061093778e+01   4.333273161611e+01 
1  1.851746513785e+01   2.766526564894e+01  -9.673145504616e+01 
1 -4.997850932430e+00   3.818016877538e+00  -1.670883794607e+01 
1 -1.854816067948e+01   4.381988880264e+01  -3.078172234549e+01 
1  3.650256022941e+01   2.383324084910e+01   3.061663221538e+01 
8
 Atoms. MD step: 24000
1 -6.068354963614e+01  -1.293792858740e+01  -2.021155446743e+01 
1  2.162207512315e+01   1.130267542437e+01   2.544588293315e+01 
1  4.811997665785e+01   3.163142623628e+01  -3.876056163264e+01 
1  1.940557883159e+01  -4.371381913864e+01  -3.731652222211e+01 
1  1.947638647628e+01   2.944736609885e+01   3.520150401789e+00 
1 -1.411722279685e+01   3.799624362772e+01  -2.174586633370e+01 
1 -1.938375738058e+01   3.182951908019e+01   9.703163709434e+00 
1  4.507020771076e+01  -1.893513194613e+01  -2.035010081855e-01 
8
 Atoms. MD step: 25000
1  4.806234117522e+01  -4.734748911260e+00  -7.188479020613e+00 
1 -3.348475036698e+01  -2.124275945006e+01  -2.379547180858e+01 
1  4.639886373427e+01  -7.660544104056e+00  -2.716485498903e+01 
1  4.389703835778e+01   5.054090167264e+01  -1.483354454703e+01 
1  3.765394463181e+01  -4.082021396236e+01  -2.993413881597e+01 
1 -3.705790997467e+01   4.903753097912e+01   2.435005464063e+00 
1 -2.083538296903e+01   6.874656273823e+00   6.665733537742e-01 
1  5.031554699286e+01  -3.320612621676e+01  -3.987305384023e+01 
8
 Atoms. MD step: 26000
1 -4.899367839022e+00  -9.842957003324e-01   3.136845523994e+01 
1  1.013326381209e+01  -2.793051080237e+01  -5.975834758087e+00 
1 -5.516906829232e+01  -7.300676226105e+00   1.747371435431e+01 
1 -2.711706485296e+01   8.497957401242e+00   2.881526991320e+01 
1 -7.248551396594e+00   5.738756542558e+01  -7.369445814514e+01 
1 -4.737043907061e+01   1.728980345361e+01  -5.778100879916e+00 
1 -7.607471981396e+01   4.629183276692e+01  -1.495208458631e+01 
1  3.662569739936e+01   1.306988463380e+01  -3.543954416271e+01 
8
 Atoms. MD step: 27000
1 -2.155793806018e+01   1.434806116663e+01  -5.213791296716e+00 
1 -1.621899108406e+01  -6.464453324786e+00  -6.879629584578e+00 
1  4.302567666217e+01   5.273283413857e+00  -2.658991724081e+01 
1 -7.872312510004e+01   1.577681282806e+01  -2.938837850855e+00 
1  2.370932601071e+01   2.440473921691e+01  -4.528102158951e+00 
1 -2.908290197193e+01   4.448188537132e+01  -1.646717628842e+01 
1 -2.091840595311e+00   7.904488713664e-01  -2.334317034223e+01 
1  9.836360755760e+00   1.353905310323e+01  -6.485001538593e+01 
8
 Atoms. MD step: 28000
1 -4.970923630306e+01  -1.531033533630e+01  -2.644988914780e+01 
1 -6.745916524482e+01   8.038700339052e+00   8.701738079495e+00 
1  5.470328497207e+01   3.737969202002e+01   2.719296451824e+00 
1 -1.439119305411e+01  -6.038130027296e+01  -1.726265929514e+01 
1 -2.414176036505e+01   7.014670237518e+00   1.502136226864e+01 
1 -3.767079946751e+01   1.939141314091e+00   3.480778053526e+00 
1 -1.658746125508e+01   8.656411551388e+00   3.231743530534e+01 
1 -4.086478573137e+00  -6.724629371919e+01  -7.657069838362e+01 
8
 Atoms. MD step: 29000
1  3.062709493726e+01  -1.559921326831e+01  -1.308506052462e+01 
1  1.091216391337e+00   1.542490321145e+01   3.299937401803e+01 
1  3.770686758345e+01   1.464719679166e+01   2.672029569461e+01 
1 -1.485895873718e+01  -8.895824183820e+00   5.126615054038e+00 
1 -7.941188135164e+00  -4.666017753343e+01   4.496076705056e+01 
1 -2.051260177900e+00   1.015340683823e+01   4.437935174323e+01 
1  4.764648441404e+01  -5.595743246165e+01   3.335978630420e+00 
1 -2.990308030073e+01  -3.143587815248e+01   2.187470432862e+01 
8
 Atoms. MD step: 30000
1  6.582016341435e+01   6.568020858246e+01  -6.016014157995e+00 
1  4.104876584823e+01   6.508891741321e+00   2.336846637428e+01 
1 -6.165011803428e+01   3.338097424604e+01   9.838543308226e+01 
1 -2.514876945195e+01  -1.360093648253e+00   2.373022313554e+01 
1 -3.531746887870e+01  -1.848141078647e+01  -2.773061573314e+01 
1 -2.536041706585e+01   2.987092447294e+00  -2.654771388986e+01 
1  6.152371751281e+01  -1.223371121042e+01  -1.709893020665e+01 
1 -2.151464214869e+01  -8.975647665677e+01   1.263712595808e+01 
8
 Atoms. MD step: 31000
1 -4.176735802041e+01  -1.535200977170e+00   5.131732435522e+01 
1 -1.159444105178e+01  -1.671714318976e+01   6.754535182830e+01 
1  2.300600756458e+01  -1.651290566241e+00  -4.286144348459e+01 
1 -9.783714412752e+00  -1.772256147921e+01   9.479031958917e+00 
1 -6.105089351350e+00  -3.992728240071e+01   2.181147491471e+01 
1 -4.120835050958e+01  -2.654835708582e+01   1.643430004276e+01 
1 -2.156709635392e+01  -4.807149870263e+00   4.578435682611e+01 
1 -9.147721769297e-01  -1.615118083032e+01  -5.681821573651e+00 
8
 Atoms. MD step: 32000
1 -3.730244310627e+00  -3.771634387313e+01  -2.295266555985e+01 
1  5.730982464790e+01  -1.086936826970e+01   2.278875681370e+01 
1 -7.893014230025e+00   4.203723539200e+01   1.733748561441e+01 
1 -5.671276981880e+01   6.579700501463e+01  -4.140349757282e+01 
1  4.593096035865e+01  -2.379686872591e+01   4.506538792694e+01 
1 -6.043742323040e+01   2.620731805065e+00   4.122844627949e+01 
1 -1.467076640975e+01  -9.977296235185e+00   1.819196219635e+01 
1  2.573335022160e+01  -1.403999493430e+01  -3.111933487559e+01 
8
 Atoms. MD step: 33000
1 -8.199398597361e+00   3.331706319556e+01   1.092731112794e+00 
1  2.752958485187e+01   3.410494500546e+01   2.287191899992e+01 
1 -2.233020733061e+01  -4.507567395851e+01   1.161988567468e+01 
1  6.722568221031e+01  -3.520570636150e+00  -7.496961527578e+01 
1  1.692474985238e+01  -3.018876658833e+01  -6.232677529066e-01 
1 -4.272611226877e+00  -7.311547020747e+01  -3.020502091411e+00 
1  5.085254569811e+01  -1.445846265726e+01  -3.178820621639e+01 
1  3.793892844271e+01  -2.703963722189e+01  -1.748270057440e+00 
8
 Atoms. MD step: 34000
1 -6.113560555264e+01   1.607838898106e+01   2.090267485757e+01 
1  2.944792319160e+01  -4.743953666903e+01   2.455719038375e+01 
1 -1.251837784684e+01  -3.893196683758e+01   9.278299502662e+00 
1  2.528996616737e+01  -2.107126407096e+01  -2.837865754182e+01 
1 -8.078744641266e+01  -3.553290526387e+00   5.366032521160e+01 
1  4.994054227794e+01  -1.591332380655e+00   4.484233761368e+01 
1  2.356246925861e+01   9.907739711225e+00  -8.450496780733e+00 
1  4.625562710288e+01   1.824646660730e+01  -8.627285286998e+01 
8
 Atoms. MD step: 35000
1 -2.416542060203e+01  -1.849559846271e+01   6.022902677698e+01 
1  5.553954016266e+01  -4.635062988443e+01   2.738915990233e+01 
1  2.760128689516e+01   4.010197361729e+01  -2.786620157773e+01 
1  5.826596765564e+00  -1.552964801437e+01   2.722449808758e+01 
1 -1.647699155025e+01   7.883408916639e+01   4.142464825850e+01 
1 -2.232363450920e+01   1.116091246010e+01  -2.127707807168e+01 
1 -2.578680495645e+01   2.660545670445e+01  -1.935103262671e+01 
1 -8.528395562381e+00   4.061713640635e+01   2.875051668032e+00 
8
 Atoms. MD step: 36000
1 -3.549488520560e+00  -8.009255757025e+01   8.163762281509e+00 
1 -5.098578160351e+01  -2.527964558796e+01  -1.288385238721e+01 
1 -6.927220480048e+00   4.179770522541e+01   1.095350807414e+01 
1 -2.807655491180e+01   4.000192091312e+01  -2.287940018470e+01 
1 -1.915611097336e+01  -4.651729564653e+00  -4.396243657737e+01 
1 -8.164479513843e+00   3.749251043230e+01   5.368733982250e+00 
1 -7.732732830384e+01   1.055065341330e+01   1.361414579848e+01 
1 -1.810871401781e+01  -4.006352488122e+01  -8.517980971876e+01 
8
 Atoms. MD step: 37000
1 -4.771215871271e+01   9.676861723311e-01   1.981449590211e+01 
1 -3.668816064755e+01   2.419227895530e+01  -5.299935865678e+01 
1 -5.874088330112e+01  -5.163794279088e+01  -5.098056666556e+01 
1 -6.488699131784e+00  -1.968545013574e+00   6.799686829061e+00 
1  2.098298787461e+00  -3.351149156384e+01   2.799953569893e+01 
1  3.729849856364e+01   8.288836696394e+00  -1.185217218415e+00 
1 -1.003667800910e+01  -2.069513603314e+01  -4.893118968475e+01 
1 -2.426986205258e+01   2.986469199906e-01  -2.047923960514e+01 
8
 Atoms. MD step: 38000
1  7.622475507456e+01  -3.786144613424e+01  -1.364194789866e+01 
1  1.794862220342e+01   2.924598085964e+01   1.244401981614e+01 
1  4.514633288351e+01   1.563792156017e+01  -7.762163155496e+01 
1  1.633313968244e+01   8.904785112177e+00   8.998920478837e+00 
1 -3.138153029708e+01   1.944969498805e+00  -6.921716650423e+00 
1  2.411320941998e+01  -2.246936475577e+01   2.235936209135e+01 
1 -5.638182415073e+01  -1.613187522859e+01   3.645552219014e+01 
1 -4.056180648509e+01   5.962479465686e-01   1.756856123754e+01 
8
 Atoms. MD step: 39000
1  1.268741848554e+01   2.175983533110e+00  -2.109921047336e+01 
1 -4.339416271410e+01  -5.455954575793e-02   4.078256088110e+01 
1 -6.438181290157e+01   9.460851918230e+00   4.686811390960e+00 
1  3.299160321257e+01  -2.847124897053e+00   2.790293922194e+01 
1 -2.336671653787e+01   4.304816232219e+01  -8.834976145089e+00 
1  1.094301695432e+01   3.253263410446e+01   4.426340937347e+01 
1 -2.552592082751e+00  -4.920381641424e+01  -5.111019749507e+01 
1  9.232292152116e+01  -7.293697696578e+01  -7.874202514034e+01 
8
 Atoms. MD step: 40000
1  3.795899561075e+01   1.168176705658e+01  -8.557554934981e-01 
1 -9.901667909410e+01  -4.813683375445e+01  -7.590136322922e+01 
1  6.759310973828e+00  -2.719914646542e+01  -2.508345735148e+01 
1 -1.701613767848e+01  -4.157410022378e+00   4.102588473429e+01 
1 -2.945481683916e+01  -4.033001280133e+01  -9.156813529916e+00 
1 -2.330925926483e+01  -1.957882653683e+01  -7.312613259355e+00 
1  1.875842874723e+01  -2.258359571782e+01   1.338633798361e+01 
1  6.723519991197e+00   5.009594981007e+01  -2.799170432895e+01 
8
 Atoms. MD step: 41000
1  2.100138808111e+01  -4.132745800168e+01  -1.446922755636e+01 
1 -3.844786000331e+01   4.432908520741e+01   3.496354910463e+01 
1  1.524111688186e+01   4.307498835776e+00   2.732958855957e+00 
1  8.246357048170e+01  -5.566184308118e+01   5.732885386416e+01 
1 -7.647760782887e+01  -3.786129370737e+01   6.468718928698e+01 
1  1.033874561988e+02   4.536729472362e+01   4.992370213112e+01 
1  1.278639702813e+01  -1.019518042491e+01  -5.247932447429e+01 
1 -5.185119591467e+01  -5.865184994006e+01  -1.695455764244e+01 
8
 Atoms. MD step: 42000
1 -7.736981098848e+00   6.873793413453e+00  -4.102495645109e+01 
1 -8.482827453630e+01  -2.663021174046e+00  -2.935890314285e-01 
1 -4.129456994137e+01   4.667166609289e+00   1.715620933655e+00 
1  5.588704705802e+00   2.302890234250e+01   1.312701940059e+01 
1  4.868297975553e+00  -6.074416939625e+01  -4.722504862080e+01 
1 -1.672599419219e+00   4.111179191894e+01  -2.655382606003e+01 
1 -3.935547225248e+01  -6.908372229025e-01   1.485419451581e+01 
1 -2.594925739939e+01  -9.883379305725e+00  -4.631195818803e+01 
8
 Atoms. MD step: 43000
1  1.710803051052e+01  -2.461505906058e+01   3.715592488226e+01 
1  4.631025002181e+01   4.839661252078e+01  -4.728899817993e+01 
1 -5.997784160754e+00  -6.551409014475e-01  -3.410856250502e+01 
1 -2.140873847781e+01   8.648749222132e+00  -2.102045331136e+00 
1 -4.022580481264e+01  -3.837560932651e+01   8.120420016715e+00 
1 -6.242609982321e+00   1.888571117838e+01  -3.666176064357e+01 
1 -5.793909769277e+01  -5.668891325835e+01  -3.272751465450e+01 
1 -2.396531177736e+01  -2.085889433898e+01   3.696205339767e+00 
8
 Atoms. MD step: 44000
1 -7.294760510506e-01   2.395055698840e+01   1.299944122130e+00 
1  3.165034135573e+01  -3.756593754928e+01  -5.469097074609e+00 
1  1.037697468142e+01  -2.384779258384e+01   3.480470746790e+01 
1 -8.008900174173e+00  -4.672613772742e-01  -6.283771778176e+01 
1  1.649175517744e+01   2.153252504885e+01   3.291052344939e+01 
1 -1.261197486851e+01  -4.048905317247e+01   3.777176380531e+00 
1 -3.660360690584e+01  -1.264204499145e+01   4.258420650798e+01 
1  1.639813260846e+01  -3.940952144484e+01   3.301863371550e+01 
8
 Atoms. MD step: 45000
1 -8.164815679126e+00  -4.397999426568e+01   6.614216572561e+01 
1 -3.802842303338e+01   6.539589704017e+01   7.619424823706e+00 
1  1.495457941897e+01  -3.443494820648e+01   1.605573424625e+01 
1  5.274524870429e+01   6.159592712891e+01  -4.695491794072e+01 
1 -7.442312326577e+01  -4.229946664629e+01  -4.182684696140e+00 
1 -3.193972887513e+01   1.776431281386e+01   2.480262447406e+01 
1  3.640163257235e+01  -1.930264930774e+01  -3.953759594395e+01 
1  5.456897302396e+01   5.552041662679e+01   1.408699432007e+01 
8
 Atoms. MD step: 46000
1 -3.105128951349e+01   4.127710455129e+01   4.400584088390e+01 
1  2.492229842650e+01   8.658547427700e+00   6.763306771495e+00 
1  1.199879661102e+01   5.985245095822e+01  -3.586146283021e+01 
1 -8.225305484573e+00   7.480569356224e+00  -3.696587077380e+01 
1 -2.758674478034e+01  -3.729342465847e+00  -3.542717275403e+01 
1 -1.357293534046e+00  -2.389588969199e+01  -5.359606466706e+01 
1 -1.094908644888e+00   5.455304944548e+00   4.943633340512e+01 
1 -4.131036375861e+01   2.297454005358e+01   1.779083915174e+01 
8
 Atoms. MD step: 47000
1 -4.976724604600e+01  -7.522989716381e+01  -5.580796086430e+01 
1 -2.349627522723e+01  -4.548434119420e+01  -2.883115968599e+01 
1 -3.053388852786e+01   9.941484765326e+00  -7.489437066996e+01 
1  2.504427403971e+01  -3.580721801597e+01   9.010180134776e+00 
1 -4.217563819480e+01   3.112179303915e+01  -3.572939097414e+01 
1  3.440492903830e+00  -1.438842565557e+01   9.292583992383e+01 
1  1.757069264882e+01  -5.221573555640e+01   1.100487238890e+01 
1 -1.672700742586e+00   3.949111838137e+01   6.583385393876e+00 
8
 Atoms. MD step: 48000
1 -2.386940278142e+00  -2.405722091662e+01  -4.017999324398e+01 
1 -2.932496222312e+01  -4.596299789337e+00   2.253952556474e+01 
1  2.118843847576e+01  -3.509840391782e+01   3.628669641053e+01 
1  3.388062304487e+01   4.064826617085e+01   3.164146978951e+01 
1  1.439764265526e+01  -5.353451446889e+01  -2.659295290352e+01 
1 -1.324165580345e+01   4.026996848747e+01  -7.807527058343e-01 
1  3.261397362679e+01   2.028053746378e+01   4.274618715192e+00 
1 -1.076294273112e+01   1.116601030978e+01   3.002757733994e+01 
8
 Atoms. MD step: 49000
1  1.826028918495e+01   3.679223765478e+01   6.364841428885e+01 
1 -2.115093853750e+01   5.412787257651e+01  -3.732336507017e+01 
1  3.833714177017e+01   2.858656823230e+01   7.641138862307e-01 
1 -2.915415307508e+00  -1.196598393013e+01   3.682306941409e+01 
1  2.481065186488e+01  -1.500196439028e+00  -2.146634290834e+01 
1 -7.322903978762e-01   2.802710836993e+01  -2.606052361237e+01 
1  1.933400510727e+01  -3.360404674441e+01  -3.777329740303e+00 
1  1.552738431042e+01  -7.668881824385e+00   8.148913545086e+00 
8
 Atoms. MD step: 50000
1 -2.502157014895e+01   3.177270648027e+01  -3.303395536426e+01 
1  1.100911557019e+01   2.054942042216e+01  -8.820646605431e+00 
1  5.875431411201e+01   2.936388204100e+00   5.100134234694e+01 
1  2.366205439182e+00  -1.462474128682e+01   1.079054968857e+01 
1  5.317286754129e+01  -2.210917769984e+01   1.858533592338e-01 
1  6.585643824982e+01   5.076290104268e+01   3.672108893208e+00 
1  5.371374612886e+01   3.127674107077e+01  -4.529168928359e+00 
1  1.967077427561e+01  -2.447620835375e+01  -8.411643701733e+01 
8
 Atoms. MD step: 51000
1  3.217690935835e+01   9.283010032045e+00  -1.940400878114e+01 
1 -3.857272121649e+01  -8.420549139597e+00  -4.319340753216e+01 
1 -3.359231054814e+01  -6.050538303490e+00  -4.508368563535e+00 
1 -1.210006938245e+00   2.702116942438e+00   6.249934877575e+01 
1 -2.698361343235e+01  -4.592399035966e-02   2.570336453156e+01 
1 -2.670752507439e+01  -8.322241361095e+00  -4.976418086332e+01 
1  2.081368964655e+01  -3.114319040952e+01  -5.257546257383e+01 
1  4.078440916794e+00  -2.889402679321e+01   5.731436217663e+01 
8
 Atoms. MD step: 52000
1 -4.251687585746e+00  -4.878989903990e+01  -4.152728676928e+00 
1  4.944757514251e+01  -1.601267050066e+01  -4.858396888605e+01 
1  4.358226294811e+01   1.488557140677e+01   2.671926126909e+01 
1 -2.550557849314e+01  -4.399506933771e+01   3.779717989796e+01 
1  7.852230730823e+01   5.088991049249e+01  -9.635881674365e+00 
1 -4.039806551616e+01  -3.299999477145e+01  -5.477222981877e+00 
1 -3.796947887691e+00   2.927813708545e+01   5.670677879836e+01 
1  5.705374175237e+01   4.865574975144e+00  -4.326726070866e+01 
8
 Atoms. MD step: 53000
1 -3.242196993961e+00   5.539183530666e+01  -5.314580486962e+01 
1 -2.216162368502e+01   2.518184003092e+01  -5.619579523817e+00 
1  2.240613012973e+01  -2.061703594644e+01  -3.389349697449e+01 
1  1.388821726032e+01  -3.352123178593e+01  -4.667593778897e+01 
1 -6.511637064460e+00  -1.254815224250e+01   4.149194256498e+01 
1 -7.040687251999e+01   5.258369129742e+01   3.628930032517e+01 
1  2.170009237668e+01  -2.541207337861e+01   5.760994779903e+00 
1  1.794717240690e+01  -3.405907083388e+01  -3.982131005061e+01 
8
 Atoms. MD step: 54000
1 -4.041333936976e+01   1.535872902471e+01  -1.165437398675e+01 
1 -7.008068037759e+00   2.079915095402e+01  -6.077535713579e+01 
1 -4.049626915847e+01  -4.342926333924e+01  -2.603951266589e+01 
1  3.519080131592e+01   2.944017252371e+01   3.133261304914e+01 
1  7.494524836641e+00  -4.361563978614e+01  -3.453834216684e+01 
1 -4.696885125663e+01   1.948601555699e+00  -1.917147346353e+00 
1 -1.100741701757e+01  -2.934550016544e+00   3.985921526337e+00 
1  8.858264314096e+00  -3.058716696959e+01   4.954734961449e+01 
8
 Atoms. MD step: 55000