8
 Atoms. MD step: 0
1  2.086108577697e+01   4.693432203065e+01  -2.284201364120e+01 
1  9.091580979047e+00   6.922598102697e+01   4.061902542366e+01 
1 -3.244458265140e+01   6.111061475566e+01   4.971198066405e+00 
1  1.212382219856e+01  -1.902742052781e+01   7.102886472015e+00 
1 -5.665730473373e+01   6.058214040052e+01   2.055098169242e+01 
1 -6.201009357882e+01   6.982676963481e+01  -4.984931700386e+01 
1 -3.197718126494e+01  -5.533441737496e+00   2.967724491637e+01 
1 -8.215372080555e-01   3.172605093898e+01   4.379452421306e+00 
8
 Atoms. MD step: 1000
1 -2.937347647672e+01  -2.653825419846e+01  -4.590736912177e+00 
1 -7.452546275153e+00  -1.712227907151e+01   1.216225278198e+01 
1 -3.527305699987e+01  -4.257616344445e+00  -2.325575434701e+01 
1  1.043642826813e+01   4.525239477748e+01  -6.982265714812e+01 
1  3.778176496392e+01  -4.114905374163e+01   2.850814236145e+01 
1  1.406102639724e+00   1.098045293728e+01  -2.255227403889e+01 
1  1.944724769540e+01  -8.381124463822e+00  -7.727411857913e+00 
1  6.422469789267e+01   2.239513919384e+01   6.159947782467e+00 
8
 Atoms. MD step: 2000
1  2.345830044521e+01  -4.176910841856e+01   1.646888906738e+01 
1  1.434311957838e+00   1.544131969411e+01  -3.886946592981e+01 
1  1.222046767575e+01   2.473666438962e+01  -2.188513412512e+01 
1  3.822091976912e+01   4.196446580797e+01   2.187785132136e+01 
1  5.700493531705e+00   7.330589592298e+00  -6.178820184836e+00 
1 -3.781782924063e+01   3.477900707288e+01  -3.914496291158e+01 
1 -3.500696334400e+01  -1.251999011072e+01  -5.585087969615e+01 
1  8.946773388031e+00   5.070818295511e+01   5.158834206285e+01 
8
 Atoms. MD step: 3000
1 -1.627752210009e+01  -1.359716995215e+01   1.559499403743e+01 
1  2.862638197329e+01  -2.928873556975e+01  -2.770029987860e+01 
1 -4.874112730213e+01   3.218276780884e+01  -4.282012219691e+00 
1 -1.086797882012e+01   3.756917815129e+01  -3.934360044230e+01 
1  3.275680675918e+01   2.225341334753e+01   1.694409304496e+01 
1  3.941408028066e+01  -2.128958996207e+01  -5.403605999235e+00 
1  3.942945560860e+00  -4.808232685954e+01   3.619550215981e+01 
1 -5.395600293106e+01  -2.009363619089e+00  -2.147378605874e+01 
8
 Atoms. MD step: 4000
1 -7.427945284248e+01  -1.624841903247e+01   8.976118972723e+01 
1  5.135097765614e+01  -4.312700366618e+01  -1.114576311177e+01 
1  5.213650156819e-01  -5.607080724560e+00  -5.325446630655e+01 
1  1.599884705211e+00  -1.876114689662e+01  -2.984773185357e+01 
1 -6.326672052995e+01  -3.946539427349e+01   6.394954890708e+00 
1 -1.766500442847e+01   2.762161710306e+01   4.047490946967e+01 
1 -2.601873494705e+01   1.597097981686e+01   1.762592998641e+01 
1 -6.722544891898e+01  -2.981517131902e+01   4.262618597916e+01 
8
 Atoms. MD step: 5000
1  4.848176947472e+01  -4.370813406964e+01   8.713995066763e+00 
1  2.620387519927e+01  -5.613713023949e+00  -3.394005599966e+01 
1 -2.185226562544e+01   1.457093629711e+01   1.187756047570e+01 
1 -4.624449787684e+01   7.904762919379e+00  -4.983335283555e+01 
1  7.177362936194e+01   1.392592852908e+01   4.491364936965e+00 
1  5.204983629277e+01   3.620130326637e+01   1.869530372514e+01 
1  5.437372827529e+01  -7.316185550928e+01   3.232347439273e+01 
1  1.192120733385e+01   2.060708104007e+01  -4.034705687823e+01 
8
 Atoms. MD step: 6000
1 -5.012396378304e+01  -4.428267772575e+01  -1.486272723982e+01 
1 -6.436366386930e+00  -1.651120766071e+01   4.599110635666e+00 
1  9.550801369378e+01   3.768828884703e+01  -6.944080561380e+00 
1  4.479038393116e+01   3.323343279306e+01  -6.381492046926e+01 
1  3.037157343980e+01   4.629912722636e+01  -5.270272528831e+01 
1 -4.709178032476e+01   2.394850157417e+01  -3.051276100177e+01 
1  5.168105308152e+01   1.791813405042e+01   7.916603428388e+00 
1 -5.579053920372e+00  -3.135881850721e+00  -7.351357361571e+00 
8
 Atoms. MD step: 7000
1  7.636273114421e+01   3.128924498045e+01   4.281718665937e+01 
1  1.156058055885e+01  -2.145570723296e+01   3.282189070196e+01 
1  1.641617900139e+01   2.367766244598e+01   4.252539123956e+01 
1  5.471195477138e+01  -3.661004407534e+01   1.665821179874e+01 
1  1.817529095919e+00   3.551388539695e+01  -1.040328183338e+01 
1  3.118808743488e+01  -9.122428416447e+00   1.410063840131e+01 
1 -5.007413685408e+01   1.934461990460e+01   3.074071744444e+01 
1  1.475315593356e+01   1.253364459871e+01  -5.559157843842e+00 
8
 Atoms. MD step: 8000
1 -6.669335248040e+00  -2.315396635686e+00   2.542644296684e-01 
1  2.596691140353e+01  -4.501578769278e+00   4.264560523498e+01 
1  1.802600751854e+00  -5.141923102525e+01   3.336576259627e+00 
1  3.989418174443e+01   6.447576734135e+01   1.800614626148e+01 
1 -4.534772504615e+00  -2.601289240672e+01  -2.427047891627e+01 
1 -1.063591806266e+01   2.679373465083e+01  -3.294343336347e+00 
1  3.667773420888e+01  -2.755367833799e+01  -2.287943885566e+01 
1  1.685067068038e+01  -5.889420165466e+01   2.381703556868e+01 
8
 Atoms. MD step: 9000
1 -4.816840172410e+01  -3.698273700827e+01   1.738170495856e+01 
1  3.092078917455e+00  -1.200840953198e+01   2.743085467335e+01 
1  1.144353107288e+01  -3.843136918643e+01  -6.617433658534e+01 
1 -5.980173091448e+01   2.903047968955e+00   5.576402150439e+00 
1 -7.239702249945e+00  -7.938696946421e+01   4.468464735004e+00 
1 -2.337572153937e+01  -2.331954242352e+01   2.347929327051e+01 
1  6.548997171652e+01  -3.009448420916e+01  -2.987674260169e+01 
1 -1.193681928230e-01   2.006828477635e+01   5.074327803395e+01 
8
 Atoms. MD step: 10000
1  1.520635934383e+01  -6.679175629637e+01   5.580853954286e+00 
1  1.905753892587e+01   6.060113312727e+01  -9.102661389397e+00 
1 -3.098789114859e+01  -9.823031915124e+01  -3.101422463202e+01 
1  5.227616784067e+01  -1.394896618227e+01  -6.170137109345e+00 
1  1.440816217515e+01  -4.433315187414e+01   2.376018149127e+01 
1  7.829477934345e+01   8.390734936765e+00   4.069395274907e+01 
1  2.078447054638e+01  -2.367583224676e+00   3.238802071092e+01 
1 -7.691842284200e+01  -1.497192281274e+00  -3.955394019671e+00 
8
 Atoms. MD step: 11000
1 -4.965004817038e+01   6.068040206335e+01  -4.149695935019e+01 
1 -2.204511924580e+01   4.172433871025e+01  -2.245361364247e+01 
1  2.786114756824e+01   1.729380134466e+01   2.198738466087e+01 
1 -3.269014860678e+01  -1.292256152128e+01   4.388558967836e+01 
1 -7.174963655318e-01   3.424301004595e+01   8.635975936887e+00 
1  1.329663245713e+01   9.892754965818e+00   1.093834867218e+01 
1 -3.403565791017e+01   2.508481878337e+01  -4.829987046299e-01 
1 -2.231374589037e+01  -3.390950257073e+01  -1.442068638043e+01 
8
 Atoms. MD step: 12000
1  4.013277239203e+01   8.443468938426e+00  -1.833883710341e+01 
1 -2.179414743353e+01   1.021408128288e+01  -3.473016721701e+01 
1  3.337515879891e+01   5.333289896781e+01   8.025661667270e+01 
1  4.012729623988e+01   2.236691778550e+01   1.703014804797e+01 
1 -2.191874711469e+01   6.728963673645e+00   2.232887376438e+01 
1  2.847787455510e+01   1.853422540507e+01  -2.277609249532e+00 
1 -4.817625843845e+01  -7.403483944115e+01  -1.021806718119e+01 
1  2.975233083834e+01   4.478650170033e+01   2.100034676144e+01 
8
 Atoms. MD step: 13000
1  1.511078158998e+01   3.340830422575e+00  -1.693814980708e+01 
1 -7.752149229527e+01   2.431261010663e+01  -2.325863260415e+01 
1  1.169541970147e+00   3.048690931672e+01   2.322617005409e+01 
1  1.800316582556e+00   6.040270841200e+01  -4.877882043820e+01 
1  3.136935152240e+01  -1.734447529710e+01  -6.504316029120e+01 
1 -4.569327343112e+01   4.432217529006e+01   4.059300133731e+01 
1  5.607267864483e+01   5.288748136159e+00  -2.193123372698e+01 
1 -3.511534330355e+01   7.289193149113e+01  -5.731933428207e+01 
8
 Atoms. MD step: 14000
1  7.661433383768e+01   8.178278707197e+00   3.681137054387e+01 
1 -4.206063774322e+01   5.340786828735e+01  -3.365689136022e+01 
1 -1.073824956095e+01  -1.400845904932e+01  -1.658945093160e+01 
1  2.856246633029e+01  -4.387751759674e+00  -2.442817105504e+01 
1 -2.237082639544e+01   9.038792179181e+01  -3.579320581664e+01 
1  3.461773059758e+01  -4.121079556630e+00  -2.088688451663e+01 
1 -1.711522323956e+01  -5.116276328599e+01   7.429240131908e+01 
1 -2.466493845523e+01   5.504641807423e+01   1.640536011057e+01 
8
 Atoms. MD step: 15000
1  2.980184734078e+01   1.327902102242e+01   1.463753400452e+01 
1  1.264288179657e+01   2.281328977930e+01  -2.964617923596e+00 
1  2.072870120318e+00   7.978980563276e+00  -2.072520064040e+01 
1  1.875618968117e+01  -5.944745167457e+00   2.636826105198e+01 
1  1.955284498905e+01   6.590257116646e+01   2.216862082923e+00 
1  3.223816163288e+01   8.744165773850e+01  -5.731499450412e+01 
1  3.367946630238e+01  -2.118763584824e+01   9.942839082954e+00 
1  1.259205002855e+01  -4.011507494283e+01   2.153202507379e+01 
8
 Atoms. MD step: 16000
1 -1.361949285558e+01  -1.264185994634e+01   3.324013069817e+01 
1 -1.172641393919e+01  -4.249178532692e+01  -1.125166005840e+01 
1  2.086677539100e+01  -1.577161850907e+01  -5.101508068274e+01 
1 -2.696042920997e+01  -1.676210187401e+01  -3.357811404306e+01 
1  4.045572798253e+01  -1.324213249428e+01   2.287901080636e+01 
1 -1.025617759021e+01   6.869964243485e+00  -4.135734501705e+01 
1  3.105632581174e+01  -3.247375966031e+01  -4.381049866190e+01 
1  7.240360690332e-02   4.117371568973e+01  -9.132384560822e+01 
8
 Atoms. MD step: 17000
1 -5.596209212471e+00   5.201454586182e+01  -6.716733211147e+00 
1 -6.015018029084e+00   9.063781431605e+00  -1.578702193887e+01 
1  5.972869111329e+01  -4.999190686289e+01   8.497725849787e+00 
1  1.163363537464e+01   6.310177458008e+01  -1.014221751943e+01 
1 -7.060928198533e+00   1.098103008799e+01   2.406946238315e+00 
1 -3.774019733813e+01   1.388568866579e+01  -1.954525074526e+01 
1  2.011401750227e+01   7.066388120794e+00  -4.493573993522e+01 
1  8.880105818584e+00  -2.884508079522e+00   2.349886812145e+00 
8
 Atoms. MD step: 18000
1 -1.887552145876e+01  -1.326605620097e+01   1.893303607069e+01 
1 -5.607166716359e+01   5.720100429784e+01   1.993476529747e+01 
1  6.141890009062e+01  -3.423254707171e+01   6.797790410408e+01 
1  7.712407183101e+01  -6.065979763642e+01  -7.454920443161e+00 
1  1.151630165188e+00   5.637504990127e+01   4.978004762141e+01 
1  5.810093968912e+01  -3.580215276252e+01  -1.665761234199e+01 
1 -6.825498702061e+01  -3.724009764105e+01  -3.276546991268e+00 
1  4.441073126181e+01  -1.993682504058e+01  -3.057765345175e+00 
8
 Atoms. MD step: 19000
1 -5.374069569909e+01   3.495450528884e+01  -3.314017018601e+01 
1 -1.976409441033e+01   2.116337358868e+01   3.004078118063e+01 
1  3.815548826422e+01   7.134282345631e+01  -1.874653691523e+01 
1  6.487396556534e+00   1.845705154235e+00   2.691794106364e+01 
1 -2.027805314625e+01   3.554133575276e+01  -5.566994977539e+01 
1  1.712110266926e+00   2.876238576709e+00  -2.325288422741e+01 
1 -3.569234057346e+01  -5.839852790096e+01   5.734904263525e+01 
1  5.689343492904e+01  -8.553690427340e+01  -1.476748398669e+01 
8
 Atoms. MD step: 20000
1  1.363509276482e+00   2.237322090124e+00  -4.813585275501e+01 
1  7.952625034626e+00   2.033216149219e+01   2.456399589867e+01 
1  3.746096104653e+01   1.018123765065e+02   2.532740317152e+00 
1  3.622111654244e+00  -2.738513490304e+00  -4.736128145025e+01 
1  1.922670029381e+00   3.644693475853e+01  -5.012628838795e+01 
1  3.616391519658e+01   6.947172081344e+00  -3.621640185838e+01 
1 -1.705521162324e+01   1.551720538498e+01  -1.804908136922e+01 
1 -1.125261007134e+01  -1.519867644558e+01   3.026969475621e+01 
8
 Atoms. MD step: 21000
1 -6.034577451390e+01   7.225599699032e+01   4.377215720374e+01 
1 -8.293032465955e+00  -1.207712713429e+01  -3.936357165534e+01 
1 -2.114843617373e+01  -4.887726640604e+01   2.121127611907e+01 
1  2.816737974001e+01  -3.456773344531e+01   1.874607247110e+01 
1  1.845487041603e+01   6.743466381783e+01  -2.277054546517e+01 
1 -1.399950092053e+01   3.330908315850e+01   1.309644496712e+01 
1 -8.588344116761e+01  -1.679654793034e+01  -9.242079910423e+00 
1 -2.260620673014e+01  -8.385524819075e+00  -4.687072672982e+01 
8
 Atoms. MD step: 22000
1 -2.124034833155e+01   4.567272367196e+01  -2.336553495355e+01 
1  3.177738096717e+01   2.290746211470e+01  -2.911121171941e+00 
1  7.880277348933e+00   1.727133673827e+01   7.534828172980e+00 
1 -1.095660596695e+00  -1.219319561888e+01  -2.137270231147e+01 
1  3.739225872784e+01   2.652431408552e+01   4.670775698967e-02 
1  4.086986497505e+01   3.933188295704e+01   1.251319623380e+01 
1 -2.647840296863e+00  -1.347698376395e+01   1.971130212852e+01 
1  1.638897882452e+01   1.884325117164e+01  -6.497675618203e+00 
8
 Atoms. MD step: 23000
1  5.286074983418e+01   6.589470242379e+00   4.272285928723e+01 
1 -2.345049512385e+01   3.800796952647e+01   4.092367777140e+01 
1 -5.787122103000e+00   3.539213407330e+01   6.162594135464e+00 
1  3.684083604917e+01   5.473251853677e+01   1.542242692028e+01 
1  3.107036560385e+01  -2.214199981760e+01  -6.517063445067e+01 
1  2.254338297082e+01   5.448161298606e+00  -1.483759477599e+01 
1 -1.714817702548e+01   9.233039515401e+01  -5.429154916020e+01 
1  2.901605596965e+01  -2.189299698375e+01   5.568059282015e+01 
8
 Atoms. MD step: 24000
1 -6.739529597921e+01  -1.729586095218e+01  -6.377979945383e+01 
1  1.840819799885e+01   7.836784514896e+01   3.693368365122e+01 
1  8.560094469689e+01   6.830159146280e+01   3.434677275323e+01 
1 -3.851060037942e+01   2.046127698781e+01  -5.057805228058e+01 
1  1.269834570934e+01   1.160592919312e+01   2.148819482670e+01 
1  1.761233941836e+01   5.249739966425e+01  -2.652272664362e+01 
1  2.150653831847e+01   4.749476408629e+01   3.443368645499e+01 
1  4.498038994929e+01  -2.290283923399e+00  -1.007266602575e+01 
8
 Atoms. MD step: 25000
1  4.692333295215e+01   2.083886761161e+00  -5.579611356190e+00 
1  8.825444415772e+00   2.553262996655e+01  -2.275829188984e+01 
1  1.292391384165e+01   9.431526157684e+00  -8.906266963167e+00 
1  1.276016946334e+02   3.944470832255e+01  -9.588637126711e+00 
1 -5.147144962918e+00  -2.408107697552e+01  -5.322487268588e+01 
1  1.335703578632e+01   3.706563729128e+01  -3.385085521075e+01 
1 -5.799378795028e+01  -2.217352260136e+01  -1.894946988443e+01 
1  4.400336315784e+01  -1.938156921486e+01  -5.799149821578e+01 
8
 Atoms. MD step: 26000
1 -1.080957108275e+01  -1.730046405419e+01   2.202156538895e+01 
1 -8.442694796030e+00  -9.215479298948e+00   2.987297438998e+01 
1 -2.532636887301e+01  -4.481069482628e+01   3.424941289538e+01 
1  2.230322010509e+01  -4.293068232955e+00   7.756190477416e+00 
1 -5.774464409778e+01   3.589622087510e+01  -2.984652608417e+01 
1 -1.217798933253e+01   7.286644844208e+01   1.052429819248e+01 
1 -8.836419787393e+01  -1.959525863214e+01  -6.029446546612e+01 
1  5.827562962115e+01   6.136373898370e+01  -2.124812357393e+01 
8
 Atoms. MD step: 27000
1  7.536579638101e+00   3.452595343313e+01   1.937756549453e+00 
1 -3.251929233216e+01  -1.159314710526e+01  -8.561941156974e+01 
1  2.549856119445e+00  -3.773678014538e+01  -1.679463977166e+01 
1 -6.462339490283e+01  -1.501986471255e+00   1.049407695054e+01 
1 -4.909562445448e+01   9.092024893229e+01  -2.054905126143e+01 
1  1.906527482072e+01   3.862738437409e+01   1.240573419137e+01 
1  5.320588257286e+01  -2.480113038837e+01  -1.527687204113e+01 
1 -2.533708311707e+01   2.436360987130e+01  -4.082960507371e+01 
8
 Atoms. MD step: 28000
1 -1.231151262164e+01  -4.687915127830e+01  -3.550494781241e+01 
1 -8.525538795618e+01   2.637732355913e+01   2.773980009225e+01 
1 -1.232038244487e+01   3.853389593295e+01  -2.985498224719e+01 
1  3.969734239826e+01   3.221398216631e+01   2.902501491688e+00 
1 -1.838598340866e+01   2.359102638603e+01   3.139606413392e+01 
1 -4.767190985139e+01   5.303567604703e+01   1.462568504284e+01 
1 -3.121118382335e+01   5.279573074223e-01   2.850506593559e+01 
1  2.183528322665e+01  -1.899347873286e+01  -3.367555126219e+01 
8
 Atoms. MD step: 29000
1  1.264949573273e+01  -1.317104974053e+01  -2.771674329266e+01 
1 -3.261892047624e+01  -8.538533322096e+00   1.777085118066e+01 
1  6.406898969535e+01   6.099853300407e+00   3.808477970808e+01 
1  1.768816679946e+01  -4.690619309542e+01   2.968335863729e+01 
1 -2.567000946968e+00  -6.947702591745e+00   4.675876916781e+01 
1 -2.703275031828e+01  -1.098836403422e+01   4.387496786685e+01 
1  5.330114015389e+01  -2.125582496404e+00   5.181903000739e+00 
1 -3.287628460645e+01  -3.959031069477e+01   1.169031353385e+01 
8
 Atoms. MD step: 30000
1  4.585020395406e+01   6.733599011073e+01  -3.777487567059e+01 
1 -1.852688150085e+01  -2.456021771318e+01   2.681629512453e+00 
1 -2.062893221919e+00   1.501106858844e+01   7.571069357071e+01 
1 -2.930235136748e+01  -9.957053999222e+00   4.662228986144e+01 
1  2.436601195604e+01   1.656481986087e+01  -8.710251890442e+00 
1 -2.597195180258e+01  -1.874305680680e+01  -9.116642704695e+01 
1 -1.886029650290e+01  -1.251232723281e+01  -1.694567881646e+01 
1 -1.030877685246e+01   1.855847116589e+01  -2.307648236912e+01 
8
 Atoms. MD step: 31000
1 -2.269706017687e+01  -1.754862929562e+01  -1.625133226434e+01 
1 -2.254660179947e+01   2.327188478739e+01   2.212409687223e+01 
1  2.674224740237e+00   1.860006779476e+01   2.738373664715e+01 
1  3.526792038756e+01   1.286979008482e+01  -1.318292944867e+01 
1 -2.715142031496e+01  -2.160196300200e+01  -4.108241136297e+01 
1  6.819947495656e-01  -4.220018593265e+01   1.313528929798e+01 
1 -1.260146938268e+01  -7.183019467729e+01   3.684996139419e+01 
1  9.995211463424e-02  -1.960369096833e+01   2.941477648213e+00 
8
 Atoms. MD step: 32000
1 -1.765911745076e+01  -6.610101368540e+01  -4.935833844507e+01 
1  1.159606394928e+01   7.305318481550e+00  -5.566265212060e+00 
1 -2.094859701369e+00   2.987904320049e+01  -1.769670207301e+01 
1 -7.350307878531e+01  -1.720408716388e+01  -3.760184845390e+01 
1  1.142390683649e+01  -3.528563802012e+01   3.132400917000e+01 
1 -7.120092970933e+01  -1.295173197482e+01   4.908599059918e+01 
1  1.803177942266e+01  -4.157939886902e+01   3.221721694873e+01 
1  1.985407579287e+00   2.531395720395e+01   8.022404277951e+01 
8
 Atoms. MD step: 33000
1 -1.923218137573e+01   5.444873025418e+01   3.010264127869e+01 
1 -6.224529773276e+00   2.748549004220e+01  -4.177328222541e-01 
1  1.686070589670e+01  -5.384729392088e+01   2.950743934353e+00 
1  5.046343357775e+01  -1.153423192519e+01  -8.978867954323e+01 
1 -2.196037526199e+01  -1.703405298496e+01   1.097741346316e+00 
1  3.811836315786e+01   1.222093988705e+01   7.500867194050e-02 
1  9.215365111167e+01   4.782335796190e+00  -2.362034435383e+01 
1  4.303969080201e+01   3.844029421913e+01   1.589741728930e+01 
8
 Atoms. MD step: 34000
1 -3.602979547260e+01   3.365830494655e+01   2.971375445138e+01 
1 -1.946448200758e+01   4.891588440734e+00  -9.701717079589e+00 
1 -2.754712941571e+01  -7.710930587160e+01  -3.326868383460e+01 
1  2.104087961717e+01  -1.378074169237e+01  -2.505233670708e+01 
1 -4.637726538546e+01   1.276382171590e+01   6.119278892153e+01 
1  3.219825915292e+01  -4.947050477670e+01  -1.455727837941e+00 
1  2.563613042003e+01   6.035023445556e+01  -4.943140951556e+00 
1  6.597786476988e+01   3.151876156079e+01  -5.050059441232e+01 
8
 Atoms. MD step: 35000
1 -4.263068265395e+01   7.601248344307e+01   4.270898482066e+01 
1  7.133651382248e+01  -3.344156663510e+01   5.482497739750e+01 
1 -1.785257233384e+01   3.763104504605e+01  -2.411651573652e+01 
1  2.724923126822e+01  -2.924790930958e+01  -3.548027090808e+01 
1 -3.087109189824e+01   4.056752299970e+01   3.311790043273e+01 
1 -8.385835219460e+01   2.909035444907e+01   1.766431665389e+01 
1  2.233773656173e+00   2.155938989289e+01  -2.661697889872e+01 
1  1.214445527944e+01   6.624369226908e+01   2.348073946295e+01 
8
 Atoms. MD step: 36000
1  2.659141506037e+01  -2.654834719990e+01  -3.833153039987e+01 
1 -1.793582192296e+01  -3.467506335893e+01   1.839782298049e+01 
1  1.870285991565e+01   3.930327448698e+01  -5.328983128356e+00 
1  1.776180491142e+01   3.381096904821e+01   7.146537218022e+00 
1 -1.431362880651e+01  -3.935592400553e+01   1.246892340384e+01 
1 -2.834526734909e-01   3.781578111580e+01  -1.729176415375e+00 
1 -5.126496514769e+00   2.730798093858e+01  -2.018465417436e+01 
1 -4.349745674746e+01  -7.471127434589e+00  -3.592205408917e+01 
8
 Atoms. MD step: 37000
1  2.329989468935e+00   1.794299988070e+01  -1.124407734293e+01 
1 -3.637999853907e+01   4.998941215972e+00  -3.878172127378e+01 
1 -5.171713382108e+01  -4.785346392751e+01  -1.645738388222e+01 
1  1.421608443420e+01  -3.303494854673e+01  -3.421906827572e+00 
1  1.224473550669e+01   1.614891375005e+01  -1.417030852721e+01 
1  5.358252633349e+01   2.748977144429e+00  -2.953460194257e+01 
1 -4.870734850210e+01  -3.303329900985e+01  -8.062415673637e+00 
1 -2.007375127144e+01   3.935850330249e-01   9.572049051057e+00 
8
 Atoms. MD step: 38000
1  1.108312360549e+01   1.229847903762e+00  -2.586919671460e+01 
1  8.728399584050e+00   2.608052113123e+01   7.501376401249e+00 
1  7.561024787123e+01   1.688793823642e+01  -7.724235565586e+01 
1  2.144920774731e+01   1.866884692326e+01   2.599773155814e+01 
1  2.344417553808e+01  -2.255861270827e+01   3.296667751629e+01 
1  1.343516087985e+01   6.138071319961e+00   1.224926497596e+01 
1 -1.639353648152e+01   1.460628874511e+00  -4.006843730455e+01 
1 -4.908070322539e+01  -4.304272071431e+01   1.651550850943e+01 
8
 Atoms. MD step: 39000
1  8.139590694033e+00  -5.620309058198e+01   2.800581963773e+01 
1  8.715031081618e+00  -6.585563260429e+00   1.685735091843e+01 
1  2.645140886499e+00  -4.494560418869e+01  -7.660058968041e+00 
1  3.612784033253e+01  -3.045048867861e+01   1.716700704958e+01 
1 -2.107852496311e+00   4.289329033185e+01  -6.778948080461e+01 
1  8.720091112395e+00   2.250026099095e+01   3.958359630183e+01 
1 -2.630324551071e+01  -1.890166560644e+01   1.480679791073e+00 
1  5.837306656794e+01  -2.183984369686e+01  -3.962988530787e+01 
8
 Atoms. MD step: 40000
1  1.647023444970e+01  -9.643920850572e+00  -7.539162180071e+00 
1 -7.902736559110e+01  -7.488762161892e+00  -1.000514095768e+01 
1 -2.062699475399e+00   1.820117562930e+01   2.131314846283e+01 
1 -4.093150868125e+01   3.654209358967e+01   3.310639082581e+01 
1 -3.540004925926e+01  -6.098212999495e+01  -6.378425254190e+01 
1 -3.563355894181e+00  -9.221902698133e+00   1.962225893722e+01 
1 -9.721824173144e+00   4.170606845853e+00  -2.189513356767e+01 
1 -3.024114882472e+01   4.345445262238e+01  -4.623125715792e+01 
8
 Atoms. MD step: 41000
1  1.332854532954e+01  -5.785240230223e+01  -1.795964344943e+00 
1  9.346788394983e+00   1.101971707156e+02   1.796734987687e+01 
1 -4.277114537284e+00  -6.444601466013e+00  -1.778414888350e+01 
1  9.374422426099e+00  -1.510967612207e+01  -2.990175036528e+01 
1  8.738013426317e+00  -7.405197486864e+01   7.826888542261e+01 
1  8.761161479066e+01  -1.441097243646e+00   1.869897630570e+01 
1 -6.659100856707e+00   1.347978778841e+01  -4.330761225053e+01 
1 -6.690093911468e+01   1.925174291090e+01  -6.878049926810e+01 
8
 Atoms. MD step: 42000
1  2.810018943841e+00   1.935901105058e+01  -4.663468813302e+01 
1 -9.391355895195e+01  -1.619879049785e+01   3.664894420074e+00 
1 -2.093415373303e+01   2.606895342554e+01  -2.534426418079e+01 
1  2.619021288869e+01  -3.666566622195e+01  -3.886469004691e+00 
1 -3.673192195447e+00  -5.850599678373e+01  -4.319642081138e+00 
1 -2.661418195684e+01   4.285760351623e+01   1.526268465381e+01 
1 -3.892640189762e+01  -8.135257644033e+00   4.958450107856e+01 
1  1.395562703952e+01   2.696131311592e+01  -2.651923045848e+01 
8
 Atoms. MD step: 43000
1 -3.577522899385e+01  -3.109919693175e+01   4.723811324547e+01 
1  1.986500790468e+01   3.753744792118e+01  -8.946034998379e+00 
1 -2.319214352627e+01  -5.515365867339e+00  -1.463076921865e+01 
1 -4.042396256716e+01   4.450940186332e+01   1.951793744333e-01 
1  1.326978519673e+01  -3.428312989872e+01  -2.099321027668e+01 
1  2.041371552256e+00   6.041839302002e+01  -3.712788640119e+01 
1  6.512825425113e+00   9.377021051078e+00  -2.929731214198e+01 
1 -4.292833201637e+01  -2.197742906437e+01  -4.605609812411e+01 
8
 Atoms. MD step: 44000
1  7.255293848868e+00   3.936297060381e-02  -1.693845655435e+01 
1  2.232847601704e+01   2.342796927136e+01   1.088196295534e+00 
1 -3.048261549629e+01  -8.216747883779e+00   4.605157001713e+01 
1 -4.198166476347e+00  -3.252876811352e+01  -2.866420143733e+01 
1 -9.556868132394e-01  -4.595860053956e+01   7.005593318849e+01 
1  1.782637685927e+01  -3.581965251734e+01  -3.636097070510e+01 
1 -5.395556003448e+01   8.714211355461e+00   5.414854459521e+01 
1  4.293703446085e+00   1.316100704929e+01   1.990570601019e+01 
8
 Atoms. MD step: 45000
1  2.857193308999e+01  -5.894282662728e+01   3.126558991528e+01 
1 -4.212481889957e+01   6.912861419041e+01   5.048377296502e+01 
1  5.060540549266e+01   4.136743867358e+00  -1.781537127210e+01 
1  2.671880418899e+01  -2.539532905721e-01   2.885668222039e+01 
1 -7.398660539840e+01   1.573353590225e+00  -5.971887274048e+00 
1  4.208163176610e+00   4.717220288727e+01   1.027626181067e+01 
1  6.519407880446e+00  -7.855695653035e+01   3.568447848203e+01 
1  5.606980405801e+00  -1.158846810193e+01   1.091905910183e+01 
8
 Atoms. MD step: 46000
1 -4.444123704337e+01  -2.969690160030e+00   3.844373925957e+01 
1  3.679167425342e+01   1.639620477798e+00   3.881138898267e+01 
1 -4.513175583609e+01   5.544691886189e+00  -6.592917805451e+00 
1  2.413798804792e+00  -3.412123838378e+01   5.341348533076e+00 
1 -7.193914628623e+00   2.441195852045e+01   1.819976937565e+01 
1  6.138678759234e+01  -1.370686698706e+01  -1.073485630100e+00 
1 -2.420513091446e+00  -7.994935695440e+00   2.167764340433e+01 
1 -2.969446426630e+01   1.006286607869e+01   5.519204383426e+01 
8
 Atoms. MD step: 47000
1 -3.573599399418e+01  -2.097357723103e+01  -2.507997767773e+00 
1 -3.047430682662e+01   1.371181061436e+01   4.067719817234e+00 
1 -8.172686232583e+00  -3.434260476792e+01  -3.612039125762e+01 
1 -9.161181452824e+00   3.339311770527e+01  -6.139444098702e+00 
1 -5.961483630964e+00   6.497682899914e+00  -2.595749449571e+01 
1 -5.656399419903e+01  -1.502534498992e+00   1.035008784303e+02 
1  2.109326415699e+01   3.651550808870e+01  -2.053141268032e+01 
1 -1.096541105084e+01   2.835643802873e+01   4.752256430162e+00 
8
 Atoms. MD step: 48000
1  5.103446427156e+01  -2.404360897814e+01   1.680900539829e+01 
1  7.412274944288e+00   1.223835139127e+01   3.775938235142e+01 
1 -1.240342031947e+01   5.151607817478e+01  -3.348676487805e+01 
1  1.093106500720e+01   4.312370057104e+01   2.471909659032e+01 
1  3.179762761734e+01   8.929253232995e+00   2.436515294383e+01 
1  1.070103098204e+01   5.020072693325e+01   9.129720889776e+00 
1  3.377123554856e+01   3.578848486193e-01  -3.100993238135e+01 
1  5.376518907940e+01   4.417884594134e+00   9.191157677097e+00 
8
 Atoms. MD step: 49000
1 -1.148817344511e+01   1.206361726083e+01   4.740847798394e+01 
1  2.194095455015e+01   5.853607162363e+01  -5.565052896674e+01 
1  3.286245596978e+01   3.289683460950e+01   8.518304416659e+00 
1  1.496689522316e+01   1.782833650492e+01  -2.198471892171e+01 
1  1.817519817286e+01  -6.340492106014e+00  -5.771192534906e+01 
1 -4.189497129547e+01   6.171955855766e+01  -1.001395848049e+02 
1  1.648571649956e+01  -2.775725876479e+01   6.006153675486e+01 
1  7.510769951451e+00  -2.811493422530e+01   8.244611014076e+01 
8
 Atoms. MD step: 50000
1  6.012640221441e+00   3.026946166984e+01  -2.131885918312e+01 
1 -1.552731079829e+01   2.719734505288e+01   1.649631864314e+01 
1  3.469015261671e+01   2.099891984271e+01   1.309366434273e+01 
1 -1.204943722315e+01   9.778524122378e+00   5.146041342315e+01 
1  4.692195994611e+00  -1.529474445185e+00   1.154540469111e+01 
1  1.383321745980e+01  -1.132894842109e+01  -1.876101227958e+01 
1  4.014498642349e+01   1.402331828010e+01  -1.091669332420e+01 
1  1.018005508469e+01  -2.356476818189e+01  -6.531269230937e+01 
8
 Atoms. MD step: 51000
1  1.741836680732e+01   5.305498285694e+01  -6.033058764247e+00 
1 -1.317145197193e+01  -2.985028355027e+01  -4.260840927367e+01 
1 -4.074792963593e+01   2.657794502681e+01  -2.366325487729e+01 
1  1.475630678467e+01  -5.059323719934e+01   7.632465958506e+01 
1 -4.559531736179e+01   2.276388754648e-01  -4.573111757223e+01 
1  6.282455707126e+00   3.009811550738e+01  -2.072787978785e+01 
1 -8.509036474221e+00   1.556807768061e+01  -6.783987392238e+01 
1  1.016137805496e+00  -2.150284330713e+01   3.707442578042e+00 
8
 Atoms. MD step: 52000
1 -2.232916024145e+01  -2.524247227668e+01  -6.591440547146e+00 
1  1.783754155426e+01  -4.868788612321e+01  -2.443330186985e+01 
1  3.751646676862e+01   7.543831412472e+00  -2.484113373819e+01 
1 -1.069001602341e+01  -1.538729846371e+01  -2.292848062627e+00 
1  4.397970803324e+01   4.147151959968e+01  -1.362047136628e+01 
1 -1.799854417645e+01  -1.695870180597e+01  -2.432859214315e+01 
1  3.011309876396e+01  -3.300351418026e+01  -2.513023777917e+00 
1  1.824291269124e+01  -1.762018038667e+00  -3.821769766869e+01 
8
 Atoms. MD step: 53000
1 -2.171623814159e+00   2.157088244639e+01  -4.076676922727e+01 
1 -1.418030557008e+01  -1.132373204619e+01   8.521804312912e+01 
1  7.205863666436e+00  -4.044964465137e+01  -1.254027100847e+01 
1  1.035888479635e+01  -1.295173659033e+01  -4.533330913726e+01 
1  2.146868000155e+01  -1.505108122104e+01   1.599718732828e+01 
1 -2.600201153510e+01   8.881484383044e+00   1.150291635793e+01 
1  2.898831926114e+01  -1.496007372865e+01   7.523484180163e+01 
1 -5.940270466144e+00   2.401027183751e+01  -1.808443246329e+01 
8
 Atoms. MD step: 54000
1  6.306276046442e+00   1.019226268974e+01   6.388587915208e+00 
1  9.691435413281e+00   2.823690484789e+01  -7.420839160412e+01 
1 -1.985258154907e+01  -1.826414661487e+01  -8.467596891365e+00 
1  5.116788896641e+01   2.565596540607e+01  -1.445749459503e+01 
1  3.320387236532e+01  -1.376902807172e+01   3.901378629335e+01 
1  2.724672688899e+01  -8.039929115765e+01  -3.856303028907e+01 
1 -4.229650814759e+01  -2.405114016930e+01   5.790208651830e+00 
1  2.334547659637e+01  -4.947657024707e+00   2.783436806586e+01 
8
 Atoms. MD step: 55000