8
 Atoms. MD step: 0
1 -9.321326070699e+00  -6.620647350791e+01   2.192230498819e+01 
1 -8.248198198250e+00  -1.617199106698e+01  -7.593054286380e+00 
1  2.400492857207e+01   3.392125150928e+01  -5.637948731377e+00 
1  2.126464604586e+01   2.348679313380e+01   6.886595029720e+01 
1  6.973119689275e+00   6.026314038082e+01  -5.613207189903e+01 
1 -4.185591075337e+00   2.039818970777e+01  -4.194277105585e+01 
1 -4.494768800927e+01   3.092602338611e+01  -2.494547172582e+01 
1  6.436472496678e+01  -6.150106059053e+01  -2.602981437612e+01 
8
 Atoms. MD step: 1000
1  2.892197316957e+01  -6.113350648514e+01  -6.799995234115e+00 
1  5.828665893264e+01  -5.974519844361e+01  -1.679320078154e+01 
1 -2.207975303886e+01   4.610985664562e+00  -2.625871489889e+01 
1  3.162071151943e+01   4.047059489095e+01  -1.062663580258e+01 
1  5.635467640483e-01  -8.313335026271e+01   5.758136291819e+00 
1  3.591095191356e+01   9.110704527914e+01   6.603407183900e+01 
1  4.691145197403e+00  -3.003265273175e+01  -3.502324819368e+01 
1  1.129264292038e+01   4.866062614614e+01  -7.622620670948e+01 
8
 Atoms. MD step: 2000
1 -1.377433328818e+00   1.183028251218e+01  -3.111930936363e+01 
1 -2.559459394453e+01   1.395377118057e+01   1.114227711875e+01 
1  3.812396422717e+01   5.834860509557e+01  -2.806032396216e+01 
1 -1.231918114506e+01   1.409431725929e+01   2.000154525671e+01 
1  3.278141238580e+01  -2.263693318221e+01   2.466569252436e+01 
1 -1.433422968807e+01  -2.787232921660e+01   6.189672012530e+00 
1 -9.633255547667e-02  -1.144213441429e+01  -3.724514533076e+01 
1 -4.997521631139e+01   1.253873904997e+01   3.296029656108e+00 
8
 Atoms. MD step: 3000
1 -1.851650676858e+01   4.260559381926e+01   3.582711176764e+01 
1  3.449886437767e+01  -1.236904155959e+00   1.803826137806e+01 
1 -6.049892126644e+01   4.341501274190e+01  -1.665683050351e+01 
1 -2.083323739232e+01   8.448969689402e+00   7.467231001849e+01 
1 -2.105953699432e+01  -1.740067055515e+01   5.196542803330e+01 
1  2.263883010553e+01   8.897293113718e+00   1.712188808254e+01 
1  2.362855850056e+00  -2.959110376115e+01  -2.233815772688e+01 
1  4.618242936779e+01  -2.761139445945e+01  -3.749812757037e+01 
8
 Atoms. MD step: 4000
1  2.386934808862e+00  -1.931057453387e+01   1.850298454371e+01 
1  1.710312875602e+01  -7.821161584329e+00  -1.508171762875e+01 
1  2.693308603478e+01   5.417841618122e+01   8.887176452079e+00 
1 -2.104751082606e+01  -2.672368423779e+01  -2.410982888640e+01 
1 -6.198868022370e+01   3.834845778197e+01   2.662964028387e+01 
1  7.612491698866e+00   1.724832191262e+01   1.603828946883e+01 
1  1.408591354335e+01  -6.155671216976e+01   2.932577526118e+01 
1 -6.913262165196e+01  -1.877621328226e+01   1.817730967519e+01 
8
 Atoms. MD step: 5000
1  5.110774435204e+01  -5.305616417042e+01  -7.621110732896e+00 
1  3.261254680474e+01   1.363479582006e+01  -9.203123991174e+00 
1  8.319066896725e+01   2.469285662983e+01  -6.451886905475e+01 
1  3.777640054280e+01   1.194022174862e+00   1.183327832260e+01 
1  8.680634324149e+00  -3.608264704501e+01  -6.910500234205e+00 
1 -2.514139096930e+01   1.020677904248e+01  -5.258041320735e+01 
1 -2.733619466287e+01  -5.958858568815e+00   5.386354706641e+01 
1 -1.295266045960e+01   9.274428496681e+00  -9.997373341473e+00 
8
 Atoms. MD step: 6000
1 -3.296969561719e+01  -2.552679365560e+01   8.158964278989e+00 
1 -6.572596333935e+00  -7.308330059787e+01   4.904666043698e+01 
1  4.053434622869e+01  -1.456992738159e+01  -2.799293310385e+01 
1  3.954248576266e+01   1.826533310657e+01   1.486871220971e+01 
1  1.208831349097e+01  -5.298568909599e+00  -2.078743735695e+01 
1  6.462374957844e+00   1.731041013682e+01  -1.955372456040e+01 
1  9.904398076389e+01   3.720015609332e+00   2.671823108664e+01 
1  4.472398072582e+00  -4.753780395730e+01  -6.726199080783e+01 
8
 Atoms. MD step: 7000
1  2.381766288400e+01   7.370987524686e+00   1.214649489535e+01 
1 -4.468357554042e+01  -1.688878248168e+01  -5.626301417738e+00 
1  7.543639156341e+00   7.576978096100e+01  -2.245165845063e+01 
1  1.624619710202e+01   1.104507746460e+01  -1.612094426781e+01 
1  5.903290938263e+00  -6.981644638535e+00  -2.215828198385e+01 
1  1.675138861740e+01  -1.386984804949e+01   3.526811546500e+01 
1 -6.143252856731e+01  -7.670945292147e-02   6.751640552307e+00 
1 -3.819702886526e+00  -4.335753971387e+01   1.820738714603e+01 
8
 Atoms. MD step: 8000
1  2.383398212132e+01  -2.339675207948e+00   2.968345710366e+01 
1 -3.742460375003e+01   3.231787830561e+01   4.656703868598e+01 
1  1.207153134402e+01   4.361779610746e+01   6.044059555617e+01 
1 -8.243544938129e+01   2.021672685056e+01   9.210096390415e+00 
1 -1.249313847229e+01  -3.462560466496e+01   4.283141856771e+01 
1 -5.951365397281e+01  -3.632438656568e+01  -2.134254204526e+01 
1 -3.644654899074e-02  -1.407846283240e+01  -4.108120938833e+00 
1  5.775089253791e+01  -9.147014782614e+00  -2.282001186874e+01 
8
 Atoms. MD step: 9000
1 -3.168742732716e+01  -1.907878766750e+01  -3.684544757515e+00 
1 -4.645146428507e+01  -2.084214786231e+01   2.806958896373e+01 
1  1.079783359799e+01  -5.081670680930e+00   3.324349460434e+00 
1 -5.858218369384e+00   2.310060126719e+01   9.211095198364e+01 
1 -1.648015316154e+01  -3.702934868353e+01  -2.731075816766e+01 
1 -3.913943862774e+00  -4.690592044787e+01  -1.484352639391e+01 
1  9.896654709122e+00  -5.643749720436e+01   5.292927892033e+01 
1 -3.951334202912e+01   4.183777318934e+01   8.100910260493e+01 
8
 Atoms. MD step: 10000
1  6.105313917589e+00  -4.319215070291e+01  -5.653115563452e+00 
1  2.909656587638e+01  -1.716383833853e+01   1.417605109234e+01 
1 -7.145151368056e+00  -1.153218105673e+02   4.889800392093e+01 
1 -2.131429473412e+01  -7.028316135664e+00   1.624934415453e+01 
1 -3.957134689551e+01  -3.619956531779e+01  -3.021447368794e+01 
1  2.380327486669e+01  -2.761303826855e+01   3.291502137873e+01 
1 -7.397835891299e+00   1.503821317470e+01  -9.435636250924e+00 
1  1.341434308307e+01   2.305373214284e+01   2.308673858379e+01 
8
 Atoms. MD step: 11000
1 -1.930126444133e+01   1.502749702786e+01  -1.768424130200e+01 
1 -5.304050053700e+01  -4.757402972673e+00   2.531779831732e+01 
1 -7.190313850065e-01  -6.213827816111e+01  -9.841231429670e-01 
1 -6.261592523940e+01   1.747062821798e+01  -3.259154193492e+01 
1 -8.649371644224e+00  -2.162981151419e+01   7.058986774283e+01 
1  3.838512171363e+00   3.623673140524e+01   5.101585401643e+01 
1 -2.415752812520e+01   2.787308283615e+01  -5.870917986563e+00 
1 -3.824450323434e+01  -3.334814810935e+01   2.777003232212e+01 
8
 Atoms. MD step: 12000
1  2.135716461045e+01  -1.472933780836e+01   5.333686915857e-01 
1 -1.526640209738e+01  -1.582992610333e+01   1.233441924945e+01 
1  7.240260304656e+01   4.862693820298e+01   4.174723136809e+01 
1 -1.172508972785e+00  -3.325651751070e+00   2.192671626530e+01 
1  1.746934923898e+01   1.780419306004e+01   4.897166244996e+01 
1 -4.277956831578e+01   2.382488262595e+01   6.797071320826e+01 
1  8.691822226311e+00  -2.269092545808e+01  -4.436406901451e+01 
1  1.228194291099e+01  -2.338695470932e+01   5.277291677475e+01 
8
 Atoms. MD step: 13000
1 -2.579916445318e+01   1.604800950926e+00  -7.861631230168e+00 
1  2.149963040166e+01  -4.580710574147e+01   2.709443888467e+01 
1 -2.136186718411e+01   4.675897663626e+01   3.237907246419e-01 
1  5.090685509326e+00   1.580309795732e+01  -3.098985911755e+01 
1  1.103775628222e+00  -3.735914407644e+01  -6.519529125000e+01 
1 -9.450481425730e-01   2.115710402636e+01   4.069366277204e-01 
1 -4.700586258620e+01  -5.716262196474e+01  -3.297886851857e+00 
1  2.953897454267e+01   2.469610128477e+00   4.708937711457e+01 
8
 Atoms. MD step: 14000
1 -4.060106002401e+00   1.028452672046e+01  -3.747523054359e+01 
1 -3.235280395496e+01   2.857453279726e+01   3.985021683908e+01 
1  2.171116242805e+01   3.915713986901e+01  -4.331192954486e+01 
1 -4.047217453006e+01  -6.803947832499e+00  -7.915556852438e+00 
1  2.544979202176e+01   4.798306655145e+01  -1.838583987712e+01 
1 -4.086791198314e+01  -3.803708145977e+01  -1.808683927129e+01 
1  3.642423101529e+01   7.071127589874e+00   6.679601629574e+01 
1  2.740246475423e+01   6.293645252934e+01   2.064780191294e+01 
8
 Atoms. MD step: 15000
1  4.558237359852e+01  -1.965081245008e+01  -5.609402811257e+01 
1  1.194661616926e+01  -1.528007153055e+01  -1.599319244790e+01 
1  4.156612169688e+01  -1.865541082562e+01  -6.443613531442e+01 
1 -5.734546218602e+01  -4.995598228941e+00   6.097565572978e+00 
1  2.734287169486e+01   6.260447386163e+01  -2.012157473636e+01 
1 -4.723799872903e+00   3.574759745652e+01  -4.746774114163e+01 
1 -1.499590870047e+00  -2.204169448084e+01   7.730072489981e+00 
1  1.576255583823e+01  -7.799022640652e+01  -1.299115343200e+00 
8
 Atoms. MD step: 16000
1 -4.885416946332e+01  -1.579430935493e+01   5.937183304099e+01 
1 -3.627171931445e+00  -2.534397272003e+00   3.770185781279e+01 
1 -1.680756287495e+01   1.089263648134e+01  -1.173993962784e+01 
1 -3.946333490208e+01   5.364157286221e+00  -1.081616464521e+01 
1 -4.040289234857e+01   2.278850443853e+01  -3.544410932445e+01 
1 -6.623403643724e+01   3.054820799103e+00  -8.306474738990e+00 
1 -5.652108799232e+00  -9.972818403976e+00   3.089940539508e+00 
1  2.805645673865e+01  -2.750816047124e+01  -4.557742600801e+01 
8
 Atoms. MD step: 17000
1  2.158690893111e+00   9.559373783008e+01  -4.037294397990e+01 
1  1.162879002719e+01   3.133606448202e+01  -3.684309957142e+01 
1  1.386999539431e+01   3.784319125423e+01  -3.319866652832e+01 
1  2.139513142730e+01  -6.569420768905e+01   4.351547086822e+00 
1 -4.731390905751e+01   3.390986233034e+01   9.074874461555e+00 
1 -1.043654829644e+02   7.387084685940e+01   5.408129889613e+01 
1  1.110317833276e+01  -2.682501312389e+01   5.772981718757e+00 
1  3.742420055955e+01  -3.303924990737e+00   8.525990961270e+00 
8
 Atoms. MD step: 18000
1  1.783865703917e+00   8.393061167115e-01  -7.172770399035e+00 
1  4.137640372190e+01  -2.542781962316e+01   5.650270742432e+00 
1  2.089047586925e+01  -1.026051973464e+01   6.569510095804e+01 
1  2.964597654408e+01  -4.522604369339e+01   3.016413230104e+01 
1 -2.630891660939e+01   1.203946099810e+01   4.344555396314e+01 
1  2.027992711493e+01  -4.943879426155e+01  -3.774037297853e+01 
1 -5.068432541630e+01  -2.368297625283e+01   3.240570662776e+00 
1 -8.855301170527e+01  -1.609359235956e+01  -6.672615644264e+00 
8
 Atoms. MD step: 19000
1 -3.946314231442e+01   3.976154534696e+00  -4.216181467417e+01 
1 -4.199519407049e+01   5.163896840094e+01  -4.173168406158e-01 
1 -4.708727774563e+00   1.680076015045e+00  -1.946458586632e+01 
1  3.213247558875e+01   2.021985390370e+01  -3.207245439126e+00 
1 -3.107813272270e+01   4.868898070265e+01  -2.235535955905e+01 
1  6.056165121789e+01   3.245505515673e+01   5.588607527515e+01 
1 -1.766054577378e+01  -6.665468570997e+01   5.561432214261e+01 
1  4.979843847179e+01  -7.690900672430e+01  -2.824385780548e+01 
8
 Atoms. MD step: 20000
1 -3.722011347402e+01  -4.247286003197e+00  -1.199517790040e+01 
1 -2.783899345176e+01   1.960891230526e+01   4.612864793426e+01 
1  7.343851242313e+00   9.373234166343e+00  -2.468382292792e+01 
1  4.442545165497e+01  -4.276512123796e+01  -1.698373663789e+01 
1  2.687101261508e+00   5.852915494636e+00  -9.142644700331e+01 
1  2.914573391904e+01   1.420306096941e+01  -8.297752448819e+01 
1 -4.327075428866e+01   1.643858207555e+00   1.638147343045e+01 
1 -4.931535026144e+01  -8.035081997236e+00   1.503248081443e+01 
8
 Atoms. MD step: 21000
1  5.969072045767e+01   5.788457957318e+01   9.426848494499e+01 
1  5.428386149171e+00  -3.348884711169e+01   1.914483622421e+00 
1  8.355560074461e+00   1.349222514133e+01   6.137295980362e+01 
1 -3.159913869868e+01   2.711719311406e+00  -2.445509642646e+01 
1  3.688858686034e+00   1.574679106125e+01  -4.465797718321e+01 
1 -6.152299899298e+01  -1.318831246459e+00   4.042711071571e+01 
1 -6.029211343517e+01   5.039328265473e+01  -3.033218502098e+01 
1  2.142858581518e+01   1.938979903776e+01  -6.798402728303e-01 
8
 Atoms. MD step: 22000
1  9.325395692796e+00  -8.549896976373e+00  -4.518953660615e+01 
1  2.909588573163e+01   3.517400148773e+01   6.266904408468e+00 
1  2.521972710736e+01   3.829016644853e+01   2.327526818288e+01 
1  2.106302875154e+01  -4.627979973558e+01  -1.795207697620e+01 
1  3.574448390388e+01   2.789192964299e+01   8.245006852439e+01 
1  5.513552985356e+00   8.884183799562e+00  -1.272115982696e+01 
1 -4.575223497018e+01  -3.202517216279e+01   1.844328428324e+01 
1 -9.444430892841e+00  -6.407717533165e+00   1.409949541998e+01 
8
 Atoms. MD step: 23000
1  3.880264054648e+01   8.457909761336e+00   1.014922019583e+01 
1  9.617854951610e+01   4.043512653703e+01  -3.975389128296e+01 
1 -2.307362363051e+01   1.334900864241e+00  -8.756835094935e+01 
1  2.888174935284e+01  -1.615635103934e+01  -3.629410205891e+01 
1  2.235614388945e+01  -8.142646842044e+00  -2.765096412658e+01 
1  5.278844600144e+01  -9.964424075941e+00   4.519154815250e+01 
1  4.589169942669e+01   1.859638202897e+01  -6.572265644547e+00 
1  2.221778358460e+01  -2.333502743305e+01   3.781369552988e+01 
8
 Atoms. MD step: 24000
1 -5.032431702364e+01   8.699400524883e+00   1.461551030167e+01 
1  9.864979918140e+00   1.224544651100e+01   3.227039742763e+01 
1  8.270340919126e+00   2.465999518463e+00  -6.736632505892e+01 
1 -3.162591961429e+01  -1.863575133157e+01  -3.184596280802e+01 
1  1.314196447355e+01   6.471708933731e+01  -5.396868174386e+00 
1 -2.299607126201e+01   5.039143600130e+01  -2.513211368099e+01 
1  4.116398054766e+01  -3.371942677927e+01   4.246065624742e+01 
1  2.385126447077e+00  -4.342557100712e+01   7.859026992814e+00 
8
 Atoms. MD step: 25000
1  2.182988168086e+01   9.247185503626e+00   8.049582017130e+00 
1 -1.570348647886e+01   7.436416846140e+00   4.384471545897e+01 
1  7.662666753529e+01   3.524621628197e+00  -7.367327269077e+00 
1  8.612269283205e+01   5.663857407028e+01   4.389020733712e+00 
1  2.178795725712e+01  -8.013804270134e+00   3.299694206801e+00 
1  4.041820885563e+01  -4.179696091870e+00  -4.987304555373e+00 
1  4.259880518075e+01  -4.770144389948e+01  -7.243901287263e+01 
1  4.440027510535e+01  -5.556118582310e+01  -2.020698853554e+00 
8
 Atoms. MD step: 26000
1  1.407747155214e+01  -1.399650911170e+01   9.473002343136e+00 
1  3.344093856193e+00   2.561064676788e+01   2.426986198347e+01 
1 -1.108131310171e+01  -3.266462994670e+01  -3.020573457216e+01 
1 -6.653244307530e+01   3.868919851727e+00   2.191326740618e-01 
1  6.223862425281e+01   2.165347833143e+01  -5.151337679398e-01 
1 -3.918257444961e+00   1.454779140319e+01  -2.316849041082e+01 
1 -1.381679659647e+01  -1.793073722042e+01   4.065796955565e+00 
1  1.341650860780e+01   4.371341901677e+01  -9.885600173915e+00 
8
 Atoms. MD step: 27000
1  2.272441700545e+01   3.151301126378e+01  -2.736011500268e+01 
1 -1.261958997090e+01   1.438134154343e+01  -5.536979742144e+01 
1  8.840031618827e+00  -5.423834501976e+01  -4.158865662475e+00 
1 -3.915900716596e+01  -5.911321186336e+00  -1.311068048700e+01 
1  3.000577690219e+01  -6.666322961144e+00  -1.949206023860e+01 
1 -1.501709299820e+01   3.003036934046e+01  -2.268517444976e+01 
1 -7.680920228221e+00   1.642141306534e+01  -4.706302283001e+00 
1  2.650085233850e+01   2.253005880380e+01  -3.716199269255e+01 
8
 Atoms. MD step: 28000
1  3.172867071675e+01  -1.270054997034e+01  -1.463865241718e+01 
1 -2.317445904970e+01   1.480440998396e+01   4.622224527334e+01 
1  1.988271280392e+01   3.094403650584e+01   2.986684878001e+01 
1 -3.044101933255e+01  -1.011687461425e+02   5.671623867187e+00 
1  3.055976303275e+01  -6.114627274388e+01   1.990284401888e+01 
1  5.703109173596e+00  -3.351436797178e+01  -2.278605411384e+01 
1 -2.623848000156e+01  -1.059524740169e+01   9.085640847215e-01 
1 -3.565615665062e+01  -8.720661507278e+01  -2.532320636779e+01 
8
 Atoms. MD step: 29000
1  4.179526061389e+01  -1.101381417624e+01  -5.104323221080e+00 
1  1.422334190998e+00  -1.068589239373e+01  -2.986229872711e+01 
1  2.111456249065e+01   2.136586881971e+01   4.563043287461e+01 
1 -1.078986044736e-02  -1.868509904778e+01   3.580423702348e+01 
1  7.066196535131e+01  -4.541889835366e+01   2.260536172719e+01 
1  3.175588027055e+01  -3.205354495332e+01   5.755506470585e+01 
1  1.697700786964e+01  -3.661724290098e+01  -2.649859287867e+01 
1 -4.350628731587e+01  -7.765979991455e+01   3.329112106309e+01 
8
 Atoms. MD step: 30000
1  3.725866940266e+01   2.321041421140e+01  -4.058882196677e+01 
1 -5.130894461837e-01  -2.331992302945e+01  -1.864227386614e+01 
1 -3.734255897047e+01   3.183901899227e+01   5.190579315762e+01 
1 -5.322586617951e+01   2.247358445429e+01  -7.684997251638e+00 
1  3.084761124928e+00  -2.263167157336e+00  -1.972003421343e+01 
1 -2.037208789004e+01  -5.229305273559e+01   1.773366140163e+01 
1  5.172108885034e+01  -4.235934618276e+00   1.361111614618e+01 
1  3.660221242724e+01  -6.550857208950e+01   2.225298403735e+01 
8
 Atoms. MD step: 31000
1 -2.873660453111e+01   1.291772762730e+01   4.767585954780e+01 
1  2.478472641298e+01  -1.623499129265e+01   5.077295607672e+01 
1  6.060625450285e+00  -6.444110138333e+01   2.274042573896e+01 
1  2.514877787522e+01  -2.745802605598e+00   3.004284651993e+01 
1 -1.051354439562e+00   4.522009482135e+00  -4.716614770960e+01 
1 -8.705760001298e+01  -8.315090054411e+01  -2.113897993842e+01 
1  7.008846343950e-01  -5.827655968542e+01   4.890351073728e+01 
1  3.842079865784e+01  -1.878167454516e+01  -2.601459415025e+01 
8
 Atoms. MD step: 32000
1 -2.824172716520e+01  -3.806558981028e+01   2.875993851740e+01 
1 -6.486014111203e+00  -4.122840766263e+01   1.536585380794e+01 
1 -1.317174836406e+00  -5.004957508148e+00  -3.036097426957e+00 
1 -1.098055016971e+01  -1.522130016785e+01   3.313716935806e+01 
1  9.435605239089e+01   2.092815344433e+01  -9.357174508823e+00 
1 -3.965802187055e+01   1.286812033683e+01   5.440887652309e+01 
1  1.002370609738e+01  -6.432998476989e+01   7.625286485913e+01 
1 -2.253482679600e+01   6.652527525668e+01  -4.101529997570e+01 
8
 Atoms. MD step: 33000
1  1.204950171305e+01   6.150586275064e+01   1.609918912409e+00 
1  3.447546347670e+01  -3.246473124602e+01   7.806631194211e+00 
1 -5.197366268015e+01   2.937386148250e+01   7.183749048706e+00 
1  2.800372261989e+01  -7.698173950676e+00  -3.072960605253e+01 
1 -2.634983339787e+01   3.243918865777e+01  -4.359256621627e+01 
1  3.812009865159e+01  -7.970418646167e+01   2.185186947876e+01 
1  1.378825940917e+01  -4.874572089996e+00   1.146908679691e+01 
1  1.688962633665e+01  -2.435928961794e+01   2.791183228149e+01 
8
 Atoms. MD step: 34000
1 -7.663525204930e+01  -4.370731955947e+01  -5.452099357644e+01 
1  4.443249791970e+00  -2.706064464320e+01  -9.463502631262e+00 
1 -9.614017958441e+00  -2.415967314421e+01   3.769242499738e+01 
1  3.217502714361e+01  -1.338973228932e+01   4.903521080255e+01 
1 -3.986067375191e+01   9.298089434366e+00   1.643987448446e+01 
1  4.673785052800e+01  -1.446406007707e+01  -1.863001138124e+01 
1 -3.154356096214e-01   4.297317955032e+00   3.162137073392e+01 
1  1.587142448468e+01   3.473029624795e+01  -7.023967458346e+01 
8
 Atoms. MD step: 35000
1 -7.404450985152e+00  -2.074462132632e+01   1.650104266879e+01 
1  7.822080314996e+01  -1.904140156032e+01   5.074450743523e+01 
1 -6.892246715963e+00   3.427599910956e+01  -3.323250029080e+00 
1  2.525569551748e+01  -1.577690440168e+00  -9.162849525721e+00 
1 -1.350632829330e+01  -2.347336336155e+01   8.392794246956e+01 
1 -3.348415217160e+01  -3.037051244845e+01  -3.932238085887e+01 
1 -4.195868499798e+01   2.374438108850e+01   2.271280303458e+01 
1  2.187962845836e+01   3.533363806713e+01   4.803239617311e+00 
8
 Atoms. MD step: 36000
1 -4.547210260980e+01  -4.094917989466e+01   1.277597143556e-01 
1 -6.755896376642e+00   7.417920713107e+00   3.568888837180e+01 
1  1.952409791085e+01  -1.471876289029e+01   8.057320876499e+01 
1 -6.105002084601e+01  -2.219467514926e+01  -4.318039390107e-01 
1 -2.667698895935e+01  -4.183528945788e+01  -2.356278497081e+01 
1  4.898884314507e+01   6.893112009137e+01   2.682443255812e+01 
1 -5.877389715651e+01  -5.744846058075e+00  -6.716505868442e+00 
1 -2.056464889563e+01   4.504781000111e+00  -2.406190862014e+01 
8
 Atoms. MD step: 37000
1 -1.603787993453e+01   2.991324447237e+01   4.657803270342e+01 
1 -4.555155290453e+01  -2.794449752334e+01  -9.623651091876e+00 
1 -3.341036539858e+01  -2.935344800766e+01  -6.598621565237e+01 
1 -9.420769899735e+00   9.569013366464e+00  -2.386029542856e+01 
1  5.466145521739e+01  -5.189689546680e+00   3.820051506038e+01 
1 -5.635668746911e-01   2.287603292880e+01  -8.303468482149e+00 
1  4.756765830651e+01   1.059510595625e+01  -3.484334919379e+01 
1 -2.358126250489e+01  -5.013182578799e+01  -4.952603363429e+01 
8
 Atoms. MD step: 38000
1  6.298252234068e+01  -4.220794578134e+01  -5.318595598864e+01 
1  1.245699905230e+01   8.565099703535e-02   7.037311535229e+01 
1  3.427956404951e-01  -4.230175827708e+01  -1.351230728074e+02 
1 -3.294166262619e+01  -8.110465717990e+01  -8.126452872262e+00 
1  2.406386164340e+01   2.030923945640e+01   1.139282614672e+01 
1  2.503377290145e+01  -5.103598410722e+00  -5.874287984676e+00 
1 -6.136429351578e+01  -4.789270012866e+01  -2.256355420059e+01 
1 -5.072429412943e+01  -3.922299402448e+01   2.630170928322e+01 
8
 Atoms. MD step: 39000
1 -3.418758757973e+01   6.110144630086e+01   8.020301570858e+00 
1 -2.472300850734e+01   4.567107565674e+00   6.224602057111e+00 
1 -1.573075811422e+01  -3.521580615301e+00  -1.857855634812e+01 
1  7.526321314359e+00   3.636305558411e+01  -4.664781991377e+01 
1 -9.397304114776e+00   5.718418341259e+01   1.243379772486e+01 
1 -2.885980441393e+01   3.746317622610e+01   2.085066095836e+01 
1 -5.756583864871e+01  -3.562444624251e+01   1.076112273155e+01 
1  4.357838861419e+00  -4.751033648412e+00  -2.206880909718e+01 
8
 Atoms. MD step: 40000
1  8.027493652699e+00   4.462412325140e+01  -2.924663603197e+01 
1 -6.496241621482e+01   1.999254600702e+01  -6.878184907898e+01 
1 -1.956296817413e+01  -1.698205969860e+01   7.026816220142e+00 
1  4.161639489675e+01   2.434241333284e+01  -1.372325559275e+01 
1  4.482126366165e+01  -1.285591480232e+01   3.704052253868e+00 
1 -1.987961852096e+01   5.007545605952e+01  -3.124542039063e+01 
1 -1.237649554225e+01  -8.228875932175e+00  -5.852666932357e+00 
1 -1.934434982588e+00  -1.180067887478e+01  -4.119274204014e+01 
8
 Atoms. MD step: 41000
1  5.913972740106e+00   4.892768896205e+01  -7.636558368063e-01 
1 -1.559216625141e+01   5.919290264985e+01   1.538503872640e+01 
1 -3.747087426382e+01   4.928292716351e+01   3.282015812617e+01 
1  3.243533132953e+01  -5.250422814905e+01   1.894103727194e+01 
1 -1.516318156121e+01  -4.411303993322e+01   2.517152907571e+01 
1  1.088291655542e+01   3.783016873121e+01   4.124337186702e+01 
1 -2.807361207117e+01  -4.020490275326e+01  -7.040127370999e+00 
1 -1.174677780930e+01  -3.125148867116e+01   3.771243859886e+01 
8
 Atoms. MD step: 42000
1 -3.225998458601e+01   3.636935829906e+01   6.003834709671e+00 
1 -3.375311576009e+01   8.080159349872e+00  -1.320668874181e+01 
1 -1.330281746607e+01  -5.643037365593e+00  -3.464827547040e+01 
1  2.268404124225e-01  -1.749592185948e+01   1.252337686243e+00 
1  1.783000717901e+01  -3.143533581506e+01  -2.133627744210e+01 
1  2.344053445551e+01   2.456585418476e+01  -1.985188165697e+01 
1 -1.689772719748e+01   2.086993448681e+01  -9.985513695189e+00 
1 -3.791194933178e+01   1.670863317514e+01  -8.415743961898e+00 
8
 Atoms. MD step: 43000
1 -6.857876942877e+00  -2.220521849316e+01   2.472193836472e+01 
1  2.677069518747e+01   8.945751495607e+00  -4.747413248337e+00 
1  1.574182051386e+01  -1.068589105829e+01   4.529660252983e+00 
1 -3.179435587129e+01   1.826908146930e+01  -5.984383165698e+01 
1  3.628758398536e+01  -9.424616598431e+00  -4.581076039709e+01 
1 -1.592740491142e+01   4.190710750709e+01  -3.437299608612e+01 
1 -5.502889577559e+01  -5.548058442062e+00  -4.677486324594e+01 
1 -1.572816700076e+01  -4.527247610668e+01  -2.579334641244e+01 
8
 Atoms. MD step: 44000
1 -1.014880874071e+01   3.765777407499e+01  -2.621443883344e+01 
1  2.534099552755e+00  -2.785429836823e+01   2.167582798802e+01 
1 -8.429951879080e+00  -5.656317209343e+01  -1.252665630908e+01 
1  2.211110028709e+01   2.340081739681e+01  -4.420026761126e+01 
1  3.716910197975e+01   3.221819968130e+01  -3.842870202766e+01 
1 -5.423487489860e+00  -4.927546354066e+01  -5.199312316039e+01 
1 -4.439296302195e+01  -1.392234536944e+01   2.280924665843e+01 
1 -5.440469654989e+01   9.410232272592e+00  -6.810637825324e+00 
8
 Atoms. MD step: 45000
1  8.985186182074e+00   1.419960706196e+01   4.004310328079e+01 
1 -2.001320446137e+00   5.135420298099e+01   3.226857275502e+01 
1  2.190715416423e+01  -2.117781817511e+01   4.577440549800e+01 
1  1.241246648301e+00   6.247261675665e+01  -1.693657281855e+00 
1 -5.052419173035e+01  -3.300352564396e+01  -5.434589845861e+01 
1 -5.871366238724e+01  -2.871675198505e+01   2.768320396829e+01 
1  2.465205623703e+00  -1.359351518552e+01   1.597031999770e-01 
1  2.458053152890e+00   3.125759595783e+01  -3.331183457177e+01 
8
 Atoms. MD step: 46000
1 -3.768105050875e+01  -2.850731534718e+01   6.908617529692e-01 
1  1.317472529742e+00   6.168946820507e+01  -2.460078428757e+01 
1  2.331781938674e+01   4.457621887217e+01  -4.293666500433e+01 
1 -1.037230084902e+01   1.984107781762e+01   1.431653126029e+01 
1 -3.867036974046e+01  -4.991627477426e+01  -2.181179176602e+01 
1  2.393727544062e+01   1.581331753345e+01  -2.281296303629e+00 
1 -3.511246520257e+01   3.275277605291e+01   2.302626430953e+01 
1 -4.052505979449e+01   5.828856647224e+01   1.035933088644e+01 
8
 Atoms. MD step: 47000
1 -2.279431607442e+01  -7.679973719257e+01  -8.258906645854e+00 
1 -7.673858828999e+01  -4.530995025642e+01   3.478303803978e+00 
1 -4.982668850738e+01  -7.512485553859e-02  -3.727407210813e+01 
1 -3.840774051379e+00  -4.263649251614e+01   1.808983587243e+01 
1 -7.624724732292e+00   2.076683188289e+01  -2.462493881030e+01 
1  6.987585018207e+01  -2.600233318152e+01   9.366835778542e+00 
1  1.783052877532e+01  -2.778185010862e+01   3.240496835270e+01 
1 -1.347908637409e+01   2.474441123705e+01   4.713146687088e+01 
8
 Atoms. MD step: 48000
1 -3.233790661180e+01   2.139718888532e+00  -3.330664316240e+01 
1  5.197779117601e+01   8.005607491391e+01  -2.266770982988e+01 
1  5.285799423883e+01  -6.915664900245e+01   3.982808380539e+01 
1  5.325931051053e+01  -2.380223310851e+01   1.505717480084e+01 
1  1.118666433989e+01  -2.677053413401e+01  -8.182739918659e+00 
1 -1.586602503517e+01  -1.487009805913e+00   1.893007008675e+01 
1  1.126946742387e+01  -4.042704759252e+00  -4.160377259175e-01 
1  6.522980659993e+01  -2.164043318616e+01  -1.350497009726e+01 
8
 Atoms. MD step: 49000
1 -3.930890683876e+01   7.119325547707e+00   5.050064043668e+01 
1 -3.368046495589e+01  -9.503857571961e+00   1.354308293894e+00 
1  2.399710259350e+01   4.043424767773e+01   4.557460955460e+01 
1  3.411878293459e+01  -2.212980135944e+01  -2.112022343293e+01 
1  3.449108337268e+00   4.803560560956e+00   1.449118767086e+00 
1 -3.141909922962e+01   2.131074434475e+01  -1.949249802092e+01 
1  6.457081610329e+01  -3.163166969785e+01  -1.202380511932e+00 
1  4.569579650358e+00   8.536634428560e+00   2.565779423684e+01 
8
 Atoms. MD step: 50000
1 -1.266577068844e+01   9.881360692737e-01  -3.852413654581e+01 
1 -2.422446053038e+01  -2.888578536288e+01  -5.988660605448e+01 
1 -7.755663367568e+00   3.375092027106e+01   3.342021442327e+01 
1  7.077737209855e+00   6.300991103658e+00  -2.043802953794e+01 
1  5.513633580316e+01  -4.458504189777e+00   2.746752952404e+01 
1  4.392489212782e+01   5.547552224139e+00   2.161119611006e+01 
1 -4.881469388444e+01  -4.706506359163e+00   5.018807791053e+00 
1  3.056689190862e+00  -3.051240456255e+01  -2.726512031016e+01 
8
 Atoms. MD step: 51000
1 -2.825280761246e+00   1.511788369794e+01   1.658586940996e+01 
1  2.142292700151e+01   1.923353024246e+00  -3.586638766033e+01 
1  3.812821622495e-01  -1.955010575182e+01  -1.833591953770e+01 
1  1.095724972215e+01   1.035922121224e+01   3.789215913174e+01 
1 -1.474516615697e+01  -2.799025104502e+01   4.628917099129e+01 
1  2.572806950363e+01   3.456758215802e+01  -5.401029529809e+01 
1 -6.511420981866e+01  -3.292728355029e+01  -7.137330054525e+01 
1 -5.895958297835e+01  -2.284727062770e+01   6.045037166557e+01 
8
 Atoms. MD step: 52000
1 -1.014723072834e+01   1.889160054300e+01  -2.436924030900e+01 
1  4.945142330796e+01   1.524971838891e+00  -4.904717430614e+01 
1  1.975954640949e+01   1.540818010403e+01   4.253201848080e+01 
1 -4.195835584904e+01  -6.588662409040e+01   2.496447113029e+01 
1  7.809646482902e+01   6.350793148762e+01   2.740464348483e+01 
1 -4.995391567966e+00   2.072139086962e+01  -4.204103455599e+01 
1  3.112937714958e+01   5.738997894582e+01  -2.323968228785e+01 
1  2.729831962069e+01   2.956925106798e+01  -2.096477967556e+01 
8
 Atoms. MD step: 53000
1 -3.071993162320e+01   1.681376633843e+01  -1.787994179221e+01 
1 -1.050275311752e+01   2.587164233317e+01  -5.111818269772e+01 
1 -1.345193205229e+01  -3.771695300423e+01  -3.827456780609e+01 
1 -1.058061244739e+01   2.170896781441e+01   3.389925504808e+01 
1 -2.220830841323e+01   1.006215828454e+01   1.330811064498e+01 
1 -1.939838147243e+01  -3.691850882869e+00   3.202284061744e+00 
1 -1.138662812255e+01   1.782382409427e+01   3.666412474702e+01 
1 -1.783644293472e+01   2.162236336873e+01  -3.251041253722e+01 
8
 Atoms. MD step: 54000
1  2.186659518225e+01  -2.229053524706e+01   1.449591176586e+01 
1 -3.062828626068e+01  -4.559243284968e+01  -3.960660124867e+00 
1  1.781996244469e+01  -3.192426503375e+01  -7.753968713888e+01 
1  6.316467975347e+00  -3.248595761669e+01   6.017600731290e+01 
1  1.318396072684e+01   1.600388857633e+01  -1.255863527464e+01 
1 -4.703165659392e+01  -1.662277165875e+01   4.435993388131e+01 
1  5.440977225107e+01   1.526235714070e+00  -3.482142312667e+01 
1  4.236295424015e+00  -6.540798007434e+01  -1.968770870321e+01 
8
 Atoms. MD step: 55000