8
 Atoms. Timestep: 0
1 1  6.996693238828e+01   7.469439318030e+01   1.326126063853e+02 
2 1 -1.287408018267e+02  -5.142264762559e+01  -6.605502877963e+01 
3 1  2.212272819704e+02   5.224517838276e+02  -4.933316113084e+02 
4 1 -2.264853518711e+01   3.234507045652e+02  -3.003450626458e+00 
5 1 -3.551410567312e+02   1.756872163687e+02   1.943390465091e+02 
6 1 -1.790506797002e+02   4.296312042446e+02   9.244749381836e+01 
7 1  4.142520312552e+02   7.826418517363e+01   1.229819817333e+02 
8 1  4.523983844474e+02   3.572663025112e+02   1.679448558482e+02 
8
 Atoms. Timestep: 1000
1 1  1.964547287594e+02  -3.397553136097e+02  -2.303182816288e+02 
2 1  4.420242268425e+02  -5.352026082294e+01   3.985344532830e+02 
3 1 -4.415860609358e+02   2.997132002493e+02  -1.111847304308e+02 
4 1  2.343906725247e+02  -1.755322371883e+02   3.823594090921e+02 
5 1  3.786751852788e+01   8.832028126938e+02  -1.068212140670e+02 
6 1 -1.806309330545e+02  -3.028173735242e+02   2.799352867414e+02 
7 1 -2.889050305792e+02   1.645983911283e+01   1.866379222254e+02 
8 1  7.203866537946e+01  -2.057758343691e+02   2.461598107610e+02 
8
 Atoms. Timestep: 2000
1 1  2.724703053699e+02  -8.283738084592e+02   1.640174074840e+02 
2 1  1.809217900927e+02   4.745025570323e+01   4.351014548954e+02 
3 1  4.624390639115e+00  -3.199930174807e+02   4.943961141877e+02 
4 1  2.982787127347e+02   1.364231215478e+02  -9.123710215979e+01 
5 1  5.732342053132e+01  -1.022415628349e+02   1.391124897045e+02 
6 1 -1.057824482898e+02  -1.014514339275e+02   1.626418767266e+02 
7 1  4.510437537217e+02   7.265418363038e+01   9.354869197593e+01 
8 1  2.645074157238e+02   3.005319586312e+02   4.108167324178e+02 
8
 Atoms. Timestep: 3000
1 1  3.259456253399e+02   3.637153863375e+02  -1.364228480821e+02 
2 1 -1.412745905347e+02   7.371817149106e+01  -2.125417019164e+02 
3 1  5.591116191014e+01   2.798306588635e+01   1.810627396175e+02 
4 1  4.879781212907e+02  -3.898518491930e+01  -5.106867136159e+02 
5 1 -1.159227673149e+02  -1.446788124114e+02   3.751179705835e+02 
6 1  3.768075314847e+02  -2.578006894161e+02  -1.873560397631e+02 
7 1 -5.194411560668e+01  -8.090248869558e+01   2.849221012312e+02 
8 1 -6.949317141393e+02   6.848630802575e+02   1.468277653121e+02 
8
 Atoms. Timestep: 4000
1 1  2.318302817688e+02  -6.005740661788e+01   4.242772560104e+02 
2 1  2.659444714566e+01  -2.066126862536e+02  -5.066540666717e+02 
3 1  4.521537067005e+02  -2.798014736763e+02  -6.447795661463e+01 
4 1 -3.980484870899e+01   8.809997282623e+00   7.736938623919e+01 
5 1 -2.776659307408e+02  -7.121473812921e+00  -1.249635927110e+02 
6 1 -5.075570633763e+02  -2.100196072356e+02  -1.259451995918e+02 
7 1 -1.417708982731e+02   2.280372074593e+02   3.850189594065e+02 
8 1 -2.207780697481e+02   9.674586476177e+01  -1.859097661818e+02 
8
 Atoms. Timestep: 5000
1 1 -2.337754476811e+02   4.413308785435e+02   7.775869142331e+01 
2 1 -4.786180242381e+01  -2.844052222035e+02  -5.114195537223e+02 
3 1 -1.541881762050e+02   3.670921405585e+02   2.580450394295e+01 
4 1 -4.130481052098e+01   3.353801780175e+01   1.844276989672e+02 
5 1  9.064167919572e+01   2.419383165229e+02   5.525736550705e+02 
6 1 -1.067292424258e+02   1.404187941500e+02  -3.899584433949e+02 
7 1 -1.769070901579e+02   1.621460294874e+01  -7.186324504618e+01 
8 1 -3.128014885175e+02  -1.168325627633e+02   2.405097369911e+02 
8
 Atoms. Timestep: 6000
1 1 -7.989484400672e+01   6.607190505110e-01  -3.961423802680e+02 
2 1 -7.450568987587e+01   7.566377225146e+01   3.316235127900e+02 
3 1  1.359034348962e+02  -9.250384898500e+01  -1.336063161633e+02 
4 1  4.216016424063e+02  -8.814137212210e+01   1.248950537412e+02 
5 1 -1.293178026912e+02   2.457030363723e+02   2.207317589903e+01 
6 1 -4.832792981995e+01   6.204002853580e+00   7.214393876834e+01 
7 1  2.113849096083e+02   3.627402486228e+02   9.246856045961e+01 
8 1  3.091622961120e+02   1.857474211789e+01   2.996662391150e+02 
8
 Atoms. Timestep: 7000
1 1  1.929714759757e+02  -2.446729806649e+02  -6.926038171508e+01 
2 1 -3.406572846493e+02   2.366856416008e+02   1.304373798541e+02 
3 1  1.523751958854e+02   1.886374776169e+01   2.036026826255e+02 
4 1  9.403151337684e+01  -4.944003311094e+02   1.973825322891e+02 
5 1  2.013584652035e+02  -6.555162704106e+01   1.914454738023e+02 
6 1 -1.380737929023e+02  -1.620048446895e+02   3.605677193543e+02 
7 1  2.806909602473e+02   7.571637912850e+01   1.403288839975e+02 
8 1  3.301337889926e+02  -3.717324413763e+01   1.440310355145e+02 
8
 Atoms. Timestep: 8000
1 1 -3.841469315392e+02   4.224182298276e+01  -8.871101581916e+01 
2 1 -1.716642180736e+02   2.027771766861e+02  -1.222245519079e+02 
3 1  2.182240711382e+02   6.415785600610e+02  -4.626700034455e+01 
4 1  1.168600341167e+02  -2.084799596574e+02   2.914165193168e+02 
5 1  6.899051018459e+02  -3.103492989138e+02   4.990202231017e+01 
6 1 -7.746168200503e+01  -2.161249234237e+01   1.575662298875e+01 
7 1  1.156943802972e+02  -4.789148673261e+02  -2.397877490020e+02 
8 1 -5.090523279287e+02  -3.118886146643e+02   9.940953094234e+01 
8
 Atoms. Timestep: 9000
1 1 -1.745404746370e+02  -1.330836348662e+01   6.303274629136e+01 
2 1  3.421575413962e+01   1.587362376481e+02   1.443925791346e+02 
3 1  3.562948894130e+02  -7.744688862743e+02   3.744438444931e+00 
4 1  2.168745381190e+01   5.593362422745e+02  -3.123743107794e+02 
5 1  4.005404164619e+02  -4.513515530051e+02   5.511511191988e+02 
6 1  6.032772139005e+01   4.986392132671e+02   9.199302836955e+01 
7 1 -1.727353576383e+02  -1.121114083339e+02  -3.684197190033e+02 
8 1  4.716798584763e+02   1.232301414537e+01   5.542085182896e+01 
8
 Atoms. Timestep: 10000
1 1  1.884856138772e+02   1.679444922808e+02  -3.200804159844e+02 
2 1  4.487644380666e+02   4.014977576397e+02   1.468323158605e+02 
3 1 -9.484949048785e+01   1.922695965303e+02  -1.792446193826e+01 
4 1 -2.512249763795e+02   1.677771294234e+02  -3.615210084058e+01 
5 1 -5.381184132569e+01   1.428853848978e+02  -1.971653161858e+02 
6 1  4.118455649622e+02   7.812359797743e+01   9.793537519184e+01 
7 1 -2.538524377271e+02   9.577389581380e+00   1.195127458954e+02 
8 1  3.669339083437e+01  -4.675216402131e+01  -2.665609315948e+02 
8
 Atoms. Timestep: 11000
1 1  5.724531103175e+02  -3.970704488470e+01   2.683603555942e+02 
2 1 -2.826147342188e+02   1.207153213262e+02  -3.244054687062e+02 
3 1  3.470161548125e+01   3.745292440970e+02   1.716315825256e+02 
4 1 -1.385626858740e+02  -1.242157801649e+02  -2.420729728974e+02 
5 1 -6.501734364208e+01   2.362940065897e+02  -1.435160196861e+01 
6 1 -3.073356281498e+01  -6.426949380050e+02   3.867566833175e+02 
7 1 -1.347011340775e+02   9.730739217288e+01  -6.554382344974e+00 
8 1  4.883688384935e+02  -1.089339728943e+02   1.724388354619e+02 
8
 Atoms. Timestep: 12000
1 1 -5.226273130977e+01   2.729700585932e+01   1.742406137353e+01 
2 1 -4.911093503450e+02   2.764083332270e+02  -2.636285205579e+02 
3 1  1.458361872143e+01   2.561598262227e+02   3.866000811553e+01 
4 1 -4.899405063013e+02  -1.405299434940e+02   7.427361082553e+01 
5 1  7.031691620937e+01   3.685654279771e+02   2.949126205691e+02 
6 1 -1.994076724186e+01   1.491085503284e+01   4.678175853901e+02 
7 1  2.694420222907e+02   3.173474958101e+02   4.521756683186e+01 
8 1 -2.421825356629e+02  -4.344130870525e+02   1.581108747183e+02 
8
 Atoms. Timestep: 13000
1 1 -1.647416147378e+02   1.736047766322e+02   3.365730377751e+01 
2 1  3.040684310440e+02   2.373679012063e+01   2.905868072812e+02 
3 1  2.974274640075e+02  -9.576591291461e+01   1.383403253159e+02 
4 1 -1.552139863815e+02   1.662450938510e+02   1.067979699936e+02 
5 1  4.160561443231e+02   2.388283719741e+01  -9.323593455225e+01 
6 1  1.764821943033e+02  -5.089755351294e+01   6.794750188953e+02 
7 1  2.524818401471e+02  -6.871876268475e+02  -2.083259086219e+02 
8 1 -4.841517346925e+01  -3.939101040122e+02   5.771638828548e+01 
8
 Atoms. Timestep: 14000
1 1  1.856934445836e+01   2.038156054505e+02  -1.574334189454e+02 
2 1  2.417322085333e+02   1.118735484893e+02   2.274269574710e+02 
3 1 -1.442275429731e+02  -2.882279491149e+02   2.964589991281e+01 
4 1  1.958441819327e+02   1.619907089118e+02   4.214647195312e+02 
5 1 -2.154549738479e+02   3.657153723433e+02  -3.707154494530e+02 
6 1 -8.633782589156e+01  -6.246409374104e+01   3.074752824788e+02 
7 1  1.140643161722e+02   3.381379789162e+02   1.285765494398e+02 
8 1 -4.823563120873e+02   4.679159495332e+02  -5.473054899615e+01 
8
 Atoms. Timestep: 15000
1 1 -1.699447476864e+02   2.010515620065e+02   1.340147924417e+02 
2 1 -1.496120211987e+01   3.186764578965e+01  -3.996266884408e+02 
3 1 -5.377998491324e+02   2.258141365778e+02  -7.452435537278e+01 
4 1  2.447988253240e+02   1.194663468469e+02   2.060403585488e+01 
5 1  1.880736696489e+02  -2.907113584685e+02  -4.349949303239e+01 
6 1  1.384496144499e+01  -3.126184529730e+01  -1.213718370959e+02 
7 1 -3.992890695875e+02   9.344062441154e+01  -4.059394792964e+01 
8 1  1.605787770818e+02   1.450022991632e+02  -5.415785234717e+01 
8
 Atoms. Timestep: 16000
1 1 -6.812295136172e+01   1.124464771884e+02  -2.651819459060e+02 
2 1 -9.769685221933e+01   2.194082163536e+01   3.074065271148e+02 
3 1 -2.274949046906e+02  -2.936698165965e+02   2.685945137485e+02 
4 1 -3.240905175827e+02   4.108876097247e+02   1.681288074729e+02 
5 1 -7.371953826020e+01  -3.076570353106e+02  -4.112165971100e+01 
6 1  4.301432616893e+02  -5.274864243203e+01  -3.902812918594e+00 
7 1 -3.609151530458e+02   1.393474560647e+02  -2.359994847849e+02 
8 1 -6.119908730343e+02   3.578315754374e+01  -7.073484882624e+01 
8
 Atoms. Timestep: 17000
1 1 -8.972142497114e+00   1.520210628489e+02   2.225049389359e+02 
2 1  1.096362995213e+02   2.950863547158e+01  -1.035471771022e+02 
3 1 -2.073981277152e+02  -5.533951861817e+02   2.972914385776e+02 
4 1 -2.083553320814e+02   3.374844199286e+02   1.796554860293e+02 
5 1 -2.313043521673e+02   4.743624317474e+01   8.569042817718e+01 
6 1  2.420111734697e+02  -2.058840718130e+01  -8.277816884759e+01 
7 1 -4.295155814673e+02   5.157089516528e+02  -5.066473688001e+01 
8 1  4.633479750958e+01  -3.949902938839e+02  -1.306615323680e+02 
8
 Atoms. Timestep: 18000
1 1 -1.854507435646e+02   1.341214002269e+02   2.910029020365e+02 
2 1 -1.465062539807e+02  -2.183677451095e+01  -1.889777995986e+02 
3 1 -1.858832556489e+02  -6.351837894404e+01   2.638482121898e+02 
4 1 -1.874122898613e+01  -9.167311252363e+01   3.906951816629e+01 
5 1 -4.057267421193e+01   1.489570811527e+02  -2.864352615267e+02 
6 1  2.463864075541e+02  -1.906533090929e+02  -6.614996634571e+01 
7 1 -2.446175207821e+02  -4.493968547817e+02  -1.212584710635e+02 
8 1  9.819829164041e+01  -1.147501940111e+02  -3.646728987452e+01 
8
 Atoms. Timestep: 19000
1 1 -1.819473843295e+02  -2.256546550737e+02   1.460367843878e+01 
2 1  2.866195106584e+02  -1.502015894598e+02   4.048248728521e+02 
3 1 -3.793257740066e+02  -1.345450320103e+01  -1.316905440096e+02 
4 1  1.672635601284e+02   1.614016644862e+02  -3.126660024544e+01 
5 1 -9.849432432806e+00   2.488466104356e+02  -1.269442526116e+02 
6 1 -2.489522790539e+02  -7.044697838397e+01   3.416004481430e+02 
7 1 -8.030813904493e+02  -1.404893407805e+02   1.357791972038e+02 
8 1 -1.173885792937e+02  -1.622817101937e+02  -1.233397339460e+01 
8
 Atoms. Timestep: 20000
1 1  3.881120918706e+02  -8.597725145391e+01   1.229365420156e+01 
2 1  2.144101978040e+02  -4.864180340402e+02   4.646936052519e+02 
3 1  2.779294412541e+02  -1.413107402346e+02  -3.276299179177e+02 
4 1 -3.204616259613e+02  -7.632857525623e+01  -3.854975872474e+02 
5 1  4.849323929428e+02  -2.784446621029e+02  -4.648295151158e+02 
6 1  6.964995346396e+01  -2.184857863789e+02  -8.366921473275e+01 
7 1 -2.417337248646e+02  -2.644856944178e+02   7.087927446680e+02 
8 1 -6.537201719467e+01  -2.778322538365e+02  -2.996772110178e+02 
8
 Atoms. Timestep: 21000
1 1 -2.796629330989e+02   4.468747835373e+01  -1.703061144085e+02 
2 1  2.111150858598e+02   3.104280984474e+02  -8.909155969056e+01 
3 1  1.396002266544e+02   4.350646555802e+02  -7.454449569600e+01 
4 1  3.747043341734e+02   1.481125896002e+02   2.230641241358e+02 
5 1 -1.252644549152e+01  -2.355006863462e+02  -9.854620928458e+01 
6 1  5.370915756209e+02   9.715649425158e+01   2.819421856259e+02 
7 1 -2.108109662430e+02  -1.021106525510e+01  -8.853036465194e+01 
8 1  9.674199814693e+02  -7.808764100997e+02   1.144146616786e+02 
8
 Atoms. Timestep: 22000
1 1 -1.845476558353e+02  -7.580296264758e+01  -1.029513536749e+02 
2 1  3.997892577476e+01  -8.250488390955e+00   4.018849532474e+02 
3 1 -4.253878034697e+02   2.992636979009e+02  -1.127334330691e+02 
4 1 -7.132210655085e+01  -5.162035917459e-01  -1.721794541675e+02 
5 1  1.923872300840e+02  -2.545403200913e+01  -3.612046971194e+02 
6 1  6.060164883521e+00  -2.729451426310e+02   2.596757524158e+02 
7 1 -1.977965552963e+02   4.901951650994e+02  -7.403987107260e+01 
8 1  6.087930687802e+00  -3.885499432581e+02  -2.383368142645e+02 
8
 Atoms. Timestep: 23000
1 1 -2.811078433160e+02   2.637076537399e+02   1.127166158461e+02 
2 1  3.506548665669e+02   3.266537503281e+02   5.400738328358e+01 
3 1 -5.963989429395e+02   1.449008944573e+02  -3.785105120727e+02 
4 1  4.260176671530e+00   9.203361981240e+01  -2.279500227990e+01 
5 1  9.331462885230e+01  -1.709922708717e+02  -6.549660221486e+01 
6 1  1.398225441863e+02   1.543748091804e+02   8.752519920245e+01 
7 1  3.810197999858e+02  -1.546280683050e+02   2.569344254162e+02 
8 1  2.557871126134e+02   2.626659710931e+02   1.977482493091e+02 
8
 Atoms. Timestep: 24000
1 1  3.577164611874e+02  -1.435685475816e+02  -1.077812670458e+02 
2 1 -6.779898842845e+01  -5.304386695125e+00  -2.894602587387e+02 
3 1 -1.639934342151e+02  -1.063622313109e+02   1.362062296694e+02 
4 1  1.512921585334e+02   2.253493656178e+02  -1.117989847725e+02 
5 1  3.943222325751e+02  -8.088950479153e+01  -2.270372342317e+02 
6 1  1.535667427943e+02  -1.321764079674e+02   2.956207412084e+02 
7 1 -3.067618529429e+02  -1.048485943228e+02   6.454479007400e+01 
8 1 -7.850227899978e+01   3.513163718185e+02  -1.605766057540e+02 
8
 Atoms. Timestep: 25000
1 1  5.082626709928e+01   2.099032457218e+02  -8.405283991455e+01 
2 1  8.916879359575e+01  -1.095812749583e+02   3.708763611345e+02 
3 1  2.135390578666e+01   2.285172894383e+02  -2.712289358633e+01 
4 1 -5.072772745054e+01  -2.106701555521e+02   2.252865664137e+02 
5 1 -6.082473575597e+02   4.942118128521e+01   1.471980942660e+02 
6 1 -3.276080172293e+02  -3.455329280305e+02  -4.861795687007e+02 
7 1 -9.724137279075e+01  -3.461356058473e+01  -1.347169388195e+02 
8 1  6.618259275859e+02   1.709209934556e+00  -6.319806740586e+01 
8
 Atoms. Timestep: 26000
1 1  3.803659433368e+01  -1.199146719928e+02   2.835593137126e+02 
2 1  2.289972989774e+01  -5.510346410667e+01  -1.992598758179e+02 
3 1  5.478866562546e+02   1.294028046610e+02   4.004316482214e+02 
4 1 -4.429741922128e+01   2.404495455625e+02  -7.345450131988e+01 
5 1 -4.892846060294e+02   1.814986333481e+02   4.224369282975e+01 
6 1 -5.271430307052e+01   1.552815950563e+02   2.800997330614e+01 
7 1  2.026748286636e+01   1.032169377033e+01   5.295955405700e+02 
8 1  1.686556683753e+02   5.112850816826e+01   1.070801398114e+02 
8
 Atoms. Timestep: 27000
1 1 -2.186068032667e+02   1.835344203212e+02   4.319108161668e+01 
2 1  2.425639044875e+01   3.520172957920e+02  -5.086405870879e+02 
3 1  2.439938097673e+01  -1.360178059447e+02   3.361613346007e+02 
4 1  1.355725384333e+02   2.720726083393e+02   4.427744738215e+02 
5 1 -3.374203422555e+00   2.838268873537e+01   2.866758201793e+02 
6 1  5.807488518854e+01   2.314142766787e+02   2.338088860901e+02 
7 1 -3.953796528805e+01   1.737799112615e+02   7.258653532298e+01 
8 1  1.198622265132e+01  -3.823977443518e+02   4.617626626795e+01 
8
 Atoms. Timestep: 28000
1 1 -4.708636975138e-01   1.064367703732e+02  -2.386303876197e+02 
2 1  5.422865473138e+02   2.702965867621e+02  -2.814942856065e+02 
3 1  1.008493367850e+02  -3.745408402073e+01  -1.934166372838e+02 
4 1  9.400593205201e+01   5.988094767842e+02   1.905678041546e+02 
5 1 -1.959242878218e+02   5.136839338810e+01  -4.544627287756e+02 
6 1  1.486495903631e+02   1.028628655442e+02  -1.079282600174e+02 
7 1  4.453389555788e+02  -2.050884616960e+02  -9.736513551037e+01 
8 1 -3.066188929297e+02   2.708195163511e+02  -1.933510164407e+02 
8
 Atoms. Timestep: 29000
1 1  2.329185519778e+02   2.432648754645e+02   4.912380879975e+00 
2 1  2.438151146261e+02  -6.704426788423e+02  -1.994017883584e+02 
3 1  1.287788944593e+00  -6.595505707884e+01  -1.111894025929e+02 
4 1 -1.244288845373e+01   1.018781923092e+02   4.343477461574e+01 
5 1  1.421656238933e+02  -4.307481353727e+02  -1.838170225588e+02 
6 1 -2.464652622272e+02  -3.589384232752e+02   2.338171195264e+02 
7 1  1.800023484216e+01  -5.436076381237e+02   2.052143417695e+02 
8 1  1.794511995451e+02  -4.195227177591e+02   9.315919700467e+01 
8
 Atoms. Timestep: 30000
1 1 -5.341666025103e+01  -3.787455860032e+02   3.604289296392e+02 
2 1  5.195121136854e+01   2.326203127701e+01  -2.367080941076e+02 
3 1 -6.902997309993e+01  -3.050817029414e+02   5.270058351862e+02 
4 1  1.258282128074e+02  -6.839626111171e+01  -3.611493347315e+02 
5 1 -2.787253702019e+01  -5.324284761274e+01   1.245820954642e+02 
6 1  3.127415563809e+02   4.437873771639e+02  -3.150498311116e+02 
7 1 -5.399756579825e+02   3.452023237316e+02   7.404276600545e+02 
8 1 -2.479087302147e+02   1.125277105838e+02  -4.011400676972e+02 
8
 Atoms. Timestep: 31000
1 1  6.802135597227e+01   1.016545661765e+02   3.513961793287e+02 
2 1 -2.097729898768e+02   1.800423442224e+02   1.279431481540e+01 
3 1 -2.411725832957e+02  -2.862376335078e+02  -1.724741383550e+02 
4 1 -1.186567781585e+02  -3.079680070591e+02   1.513225673609e+02 
5 1 -3.619268527931e+01   2.153836376554e+02  -1.995277183281e+02 
6 1  3.717227839781e+02   5.517543552542e+02   1.859026725250e+02 
7 1  2.131442939648e+02   1.325102149080e+02   3.015969450129e+00 
8 1  1.515350694677e+01  -2.143478996443e+02   1.860654708174e+02 
8
 Atoms. Timestep: 32000
1 1 -9.794706639125e+01  -3.240864821180e+02   1.351066248878e+02 
2 1 -4.063431085154e+02   1.695654120620e+02  -1.291894820523e+02 
3 1 -1.321769792667e+02  -4.077026955133e+02  -5.346003718818e+01 
4 1  1.696186675037e+02  -3.277534455532e+01   4.633315550639e+01 
5 1 -4.020134616195e+02   8.301095862675e+00   6.471237021227e+01 
6 1  5.951941499303e+01   4.745674637199e+00   4.535715670962e+02 
7 1  9.006940694903e+01  -5.157327975701e+02  -4.320761172292e+02 
8 1  1.164631979024e+02   3.591767054228e+01   1.410184755625e+02 
8
 Atoms. Timestep: 33000
1 1 -2.948187332768e+02  -2.377941368276e+01  -2.196502198043e+02 
2 1  2.097887294481e+02  -4.411350213204e+02   1.366330236790e+02 
3 1 -1.038735407894e+02   1.008176914730e+01  -3.472310142513e+02 
4 1  4.456237860970e+02  -1.743288637809e+02  -3.506103759932e+02 
5 1 -2.687173747071e+02   1.098705135597e+02  -1.887502661656e+02 
6 1 -1.065430037522e+02  -2.551815139407e+02  -4.790108350067e+01 
7 1 -8.108105683551e+01   3.298236810500e+02   1.149708902214e+02 
8 1 -1.595703743094e+02  -2.652383812784e+02   2.433928048303e+02 
8
 Atoms. Timestep: 34000
1 1  5.258759319602e+02  -1.926895506472e+02   1.985467798875e+01 
2 1 -1.057687332014e+02  -3.774996746392e+02   2.868689644493e+02 
3 1 -1.098501098110e+02   1.731860192214e+01   5.246433396956e+02 
4 1  2.089734341334e+02   2.144976025532e+02   2.555734633194e+02 
5 1 -7.819157089800e+00   1.288084624854e+02   1.422431309783e+02 
6 1  3.794414441963e+02  -5.309839586868e+01   1.939094083342e+02 
7 1 -1.272314426345e+01  -1.971497298386e+02   3.120401292804e+02 
8 1 -3.247885216903e+02  -5.842758966606e+02   2.109885397744e+02 
8
 Atoms. Timestep: 35000
1 1  1.754108329766e+02   1.513981145941e+02  -3.811965490716e+02 
2 1  3.064534210748e+02  -1.455764605383e+02  -3.696194953374e+02 
3 1 -5.615849529450e+01  -1.547618467179e+02  -2.324280480674e+02 
4 1 -2.832908774036e+02   4.256043547487e+02   6.872167889582e+01 
5 1 -4.119542124139e+02   1.002951033643e+02   1.329509511646e+02 
6 1 -4.401775951847e+02   6.150063513416e+01  -2.088891910540e+02 
7 1  2.728787769331e+02  -3.033914332072e+01  -3.642360578835e+02 
8 1  9.147008798543e+01   6.041942507946e+01   5.871416328956e+01 
8
 Atoms. Timestep: 36000
1 1 -1.501014875382e+00  -1.574626284554e+02   3.783473912098e+02 
2 1  1.932291143612e+02  -2.453493010265e+02   1.414576469900e+02 
3 1 -4.521957681877e+02   6.763028214874e+02  -3.195248469431e+02 
4 1  3.208837118077e+02   5.717167883731e+02  -3.340395899250e+02 
5 1  5.585149245315e+02   1.644589209280e+02   1.126337565667e+02 
6 1  5.944951261948e+02   4.190490998768e+02   5.094651264649e+02 
7 1  4.364352524560e+02   1.295273869645e+02  -1.179345601069e+02 
8 1 -4.445981329119e+02   2.515818914910e+02   3.193867160452e+02 
8
 Atoms. Timestep: 37000
1 1  3.432954573394e+02  -1.149505491252e+02   2.114088677465e+02 
2 1 -7.364424400689e+01   1.448438457820e+02   6.407776779546e+02 
3 1 -4.285310245607e+02  -1.109382005902e+02   1.964042783898e+02 
4 1  1.850276765163e+02   2.284508095979e+02   6.775984871969e+01 
5 1  8.881648151202e+02   2.901166284505e+02   2.794360195990e+01 
6 1  3.441070954968e+01  -8.586924418120e+01   3.802839373778e+02 
7 1  1.487514269247e+02   7.606164437564e+01  -7.332314637044e+02 
8 1 -3.155811468179e+01   1.134324483135e+02   2.193300178939e+02 
8
 Atoms. Timestep: 38000
1 1 -3.091829264261e+02   3.661629021449e+01  -1.257721644070e+02 
2 1  2.443295257579e+01   9.334580766828e+01   2.421975334339e+01 
3 1 -1.387031296193e+02  -5.050307455720e+02   1.838781384851e+02 
4 1  1.202982563157e+02   7.317691054241e+01  -1.108544817765e+02 
5 1  7.726829522085e+01  -1.854888748254e+02  -9.633338268913e+01 
6 1 -1.507710835151e+02   2.243347765915e+02  -7.629609281565e+01 
7 1  2.282170031657e+02  -1.514808543483e+02   2.167854050714e+02 
8 1 -2.403217189108e+02   4.551347150646e+02   2.149033970131e+02 
8
 Atoms. Timestep: 39000
1 1  9.046243157292e+01  -5.364764369413e+02  -2.735198436141e+02 
2 1  1.991556509890e+01  -4.733339678621e+02   2.336268619581e+02 
3 1 -2.683717736740e+02   6.511739234054e+01   2.580704962136e+02 
4 1  5.190791994406e+02   5.589271302780e+02   2.456257982881e+02 
5 1  1.784448900068e+02   5.092923443874e+02   2.350811772855e+02 
6 1 -9.737763655008e+01  -1.591017249008e+02  -2.445246654939e+02 
7 1  1.191934547018e+02   2.404500875508e+02  -1.818718056768e+02 
8 1  1.451904999795e+02   2.663939921093e+01  -2.377651884822e+01 
8
 Atoms. Timestep: 40000
1 1  2.474574840573e+02  -1.265437856057e+02   3.289471921076e+01 
2 1 -1.684280747295e+02   1.413440187250e+02   1.285673478546e+02 
3 1 -7.574936526536e+01   2.727333059959e+02  -1.226390008030e+02 
4 1  2.513725883145e+00  -2.159382937293e+02   7.437545417931e+01 
5 1 -7.261346438665e+01  -3.977109608319e+02   6.035635144338e+02 
6 1  3.415281175589e+02  -1.299251682361e+02   3.862883796524e+02 
7 1 -3.706895748823e+02  -4.199665221092e+02   1.344298938834e+02 
8 1 -2.369074054591e+02   5.575687826778e+01  -1.532998062057e+02 
8
 Atoms. Timestep: 41000
1 1 -3.760938162255e+02   2.824981269105e+02  -4.330968351004e+00 
2 1  3.005274973129e+02  -8.785289214181e+01  -9.619315153960e+01 
3 1  2.383652630518e+02   1.717851510783e+02  -2.764756512393e+02 
4 1 -2.032252596188e+02   4.301363219977e+02  -9.183423510747e+01 
5 1  6.133234843950e+01  -2.612935794448e+01  -5.724080236106e+02 
6 1  4.565199998140e+02   2.609165102460e+01   8.739008413482e+01 
7 1  2.233446489713e+02  -1.851116489363e+02   5.214428303427e+02 
8 1  6.757156174980e+01  -1.592791226968e+02   2.492692262759e+02 
8
 Atoms. Timestep: 42000
1 1 -1.907549557974e+02  -7.431460594497e+01   2.037441711866e+02 
2 1 -3.737864352206e+01  -1.432373402634e+02  -1.071027606194e+02 
3 1  2.323852037014e+02   1.364720990535e+02  -6.097337048205e+01 
4 1  2.793781345387e+02   4.568678140871e+02  -1.372461656457e+01 
5 1 -1.957289115651e+02  -2.324081011390e+02   3.624911260156e+01 
6 1  1.889500816515e+02   2.828604437034e+02   1.289850714440e+02 
7 1  1.125608566511e+02   3.022165702675e+02   2.151786909995e+02 
8 1 -3.340118447932e+01   1.894410220247e+01  -9.174315437965e+01 
8
 Atoms. Timestep: 43000
1 1  2.746811160067e+02  -1.966331118740e+02   3.208351168662e+02 
2 1 -5.352452530724e+01  -1.445790923345e+02   6.089573912468e+02 
3 1 -3.429539306297e+02   1.703455900063e+02   3.345626654854e+02 
4 1  3.329626809775e+01   1.791725781132e+02  -6.386271042277e+01 
5 1 -4.283565534816e+02   1.935983474387e+02  -1.446620679698e+02 
6 1  1.824271642131e+02  -1.544525911173e+02   8.878021023596e+01 
7 1 -8.798415239646e+01   2.608865359652e+02   1.056542292303e+02 
8 1  5.377505953926e+01  -2.560505698991e+02   2.239242100107e+02 
8
 Atoms. Timestep: 44000
1 1 -1.642461342131e+02   5.034427977606e+00   1.853754971793e+02 
2 1 -2.633783253403e+02  -1.717230876501e+02   7.051697062335e+01 
3 1  2.810771618228e+02   1.063333872726e+02   9.762231347587e+01 
4 1 -3.107331584213e+02  -2.864065261767e+02  -2.929448674562e+02 
5 1 -1.966620061755e+02   3.959079694778e+02   7.135662162550e+01 
6 1  2.360530468193e+02   1.766306821739e+02  -2.019426622229e+02 
7 1 -2.050782279739e+02  -3.203040194240e+01  -9.184451086026e+01 
8 1  4.468808350072e+01  -3.922540535072e+02   1.287302686676e+02 
8
 Atoms. Timestep: 45000
1 1  2.350067948224e+02   5.670250995429e+01   1.447962208276e+02 
2 1 -4.672238160533e+02  -3.180493960966e+01  -6.472105314063e+01 
3 1 -1.737032425892e+02  -2.867582894775e+00  -4.121156548249e+02 
4 1  1.152250938361e+02   3.314813080761e+02   1.433158874590e+02 
5 1 -1.725965820856e+02   6.432138948277e+02   1.074508824255e+02 
6 1  5.221766466559e+01  -1.532717511175e+00  -2.818399676833e+02 
7 1  3.535226328212e+02  -9.104896912658e+01  -1.483757192856e+01 
8 1 -2.535532983721e+01  -4.943050840091e+02  -5.207672111813e+02 
8
 Atoms. Timestep: 46000
1 1 -1.488176280361e+02   2.734325322092e+00  -2.273908297461e+02 
2 1  5.828236018716e+01   3.610022992331e+02   3.625355284593e+02 
3 1 -1.404959035356e+02   6.808543994191e+02  -4.070944695869e+00 
4 1  1.241882840559e+02   2.786853340331e+02  -2.502162660312e+02 
5 1 -6.103932965708e+02  -2.370106437733e+02  -2.413353772536e+02 
6 1 -1.568769667025e+02  -1.870827409267e+02   3.187206215956e+02 
7 1 -6.381860008779e+02   6.503775046205e+01   1.917905192861e+02 
8 1  2.471061878372e+02  -2.015214813387e+02  -1.787795916786e+01 
8
 Atoms. Timestep: 47000
1 1 -8.299042561928e+01  -6.652190084781e+00  -3.984686424858e+02 
2 1 -1.584655835371e+02  -1.194831098150e+02   2.382928921073e+01 
3 1 -3.933619053543e+00   2.721689538104e+02   1.288505687253e+02 
4 1  1.131351661446e+02   3.061378746507e+00  -4.481047369768e+01 
5 1 -4.168408752807e+01   5.058199313091e+02   5.486021710640e+02 
6 1  3.881831806399e+02   2.285925160945e+02  -5.880539445351e+02 
7 1  2.844379994509e+02   7.675685851953e+01   8.385818350466e+01 
8 1  3.004576698494e+01   4.869498764635e+01  -9.566515166785e+01 
8
 Atoms. Timestep: 48000
1 1 -7.181430745761e+01   4.287418895395e+02   4.359942785349e+01 
2 1  1.284408741875e+02  -2.505323337909e+02  -8.448611836868e+01 
3 1  2.289301420482e+02  -1.982343442863e+02  -1.203024512479e+02 
4 1 -1.291329156992e+02  -5.071417793866e+02  -4.413527089162e+02 
5 1  4.972576867633e+02  -2.436649006736e+02   3.989436346827e+02 
6 1 -3.275854553869e+02   8.914847706059e+00   1.028903114895e+02 
7 1 -1.332908055060e+02  -5.051717113608e+02   5.938079535335e+02 
8 1  2.259163745121e+02  -7.133429892712e+01  -1.896969002214e+02 
8
 Atoms. Timestep: 49000
1 1  2.105259608451e+02  -7.266110642293e+00  -1.287182966204e+02 
2 1 -1.779454465302e+02   1.101361652727e+02  -8.050863141719e+02 
3 1  1.429514458000e+02   1.706733691084e+02  -1.492875036972e+02 
4 1  3.607991410527e+02   2.447626257759e+02   3.756015532971e+01 
5 1  3.044406556878e+01  -4.999848728705e+01   2.834532160348e+02 
6 1 -2.342894146356e+02   9.280619353469e+01   6.656637870183e+01 
7 1  5.443155864591e+02   1.020736217412e+02  -8.929784288171e+01 
8 1  6.501637775320e+01   6.797674011641e+01   1.614118775439e+02 
8
 Atoms. Timestep: 50000
1 1  2.842489197850e+02   1.736361983246e+02  -7.924184585052e+01 
2 1  2.381205200020e+02  -2.759223071171e+01   2.957915248556e+02 
3 1  2.641191370876e+02  -1.077223758657e+02  -3.228050761590e+01 
4 1 -2.665448777484e+02  -8.168037013714e+01   2.266713382463e+01 
5 1  7.220698583622e+02   4.402096164974e+02  -1.881529727961e+02 
6 1 -3.670141794485e+01   2.009837837906e+02   5.326038998732e+02 
7 1  4.067987375128e+02  -6.604995137878e+01  -2.855690372296e+02 
8 1 -5.377881533005e+02  -6.892235205245e+01  -1.659141004867e+02 
8
 Atoms. Timestep: 51000
1 1  1.744013598747e+02  -4.346174038562e+02  -5.687750874184e+02 
2 1 -1.486909137376e+02  -3.321760703585e+02  -3.695362360820e+02 
3 1 -1.841787854091e+02  -1.540877299632e+02  -1.459371140492e+02 
4 1  6.337281271919e+01  -1.788889474820e+02   5.702217091136e+01 
5 1 -4.590336535179e+02  -4.153669964398e+01  -2.514833254811e+01 
6 1 -3.317682039420e+02   2.904207996422e+02  -1.217289178064e+02 
7 1  2.906389056812e+02   3.962936037419e+02  -5.210422385844e+02 
8 1  2.703815028768e+02  -1.561253925057e+02   9.903112057733e+01 
8
 Atoms. Timestep: 52000
1 1 -2.079321782749e+02  -5.005678707579e+01  -1.482073281327e+02 
2 1  3.113442886999e+02   2.764106117827e+02   1.638140115587e+02 
3 1 -4.429844434767e+01  -1.858652416533e+02  -2.734179878164e+02 
4 1 -1.948207341837e+02  -4.780438546108e+00  -7.006068687728e+02 
5 1  1.035572491098e+02  -2.393417653443e+02   4.797671106305e+02 
6 1  3.375813090647e+02  -2.780008944982e+02  -2.989929791512e+02 
7 1 -1.174302337544e+02   7.108144128218e+00  -2.811138098056e+02 
8 1 -1.496492790518e+02  -4.001111774096e+02  -1.645216965374e+02 
8
 Atoms. Timestep: 53000
1 1  6.776258847179e+01   2.667582004801e+01  -1.879899287740e+02 
2 1  1.913632576947e+02   5.205828108509e+02   6.143422416749e+01 
3 1  2.350776790505e+02  -1.256856994003e+02   4.545968199652e+01 