8
 Atoms. Timestep: 0
1 1  3.925936639999e+02  -1.543008928071e+02  -1.440228048609e+02 
2 1 -3.379341087660e+02  -3.925505874471e+02   3.683521818855e+02 
3 1 -3.424884316572e+02  -2.182720383758e+02   4.091092859017e+02 
4 1 -2.495589300526e+02  -4.683427121431e+01   3.142915232886e+02 
5 1  3.184003193496e+02  -2.363421945060e+02   2.760046204839e+02 
6 1  6.480739281491e+02   6.885028007930e+02  -2.003080180061e+02 
7 1  1.705097250055e+01  -3.196006587446e+02  -1.875622399230e+01 
8 1 -1.126140154026e+02  -3.910938041795e+02   4.674400516380e+02 
8
 Atoms. Timestep: 1000
1 1  3.199615577895e+02   3.151905713021e+02  -3.841154141947e+02 
2 1 -5.009787628197e+02   2.342448068139e+02  -4.591965498851e+01 
3 1  2.396666290985e+02   2.222550889342e+02   3.204244750439e+01 
4 1 -4.509168160670e+02  -8.687867228047e+01  -7.507321649969e+01 
5 1 -3.662484387212e+02  -3.758692007536e+02  -3.601644463076e+02 
6 1  2.886758762946e+02  -1.090313011433e+02  -6.971875065135e+01 
7 1  1.964093694391e+02  -1.315630486304e+02   2.082950056494e+02 
8 1 -3.674664148909e+02  -1.495456857753e+02  -3.722276797010e+01 
8
 Atoms. Timestep: 2000
1 1 -1.843301842711e+02  -4.464361383548e+01   1.527524096229e+02 
2 1  1.638027900829e+02  -4.341285148262e+02  -2.351486036544e+02 
3 1  3.117359465164e+02  -8.785889920815e+01  -2.435821444934e+02 
4 1 -1.761923321769e+02   3.504585031946e+02  -2.969508406608e+02 
5 1 -6.942828806738e+00   9.014233271553e+01  -7.315048177975e+01 
6 1  3.578729099849e+02   2.099958984127e+02   5.509317001630e+01 
7 1  1.968795032119e+02  -1.912669211416e+02  -2.513584263649e+02 
8 1  5.080974659754e+02  -2.672339441658e+02  -8.118670497431e+01 
8
 Atoms. Timestep: 3000
1 1 -5.090536444549e+02  -4.986707727807e+02  -3.019828014517e+02 
2 1  2.691420006827e+02   2.285630506338e+02  -1.203895953448e+00 
3 1 -2.059691945044e+01  -1.271627003652e+02  -9.165103792075e+01 
4 1 -9.962889457318e+01  -3.131025510518e+02   1.355818127397e+02 
5 1 -5.963839566855e+01  -2.975643592693e+02   5.377547055253e+02 
6 1  3.080818671539e+02   9.204944735474e+01   3.791414470276e+02 
7 1  1.369581471449e+01   2.862959290952e+02  -3.789652125742e+02 
8 1 -1.685223659268e+02  -8.286345802229e+01  -3.773102414335e+02 
8
 Atoms. Timestep: 4000
1 1 -2.101248457610e+02   4.012489282656e+02  -6.082158109722e+00 
2 1 -1.594381751936e+02   8.703121071655e+01   2.691241352894e+02 
3 1 -6.186605006492e+02  -1.259135550030e+02  -3.637648991695e+02 
4 1  3.079473205981e+02   4.438608565303e+01   3.759170799282e+02 
5 1  3.331938815840e+02   3.168031975115e+01   3.973392396340e+01 
6 1 -4.938757258463e+01   2.410404701572e+02   1.833647231272e+02 
7 1  1.637667675338e+02   1.637889091197e+02  -1.559689951400e+02 
8 1 -3.119368491600e+01  -3.680859556152e+02  -3.585074051925e+02 
8
 Atoms. Timestep: 5000
1 1 -1.644766732123e+01  -5.656663681241e+01   7.289710702706e+00 
2 1  1.717014344489e+02   1.635515859316e+02   3.537818544844e+02 
3 1  4.071123078211e+02  -3.433838558880e+02   1.682553980840e+02 
4 1  6.357394094435e+01   6.713537833665e+01   2.980755371582e+01 
5 1  6.505432159706e+01   4.556701493729e-01  -4.700049074563e+02 
6 1 -3.876076489339e+02  -5.946992400758e+01   8.402467304790e+01 
7 1  6.247843458620e+02   5.245232753805e+02  -1.407458137229e+02 
8 1  1.565125797501e+01   1.443265631615e+02   2.218096682478e+02 
8
 Atoms. Timestep: 6000
1 1 -4.718662931058e+02   1.092538726807e+02   5.206413792912e+01 
2 1 -3.287304360793e+02   2.171077287801e+02   1.282840595919e+02 
3 1  2.987279193997e+02   4.029162121449e+01  -4.923996941469e+02 
4 1 -9.977489778612e+01  -1.310265676420e+02  -1.337403791225e+02 
5 1 -9.279946663193e+01   5.133405400729e+02   3.762458324737e+02 
6 1  9.122589896390e+01  -6.196200664167e+01   1.407157838719e+02 
7 1 -4.928030833568e+02  -6.996910455069e+01  -1.568091869063e+02 
8 1  1.170452892906e+02   9.056887887965e+01  -3.265229525862e+02 
8
 Atoms. Timestep: 7000
1 1  3.130205967270e+02  -1.608639063724e+02  -3.531434071014e+02 
2 1  5.355912597487e+01   1.934157575674e+02   2.605098615524e+02 
3 1 -4.702918666521e+02  -3.607980323271e+02  -2.221847706050e+02 
4 1 -7.705454847960e+01  -3.412877443891e+02   1.136906133375e+02 
5 1  3.257739117596e+01  -1.391755094184e+02   2.204525244045e+02 
6 1  5.615456038886e+01  -2.022988857484e+02   1.730930754881e+02 
7 1 -1.126072761008e+02  -2.407061220682e+02  -1.709572805704e+02 
8 1 -9.576783956823e+01  -6.110658196886e+01  -4.730169977202e+01 
8
 Atoms. Timestep: 8000
1 1 -4.574912069177e+02   2.567024284131e+02  -3.383960438986e+01 
2 1  8.567234300893e+01   1.369239167824e+02  -3.132007961374e+02 
3 1 -1.923659040564e+02   1.519321259636e+02  -1.948180115996e+02 
4 1 -2.858779190596e+01  -7.997990204442e+01  -1.515769115048e+02 
5 1  8.888502774828e+01   1.027120390881e+02   7.817334279512e+01 
6 1  4.673271755526e+02   2.590557379143e+01  -4.109529852962e+02 
7 1 -2.064999874766e+02   1.562560795772e+01  -1.340426703425e+02 
8 1 -3.881605143118e+01  -6.002817531993e+02  -1.745164027451e+02 
8
 Atoms. Timestep: 9000
1 1  8.679881576206e+01   2.065757823254e+02   6.529729220435e+01 
2 1 -1.117258967580e+02   1.111457314167e+02  -4.963285196754e+01 
3 1  2.504658395953e+02   9.093643799863e+01  -8.654812596112e+01 
4 1 -6.954403878051e+01  -2.196343815595e+01  -9.092232416692e+01 
5 1  4.548081290666e+02  -1.133634540822e+02  -2.753885827238e+02 
6 1  4.050079178849e+02   3.928071405252e+01   3.541048671673e+02 
7 1 -6.455925066019e+01   3.429976200928e+02  -1.436808898260e+00 
8 1  3.365485908671e+02   2.098055607383e+02  -1.498617371935e+02 
8
 Atoms. Timestep: 10000
1 1 -1.984921114549e+02   1.556636066839e+02   8.525932835855e+01 
2 1  4.398476404789e+00  -3.027581306876e+01  -4.832760184001e+02 
3 1 -7.411162975862e+00   4.719716170598e+01   1.548526265136e+02 
4 1 -2.653630551458e+02   5.119345087691e+01  -2.383520725651e+02 
5 1  5.809392031668e+02   4.021921957915e+02  -1.317741593651e+01 
6 1 -1.989781917893e+00  -4.329704773578e-01  -2.591019908805e+01 
7 1 -1.129459501815e+02  -2.629083165781e+02   4.085242894393e+02 
8 1 -1.979954950103e+02   7.477010705040e+01   4.517594413459e+02 
8
 Atoms. Timestep: 11000
1 1 -5.391866583765e+01  -8.184180582216e+01  -1.462867274626e+02 
2 1 -9.867551981579e+01   3.329314552567e+02   3.386107103640e+01 
3 1  1.542283931920e+02   6.447815554279e+01  -3.739403019289e+02 
4 1  1.210034114802e+02  -4.642893315668e+00   1.642492895040e+02 
5 1 -4.928379622474e+01   6.101910927708e+01  -7.003887218555e+01 
6 1 -1.330167080932e+02  -3.226058485558e+01   1.703243649259e+02 
7 1  2.063844375309e+02  -3.799673667073e+02  -2.438637105158e+02 
8 1  1.368257211355e+01   1.560414478565e+02  -7.846694373990e+01 
8
 Atoms. Timestep: 12000
1 1  2.122675601054e+02   1.743994109045e+02  -7.101745440261e+01 
2 1 -1.541806742030e+02   9.621752486642e+01   2.492527668976e+01 
3 1 -6.678618837923e+02  -4.090734370230e+02   5.948582536375e+01 
4 1  1.597725878461e+02   2.402442042376e+01  -6.122197694481e+02 
5 1  6.820689736130e+02  -3.823612661543e+02  -2.214135780943e+02 
6 1 -2.720932977013e+01  -9.931026566765e+01   1.590447970305e+02 
7 1  1.904007204878e+02  -3.619229750464e+02   2.261997529330e+02 
8 1  7.941590544847e+01  -5.313425331649e+01   4.318733412230e+01 
8
 Atoms. Timestep: 13000
1 1  4.963450864484e+01  -4.013607909092e+02  -2.560150948843e+02 
2 1  5.245100446884e+02   1.541733058423e+02  -2.181805145475e+02 
3 1  4.290453065213e+01  -2.039148235769e+02  -2.734539573039e+01 
4 1  4.269442829261e+00  -2.271550472066e+02   2.908372544074e+02 
5 1  3.324194370829e+02  -1.992022503176e+02  -4.659337569316e+02 
6 1  9.987536429259e+01  -2.694496689588e+02   1.893971705439e+02 
7 1 -1.977372286038e+01   1.902283742534e+02  -3.681002460278e+02 
8 1 -2.818692023865e+02   4.503647430700e+01   8.760337069093e-01 
8
 Atoms. Timestep: 14000
1 1  1.008412398073e+02   1.170196561311e+02   1.340898862534e+02 
2 1  6.810589560003e+00   6.573681944254e+01  -8.345978576424e+01 
3 1  1.479683912100e+02   3.159322532833e+02  -1.787143947618e+02 
4 1  1.087981090324e+02  -1.642723158207e+02  -4.569143637869e+02 
5 1  3.314112596537e+02   2.340961625154e+02   6.144383362501e+01 
6 1 -1.832480655596e+02   1.870382023199e+02  -3.702704699604e+02 
7 1 -2.681618642399e+02  -9.466473549201e+01   2.077967989128e+01 
8 1 -1.133387246330e+01  -3.361837694609e+02  -3.950775633638e+02 
8
 Atoms. Timestep: 15000
1 1  2.201714523764e+01   3.098424122051e+02  -1.844117756588e+02 
2 1 -2.195038559176e+02  -3.880906017389e+02  -3.247565615735e+02 
3 1 -2.813473923044e+01  -2.241707493575e+02  -6.987846510868e+02 
4 1  2.215290116701e+02  -4.723673393927e+02   1.658215818438e+02 
5 1 -5.594238946762e+02   1.716944036657e+02  -4.609427966433e+02 
6 1  3.175688770714e+02   4.754523271597e+02  -2.981373061902e+02 
7 1 -9.365702309768e+01  -2.484209540273e+02  -4.960229482209e+02 
8 1  2.643247053169e+02   1.484303281892e+00   2.588546321063e+02 
8
 Atoms. Timestep: 16000
1 1 -3.848834676160e+02   6.657156476974e+02  -4.476912169938e+02 
2 1 -1.054371727615e+02  -3.935503297440e+02  -5.521222299627e+00 
3 1  9.947138962214e+01  -8.983452563241e+01  -3.567779148823e+01 
4 1  9.484029447862e+01  -3.013206481320e+01  -5.902727531608e+01 
5 1  7.126025502502e+02   6.109855914374e+02   2.431190910894e+02 
6 1 -3.140661056957e+02   4.083529107418e+01   1.133794304532e+02 
7 1  1.169085196068e+02   1.023453095395e+02  -3.403628817026e+02 
8 1 -4.407293379289e+02   2.612846061208e+02  -6.451643200053e+01 
8
 Atoms. Timestep: 17000
1 1 -9.562690830480e+01  -7.426105889945e+01  -4.264119824004e+01 
2 1  2.143947748957e+02  -3.663758187138e+02   2.713189174409e+02 
3 1  2.512597609073e+02  -4.150037756933e+01  -2.025632237176e+02 
4 1 -1.309351312979e+02   1.973666467347e+02   7.395930187528e+00 
5 1  4.673783709324e+02  -3.307346770996e+02  -3.889276810052e+01 
6 1  1.277287580615e+02  -1.996226467158e+02  -1.566024622579e+02 
7 1 -2.180966854201e+01   3.065912973998e+02   2.531252144591e+02 
8 1  4.283665819094e+02   3.414885537011e+02  -2.083735932172e+02 
8
 Atoms. Timestep: 18000
1 1  8.540313036352e+01   1.768069556386e+02  -1.861717620870e+02 
2 1 -9.484101470716e+01  -4.158700390230e+01  -5.277360607453e+01 
3 1 -6.392934674411e+01   2.496813984151e+00  -1.136847550166e+02 
4 1 -5.457569590124e+02  -1.828727662725e+02   2.277666859682e+02 
5 1  4.051847847105e+02   1.557235831993e+02  -1.739039573792e+02 
6 1  2.530211371166e+02  -1.803908406271e+02   2.337365189551e+02 
7 1  1.595002331840e+02  -2.075493209279e+02  -9.226171543960e+01 
8 1 -3.040740446357e+02  -2.334982318740e+02  -3.233259205314e+02 
8
 Atoms. Timestep: 19000
1 1  1.687108732522e+02  -2.723659587053e+02   1.157999159862e+02 
2 1 -8.663854630287e+01   6.856903947370e+00   1.247553006778e+02 
3 1  2.422067387777e+02   3.532735850396e+02   3.313391403142e+02 
4 1  7.283925003493e+02  -1.991318717357e+02  -8.135733004564e+00 
5 1  5.099151909868e+02   3.982441230333e+02   1.003253812118e+02 
6 1  2.458975167426e+02  -1.655559611830e+02  -1.059427800836e+02 
7 1 -2.579051889103e+02   1.495514745746e+01   2.449313625378e+02 
8 1 -2.270267986987e+02   4.546422360368e+02   1.699819761619e+02 
8
 Atoms. Timestep: 20000
1 1  1.629713898851e+02   3.899352069983e+02   1.794636816697e+02 
2 1 -2.219181797244e+02  -5.554478016104e+02   3.002712283594e+02 
3 1 -2.352308114873e+01   3.540968628625e+02  -7.181332766111e+01 
4 1 -4.850012388226e+01  -1.479469149649e+02  -1.504175722730e+02 
5 1  3.211716257758e+02   1.441138972165e+00   1.167038989767e+02 
6 1  1.272801851618e+02   2.187553492468e+02   4.642583661405e+02 
7 1  1.333430430101e+02  -3.437743222122e+02   7.661816049707e+01 
8 1 -3.148171556853e+02  -1.005293411389e+00   3.608168487959e+02 
8
 Atoms. Timestep: 21000
1 1  5.000253456139e+01   3.863808691447e+02  -2.028583782186e+02 
2 1 -1.895598402430e+02  -3.113627001236e+02  -1.723611137529e+02 
3 1  2.359595372000e+00   8.407533356603e+01  -2.722397807682e+02 
4 1  3.848324903702e+02  -3.664677734013e+01  -7.757315352149e+01 
5 1 -1.622795498504e+02  -2.849347744510e+02  -4.511337219777e+01 
6 1  9.866509131140e+01  -3.304279041188e+02  -2.852128118439e+02 
7 1  1.228481025505e+01  -1.189056447027e+02  -4.574667210344e+00 
8 1 -1.973882595794e+02   5.333857872933e+02  -2.195889642082e+02 
8
 Atoms. Timestep: 22000
1 1  1.955905585625e+02   6.015426379677e+01  -5.084479700920e+02 
2 1  2.033441858009e+02   3.579233910888e+02  -3.355337533080e+02 
3 1  1.647684661580e+02   4.890344011671e+02  -7.244050395970e+01 
4 1 -1.345952118219e+02   1.352525408201e+02  -7.480553103519e+01 
5 1 -3.256170801979e+02  -9.824382236439e+01   5.688951231976e+01 
6 1 -5.002459367234e+01   2.247462197314e+02   2.590716132644e+02 
7 1 -2.725945651769e+01  -4.866566282824e+02   8.864526072360e+01 
8 1 -5.760383006722e+01   5.667279327665e+01  -3.294089213536e+02 
8
 Atoms. Timestep: 23000
1 1  2.176444568537e+02  -3.195058307966e+02  -3.738452685791e+02 
2 1  1.086472450777e+02  -5.383377804301e+02   2.180363298452e+02 
3 1  1.228268877994e+02   6.864794371045e+01   3.770975994577e+02 
4 1  5.910682372636e+02   1.892584832435e+02   1.140864851081e+02 
5 1  3.116139574784e+02   2.667809583898e+02   1.340807602639e+01 
6 1  6.095352009540e+02  -7.753641912994e+01  -2.541804520150e+02 
7 1  9.016243761709e+01   1.337807452813e+01  -1.088286837423e+02 
8 1  2.368823132263e+02  -3.822330860692e+02   3.933673282815e+02 
8
 Atoms. Timestep: 24000
1 1 -8.620600150420e+01   1.407890062910e+02  -2.691230132796e+02 
2 1 -3.031665611753e+02  -9.871236196106e+01  -4.181516326368e+02 
3 1  3.640297630984e+02   5.078408310196e+01  -1.220663284385e+02 
4 1  3.788702421100e+02   2.505262583130e+02   8.569196861381e+01 
5 1  6.818721889726e+02  -5.364574404729e+02   8.529172193315e+01 
6 1  1.778795607665e+02   1.453635882026e+02  -6.673067434109e+02 
7 1 -5.414917114772e+02   2.340199207320e+02   3.116816922500e+02 
8 1  3.273073713035e+02  -7.943367870908e+01  -1.590163939131e+02 
8
 Atoms. Timestep: 25000
1 1  2.544644394544e+01   4.713168644814e+02  -1.544439602521e+02 
2 1 -1.563839144465e+02  -5.847292692704e+01  -2.535553962314e+02 
3 1  1.998320759369e+02  -1.593263390637e+02   1.840381578590e+02 
4 1  4.087026323054e+02   1.605984636156e+02  -1.389588505209e+02 
5 1  3.056579350457e+02   2.295753063199e+01  -4.167047206707e+02 
6 1 -5.898066936931e+02   4.511568937330e+02  -2.933372394504e+01 
7 1  8.802222355331e+01  -1.205756453786e+02   3.061872458646e+02 
8 1  2.858524278670e+02  -1.282208933241e+02   1.277971889679e+02 
8
 Atoms. Timestep: 26000
1 1  7.730785200408e+02  -1.624845264680e+01   2.290085034199e+02 
2 1 -3.941931901438e+02  -7.439721814027e+00   2.405028309147e+02 
3 1 -1.793014666462e+02  -1.852538268862e+01  -7.565903445388e+02 
4 1  1.318321844837e+02  -9.202221194175e-01  -1.493996156697e+02 
5 1  9.238578222490e+01  -6.352681488524e+01  -3.725929872660e+02 
6 1 -1.489750924130e+02   2.493025635939e+02  -1.763759741542e+02 
7 1  2.900376037262e+02   8.308612635060e+01   4.014514651721e+02 
8 1  3.268254800540e+02  -4.323420957099e+01   1.297100586339e+02 
8
 Atoms. Timestep: 27000
1 1 -8.642605642976e+01   1.155306695660e+02  -1.462814389064e+02 
2 1  9.976392572609e+01   4.351007056914e+01   8.900467292008e+01 
3 1  3.434421031724e+01   1.037120817378e+02   2.358280275519e+01 
4 1 -2.840107243139e+02   1.744345751266e+02  -4.421145868968e+02 
5 1 -2.612596373511e+02  -2.675717319269e+02   3.790180538831e+02 
6 1 -1.334715185028e+01  -1.852632864165e+01  -9.739483288760e+01 
7 1 -2.479243571692e+02  -1.919189875925e+02  -4.215567954368e+02 
8 1  2.055713354840e+02  -7.867240244079e+01   3.976051005559e+02 
8
 Atoms. Timestep: 28000
1 1  1.049121648612e+02   1.490241705472e+02   4.859560372651e+01 
2 1  1.333400125849e+02   1.464958830697e+02  -1.106157706881e+03 
3 1 -1.427112709891e+02  -1.296518148338e+02  -2.588782867166e+02 
4 1  8.069618501009e+01  -2.948244453974e+02   6.972456119533e+01 
5 1 -4.488186775319e+02  -2.495293975599e+01   3.747203183030e+02 
6 1  8.107789770105e+00  -5.032354982685e+01  -6.231979493708e+00 
7 1 -3.180026924249e+02  -2.000636926864e+02  -3.409067294917e+02 
8 1  6.285300273809e+01   5.961521715955e+02   3.340265098806e+02 
8
 Atoms. Timestep: 29000
1 1  2.407635294233e+02  -1.125920924237e+02   1.043410597111e+02 
2 1 -3.215046456462e+02  -3.786339333328e+01  -6.854293722323e+02 
3 1  2.843581312837e+02   1.383496582899e+02   8.432615925531e+01 
4 1 -7.096109981552e+01  -1.303489695206e+02   1.270969927498e+02 
5 1 -2.413377013279e+02   6.523785204677e+02   3.335486167381e+02 
6 1 -4.151610709049e+02  -3.425470969229e+01  -2.581127902094e+02 
7 1 -2.381749026746e+02  -4.030673651929e+02   4.206479390691e+01 
8 1  5.398423344419e+02  -2.036157959453e+02  -1.732895856587e+02 
8
 Atoms. Timestep: 30000
1 1 -2.218767117301e+02  -1.823493950393e+02   1.036686737925e+02 
2 1  1.388209774945e+02   1.691722659425e+02  -3.667164072628e+02 
3 1 -1.816662238800e+02  -1.767087050998e+02   1.356675744721e+02 
4 1 -2.760401053743e+02  -3.139122481006e+02   1.453478149476e+02 
5 1  1.054950804708e+00  -2.219976049310e+02  -1.463744213564e+02 
6 1 -4.565588727790e+02   2.015879648700e+02   1.380589778922e+02 
7 1  1.782348106761e+02   2.174630708789e+02  -1.434504298529e+01 
8 1  1.656005756928e+02  -1.490353363808e+02  -1.209035462154e+02 
8
 Atoms. Timestep: 31000
1 1 -2.676288050313e+01   2.030418320188e+02  -3.546790527574e+02 
2 1  1.667786752713e+02   4.569312742406e+01  -1.435249275695e+02 
3 1 -8.687193292695e+00  -1.514623767109e+02  -3.568514061870e+02 
4 1  1.583367093640e+02   2.077716269687e+02  -3.245375362644e+02 
5 1  1.496941427843e+02  -9.017243435349e+01  -1.297690276266e+02 
6 1  1.596038199267e+02   2.485128948870e+02  -2.843360141774e-01 
7 1 -2.366340883494e+02  -2.050221916506e+02   6.473142449608e+02 
8 1  6.394540595922e+02   2.783391920533e+02   2.685449668698e+02 
8
 Atoms. Timestep: 32000
1 1 -3.515388725459e+02  -3.889895735705e+02   9.624720791998e+01 
2 1  1.533402123932e+02  -1.438677050801e+02  -1.663794811073e+02 
3 1 -2.719878710386e+02  -1.252386912899e+02  -2.845982498105e+02 
4 1 -5.246744779696e+02  -3.602601453807e+02   2.490650397144e+02 
5 1  3.301061686422e+00   4.033297472195e+02  -3.545773336162e+01 
6 1 -3.035176214375e+02  -4.786898700016e+01   2.478856716916e+02 
7 1 -1.861262318368e+02   5.109023604561e+01  -4.597789384924e+01 
8 1 -2.844920237607e+02   1.568076571785e+02   3.309272580259e+02 
8
 Atoms. Timestep: 33000
1 1  1.394639231738e+02  -4.959975683878e+02   3.626850217052e+01 
2 1  2.400089917999e+02  -6.950199782926e+01  -2.452682766553e+01 
3 1  9.589752854986e+01   1.218472903773e+02  -1.924879120580e+02 
4 1  2.185638997413e+02  -4.657208565621e+01  -6.468361547488e+02 
5 1  8.108522922076e+01  -6.092545516375e+00   3.030252489348e+02 
6 1 -1.784548324277e+02  -8.349446530436e+01  -2.134442891812e+01 
7 1 -4.738377322697e+02   1.555026233971e+02  -1.402767041521e+02 
8 1  6.407608546145e+01  -4.207508272359e+02  -4.017345987686e+01 
8
 Atoms. Timestep: 34000
1 1 -2.222892090599e+02   3.482550656941e+02   2.265445599615e+02 
2 1  1.845656807919e+02   3.272800708829e+02  -1.526156338189e+02 
3 1  5.400484842328e+02   6.112144350134e+01   4.025212847452e+01 
4 1  3.534620907612e+02   1.176863608964e+02  -2.713944500785e+02 
5 1 -4.279003223446e+02   1.515340264477e+02   4.551971697751e+02 
6 1  7.376355884258e+01  -1.997328954470e+02  -4.036285256833e+02 
7 1 -3.784620344736e+02  -1.900749072763e+02   6.995003418809e+02 
8 1 -1.573973245620e+02   1.714260047613e+01  -1.791436088120e+02 
8
 Atoms. Timestep: 35000
1 1  5.938913476571e+02   4.067288435640e+02  -2.525551562879e+02 
2 1 -3.216202160877e+02   3.942112231190e+01  -3.271989577117e+01 
3 1 -2.543288151526e+02   3.407836139986e+02  -6.682036441740e+02 
4 1  3.219187149670e+02   5.331161830953e+01   1.103615926638e+02 
5 1 -2.857611052622e+02   5.477254941864e+02  -5.390299794046e+01 
6 1 -1.586405255384e+02  -1.986337573791e+02   1.144868443016e+02 
7 1  3.833206416438e+02   9.027494381318e+01   6.136617058930e+01 
8 1 -2.690941517978e+02  -2.471154466276e+02   3.094871282291e+02 
8
 Atoms. Timestep: 36000
1 1  1.553726268720e+02   1.662525519110e+02  -3.064347085805e+02 
2 1  1.062195569433e+02  -6.805243823694e+01  -1.024072302691e+02 
3 1  1.917907883246e+02   3.327776229654e+02  -2.325895628017e+01 
4 1 -1.682809252258e+02   3.104109943146e+01   3.300073340419e+02 
5 1 -3.878009567691e+01  -1.808878563473e+02   3.858220153846e+01 
6 1  2.100264153897e+02  -6.826095348267e+01  -1.007135901683e+02 
7 1 -7.077479369293e+02  -1.628031238384e+02   3.496740089982e+02 
8 1 -4.735982781230e+02   9.472746801102e+01  -3.156590447405e+01 
8
 Atoms. Timestep: 37000
1 1 -1.417687617109e+02  -2.741988458557e+02  -1.432334863865e+02 
2 1  4.343205306465e+02   1.227148251833e+02   1.463704164190e+02 
3 1 -1.897223981861e+02   5.400484293119e+02  -1.706502829289e+02 
4 1 -3.157215699886e+02   5.663359820949e+01   2.456495280514e+02 
5 1 -2.042455893834e+02  -1.254063486246e+02   1.953787721559e+02 
6 1 -3.167831059522e+02   4.085179436475e+02  -1.552380382374e+02 
7 1 -3.811796123031e+02  -7.691310152679e+01  -6.622360317900e+01 
8 1  2.034362616187e+02  -2.352258016265e+02  -2.657630150912e+00 
8
 Atoms. Timestep: 38000
1 1 -4.840094477296e+02  -1.100465203814e+01  -1.821651024663e+02 
2 1 -2.224566716675e+02   1.040083833925e+02  -2.719481664439e+02 
3 1 -2.813149745046e+02  -6.851491258504e+01   1.787722287322e+02 
4 1 -8.966754436107e+02   4.272895490506e+01  -6.438270879988e+02 
5 1 -1.497309499664e+02   1.885779868696e+02  -3.441754335478e+01 
6 1  1.349368851428e+02   1.762228145884e+02  -2.035462571476e+02 
7 1  2.711507165870e+02   1.093949942860e+02  -3.712587897096e+01 
8 1  9.206851238723e+02  -1.159229244820e+02  -1.034012551434e+02 
8
 Atoms. Timestep: 39000
1 1  2.304361142281e+01   2.360658647788e+01  -2.459188851923e+02 
2 1 -1.873447401113e+01  -1.823822211242e+02   5.154141414811e+01 
3 1  4.040766251446e+02  -3.598803407074e+02   5.217533242927e+01 
4 1 -4.368166212770e+02  -2.373353152542e+01  -1.880333416330e+02 
5 1 -3.138967198134e+02  -8.275114014510e+01  -5.780824190117e+01 
6 1  2.718870720679e+02  -1.090848271191e+02   1.185686564858e+02 
7 1  2.374227711319e+02  -2.281168079696e+02  -1.602562607845e+02 
8 1  1.395541314818e+02  -4.095284310387e+02   2.639370273802e+02 
8
 Atoms. Timestep: 40000
1 1  3.009712633106e+02   8.064864823825e+01   1.010210479467e+02 
2 1  1.264257651135e+01  -1.962386366667e+02   2.007123497148e+02 
3 1  1.804135063290e+02  -1.665669456932e+01   1.640713151315e+02 
4 1 -1.750374376587e+02  -2.001671361281e+02  -7.282495176028e+01 
5 1 -4.181819126737e+01   1.857965354478e+02   3.651050388192e+02 
6 1  1.304421874651e+02  -4.768319691738e+02  -5.164851336375e+02 
7 1 -2.419731110093e+02   2.618307992159e+02  -1.374771482593e+02 
8 1  1.122365020162e+02   2.162044803147e+02   2.780361447879e+00 
8
 Atoms. Timestep: 41000
1 1  1.501569451101e+01  -1.520042023024e+02  -3.986722636531e+00 
2 1 -2.987871594948e+02  -1.139945819236e+02  -7.952944170844e+02 
3 1  6.485780541299e+01  -3.240215736501e+02  -3.299789373818e+01 
4 1  1.305932925207e+02   1.103419029519e+02   5.510899516536e+02 
5 1 -7.065898974176e+02   2.779337159166e+01   3.233052168317e+02 
6 1  8.102725191024e+01   5.047297690786e+01   1.708907130218e+02 
7 1 -1.174102832362e+02  -2.018320567978e+02   3.382658466988e+00 
8 1 -2.846290716571e+02   5.316277831815e+01   1.212187770491e+02 
8
 Atoms. Timestep: 42000
1 1 -4.797009283524e+01   7.606878651293e+01   6.323485070885e+01 
2 1  3.411551768372e+01   9.497529241238e+01   6.589289147072e+01 
3 1 -6.524992851963e+02   3.164100821077e+02  -3.048042759151e+02 
4 1  2.240296539238e+02  -5.161668942373e+02  -8.964939987347e+01 
5 1 -2.283027288248e+01  -1.089632996434e+02   2.601368981262e+02 
6 1 -3.613140447423e+02   3.233206374587e+02   3.144476859710e+02 
7 1  8.596501596204e+01  -1.804150109395e+02   6.515389648049e+01 
8 1  1.195030547595e+01  -7.522508463047e+02   4.125999276978e+02 
8
 Atoms. Timestep: 43000
1 1  9.667065876751e+01  -7.767237114487e+01  -8.300596498465e+01 
2 1  1.036233738037e+01  -2.646984390310e+01  -8.075451050658e+01 
3 1 -3.685385517473e+02  -3.778260220420e+02  -3.507866228984e+02 
4 1  3.218782753190e+02   3.585987272153e+02   3.039741436469e+02 
5 1  1.391752323828e+02   5.057689363323e+01  -3.044130823583e+02 
6 1  1.536471163728e+00   8.205756093866e+01  -6.325287679491e+01 
7 1 -5.161703504295e+02  -1.946218222961e+02   3.554768831106e+02 
8 1  1.693840011128e+01   6.723364149841e+02  -6.734987781212e+01 
8
 Atoms. Timestep: 44000
1 1 -1.847437777424e+02   4.312899367311e+01  -4.401611714489e+02 
2 1 -8.745362782345e+01   1.471495889581e+02   3.280901717237e+02 
3 1  1.219434580309e+02  -1.589897004614e+02   1.269056108572e+02 
4 1  1.070245328347e+02   3.121287751542e+02   4.917560799380e+02 
5 1 -6.956492189316e+01   1.648243171537e+02  -3.060998777907e+02 
6 1 -6.437509424698e+01   6.187175199984e+01  -5.786215146690e+01 
7 1  2.850162922079e+02   2.324959913122e+02  -2.946711081244e+02 
8 1 -3.835884163512e+02   1.787007420707e+01   2.827208077310e+02 
8
 Atoms. Timestep: 45000
1 1 -1.907544393141e+01   2.624580100553e+02   4.608398386956e+01 
2 1 -4.348119058626e+02  -1.986886839167e+02   1.447364369076e+02 
3 1 -1.300691957396e+02   2.546143616792e+00  -3.644922256176e+02 
4 1  3.247781524092e+02   8.998051768406e+01   2.798026920715e+01 
5 1  4.047367006484e+02  -1.140380397738e+02  -4.609896728012e+02 
6 1 -2.462091674485e+02   1.520349714657e+02  -5.007652767300e+01 
7 1 -3.292147627698e+02   2.399143919160e+02  -1.315056624924e+02 
8 1 -2.704284314961e+02  -3.555799970548e+02  -3.509491129054e+02 
8
 Atoms. Timestep: 46000
1 1  1.921401532994e+02   2.197878037498e+02  -2.023911912113e+01 
2 1  1.365865506800e+02  -6.152662654194e+01   2.082164092921e+02 
3 1 -7.083208608620e+02   2.734402392880e+02  -3.866168359117e+02 
4 1 -8.499493883443e+01  -1.823927175071e+02  -4.099682567202e+02 
5 1  1.802388702241e+02  -4.647690402142e+02  -6.018656207695e+02 
6 1  7.291734827251e+01   2.862786389846e+02  -2.152179235800e+02 
7 1  3.388356027143e+01   2.575482674148e+02  -4.650658312797e+02 
8 1  4.113883860210e+02  -9.172424586486e+01  -3.721926983406e+01 
8
 Atoms. Timestep: 47000
1 1 -2.430919391986e+02  -6.274206444459e+01   2.102485741294e+02 
2 1 -3.028786438354e+02  -8.384203383519e+01  -1.130622380166e+02 
3 1 -2.693615959214e+02   4.624188113101e+01  -2.537049403562e+02 
4 1  3.791489918029e+02  -5.490802985918e+00  -1.034400550493e+02 
5 1 -3.624672012116e+01  -7.140511057476e+01   1.462730804684e+02 
6 1 -3.271194481653e+02  -2.283851917689e+02   4.195972158720e+02 
7 1  7.699772215356e+01   3.022750073874e+02  -2.683211073006e+02 
8 1  1.697531886559e+02   3.526401556657e+02   2.727174022550e+01 
8
 Atoms. Timestep: 48000
1 1  3.645825452082e+02  -5.364797846589e+01  -3.363962225505e+02 
2 1 -9.509869463737e+01  -1.366931729147e+02  -2.236015231586e+02 
3 1  5.576644644761e+01  -2.718807526295e+02   1.626794324300e+02 
4 1 -2.575250697648e+02   8.419416791024e+02   1.218383326731e+02 
5 1 -1.226822505400e+02  -4.907457404725e+02   4.702285901066e+02 
6 1 -8.761149445917e+01  -1.984486066158e+02  -4.236768590267e+01 
7 1  5.628112657478e+01   8.317780951661e+01  -6.872222135798e+02 
8 1  2.197356980300e+02  -2.643144849463e+01   1.340851668691e+02 
8
 Atoms. Timestep: 49000
1 1 -1.334875372797e+02   5.915698319528e+02  -3.286991347075e+02 
2 1  1.681152516766e+00   1.161569882425e+02  -1.605255239474e+02 
3 1  5.886205819491e+01   3.887380376226e+02   3.798778190692e+02 
4 1 -4.332797497544e+02  -2.538639271508e+02   1.215028811693e+02 
5 1  3.659705298240e+02  -2.040412087195e+02  -1.386081410098e+02 
6 1 -1.576960861020e+02   1.379939190833e+02   8.281526207893e+01 
7 1 -4.647300310620e+01  -1.093631655914e+01   3.005051598311e+02 
8 1 -4.802641286381e+02   2.689498304525e+02   1.108836669524e+02 
8
 Atoms. Timestep: 50000
1 1  3.969585885108e+02  -3.519160141857e+02  -3.602921860761e+02 
2 1  2.651645355352e+02  -4.639728813901e+02   1.536309960716e+02 
3 1  1.014882653933e+02   2.588827822754e+02   3.470664806524e+01 
4 1 -2.122468661478e+02  -4.688842411835e+01   1.124727084085e+02 
5 1  1.011630568145e+02  -3.670803160609e+02   2.901436552236e+02 
6 1  2.394372376250e+02   1.801546924196e+02   3.038479081203e+02 
7 1  1.320259451857e+00   3.529036043238e+02  -1.644478581684e+02 
8 1 -1.547374782717e+01  -3.587385921114e+02   1.086250081523e+02 
8
 Atoms. Timestep: 51000
1 1 -2.867975635761e+02  -4.662798714996e+01  -1.164563150691e+02 
2 1 -1.882550247451e+02  -2.329732565018e+02  -4.146593557559e+02 
3 1 -2.722864687469e+02  -1.520771725769e+02  -1.405330904304e+02 
4 1 -2.583786239161e+02   1.663861703088e+02   2.627730421112e+02 
5 1 -7.481801560851e+01  -8.564440668162e+01  -3.551834442327e+02 
6 1  3.436630376242e+02   2.122738147987e+02   1.257250152985e+02 
7 1  6.059417419551e+02  -4.503246847819e+02  -1.192196841251e+02 
8 1  5.139180118294e+02  -3.776140990440e+01  -2.978998882732e+02 
8
 Atoms. Timestep: 52000
1 1 -3.992149695619e+02  -2.906227888724e+02  -6.951661961884e+01 
2 1 -7.664243112996e+01   1.411560471907e+02  -1.373764560202e+02 
3 1 -1.475980558141e+02  -1.479462377780e+02   2.263251447904e+02 
4 1 -1.481615210822e+02   1.783705005918e+02   6.480065309279e+02 
5 1 -8.393377211267e+00   1.123145365551e+02  -7.197013810714e+02 
6 1  7.060923329137e+02  -6.823108203604e+02  -1.440246445052e+02 
7 1  3.159512462459e+01   2.923681009785e+02  -3.392731119149e+02 
8 1  1.575266984619e+02   1.798820564779e+02  -1.212572172339e+02 
8
 Atoms. Timestep: 53000
1 1  1.008465693845e+02   7.822595622982e+01  -4.125916328045e+02 
2 1 -1.065128084381e+02  -2.402856453279e+02  -1.265331550768e+02 
3 1 -5.533991650260e+02  -2.251063568768e+02  -5.375692256474e+01 