8
 Atoms. Timestep: 0
1 1  1.976204776260e+02  -1.327257613333e+01   2.703176273771e+02 
2 1  2.003061905833e+02  -2.544223981605e+02   3.731957994478e+01 
3 1  3.175536340511e+01   7.854931605754e+01   2.211130902848e+02 
4 1  1.106521732543e+02  -1.894472683087e+02   2.165739811924e+02 
5 1 -2.560395550905e+02   9.179978589662e+01  -8.380647691923e+01 
6 1  3.277134704153e+02   3.549403928910e+02  -3.306515228372e+02 
7 1  3.843816880327e+01   1.374312923885e+02  -1.669173694866e+02 
8 1  6.066579180227e+01   1.956450288481e+02   2.848463208239e+01 
8
 Atoms. Timestep: 1000
1 1 -5.134422524901e+01  -1.458203036051e+02   1.291980511568e+01 
2 1  1.547763693851e+02   4.488820345504e+01   2.878861323070e+01 
3 1  3.501090806564e+02   1.305567501814e+02   1.824629912885e+02 
4 1  4.124569798092e+01  -2.222134434191e+02  -8.671092201920e+01 
5 1  1.079559185677e+02  -3.917487349690e+02  -1.925797915678e+02 
6 1  2.473355396001e+02   3.870006422867e+02   2.082570405740e+02 
7 1 -2.784564038642e+02  -3.775234511639e+02  -7.752143319264e+02 
8 1 -2.482305186951e+02  -4.196423699872e+02   2.965436761266e+02 
8
 Atoms. Timestep: 2000
1 1 -6.648251877409e+01   1.260514741655e+02  -7.971114599831e+01 
2 1  3.648359576157e+02   3.995195526436e+02  -3.071319939564e+01 
3 1  1.529426843935e+02   2.161654109481e+02  -6.908969946635e+01 
4 1 -3.453855139544e+01   3.051706886297e+02  -1.051327277013e+02 
5 1 -1.125899818692e+02   1.083639266639e+02  -2.537482345065e+02 
6 1  4.200160364744e+01   1.117207134740e+02   1.016279569407e+02 
7 1 -2.832755339715e+01  -1.967650778747e+02  -1.307666515207e+02 
8 1 -1.272354836759e+02  -1.236223781393e+02   2.035726481949e+02 
8
 Atoms. Timestep: 3000
1 1  2.653913975298e+01  -4.273866853675e+02   4.489101276169e+02 
2 1  2.220047568556e+01  -5.304964827148e+01   2.572948748105e+02 
3 1  9.229015229946e+01  -1.170115446051e+02  -3.526658572997e+00 
4 1 -3.763411901348e+02   2.965844535667e+02   4.281569091197e+02 
5 1  1.828807806116e+02  -2.710343524971e+02   1.915932354327e+02 
6 1  3.748230606938e+02   3.313289864364e+01  -1.579586893720e+02 
7 1  8.493973994148e+01  -2.676374008506e+02   7.997888658369e+01 
8 1  5.830134350954e+02  -4.517361597774e+02  -3.968229102643e+02 
8
 Atoms. Timestep: 4000
1 1  3.145189860679e+02   5.525515866278e+02   8.563721222896e+01 
2 1 -1.429953030529e+02  -3.290356568992e+02  -3.994839299958e+02 
3 1 -4.498362216723e+01   1.884011453913e+02   8.224900400274e+01 
4 1 -2.653046995065e+01   1.411405507223e+02   5.253602139359e-01 
5 1  2.772762756911e+02  -5.342515883667e+01   2.189468320421e+02 
6 1 -5.783146072952e+01   3.289497049367e+02  -1.547727713496e+00 
7 1 -3.712246864197e+02  -2.508603635811e+02  -3.452859470461e+02 
8 1 -2.282277559393e+02  -2.312680658061e+02   2.824302163939e+02 
8
 Atoms. Timestep: 5000
1 1  1.078363649268e+02   1.690617569292e+02  -3.707841552728e+01 
2 1 -4.749887371599e+02   7.052756797541e+01   5.363594327135e+02 
3 1 -3.677330549322e+02  -4.901602454676e+02   5.196253353407e+02 
4 1  3.421403153310e+01  -5.962715214023e+01  -4.759816080930e+02 
5 1  7.521705035013e+01   7.837619727812e+01   1.580099927069e+02 
6 1  9.414562129006e+01  -1.228390312052e+02  -2.004510145171e+00 
7 1 -3.746394742876e+02  -1.258120637543e+02  -2.039953280608e+02 
8 1  1.356277618035e+02   2.826598121260e+01   1.894513999187e+02 
8
 Atoms. Timestep: 6000
1 1  2.416518167837e+02  -1.929494635576e+02  -7.254796116468e+01 
2 1 -2.875884809920e+02   2.243132092798e+02  -2.955871849851e+01 
3 1  2.327724955117e+02  -6.357737092279e+02  -1.051392678064e+02 
4 1  1.490044028436e+02  -1.163122377285e+02  -2.782712979558e+02 
5 1  2.364115262953e+00   1.096860794321e+02  -3.596415250287e+02 
6 1 -1.329964433467e+02   1.094578741154e+02   3.617947624975e+02 
7 1  3.755975441261e+02   1.924938377362e+02   1.787081857268e+02 
8 1 -4.808958777785e+02  -4.377077345574e+01  -9.378990741726e+01 
8
 Atoms. Timestep: 7000
1 1  3.272212433023e+02   3.495029024658e+02  -1.939194880274e+02 
2 1 -2.196263463257e+01   3.109539399039e+02   1.320309515159e+02 
3 1  2.359446098708e+02   5.464471289142e+01  -2.477655196768e+02 
4 1 -2.697834309994e+02   7.227527931689e+02   1.329029837095e+02 
5 1  4.706542858206e+02  -2.628985185799e+02   1.349028226476e+02 
6 1 -1.300329753503e+02   8.663556302675e+01  -1.442581233785e+02 
7 1  5.007356337622e+02   9.319097806027e+01   3.574044621144e+02 
8 1 -4.354790867813e+02   1.985315344177e+02  -1.221515224019e+02 
8
 Atoms. Timestep: 8000
1 1  2.881598061526e+02   3.865231108457e+01   6.057616801163e+02 
2 1 -3.410630153868e+02   2.137362059847e+02  -3.902694120472e+01 
3 1 -2.271241201948e+02   3.245064599775e+02   3.567521144507e+01 
4 1  2.338938349099e+02   6.394802676834e+02   4.865801806742e+02 
5 1  2.465436440443e+02  -1.192946093954e+02   3.840281628320e+02 
6 1  5.034051184953e+01   1.030931643646e+02  -5.702758616374e+02 
7 1 -7.876960886118e+01   4.000502067750e+02  -1.437262389097e+02 
8 1  1.255382776738e+02  -1.072628357020e+02   3.176050512114e+02 
8
 Atoms. Timestep: 9000
1 1  2.084300257477e+02  -4.006656797643e+02  -3.209541314638e+02 
2 1 -4.855658956709e+02  -3.130237414029e+02  -3.821101800262e+02 
3 1  6.054039031609e+01   2.113313319837e+02  -3.316780477111e+02 
4 1 -4.436102027634e+02  -1.452055703447e+02   2.774758270212e+02 
5 1  1.836048812461e+01   1.973371739874e+02  -2.190124997716e+02 
6 1 -3.819104121202e+02  -1.264644246487e+02   8.101482271648e+01 
7 1 -3.012039608848e+02  -2.802384641320e+02   2.284981375437e+02 
8 1 -3.792601937558e+02   2.911076147454e+02  -4.360030813114e+01 
8
 Atoms. Timestep: 10000
1 1  1.071311905500e+02   7.112623813629e+01   9.953713918580e+00 
2 1 -3.549039692931e+02   4.481146642194e+02  -6.574832344186e+02 
3 1 -1.995890300475e+02  -9.873592237866e+01  -4.782819611271e+01 
4 1 -1.362692764641e+02  -5.047621476796e+01  -4.896997768323e+02 
5 1 -4.497421045577e+01   1.390694859274e+02  -3.374118354532e+02 
6 1  2.574843925368e+01   2.716502811914e+02   4.822806538415e+02 
7 1  7.561101826125e+01   1.212523980760e+02  -1.382735655695e+02 
8 1  1.443466697909e+02  -2.320406264379e+02  -3.757343705970e+02 
8
 Atoms. Timestep: 11000
1 1 -3.877804948985e+02  -1.113223541566e+02  -8.370107201007e+01 
2 1  1.791900282268e+02   8.503217264777e+01   4.697203890511e+02 
3 1  9.969356754829e+01  -2.404193604087e+02   2.208950706256e+02 
4 1 -1.588154187650e+02  -2.557714437341e+02   1.293134803526e+02 
5 1  1.401184516138e+02   3.442123211288e+01  -2.667947016634e+02 
6 1  2.456289238891e+01   6.030432203951e+02   4.074086182520e+02 
7 1 -1.702413965438e+02   2.000479946677e+01   1.075648449507e+00 
8 1 -8.111902587127e+01   1.433536192322e+01  -5.578994938518e+01 
8
 Atoms. Timestep: 12000
1 1 -2.666380278758e+02   7.157025937654e+01   3.447395589252e+02 
2 1  4.791503987074e+02  -2.204951076419e+02   5.895669577602e+01 
3 1 -8.431526933463e+01   5.349071088701e+01   3.406979188490e+01 
4 1 -3.669710134592e+01  -4.087514391802e+02   2.381551608747e+02 
5 1 -2.039195675352e+00  -2.474881475319e+02  -2.734337609601e+02 
6 1 -1.057716542770e+00  -5.554347877914e+02  -2.905334425001e+02 
7 1  1.756406488694e+02  -1.830688824929e+02  -1.573106233924e+01 
8 1  1.842430237309e+02  -1.089604779412e+02   1.018606328130e+02 
8
 Atoms. Timestep: 13000
1 1  5.397069026223e+02   2.194168565799e+02   1.174993216409e+02 
2 1  2.490334108187e+02  -1.646327253592e+02  -5.686699009508e+01 
3 1  8.270626928734e+01   3.326551106084e+01  -8.118728658095e+01 
4 1 -1.075783192721e+01   1.765342816429e+02  -3.788278391741e+02 
5 1 -2.103836919793e+02   3.528136537549e+02   5.890845723988e+02 
6 1 -2.092855123288e+02   2.787935665541e+02  -2.549574705516e+02 
7 1 -5.288698377544e+02   1.303408556913e+02  -4.384219772840e+02 
8 1  9.686709125730e+01   1.194517817705e+02   2.379916263856e+01 
8
 Atoms. Timestep: 14000
1 1  5.444525630361e+02  -7.064256147046e+01   4.645849520416e+02 
2 1  4.675620899041e+02   8.669502465687e+01   1.521282396542e+02 
3 1  2.000225850056e+01   4.368688745586e+02   3.655082843138e+02 
4 1 -2.169307417824e+02   4.143053161621e+02  -3.239271139870e+00 
5 1  1.560649364119e+02  -1.650366831807e+01  -4.869086205847e+02 
6 1  3.981648763429e+01  -3.956175652368e+01  -6.124866741064e+02 
7 1  2.630700826782e+02   3.003627224041e+02  -1.057267048804e+02 
8 1 -1.574881772108e+02  -3.623545083565e+01   4.214794645568e+02 
8
 Atoms. Timestep: 15000
1 1 -6.571094235762e+01   3.519122851457e+01   3.570045512362e+01 
2 1  2.561717660055e+02   2.636710483814e-01  -2.116700221789e+02 
3 1  1.270586079738e+02  -7.455214434670e+01  -2.762698862717e+02 
4 1 -5.111223790127e+02  -1.385839063886e+02  -2.003960194299e+02 
5 1 -2.468269181876e+02   4.527625302187e+02   4.311584756583e+01 
6 1 -2.799275051937e+02   1.292974915849e+02   5.071213065501e+00 
7 1 -2.141212751765e+02  -4.366554467344e+01  -2.541936846164e+02 
8 1  1.918168086140e+02  -1.902748385687e+02  -8.968401675307e-02 
8
 Atoms. Timestep: 16000
1 1  1.045202451899e+02  -2.038229723755e+02  -2.963319955737e+02 
2 1  5.697685989092e+01  -2.903577646092e+02  -3.687663069588e+02 
3 1  2.841192462169e+02  -3.292357110628e+02   3.230075244171e+02 
4 1  1.125955156126e+02   5.341954157170e+01   2.778733398081e+02 
5 1  2.341230168313e+02  -1.909602746638e+02   1.484957987573e+02 
6 1  9.529146910850e+01   4.230983794141e+02  -1.941860300673e+01 
7 1  1.052058689756e+02  -1.007653031083e+02  -3.380383145089e+01 
8 1  4.627227811778e+01   6.062500099280e+02  -4.771268536030e+02 
8
 Atoms. Timestep: 17000
1 1  4.425944842156e+01  -8.986357928416e+01  -2.839569275263e+02 
2 1 -2.519680415165e+02   1.181505234051e+02  -1.219057711725e+02 
3 1  8.243718467452e+01   8.821182177338e+01  -6.293477978090e+01 
4 1 -1.759767104941e+02  -2.390234243770e+02   1.126957059989e+02 
5 1  2.426771553393e+02   3.923962827879e+02   6.459051176006e+01 
6 1  2.941161078455e+02   8.823068905243e+01   1.513699443242e+00 
7 1  6.443250419786e+01  -2.029703617271e+02   1.080616009303e+02 
8 1 -9.315938864497e+01  -1.557565458353e+02  -8.763872290203e+00 
8
 Atoms. Timestep: 18000
1 1 -2.077318159351e+02   6.249576312094e+01  -8.651425200593e+01 
2 1  4.846933766639e+02   4.706348570897e+02  -1.206530419349e+02 
3 1 -3.329766019885e+01  -3.438226169460e+02   5.451960662959e+02 
4 1 -9.286382933158e+01  -1.399595090056e+02   2.463968898986e+02 
5 1 -1.717151685284e+02   2.404282474932e+02   2.203182149282e+02 
6 1 -8.249281375474e+01  -3.074464842114e+02  -6.512666106844e+02 
7 1  6.110870883417e+02  -1.261023401946e+02   4.003618341791e+01 
8 1  1.262146157600e+02   5.872183107851e+02   4.195491477214e+01 
8
 Atoms. Timestep: 19000
1 1  3.042891786710e+02  -6.421587703057e+01  -6.094176836636e+02 
2 1 -3.450684873820e+01   2.430061225811e+02   2.422173360234e+02 
3 1 -3.560447209397e+02  -1.730336499462e+02  -2.527752389098e+02 
4 1  1.902014092228e+02   4.108963284060e+01  -1.512136818742e+02 
5 1 -4.122946698752e+00  -1.544485350966e+02   4.072604044709e+01 
6 1 -3.107409367417e+02   4.653316646386e+02   2.292309136154e+02 
7 1  2.003427067398e+02   3.372533451044e+02   5.458908815753e+02 
8 1 -8.918899204638e+01   1.001041470979e+02   6.058031891223e+00 
8
 Atoms. Timestep: 20000
1 1 -2.362264293738e+01   2.343021698234e+02   1.536928894211e+02 
2 1 -1.310575771072e+02  -2.224844059358e+02   3.537814573925e+02 
3 1  4.090238777682e+02  -1.559583118844e+02  -4.225601329975e+02 
4 1 -5.987366697687e+01  -2.149833612080e+02   1.939482182316e+02 
5 1 -3.251427811624e+02   2.076695784797e+02  -4.421290555059e+02 
6 1 -8.930904770995e+01  -3.496564810533e+02   2.633027306269e+02 
7 1 -2.554671396232e+01   2.849444999475e+02  -1.975439679651e+01 
8 1 -3.624899301889e+02  -5.925874448776e+01   1.869956380838e+02 
8
 Atoms. Timestep: 21000
1 1  3.330734520078e+02   7.292460337365e+01  -2.983495570938e+01 
2 1  3.624406992778e+02  -9.201313246795e+01  -1.197255194150e+02 
3 1 -1.266277175456e+02  -2.280119239533e+01  -5.150487096149e+02 
4 1  1.406961894003e+02   2.945586028501e+02   1.693429969057e+02 
5 1 -2.462448862510e+02  -9.911582654824e+01   9.813218187488e+01 
6 1 -1.691337918923e+01   2.303083970306e+02  -6.118229621007e+02 
7 1 -1.206366861945e+02   3.548331006468e+01   1.357718174780e+01 
8 1  8.444247424913e+01   8.268067002085e+01   1.463224180518e+02 
8
 Atoms. Timestep: 22000
1 1  3.664432519526e+02  -4.038246129784e+01   1.308205856896e+02 
2 1  4.432921331351e+02  -2.814599611785e+00  -8.984780852521e+01 
3 1  5.149562299843e+02   2.474914776364e+02   1.492723220051e+02 
4 1  6.036207982201e+01   6.929945726897e+01  -3.336116589260e+02 
5 1  5.736443082128e+01   1.483315776286e+02  -6.109526980394e+01 
6 1  3.543191498846e+01  -1.625862473482e+02  -1.665996604239e+02 
7 1 -3.128478216825e+01   3.307387356646e+02   3.329925046934e+02 
8 1  2.074546799809e+02  -5.167201551996e+01   1.450299480258e+02 
8
 Atoms. Timestep: 23000
1 1  4.914152488043e+01  -1.086232820653e+02  -3.710373373294e+02 
2 1  8.765267289490e+00   2.429766712279e+02   1.393765673602e+02 
3 1 -7.152778027853e+01   1.402310503758e+02   2.612722822435e+02 
4 1 -2.237252423647e+02  -1.733942546645e+02   1.475336735652e+01 
5 1  1.776851152538e+02   8.632694403335e+01  -1.693664037990e+02 
6 1 -1.831694092705e+02   2.521699414961e+02   2.289890989858e+02 
7 1 -3.622996663865e+02   2.501750037630e+02  -3.726392312628e+01 
8 1 -2.110012070656e+02  -3.163304796336e+02   2.620562494200e+01 
8
 Atoms. Timestep: 24000
1 1 -2.755577182886e+00   2.011040133416e+01   1.535467651651e+02 
2 1  1.690302514328e+02   5.096875570018e+02   5.368815670725e+01 
3 1  1.025706817529e+03   3.002381540120e+01   2.047053166191e+02 
4 1 -2.892488052761e+02  -3.790773768858e+01  -5.703668972447e+02 
5 1 -3.598228124915e+02   8.974295405575e+01  -1.145596063264e+02 
6 1  4.267194793421e+02   1.674687801772e+02   4.890927017726e+01 
7 1 -4.092609825741e+02   2.122462781614e+02   5.302324021669e+01 
8 1  2.617443037879e+02   2.960687737607e+02   6.774449947308e+01 
8
 Atoms. Timestep: 25000
1 1  5.919913738335e+01  -2.948638454977e+02  -1.160925192693e+02 
2 1  5.709476201787e+02  -2.499850619388e+02   2.208507060384e+00 
3 1 -3.099700916026e+02  -3.608998897695e+02   2.082668718238e+02 
4 1  3.349530303981e+02  -1.564076872989e+02  -2.101402162257e+01 
5 1  1.966707041217e+02   1.995632471960e+01  -4.803366513493e+01 
6 1 -2.445469381320e+02  -3.052471257649e+02  -1.398456090862e+02 
7 1 -1.183195826440e+02   4.659051927390e+02   2.928109572855e+02 
8 1  4.228058830882e+02   3.128985856477e+02   1.187077320442e+02 
8
 Atoms. Timestep: 26000
1 1 -1.011080785087e+02   7.881135147963e+01   5.160457043784e+01 
2 1  2.774073436472e+02  -4.294796126491e+01  -5.673864762092e+00 
3 1  8.529329890816e+01  -4.671735790409e+02  -3.163450505232e+02 
4 1  5.285670607923e+02  -2.419720846608e+02   7.053080509788e+01 
5 1  3.131656783767e+02   5.084571024757e+00  -2.127352435198e+02 
6 1  5.797514486768e+02  -1.036668747326e+02   6.554552236661e+01 
7 1 -3.193446752201e+02  -1.205140821099e+02  -9.205929891266e+01 
8 1 -1.234118403597e+02  -4.239507488610e+02  -2.140424505298e+02 
8
 Atoms. Timestep: 27000
1 1 -6.607319960405e+01   9.478862929420e+01  -1.078426966596e+02 
2 1 -2.420714783862e+02   3.473959157541e+02  -1.004170779824e+02 
3 1 -2.157543255569e+02  -2.106873062166e+02   5.634241207340e+02 
4 1  1.076455945847e+02  -2.468168838662e+02  -5.382594520577e+01 
5 1 -2.123952213125e+01   3.703997267815e+02  -1.662877413301e+02 
6 1 -2.635128437749e+02   3.490705306166e+02  -6.025868891493e+02 
7 1  5.019502898861e+01  -4.116292697561e+02  -2.128867021638e+02 
8 1  9.447971361492e+01   1.883542817871e+01  -2.589874918760e+02 
8
 Atoms. Timestep: 28000
1 1  2.730199141564e+02  -3.183037811084e+02  -6.371881584061e+01 
2 1 -3.561341093222e+02  -1.921723650599e+02   2.226780632889e+02 
3 1 -2.289992000927e+02  -7.980289226395e+01   2.295312980394e+02 
4 1 -7.878524619563e+01  -1.824801136132e+02   9.463698748794e+00 
5 1 -3.625803150448e+02  -8.003285094407e+01  -6.260803367152e+01 
6 1  8.415127746482e+01   7.644779891644e+01   2.011356655031e+02 
7 1  2.285711303594e+02   6.800145449045e+00  -4.896206126762e+02 
8 1 -3.273985201366e+02  -6.653594651359e+01   1.396931857508e+02 
8
 Atoms. Timestep: 29000
1 1  9.679675993417e+01  -6.336161639397e+02   3.336329655272e+02 
2 1  1.488460928557e+02  -2.112111290104e+02   1.337678950767e+02 
3 1  3.944607930364e+02   2.997386953844e+02  -1.254372721749e+02 
4 1 -6.887247408006e+01   1.487146177948e+01  -3.309674750375e+02 
5 1 -1.146353747128e+00  -3.197158875632e+02  -1.609513081046e+00 
6 1 -1.395675500660e+02  -1.578066999800e+02  -5.302664821767e+01 
7 1  5.432507574929e+02  -1.142744658248e+02   2.565328885713e+02 
8 1 -1.533135289009e+02   1.948341677409e+01   2.783180491782e+02 
8
 Atoms. Timestep: 30000
1 1  4.096101153543e+02  -1.236188992277e+02   6.609144142339e+02 
2 1 -1.751501960661e+01  -4.844772288166e+01   2.422418481206e+02 
3 1 -2.174854177751e+02   1.716644372210e+02  -4.702346663323e+02 
4 1  1.192142350195e+01  -2.617636484055e+02   1.321094587542e+02 
5 1  3.462123757407e+02  -1.097111709697e+02  -5.838671335960e+02 
6 1  5.430691453284e+02   9.349528068614e+01   1.559585154204e+01 
7 1  6.370853687552e+01   6.924497146873e+01   5.208317503467e+01 
8 1  1.080196755602e+02   8.736034368065e+02  -2.991632962004e+01 
8
 Atoms. Timestep: 31000
1 1  3.850814310900e+02   4.515296187461e+02  -2.163199276847e+02 
2 1  8.819609009802e+01  -2.120468347003e+02  -1.069619241921e+02 
3 1  1.693584889290e+01   5.990827977080e+02   1.120650181237e+02 
4 1  8.524518749162e+00   1.162521071664e+02   5.430132314542e+01 
5 1 -1.260103099588e+02   4.079020089391e+02  -1.758645553720e+02 
6 1 -2.442548017917e+01  -1.899569669858e+02   1.086461743315e+02 
7 1 -9.096858771854e+01  -2.484355284155e+02   1.082941376044e+02 
8 1  3.629414621522e+02   3.818251704654e+01  -2.739822475288e+01 
8
 Atoms. Timestep: 32000
1 1  2.232808921938e+00   1.434490022745e+02  -1.198012652674e+02 
2 1  6.097805773834e+02  -4.323176879796e+02   2.723328486823e+02 
3 1 -9.046473981539e+01   1.298966381581e+02   6.347413056763e+02 
4 1 -7.000360246768e+02  -1.218618008214e+02   1.644964068080e+02 
5 1  1.048528492599e+02   2.569714757151e+02   8.279419216611e+01 
6 1 -1.184310716076e+02  -6.399215242112e+01  -1.515228431241e+02 
7 1 -4.956679291029e+02   5.999589769963e+02  -9.098350216315e+01 
8 1 -6.694397642885e+01  -1.785215118163e+02  -1.844714993620e+02 
8
 Atoms. Timestep: 33000
1 1 -1.639701007957e+02   1.852973549529e+02  -2.561842073970e+02 
2 1  3.852337628128e+00   4.427756520478e+02  -6.149711822822e+01 
3 1 -3.032400328379e+02   3.283908673536e+02   1.108634042353e+02 
4 1 -4.291013714488e+02  -3.210008571545e+02  -1.454931240892e+02 
5 1 -2.795931165243e+02  -3.997955997650e+01  -7.366413711998e+00 
6 1  2.660441495503e+02  -2.299519148701e+02  -1.140078030587e+02 
7 1 -3.697370926152e+01  -3.259663266818e+02  -4.027043408781e+01 
8 1  1.769198831572e+02  -5.908342231233e+01  -7.656754543685e+01 
8
 Atoms. Timestep: 34000
1 1 -3.623359056141e+01   3.712478466467e+02  -2.706529117802e+02 
2 1  2.991284433233e+01   2.156418312229e+01   1.594926171138e+02 
3 1 -7.037246900092e+02  -8.399020232269e+01   2.598108121172e+01 
4 1  9.589552613910e+01  -4.154852716269e+01  -3.818049502727e+02 
5 1  1.482988102768e+02  -3.199671886839e+01  -5.879071811072e+02 
6 1  4.218250450908e+02  -1.861879694028e+02  -4.873847680097e+01 
7 1 -5.661761000778e+02  -1.728113566489e+02  -9.409066214560e+01 
8 1 -2.266025420092e+02   4.084067596920e+02  -1.169987644658e+02 
8
 Atoms. Timestep: 35000
1 1 -1.860025643756e+02   3.265096319869e+02   2.237850322926e+02 
2 1 -1.730755049105e+01  -1.898154079997e+02   1.219023026267e+02 
3 1 -1.636135602944e+02  -1.224718144623e+02  -1.433523907875e+02 
4 1  2.736356698499e+01   1.542458345718e+02  -6.893449800782e+01 
5 1  1.308491574296e+02   4.257287933518e+01   5.607613527460e+01 
6 1  1.254993253291e+02  -9.954132164910e+01   2.906837517833e+02 
7 1 -1.910886889713e+02   1.455298998493e+02   1.833991486014e+02 
8 1 -9.387054221623e+01   2.575495260751e+02   4.324011434554e+02 
8
 Atoms. Timestep: 36000
1 1  6.741426987526e+01   2.114719367841e+02  -1.861439720414e+02 
2 1  8.264323733275e+01   2.782713150402e+02   8.169030035952e+01 
3 1  1.154961137581e+00  -2.014619767232e+01  -6.891323414765e+02 
4 1 -1.951707321777e+02   6.806153984463e+00  -3.742093397618e+02 
5 1 -1.916937385528e+02   3.034517194373e+02  -3.093125664436e+02 
6 1 -1.451196312035e+02   6.217581719288e+00   1.384508683812e+02 
7 1 -4.542354179531e+02   1.880416345991e+02   6.317555007098e+02 
8 1  3.191727679251e+02  -4.897396107351e+02   8.837778242813e+01 
8
 Atoms. Timestep: 37000
1 1  4.237887046884e+01   7.634222067760e+00  -1.660617666644e+02 
2 1  7.365248103023e+01   6.478473560037e+01   1.123140551543e+02 
3 1 -2.348268192951e+02   3.323660957601e+02   4.784114303067e+02 
4 1 -2.311849797827e+02   5.945422050757e+02  -4.845022473571e+02 
5 1 -1.207410472840e+02   9.562062547792e+01  -2.694886532574e+02 
6 1  3.066258228358e+02  -2.398789932614e+02   2.961871461001e+02 
7 1 -1.804520225514e+02   8.958941785644e+01   4.468254581493e+01 
8 1 -4.887292316980e+02  -2.769194261625e+02   8.573532296128e+01 
8
 Atoms. Timestep: 38000
1 1 -4.558347867690e+01   4.086937119839e+01   1.911527769561e+02 
2 1  8.717965905324e+01  -5.041197982149e+02   9.690164144491e+01 
3 1 -1.903309941813e+02   1.349793754186e+02  -5.795175398959e+02 
4 1 -1.247529900885e+02   3.492906432614e+02  -4.500575538960e+01 
5 1  7.856415084971e+01   8.390374797301e+01  -4.708163022319e+02 
6 1 -2.950775315965e+02   3.135321252484e+02  -7.341603320112e+02 
7 1 -6.887977466138e+01   1.669626180226e+02  -3.280217316955e+02 
8 1  1.968261943354e+02   1.034140803214e+02  -2.304295689066e+02 
8
 Atoms. Timestep: 39000
1 1  1.919535033459e+02  -4.828536581786e+01  -2.883612335910e+02 
2 1  2.384584996894e+02   2.727430403922e+02   2.587643159043e+01 
3 1 -1.073105878134e+02  -3.146232921240e+02   2.499114753835e+02 
4 1  7.521731049253e+01  -2.391456372576e+02  -1.509498305982e+02 
5 1  5.972728093926e+02  -6.236494074751e+01   7.820126400475e+01 
6 1 -2.448188875239e+02   2.339295914027e+02  -3.022731656702e+02 
7 1  1.221049803117e+02   2.148111592202e+02  -4.168783610739e+01 
8 1 -1.690338803351e+02  -2.742709721854e+01  -2.187368855484e+02 
8
 Atoms. Timestep: 40000
1 1 -1.047239460163e+02   2.642241051235e+02   2.377776873445e+02 
2 1 -2.705353283978e+02  -3.921484911914e+02   5.535093549570e+02 
3 1 -4.638894046678e+01  -9.411913530746e+01   2.479001304157e+01 
4 1 -3.781330968117e+01  -7.753633160226e+01  -7.275616444294e+01 
5 1  1.557778718497e+02   6.897467511197e+01  -1.081668872226e+02 
6 1  3.302799400347e+02   2.356531642502e+02   6.374799167840e+01 
7 1 -5.566835127623e+02  -2.659454327353e+02  -1.151361105075e+02 
8 1  7.703232428497e+01  -1.315638220919e+01   2.854252059834e+02 
8
 Atoms. Timestep: 41000
1 1  4.184619435374e+02  -1.078116730910e+02  -1.386368463267e+02 
2 1  4.153167171728e+02   2.441804983341e+02   1.833880536352e+02 
3 1 -2.049843520167e+02  -5.323654269500e+02   1.650559452506e+01 
4 1  8.132874434571e+01  -5.070769967860e+02   4.546373883000e+02 
5 1  3.953549138138e+02   3.888739267874e+02  -1.448366543269e+02 
6 1 -3.970321374619e+02   5.440360418756e+02   1.310965585404e+02 
7 1 -1.337107261808e+02   2.589460442171e+02  -1.354425171004e+02 
8 1 -3.983598698329e+02   1.810078416578e+02   1.719595862601e+02 
8
 Atoms. Timestep: 42000
1 1 -1.091282554504e+02   7.789921467979e+01   1.128121498892e+02 
2 1 -3.673834328554e+02   3.416353092029e+02   1.855439024125e+02 
3 1  2.387457479817e+02  -3.808247075598e+02   2.429517335751e+02 
4 1  9.336440647338e-01   1.595150911068e+02  -2.012900757087e+02 
5 1 -6.083100637242e+01   2.041058706302e+02   2.092856990289e+02 
6 1  1.984055113395e+02   1.706942583867e+02   1.948800670020e+02 
7 1 -3.641558269942e+01   2.046888108545e+02   5.330105194482e+01 
8 1 -7.730031729935e+01  -2.906391822414e+02   4.412148941370e+02 
8
 Atoms. Timestep: 43000
1 1 -1.307178637776e+02   1.621686962192e+02  -5.352605686679e+02 
2 1 -2.341673913992e+01   1.159349084321e+01   2.629116781963e+02 
3 1  2.510436290643e+02  -3.068545741237e+02  -1.121030814869e+01 
4 1  2.962944647759e+02   3.097324562030e+00  -2.884650833765e+01 
5 1  8.625828831738e-01   1.150478963864e+02   1.569944277947e+02 
6 1  4.528892438176e+02   2.377765297550e+02  -2.621950487455e+02 
7 1  1.256149908495e+02  -8.132223794701e+01   1.109369807407e+02 
8 1 -2.844736044003e+02   8.307563102854e+01   4.228461890640e+02 
8
 Atoms. Timestep: 44000
1 1 -3.906704284433e+02  -1.685651283165e+02   4.074155609094e+02 
2 1  3.877316900983e+02  -2.088094179222e+02  -3.905192393583e+02 
3 1  2.469664214649e+02  -6.278728656443e+01   9.183510796410e+01 
4 1 -3.536963693703e+01  -5.771441150217e+00  -3.246785225625e+01 
5 1  2.035202833767e+02  -2.937114650769e+02   2.220482769201e+02 
6 1 -7.983847037866e+01  -1.532654729443e+02  -1.156158351548e+02 
7 1  5.298283657573e+01  -6.155495421648e+02  -3.723266788289e+01 
8 1  2.951096339140e+02   2.340127669240e+02   1.766614837249e+02 
8
 Atoms. Timestep: 45000
1 1  8.466258096982e+01  -1.476832401823e+02  -2.171617808307e+01 
2 1  1.660917949019e+02   1.114227657402e+01  -1.321496905152e+02 
3 1  1.027195973563e+02  -2.586858102526e+02  -5.336161386193e+02 
4 1  3.206028283719e+02  -2.134866453100e+02  -2.993405786200e+01 
5 1  6.648876755824e+02  -3.806116952234e+02  -6.440725257078e+01 
6 1  5.077818898511e+02   4.005097676923e+01  -1.026937153892e+02 
7 1  1.468727632264e+02  -2.964609235057e+02  -1.638543514869e+02 
8 1  8.803138744965e+01  -3.127169435115e+02  -6.287654685627e+01 
8
 Atoms. Timestep: 46000
1 1  1.729944400891e+02   8.395549615240e+00  -5.689825414618e+01 
2 1 -3.723294867296e+02  -5.890627476514e+01   2.248038446783e+02 
3 1 -2.222415525868e+02   2.560493413705e+02   5.820870686238e+02 
4 1 -1.829416599858e+02   4.450760181189e+01   2.477321410335e+02 
5 1 -5.734412715081e+02   1.208476945655e+02  -1.442348488770e+02 
6 1 -3.750837893215e+02   2.290490287793e+02   1.944269425061e+02 
7 1 -9.598592643145e+01   5.081943905548e+02   1.857740475477e+02 
8 1 -1.140560674407e+02   3.848649962089e+01  -6.315274738649e+02 
8
 Atoms. Timestep: 47000
1 1  7.178774242581e+01  -1.136485282883e+02   1.099389817963e+02 
2 1  1.043994637046e+02  -6.147003022404e+02  -1.176899571414e+02 
3 1  3.520083373986e+01   1.875307375671e+02   2.828610234911e+02 
4 1 -1.219985200478e+02   1.538433274172e+02  -2.411956930255e+02 
5 1  1.421476541654e+01  -1.495886602005e+02   2.524084512482e+02 
6 1  2.262214668153e+02  -4.767944699071e+01   6.234556110325e+01 
7 1 -4.976950065135e+02   7.097592820815e+01  -1.835337667410e+02 
8 1  3.172702517911e+02  -8.013966684960e+01  -6.393068412379e+01 
8
 Atoms. Timestep: 48000
1 1  4.626479694844e+01  -3.683032740543e+02  -3.085384683876e+02 
2 1  3.376868427736e+02   4.474983920296e+02  -1.384483671409e+02 
3 1  1.303307067850e+02  -6.790556449754e+01   2.293554034109e+02 
4 1 -1.268959048108e+02  -2.023513495882e+02  -3.592580513140e+01 
5 1 -2.095770724637e+02  -2.269436598366e+02   4.623369011619e+02 
6 1 -1.154487437054e+02   1.821155075493e+02  -2.654932695847e+02 
7 1 -3.253521901479e+02   4.078250350638e+01  -1.497829672160e+02 
8 1  3.335119770661e+02  -6.154950889889e+01   2.066464429782e+02 
8
 Atoms. Timestep: 49000
1 1 -7.253398434223e+02  -1.075274549148e+02   3.468194288645e+02 
2 1 -1.998512247876e+02   1.780977924689e+02   1.212324025423e+02 
3 1 -1.771651037922e+02   2.669930562017e+01  -5.030381281122e+02 
4 1 -7.475544808434e+01   1.392876917321e+01   2.304450127221e+02 
5 1 -1.517738204449e+02   3.360028380933e+02   2.718690176465e+02 
6 1 -1.776684044078e+02  -2.543478854804e+01  -4.608180847477e+02 
7 1  2.309830963698e+02   2.000903528134e+02  -7.081267847300e+01 
8 1 -6.672184284615e+02  -7.885094430943e+02  -3.517227385407e+02 
8
 Atoms. Timestep: 50000
1 1 -2.417450594007e+01  -3.951093757748e+02   7.930862993553e+01 
2 1 -4.137599220782e+01   1.737230096318e+02  -1.534165575821e+02 
3 1  2.083143829236e+01  -1.628782675584e+02   3.991645725513e+02 
4 1 -9.592031061787e+01   3.572895951802e+02   1.060138174606e+02 
5 1 -2.377558764382e+01  -3.345967123254e+02   7.324495127839e+01 
6 1  2.017675367613e+02   1.581504843529e+02  -3.651696503555e+02 
7 1  3.758181398805e+02   2.856864840520e+01  -6.621196389002e+02 
8 1  9.676996930625e+01  -1.833708277714e+02  -2.761745481320e+02 
8
 Atoms. Timestep: 51000
1 1  4.110294405592e+02  -3.768219945696e+01  -1.068947441420e+02 
2 1 -2.208604619602e+01  -5.122174900386e+02  -3.113668317686e+00 
3 1 -7.105048534167e+02   3.087765941869e+02   9.515029608878e+01 
4 1  2.626135603109e+02  -8.271029894464e+00   2.304106615807e+01 
5 1  3.936788147210e+00   1.019238793324e+02   2.429619448071e+02 
6 1 -1.900455725563e+02   2.067572356709e+02  -1.845452352089e+02 
7 1  1.668707138453e+02   7.894915260123e+01  -1.758853513987e+01 
8 1 -3.535769315812e+01  -3.184821507164e+02   3.008432277668e+02 
8
 Atoms. Timestep: 52000
1 1  1.489512902832e+01  -3.422664398538e+02  -3.895239114077e+00 
2 1  3.987921294563e+02   7.824601530980e+01  -1.116023711627e+02 
3 1 -3.073319190900e+02  -4.285577221931e+01  -3.430984957824e+02 
4 1 -5.687623870449e+02   1.838314115467e+02  -6.965813396627e+02 
5 1 -1.869095810761e+02  -3.411327558409e+02  -8.713225493537e+02 
6 1  1.227576588438e+02  -1.910801509739e+02   1.070623999529e+02 
7 1  1.359558858645e+01   4.286883134487e+02  -3.460781702475e+02 
8 1  3.303303922528e+02   1.965319271729e+02   4.235016249152e+02 
8
 Atoms. Timestep: 53000
1 1 -2.332417177829e+02   2.078178020584e+02  -2.250373449638e+01 
2 1  3.828399356517e+02  -1.837327764534e+02   4.983211451201e+01 
3 1  7.776773047015e+01   4.362823278988e+02   3.763673720949e+02 