8
 Atoms. Timestep: 0
1 1 -1.617009810547e+02   3.499836431780e+02   9.670322036942e+01 
2 1  6.579416937860e+01   2.280060486291e+02  -1.582839607652e+02 
3 1 -6.135575297045e+01   6.867441165061e+01  -2.235871020339e+01 
4 1  3.367717746942e+02   6.945229931662e+01   5.895565159453e+02 
5 1 -1.941750986483e+02  -3.959948441136e+02   1.451362027938e+02 
6 1 -3.561674960723e+02   2.371270333453e+02   4.390690026849e+01 
7 1  6.398257805213e+01  -3.981415810091e+02  -1.052703156695e+02 
8 1  3.094942320484e+02  -9.294175695775e+01   8.728695809416e+00 
8
 Atoms. Timestep: 1000
1 1  1.932629099752e+02   3.683044331572e+02  -8.382875594158e+02 
2 1  3.152760143186e+02   1.122830717263e+02  -2.414161063197e+02 
3 1  2.234662421322e+01  -6.787811049058e+01   3.409804266446e+02 
4 1  2.405891201925e+02  -2.508175217868e+02  -1.680612511651e+02 
5 1 -7.302734745957e+01  -4.534030865642e+01  -7.605159908833e+01 
6 1  1.635589021034e+02   7.418532472608e+02  -3.505052461601e+02 
7 1 -5.083885485134e+02   5.821993613540e+02   1.994504762156e+02 
8 1 -3.348061610960e+02  -1.615300036136e+02   3.928362738736e+02 
8
 Atoms. Timestep: 2000
1 1 -3.999587314828e+02   2.582580647658e+02   2.586026273242e+02 
2 1 -4.600672571427e+00   2.505455813462e+02   1.347540390034e+02 
3 1 -7.625529512019e+01  -4.030267815393e+02  -2.230037384446e+02 
4 1  4.131188357699e+01   3.084332061851e+02   1.632670539514e+02 
5 1  4.110816954872e+02  -3.690473954997e+02  -2.478796032044e+02 
6 1  4.084025521336e+01   6.230427446807e+01  -9.640376219059e+01 
7 1 -1.625192892716e+02   3.919383258276e+02  -2.155204599649e+02 
8 1  4.126725679424e+02   5.258002793064e+01  -3.014209269793e+02 
8
 Atoms. Timestep: 3000
1 1  5.223708354619e+01  -1.440665320244e+01   3.831951906743e+01 
2 1  3.236398887684e+02  -3.891897608581e+02  -3.805729535528e+02 
3 1 -2.338970805534e+02  -1.348820123180e+02  -9.528781002736e+01 
4 1 -1.117607977800e+02  -1.487896770015e+02  -1.917148948646e+02 
5 1 -6.656527471802e+01   1.234906588309e+02  -5.780596611905e+02 
6 1  1.381884687774e+02   1.499218056828e+02   1.647768532853e+02 
7 1 -9.729026578853e+01   4.210195196341e+00  -1.726981283531e+01 
8 1  5.426017951726e+01   1.922034831292e+02  -4.356381123460e+02 
8
 Atoms. Timestep: 4000
1 1  4.573471397665e+02  -1.997600875256e+02  -1.055501985193e+02 
2 1  4.068285368810e+02  -1.624590887221e+02   1.432613235313e+02 
3 1 -4.729234883981e+02  -3.073834836951e+02  -1.868256296162e+02 
4 1  1.161711072632e+02   6.388930681745e+01   6.813283654182e+01 
5 1  1.298722366282e+02   2.142101146606e+02  -2.043333673595e+01 
6 1 -1.042748647780e+02   2.298288435686e+02   4.714996817990e+02 
7 1 -2.159090771365e+02   2.266696753995e+02   1.779377477240e+02 
8 1 -4.321837465324e+01   2.617925097961e+02  -5.665801713066e+00 
8
 Atoms. Timestep: 5000
1 1 -2.355082793500e+00  -8.210896632908e+02   1.190622003955e+02 
2 1 -1.383524221259e+02   5.709366518031e+02   3.762689355102e+02 
3 1  1.207527495203e+02   1.747756254513e+02  -6.733702476558e+01 
4 1 -5.282658974910e+02  -1.116085911199e+02  -4.006477765624e+00 
5 1  2.228151667111e+02  -3.026490814993e+02  -8.267981245363e+01 
6 1  2.027034865618e+02   6.051856369258e+02  -2.349478097689e+02 
7 1 -3.302693375313e+02   3.685080556943e+02  -1.376465334016e+02 
8 1 -4.833842785671e+01  -2.591487629642e+02   1.873453418258e+02 
8
 Atoms. Timestep: 6000
1 1  3.389148372350e+02  -2.477245634551e+02  -7.972469574269e+00 
2 1  2.023683121865e+02  -2.228958939477e+02  -4.240557244695e+01 
3 1 -3.222204083991e+02  -1.108474048357e+02   4.929398103665e+02 
4 1  1.913384310580e+02   2.760475187172e+02   2.200309826728e+02 
5 1 -6.037197759972e+02   2.619811423539e+02   4.971090141395e+02 
6 1  3.033136474910e+01  -4.913857592201e+00  -5.069915002327e+02 
7 1  1.137204523566e+02   9.072302893207e+01   2.637613821502e+02 
8 1 -2.140927835314e+01   1.285418950531e+02  -6.425414102516e+02 
8
 Atoms. Timestep: 7000
1 1  2.226076178168e+02   3.725730527451e+02   2.030353984164e+01 
2 1 -5.467878383812e+02   4.377571879806e+02   4.129319900843e+02 
3 1 -4.522967974659e+01   1.141385137134e+02   1.922670890473e+02 
4 1  5.463187709677e+01  -1.819678568485e+02  -2.698372315061e+01 
5 1  1.187048939230e+02   2.551577831849e+02   8.004522598075e+01 
6 1  1.883781019025e+02  -5.613862398104e+02  -4.554968718532e+01 
7 1  3.991721351248e+02  -3.231051283246e+01  -4.160826329703e+01 
8 1  3.881193776267e+02   1.089644736048e+00   1.474239589232e+02 
8
 Atoms. Timestep: 8000
1 1  2.893722367350e+02   5.923119501320e-02  -5.827050931687e+01 
2 1 -1.386693921477e+02   2.779172469731e+02   4.025755177456e+02 
3 1 -3.049221011368e+02  -1.381689464552e+02   7.125337085814e+01 
4 1  2.368520678063e+02   1.673230686355e+02  -4.131290973658e+02 
5 1 -2.053525781241e+02   5.028531163771e+02  -8.759277525379e+01 
6 1  4.102569882010e+01   1.567416267086e+02   4.506947800272e+02 
7 1 -3.998609879911e+02  -1.370834235069e+02  -2.609095240149e+02 
8 1  6.616953120499e+01  -5.486760954801e+00  -2.242503772728e+02 
8
 Atoms. Timestep: 9000
1 1 -5.718563100070e+01  -1.522848666642e+02  -1.915172251418e+02 
2 1  2.090237682134e+02   4.187619814468e+02  -1.918962410413e+01 
3 1  5.982215756139e+01  -5.121997588010e+02  -1.091979114591e+01 
4 1 -1.607462649181e+02  -1.341447456940e+02   3.840555915566e+01 
5 1 -6.125209249347e+02   5.001720085137e+01  -1.989515800423e+01 
6 1  6.316885942700e+02  -3.085832489322e+02  -6.000157236113e+00 
7 1  5.836655299518e+02  -3.207762489193e+01   1.911171986468e+02 
8 1 -2.995605297332e+02   7.355071126324e+02  -1.916036915550e+02 
8
 Atoms. Timestep: 10000
1 1 -3.269738769333e+01  -1.413315255840e+02   3.896353926645e+01 
2 1  1.532252105069e+02   3.113212831419e+01  -5.198624210349e+02 
3 1  3.028516196460e+02   7.873440336262e+01   1.185053059627e+02 
4 1  9.843386472565e+01   5.794476115976e+02  -1.364321626310e+02 
5 1  2.014444979661e+02  -1.072183736039e+02  -1.020707103258e+02 
6 1  1.178617235838e+02   8.854690444228e+01   2.047843469932e+02 
7 1  1.841668400253e+02   2.988873191537e+02  -8.445134544300e+01 
8 1 -7.264549984942e+01   3.772480122296e+02   4.422808143968e+00 
8
 Atoms. Timestep: 11000
1 1 -8.168368192949e+01   7.805274865713e+01  -1.744045958748e+02 
2 1  4.010474070678e+02  -4.807807569102e+02  -1.622606738615e+02 
3 1  9.390743791003e+00   3.212381748661e+01   2.163565349719e+01 
4 1 -9.141975275540e+01  -5.080269851020e+02   1.224737068907e+02 
5 1 -2.040599047144e+02   3.813592270300e+02   3.367087010008e+02 
6 1 -4.595784252704e+02   2.335823372628e+02   2.286895786810e+02 
7 1 -5.258948785159e+01   4.163787972559e+02  -1.356240599039e+02 
8 1 -2.745100717313e+02   7.141194267996e+01  -4.621918530461e+02 
8
 Atoms. Timestep: 12000
1 1 -4.234031613263e+02   3.374954010554e+01   3.193205641887e+01 
2 1  3.834130401001e+02   1.092792765955e+02  -1.397754641146e+02 
3 1 -1.176438571376e+02  -2.989132185447e+02   7.695376384273e+01 
4 1 -3.808971722780e+01  -1.367489526800e+02   4.687235068898e+02 
5 1 -2.850168338352e+02  -1.588578701975e+02   1.122688138951e+02 
6 1 -2.632030558429e+02  -4.261731809998e+02   1.082569523960e+02 
7 1  2.706059452056e+02   4.056282121460e+02   4.782469680588e+01 
8 1 -1.696675314929e+02   3.703796532606e+02   2.481859081123e+02 
8
 Atoms. Timestep: 13000
1 1 -2.626668768304e+02   9.945671311419e+01   1.141483543562e+02 
2 1 -7.262038824899e+01   4.372533057006e+01  -1.051576308872e+02 
3 1  2.546410074096e+02   2.768685482932e+02  -3.504769407014e+02 
4 1  8.094391680855e+01  -1.571758435087e+01  -1.670537511604e+02 
5 1  4.677663229187e+01   4.891152175457e+02   2.966131447624e+02 
6 1  2.760860847336e+02  -2.057622466211e+02  -4.909731461844e+02 
7 1 -1.660304351274e+02  -8.900788649260e+01   1.166827523240e+02 
8 1 -3.721592088293e+01  -1.922214878135e+02   3.227073652766e+02 
8
 Atoms. Timestep: 14000
1 1  1.824467546287e+01  -2.164325096626e+02  -1.256683634827e+02 
2 1 -2.121037204519e+01   2.768126067996e+02  -5.004333970622e+01 
3 1  2.609272278791e+02  -9.067323279597e+01  -6.688959259425e+00 
4 1 -2.123286727592e+02  -5.197238916886e+00  -6.762529489150e+02 
5 1 -4.552463482133e+02  -1.670172744543e+02  -4.319315151618e+02 
6 1 -3.706781780918e+02  -4.446027294131e+01  -2.470839051668e+01 
7 1 -1.369443291723e+02   3.728249379517e+02   4.151918572139e+02 
8 1 -5.017950241382e+01  -1.085297421887e+02  -2.212093102231e+01 
8
 Atoms. Timestep: 15000
1 1 -1.354807788104e+02   4.897285110868e+02   1.405695810962e+02 
2 1  4.371903982762e+01   1.371031121132e+02   4.270268160020e+02 
3 1 -1.828008866565e+02  -2.698258301259e+02   3.292546306855e+02 
4 1  7.840374899377e+01  -2.779172539068e+02  -1.576013530917e+02 
5 1 -1.482311862974e+02  -1.901967810687e+02   3.461842774257e+02 
6 1  5.436035052754e+02   1.971994442198e+02   9.906124632074e+00 
7 1  1.593828169274e+02  -2.093327270910e+02  -2.734605653867e+02 
8 1 -2.772412296889e+02  -1.755648101434e+02   3.889882404008e+02 
8
 Atoms. Timestep: 16000
1 1 -4.731618709629e+02   2.638102962734e+02  -6.641418791002e+01 
2 1  1.017737298355e+02  -1.693472295690e+02  -2.648031330915e+02 
3 1  2.193565108956e+01   3.175911199508e+02  -3.887251258901e+01 
4 1  8.456987928036e+01  -3.871428131655e+01  -2.496758328147e+02 
5 1 -3.220825769936e+02   5.870259030784e+01  -3.243204494140e+02 
6 1  2.154834177701e+02   1.946919822373e+02  -4.073376953745e+02 
7 1  4.849726252845e+02   6.301192718146e+01  -5.064864181489e+02 
8 1  1.499517497532e+02   1.102077810591e+02   1.083520794025e+00 
8
 Atoms. Timestep: 17000
1 1  1.836550824717e+02  -9.291707727125e+02   1.795575979380e+02 
2 1  7.137323927146e+00   2.819837755250e+02  -1.094565411148e+02 
3 1 -3.980822173513e+00  -1.780984600289e+02   2.723727790479e+01 
4 1  1.376319235628e+02   3.394224707668e+02   2.964281923514e+02 
5 1  2.308694489218e+02   9.750550181807e+01   3.835094976763e+02 
6 1  1.281649434610e+02  -1.253781823740e+02   3.927026992278e+01 
7 1 -1.867967750067e+02  -2.187153805896e+02  -1.818097822393e+01 
8 1 -2.192285527402e+02  -3.642247811707e+02  -1.910882222123e+01 
8
 Atoms. Timestep: 18000
1 1 -9.146551795853e+01  -3.279327596169e+02  -3.568768178943e+02 
2 1  2.796335408801e+02   4.652181149403e+02  -2.553434678361e+02 
3 1 -1.076579582482e+02   3.279770117012e+02   5.611004460072e+02 
4 1 -1.036830042351e+02   1.733657493648e+02   1.238222298394e+02 
5 1  9.546028613140e+01   2.332654293362e+02   2.428353170791e+02 
6 1 -3.101849143960e+02   1.155371899972e+02  -5.702102104940e+01 
7 1  4.934195322692e+01   1.104482519814e+01  -1.803380392794e+02 
8 1  1.396823737616e+02   6.871035655972e+02  -4.177260213676e+02 
8
 Atoms. Timestep: 19000
1 1  1.852087227898e+02   2.593518378769e+02  -1.119932903394e+02 
2 1  1.556870998568e+01   1.206835619266e+02   1.871975719491e+02 
3 1  1.720024388541e+02   5.234978238231e+02   9.308848143557e+01 
4 1  1.258539851479e+02   2.434030253961e+01   1.201070728112e+02 
5 1  1.448938840489e+02   3.519186084318e+01   1.485561157159e+02 
6 1  4.713728244820e+01  -1.689515278962e+02  -2.483172713474e+01 
7 1 -7.819459902433e+01  -2.580298568197e+02   3.863415048911e+02 
8 1 -4.438781947142e+02  -2.964601083519e+02  -1.088972910303e+01 
8
 Atoms. Timestep: 20000
1 1  3.622430608450e+02   7.864283546465e+02   1.118329643258e+02 
2 1  2.561923018021e+02   2.574088306276e+02  -1.233960207006e+02 
3 1 -4.667428113446e+01   5.157848993070e+00  -5.635316917106e+01 
4 1  8.590500165606e+01  -3.172809063905e+02   3.655584970983e+02 
5 1  1.651950947292e+02   1.085143211645e+02   3.537239374699e+02 
6 1 -3.724107308334e+01  -1.140020726328e+01  -2.281426953694e+02 
7 1  1.066298753424e+02   2.030776259415e+02  -3.796919166697e+02 
8 1 -2.665311725100e+02   2.957731604074e+02  -1.705263533498e+02 
8
 Atoms. Timestep: 21000
1 1  3.903120751869e+01  -5.273638252171e+02   2.170392171163e+02 
2 1  6.425394471200e+01   2.703519375503e+02  -4.319192965185e+02 
3 1 -1.380713441643e+02   1.641554096998e+02  -3.881902880614e+02 
4 1 -1.948341960793e+02   2.876482317831e+02   1.065328838592e+02 
5 1  2.748407655103e+02   6.198243359005e+02  -7.546083447730e+01 
6 1 -2.637473054304e+02   2.278752581978e+02  -3.728487354723e+01 
7 1 -3.515267592613e+02  -2.436712517059e+02  -2.500837763198e+02 
8 1 -3.970338483146e+01  -2.275185522330e+02  -5.098642843141e+01 
8
 Atoms. Timestep: 22000
1 1 -2.555360474275e+00  -2.478706738560e+02   2.510212290038e+02 
2 1 -2.287979974966e+02  -4.469118200113e+02   2.755399391760e+02 
3 1  3.723460265180e+02  -1.674225965510e+02  -1.797516319891e+01 
4 1 -1.013394922699e+02   4.217093901697e+01   1.371215733521e+02 
5 1 -5.833265881955e+01  -1.089556346352e+02   2.951262321469e+02 
6 1  2.353217626342e+02   1.245168751996e+02  -6.328851552306e+02 
7 1  8.036463263433e+01  -2.481983289403e+02  -1.853113238610e+02 
8 1 -1.057211615484e+02   2.320112153293e+02   4.448000606436e+01 
8
 Atoms. Timestep: 23000
1 1  2.008756420316e+02  -1.306770127920e+02   1.971129563694e+02 
2 1 -4.035631003779e+02   2.938652390555e+02  -3.091625186607e+01 
3 1  3.636199831962e+02  -1.914078190165e+02  -1.975603316089e+02 
4 1 -5.896082031188e+01   2.761845528364e+02  -6.837788126002e+01 
5 1 -1.420502515146e+02   5.407155830349e+02  -5.769479973191e+02 
6 1  2.296220926934e+02   2.682922649121e+02  -1.460759508221e+02 
7 1  2.419615687038e+02   5.556027972706e+00   2.035891172657e+02 
8 1  2.986359398321e+02   3.370778946061e+02   2.065489345999e+02 
8
 Atoms. Timestep: 24000
1 1  1.073048952819e+02  -6.573187088458e+01   4.767006996254e+01 
2 1  2.239956161370e+02   3.132906759353e+02  -5.766722152100e+02 
3 1 -1.575658416001e+02  -5.201615449982e+01   3.869762203750e+02 
4 1  2.854783246158e+02  -4.849899405641e+02  -4.901374084727e+02 
5 1 -1.637258410936e+02   1.386072209019e+02   1.257223968612e+01 
6 1 -2.498833951779e+02   1.759565217814e+02  -3.719888936749e+02 
7 1  1.902680554879e+02  -2.081060411674e+02   2.991112635920e+02 
8 1 -2.704478930757e+02  -2.935980975487e+01  -5.881057511472e+02 
8
 Atoms. Timestep: 25000
1 1  1.674014063066e+02  -1.172084160088e+02  -2.209066426246e+02 
2 1 -3.732539784768e+02   5.580511977270e+01   3.056635913096e+02 
3 1 -5.247529294225e+02   1.488722983243e+02   2.261429696471e+02 
4 1  7.404934916286e+00  -1.483189973313e+02  -3.639417027679e+01 
5 1  2.174223679340e+02   1.445508259262e+02  -1.812101637448e+02 
6 1 -2.383624166353e+02  -3.856038885669e+01   1.817655329063e+02 
7 1 -3.143183551956e+02   3.736880822400e+02  -2.015994049258e+02 
8 1 -1.638271300326e+02  -5.040269121976e+01  -6.177681169969e+01 
8
 Atoms. Timestep: 26000
1 1 -3.832526013051e+00  -1.904009099232e+02  -4.249865078230e+02 
2 1 -3.495783346404e+02   1.623555050628e+02  -5.700109354096e+02 
3 1 -2.453725880576e+02   1.562520986884e+02   1.114323495050e+02 
4 1  1.794706715560e+02  -5.475233991881e+01   1.562800691510e+02 
5 1  3.264681233385e+02  -9.906899276727e+01   2.477365774264e+01 
6 1  8.212186570043e+01   3.490402875361e+02  -8.206467119626e+01 
7 1  1.444556920061e+02   1.249258708204e+02   4.744482628603e+01 
8 1  3.228720111501e+02  -1.205552991176e+02   4.505465575016e+01 
8
 Atoms. Timestep: 27000
1 1  9.889193109078e+01   2.896215526881e+01  -5.045184820696e+02 
2 1 -2.593950215978e+02  -7.930196379300e+02  -1.900768382433e+02 
3 1 -3.857881517947e+02   1.312799158315e+02   1.053388318401e+02 
4 1 -7.831291507226e+01  -1.881189991754e+02   1.218943330069e+02 
5 1 -2.084548032203e+01  -5.277522565648e+01   3.584441600398e+02 
6 1 -3.504308664483e+02   9.115660208154e+01  -5.031787019597e+01 
7 1 -3.459083611561e+02  -2.134312701576e+02   2.606710554673e+02 
8 1 -2.496724738580e+02   1.356159137419e+02  -1.951398128913e+02 
8
 Atoms. Timestep: 28000
1 1  3.755089960780e+02  -1.954980206676e+02  -5.416277484342e+01 
2 1 -5.296948969838e+02  -5.697411207887e+01   1.064311620285e+02 
3 1 -3.522680599889e+01  -4.046959911317e+02  -3.869997851217e+01 
4 1  1.033618609746e+02  -4.027552790147e+02  -1.287388231143e+02 
5 1 -1.889382447004e+02  -5.053234273014e+02  -8.741410181390e+02 
6 1  9.342315768546e+01   5.128443743655e+01  -3.639521073319e+02 
7 1  6.443411697313e+00   3.637044221600e+02  -1.549713795726e+01 
8 1  2.784321135380e+02   2.114941753016e+02  -2.607375227998e+02 
8
 Atoms. Timestep: 29000
1 1  2.009225683400e+02   2.172794578196e+02   2.213702440869e+02 
2 1 -5.638003997439e+01   9.779613802356e+01   8.906018423449e+01 
3 1 -1.062856774925e+02  -1.964699753280e+02   4.344531325277e+02 
4 1 -1.946480064984e+02  -1.784218660063e+02   4.784008612286e+02 
5 1 -1.266488873112e+02  -1.361245702945e+02   5.049808396081e+02 
6 1  3.452177933986e+01   1.193522922904e+02   2.475488944298e+02 
7 1  2.308379175043e+02  -7.257384300564e+01   1.511237836736e+02 
8 1 -3.418496950629e+02  -1.507317205646e+02   2.073149401418e+02 
8
 Atoms. Timestep: 30000
1 1  1.565249837244e+02  -4.758722552436e+02   1.035129409854e+02 
2 1 -4.701330362956e+02  -4.471799551383e+02   1.199510760512e+02 
3 1  1.525882903390e+02  -4.184182047292e+00   3.635460182501e+02 
4 1  1.673313272501e+02   5.959859338075e+02  -1.065757253582e+01 
5 1 -3.165525783568e+02   5.293612403323e+02  -3.439196754111e+02 
6 1 -4.698542246643e+01   2.929442135021e+02   3.492429406308e+02 
7 1  3.756851156783e+02   1.195398730951e+02   3.498837402077e+01 
8 1 -1.698654178418e+02  -1.305661878735e+02   1.064949644665e+02 
8
 Atoms. Timestep: 31000
1 1 -3.217610490226e+02  -5.100184378026e+02   7.280529223368e+01 
2 1 -1.153764445434e+02   2.612499278762e+02  -2.616347021945e+02 
3 1  1.419171882010e+02  -3.476647400015e+02   1.743246923980e+02 
4 1 -2.593630378640e+02   5.085879047343e+01   7.505582427761e+01 
5 1  5.337330518783e+02  -1.113291696244e+01   3.503779830608e+02 
6 1  1.296649230236e+02  -1.319105023510e+02   5.673502345573e+02 
7 1  4.054545987472e+02   2.857645857925e+01  -2.544403862338e+02 
8 1  2.904978430031e+02   2.735225072730e+02   2.860520004768e+01 
8
 Atoms. Timestep: 32000
1 1  1.498798340705e+01  -5.749775946234e+01  -1.212473286500e+02 
2 1 -1.844964898079e+02  -1.490205065389e+02   1.993112816326e+02 
3 1  2.496902043132e+02  -1.948513082366e+02  -1.091339895408e+02 
4 1 -3.266898280612e+02  -5.791681124797e+01  -1.989577379104e+01 
5 1  6.882435635783e+01  -1.465567943980e+02   5.698180093964e+02 
6 1 -1.475634279069e+02  -1.913029519055e+02   1.157533042354e+00 
7 1 -3.059836641939e+02   4.397806611483e+02  -1.149554364249e+02 
8 1 -1.351713625957e+02   1.583487439047e+01   9.979067868453e+01 
8
 Atoms. Timestep: 33000
1 1 -2.040290715655e+02   2.264895568333e+01  -1.978443551166e+02 
2 1  1.743622185810e+02  -9.372068471360e+01   2.152590669565e+02 
3 1 -1.770398435078e+02  -4.506118864753e+02   3.028573284914e+02 
4 1  3.614136140777e+01  -3.263925780150e+01   3.308432141590e+02 
5 1 -3.908631046973e+02   2.379902915196e+02   3.112736000718e+02 
6 1  1.161589746033e+02   2.088985443550e+02   9.157994343665e+01 
7 1  8.009500264020e+01   4.606270733157e+01  -3.733805983875e+01 
8 1  2.620476120409e+02  -1.148397002804e+02   4.229781776833e+02 
8
 Atoms. Timestep: 34000
1 1 -3.183147996004e+02  -6.504206719774e+01   2.159714674352e+02 
2 1 -4.191568623794e+02  -2.870480023788e+01   5.454861219796e+01 
3 1  1.301552966946e+02   2.465541397039e+02  -1.495372189432e+02 
4 1 -7.876511806293e+01   4.414106714476e+02   1.685123241899e+02 
5 1  1.805832051350e+02  -3.970106396817e+02   3.744186814865e+02 
6 1 -2.976530149106e+02   1.074517459249e+02   2.679041197631e+02 
7 1 -2.725273587995e+01   1.427655978141e+02  -3.399456881475e+02 
8 1  1.526345249112e+02   6.409198845491e+01  -1.432809807076e+01 
8
 Atoms. Timestep: 35000
1 1 -5.845593766305e+01   4.549504575857e+02   5.172698155470e+01 
2 1  1.175953209437e+02   4.370456144606e+00   2.196668714444e+02 
3 1 -4.813280636339e+02   1.152015068932e+02   1.724333399596e+01 
4 1 -9.082836210653e+01  -1.770815607071e+02   3.503946162741e+02 
5 1  1.363701050626e+02  -2.948064548407e+02   3.342831249277e+02 
6 1 -2.865247299171e+02  -9.369091865549e+01   1.737873860513e+01 
7 1  1.224410756446e+02   1.000144319552e+02   1.523399386715e+02 
8 1 -1.561923238010e+02   2.817423729703e+02  -1.471596985242e+01 
8
 Atoms. Timestep: 36000
1 1 -3.962245482248e+01  -8.380490916966e+01   3.578177082707e+02 
2 1 -2.605483328965e+02  -1.252841082787e+01   4.131268247824e+02 
3 1  1.676868141450e+02   2.802889346260e+02  -1.086533327882e+02 
4 1  1.844746296998e+02   4.025150180475e+01   2.160900475550e+02 
5 1 -2.350254471509e+02   3.673818416497e+01   2.329607026077e+02 
6 1 -1.362430496764e+02  -5.842027943421e+02   6.313095660964e+00 
7 1  1.439144384074e+02  -6.568761952647e+02   1.797528637619e+02 
8 1 -1.780723314439e+02   1.045702884425e+02   7.984618169151e+01 
8
 Atoms. Timestep: 37000
1 1  2.852833816910e+02  -3.486732953103e+02  -5.716860229672e+01 
2 1  3.936225924635e+02   3.544600389327e+01  -4.066070845921e+02 
3 1  1.013565972040e+02   1.734724541462e+02  -4.605946591097e+01 
4 1 -9.822958785845e+01   3.918864684759e+02   5.985399806888e+01 
5 1  3.270619222026e+02  -2.396714716494e+02  -1.478153503867e+02 
6 1 -1.648144958703e+02  -4.232095444963e+02  -9.690684103936e+01 
7 1 -7.102924973708e+01  -1.961878351337e+01   1.665771678308e+02 
8 1 -2.166017901941e+01   4.153946677704e+02   5.072468746233e+02 
8
 Atoms. Timestep: 38000
1 1  1.231813187860e+02   6.683179818037e+02  -9.335893661461e+01 
2 1  5.194499170877e+01  -1.802999868052e+02  -6.510784059741e+01 
3 1  3.180483555406e+02  -6.012324815328e+02   1.401059218469e+02 
4 1 -1.548238348808e+02   1.721307857318e+01   7.867619660932e+01 
5 1 -3.001311464775e+02   1.030106481695e+00  -4.361422772038e+02 
6 1 -5.922612267882e+02   3.531169598692e+02  -1.905555401177e+02 
7 1  2.783619966077e+02  -1.709673088960e+01  -7.302583970995e+00 
8 1 -6.247622301134e+01  -1.259957935697e+02   2.138876846585e+02 
8
 Atoms. Timestep: 39000
1 1 -7.719909403036e+01  -1.824957812941e+01   2.733048770998e+02 
2 1 -5.970035811687e+01  -2.831522210507e+02  -2.242956795518e+01 
3 1  5.005661687782e+01   1.641083110107e+02  -1.621958837512e+02 
4 1  3.410545364616e+02  -1.668964646818e+02   2.983185565430e+02 
5 1 -1.505632990957e+02  -5.700621988396e+02  -5.784479996433e+02 
6 1  3.625026648392e+01  -4.314030269868e+01   3.672190578443e+02 
7 1 -3.727154608583e+02  -2.887315834042e+02   8.336082283131e+01 
8 1  4.406721788884e+01   3.880292015099e+02  -1.835324379125e+00 
8
 Atoms. Timestep: 40000
1 1  2.776741385890e+02   8.247089205110e+01  -9.062326187550e+01 
2 1 -2.427886922407e+02   2.854258450749e+02   3.239382617154e+01 
3 1  2.635243286811e+02  -1.724137720632e+02   8.138834607046e+01 
4 1 -2.056684099854e+02  -1.464098663163e+02   1.975055507286e+02 
5 1  1.470849116687e+02  -2.410183372011e+02   4.415040257929e+02 
6 1  4.166172834065e+02  -2.024358256556e+02   7.574497936062e+01 
7 1  3.754739659797e+01   8.111167303033e+01  -4.311298752289e+02 
8 1 -6.768888668511e+00  -1.487181465423e+01  -1.411662696244e+02 
8
 Atoms. Timestep: 41000
1 1 -1.669972763268e+02  -3.248262725403e+01   3.509587632193e+02 
2 1 -2.072513037589e+02   4.128051009507e+02  -1.644652619407e+01 
3 1 -2.638384767543e+02  -2.422749487007e+02   1.640069269618e+02 
4 1 -3.974672951536e+02   2.324306662493e+02  -2.461830316023e+01 
5 1 -1.192832837271e+02  -1.604087960845e+02   2.394513513771e+02 
6 1 -1.102461033079e+02  -7.384604835309e+01   1.044270820759e+02 
7 1  3.171056817587e+02  -2.322128198432e+02  -4.769813891937e+02 
8 1 -5.137206202073e+02   2.212253768587e+02  -2.073822536408e+02 
8
 Atoms. Timestep: 42000
1 1 -3.544905272697e+01  -6.615934157204e+01  -2.976957789330e+01 
2 1 -2.701242847235e+02  -3.170755191601e+02  -4.849425074095e+02 
3 1 -4.552912506805e+02  -3.182383235766e+02  -2.130563841709e+02 
4 1  5.274817422299e+02  -2.121386330919e+02   3.731389279958e+02 
5 1 -9.445573702962e+01   2.929243790462e+02  -3.182491797848e+01 
6 1 -2.685291144117e+02  -8.647956605395e+02  -1.287466875106e+02 
7 1  6.701130073463e+02   3.621403861213e+02  -2.675527705831e+02 
8 1  1.824405087755e+02  -1.265222555115e+02   1.088071087487e+01 
8
 Atoms. Timestep: 43000
1 1  2.494994359061e+02  -5.116638858268e+01   3.652884699552e+01 
2 1 -6.084871774222e+02  -8.273648772126e+01  -1.398309363936e+02 
3 1  1.290763992084e+02   1.683386040750e+02  -2.013717481253e+02 
4 1  1.527408748264e+01  -1.558202667477e+02   3.466611460069e+02 
5 1 -8.215713121363e+01  -2.834407651845e+02  -4.405387715508e+02 
6 1  9.968946398952e+01  -1.289507886706e+02  -5.020232318343e+02 
7 1 -8.891548751298e+01  -6.561082576287e+02   1.046377376353e+02 
8 1 -1.208788835628e+02  -3.724989013437e+00  -1.602970157835e+02 
8
 Atoms. Timestep: 44000
1 1 -1.476745726001e+02  -3.111950038176e+02   7.834889810729e+01 
2 1  1.269896357619e+02   2.393295766203e+02   7.573872098855e+01 
3 1 -1.374951140417e+02   3.148793700991e+02  -5.215759347982e+00 
4 1 -1.307700717271e+02  -7.656313420499e+01   5.533826865763e+02 
5 1 -1.622357693618e+01   4.551204312479e+02   7.471347215109e+01 
6 1 -2.692371947261e+02  -1.826477506275e+02  -5.351796228965e+02 
7 1  1.646059269384e+02   2.297701614510e+02  -3.973232841547e+01 
8 1 -3.033965302531e+02  -1.621416242260e+02   4.174965459666e+02 
8
 Atoms. Timestep: 45000
1 1  1.386999844625e+02  -5.413032794302e+01   8.593946488847e+01 
2 1  6.029500591054e+01   3.426984889550e-01  -4.969395446263e+01 
3 1  1.283308271207e+02   5.851806762678e+01  -3.517689907915e+02 
4 1 -9.497490135161e+01   1.078401062304e+02  -1.120555608679e+02 
5 1 -8.122907093985e+01  -2.055950278022e+02  -1.489027092977e+02 
6 1 -6.007168848355e+01   2.702914096092e+02  -5.155298411667e+02 
7 1 -5.169182244970e+01   2.245719860126e+02   2.374229957230e+02 
8 1 -2.395769601007e+02   9.894249034813e+01   2.887344236443e+01 
8
 Atoms. Timestep: 46000
1 1  4.321102534307e+02  -2.590459891794e+02   2.949337990811e+02 
2 1 -1.097971680253e+02  -5.961996771619e+02   3.807889876639e+02 
3 1  7.152685757386e+01  -8.483074672449e+01   1.019015517475e+02 
4 1  3.444061517689e+02  -5.493330322872e+02   3.634080998832e+02 
5 1  6.549335916072e+01   1.323902842895e+02  -4.436702926804e+01 
6 1  9.620824625573e+01  -3.930638096388e+02  -1.422740206032e+02 
7 1  1.642244738595e+02  -5.708164681001e+01  -2.311625878321e+02 
8 1  3.152071864373e+02  -3.683494160892e+00  -9.260480802594e+02 
8
 Atoms. Timestep: 47000
1 1 -1.113107141949e+02  -2.356685190416e+02  -3.682104321895e+02 
2 1 -7.563512965286e+02   2.430340756379e+02   2.638242995371e+02 
3 1 -1.487957504242e+02   4.086365613405e+02   4.375660587395e+02 
4 1 -9.830291114248e+00   3.575339729649e+01   7.559300608925e+01 
5 1  1.936508862590e+02  -2.179721394021e+02   2.372249187384e+02 
6 1 -8.278543825925e+02  -1.563487916376e+02  -4.707172471407e+01 
7 1 -3.847334923361e+01  -5.482234704530e+00  -1.284693615031e+02 
8 1  9.310171252081e+01   2.634383403656e+02   3.703866865048e+02 
8
 Atoms. Timestep: 48000
1 1  2.807521149170e+02  -3.562161015232e+01   4.171713599981e+01 
2 1  1.703322158275e+02   2.512760400796e+02  -3.378501239463e+02 
3 1 -3.114110385540e+02   2.613884697681e+02  -5.497140810362e+01 
4 1 -4.849472708133e+01   2.971947142521e+02   5.597927161373e+01 
5 1  2.604231740405e+02  -5.563494340375e+02   3.440630896219e+02 
6 1 -4.093026868716e+02  -2.011579011963e+01   3.117750804485e+02 
7 1 -1.616958330757e+02   3.010525939919e+01   6.444372978647e+02 
8 1  1.764203771643e+02  -2.302435403048e+02   5.022711288449e+02 
8
 Atoms. Timestep: 49000
1 1  2.121717054387e+02  -7.544618592025e+01  -1.593520252674e+02 
2 1  4.701415673741e+01  -1.095498473471e+02   2.712848914107e+02 
3 1 -1.545664488194e+02  -2.036051436817e+02   3.720429725544e+02 
4 1  2.124277955967e+02   4.603734137096e+01  -1.782946815089e+02 
5 1  3.933607127141e+01  -6.335977872571e+01   2.480540909753e+02 
6 1  3.446303177339e+02  -2.077424164931e+02   2.386937289024e+02 
7 1  3.298293308977e+02  -6.038317163253e+01   3.893108670504e+02 
8 1 -3.182827793254e+02  -9.784961139708e+01  -1.606558299906e+02 
8
 Atoms. Timestep: 50000
1 1  2.743579804518e+02  -9.685929068465e+01  -4.485796489206e+02 
2 1  4.112290745107e+02   1.958728477348e+02  -4.367836896772e+02 
3 1  1.829429779263e+02  -5.517595622117e+02   1.710212367451e+02 
4 1  2.382273316233e+02  -3.124850059540e+02   2.291054898081e+02 
5 1 -2.974403498681e+02   4.463220131396e+02  -5.346874667916e+02 
6 1  5.603990136722e+00   1.840700370443e+02   3.104615414964e+02 
7 1  9.453487250645e+00  -1.654178636482e+02   1.695343876664e+02 
8 1  1.900562917793e+02  -2.627165965976e+02   5.725799920281e+01 
8
 Atoms. Timestep: 51000
1 1  1.951131589982e+02  -1.498731638403e+01  -4.403423244643e+02 
2 1  7.640087599796e+01  -4.898822355537e+02   6.333332945348e+00 
3 1  3.256886615035e+02   9.876353715812e+01  -2.263077216602e+02 
4 1  1.381108812777e+02  -2.561171611915e+02   1.030326107655e+02 
5 1  7.812311075047e+01   3.270157089684e+02  -3.036779669330e+02 
6 1  2.020744597932e+02  -3.152974594357e+01  -4.040703885083e+01 
7 1  5.893427019039e+01  -1.573577133066e+02  -3.726554058891e+02 
8 1 -1.587229808639e+01   1.368364290505e+02  -1.909907808348e+02 
8
 Atoms. Timestep: 52000
1 1  1.318196338610e+02   1.439168795032e+02  -1.492213803852e+02 
2 1 -1.853323758658e+02  -2.922804593608e+02  -6.514901907755e+02 
3 1  3.791970960053e+02  -1.399397441805e+02  -5.474248594328e+01 
4 1  6.552454302354e+01   5.059170025791e+02  -1.532134362680e+02 
5 1 -3.679404638161e+02  -1.336767961360e+02   1.175497018593e+02 
6 1 -6.486024619629e+01   1.023425256096e+02  -1.154250392393e+02 
7 1 -3.835083482892e+02  -1.507775589621e+02   8.992570085629e+00 
8 1  2.509241280123e+02   2.147035247602e+02   7.528110402586e+01 
8
 Atoms. Timestep: 53000
1 1 -1.869413665233e+02  -7.260268575924e+01  -1.267524318578e+01 
2 1 -1.967722610678e+01   3.722864683339e+02  -2.526258863641e+02 
3 1 -9.147078756472e+01   2.071521985836e+02  -5.671922105410e+02 