8
 Atoms. Timestep: 0
1 1  1.415085037505e+02   6.322842375918e+01   2.202084624276e+02 
2 1 -2.778435042451e+02  -3.138218497296e+02  -8.843962058332e+01 
3 1  1.406920592888e+02   5.562010864580e+02  -4.954259929110e+01 
4 1  1.569920420371e+00  -5.249952349313e+02   2.995119120833e+02 
5 1  1.220757322056e+02   2.716465050181e+02   3.363187634147e+01 
6 1 -2.998829803954e+01  -8.923183578220e+01   8.023695311866e+01 
7 1  3.201539551545e+02  -4.262352332529e+02  -2.720823248011e+02 
8 1 -3.041367549446e+02   3.931877029547e+01  -3.949575748481e+02 
8
 Atoms. Timestep: 1000
1 1  4.943706240478e+01   6.125234966301e+02   3.445280057493e+02 
2 1  1.140479106510e+02  -1.270157266314e+02   2.059123025259e+02 
3 1 -1.499111750641e+02  -4.328985845644e+02  -1.052844329912e+01 
4 1  5.618068486968e+02   1.555280987755e+02   1.398877367799e+02 
5 1  1.859501330953e+01  -2.066516865189e+02  -1.757315491276e+02 
6 1 -1.586600216322e+01  -2.303088552766e+02   4.287082666023e+01 
7 1  2.611096381903e+02   3.849845785764e+00   3.414627665509e+02 
8 1 -1.100503443665e+02   1.943973030421e+01   5.588168271337e+02 
8
 Atoms. Timestep: 2000
1 1 -2.327644306105e+01   1.631938695861e+02   3.308077781068e+02 
2 1 -4.591239518777e+02  -1.032911985189e+02   4.820664191618e+02 
3 1 -9.346646631476e+01  -3.081039820667e+02   4.675607078986e+02 
4 1 -4.861450251682e+01  -1.373346343837e+02   5.795738831521e+02 
5 1  1.619262393063e+01  -2.243388706663e+02  -1.677374903583e+02 
6 1  2.364735783308e+02   5.869447670832e+00   1.227307373594e+02 
7 1  3.265390290848e+02   4.824908972932e+01   2.528025610258e+02 
8 1 -3.892192831345e+02   9.222931218824e+00   1.998939217146e+02 
8
 Atoms. Timestep: 3000
1 1 -1.882700107166e+01   5.913843787790e+01  -3.824343803720e+01 
2 1  4.649771090602e+00   2.436386104470e-01  -3.769159917269e+02 
3 1 -3.625187904775e+02   3.269941209546e+02  -8.562124780534e-01 
4 1  1.443013782019e+02  -4.306048941221e+02   1.562784500732e+02 
5 1  2.185456487782e+02  -3.802236562113e+02  -1.456602867432e+02 
6 1 -3.123535347390e+02   3.716861940892e+02  -1.096129842565e+02 
7 1 -3.594138597403e+02   9.520313000276e+01  -1.398289323463e+02 
8 1  3.360610312466e+02  -2.748933351816e+02   2.747264911286e+02 
8
 Atoms. Timestep: 4000
1 1  3.401003760066e+02  -5.057675150947e+02   7.149323392515e+01 
2 1  2.384365217004e+02  -2.324188702283e+02   2.504286300243e+02 
3 1 -1.007231049941e+02  -7.639086950413e+01   8.250066576117e+01 
4 1  4.914804454628e+02  -2.604546037460e+02  -2.692531867449e+02 
5 1  4.205624647200e+02  -5.617766672113e+02   1.622773322537e+02 
6 1 -1.334793830211e+02  -3.116875353048e+01  -2.089818733668e+02 
7 1 -5.297232622974e+01  -2.066881748919e+02  -8.300083959609e+01 
8 1  1.271915623542e+02   8.633301281562e+01  -2.006843029700e+02 
8
 Atoms. Timestep: 5000
1 1 -4.036557771061e+02  -1.613077682567e+02  -7.209399921468e+01 
2 1  5.487948839719e+01  -2.485823574721e+02  -1.054297352144e+02 
3 1  4.065297426306e+02  -1.737619747039e+02   1.478514075499e+02 
4 1  2.529115098741e+01  -8.799340319417e+01  -1.385353419894e+02 
5 1 -5.152174104170e+02   8.351575782514e+01   2.542185978332e+02 
6 1  1.078605462369e+02  -1.571355304488e+02  -2.033835449620e+02 
7 1 -2.509555221836e+02   9.054243942681e+00  -4.429842072689e-01 
8 1  1.889829973785e+02  -5.118767704884e+01   1.058382056091e+02 
8
 Atoms. Timestep: 6000
1 1  3.255881987654e+02  -2.361104239488e+01  -2.840631216250e+02 
2 1 -2.823391923271e+01  -3.141384346573e+02  -9.869858751059e+01 
3 1  1.769530536383e+02  -4.742725736570e+02  -1.707600213484e+02 
4 1  1.945713479284e+02   4.145745689072e+02  -1.311859549834e+01 
5 1 -7.711154839540e+01  -1.029689784705e+02   5.390098764180e+01 
6 1 -3.949882746856e+02  -2.951487617965e+02  -3.243474309799e+01 
7 1  1.564397469267e+02   1.233519895773e+02   4.942015401225e+02 
8 1  1.098320499982e+02  -1.141233472117e+02  -1.838539794585e+02 
8
 Atoms. Timestep: 7000
1 1 -5.297957738661e+01   3.176255887559e+02  -4.548789497327e+00 
2 1  1.600481635118e+02  -1.088680975060e+02   3.575967956881e+01 
3 1  5.721794084603e+00   1.976609930301e+02  -6.157516209079e+02 
4 1 -2.293723637905e+02  -1.521945721550e+01   4.094015991396e+02 
5 1  2.266075281413e+02  -3.655686435563e+01   2.821807908385e+02 
6 1  1.749734310909e+02   2.358241620161e+01  -1.174683547049e+02 
7 1  2.989525924806e+02  -6.716007446501e+02   2.579727357936e+01 
8 1  2.133296383814e+02  -9.625258093145e+01  -1.737018149893e+02 
8
 Atoms. Timestep: 8000
1 1  7.416338457035e+01   5.832192081967e+01  -8.398490918338e+01 
2 1  2.250321833253e+02   1.864166500572e+02   1.803506814968e+02 
3 1 -6.545836382478e+02  -1.679959804626e+02   5.526386003789e+02 
4 1  1.783060588131e+02  -1.726250329494e+02   3.287354987350e+02 
5 1 -6.638374462397e+01   3.434065258217e+02  -3.969365186344e+01 
6 1  7.611343597194e+01   3.666121237589e+01   3.046856830778e+02 
7 1 -1.938919161931e+01   4.643078677746e+01   1.156386247570e+02 
8 1 -1.254758980434e+02   1.828920390059e+02   3.248085780073e+02 
8
 Atoms. Timestep: 9000
1 1 -5.501346246330e+01   7.219643093453e+02   1.183253272025e+02 
2 1 -1.607979526637e+02  -4.283691359046e+01   5.741680473131e+01 
3 1  4.242163361735e+02   3.149745940032e+02   7.094194981988e+02 
4 1 -3.770258171506e+02  -1.871846871749e+02   4.829788947583e+02 
5 1  2.728154147965e+02  -6.514039886157e+02  -4.362496198408e+02 
6 1  2.164265247840e+02   8.400779227749e+01   5.254209632572e+02 
7 1 -2.530707463002e+02  -5.597030050333e+01   2.557409822681e+02 
8 1 -1.987509477962e+02  -3.930252755522e+02  -2.899719142748e+02 
8
 Atoms. Timestep: 10000
1 1  4.769651464306e+01   1.882958868147e+02   1.295488044819e+02 
2 1 -2.216433189812e+02   4.934732591593e+02  -1.078973388064e+02 
3 1  3.020460018023e+01   5.423999187419e+02  -1.476995399717e+02 
4 1 -1.006548792684e+02   1.373165060932e+01   4.146584393163e+02 
5 1  2.052735244695e+02   3.500126389053e+01   7.606622576815e+01 
6 1  1.367891827738e+02   1.626379437188e+02  -3.409663996511e+02 
7 1  1.222748407320e+02   3.850732167097e+01  -3.028958947605e+02 
8 1 -3.362878440793e+02   3.539794287826e+02  -8.186980743142e+01 
8
 Atoms. Timestep: 11000
1 1  3.347002548859e+02  -2.069516717018e+02   3.514765549880e+02 
2 1  9.771326074552e-01  -4.203576219152e+02  -6.574057664702e+01 
3 1  2.972256897676e+01   3.164192677119e+02   7.462767290729e+02 
4 1  1.937446168035e+02  -4.209625498707e+02   4.931828642264e+01 
5 1 -1.724319950613e+02  -4.164643411549e+00  -4.294269826730e+02 
6 1 -1.474832516171e+02   3.176484204566e+02  -4.031631804355e+02 
7 1 -2.613236815574e+01   8.143085382403e+00   2.478387808083e+02 
8 1 -5.831730406765e+01  -1.975632672533e+02  -1.173480612324e+02 
8
 Atoms. Timestep: 12000
1 1  6.728405556640e+01  -4.717224060109e+02  -7.227130296862e+01 
2 1  1.019309226517e+02  -1.972329133754e+02   1.117452454519e+02 
3 1 -2.090787992476e+01   1.322069295282e+02   1.641528412900e+02 
4 1  7.314912040983e+02  -4.445154941716e+02   2.280070323976e+02 
5 1 -7.116593831219e+01   3.253005758589e+01  -1.746934310847e+02 
6 1 -1.398827707584e+02   2.474828661868e+02  -2.879451779093e+01 
7 1  2.476680771104e+02  -1.394902348834e+01   1.961319319592e+02 
8 1  4.658124490215e+02  -1.222402264808e+02   2.226779376770e+02 
8
 Atoms. Timestep: 13000
1 1 -5.712473329799e+01   1.465395525357e+02  -3.573609874213e+01 
2 1 -1.775905719366e+02  -4.862602455583e+01  -1.433372359694e+02 
3 1  5.144141188712e+01  -4.389765590081e+02   4.894293750024e+02 
4 1  5.468177526603e+01   3.414668186263e+02  -3.742701579626e+02 
5 1 -7.555104595973e+02  -1.711322027240e+02   4.331631213690e+02 
6 1 -1.018192224473e+02   9.021962329792e+01   4.795155142645e+01 
7 1 -1.180407150677e+02  -8.806604517629e+01  -4.816832105491e+01 
8 1  1.781782878762e+01  -3.674910077196e+02  -8.360425545168e+01 
8
 Atoms. Timestep: 14000
1 1  3.072208347410e+01  -3.016074541912e+02   2.341002019111e+01 
2 1  4.439304480115e+02   2.340193718276e+02   2.927933670817e+02 
3 1 -4.852629397998e+02  -2.308950729212e+02   4.118556772845e+02 
4 1 -2.310151745196e+02  -1.465527270082e+02   4.312523180696e+02 
5 1  1.941134176913e+01  -1.142432778364e+02  -1.531071789860e+01 
6 1 -6.857360576854e+02  -4.051480414341e+01  -7.528238433569e+01 
7 1  3.585973260245e+02   5.135112114940e+02   6.035627743597e+02 
8 1  3.008601524204e+00   9.069649958701e+01   3.083657589162e+02 
8
 Atoms. Timestep: 15000
1 1 -3.973309817897e+01   4.470400194358e+02  -1.817702627418e+02 
2 1 -4.117363718913e+01   5.029026413871e+01   3.585770494617e+02 
3 1 -2.393018698933e+01  -7.076343782978e+01   2.349284176297e+02 
4 1  7.515091991838e+01  -7.273292260316e-01   3.473854756171e+02 
5 1  2.807045278231e+02  -1.606718401640e+02   4.097013887719e+02 
6 1  5.717704054062e+01  -1.236320833319e+01   2.389972645441e+02 
7 1 -1.131645919174e+01   2.864761551031e+02   1.755685745110e+02 
8 1 -9.605882816513e+01   3.664628403377e+01  -1.968122640094e+02 
8
 Atoms. Timestep: 16000
1 1  3.120996012443e+02   1.870351881282e+02  -3.237375842283e+01 
2 1 -1.348982815265e+01   3.802638324381e+02  -2.502085024751e+02 
3 1 -3.008811361189e+02  -7.951869206047e+01   3.828506172391e+02 
4 1 -6.716280382466e+02   1.207948494504e+02  -2.017388017830e+02 
5 1  1.815412841512e+02  -9.119308975389e+01  -9.998035663090e+01 
6 1  1.905111487457e+02  -7.014055835071e+02   1.462621793955e+02 
7 1  1.964374904339e+02   9.321247520664e+01  -2.088037614779e+01 
8 1 -3.425441612884e+02   3.139311782705e+02   1.296500614316e+01 
8
 Atoms. Timestep: 17000
1 1  2.634849923596e+02   9.994942598296e+01   1.237305614188e+02 
2 1 -9.791386914937e+01   4.258872680577e+02  -3.269922893174e+01 
3 1  1.006899000441e+03  -3.687584453734e+02  -4.125396307375e+02 
4 1 -3.392460552257e+02  -2.740626064105e+02  -1.641743530334e+02 
5 1 -1.054731030931e+02   2.859517438209e+01   1.014037728322e+02 
6 1  1.509621627902e+02  -7.496868968728e+01   1.793120393090e+02 
7 1  4.151972770309e+02  -5.808001929971e+01  -1.848594900136e+02 
8 1  2.964907226917e+02   2.644872111664e+02  -2.168635355900e+02 
8
 Atoms. Timestep: 18000
1 1 -7.649849547398e+01   1.523142072632e+00   9.177192457232e+01 
2 1  3.478608080474e+02   1.403551380972e+01   2.270811004773e+02 
3 1  2.829987846891e+02  -2.117843226184e+02  -1.200253815650e+02 
4 1 -3.086194405971e+02  -8.603557405065e+01   4.440183385569e+02 
5 1 -2.816372351638e+01   7.177243969648e+02   5.230688489580e+02 
6 1 -3.858493202058e+02   9.647565744278e+01  -2.304584747332e+02 
7 1  4.268708967995e+02   4.567856910021e+01  -4.252208916288e+01 
8 1 -3.992063727766e+02  -2.967416520002e+02   2.055900085648e+02 
8
 Atoms. Timestep: 19000
1 1  3.717098380312e+02  -3.902333018187e+02   1.777349994689e+02 
2 1  7.311003993913e+02   3.802171493611e+02   1.849983149669e+02 
3 1  6.976248905468e+01   2.165161135043e+02   3.336618448116e+02 
4 1 -8.223079539688e+01   5.116247095383e+02  -1.071650207462e+02 
5 1  1.793255706942e+02   1.538228981365e+02   2.902658886978e+02 
6 1 -4.569981751458e+02  -6.639150338751e+01   1.173839768250e+02 
7 1  5.310826126925e+01   3.124372250799e+02   1.743318160927e+02 
8 1  1.817809197265e+01   8.636144793804e+01   3.295363399998e+02 
8
 Atoms. Timestep: 20000
1 1  2.277224643663e+01  -1.836985305273e+02  -2.707817032804e+02 
2 1 -1.301374893937e+02  -2.391899214478e+02  -2.046561828637e+02 
3 1  3.471118203823e+01  -1.544824555046e+02  -2.448827851816e+02 
4 1  2.365656737397e+02  -2.712835664583e+02  -4.030035103993e+02 
5 1 -7.967979817908e+01   1.755026581101e+02   1.719416229181e+02 
6 1 -3.502567836529e+01   1.704242522001e+02   1.829497399147e+02 
7 1  1.067950737521e+02   3.453248030153e+02   3.540109175636e+01 
8 1 -5.255847042276e+01   1.361679557807e+01  -8.819763383810e+01 
8
 Atoms. Timestep: 21000
1 1  3.012052556097e+01   2.326152320618e+01  -2.016826838622e+02 
2 1  2.897839416364e+02  -2.417918540671e+02  -2.167197641387e+02 
3 1  4.845199402628e+02   4.070110970116e+02   1.818030790852e+02 
4 1 -2.809707763051e+02  -6.721246669806e+01  -5.615787246633e+02 
5 1 -9.211164477732e+01   5.979152866483e+01  -3.526781141541e+02 
6 1 -1.739897551839e+02  -1.794368831289e+02  -1.246635126879e+02 
7 1  1.452115119229e+02  -2.803633281776e+02   1.019894474523e+02 
8 1 -4.879048520298e+02  -1.329415928186e+02   6.883533578382e+01 
8
 Atoms. Timestep: 22000
1 1  1.409114537524e+02  -6.731951783118e+02  -2.134818719933e+01 
2 1 -3.178255931483e+02  -1.117994598687e+01   1.813608260009e+02 
3 1  1.832168023082e+02  -1.163390320028e+02   2.546636627206e+02 
4 1  3.452289229798e+02  -4.308112248895e+01   9.802182209292e+01 
5 1  6.981422216753e+02  -1.855852102898e+02  -8.954983165870e+01 
6 1  1.698692579169e+02  -2.353600105830e+02  -3.085227823118e+02 
7 1  2.004237236936e+02   1.348698987079e+02   4.716906021489e+02 
8 1  4.737452354088e+02   1.060551319161e+02  -1.312534297843e+02 
8
 Atoms. Timestep: 23000
1 1  1.829809156018e+02  -2.030128901981e+02   2.489393304431e+02 
2 1 -2.163118953812e+02   5.115306960527e+01   9.044825197018e-01 
3 1 -5.668539431567e+01   2.005890364626e+02  -3.848792590892e+02 
4 1  1.227799169779e+02   3.793961573097e+02   6.575136775487e+02 
5 1 -2.136016969045e+02   1.369229144129e+02  -8.703722362623e+01 
6 1  5.164063250756e+02   3.120781719441e+02  -1.314142848816e+01 
7 1 -4.646330304823e+01   1.708526354661e+02  -4.487536758560e+02 
8 1  5.388551894034e+01   1.887643222947e+02  -1.258499130614e+02 
8
 Atoms. Timestep: 24000
1 1 -7.249180016648e+02   7.008388746414e+01  -3.689528957719e+02 
2 1  2.132285051267e+02   1.906597794975e+01   7.364330000645e+02 
3 1  6.378277823629e+01  -2.900722765316e+02  -9.945456362835e+01 
4 1 -1.022660066523e+02   3.815165272348e+02   1.229487183353e+02 
5 1  1.566924867635e+02   4.738234070212e+02  -1.881566230682e+02 
6 1  5.359096753593e+02   1.523606870133e+02   4.720005166692e+02 
7 1  1.324501977147e+02  -3.245761812882e+02  -3.862934970050e+02 
8 1  3.383131531680e+01  -1.065656868852e+02  -7.264515598520e+01 
8
 Atoms. Timestep: 25000
1 1  2.415566700101e+01   4.742573492977e+01   5.946758635817e+02 
2 1 -1.568298779334e+02   5.850401706289e+02  -1.875095435656e+02 
3 1  2.973583760211e+02  -1.532276962709e+02   1.985928045329e+02 
4 1 -1.983732045588e+02   2.459977366834e+02  -3.355208707980e+02 
5 1 -9.348532718330e+01   1.352470896784e+02   1.555513944312e+02 
6 1 -2.342283896131e+02  -3.531108545737e+01  -4.421443125584e+02 
7 1 -1.816221235172e+02  -2.243626743594e+02   2.290159446035e+02 
8 1  1.581975762364e+01  -4.214442632770e+02  -2.123462356561e+02 
8
 Atoms. Timestep: 26000
1 1  5.278305183999e+01   9.415246495515e+01  -1.789996969789e+02 
2 1 -2.996245643838e+02   5.468755516357e+02  -4.618646581084e+01 
3 1 -8.165763405950e+00  -7.063739640387e+01  -1.714760271938e+02 
4 1  3.127962669163e+02  -1.163185304619e+02   1.442647621323e+02 
5 1 -2.425117609924e+01  -9.232021380255e+01   3.595525450776e+02 
6 1  2.834219023691e+02   7.989174374680e+01  -6.174712672878e+01 
7 1 -1.566772422897e+02  -4.996415500416e+02   1.011868839395e+03 
8 1  4.735799640647e+02   3.469499362192e+02   4.733564433909e+01 
8
 Atoms. Timestep: 27000
1 1 -1.297953869080e+02  -1.152323457723e+02  -6.334464185745e+02 
2 1  3.086165064608e+02   9.367600498085e+01   1.598792400420e+02 
3 1 -2.640223212146e+02   2.557882202536e+02  -1.629495354719e+02 
4 1 -2.853656958694e+02  -6.388620324746e+01  -1.144046098173e+02 
5 1  1.342086843489e+02  -2.156655888412e+02  -3.873915244432e+02 
6 1  1.295454802712e+01  -2.872222628238e+02   3.360732087929e+02 
7 1  1.888019024372e+02  -1.933603412484e+02  -1.553811624903e+02 
8 1 -3.034569787099e+02   1.703691788851e+02  -7.784988859515e+01 
8
 Atoms. Timestep: 28000
1 1 -1.757578735375e+02  -1.279045781189e+01  -4.025129180453e+02 
2 1  2.722803244220e+01  -1.696098177318e+02  -6.417681886524e+02 
3 1  5.812317929601e+01   2.240486019808e+02  -2.188648088661e+02 
4 1  4.198290920970e+02   2.783315490516e+02   4.183314159142e+02 
5 1 -2.208724778335e+01   6.603458246984e+01   2.372268863159e+02 
6 1  1.394611904518e+02  -1.912998470549e+01   1.526071458542e+01 
7 1  2.430452005435e+01  -3.599353890124e+02  -1.869807450884e+02 
8 1 -3.962022364305e+02   1.037494650093e+02  -1.526991590159e+02 
8
 Atoms. Timestep: 29000
1 1  1.569485522960e+02   1.787224127336e+02   2.141437765075e+02 
2 1 -2.163830795085e+02  -2.126199636897e+02   2.720860968189e+01 
3 1 -1.544113439338e+02   4.569644194285e+02   7.620353745907e+02 
4 1  2.553385788333e+02   3.134370532631e+02  -3.974731948987e+02 
5 1  7.814418243089e+01  -2.805400511544e+01   5.968604731204e+02 
6 1  6.303068915179e+02  -9.802721043892e+01   8.542473763574e+01 
7 1  8.938413057066e+01   2.517015372994e+02   5.740971539278e+01 
8 1 -7.125315820253e+01   2.679979659355e+02   1.921348848912e+02 
8
 Atoms. Timestep: 30000
1 1 -1.818316524276e+02   1.728402314969e+02   1.925007887749e+02 
2 1 -3.456234508903e+02   4.661651492332e+01  -5.711612730150e+02 
3 1  5.467083266670e+02  -1.069513996662e+01   2.386183372477e+02 
4 1 -8.380087770842e+01   9.070376079889e+01  -5.599733982007e+02 
5 1  6.151167007396e+01   8.851896967895e+01  -3.033663081500e+02 
6 1  1.708794463533e+01   5.518430175970e+01   3.030866143978e+02 
7 1 -3.398896136065e+01   3.224857723956e+02   1.158338788844e+02 
8 1  3.173443526236e+02   3.354346673769e+00   1.829162267707e+02 
8
 Atoms. Timestep: 31000
1 1 -2.358331793518e+02  -3.934835499038e+02   6.644614082467e+00 
2 1  1.345978430833e+02  -2.788598630823e+02   1.995255499442e+02 
3 1  4.846938290511e+01  -5.477577279243e+01   1.671169233973e+02 
4 1 -2.487292992726e+01   4.198299331222e+00  -1.340403177773e+02 
5 1  4.375784491184e+02   3.934733955854e+02   1.221117288277e+02 
6 1 -1.020926165174e+02   4.958276907813e+02   3.535831005135e+02 
7 1  1.589839181258e+02  -2.474623943346e+02  -3.363340072106e+02 
8 1 -3.850325606358e+02  -2.017350928006e+02  -2.019885930984e+02 
8
 Atoms. Timestep: 32000
1 1 -2.506839810618e+02   5.543059402410e+02   1.223210547519e+02 
2 1 -3.021223428957e+02  -2.801778969715e+02  -5.763961746865e+02 
3 1 -6.908556214918e+02   5.299792550497e+02   8.740608625026e+01 
4 1  2.689979853245e+02   5.829125784181e+00   1.385488846321e+01 
5 1  4.715765139281e+02   2.078101975318e+02  -3.748422185245e+01 
6 1  5.800027495920e+01   2.542095204202e+02   5.968776849144e+01 
7 1  4.005868563826e+02   7.022591181033e+01   2.066474131078e+02 
8 1 -1.322806140434e+02   3.701776870694e+02  -2.146034164925e+02 
8
 Atoms. Timestep: 33000
1 1  1.961453240313e+02   1.606109874258e+02   7.112959814152e+01 
2 1  6.693027638728e+01  -6.376422318199e+02  -1.438355961472e+02 
3 1 -9.871958111251e+01  -2.486453071247e+01   1.463218875386e+02 
4 1 -1.261766966421e+02  -9.622881318479e+01   1.447619046325e+02 
5 1 -4.258609683416e+01  -1.871210384742e+02  -5.964593953383e+01 
6 1  1.878648124982e+02  -1.471962352116e+02   6.223097615741e+02 
7 1  3.919906405575e+02  -1.567468652187e+01   1.535434882138e+02 
8 1 -1.327950151822e+02  -3.052992675606e+02   4.933591303862e+02 
8
 Atoms. Timestep: 34000
1 1  1.373658132799e+02   2.945099814303e+02  -3.931813866976e+02 
2 1 -5.004944170369e+02   5.590988212138e+02   1.412948092386e+02 
3 1 -2.452974586914e+01   4.794159880821e+01  -3.213252616646e+01 
4 1  2.689971971446e+02   2.207629731803e+02  -2.069393134545e+02 
5 1 -1.240936474143e+02   1.101665447974e+02   2.500889097224e+01 
6 1  2.761032989893e+02   3.082842909190e+02  -4.245647492191e+02 
7 1 -1.910197507826e+02   3.738546816473e+02   8.508498088557e+01 
8 1  3.615557195858e+02  -3.338088107852e+02  -1.551608076547e+02 
8
 Atoms. Timestep: 35000
1 1 -1.702078051412e+02  -1.879699136751e+01   1.770806684698e+02 
2 1 -3.284372542886e+02  -6.318887321598e+01  -1.376764012783e+02 
3 1 -3.261104113660e+02   4.446481406516e+02  -2.909990270228e+02 
4 1 -3.447914637963e+02  -3.101543895539e+02   2.972635299271e+02 
5 1  2.488884887536e+02  -4.701793183836e+02  -3.500288813671e+02 
6 1  5.668868932837e+01   6.947661131727e+01   2.321208129146e+02 
7 1  1.371849682510e+02   3.803752533620e+02   1.347547037900e+02 
8 1 -1.352314895248e+02   1.933159834745e+02   2.526520170411e+02 
8
 Atoms. Timestep: 36000
1 1  3.783776525492e+01   3.892557251403e+01  -1.791689932098e+02 
2 1 -3.191966700354e+02  -3.611610395713e+01  -1.437190249333e+02 
3 1  3.853167869051e+02  -9.505023631845e-01   2.420210826689e+02 
4 1 -8.516433099104e+00  -1.140220652495e+02   3.740592707655e+02 
5 1  1.784512347486e+02  -3.447171955483e+02  -2.549689145292e+02 
6 1 -4.113100330181e+02   8.462070913161e+01   3.027389151683e+02 
7 1  1.311281948627e+02   2.551776091206e+02  -8.441973161836e+01 
8 1  2.357813865555e+02  -6.000366843291e+02   1.740844632952e+02 
8
 Atoms. Timestep: 37000
1 1 -4.848951436432e+01  -2.006086979168e+01   1.506576081116e+02 
2 1 -1.614697249595e+01   1.070083012351e+02  -2.908235918154e+02 
3 1  9.009150515037e+01   1.435999121152e+02  -6.926995350476e+01 
4 1  9.740956077696e+01   1.971320219807e+01  -4.004819211885e+02 
5 1 -1.034757422215e+02   1.147718112010e+02  -2.724433564407e+02 
6 1 -4.081511182222e+02   1.959927906181e+02   1.252599971260e+02 
7 1  2.523659909684e+02  -4.314768505723e+01  -1.075864185355e+02 
8 1  1.595655068718e+02   4.067650021332e+01   4.558124502788e+02 
8
 Atoms. Timestep: 38000
1 1 -8.800550525094e+01  -7.232877393008e+01  -1.337192891850e+02 
2 1  5.783458577978e+02   4.989375107187e+02  -9.872687366331e+01 
3 1  2.980864148401e+02  -3.102134466500e+02   1.103700759415e+02 
4 1 -3.184907465494e+02   2.321305786429e+02  -1.224677373014e+02 
5 1  5.163014429496e+02   1.279675678543e+02   8.122507960559e+01 
6 1  4.264824381942e+02   1.227827886071e+02  -1.673335943760e+02 
7 1  3.670804178358e+02  -2.434362763808e+01   5.372042912812e+02 
8 1 -2.694479915911e+01   1.019997020081e+02  -1.047976482565e+02 
8
 Atoms. Timestep: 39000
1 1 -1.767180100033e+02  -3.416101392979e+01   1.209734011529e+02 
2 1  9.584003306646e+01   4.824659646917e+02   1.474095312508e+02 
3 1  2.421450942515e+02  -1.260030515728e+02   1.469165345570e+02 
4 1  3.409903210630e+02  -6.081685044949e+00   1.041827583391e+02 
5 1 -3.515580176154e+02   9.119572630737e+01  -4.203517499696e+02 
6 1  2.087073379234e+02   1.869961201275e+02  -2.583105488319e+02 
7 1  3.853809355692e+02  -5.663295587690e+02  -2.774439578876e+02 
8 1 -1.601926876230e+02  -3.633913639698e+02  -1.346091568433e+02 
8
 Atoms. Timestep: 40000
1 1 -4.640070899019e+01   1.367217039922e+02   4.232149601703e+02 
2 1  1.773603230499e+02  -8.168022370748e+01   1.610984080481e+01 
3 1  2.118442607721e+02   2.423078423136e+02   5.953883534691e+02 
4 1  1.294858491283e+02  -7.468304477018e+01   3.186112394609e+02 
5 1  7.362553085718e+02   1.287673872018e+02   2.312528632869e+01 
6 1  2.295876981734e+02   5.186649431893e+01  -2.330646898618e+02 
7 1 -1.915433443679e+02  -2.134280139513e+02   1.045487484482e+02 
8 1  3.057115314603e+02  -1.114353268257e+02  -8.985189531980e+01 
8
 Atoms. Timestep: 41000
1 1 -3.636589259384e+02  -4.814990034641e+02   2.022137671536e+02 
2 1 -3.785755643298e+01  -8.825589033465e+01   2.697169197369e+02 
3 1  3.792625395483e+02   3.120550020870e+02   1.026633713409e+02 
4 1 -3.553195414024e+02  -6.270156379320e+01  -5.214459069779e+01 
5 1  2.726439745764e+02  -2.434490952595e+02  -4.046564793045e+02 
6 1  2.718102503752e+02  -5.772312001025e+01  -7.258780920659e+02 
7 1 -1.187626679426e+02  -1.569429947904e+01   2.194880238761e+02 
8 1  7.971186657742e+01   5.223354026343e+02   2.655734280927e+02 
8
 Atoms. Timestep: 42000
1 1 -6.214947827922e+02  -4.710938958189e+02  -1.539970127809e+02 
2 1  6.154999511460e+01   1.406661401130e+02  -9.294778365153e+01 
3 1 -9.614951311041e+01  -2.848946659390e+02  -1.126351042106e+02 
4 1 -3.083454023904e+02   2.413464805572e+01  -2.416123513544e+02 
5 1 -1.741569606806e+02   8.761143072327e+01  -4.037706781695e+02 
6 1 -5.456845506413e+02  -1.203032071496e+02   4.226599429525e+02 
7 1  6.463250337539e+01   1.639484670192e+02   5.761991826605e+01 
8 1  1.027850580776e+02  -1.368069544872e+01  -1.026127541227e+01 
8
 Atoms. Timestep: 43000
1 1 -2.357959408233e+02  -1.527794962826e+02   1.025485359098e+00 
2 1  1.520598297428e+02   2.647445403651e+02  -6.413633579212e+01 
3 1 -4.155421683447e+01  -5.913601777625e+01   7.036331829333e+01 
4 1 -6.164081682413e+02  -2.526757201157e+02  -3.874213530878e+02 
5 1  2.161607728726e+01  -5.121815523310e+02   1.481617181638e+02 
6 1  2.102509178996e+02  -5.019582190376e+02   1.327537598906e+02 
7 1  6.947572946917e+02  -4.148277540630e+02   4.066121487219e+02 
8 1  5.676681669704e+01   1.569186237773e+02  -8.928487288707e+01 
8
 Atoms. Timestep: 44000
1 1  2.175924006398e+02   3.024592221075e+02  -1.653010651842e+01 
2 1 -6.234363112030e+02   2.992722498186e+02   2.660397268012e+02 
3 1  2.177780364195e+02   8.721511669317e+01   1.952414353653e+02 
4 1 -1.661859626106e+02  -2.291768506924e+02  -2.836979484174e+02 
5 1  1.115693590519e+02  -1.537246232802e+02   5.473056528169e+01 
6 1 -1.492021293335e+02   6.353277176693e+00   3.291587111771e+02 
7 1 -1.734386349051e+02  -2.200264760545e+02  -6.220828565012e+01 
8 1  3.546328546289e+01  -1.859802997689e+02   7.163142601723e+02 
8
 Atoms. Timestep: 45000
1 1 -1.636835206352e+02  -1.448804130967e+02  -1.126581930580e+01 
2 1 -6.888968413025e+02   4.190047213462e+02  -5.623767263285e+01 
3 1  1.373092090619e+02  -1.557179925987e+02  -2.827060975433e+02 
4 1 -1.893318975052e+02  -7.997694088397e+01  -1.297953427542e+02 
5 1  1.295130023607e+02   3.077178457140e+02  -8.235304029280e+01 
6 1 -1.122374736998e+02   3.485660456491e+02   8.319768453255e+01 
7 1 -1.373975185021e+02  -2.915591280148e+02  -1.185325535013e+02 
8 1  4.272563211769e+02   6.143404952974e+01   6.426817302961e+01 
8
 Atoms. Timestep: 46000
1 1 -8.231784937132e+01   1.310071373633e+02   5.483992164515e+02 
2 1 -1.184148175859e+02  -1.044870751624e+02  -1.123869189843e+02 
3 1 -2.428725545143e+02  -4.188800929111e+02  -4.399333085758e+02 
4 1 -2.663719009573e+01  -6.102105410194e+01   1.675072910831e+02 
5 1 -5.940940363974e+02  -3.257405732134e+02  -1.216998445809e+01 
6 1  1.287545437856e+02  -3.525883837310e+02   1.380866100036e+02 
7 1  3.417320695776e+02   3.151451899782e+01  -2.421993931499e+02 
8 1  1.187822079028e+02   3.842010074200e+02  -8.546272758387e+02 
8
 Atoms. Timestep: 47000
1 1  7.865787306982e+01  -1.633132625901e+02   2.090955007702e+02 
2 1  2.196433822567e+02  -8.560599892154e+01   1.049636392889e+02 
3 1  1.722113376922e+02  -2.060948196894e+02   1.566058505742e+02 
4 1 -2.841669511315e+02   2.515959622027e+02  -1.929994054629e+01 
5 1 -4.123560685902e+02   2.491275996650e+02   3.521680525652e+02 
6 1  1.740572898375e+01   3.696511703971e+01   1.386518551068e+02 
7 1  1.606161804919e+01  -1.335368004193e+02  -4.334137131893e+01 
8 1  1.284000698917e+02   1.576743788524e+02  -4.494971821451e+02 
8
 Atoms. Timestep: 48000
1 1 -5.233258491758e+02   5.081933390057e+02  -3.436146036542e+02 
2 1 -1.729624444846e+01  -8.340891154768e+01   1.584960759355e+02 
3 1  3.616853246270e+02   1.671871723024e+02  -1.092156235462e+02 
4 1  1.120946654442e+02   1.984031117581e+01  -3.234244569707e+02 
5 1  3.602033021972e+01   2.675688055547e+02   3.221631273051e+02 
6 1 -2.277809648251e+02  -4.926983966525e+01   1.215734404417e+02 
7 1  5.476471853104e+01   4.034158194015e+01   5.028262611418e+01 
8 1 -1.702945420727e+02   1.307550938530e+01   3.548907522000e+02 
8
 Atoms. Timestep: 49000
1 1  4.435968740599e+02  -1.872903203798e+02   2.223237104862e+02 
2 1  8.792050698552e+01  -4.999509570425e+01   2.087658674958e+02 
3 1  4.013462937254e+01  -3.793339670300e+01   1.094328917531e+02 
4 1  1.614886967926e+02  -2.702502755298e+02   1.495672654790e+02 
5 1  1.288669363607e+02  -2.160824715092e+02   1.240818725255e+02 
6 1  1.825732205506e+01  -2.621227002788e+02  -3.114854569490e+02 
7 1  1.591056927662e+02  -2.371581623304e+01   3.233649208367e+01 
8 1 -6.158056471899e+01  -1.534349540692e+02   2.533026512017e+02 
8
 Atoms. Timestep: 50000
1 1  2.484691018817e+02   1.520679346574e+01  -4.653277177925e+02 
2 1 -3.198319689642e+02  -2.617462923470e+01   4.641836479114e+02 
3 1  1.026012640062e+02  -6.165107176686e+01  -4.373762616511e+02 
4 1 -6.443570246434e+02  -4.472897734367e+02  -1.984625308772e+02 
5 1  4.949722379774e+02   5.081563280763e+02   1.249408385996e+02 
6 1 -2.658142163841e+01  -6.530057175914e+01   4.468322438660e+02 
7 1 -2.680701740467e+02  -2.304756837189e+02  -3.097822748413e+02 
8 1 -1.918020098690e+02  -9.440792443508e+00   1.140665346315e+02 
8
 Atoms. Timestep: 51000
1 1 -3.907825642334e+02   1.048303758330e+01  -2.387455375450e+02 
2 1  5.352699049758e+02   1.811698412930e+02   2.255673982291e+02 
3 1 -3.221918028973e+01  -3.931703910416e+02  -2.684842610719e+02 
4 1 -3.253132801491e+02   3.149523420967e+02   1.688246917648e+02 
5 1  2.466970650897e+02  -9.233618658139e+01  -9.042805710739e+01 
6 1 -1.997179818145e+02   7.812894643016e+01   3.213848397283e+02 
7 1 -1.477460065941e+02  -1.935416410989e+02   4.271663731103e+02 
8 1  4.650134973169e+02   3.170377562482e+02   4.128961205891e+02 
8
 Atoms. Timestep: 52000
1 1 -3.543904243125e+02   2.082508828559e+02   2.436434609267e+02 
2 1  6.206224064040e+02  -3.422345947620e+02   5.992474740097e+01 
3 1 -3.310110399525e+01   1.020673928151e+02   2.707873250573e+02 
4 1 -5.428463861896e+01   1.168574929523e+02   4.167907511421e+02 
5 1  1.298418685911e+02   4.854647127162e+01   1.247231516682e+02 
6 1 -3.073410013184e+02  -3.112176579673e+02  -3.526249060168e+02 
7 1 -2.105833062259e+02  -6.726083135727e+00   5.987286147644e+02 
8 1 -2.784901602918e+01  -5.463779754745e+01  -8.334016512818e+01 
8
 Atoms. Timestep: 53000
1 1  4.153978767184e+01   3.462566611623e+02  -4.310889010084e+02 
2 1  8.963789743966e+02  -1.876752641727e+02  -5.071813803031e+01 
3 1  1.334307297619e+02   5.278727456302e+01  -2.004141559568e+02 