8
 Atoms. Timestep: 0
1 1  6.432999158367e+02  -3.750043051772e+02   1.863687949543e+02 
2 1 -2.201019873105e+02   2.464960749827e+02  -6.376381097987e+02 
3 1 -6.024538913253e+00  -1.827773412917e+02  -4.399180420284e+02 
4 1  1.026746989624e+02  -4.153192840206e+02  -1.393689401268e+01 
5 1 -9.595944750191e+01  -2.674248283274e+01  -4.487471032148e+02 
6 1 -3.988877813901e+02   3.054212219501e+02   4.208222042057e+01 
7 1 -3.199643233897e+02  -6.637035784303e+01  -1.718066721548e+02 
8 1  3.032519195824e+01   2.941914944596e+01  -2.574490654431e+02 
8
 Atoms. Timestep: 1000
1 1 -2.797304877646e+02  -9.026796784480e+01  -4.417976234792e+02 
2 1  3.017096210988e+02  -1.514368718188e+02   1.809049957875e+02 
3 1 -2.459081986936e+02   3.827853890377e+01   4.075601107437e+02 
4 1 -2.870494857591e+02   1.987219507264e+02   3.639655466484e+02 
5 1  4.680550328407e+02   1.224553415834e+02  -8.827442561472e+02 
6 1 -6.108454126347e+02   9.323358481999e+01  -2.353422463676e+01 
7 1 -2.853041749282e+02  -3.916982368356e+01  -1.467401238495e+02 
8 1  4.486977099023e+02   1.840220448208e+02   1.718810505662e+02 
8
 Atoms. Timestep: 2000
1 1  4.102281994144e+02   3.378596276663e+02   2.793198334418e+02 
2 1 -1.120876377513e+02   1.294963120646e+02  -2.509200350666e+02 
3 1  2.430718030520e+02  -1.093238083589e+02  -2.054985654051e+02 
4 1  5.466632268545e+01  -2.834744977256e+02   6.114992068747e+01 
5 1 -4.951386040564e+01  -1.795353975575e+00  -1.808922781043e+01 
6 1 -2.136252688618e+02  -1.454586131831e+02  -6.529428040416e+01 
7 1 -3.980043549479e+01   2.275819997983e+02  -4.592033234731e+01 
8 1 -5.548384391182e+02   2.523494871781e+02  -3.864954970651e+00 
8
 Atoms. Timestep: 3000
1 1 -1.937066921862e+02  -2.989976352680e+01  -1.284299390377e+02 
2 1 -8.479395593362e+00  -2.479431246279e+02  -2.220722206994e+02 
3 1 -6.113719429218e+01   4.254002958232e+02   2.821262271199e+02 
4 1  3.053076369622e+02   1.475786930099e+02  -7.152851849157e+02 
5 1 -3.060138949714e+02  -1.279648319389e+02  -5.052337088393e+01 
6 1  3.545198757030e+02  -4.676933011921e+02  -2.419985219278e+01 
7 1  3.523193976744e+02  -3.888460081573e+01   2.654784416877e+02 
8 1  2.534914287359e+01   2.593017787527e+02  -1.828306043855e+02 
8
 Atoms. Timestep: 4000
1 1 -5.026213657226e+00  -3.228533618424e+02  -6.769600111667e+01 
2 1  5.975835794908e+02   1.981306666171e+02   2.020092627964e+02 
3 1  7.235030810760e+00  -3.467470236040e+02  -2.777128536619e+01 
4 1 -2.327908859206e+02  -1.874318056953e+02  -1.452087691975e+02 
5 1  1.654090367172e+02   6.607339177062e+01   3.301691791157e+02 
6 1 -1.909668109437e+02   4.753203854760e+02  -4.922211855844e+02 
7 1 -2.600855842110e+02   2.691280701893e+02   2.741970447674e+01 
8 1  1.127612377163e+02   4.469825507552e+02  -1.568672192101e+02 
8
 Atoms. Timestep: 5000
1 1 -5.449577528432e+01   6.866070173546e+02  -5.323962307675e+01 
2 1  1.700162518835e+02   6.016978206279e+01  -1.273995491661e+02 
3 1 -2.759238975632e+02  -4.262303095664e+02   8.379503287116e+01 
4 1 -8.520476666369e+01   6.854022957093e+02  -1.218864493097e+01 
5 1  2.432859766881e+02   1.494534574195e+02  -3.223866736843e+01 
6 1 -7.761768674527e+02   3.689439790167e+02   2.508094763397e+02 
7 1  1.721258575281e+02   1.265215503407e+02   1.817161534965e+02 
8 1 -1.112777259975e+02  -5.866782413283e+01  -5.617177471841e+01 
8
 Atoms. Timestep: 6000
1 1  5.917177809823e+02  -2.178337545015e+02   2.914589412817e+02 
2 1  7.813949628321e+01  -1.378503454957e+02  -3.512071005875e+02 
3 1 -2.732923027421e+02  -3.617183910742e+01   1.501137097508e+02 
4 1  5.648163639318e+02   1.124764750266e+02   3.503338850141e+02 
5 1 -1.099233914903e+01  -3.925230888885e+01  -2.882128048974e+02 
6 1  4.898612314344e+01   2.085066144355e+02  -3.908051246896e+01 
7 1 -1.083359320271e+02   6.362970966802e+02  -2.310450592977e+02 
8 1  3.946299363342e+02   1.962405423910e+02   4.755548677183e+01 
8
 Atoms. Timestep: 7000
1 1 -2.361978185287e+02  -1.487821994417e+02   1.591897753970e+02 
2 1  2.213492755457e+02  -4.653770718667e+02  -1.099286938216e+02 
3 1  6.928886173112e+02   6.961539438623e+01  -9.562209796649e+01 
4 1 -2.834893360620e+01   1.286743443289e+02  -1.535447281617e+02 
5 1 -2.032149222641e+02  -7.332374997398e+01  -9.107865920144e+01 
6 1 -3.540964208202e+02   2.146287311944e+02   3.917909866298e+02 
7 1  2.036940480311e+02  -2.904462114671e+02  -2.090673571235e+02 
8 1 -1.027823918011e+02   3.075353354174e+02   2.567073354440e+01 
8
 Atoms. Timestep: 8000
1 1 -1.997603440153e+01  -3.218871663268e+01   1.980679780373e+02 
2 1  2.091198912323e+02  -1.047461937297e+01  -1.269376688206e+02 
3 1 -1.877844006239e+02   2.690094257632e+02   2.184042239246e+02 
4 1  3.940203448311e+02   8.767063117556e+00  -1.767787275066e+02 
5 1 -4.072399068321e+02  -2.936871514725e+02  -4.350374433213e+02 
6 1 -4.414297482467e+01   2.917585536601e+02   1.031902130866e+02 
7 1  3.203961198689e+00   7.797861236657e+01   8.644718270240e+01 
8 1 -2.477166251866e+02  -1.643303303304e+00   3.122970101859e+01 
8
 Atoms. Timestep: 9000
1 1  8.135329708836e+01  -4.751878637417e+02  -7.060092324270e+00 
2 1 -9.191100357716e+01  -3.582149455706e+02   3.864050510384e+01 
3 1 -6.181132555255e+01   1.401078314808e+02   3.059906455994e+02 
4 1 -6.156309766301e+00   7.620895428600e+01  -3.985506006358e+02 
5 1 -9.548382761323e+01   4.599366602060e+02  -4.501372366495e+02 
6 1  2.350020967304e+02  -2.996803309970e+02  -4.179266431945e+02 
7 1  1.343783451378e+01   4.095067709888e+01   3.304351626694e+01 
8 1 -2.038671135987e+02   4.407053499639e+02  -1.909701375290e+02 
8
 Atoms. Timestep: 10000
1 1 -2.794894605732e+02  -2.445605738487e+02   3.907203812206e+02 
2 1 -1.835464721684e+02   3.869512000533e+00  -2.509686783937e+02 
3 1 -4.142140146459e+02  -1.807718580645e+02   9.621038715205e+01 
4 1 -1.469430318283e+02  -9.068398986905e+01  -5.112176634625e+02 
5 1  1.076835651773e+02  -2.041795997169e+02  -3.977525088941e+02 
6 1 -2.791381318705e+02  -1.885723281174e+02  -1.174352945626e+02 
7 1 -2.109843100057e+02  -9.141489762053e+01  -5.686491126252e+01 
8 1  1.218850278195e+02   8.345832409486e+01   2.285828533924e+02 
8
 Atoms. Timestep: 11000
1 1  3.785603951042e+02  -5.754316055723e+01  -2.358210144949e+01 
2 1  2.121362370440e+01   7.508205217072e+01  -1.514619497933e+02 
3 1 -1.554347862152e+02  -2.185835326754e+02  -3.381932209407e+01 
4 1 -5.669902953319e+01   6.213928030087e+02   3.652924010597e+02 
5 1 -4.383149688467e+02  -2.824652579604e+02   3.298219843131e+02 
6 1 -3.648157800846e+02   2.059082485483e+01   1.742444234538e+02 
7 1 -6.013974441756e+01  -5.819640244922e+02   2.430461852567e+02 
8 1 -4.190760438817e+01  -3.057116769082e+02  -3.594820599566e+01 
8
 Atoms. Timestep: 12000
1 1  2.515175604560e+02  -1.706503783959e+02  -2.545115931657e+02 
2 1  5.442875086886e+01  -2.549601632994e+01  -1.138229961841e+02 
3 1 -2.189818227483e+02  -3.901535380667e+01   5.470226087113e+01 
4 1 -3.702529760083e+02  -3.330071353101e+02   2.210298728285e+02 
5 1  4.504706403220e+02   1.568957035619e+02   1.115826797528e+02 
6 1 -2.293258890745e+01  -3.272275464953e+02   4.679160397709e+02 
7 1  3.981551445435e+02   6.137790167182e+02   1.768098789774e+02 
8 1  4.975493533290e+02  -2.188639117742e+02   1.811231061492e+02 
8
 Atoms. Timestep: 13000
1 1  6.797189488190e+00  -7.577034991445e+01  -1.572293443152e+01 
2 1  1.287426772104e+02  -5.201003367642e+01   4.160477710127e+01 
3 1  4.047223258761e+02  -2.269627570932e+02   1.951607521332e+02 
4 1 -2.212477961090e+02   1.963083575482e+02  -8.069008876270e+01 
5 1  2.095765615943e+01   3.668264265084e+02   1.273598500758e+01 
6 1  3.401372850450e+02  -3.417590191735e+02  -1.268556276675e+02 
7 1  5.994961720585e+02  -3.397908786524e+01  -1.288327662840e+02 
8 1  1.855485109631e+02   5.819840266524e+01   2.771159861073e+02 
8
 Atoms. Timestep: 14000
1 1 -6.647924802354e+02  -2.052328920590e+02   5.675241960776e+02 
2 1  3.262448842330e+02   4.550819516791e+02  -2.814646662927e+02 
3 1  2.192529644443e+01   3.197317034600e+02  -4.891753780471e+02 
4 1  8.828722621116e+01  -1.555128273236e+02  -1.306209727333e+02 
5 1  2.169813184996e+02   3.930250011840e+02   3.673913763994e+02 
6 1 -1.070029745635e+02  -2.951715628996e+02  -2.510367403228e+02 
7 1 -7.455892989384e+00  -1.919639783481e+01   2.125976464387e+02 
8 1  4.724562053990e+02  -3.339168687954e+01  -1.701103990243e+01 
8
 Atoms. Timestep: 15000
1 1  2.008573547447e+02  -5.708962808323e+01  -4.498591466681e+01 
2 1  9.721904019425e+01  -1.995732152133e+02   3.245683183253e+02 
3 1  3.497952114510e+02   1.205729483632e+02  -1.783338799247e+02 
4 1 -1.298999514543e+02   7.066591231789e+00  -3.624045637421e+02 
5 1 -2.949459746441e+02   2.289482620629e+02  -1.294253910836e+02 
6 1 -3.022826439355e+01   3.216999303701e+02   9.342616143754e+01 
7 1 -7.384303451880e+01   1.663236768370e+01   4.742875336007e+02 
8 1 -5.942075133913e+01   1.325041221968e+02   5.227482043400e+01 
8
 Atoms. Timestep: 16000
1 1 -4.849870243947e+02   2.294366577269e+02   7.285852907551e+01 
2 1 -4.328229486365e+02   4.315698210555e+02  -2.014038587279e+02 
3 1 -1.803815306688e+02  -1.364269116524e+02   3.839389652794e+01 
4 1  1.544864104301e+02   1.039659164182e+01  -1.143851916115e+02 
5 1  1.454596317262e+02  -2.354097494338e+02  -5.488442247754e+02 
6 1  1.113674122308e+02   4.516717232101e+02  -3.512437911272e+01 
7 1 -8.804305064640e+01   1.010535624413e+02   3.259456186184e+02 
8 1  2.742853975083e+02   1.605167912485e+02  -2.579080311333e+02 
8
 Atoms. Timestep: 17000
1 1 -4.696396543910e+02  -5.738968269455e+02   3.222961905270e+02 
2 1 -8.254491391875e+01   7.643635556236e+01  -6.062688780676e+01 
3 1 -2.282407744843e+02   4.512669712638e+01   1.199848804151e+02 
4 1 -4.456852174810e+02  -9.278730114827e+01   5.855811558857e+02 
5 1  2.614110211148e+01  -2.108700235247e+02  -2.350431029537e+02 
6 1 -2.360924157428e+02  -3.963805402658e+01  -1.349306899005e+01 
7 1 -8.147293294034e+02   1.779186939874e+02   3.493880093663e+02 
8 1  3.585997939211e+01   8.802152958825e+01  -1.894267042269e+02 
8
 Atoms. Timestep: 18000
1 1 -1.809493010469e+02   3.789407381351e+01   3.792136227002e+01 
2 1 -1.285103761979e+02   3.740457631086e+01  -3.111759400041e+02 
3 1  2.640462817452e+01   8.195928719386e+01   5.674019456927e+02 
4 1 -3.867418427515e+02   2.493147326800e+01   8.404092179527e+01 
5 1 -1.531488400532e+02  -3.297677497026e+02  -3.656303413264e+02 
6 1  1.719628386024e+02   2.344778022523e+02  -9.833383211932e+01 
7 1  4.906024688176e+02  -1.021681821244e+02  -1.540095544093e+02 
8 1 -3.034330596928e+02   6.033850290514e-01  -7.340997105793e+02 
8
 Atoms. Timestep: 19000
1 1 -4.001525379627e+02   1.478636314446e+02   1.334173246380e+02 
2 1  1.669658175275e+02   6.080959893507e+02  -1.606670164589e+02 
3 1  1.599385534222e+02  -7.429051285448e+01  -1.277121803486e+02 
4 1 -3.690269229536e+02  -1.328481353908e+02   2.666198452633e+02 
5 1 -1.846540617585e+02  -3.891373437860e+02   3.925250845840e+02 
6 1  1.174501583728e+02   6.805928262443e+00  -3.669257976777e+02 
7 1  3.993522921986e+02  -1.681482499496e+02  -1.722528659477e+02 
8 1 -1.710541442362e+02  -6.049085110807e+02  -6.411121954551e+02 
8
 Atoms. Timestep: 20000
1 1 -3.248626015429e+02   2.308040132976e+02   2.029738111213e+01 
2 1  5.099116187869e+02  -2.664125875641e+02  -1.862116722543e+02 
3 1  2.742040590669e+02  -5.176471552859e+02  -1.179052089329e+02 
4 1  1.189434547991e+01   5.030660903987e+01  -4.170679215048e+02 
5 1 -2.580261998244e+02  -1.662032557144e+02   8.117960410718e+01 
6 1  1.863859703916e+02   3.867606851178e+02  -6.181939771370e+01 
7 1 -2.088946015056e+02   7.348813824601e+01   1.988843251341e+02 
8 1  6.692804909074e+01  -2.426134015914e+02   1.853661081324e+02 
8
 Atoms. Timestep: 21000
1 1 -5.364806181770e+02  -2.798762239868e+02   1.744564290414e+02 
2 1 -3.999555674641e+01   3.554493229325e+02   3.317820634160e+02 
3 1 -1.416144667579e+02   2.321086258557e+02  -1.497232704553e+01 
4 1 -3.499100903094e+00   7.891736644067e+01  -1.904468045563e+02 
5 1  2.100902406009e+02  -4.720789301522e+02   4.320155927114e+02 
6 1 -3.642221864670e+02   1.326377859870e+02  -1.145028477895e+02 
7 1 -4.882464970893e+01   8.840000080330e+01   5.251491031639e+00 
8 1 -4.691866282742e+01   1.200722781399e+02   2.646067335405e+02 
8
 Atoms. Timestep: 22000
1 1 -9.413770740223e+01   5.302173619365e+01  -3.630615399083e+02 
2 1  4.131301069253e+01  -2.813383927116e+02   3.607887083908e+02 
3 1 -1.110970583875e+02  -1.390441640932e+02  -5.808702566536e+02 
4 1 -2.372922270687e+02  -2.850289654300e+02   1.385748884153e+02 
5 1  3.708494903805e+01   4.814793814072e+02  -1.349452908435e+01 
6 1 -2.009798557937e+02   4.486740393803e+01  -2.383189034026e+02 
7 1  2.114306613775e+01   3.313558812023e+02   5.395407423445e+02 
8 1 -1.218440686109e+02  -2.668888293158e+02   2.332779920632e+00 
8
 Atoms. Timestep: 23000
1 1 -7.311690002781e+01   2.874787628179e+02  -4.642860389471e+01 
2 1 -9.494040517672e+01   7.285323162360e+01   3.481150297432e+02 
3 1 -1.450197397546e+01  -2.410812971690e+02  -2.618839383715e+02 
4 1  2.040555018168e+02  -5.736308285267e+02  -2.814885098670e+02 
5 1  2.386918427128e+02  -2.218907376239e+02  -2.159056128428e+02 
6 1  1.927681205727e+02   4.572226733114e+02   1.538536868544e+02 
7 1  2.145642013734e+02  -2.551243385542e+02  -1.344282478695e+02 
8 1 -2.244029726230e+02   3.410534255091e+02  -2.530125428623e+02 
8
 Atoms. Timestep: 24000
1 1 -7.252438531202e+01  -1.644631395842e+02  -2.423184160786e+02 
2 1  3.496734101334e+02  -4.881996917064e+02  -1.669257158102e+02 
3 1  2.107267038265e+02   4.212890451396e+02  -3.348263597875e+02 
4 1 -7.715358092117e+00  -3.903378848137e+02  -3.954879502134e+02 
5 1 -4.187676331409e+02  -4.043161224354e+02  -4.921162826579e+01 
6 1 -1.131595143994e+02   4.995124241177e+02  -5.718948176475e+02 
7 1  2.018981100833e+02   5.328300486057e+01   5.100419714005e+02 
8 1  1.784665668602e+02   2.770615378351e+01   2.259787807200e+02 
8
 Atoms. Timestep: 25000
1 1  1.967180728265e+02  -3.117577135435e+02   2.053430756161e+01 
2 1 -4.216192743309e+02  -3.809683597182e+02   6.913009636577e+01 
3 1  5.672630184483e+00   1.078891182346e+02   7.823850519731e+01 
4 1  2.873419093446e+02  -1.005498290044e+01   1.201172922969e+02 
5 1  3.209861506553e+02   4.090168380714e+01  -2.608466668680e+02 
6 1 -1.854825250906e+02  -1.683560653996e+02   9.161087456387e+02 
7 1  1.531439840374e+01   3.421057945100e+02  -3.777622256291e+02 
8 1  2.486314585362e+02   6.658811335921e+00   2.384158299192e+02 
8
 Atoms. Timestep: 26000
1 1  2.508778117125e+02   1.334381398549e+02   1.525574025731e+02 
2 1  7.338044269800e+01  -2.734517303541e+02  -4.619445453004e+02 
3 1  1.401502306042e+02  -1.133110240646e+01   6.704931804082e+01 
4 1 -1.604302274327e+02   1.674305594594e+01  -2.375096175435e+02 
5 1 -4.033155715299e+01   1.519302362546e+02  -3.547415309502e+02 
6 1  1.392408510228e+00   2.030827408545e+02  -1.187517724063e+02 
7 1  2.420642318268e+02  -1.766148081908e+02   1.605265267133e+02 
8 1  1.897603237811e+02   1.915401892031e+02   1.497004970653e+02 
8
 Atoms. Timestep: 27000
1 1  2.135050963538e+02   8.179650623225e+00  -1.731544287568e+00 
2 1 -2.595378655251e+02   2.557647594992e+02   2.548220993415e+02 
3 1  7.598276458814e+01  -3.429520755902e+01   2.188394548555e+02 
4 1  3.669805357480e+02  -3.766297339823e+02   3.308795279299e+02 
5 1  9.197612001413e+01  -1.246019978710e+02   6.265847104616e+02 
6 1 -1.024088423337e+02   1.599898042923e+01   2.112124206683e+01 
7 1  2.786306792996e+02  -1.427189188531e+02   1.791296027696e+01 
8 1  1.704337934180e+01  -2.110190535715e+02  -5.603348968691e+02 
8
 Atoms. Timestep: 28000
1 1  3.710952509522e+02  -7.596346207567e+01   1.355909371431e+02 
2 1  2.547625956136e+02  -2.291095888298e+02   1.625347476357e+02 
3 1 -1.599991467041e+02  -4.683002789834e+01  -2.268888676672e+02 
4 1 -8.019913719320e+01  -3.680374263424e+02  -2.130345079127e+02 
5 1 -2.853864417723e+02   9.845757841652e+01   3.836890155869e+02 
6 1 -3.115472619020e+02  -9.133225246441e+01  -3.777659677936e+02 
7 1 -1.018470289353e+02   4.254097866790e+02   3.233482801366e+02 
8 1 -1.849735597372e+02   3.709685967208e+02  -1.686658201056e+02 
8
 Atoms. Timestep: 29000
1 1 -2.342224525606e+02   1.684637048490e+02  -4.390815259836e+02 
2 1 -3.307717515459e+02   3.570259099972e+02  -1.065205648777e+02 
3 1 -4.278720825164e+02  -6.603028794604e+01   6.727204603125e+01 
4 1  1.281188770992e+02   5.336761604610e+01  -4.280094546507e+02 
5 1 -1.060976917894e+02   1.512896479255e+02   2.180816838998e+01 
6 1 -2.280322692789e+01  -1.333620600883e+02  -3.679154722145e+02 
7 1 -1.764443610731e+02  -1.708121232441e+01   5.387491373544e+02 
8 1  3.979919225360e+02  -2.978571203971e+02   5.407981508192e+02 
8
 Atoms. Timestep: 30000
1 1 -3.976248578943e+02   1.387590801344e+02   2.984666493213e+02 
2 1  1.225531684706e+02   4.174768455175e+01  -3.497221535912e+02 
3 1 -2.993466838628e+02  -2.162650184918e+02   1.217873364229e+02 
4 1  3.420036388171e+02  -2.380769103300e+02  -2.395819731580e+02 
5 1  4.192144714075e+02   2.044892841697e+02  -2.583806767646e+02 
6 1 -5.263833393518e+01   4.610285429471e+02  -5.583781222669e+02 
7 1  1.498451992190e+02   2.321662064785e+02   6.517755753531e+01 
8 1 -1.463577300280e+02  -6.411490898475e+02   3.577908786036e+02 
8
 Atoms. Timestep: 31000
1 1  4.127358842279e+02  -1.907084697788e+02   1.517419355744e+02 
2 1  4.990684974746e+01   4.795216241574e+02   3.619439342848e+02 
3 1 -2.000207301644e+02   7.559443635391e+02  -4.816596235147e+01 
4 1 -1.965913910488e+02  -2.623052906768e+02   1.348433660932e+02 
5 1 -2.283888071923e+02  -1.801561986373e+02  -1.236193917443e+02 
6 1 -1.637859971182e+02  -4.068283767042e+01  -3.921365532423e+02 
7 1 -1.529783754664e+02  -8.878178579241e+01  -3.892110055096e+02 
8 1 -3.578061530144e+02   1.754691515283e+02  -4.174538603581e+02 
8
 Atoms. Timestep: 32000
1 1  3.154466675504e+02   2.471030083823e+02  -1.157532860139e+02 
2 1 -6.565978477239e+02  -1.777140426755e+02   4.405678793417e+02 
3 1  2.211421324408e+02   2.120394600771e+02  -1.258256315193e+02 
4 1 -1.836092804330e+02   2.841350540225e+02  -1.200487426703e+02 
5 1  3.135722968093e+02  -1.031973197994e+02   7.466088703972e+01 
6 1  1.107079881478e+02   2.032804756215e+02   4.258446927774e+01 
7 1  5.015683350878e+02   1.139396698304e+02  -3.272965755834e+02 
8 1  2.599072479867e+02   1.640890004142e+02  -5.845807709483e+00 
8
 Atoms. Timestep: 33000
1 1  8.724485251362e+01  -1.646949391956e+01  -2.063297108943e+02 
2 1 -1.152066126821e+02  -3.670177932451e+02   3.679785771279e+02 
3 1  8.717685613990e+01  -6.027327073261e+02   1.143230189690e+02 
4 1 -3.322826971892e+02   6.785208091444e+02  -2.514070656988e+02 
5 1  1.391747737658e+02   3.439858895927e+02  -3.005103979297e+01 
6 1  4.454265491865e+02  -2.483952478007e+02  -2.071459637339e+02 
7 1  3.489249086158e+02  -2.957254627687e+02  -4.363626099962e+02 
8 1 -3.651203440904e+01  -9.546900567989e+01   3.123182691057e+00 
8
 Atoms. Timestep: 34000
1 1  6.943148237857e+01  -2.358387738269e+00  -3.204380108807e+01 
2 1 -2.475354158422e+02  -2.093327409244e+02   2.801719023154e+00 
3 1 -3.178551241630e+01  -4.312939703388e+02  -5.385668716393e+02 
4 1  1.166779761748e+02  -6.100685597394e+01  -4.327166888795e+02 
5 1 -3.681085979823e+02   7.676123806101e+01   5.323928122298e+01 
6 1  1.242635290762e+02  -6.023985780415e+01  -2.049775289094e+02 
7 1 -2.026437016156e+02  -1.758001016262e+02  -4.645544754999e+01 
8 1 -9.208765384817e+01   4.519298709942e+02  -2.461985152061e+02 
8
 Atoms. Timestep: 35000
1 1  4.085159246518e+02  -2.343915402848e+02  -1.453025899964e+02 
2 1 -2.348665418326e+02   5.928019608426e+01   1.100511600362e+02 
3 1 -1.611914013749e+02   2.699083656129e+02  -4.144495793966e+02 
4 1 -6.426754997628e+01  -5.271449808566e+01  -2.575297477052e+02 
5 1  9.130258689193e+01   1.301107270543e+02  -1.679879081302e+02 
6 1 -1.269423802251e+02  -5.940987608414e+01  -2.657881482634e+02 
7 1 -1.260913648414e+02  -1.979753382612e+01   6.013016920174e+02 
8 1  1.334078331964e+02   1.555991439772e+02  -4.537603254902e+02 
8
 Atoms. Timestep: 36000
1 1 -2.489530552908e+02  -7.444959043350e+01  -1.998789945663e+02 
2 1 -2.247740349107e+02   2.914371038115e+02   2.717698979474e+02 
3 1  4.622870745355e+02   3.163324280885e+02  -2.939248229085e+02 
4 1 -2.301778486169e+02   1.548403859341e+02   3.670340572143e+02 
5 1  6.075234364657e+01   1.779916268738e+02  -3.038396277880e+02 
6 1  2.763100677543e+02  -1.018968284873e+02   4.824222462172e+02 
7 1 -2.312958128011e+01   9.381289460096e+01   3.411410320015e+02 
8 1  5.840448027904e+02   2.188235797772e+01  -4.260798466486e+02 
8
 Atoms. Timestep: 37000
1 1 -2.224955052979e+02  -1.419683948649e+02   3.624850727433e+02 
2 1 -2.655521247651e+02   1.526938733145e+02  -2.610849707733e+02 
3 1  2.064190373204e+02   1.027955862686e+02   3.726455601003e+02 
4 1 -2.389276270946e+02  -2.401480509220e+02   9.971083414944e+01 
5 1  1.035664120341e+02  -2.834674548245e+02  -1.184703941644e+02 
6 1  3.007765015294e+02   4.359446847799e+01  -4.298281733405e+02 
7 1  7.809530670965e+01   1.534619573115e+02  -3.928946096052e+02 
8 1 -1.061432744232e+02  -1.697892373009e+02  -4.322115533623e+02 
8
 Atoms. Timestep: 38000
1 1  7.091252638882e+01   5.314670815598e+01  -1.387685074799e+02 
2 1 -4.158602415395e+01   3.277430004206e+02  -3.722381284584e+02 
3 1  3.023592410062e+02  -4.691218785701e+02  -3.422552367419e+01 
4 1 -7.385530342216e+02  -3.567683792217e+01   7.070232441816e+01 
5 1  1.682438695818e+02   3.649003765066e+02   2.056524371578e+02 
6 1  1.722007388678e+02  -4.266877182312e+01  -2.037794283903e+02 
7 1 -3.214989041625e+01   4.595802986632e+02   3.328692143256e+02 
8 1  1.822760538472e+02  -1.243040257111e+02  -2.554286474237e+02 
8
 Atoms. Timestep: 39000
1 1 -7.730290470101e+01  -4.496854071916e+02   1.896385499564e+02 
2 1 -1.030891416982e+02  -6.693614183962e+02  -3.478430109008e+02 
3 1 -1.274208779755e+02  -2.153230488108e+02  -1.186906035874e+02 
4 1  3.042163199456e+02   2.886528409516e+01  -2.792470422022e+01 
5 1 -4.321210405237e+02   3.402732693597e+02  -2.967208203581e+02 
6 1  4.156436090665e+02   1.349950015154e+02   1.782664866595e+02 
7 1 -6.549084486859e+02  -8.980191620199e+01   3.189243036551e+01 
8 1 -1.549162685544e+02  -3.292284505066e+02  -2.792113685151e+02 
8
 Atoms. Timestep: 40000
1 1  3.421588444328e+02  -2.666753071367e+02  -1.540329781913e+02 
2 1 -1.028453239160e+02  -1.578978404730e+02  -5.894737207629e+01 
3 1 -7.501226285634e+02  -3.016591082515e+02  -1.824997530058e+02 
4 1 -5.526468583913e+02  -1.286385381610e+02   9.564329221322e+01 
5 1  1.630827046257e+02   9.182142915407e-01   1.873740816904e+02 
6 1  3.594042486159e+02  -4.397243103692e+02   9.017418924797e+01 
7 1  2.503060985513e+02   1.942895396078e+02  -4.557259498095e+02 
8 1  1.525044971251e+02   1.985158522672e+02   6.230026870023e+01 
8
 Atoms. Timestep: 41000
1 1 -1.934128567256e+02   8.746580236455e+01  -3.494943085326e+02 
2 1  3.499963106861e+02   5.231921331904e+02  -7.034161575790e+01 
3 1  1.751142814188e+02   6.055717175724e+02  -5.341320102243e+02 
4 1  2.232697529214e+02  -1.110257706879e+02   1.237430339243e+02 
5 1 -2.423691310622e+02   1.840084081336e+00   4.663196225384e+00 
6 1  2.617821518759e+02  -4.919007942118e+01  -1.965366422265e+02 
7 1 -1.264531482089e+02  -2.175093828486e+02   2.215508819326e+02 
8 1  2.237172986881e+02   1.404459474565e+02   7.037653989369e+01 
8
 Atoms. Timestep: 42000
1 1  2.227110095899e+02   3.145479305260e+02   1.092415679689e+02 
2 1 -1.587921777921e+02   4.612189019095e+02  -2.723535686724e+02 
3 1 -1.348638199366e+02  -4.157644817901e+02   1.752343867188e+01 
4 1  8.069383314611e+01  -2.329893179964e+02  -7.980049196506e+01 
5 1  1.218792428344e+02  -1.131736599194e+02   5.738797670396e+02 
6 1 -1.876035137000e+02  -1.635220222191e+02   1.664445834935e+02 
7 1 -5.021481648749e+01   1.371392231843e+02   1.122496474949e+02 
8 1 -9.583497921721e+01   3.980181551026e+02   3.276613403247e+02 
8
 Atoms. Timestep: 43000
1 1 -8.681263807241e+01  -2.025781689405e+02  -1.492889628552e+01 
2 1  3.947045645056e+02   1.013918942533e+01   2.408769700911e+02 
3 1 -3.669995816188e+02  -3.593570459355e+02   3.671990690099e+02 
4 1  1.731989334990e+02  -8.726850673584e+01   2.183792293811e+02 
5 1  1.636676197867e+02  -2.058510469972e+02  -1.698106427114e+02 
6 1 -9.920374878503e+01   2.994832218551e+02  -2.320962691067e+02 
7 1  3.720492643769e+02  -2.091187569247e+02   1.354701229989e+02 
8 1  6.412647679545e+01  -4.110429063433e+01  -1.320740786610e+02 
8
 Atoms. Timestep: 44000
1 1 -3.643066649494e+02  -6.398645928487e+02  -1.240061112104e+02 
2 1  1.158374085015e+02   1.127619968114e+02  -2.660211182948e+01 
3 1  1.394540081798e+02   5.324170470772e+01   1.765200259564e+02 
4 1 -1.577658287884e+02   4.009552573601e+02   1.070397592378e+01 
5 1 -4.317913575616e+02  -2.307152087150e+02   2.134936128342e+02 
6 1  4.811737906789e+02   1.625080294038e+02   5.374221521562e+02 
7 1  4.180821208593e+01  -1.124224535973e+02   1.055682584027e+02 
8 1 -1.062217252882e+02  -1.355440456729e+02   5.491533162540e+01 
8
 Atoms. Timestep: 45000
1 1 -1.694467165332e+02  -1.477142303112e+00   8.112131197988e+01 
2 1  5.530649896870e+02   2.499602222260e+02   8.271806013334e+01 
3 1  2.804781627477e+02   1.606910848544e+02  -2.592155232714e+02 
4 1  4.700215350323e+01   2.272772702610e+01  -1.544696046020e+02 
5 1 -2.429151015367e+02  -5.787509166073e+01   3.301141458563e+02 
6 1 -3.270919720221e+01   1.456347103713e+02   2.030110722314e+02 
7 1 -2.241801836584e+02  -2.757666459110e+02  -5.192152519168e+02 
8 1  1.900177075132e+02   2.183415704471e+02  -1.781459615707e+02 
8
 Atoms. Timestep: 46000
1 1 -1.100222096621e+02   5.427978088926e+02   8.912570494408e+01 
2 1 -3.063653446663e+02  -9.354300468429e+01  -5.465942832130e+01 
3 1 -1.734673601137e+02  -2.204096262779e+02   8.825119133799e+00 
4 1 -1.441428717100e+02  -1.128331177893e+02   1.363214129647e+01 
5 1 -3.770075605186e+02   2.350083222132e+02  -2.817902759518e+02 
6 1 -3.182311160196e+02  -2.278712214080e+02   3.149861934890e+01 
7 1 -4.956423243942e+02  -2.305032462823e+01  -9.519629550257e+01 
8 1  5.277175483248e+01  -1.356045845438e+02  -4.507332260866e+01 
8
 Atoms. Timestep: 47000
1 1 -6.930978613051e+01  -1.974913525009e+02   1.233894492158e+02 
2 1 -2.960498191683e+02  -1.327631210261e+01   1.229111364108e+02 
3 1  7.919246924795e+01   3.829241831648e+02  -1.620115753287e+02 
4 1  1.117114803891e+02   2.708484925445e+02   3.332622099383e+02 
5 1 -1.731913721942e+02  -5.197643675972e+02   2.083256935371e+02 
6 1 -6.085332431950e+01   9.561681739029e+01   4.019668524153e+01 
7 1  4.271731609262e+02  -2.560072709626e+02  -1.856743438421e+02 
8 1  1.225683873380e+02  -1.122210284208e+02  -3.493590940058e+02 
8
 Atoms. Timestep: 48000
1 1  1.971837177467e+02   3.736799340778e+02  -3.091336939650e+02 
2 1 -5.879293148043e+01   2.114902032727e+02   3.515487606190e+01 
3 1 -6.821743946497e+00   2.363045492741e+02   4.165706755199e+02 
4 1  1.730674265711e+02   2.723040796461e+02  -5.304179563014e+02 
5 1 -2.656334171635e+02   2.282479728473e+02   2.909507009114e+02 
6 1  5.659903371724e+01  -3.815793646389e+02   3.202251446543e+02 
7 1  3.907970971816e+02  -2.100330850101e+02   3.873011832807e+02 
8 1 -3.378734143667e+02   6.218099679121e+01  -2.260849082562e+02 
8
 Atoms. Timestep: 49000
1 1 -3.555899060445e+02  -3.178977990171e+02  -5.535367692611e+02 
2 1 -6.618166630863e+01  -1.803879443211e+02  -1.435301953192e+02 
3 1 -3.967508457381e+02  -1.794886811004e+01  -2.461795996008e+02 
4 1 -2.643405010278e+02   3.824800719436e+01  -5.109078183469e+02 
5 1  1.080939908587e+01  -7.573619869005e+01   1.846754723484e+02 
6 1  4.059751507155e+02  -3.329103357027e+02  -9.560076079755e+01 
7 1 -3.199106745877e+01   3.918704042730e+02  -1.095607058576e+02 
8 1 -1.208827032188e+01  -4.053332450207e+02  -2.094710197967e+02 
8
 Atoms. Timestep: 50000
1 1  3.489668895766e+02   2.142405868714e+02   2.006138793068e+02 
2 1 -1.736051470956e+02  -2.341712978659e+02   8.476329620138e+01 
3 1 -3.341200002981e+01  -2.923854841742e+02   1.158290665772e+02 
4 1 -8.999923900519e+01  -3.551219223531e+01  -1.396922268683e+02 
5 1 -2.097659678305e+02   5.272376364722e+02   1.913580191360e+02 
6 1 -8.555783314454e+01   1.718882399274e+02   4.108515858792e+02 
7 1  5.359740304069e+01   3.424444739277e+02   1.135690145750e+02 
8 1  2.700264989653e+02  -1.342405723777e+01  -8.514277439261e+01 
8
 Atoms. Timestep: 51000
1 1 -8.772031169093e+01  -1.511590581670e+02  -1.154708083656e+02 
2 1 -3.698195636688e+02   8.715602967044e+02  -2.749412723860e+02 
3 1 -1.562646201480e+02   1.692196411485e+02   1.102105168402e+02 
4 1  4.287039991120e+01   5.585912528685e+01  -3.513677918141e+02 
5 1 -5.323496814507e+01   4.486571250651e+02   9.199871101073e+01 
6 1 -2.874716792461e+02  -4.277202293318e+01  -3.050991928851e+02 
7 1  2.767542501332e+02  -1.594245889042e+02  -1.280171924904e+02 
8 1 -1.387380616727e+02   4.941107653354e+01   1.532863244541e+02 
8
 Atoms. Timestep: 52000
1 1 -4.257538961353e+02   4.554580578579e+01   2.108826130611e+02 
2 1  3.065165805454e+02   2.261914119559e+02   1.134494253745e+02 
3 1  1.634004051584e+02   6.341867801455e+02   2.728671564934e+02 
4 1  9.605665817054e+01  -2.722850619628e+01  -1.523090538484e+02 
5 1  6.554402577510e+02  -2.263338466720e+02  -2.676546096123e+02 
6 1  3.612329296038e+01  -4.304722805842e+01   7.448303833082e+01 
7 1  4.464900562895e+02   1.048603413412e+01   1.030758962959e+02 
8 1 -2.394067711085e+02   1.193089067868e+02  -2.324491401117e+01 
8
 Atoms. Timestep: 53000
1 1 -3.920937314120e+01  -2.978393746496e+02  -5.068237836711e+01 
2 1 -5.156320438597e+01   4.115945272273e+02   1.005594862685e+02 
3 1 -3.931348711963e+02   1.199267152132e+02  -6.191700865739e+01 