8
 Atoms. Timestep: 0
1 1 -5.146983603824e+02   1.434692463961e+02   2.272585503517e+02 
2 1 -6.268573224989e+01   2.545643563522e+02  -3.785437431381e+02 
3 1 -1.847062021339e+01   1.986147104538e+02  -1.553454428606e+02 
4 1  1.310098613687e+02   4.728752768686e+02   6.196589026359e+02 
5 1 -9.578247776891e+01   5.598454624399e+02   1.557104222487e+02 
6 1 -2.592674952319e+02  -3.716990633033e+02  -2.397761882235e+02 
7 1 -3.685740970401e+02  -2.079503254006e+02   4.084754334187e+02 
8 1 -2.312460964129e+02  -7.397459190730e+02  -1.725994513245e+01 
8
 Atoms. Timestep: 1000
1 1 -3.000601033431e+02  -5.509217702233e+01  -1.448997905342e+02 
2 1 -1.920643722780e+02  -1.864931244419e+01   3.118964763127e+01 
3 1  2.240549794098e+02  -3.889842921448e+02  -2.016967223629e+02 
4 1  5.157696248121e+02   8.801401905772e+00  -3.184777868271e+02 
5 1 -4.901166050300e+02  -1.404405498209e+02  -2.153546959654e+02 
6 1  1.559589943677e+02   3.517790918564e+01   2.788944586417e+02 
7 1  3.013020787468e+01  -2.024629951498e+02   3.552041687618e+02 
8 1  3.538923682391e+01   8.731019172518e+01   3.957825351075e+02 
8
 Atoms. Timestep: 2000
1 1 -1.287782270208e+02   3.235736849347e+02   1.687438394244e+02 
2 1  7.445271534091e+01   1.774146759570e+02   1.726792245416e+01 
3 1  7.606443438543e+00   3.535675945499e+02  -1.775196174209e+02 
4 1 -3.476518947603e+01  -2.864271708513e+02   3.123030539946e+02 
5 1  3.619347951896e+02  -6.728004461748e+01   1.754533730097e+02 
6 1 -1.107546222337e+02  -4.374264742923e+02  -4.471431250723e+02 
7 1 -2.854132249640e+02   2.100510699391e+01   7.270713971242e+00 
8 1 -4.100244349983e+02   1.004233865231e+02  -4.394618786040e+02 
8
 Atoms. Timestep: 3000
1 1  2.548438836710e+02   9.878658212019e+01   3.686737506831e+02 
2 1  2.085700633356e+02   1.197196230645e+02  -4.266912684625e+02 
3 1  1.071188498133e+01   2.796758420058e+02   3.802643480261e+02 
4 1  2.905010520337e+02  -3.147749970930e+02  -3.425381491982e+01 
5 1 -2.188753884063e+02   1.282404693296e+01  -1.444105744418e+02 
6 1  2.526677201250e+01  -1.136546415631e+02   1.238269992044e+02 
7 1  2.318353988838e+02   2.748772209209e+02  -4.340269062312e+02 
8 1 -8.867169944335e+01  -2.558266926452e+02  -7.491581297922e+01 
8
 Atoms. Timestep: 4000
1 1 -1.667556476521e+02   1.482327727437e+02   2.351782211170e+02 
2 1 -1.317532496229e+02  -1.026523048918e+02  -1.641978966066e+02 
3 1  3.893017962123e+02   1.968622165535e+02   1.977416104221e+02 
4 1  4.259269077855e+02   4.188138864293e+02   4.230880825790e+02 
5 1 -1.804748776931e+02   3.715939364754e+02  -6.859867899320e+02 
6 1 -4.719364781339e+02  -1.715562749995e+02  -2.757298204322e+02 
7 1 -4.125585887892e+02   2.846326069030e+02  -2.735169515895e+02 
8 1 -1.340080626502e+01   5.472187796182e+02   2.373915967007e+02 
8
 Atoms. Timestep: 5000
1 1  1.970790553972e+01   8.960614611220e+02  -1.497626146463e+02 
2 1 -1.175434078679e+02  -1.240278110823e+02  -3.679415050173e+02 
3 1 -1.687664356207e+02  -1.762854492067e+02   8.605477475996e+01 
4 1 -7.502453865714e+01  -3.556677349958e+02  -1.636981725207e+02 
5 1 -2.007252126668e+01   2.667526739258e+02  -7.367981920561e+01 
6 1 -1.943648500580e+02  -1.019512632873e+02   1.020633329272e+02 
7 1 -1.701613491237e+01  -1.627764495392e+02   4.197615728860e+02 
8 1  2.472442635953e+02   3.620646188887e+02  -3.211520680617e+02 
8
 Atoms. Timestep: 6000
1 1 -2.584356614600e+02  -4.634320268361e+02  -1.044815775675e+02 
2 1 -3.893750661091e+02   5.248257778621e+01  -2.368353430286e+02 
3 1  1.268627655982e+02   3.116780367981e+02  -5.366505119572e+01 
4 1 -1.946742987207e+01  -2.317503834092e+02   2.160776336457e+02 
5 1 -1.036507888679e+02   2.029772518862e+02  -6.083867954909e+01 
6 1 -9.912215490489e+01   6.528294314533e+00   3.698359389799e+02 
7 1 -5.500159164262e+02  -3.203846365781e+01  -3.574348734021e+02 
8 1 -3.014752787266e+01   1.702595048872e+02   1.891162848411e+02 
8
 Atoms. Timestep: 7000
1 1  3.717719362081e+02   1.807792391653e+02  -2.573297516185e+02 
2 1 -2.396347007348e+02   1.349847776605e+02   8.926822859208e+01 
3 1 -7.502909981073e+02   2.736668105717e+02  -1.330683056346e+02 
4 1  1.274793053355e+02   4.305763589000e+02  -9.267238415575e+01 
5 1 -4.584540915861e+01  -3.736108135608e+02   5.982872025282e+02 
6 1 -6.015871375905e+01  -7.299429548630e+01  -2.903651624300e+02 
7 1 -4.231021637711e+01  -2.150193560739e+02   2.298209795061e+02 
8 1 -2.791534357535e+02   1.517386315335e+02  -3.089584129425e+02 
8
 Atoms. Timestep: 8000
1 1  2.738148493426e+02  -2.619118146556e+02  -5.108283597215e+00 
2 1  5.681359913475e+01   2.132875200123e+02   4.322145140623e+02 
3 1  2.446804866785e+02   1.920971813215e+02  -2.109489329942e+02 
4 1  4.391899384763e+02   1.668164669574e+02   2.761466011942e+02 
5 1 -3.381659542600e+02   1.488303821444e+01  -4.187916987876e+02 
6 1 -9.966855251386e+00   2.254677465511e+02  -1.543735722490e+02 
7 1 -3.051656013492e+02   7.866274321097e-01   5.216087492747e+01 
8 1 -2.068474829907e+02  -2.406874284524e+02  -3.270352754457e+02 
8
 Atoms. Timestep: 9000
1 1  2.142947501842e+02  -6.966448326800e+02   1.980173835913e+02 
2 1 -2.080778613491e+02  -4.402389102295e+02   8.865253365282e-01 
3 1  2.448853733100e+02   5.698692134739e+01   1.969045612029e+02 
4 1 -3.076062625412e+02   9.977989978785e+01   7.658792592658e+01 
5 1  3.679605090060e+02  -2.745911177271e+02  -2.165905011296e+02 
6 1 -1.665195372926e+02   3.510373863165e+01   1.580908082236e+01 
7 1 -2.706986139281e+01   1.935671089108e+02  -2.454991165407e+02 
8 1 -6.183840024056e+02   1.248219747387e+02   6.033909591970e+02 
8
 Atoms. Timestep: 10000
1 1  2.872053034172e+02  -3.837515533177e+02  -1.159934340191e+02 
2 1  4.058408987783e+02   6.583400941653e+01   9.033111865767e+01 
3 1 -2.146733317475e+02   1.084291668153e+02  -1.908731818226e+02 
4 1 -1.544644814459e+02   5.830261504155e+01  -2.864314337872e+02 
5 1 -4.357312291031e+02   7.846881704883e+01  -3.094978238693e+02 
6 1 -1.089699311896e+02  -1.612925489205e+02  -4.783798764732e+02 
7 1 -3.132160055436e+02   5.291992467931e+02  -3.181271349319e+02 
8 1  2.730814014051e+01   2.466650155057e+01  -7.567434786769e+01 
8
 Atoms. Timestep: 11000
1 1 -3.933978129752e+02  -9.009799103378e+01  -2.112472209386e+02 
2 1  1.683628654311e+02   1.449926061825e+02  -7.274898102611e+00 
3 1  2.330372172739e+02   2.473968730729e+02  -9.537331241848e+00 
4 1  1.830076604765e+02  -4.453217518735e+02   2.584883500380e+02 
5 1 -4.908483255563e+01  -1.091839685921e+02   2.389162887415e+02 
6 1 -6.232393124741e+01  -2.928481791052e+02  -6.367487251277e+01 
7 1 -4.176101546484e+01  -7.069990901604e+02  -3.570887918511e+02 
8 1 -1.560642571643e+02  -4.091001552257e+01   4.155474308564e+01 
8
 Atoms. Timestep: 12000
1 1 -2.651041292064e+02   2.309544835517e+02  -1.957832734898e+02 
2 1 -3.618120750383e+02   2.886629293412e+02  -8.034913439249e+02 
3 1  3.767929064676e+01  -1.857615413449e+02  -5.382308519501e+00 
4 1 -2.529577566270e+02  -1.801205933373e+02  -6.868309931783e+01 
5 1  1.367025106999e+02  -8.134042043583e+01  -1.044190743466e+02 
6 1 -9.497981760299e+00   1.443350639825e+02  -2.329570494371e+02 
7 1 -4.066179505383e+02  -8.233807932193e+01  -3.251327847200e+02 
8 1 -4.531166060695e+02  -1.669189973834e+02  -1.156312932253e+02 
8
 Atoms. Timestep: 13000
1 1  5.145980462639e+02  -2.317187435616e+02   2.357907364560e+02 
2 1  9.046690955067e+01  -2.659823490447e+02  -1.252495519853e+02 
3 1  3.845910662803e+01  -4.005297581399e+02   1.100444834982e+02 
4 1  1.254228899615e+02   4.615396976453e+00   7.397282163092e+01 
5 1 -3.292812797467e+02  -1.278439942787e+02   4.364744047329e+02 
6 1 -2.239973730329e+02   1.295341920821e+02   1.844092222020e+02 
7 1 -1.584489302961e+02  -1.214936748119e+01  -4.401172824581e+02 
8 1 -3.421098259015e+02   5.313988481229e+02  -4.829903264991e+01 
8
 Atoms. Timestep: 14000
1 1 -2.838929268157e+01  -1.356776889712e+02  -1.956861707515e+02 
2 1 -1.142967546183e+02   2.389608620515e+02  -2.132018174124e+01 
3 1  4.309727282520e+01  -1.968118627051e+01  -3.548459183492e+01 
4 1  6.867647805422e+01  -5.448235370369e+02  -4.093800213607e+02 
5 1  5.930992641864e+02   1.429170165584e+02  -5.435398105490e+01 
6 1 -6.873478126776e+01  -4.361947831656e+02  -1.319488614048e+02 
7 1  1.154173289425e+02   3.339491112595e+02   3.204652744180e+01 
8 1 -1.657224434948e+02   2.545772689096e+02   2.671649513513e+02 
8
 Atoms. Timestep: 15000
1 1  3.138280309322e+02  -1.231400458599e+00   1.298910780355e+01 
2 1  9.518234352232e+01   2.641389881185e+01   9.271731546191e+01 
3 1  1.006591604059e+02   1.535642385517e+02   3.874875474332e+02 
4 1  5.268116907329e+02  -2.205805138696e+02  -5.806753372805e+02 
5 1  9.463176684474e+01   5.461525632650e+01   5.357088936117e+02 
6 1  1.744834071097e+02  -1.109002767715e+00   1.884752963951e+02 
7 1 -4.128112283355e+02  -3.521291596681e+02  -8.854113002127e+01 
8 1 -1.419700212528e+02  -1.329581173260e+02  -3.607434953717e+02 
8
 Atoms. Timestep: 16000
1 1  1.752967992488e+02   2.107297077867e+02  -2.090184902524e+02 
2 1  4.843072053558e+02   3.210655153480e+02  -3.390099252048e+02 
3 1  2.771106951514e+02   3.885561077494e+02  -2.580670508001e+02 
4 1 -5.533787855643e+02   2.430593398456e+02  -3.504884328047e+01 
5 1  3.779357285067e+02  -7.429193904109e+01   3.806769668920e+02 
6 1 -3.945902622656e+02  -5.847867924300e+02   1.588617157032e+02 
7 1 -5.991998931367e+01  -4.498650686266e+02   3.066111460669e+02 
8 1 -3.029088689842e+02  -1.600416038757e+02  -5.254376774274e+00 
8
 Atoms. Timestep: 17000
1 1  2.696837128016e+01  -4.218002199410e+02  -6.535378477685e+01 
2 1 -5.577347579224e+01  -2.134106304393e+02   2.037496431113e+02 
3 1 -1.050803782543e+02  -1.701391304249e+02   1.698256955748e+01 
4 1  3.890165530710e+02   2.878721376460e+02   2.937009508069e+02 
5 1  2.728080443380e+02   7.893438117018e+01  -1.916498592385e+02 
6 1 -1.253148765715e+02   1.058403992885e+02  -4.964012378296e+01 
7 1 -7.361736049194e+01  -3.838446993680e+02   6.105744289441e+01 
8 1  1.426183210093e+01   1.382756856268e+02  -6.341141917840e+01 
8
 Atoms. Timestep: 18000
1 1 -3.012339360814e+02  -7.390081075005e+01  -3.302344165745e+02 
2 1  1.118646138903e+02   2.042281852716e+02  -2.153933288066e+02 
3 1  3.513757949533e+02   2.891500742363e+01  -2.407507657463e+00 
4 1 -1.537698713696e+01  -6.458040409814e+01   4.109595218283e+01 
5 1 -3.145927894043e+02  -4.227471554013e+01  -6.175777315275e+00 
6 1 -5.673185823897e+01   4.835853534640e+00   4.675188278434e+02 
7 1  7.344339184662e+01   3.738697407384e+02  -2.886562383655e+02 
8 1  1.468508694900e+02   1.174405222536e+02   2.927941286952e+02 
8
 Atoms. Timestep: 19000
1 1 -6.906672723483e+01   1.125047189439e+02  -2.533381843615e+02 
2 1 -3.777904687754e+02  -2.510124570924e+02  -1.098621206256e+02 
3 1 -3.240730201816e+02   3.082052537336e+02   1.749976782342e+02 
4 1  7.229226802197e+01  -1.960980023267e+02   2.046738944331e+02 
5 1  3.999050785260e+02   7.520699680087e+01  -4.089525071029e+02 
6 1  3.061043178628e+02  -2.131830515075e+02  -5.968091662816e+01 
7 1 -1.676198760137e+02   4.387863831258e+02   4.470537182320e+02 
8 1  6.041902755907e+02   3.843096072930e+01   6.071602211746e+02 
8
 Atoms. Timestep: 20000
1 1 -4.968647897557e+02   1.654861044301e+02  -2.327630117730e+02 
2 1  1.051705608832e+01  -3.368426306427e+02  -1.800131476916e+02 
3 1  9.584520657549e+01  -9.563630729889e+01  -8.134997475135e+01 
4 1  1.957772820856e+02  -2.376133631359e+01   5.262623042313e+00 
5 1  3.119050522546e+02  -3.320256073280e+02  -1.344057647449e+02 
6 1 -1.268954600180e+02   1.448374857673e+02  -6.212551789385e+01 
7 1 -5.731814098846e+01  -1.671008408295e+02   8.703487317482e+02 
8 1  2.167730253531e+02  -1.480883546468e+02  -8.918469909320e+01 
8
 Atoms. Timestep: 21000
1 1  4.744890393248e+02  -5.431884479161e+00   2.868383831694e+02 
2 1  5.036234334761e+02  -6.011827539077e+01   5.120785945143e+00 
3 1 -7.489291388512e+01   7.615777560640e+00  -4.353870281431e+02 
4 1 -3.074913349281e+01  -4.266580152062e+01  -3.829358252704e+01 
5 1  4.137647445838e+02  -2.869341837546e+02   8.109326915050e+01 
6 1  2.611826805549e+02  -9.062619132745e+01  -6.369747788355e+01 
7 1 -8.330728006016e+01   3.096514432304e+01  -1.263428643264e+02 
8 1  3.704295494708e+00   2.451068673735e+01   2.488082696916e+02 
8
 Atoms. Timestep: 22000
1 1  5.387856548332e+02   7.293905766402e+02   1.250988005934e+01 
2 1 -3.226386383297e+01  -1.243770308563e+02  -5.780870494139e+02 
3 1  1.977720005027e+02  -1.605311113412e+02  -3.244213886453e+02 
4 1  9.999922222420e+01   2.829166495565e+01  -1.458908812143e+02 
5 1  2.803702481856e+02   1.455146361439e+02  -1.870489953489e+02 
6 1 -1.055151343909e+02   3.182480087846e+02  -1.583151350139e+02 
7 1  2.721965729547e+02   3.600854849568e+02  -1.827861261859e+02 
8 1  6.490144262658e+01  -9.562177874772e+01  -1.642790885919e+02 
8
 Atoms. Timestep: 23000
1 1  2.501683324778e+01  -1.068831180559e+02  -2.608355112201e+02 
2 1  4.053192290338e+02  -1.106425596631e+02   1.086589150091e+02 
3 1  4.648512277025e+02  -3.671326344690e+01  -1.610124563618e+02 
4 1  2.512534669714e+02   3.659517927286e+02   1.603615054004e+02 
5 1 -5.098857852506e+01   3.977851724830e+02   3.805297349417e+01 
6 1  2.263781809798e+02   4.907230089884e+02   2.217186833929e+02 
7 1  2.688744954623e+02  -1.795745798096e+02   1.285920067611e+02 
8 1 -1.350076832727e+02   4.815342879602e+02   2.329371598361e+02 
8
 Atoms. Timestep: 24000
1 1 -5.368607967507e+01  -2.701802015395e+02  -8.282525318832e+01 
2 1  5.640383093345e+02  -6.203476748797e+01  -4.230293996144e+02 
3 1 -4.716484362175e+00  -3.381929856090e+02  -1.344025127679e+01 
4 1 -1.558747725890e+00  -6.322091424139e+01   1.796598916731e+02 
5 1  3.133056926038e+02  -2.955487706262e+02   1.505952691850e+02 
6 1 -1.511252723538e+02  -3.801763445114e+01  -4.402438834084e+02 
7 1  7.725349316525e+01  -2.624511049617e+02   1.110914095072e+02 
8 1 -1.503849204352e+01   1.172025499098e+02  -3.458392933360e+02 
8
 Atoms. Timestep: 25000
1 1 -6.012353803475e+01   1.637539259502e+02   2.819737134109e+01 
2 1 -8.824448247415e+00  -7.006665976194e+01  -2.010563948285e+02 
3 1  7.756610900682e+02   4.810235541367e+01  -2.736892994381e+02 
4 1 -3.091637156954e+02   3.116639328688e+02   2.169878547517e+02 
5 1 -6.950230781801e+01   9.446828186686e+00  -7.630969766032e+01 
6 1  7.600789928281e+01   1.851233406649e+02   7.489502073860e+02 
7 1  6.804404236675e+01   3.155464872751e+02   2.037695393026e+00 
8 1 -4.030643525677e+02  -1.943588770273e+01   9.882437467797e+01 
8
 Atoms. Timestep: 26000
1 1  8.665724464152e+01   1.730033476338e+02   3.469372247505e+02 
2 1  3.393876436011e+02   3.444014696514e+02  -4.611689944315e+01 
3 1 -5.026504537360e+02  -2.868671515477e+02  -1.870079979934e+01 
4 1 -2.827235993814e+02  -1.145873648510e+02   3.778542000794e+02 
5 1  1.727028810341e+02  -3.351595683270e+02   4.652640799930e+02 
6 1 -3.198104523356e+02   1.262843092979e+00  -4.885327592966e+01 
7 1 -3.997894307652e+02   1.300528222239e+02  -2.760623171357e+02 
8 1 -1.942362748937e+02  -9.764367206333e+01  -8.173190104582e+00 
8
 Atoms. Timestep: 27000
1 1 -7.230684458236e+01   5.707332467264e+01  -3.795093793491e+02 
2 1 -3.999222177791e+02   2.606605023542e+02  -2.755516519577e+02 
3 1  1.773065529776e+02  -2.247644277975e+02   3.933890992220e+02 
4 1 -1.342632675568e+02  -4.114458419928e+02   5.091545204739e+02 
5 1  1.391909215269e+02  -1.622613118709e+02   2.902198612374e+01 
6 1  2.130876784267e+02   2.037130632507e+02  -9.380035761211e+01 
7 1 -9.455275489013e+01  -5.576323946005e+01  -2.863917308918e+02 
8 1 -1.461624716443e+02   8.924518223535e+01   3.010476417429e+02 
8
 Atoms. Timestep: 28000
1 1  9.218869705879e+00   2.435426740505e+02   5.162797074071e+02 
2 1 -3.568712589198e+01  -4.345415530003e+02  -2.635169559283e+02 
3 1  3.320114364852e+02  -3.557452716006e+01   8.412256617414e+01 
4 1 -5.072431277595e+02  -1.907797380200e+02   1.076022403363e+02 
5 1  2.658544764515e+02   2.613589954983e+02  -1.427228279029e+02 
6 1 -4.546897568176e+01   2.836046723600e+02   2.274831539069e+01 
7 1  4.185397226192e+02   2.067067834127e+02   2.150155991438e+02 
8 1 -1.743085122933e+02  -7.952755142658e+01  -2.067211812113e+02 
8
 Atoms. Timestep: 29000
1 1 -1.293167764535e+01  -3.192594628602e+02   5.404685103611e+02 
2 1  5.596152061204e+01  -5.952778083028e+02  -2.470378560198e+02 
3 1 -4.763039210088e+01   2.128711103474e+02   2.119460585669e+02 
4 1  1.804635041494e+02  -5.525516397442e+01   3.922895912015e+02 
5 1 -2.960414372839e+02  -1.180511060075e+02   7.877114897682e+02 
6 1 -3.913868243289e+02   3.075480378833e+02  -2.138901171648e+02 
7 1  2.529719888710e+01   1.101696071844e+02  -2.473124911651e+02 
8 1  4.949371872320e+02   5.248447685954e+02   6.388640580166e+00 
8
 Atoms. Timestep: 30000
1 1  1.747158122843e+02   4.759662533150e+02   3.521586686615e+02 
2 1  3.595285340098e+00   3.893755651224e+02   2.438079898739e+02 
3 1 -4.405785641665e+02   2.019024864974e+02  -3.956748224995e+02 
4 1 -8.731050121107e+01   1.756639264780e+02  -1.689429578525e+02 
5 1 -6.639338851288e+01   3.501353145821e+02  -1.693170808594e+02 
6 1 -2.006307074958e+02  -2.874876056390e+02  -4.351593209285e+00 
7 1  5.007028474224e+01  -1.119138970752e+01   2.173039605541e+02 
8 1  7.660191863558e+01   1.168502328972e+02   6.630549089717e+01 
8
 Atoms. Timestep: 31000
1 1 -2.379580932608e+02   4.931358038153e+01  -3.523965716632e+02 
2 1  4.432109241344e+02   1.802206511942e+02   1.259277206987e+02 
3 1 -1.830159664267e+02   2.093462091448e+02  -1.124723052463e+02 
4 1  3.458894965143e+02  -1.356613982050e+02  -5.120994731557e+01 
5 1 -8.736693259369e+01  -2.512110350296e+02  -2.427328495713e+02 
6 1 -2.199925455563e+02  -7.014874967778e+01   1.098441268518e+02 
7 1  4.525752803914e+02  -2.544217767695e+02   1.962696799116e+02 
8 1 -7.826602186751e+01  -2.222011026706e+02  -4.380111460488e+01 
8
 Atoms. Timestep: 32000
1 1  4.222087415458e+02   3.977725913186e+02  -4.780322298498e+02 
2 1 -5.746059651319e+01   1.354009267177e+02   4.873294012324e+02 
3 1  2.338035359974e+02   2.103982389022e+02  -2.917622015337e+02 
4 1 -3.230116677185e+02  -3.838101443541e+02   4.483523205059e+02 
5 1 -1.810625004948e+02   1.530204846433e+02  -4.945679540815e+02 
6 1 -2.923348530549e+01   5.259321534883e+00  -1.102295169982e+02 
7 1 -1.260154231248e+02  -5.713520330664e+01   1.065310611567e+02 
8 1 -3.230890666129e+02   1.208621559624e+02   1.167367120068e+01 
8
 Atoms. Timestep: 33000
1 1 -1.030195786481e+02  -7.500042570938e+01   4.429046709436e+01 
2 1 -1.822900099517e+02   1.829566934756e+02  -1.722244397597e+02 
3 1  7.305032091061e+02   4.111607138968e+02   1.131521636968e+02 
4 1  2.219665920809e+02   6.252714239776e+01  -5.148546925102e+01 
5 1 -1.157669592060e+02  -3.590902853916e+02   4.220407408370e+02 
6 1 -2.437250416641e+02   3.349304422514e+02   1.762683279893e+02 
7 1  2.297549728879e+02  -4.342628723007e+02  -1.361717836827e+02 
8 1  7.117513631347e+01   5.361866965822e+02   1.044188668563e+02 
8
 Atoms. Timestep: 34000
1 1  4.807305214956e+02  -1.869707836281e+02  -5.166065047508e+01 
2 1  7.768039616810e+01  -7.661711527634e+01  -2.165702973887e+02 
3 1  2.076986632742e+01   2.714305603901e+02   1.666814330060e+01 
4 1 -3.288408586710e+01  -1.174182943240e+02   4.496697348666e+02 
5 1  3.892182930205e+01   6.420997935246e+02   8.558493083720e+01 
6 1  3.557545604911e+00   1.110656609358e+02   1.057526884789e+02 
7 1 -3.094658115540e+02   1.092827194319e+02  -1.379785557091e+02 
8 1  2.440595076477e+02  -5.101221390244e+01  -2.922179651652e+02 
8
 Atoms. Timestep: 35000
1 1 -8.864017515311e+01  -3.659000019980e+02   5.318214744042e+01 
2 1  1.299030284949e+01   2.246941829471e+02   4.670094719887e+01 
3 1 -3.453283423021e+02  -4.884219826636e+02   2.201221720337e+02 
4 1 -1.482795643168e+01  -2.996207512545e+01   2.874385072358e+02 
5 1 -5.046997984852e+02   1.690225859707e+02   1.735491740412e+02 
6 1 -1.625683462840e+02  -2.175554792433e+02  -2.854115704986e+02 
7 1 -9.544832653437e+00   7.629417563646e+02   9.894732970354e+01 
8 1  1.469351153167e+02  -1.817663344940e+02   1.747962427217e+02 
8
 Atoms. Timestep: 36000
1 1 -2.842225717136e+02  -3.396430049570e+02  -3.632466563200e+02 
2 1  1.302277800537e+02   6.034066597402e+01   1.999845283661e+02 
3 1 -1.889172113601e+02   9.008960190235e+01   1.701869136382e+02 
4 1 -6.591321175544e+01   6.116623254851e+02  -7.736617515327e+01 
5 1  3.005212575238e+01   6.209845300267e+01  -2.099080220018e+02 
6 1 -1.588337417850e+02  -1.798528502404e+01   3.819836167456e+02 
7 1  1.254891398665e+02   5.997027923943e+01   5.701858298540e+02 
8 1  3.202964742316e+02  -1.103668620624e+02  -2.381441472780e+02 
8
 Atoms. Timestep: 37000
1 1 -5.365582036948e+02   7.636348111289e+01  -8.030898707856e+01 
2 1 -1.175025154037e+02  -1.551600716710e+02   1.180632570641e+02 
3 1 -6.186506879774e+01  -2.831889022857e+01  -1.706338179371e+02 
4 1  6.757066721864e+02  -2.832414946136e+02   8.020455804774e+01 
5 1  2.952355619629e+02   1.749924792729e+02   2.442564822222e+01 
6 1  1.664914877362e+02   5.642189325343e+02   1.250422117479e+02 
7 1  3.085273672566e+02  -3.045258549687e+02   3.089766309592e+02 
8 1 -2.928922714680e+02  -2.340851524283e+02  -1.910373350356e+02 
8
 Atoms. Timestep: 38000
1 1 -1.500839766871e+02  -1.912642452490e+02  -3.311020340386e+02 
2 1 -4.077961869663e+02  -3.643183256829e+01  -9.050539337442e+01 
3 1  2.204580253365e+02  -2.869206060453e+02   4.431603886744e+02 
4 1  1.130255233697e+02  -2.202339209108e+02  -1.207434329636e+02 
5 1 -1.465768619378e+02   2.436666922884e+02  -2.635410495443e+00 
6 1 -1.471288665491e+02  -2.079901946603e+02   1.237955317152e+02 
7 1 -3.581980906473e+02   2.859983282134e+02   2.849679731243e+01 
8 1  5.391872175200e+02  -1.344644683147e+02   3.265301452522e+01 
8
 Atoms. Timestep: 39000
1 1 -1.500329729023e+02   1.788998824823e+01   4.196884249595e+02 
2 1  2.236687844639e+02  -1.922931873110e+02  -2.815462317771e+02 
3 1 -1.368757788989e+02   3.141773032095e+00   5.880009774316e+01 
4 1  6.065122475107e+01   1.988776932610e+02  -1.482678102999e+02 
5 1  3.594096154511e+02  -1.368986579532e+02  -2.917296430464e+02 
6 1  2.943376180263e+01   2.774711470720e+02  -6.893878086624e+00 
7 1  2.564742773570e+02  -3.546425059024e+02   1.527370964701e+02 
8 1 -4.695253553570e+02   2.314258152911e+02  -1.290788550635e+02 
8
 Atoms. Timestep: 40000
1 1 -5.271630918372e+01   1.523139003172e+01  -1.342177673306e+02 
2 1 -5.088487251650e+01  -6.983978188831e+01   3.348289704947e+02 
3 1 -3.941862601966e+01  -4.085034222070e+02   2.129637954932e+02 
4 1  5.241359389607e+01   2.687059925694e+02  -3.214059071020e+02 
5 1  3.108828845616e+02  -1.929433807929e+02   4.462530453491e+01 
6 1  9.340667589454e+01   1.455889717087e+01  -3.175394403904e+02 
7 1 -5.531137670632e-01  -5.130605819079e+01  -3.252611744253e+02 
8 1 -7.488302549788e-01  -1.590217873197e+02  -6.745683647498e+01 
8
 Atoms. Timestep: 41000
1 1  9.066804716793e+01  -1.682015321138e+01  -1.530096283378e+02 
2 1  6.145323104558e+01   1.248488665585e+01   1.908781270147e+02 
3 1 -5.742217284018e+02   2.530031701692e+00   3.749973135116e+02 
4 1  2.928073885155e+02  -1.969050489889e+02  -3.144648978207e+02 
5 1 -2.514700410972e+02  -1.171221561374e+01  -4.773381166608e+02 
6 1 -7.612706652388e+01   4.713048690781e+02   2.311450757999e+02 
7 1 -5.764184020689e+02   1.121455728791e+02  -1.066192196164e+00 
8 1  8.728947493395e+01  -2.743513726281e+02   3.125636005965e+02 
8
 Atoms. Timestep: 42000
1 1 -3.752785279266e+02  -1.041682036867e+02  -1.554704510566e+02 
2 1 -6.368655127042e+01   1.786385632237e+02   7.847342059001e+01 
3 1 -7.356609360678e+01   5.437205092184e+02  -9.847095050270e+01 
4 1 -9.962104663551e+01   2.557532273649e+02  -4.049381410485e+00 
5 1 -3.566572280782e+02  -3.716636951658e+01   1.287115480498e+02 
6 1 -1.612835082894e+02  -5.224789260322e+02  -3.828885651338e+02 
7 1  1.765582652032e+02   1.643857006806e+02   2.479643588929e+02 
8 1 -2.231916140552e+02   4.911295390089e+02  -1.404443929247e+02 
8
 Atoms. Timestep: 43000
1 1  8.507394513735e+01   5.281299816546e+02   2.706401372060e+02 
2 1  2.957086819419e+02   2.289789864467e+02   7.192445890980e+01 
3 1  1.381549600205e+02  -1.409564113290e+02   8.364521958856e+01 
4 1  3.121609085660e+02   1.657871860609e+02  -5.520412533557e+02 
5 1  3.234864223747e+02   3.818943414780e+02   1.131445355744e+02 
6 1  1.022642575955e+02  -3.190777820764e+02   1.138135858507e+02 
7 1  3.633251094076e+02   4.378763606684e+02  -1.095979537111e+02 
8 1  1.430114260519e+02  -3.459717635910e+01   8.252183638878e+01 
8
 Atoms. Timestep: 44000
1 1 -2.199102487233e+02  -3.423315466854e+02   1.587307700755e+02 
2 1  1.805590953680e+02   6.636087097217e+01  -2.229583959324e+02 
3 1  3.099146989851e+01  -2.783922599828e+02   2.811517453725e+02 
4 1 -1.932045255473e+01  -1.110367910779e+02   2.311578882390e+02 
5 1  1.014850129618e+02  -3.411270502427e+02   5.634567430921e+02 
6 1  6.372968524343e+02   3.102252176595e+02   1.724979086463e+02 
7 1 -5.611092128310e+02   4.445226940418e+02  -2.469123469925e+00 
8 1  2.947486726622e+01  -7.768168688368e+01  -1.864577527022e+02 
8
 Atoms. Timestep: 45000
1 1  2.785661312508e+01  -3.206668262605e+01  -9.169853521722e+01 
2 1 -1.730546834430e+02   1.091439764660e+02   3.320083385172e+01 
3 1  2.040302717487e+02  -2.849763203256e+02  -2.103472576117e+02 
4 1 -4.849442897385e+02  -2.316814357660e+02  -3.726196738689e+01 
5 1 -3.908960833974e+02  -2.039202281556e+02   3.831570244242e+02 
6 1 -4.539717116620e+02   1.514141305330e+02   2.010577842265e+01 
7 1 -1.945881180988e+01  -1.286627531803e+02   3.116101567814e+02 
8 1 -3.396873153933e+02  -2.950864896079e+02  -3.186053755279e+02 
8
 Atoms. Timestep: 46000
1 1  2.076709807984e+02   1.462128108377e+02   5.073129841102e+01 
2 1 -6.666239087219e+02   2.098421706675e+02   4.305242308776e+01 
3 1  1.608202023728e+01  -5.157505909443e+02   2.520829824049e+02 
4 1 -1.010685454382e+02   2.435639473179e+02  -3.486728185891e+02 
5 1 -1.250230499611e+02  -1.810577145957e+02   4.069216366176e+01 
6 1  2.538492688460e+02   1.619411710223e+02   1.240959544349e+02 
7 1 -1.357205983120e+02  -2.456628081756e+02  -3.901774204512e+01 
8 1  4.190203586664e+02   3.222001611075e+02  -3.689918807469e+01 
8
 Atoms. Timestep: 47000
1 1  3.727147673214e+02   4.240335118526e+02   1.786381221775e+02 
2 1 -1.240307678306e+02   1.664527905682e+02   1.341195171081e+02 
3 1  1.004148680637e+02  -2.520396804727e+02   2.053933224621e+02 
4 1  1.263408061959e+02   1.848955026463e+01  -1.882497278931e+02 
5 1 -1.184750367544e+02   4.988189158781e+02   2.348121222032e+02 
6 1  1.935074869462e+02   2.547650565456e+02  -1.085301840549e+02 
7 1 -1.852237569771e+02   8.908481570545e+01  -4.544775531624e+02 
8 1 -1.028836541418e+02  -4.236821021020e+01   2.397230595052e+02 
8
 Atoms. Timestep: 48000
1 1  6.897214034866e+01   1.609124302982e+02  -4.849320897703e+02 
2 1  6.963712484228e+02   2.739346767778e+01  -2.360533903240e+02 
3 1  2.034258018097e+02   1.386659968219e+02   3.756114295289e+02 
4 1 -2.391971641160e+02  -4.017597413890e+01   1.425353848750e+02 
5 1  2.849589558985e+02   1.451924434958e+02  -1.466105598793e+02 
6 1 -9.957546015651e+01   1.603982868007e+02   2.492831374361e+01 
7 1 -5.315078697598e+01   3.018247440620e+02  -9.633179023765e+01 
8 1 -1.783856879774e+02   1.196093973276e+02  -2.124682504838e+02 
8
 Atoms. Timestep: 49000
1 1  5.385956332451e+01  -1.719596730830e+01   8.537306642961e+01 
2 1 -9.974007137000e+01   2.860783304028e+02  -3.886399460705e+02 
3 1  2.348961342340e+01   7.032543024882e+01  -2.760386323060e+02 
4 1  2.400731610143e+02  -1.036489134033e+02  -7.685229179507e+01 
5 1  5.157359498820e+02  -2.348283493931e+02   3.812039428437e+02 
6 1 -5.369398806214e+01  -3.103175322111e+02  -3.031753115108e+02 
7 1  1.239425034133e+02  -2.445222013542e+01  -9.023927257700e+01 
8 1  1.816622288624e+02  -3.334044922948e+02   2.934685105395e+02 
8
 Atoms. Timestep: 50000
1 1  2.937578062321e+02   2.019960134492e+01   8.362421992103e+01 
2 1  7.239438635622e+01   4.506556825586e+01   1.024593113325e+02 
3 1 -1.584825947311e+02  -2.654134590114e+02  -1.068894006881e+02 
4 1 -1.342217422990e+02   2.603945590718e+02  -1.215481075115e+02 
5 1 -2.139172359858e+02   3.213972091941e+02  -3.985988399841e+02 
6 1 -1.624129740531e+02   1.532312471560e+02  -1.248108639655e+02 
7 1 -3.489701099270e+02   1.118729109439e+02  -1.388916101587e+02 
8 1  2.110731125922e+02   5.507153381479e+02  -1.464008368114e+02 
8
 Atoms. Timestep: 51000
1 1  1.080019951026e+01  -1.058538370076e+02   1.307149441576e+02 
2 1  2.562359743870e+01   2.889854063865e+02  -9.316181197755e+01 
3 1  1.513406183045e+02  -3.572384831789e+02  -5.186158484685e+01 
4 1 -9.431712057593e+00   1.029942539540e+02   1.614723804387e+02 
5 1  4.170579656070e+02  -1.192192042455e+02   1.041909687137e+02 
6 1 -7.751324418513e+01  -2.991899016215e+02  -1.857774340655e+02 
7 1 -8.341783938588e+01   3.274715043468e+02   1.299689899127e+01 
8 1  6.450365953953e+01   8.690158839696e+01  -8.493226042707e+01 
8
 Atoms. Timestep: 52000
1 1  3.184461535502e+02  -1.168370125816e+02  -3.266473372109e+02 
2 1 -2.660046524192e+02   2.220853275019e+02  -1.122337230625e+02 
3 1 -1.069120663636e+02  -1.741847809458e+02  -1.778701591666e+02 
4 1 -2.578954354632e+02  -2.895610397236e+02   3.768407557961e+02 
5 1 -1.112291376668e+02   1.945933127037e+02   3.253124910937e+02 
6 1 -4.519836208346e+00  -2.133872407639e+02   5.103347453745e+01 
7 1  1.349035836160e+02  -6.253956702732e+01  -7.431377092868e+02 
8 1  2.327722553292e+02  -1.859904586389e+02  -1.271992305395e+02 
8
 Atoms. Timestep: 53000
1 1 -4.701618694286e+02  -1.188263450974e+02  -1.089934566119e+02 
2 1  9.151909219936e+01  -1.337666855077e+02  -2.498051168941e+02 
3 1 -1.571917239986e+02   7.925681118049e+01   5.075235184178e+02 