8
Step 0
1 1  0.000000000000e+00   0.000000000000e+00   0.000000000000e+00 
2 1  0.000000000000e+00   0.000000000000e+00   0.000000000000e+00 
3 1  0.000000000000e+00   0.000000000000e+00   0.000000000000e+00 
4 1  0.000000000000e+00   0.000000000000e+00   0.000000000000e+00 
5 1  0.000000000000e+00   0.000000000000e+00   0.000000000000e+00 
6 1  0.000000000000e+00   0.000000000000e+00   0.000000000000e+00 
7 1  0.000000000000e+00   0.000000000000e+00   0.000000000000e+00 
8 1  0.000000000000e+00   0.000000000000e+00   0.000000000000e+00 
8
Step 100
1 1 -2.348410398271e-03  -1.525481581783e-04  -1.270578694768e-03 
2 1  1.018576575570e-03   1.019492264468e-03  -2.194989002946e-03 
3 1 -2.487811398909e-03   1.861751713322e-03   1.608662915311e-03 
4 1  2.647070168021e-04  -4.084529340606e-04  -4.672157737195e-04 
5 1  2.054292878035e-04   1.105237662257e-03   1.587174205201e-03 
6 1  1.417685309191e-03   1.060834751628e-03   1.321941913533e-03 
7 1  7.271866776860e-04   2.036591819324e-04   7.719592401526e-04 
8 1  9.956874857551e-04   2.036494469799e-03  -5.247369820622e-04 
8
Step 200
1 1 -2.882050698150e-04   4.487512951518e-05  -6.273818969223e-04 
2 1  2.122276845513e-04  -3.859320501021e-04   2.087533272348e-04 
3 1 -2.139477384782e-04   1.047507872765e-04   7.178628919814e-05 
4 1  3.310549116942e-04   1.364257271628e-04  -1.613170849863e-04 
5 1 -1.224470365929e-04  -3.395361162777e-04  -8.921911318145e-05 
6 1  7.062985933016e-04   1.888750594199e-04   2.399242883188e-04 
7 1  7.521793978748e-04   6.053569426255e-04   3.966757721480e-04 
8 1 -3.899041196771e-04   1.553270114912e-04   1.035766269826e-03 
8
Step 300
1 1  4.322830686104e-04   1.816159878705e-04  -7.537780862667e-05 
2 1 -1.605842191446e-04  -7.735373879053e-04   7.250536756637e-04 
3 1  6.129432482538e-04  -3.842494966896e-04  -3.601767201753e-04 
4 1  1.938858398999e-04   1.357165092572e-04   2.231177576549e-05 
5 1 -3.462035053927e-04  -6.702248262598e-04  -2.941061536640e-04 
6 1  2.762017460649e-04   3.504481431249e-05  -2.692677252312e-04 
7 1  6.231649755087e-04   2.687382858255e-04   3.562697368634e-04 
8 1 -6.721755765105e-04  -6.107307727011e-04   9.116899592679e-04 
8
Step 400
1 1  2.117449428521e-04   1.405709825233e-04   7.709021282833e-05 
2 1 -8.867698284059e-05  -2.688224676509e-04   3.222638032983e-05 
3 1  4.734921635355e-04  -4.691510640557e-05   1.101079948532e-04 
4 1  6.376911605675e-05  -1.268987079629e-04   1.658392557116e-04 
5 1 -2.219903324386e-04  -3.132417389126e-04   6.079689056062e-05 
6 1 -4.051871196037e-05  -6.321144626969e-06  -1.435762621600e-04 
7 1  2.872325943177e-04  -9.840729021341e-06   1.934436718340e-04 
8 1 -1.027873925535e-04  -2.258473591862e-04   2.111711309775e-04 
8
Step 500
1 1  8.854057127744e-05  -5.605807965570e-05  -6.027738295032e-05 
2 1  1.049109985541e-04   1.031057464249e-04  -5.975790465865e-04 
3 1  1.666506486766e-06   8.685850651015e-05   3.989053832477e-04 
4 1  1.113998617749e-04  -1.307651740045e-04   2.629843331183e-04 
5 1  1.637333887267e-04   8.665661447876e-05   1.199783443364e-04 
6 1 -4.316314193524e-05   6.046107317120e-05   9.384945622573e-05 
7 1  2.499294092315e-04  -2.189474081287e-04   7.862371905789e-05 
8 1  2.196032863438e-04   8.449193242475e-05  -3.127664841235e-04 
8
Step 600
1 1  1.875849795990e-04  -5.987317330265e-05  -2.253296030159e-04 
2 1  1.712568556331e-04   3.186751913096e-06  -5.787395506714e-04 
3 1 -2.667719214459e-05   2.126905118853e-04   3.724971151969e-04 
4 1  1.193754313028e-04   2.459387574380e-05   5.696164802870e-05 
5 1  3.525657676349e-04   2.618268200003e-04   2.913194362542e-05 
6 1 -3.879140591285e-05  -1.962316643752e-05   1.914451560312e-04 
7 1  1.588588605599e-04  -1.490875607951e-04  -2.974822773083e-05 
8 1  2.073054484687e-04   1.018045090849e-04  -9.718491327172e-05 
8
Step 700
1 1  3.853368551765e-05   6.839737368608e-05  -1.644634905247e-04 
2 1  1.661701913220e-04  -3.217293417034e-04  -6.539633647350e-05 
3 1  1.304976962556e-04   2.512915241411e-04  -8.811842747950e-05 
4 1  1.251607371856e-04   5.811886403300e-05   3.345006802510e-06 
5 1  2.095260747846e-04   1.756352179023e-04  -1.678615845327e-04 
6 1 -5.006877574740e-05  -1.177227202585e-04   2.171194629740e-04 
7 1  5.552414390041e-05   9.630624287795e-05   1.058021258635e-04 
8 1  9.643604134304e-05   1.433512258088e-04   1.934786478270e-04 
8
Step 800
1 1  6.448337087759e-06   2.160313837032e-04  -2.341477385417e-04 
2 1 -1.385844383288e-04  -3.852401901470e-04   1.101515777118e-04 
3 1  3.609127691063e-05   1.610840755059e-04  -2.615028327571e-04 
4 1  8.700247452347e-05   1.399440159105e-05  -5.611013698801e-05 
5 1  1.032382534012e-04   5.616441912004e-05  -1.821472516755e-04 
6 1 -7.861903218494e-05  -1.643969781013e-04   3.207047844837e-05 
7 1  6.899058589930e-05   1.369636389171e-04   4.292836529453e-05 
8 1 -2.471508007336e-05   1.587345118312e-04   1.461284381659e-04 
8
Step 900
1 1  9.629718096081e-05   2.339706380748e-04  -1.338039763552e-04 
2 1 -2.357626108444e-04  -2.279520232279e-04   1.801680022387e-05 
3 1  8.042014040300e-05   1.759474880547e-05  -1.386905012885e-04 
4 1  1.313063926448e-04  -6.122122802305e-05  -1.307146518719e-04 
5 1  4.523116996473e-05  -1.771373871171e-05  -1.140132716571e-04 
6 1  3.998930953645e-05   4.518010248250e-05  -9.925038316059e-05 
7 1 -2.898436825148e-05   3.053025076194e-05  -1.305204888488e-04 
8 1  1.712548223802e-04   5.468630451201e-05   1.554379805328e-04 
8
Step 1000
1 1  2.012045356711e-04   1.339412988718e-04  -1.201466613976e-04 
2 1 -2.529625944813e-06  -1.356535169443e-04   5.574423174595e-05 
3 1  2.348742997240e-04  -4.179464706847e-05   1.581941503917e-04 
4 1  1.591754286360e-04   4.917413646080e-05  -7.218332386228e-05 
5 1 -3.082116054078e-05  -1.487406586271e-05   7.815599921680e-05 
6 1  1.783830961345e-04   1.405951392122e-04  -9.566261029684e-05 
7 1  2.913981593628e-05  -3.213976498630e-05  -4.323210216525e-05 
8 1  1.937262686691e-04   1.119646489452e-04   1.088213082682e-04 
8
Step 1100
1 1  1.563529834016e-04   8.908180188780e-05  -8.378995104960e-05 
2 1  3.685148901133e-05  -4.623452770634e-05   3.323397787093e-04 
3 1  1.049933582452e-04  -5.013971032874e-05   3.976567468979e-05 
4 1 -2.721727406311e-05  -8.365935593738e-05   1.426659406626e-04 
5 1 -8.186070221654e-05   5.264164561408e-05   4.515666869371e-05 
6 1  1.364906351288e-04   1.219808774960e-04   2.441152660589e-04 
7 1  2.676390115882e-04  -4.341063528692e-05   1.496108035843e-04 
8 1 -7.471185654671e-05   1.560891085267e-04   7.738348134619e-05 
8
Step 1200
1 1 -5.343979028089e-05   3.966993325710e-05   4.518650294658e-05 
2 1 -5.121085450491e-05  -1.431007561637e-04   2.713762696300e-04 
3 1 -1.821621614108e-05   1.075531097160e-05  -2.025781110418e-04 
4 1 -3.561864180862e-04  -1.985284639957e-04   3.059919557641e-04 
5 1  7.083500311560e-05   2.782546773913e-04  -1.130375634495e-04 
6 1 -5.174648212516e-05  -2.045730887958e-05   2.738913949192e-04 
7 1  1.043074368950e-04   7.197900166578e-06   1.191155664551e-04 
8 1 -1.526083363067e-04  -1.289220302701e-05  -2.280737455564e-05 
8
Step 1300
1 1 -2.950667676465e-05   4.538864855215e-06  -2.002180613449e-04 
2 1  6.455393472622e-05  -2.088792476387e-05  -6.086681272628e-05 
3 1 -4.462823172169e-05   8.162424831765e-05  -2.528358218962e-04 
4 1 -2.132932039934e-04  -8.342488510416e-05   4.534101160727e-04 
5 1  2.078431582027e-04   1.643549313997e-04  -1.462696713856e-04 
6 1 -2.229975299690e-04  -2.098031283458e-04  -6.676321933385e-05 
7 1  3.589772706546e-05  -2.818081219645e-05   6.043858817704e-05 
8 1 -1.836588908559e-04  -7.173515023249e-05  -1.364677435884e-04 
8
Step 1400
1 1  3.431739027861e-05  -7.561790376651e-05  -1.143005566850e-04 
2 1  1.986495094118e-04  -2.867437066212e-05  -1.220660895528e-04 
3 1  4.775178027716e-06   1.434418373122e-04  -2.162872185208e-06 
4 1 -1.312045427352e-04  -1.796637835881e-04   3.222102343246e-04 
5 1  2.193844462477e-04  -7.627032396287e-05  -3.538033348475e-05 
6 1 -1.715347661957e-04  -1.368583914436e-04  -1.156103494477e-04 
7 1 -3.967156556522e-05   8.537738044388e-06  -1.132208793199e-04 
8 1 -2.388554853464e-04  -1.928746076122e-04  -1.912595256326e-04 
8
Step 1500
1 1  3.226519569356e-04  -5.183801059342e-05   5.978942946153e-05 
2 1  2.840267641224e-05   5.569781314149e-05   7.257805828210e-05 
3 1  1.904042404211e-04   2.957731862948e-04   1.046038729772e-04 
4 1  6.364524136575e-05  -1.155045953650e-04   1.677161714993e-04 
5 1  1.029620147995e-04  -3.388522498468e-04  -7.997837987699e-05 
6 1  1.699049297227e-04   4.395993737067e-05  -1.761940644893e-04 
7 1 -1.833829704888e-04   8.841198807882e-05  -2.513454198463e-04 
8 1  4.531513532492e-05  -1.069461825153e-04  -1.413206988409e-04 
8
Step 1600
1 1  2.257827975663e-04  -2.872227297213e-05   1.594794971976e-04 
2 1 -1.430932749497e-04  -2.245796663675e-06   8.588782338536e-05 
3 1  1.408206936672e-04   2.216322232942e-05   1.027744399684e-04 
4 1  1.296076021176e-05  -7.470324832963e-05   2.978579012619e-05 
5 1  1.974067550860e-04  -3.883205765259e-04  -1.024352236869e-04 
6 1  2.473193262331e-04   1.535678951872e-04  -2.154650406521e-04 
7 1 -3.069217785702e-04   1.851101927278e-04  -1.881786601262e-04 
8 1  1.534548885961e-04   8.940738821213e-05   1.367509015609e-04 
8
Step 1700
1 1 -9.126504827237e-05  -2.282525521627e-05   8.115523957825e-05 
2 1 -1.735176938366e-04  -1.990898460125e-04   1.441623680398e-04 
3 1  9.673474810615e-05  -7.482328467511e-05  -3.324985924794e-05 
4 1 -1.879678899148e-04  -1.030125791794e-05   5.663373637947e-05 
5 1  1.698621279974e-05  -2.294095447130e-04   7.496708802061e-05 
6 1 -3.092298538980e-05   5.459231446149e-05  -1.042949807295e-04 
7 1 -2.649013431787e-04  -1.665833615342e-05   2.612667934527e-05 
8 1  1.067336572477e-04   2.246098446192e-04   7.497095902555e-05 
8
Step 1800
1 1 -2.269891792012e-04  -9.850188567118e-05   6.520617817909e-05 
2 1 -5.312408089706e-05  -1.957677372823e-04   3.264340411908e-04 
3 1 -3.676832960099e-05  -1.614434998898e-04  -1.643993001148e-04 
4 1 -2.700394974629e-04   3.263971339103e-05  -9.023516594752e-05 
5 1 -9.639947806080e-05  -1.209371621713e-04  -1.426087421491e-06 
6 1 -1.692762135953e-04  -2.534561474850e-05  -1.463035922304e-05 
7 1 -1.669683667393e-05  -1.252326116947e-04   3.681491080547e-05 
8 1 -5.015300822150e-05   1.360082652120e-04  -1.733075484195e-04 
8
Step 1900
1 1 -1.463645654880e-04   4.555910502311e-05   1.195601493069e-05 
2 1  7.352074914515e-05  -9.677393898084e-05   2.398680891498e-04 
3 1 -5.084901798184e-05  -1.050668507359e-04  -1.541366750129e-04 
4 1 -1.076512429362e-04   1.588419320335e-04  -1.304174482390e-06 
5 1  7.413538691075e-05  -2.684761198457e-04  -2.215922293673e-04 
6 1 -1.421547795997e-04   1.642673028595e-04   1.026670480733e-04 
7 1 -1.337117849259e-04  -7.126087850823e-05   1.857310457473e-05 
8 1 -2.382780224481e-04   3.609626607270e-06  -2.250509458367e-04 
8
Step 2000
1 1 -2.164461279625e-04   2.119393721970e-04   2.935280335705e-05 
2 1 -7.836471943514e-06   1.723872558062e-04   3.805614097068e-05 
3 1  6.897833887352e-06   2.693401808798e-05  -8.798855509011e-05 
4 1  2.333839137978e-05   1.394659235199e-04  -3.174978901503e-05 
5 1  4.619449179690e-05  -3.290304340254e-04  -7.114622319736e-05 
6 1  5.989047306900e-05   7.102471974606e-05   1.857958374057e-05 
7 1 -1.327076730099e-04   7.408904716601e-05  -2.152800305005e-04 
8 1 -1.147920290697e-04  -9.704421159145e-05  -1.213191749531e-04 
8
Step 2100
1 1 -1.913461852703e-04   1.514002458539e-04   1.275377459073e-04 
2 1  2.172524746400e-05   4.507498804587e-04  -1.502221865697e-04 
3 1 -3.114971355746e-05   1.238671821917e-04  -7.729331084481e-05 
4 1 -1.295363337625e-05  -4.672542487890e-05  -9.237457955030e-05 
5 1 -2.401612519216e-04  -1.960549124629e-04   4.149676526272e-05 
6 1  9.107090380011e-05  -7.362338871410e-05   7.887692294680e-06 
7 1 -3.033654037076e-04   2.439801659219e-04  -3.727734346978e-04 
8 1  1.121892394226e-04  -9.229715103521e-05  -5.749465726707e-05 
8
Step 2200
1 1 -1.850762792716e-05   1.153381225064e-04   1.931490095767e-05 
2 1  1.643525966841e-04   4.398684209623e-04  -3.805170819038e-04 
3 1  1.788181235428e-04   1.724391678587e-04   4.463100778857e-05 
4 1  4.007929152188e-05  -1.331884104062e-05  -2.527994811019e-04 
5 1 -3.255289131479e-04   1.366904912188e-04  -6.028783744571e-05 
6 1 -8.707861668149e-06   1.913033372750e-05   5.237773338362e-05 
7 1 -2.053064047952e-04   1.547672272946e-04  -2.034971747777e-04 
8 1  1.518265785419e-04  -6.778707048449e-05  -1.039173676930e-05 
8
Step 2300
1 1  6.999295584976e-06   2.366744461450e-04   2.170547623431e-05 
2 1  1.693823565026e-04   3.231244576537e-04  -4.563205499556e-04 
3 1  3.319416311797e-04   1.489848808328e-04  -7.197722094034e-05 
4 1 -1.576668257959e-05   4.115154450332e-05  -1.829909534183e-04 
5 1 -2.368909598362e-04   2.088481860758e-04  -1.097576026531e-04 
6 1  8.375377803817e-05   1.661541438546e-04   1.783664276077e-04 
7 1  1.055142721380e-04  -1.911783365557e-04  -9.946884517467e-05 
8 1  1.103031542493e-04  -1.489473605169e-04   1.027696344512e-04 
8
Step 2400
1 1  2.225724977509e-04  -1.350511667726e-06  -7.196183393205e-05 
2 1 -1.024025927066e-04   1.330988677584e-04  -1.807975074578e-04 
3 1  1.987414087353e-04   1.443000332881e-04  -7.494422880676e-05 
4 1 -1.491769874461e-05   1.285478959581e-04   4.121157920531e-05 
5 1 -9.152208170614e-05   1.423983187333e-04  -1.831696488074e-04 
6 1  1.025106061121e-04   1.682845001300e-04   2.228690199844e-04 
7 1  1.841041714465e-04  -3.016914480998e-04   2.350166803842e-05 
8 1  9.714757496935e-05  -1.673081689603e-04   1.590298409256e-04 
8
Step 2500
1 1  2.933606140295e-04  -2.391366579018e-04   3.066487526861e-05 
2 1 -7.625051830529e-05   2.227375848639e-04   1.038622044883e-04 
3 1 -9.229488044702e-05  -8.857939127765e-05  -1.018113555835e-04 
4 1  7.770774153786e-05   1.079024674510e-04  -2.186661518017e-05 
5 1  1.455918397125e-04  -2.241303829211e-05  -8.720504261206e-05 
6 1  1.457666464324e-04  -1.033644814007e-04  -1.480902684254e-04 
7 1 -5.934049646727e-05  -7.511761569036e-05   1.015471798854e-04 
8 1 -4.747766530993e-05  -2.313250611646e-04   2.690031115260e-04 
8
Step 2600
1 1  1.129434243559e-04  -2.544930891705e-04   1.278340864206e-05 
2 1 -8.638439553123e-05   1.688931766586e-04   1.396452278584e-04 
3 1 -5.549993462248e-05  -1.332035767135e-04   4.801295773337e-05 
4 1 -3.130391003769e-05  -2.461506490859e-05   1.587844260402e-04 
5 1  1.923934975305e-04  -8.682460304332e-05  -3.644146073011e-05 
6 1  2.017171438400e-04  -1.957107438907e-04  -4.297468682714e-04 
7 1 -1.949485849372e-04   2.925420855339e-04   2.930531067812e-05 
8 1 -1.563376184923e-04  -2.233195483465e-04   3.358117733111e-04 
8
Step 2700
1 1 -5.787009306265e-05   8.695960655671e-05   1.593239355519e-04 
2 1 -4.237421611461e-05   5.521606209502e-05   5.884299496346e-05 
3 1  1.622876356330e-04   8.780504622571e-06   1.444732301558e-04 
4 1 -1.640955851346e-04  -1.739287415672e-04   2.695451937140e-04 
5 1  1.989927296790e-04  -2.449561525657e-05  -5.047033678871e-05 
6 1  1.899069504907e-04  -2.437968733353e-04  -2.870645321569e-04 
7 1 -2.581286081020e-05   5.354059862915e-04   3.888976148324e-05 
8 1 -1.575692770460e-05  -2.183754287124e-04   1.099790340768e-04 
8
Step 2800
1 1 -1.570484612480e-04   5.562123556228e-05   3.247425049878e-05 
2 1 -7.181614793820e-05   1.436441321369e-04   8.412663613648e-05 
3 1  1.392629109412e-04   5.065242340405e-05   1.007804346632e-04 
4 1 -1.031125017115e-04  -2.752209670332e-04   1.450826375291e-04 
5 1  4.594355178393e-05  -1.333438082237e-05  -1.201694776855e-04 
6 1 -6.759557529354e-05  -2.514757208010e-04   1.267605605567e-05 
7 1  3.598946191430e-06   4.870122220411e-04   3.861819685213e-05 
8 1  4.442299587631e-06  -4.715798409550e-05  -1.136439712871e-04 
8
Step 2900
1 1 -1.734207672517e-04  -9.801449916028e-05  -1.302827867444e-04 
2 1 -2.056557778298e-04   3.262407690920e-04   6.710441791318e-05 
3 1 -2.093081887641e-05   1.063481107950e-04  -8.931989384058e-05 
4 1 -4.610919807029e-06  -1.544370942712e-04   7.152434314953e-05 
5 1 -1.151322185454e-04  -2.262565020718e-05  -2.143494128175e-04 
6 1 -1.459541388037e-04  -1.554458066606e-04   4.763313906833e-05 
7 1  2.172977754422e-04   1.036749665854e-04   1.287752681069e-04 
8 1 -2.616561205155e-04   9.301142340251e-05  -3.013711441335e-05 
8
Step 3000
1 1 -1.422520471476e-04   9.678704011305e-05  -7.518129175737e-05 
2 1 -1.191206724928e-04   1.811712427823e-04   5.676323130200e-05 
3 1 -2.104739792320e-04   1.479283469761e-04  -1.729950486485e-04 
4 1 -4.348796025320e-05  -1.183920574031e-04  -1.790086357073e-05 
5 1 -1.170989728736e-04  -6.368513441440e-05  -2.077258994650e-04 
6 1 -1.373246670905e-04  -4.711581121613e-05  -6.966649369533e-05 
7 1  2.362143594881e-04  -1.592773926943e-04   1.781630762251e-04 
8 1 -3.566798597330e-04   3.835161053912e-04   3.622484595345e-05 
8
Step 3100
1 1  9.682687256021e-05   9.227067686294e-05  -9.069691894820e-05 
2 1 -1.157562902472e-04   1.518973113260e-04   1.802031979677e-04 
3 1 -1.137222735043e-04   1.851372880079e-04   2.650315708328e-07 
4 1 -6.148532507349e-05  -1.717619700817e-04   4.363047672747e-05 
5 1  1.251382061950e-05  -1.977943139202e-05  -2.365372416523e-04 
6 1 -1.198303076327e-04  -6.609314884547e-05  -2.000207932399e-04 
7 1 -4.596157580011e-05  -1.736117275618e-04   1.637544263095e-04 
8 1 -1.652261861641e-04   5.897036737676e-04   1.164363076860e-04 
8
Step 3200
1 1  2.005807962733e-04   1.935066823027e-06  -2.553097874939e-05 
2 1  3.887628234937e-05   1.240715018452e-04   7.644847939065e-05 
3 1 -1.583136694060e-04   3.896679443550e-05  -6.176559902229e-05 
4 1 -7.469894880164e-06  -1.154280468288e-04   8.101099418778e-05 
5 1  1.007460985281e-04   8.344161043009e-05  -4.796858227865e-05 
6 1 -2.397474126474e-05  -4.228040867782e-05  -4.823779268379e-05 
7 1 -2.101050078307e-05  -1.321285758697e-04   5.764333868381e-05 
8 1 -2.168361726841e-04   4.552301157319e-04   3.318835213712e-05 
8
Step 3300
1 1  1.564145860109e-04  -8.115418283445e-05   8.162421117436e-05 
2 1  2.793488594993e-04  -5.468168530118e-05  -1.408768769051e-04 
3 1 -1.217817884366e-04   9.919784487767e-05  -2.772196562812e-04 
4 1 -1.165626654636e-04   3.065104494126e-05   1.913343573242e-05 
5 1  1.951981771644e-04   1.948803642214e-04   1.648457592739e-04 
6 1  1.015042169399e-04   1.043924363548e-04   1.764577415922e-04 
7 1 -5.251642915000e-05  -2.149886757794e-04   1.009115092200e-04 
8 1 -6.854990462535e-05   2.517379707236e-04  -1.498953888838e-05 
8
Step 3400
1 1  2.325181707540e-05  -9.406780982188e-05  -7.308506887550e-06 
2 1  2.155079767548e-04  -9.849300910847e-05  -1.483826987246e-04 
3 1 -6.979359500235e-05  -3.888325894920e-05  -2.331729266961e-04 
4 1  1.771586750146e-05   2.694699376083e-04  -1.007038864892e-04 
5 1  1.049966282383e-04   2.281100609118e-04  -1.489874114015e-05 
6 1  3.261510013652e-04   1.147964097615e-04   9.372349198836e-05 
7 1 -5.129976092542e-06   5.268002979690e-05   2.689910461546e-04 
8 1  3.979941543845e-05   1.277352927022e-04   1.167008122336e-04 
8
Step 3500
1 1 -2.116293614145e-04   2.978610864310e-05  -9.062249020431e-05 
2 1 -2.583483357413e-05   8.348778017845e-05  -3.021916791883e-04 
3 1  4.234315857146e-05  -1.835150655111e-05  -1.952657349255e-05 
4 1  1.614164710852e-05   2.376079356981e-04  -1.379853246802e-04 
5 1  1.044792282837e-04   2.452388111642e-04  -2.760665835131e-04 
6 1  2.786613724887e-04   1.730764260270e-04  -4.377696387833e-05 
7 1  3.166952978489e-04   2.315250619696e-04   1.618276917299e-04 
8 1  7.679907882151e-05   1.473709435298e-04   1.579446593897e-04 
8
Step 3600
1 1 -3.036215647828e-04   3.883428217395e-04  -6.068619884434e-05 
2 1  9.685556486288e-05   1.888830083101e-04  -1.976659792742e-04 
3 1  2.663813062879e-05  -1.999977794790e-06  -2.365208861847e-05 
4 1 -1.422265413999e-04   9.511762697078e-05  -2.130703035249e-04 
5 1  7.384749639936e-06   1.892825178316e-04  -2.277702540166e-04 
6 1  2.501220539633e-04   8.334615658635e-05  -1.301445009933e-04 
7 1  2.834794195967e-04   9.598869141224e-05   8.049072650881e-05 
8 1 -2.460144981350e-05  -1.532066213527e-05  -6.355270784400e-05 
8
Step 3700
1 1 -1.564738576182e-04   7.226966674810e-05   6.252187654801e-05 
2 1  1.011023829247e-04   7.442143104531e-05  -8.869540863475e-06 
3 1 -1.032338049545e-04   7.878153825665e-05  -3.067313079230e-05 
4 1 -1.393181061479e-04  -1.747094354703e-04  -1.995425675046e-04 
5 1 -9.451871596796e-05   2.931627631361e-05  -2.080103076268e-04 
6 1  1.025639762745e-04   1.179786478552e-04  -1.441055492301e-04 
7 1  1.159560323515e-04   2.232773260371e-05  -8.207407423954e-06 
8 1 -1.032916837026e-05  -1.568506555484e-04  -1.153326283234e-04 
8
Step 3800
1 1  2.351578177144e-04  -1.694795605020e-04   2.574172416123e-05 
2 1  1.829205902763e-04  -6.575798774903e-05   6.373317943850e-05 
3 1 -1.441469661952e-04   6.072123158230e-05  -9.789505260508e-05 
4 1 -1.784655369386e-04   3.883078811624e-06  -4.740448481060e-05 
5 1 -9.290952105303e-05   6.572843787983e-05  -1.671341281916e-04 
6 1  7.046954531629e-05   2.422389565322e-04  -7.482260746302e-05 
7 1 -5.944428365375e-05  -4.129231693846e-05  -8.023608023777e-05 
8 1  3.081314048819e-05  -1.396583350562e-04  -1.379344572268e-04 
8
Step 3900
1 1  2.336519805107e-04  -9.018392754453e-05   1.427529636766e-04 
2 1  1.591428008364e-04  -1.353668366439e-04   3.397830654502e-06 
3 1 -2.110611590319e-04  -4.309245597683e-05  -1.631211569793e-04 
4 1  2.172458796650e-05   5.145121300080e-05  -3.626333833356e-05 
5 1 -5.767602825301e-05   2.490678209391e-05   7.233635333260e-05 
6 1  1.399750292264e-04   2.811507398538e-05   1.259531712800e-04 
7 1  6.359608291102e-05   4.667994339987e-05  -2.436029258447e-04 
8 1  1.828319009756e-05   4.077619970080e-05  -4.617240470348e-05 
8
Step 4000
1 1  1.750416725349e-05   9.278547805167e-05   2.170408563296e-04 
2 1  3.317656714398e-06  -2.285849505049e-05   4.653716732834e-05 
3 1 -2.638542748248e-04  -6.490769358042e-05  -9.697960744635e-05 
4 1  2.116698721098e-04   1.274938725164e-04   6.721734384756e-08 
5 1 -2.585079577894e-05  -2.287095005653e-04   7.504126471255e-05 
6 1  1.109700025290e-04  -2.057855075154e-04   1.371016345832e-04 
7 1  3.580293258997e-05  -1.508550321566e-04  -3.279695338922e-04 
8 1  1.470675420786e-04   2.855450329906e-04   2.916383833467e-06 
8
Step 4100
1 1 -1.600424607294e-04   4.827401970141e-05   2.895781920663e-04 
2 1  5.083732204981e-05   9.848314546756e-05   4.839951169503e-05 
3 1 -6.346918617538e-05   2.472671152060e-04  -5.518711762608e-05 
4 1  1.925943477103e-04  -7.158410079418e-05   1.447494157925e-05 
5 1 -1.239351374194e-05  -2.754710732701e-04   9.365330005926e-05 
6 1  1.110407798665e-04  -1.512419773484e-05  -8.744246767968e-06 
7 1  4.821664457674e-05  -3.164945502608e-04  -9.957362636632e-05 
8 1 -6.054283424366e-06   2.353910835336e-04  -5.230745462101e-08 
8
Step 4200
1 1 -1.670851596449e-06  -3.217589305344e-06   2.752195607839e-04 
2 1  6.576003059236e-05   1.357447661298e-04  -5.430145454453e-05 
3 1 -6.093635367332e-06   1.374513132826e-04   6.628936887115e-05 
4 1 -1.670600852152e-04   1.516426558629e-04  -2.320910244252e-04 
5 1 -5.825698652833e-05   4.293454013044e-05  -1.563487525548e-04 
6 1  1.547615561199e-04   2.044752366589e-04  -1.472656620844e-04 
7 1  3.691148432929e-05  -1.580110389928e-04   2.358794393582e-04 
8 1  7.048152469089e-05  -4.527060574104e-06  -1.999292250569e-04 
8
Step 4300
1 1  9.412997697572e-05  -1.446363351072e-04   2.610023601745e-04 
2 1 -4.513391661061e-05   1.323128681351e-04  -8.246141261637e-05 
3 1  9.844907808149e-05   4.077037281528e-05  -8.179508236470e-06 
4 1 -2.277416663356e-04   2.091583299527e-04  -2.999664238248e-05 
5 1 -4.389807554561e-05   2.130785482773e-04  -8.721316177465e-05 
6 1  8.457084202613e-05   1.305894324051e-04  -3.334916364027e-05 
7 1 -1.047420726991e-04  -3.916821552448e-05   3.354782977716e-04 
8 1  1.473010051598e-04  -2.314761678608e-04  -2.397204937836e-04 
8
Step 4400
1 1 -1.489676455885e-05   2.613484310749e-05   8.052109476733e-05 
2 1  2.525563614043e-04   1.772754828878e-05  -2.454962504274e-05 
3 1  9.198509045838e-05   6.221927527197e-05  -1.395792184551e-05 
4 1  2.865740509577e-05   2.234426552624e-04   1.440341651695e-04 
5 1  2.176393878041e-04   3.534469241983e-05   7.879673876112e-05 
6 1 -1.468953801200e-04   5.766873602831e-05   4.470158293849e-05 
7 1 -1.341896812522e-04  -1.132289051079e-05  -1.155442680360e-05 
8 1 -4.794196081862e-05  -2.889137743763e-04  -2.275714117398e-05 
8
Step 4500
1 1 -1.670518887931e-04   7.944423600140e-05  -5.211827953456e-05 
2 1  3.626976114475e-04  -2.888448627934e-05  -2.903974190463e-05 
3 1  1.236611385487e-04  -1.512747956239e-04  -1.547886812278e-05 
4 1  1.714854653284e-04   1.890730366798e-04   1.784276999927e-04 
5 1  2.853109274790e-04  -1.172594966683e-04   1.843435941901e-04 
6 1 -1.317699616843e-04  -1.507104775882e-04   1.155453881769e-04 
7 1 -4.101288198575e-05  -2.459643514884e-04  -1.029812025838e-04 
8 1  7.566976543952e-05  -3.080769795404e-04   6.959362515577e-05 
8
Step 4600
1 1 -2.716744842662e-04   1.361635603758e-05  -8.915742123654e-05 
2 1  2.938175239479e-04  -1.584044389290e-04  -1.599072997597e-04 
3 1  1.325642093276e-04  -3.747465103102e-05   3.582588864621e-06 
4 1  4.397986124974e-05   7.068799347883e-05  -1.524763745994e-04 
5 1  7.806162003237e-05  -1.530109786902e-04   1.172262401039e-04 
6 1 -5.023554217622e-05  -2.068802275620e-05   1.578605616860e-04 
7 1  8.802794431365e-05  -2.077283166166e-04  -2.533332749328e-04 
8 1  2.907237990170e-04  -2.240663716264e-04  -7.977921553970e-05 
8
Step 4700
1 1 -9.559680620385e-05   9.571617395584e-05  -1.211060590264e-04 
2 1  1.121072889035e-04  -2.455714106812e-05  -1.122187622874e-05 
3 1  1.417624452972e-04  -2.664023990507e-05  -3.710851518596e-05 
4 1  1.706351796812e-04   3.807102682836e-05  -5.467182982307e-04 
5 1  2.094254132259e-05  -2.737196887426e-05   7.578858868989e-06 
6 1  1.412800735328e-04   2.608074555114e-04   3.722104469859e-04 
7 1  1.689707277646e-04  -2.562111773994e-04  -1.026585856137e-04 
8 1  1.715001802159e-04  -5.746989584238e-05  -4.275864349865e-05 
8
Step 4800
1 1  1.417899147339e-04   1.857239343496e-04   1.234705886555e-04 
2 1 -1.201624309012e-04   1.905220843332e-04   6.296111293946e-05 
3 1  5.709043320536e-05  -2.435406683702e-04  -1.039165784540e-04 
4 1  2.086765193701e-04   1.517565732640e-04  -2.929180990081e-04 
5 1  6.815711596755e-06   4.956774074856e-05  -3.367750708237e-05 
6 1  1.409025624715e-04   1.963086509512e-04   3.548036842564e-04 
7 1 -1.031735011525e-04  -2.861869094805e-04   3.615538710789e-05 
8 1 -1.345225524197e-04  -1.676729928474e-05   1.236481839736e-05 
8
Step 4900
1 1  1.900592002166e-04  -3.793334836968e-06   3.002197797392e-04 
2 1 -1.915144976160e-04   1.445207241931e-04   6.591982995356e-05 
3 1  2.299197567339e-04  -1.891586909287e-04  -4.835237845264e-05 
4 1  2.092929284585e-04  -5.578561644403e-05  -3.824345358247e-05 
5 1 -5.529847623234e-05   5.456688901151e-05   8.198797709927e-05 
6 1  1.439434012225e-04   8.920450371781e-05   2.086146841535e-05 
7 1 -1.517668391023e-04  -2.770676643334e-04   2.136897700662e-04 
8 1 -1.114339755757e-04   2.739142048118e-05  -7.898767756979e-05 
8
Step 5000
1 1 -1.873412805070e-05  -3.994945835265e-05   4.925399991725e-05 
2 1 -5.763396149815e-05   3.650046727556e-05   1.733096739302e-04 
3 1  3.226543716804e-04   1.162081360208e-04   9.629359223940e-05 
4 1  2.679751063711e-04  -8.002830665579e-05  -8.960806508815e-05 
5 1 -7.455352202466e-05  -5.440284241834e-05   1.951898286030e-04 
6 1  6.648038626350e-05   1.737877674485e-04  -1.818697636031e-04 
7 1 -9.175204497747e-05  -1.169928889100e-04   2.752294071169e-04 
8 1  1.292226579603e-05   1.397825796623e-04   1.921013160465e-05 
8
Step 5100
1 1 -7.314835982475e-05   1.393298114259e-05  -1.018779585939e-04 
2 1  7.215574241079e-05  -1.731457862576e-04   2.904794905689e-04 
3 1  1.520986993822e-04   2.678364613145e-04   1.541077222423e-04 
4 1  1.514787023672e-04  -8.936401910082e-05  -6.540325106081e-05 
5 1 -7.777750208366e-05  -1.027261232510e-04  -5.587684012759e-05 
6 1 -9.851844936345e-05   1.868745212039e-04   1.894937196360e-05 
7 1  7.278681715090e-05   3.465265432363e-05   2.284563811112e-04 
8 1 -5.641489413533e-05  -8.349594958353e-06   1.571812670875e-04 
8
Step 5200
1 1  4.710662049604e-05   3.227800353441e-04  -1.564010342031e-04 
2 1  1.511844154907e-04  -2.396000227272e-04   2.992435971732e-04 
3 1 -1.691021998617e-05   1.617972590816e-04  -7.992533514752e-05 
4 1  8.491603220601e-05   3.123554080529e-05   4.661665658416e-05 
5 1  5.696730999757e-05  -6.794366360044e-05  -2.794344642020e-04 
6 1 -4.218993789134e-05  -3.171057562096e-06   7.251319461326e-05 
7 1  1.522774264965e-05   6.819791148555e-05   1.039403143762e-04 
8 1 -1.845129617779e-04   6.623579638461e-06   2.216828149714e-04 
8
Step 5300
1 1  1.792914182516e-04   2.707646788928e-04  -7.156525797834e-05 
2 1  2.123039467481e-04  -7.679710783505e-05   2.056875715410e-04 
3 1 -6.597944592345e-05  -1.288201589924e-04  -8.324900571095e-05 
4 1  1.996030039222e-04   7.957012943663e-05  -3.519123828341e-05 
5 1  3.541720103191e-05   2.065571090272e-05  -2.717940252573e-04 
6 1 -5.239381604996e-05   1.211818720236e-04   4.429336309749e-05 
7 1 -1.214334441735e-04   6.142363819152e-05  -1.323842856785e-06 
8 1 -1.799767655079e-04   6.487298120347e-05   7.144535257138e-05 
8
Step 5400
1 1 -8.696533758317e-05   1.815338695981e-04   3.928368942592e-06 
2 1  2.964681566545e-04   1.263050628598e-04   8.313828982062e-05 
3 1 -3.034029081231e-05  -1.428961130969e-04   6.354096731658e-06 
4 1  1.894849478357e-04   1.492821243791e-04   3.216648672393e-05 
5 1 -3.455790714111e-05  -1.218209876319e-04  -7.562516858805e-05 
6 1  9.303091491624e-05   2.508039384849e-04  -5.472541303619e-05 