8
Step 0
1 1  0.000000000000e+00   0.000000000000e+00   0.000000000000e+00 
2 1  0.000000000000e+00   0.000000000000e+00   0.000000000000e+00 
3 1  0.000000000000e+00   0.000000000000e+00   0.000000000000e+00 
4 1  0.000000000000e+00   0.000000000000e+00   0.000000000000e+00 
5 1  0.000000000000e+00   0.000000000000e+00   0.000000000000e+00 
6 1  0.000000000000e+00   0.000000000000e+00   0.000000000000e+00 
7 1  0.000000000000e+00   0.000000000000e+00   0.000000000000e+00 
8 1  0.000000000000e+00   0.000000000000e+00   0.000000000000e+00 
8
Step 100
1 1  1.732945994396e-04   5.803607425890e-04   1.098675070845e-04 
2 1 -5.903200013872e-04   1.367211562743e-03  -7.904764694179e-04 
3 1  7.252503123886e-05   1.040858609496e-03  -1.515664825931e-05 
4 1  4.059569740849e-04   9.686645467362e-04   7.538799183181e-04 
5 1 -1.180037197226e-03  -5.196792973405e-04   1.391875099041e-03 
6 1 -5.424251603675e-04   9.520260586675e-04  -5.634073566389e-04 
7 1 -3.969402037587e-04  -1.059429397842e-04   3.889288924567e-04 
8 1 -3.600417587131e-04  -7.208796804419e-04  -1.233956785347e-03 
8
Step 200
1 1  1.723083867351e-04   3.890448944871e-04   2.664075469985e-05 
2 1 -3.674840523367e-04   7.758634653858e-04  -4.302498758315e-04 
3 1  2.123672152598e-04   6.713972318575e-04  -1.124310426799e-05 
4 1  2.031194716404e-04   5.752532923624e-04   5.964619325652e-04 
5 1 -7.516929698370e-04  -4.831366448964e-04   7.780735144776e-04 
6 1 -3.505992305592e-04   4.781639634910e-04  -3.051268114211e-04 
7 1 -2.666541473097e-04  -6.433046337934e-05   2.151502431430e-04 
8 1 -3.744285595944e-04  -3.461532090843e-04  -8.326686190172e-04 
8
Step 300
1 1  1.872397312156e-04   2.279017902937e-04  -8.531646157718e-05 
2 1 -1.751783769898e-04   2.824805927203e-04  -1.014140989818e-04 
3 1  2.897363736238e-04   3.505136472196e-04  -2.817295288860e-05 
4 1  8.203854565035e-05   2.554418526842e-04   4.540076663829e-04 
5 1 -4.168858366272e-04  -3.960454246273e-04   3.415793161265e-04 
6 1 -1.689796627270e-04   1.297685620822e-04  -1.483151850625e-04 
7 1 -1.404033454115e-04  -2.272762517319e-05   1.322049938609e-04 
8 1 -3.809112957652e-04  -3.367888356307e-05  -4.612662798344e-04 
8
Step 400
1 1  2.033558147917e-04   9.550893421772e-05  -1.291275639160e-04 
2 1 -4.011279048024e-05   1.165817612369e-05  -8.579417169009e-06 
3 1  3.394458713577e-04   1.418436857306e-04  -4.394079452461e-05 
4 1 -1.113248405929e-05   6.959230063912e-05   2.982988488588e-04 
5 1 -2.334582923141e-04  -3.005786390791e-04   1.092923356063e-04 
6 1 -7.995445447866e-05  -6.452810004389e-05  -7.424319496413e-05 
7 1 -2.307705505959e-05  -2.690943512625e-05   3.297622855025e-05 
8 1 -3.171957970242e-04   1.337513272197e-04  -2.451447608585e-04 
8
Step 500
1 1  1.636165473488e-04   1.174955601924e-05  -1.279252694690e-04 
2 1  7.157095396401e-05  -6.170148217400e-05  -1.656502900269e-05 
3 1  2.790366728034e-04   1.009159639445e-04  -4.091996754645e-06 
4 1 -9.441772905733e-05  -1.364872119475e-05   1.940298872311e-04 
5 1 -7.472666963366e-05  -2.355865018855e-04  -4.881053974727e-05 
6 1 -6.024452336843e-05  -1.397478700272e-04  -2.411723240752e-05 
7 1  4.224885135042e-06  -1.149970010074e-05  -2.509769479813e-05 
8 1 -2.275108234757e-04   1.859822399345e-04  -7.048285176252e-05 
8
Step 600
1 1  1.385137755087e-04  -1.750920010821e-05  -9.024886234405e-05 
2 1  6.787487699866e-05  -6.229745500079e-05  -5.885428949032e-05 
3 1  2.207902592360e-04   1.025432139039e-04   4.912070947600e-05 
4 1 -1.064355126049e-04  -3.638368210724e-05   9.780013343350e-05 
5 1  6.667916376986e-05  -1.553473788174e-04  -7.090552307211e-05 
6 1 -9.236791793882e-06  -1.379135627614e-04   2.647478623572e-05 
7 1 -1.739293788286e-05   7.416315529518e-06  -3.528950160025e-05 
8 1 -1.061200346485e-04   1.087414117454e-04  -9.181370568815e-06 
8
Step 700
1 1  1.103306819846e-04  -1.919055712761e-05  -8.682722993516e-05 
2 1  1.400755713652e-05  -6.874620142776e-05  -7.906173246657e-05 
3 1  1.432632304826e-04   1.057664545301e-04   5.313341908567e-05 
4 1 -1.450438485358e-04  -1.011765308894e-05   5.438327853661e-05 
5 1  1.124291670120e-04  -6.337255155535e-05  -2.927400136311e-05 
6 1  3.992213144775e-05  -1.189709434446e-04   4.480948071794e-05 
7 1  1.160992030874e-05  -1.242696835339e-05  -1.657843738387e-06 
8 1 -4.014670994406e-05   5.162767499878e-05   1.804548640597e-05 
8
Step 800
1 1  4.825581476506e-05  -1.462058091623e-05  -7.274487544076e-05 
2 1 -7.252020918981e-05  -9.690931183449e-05  -1.242085150692e-04 
3 1  6.418950137667e-05   6.940981305820e-05   5.492779001970e-05 
4 1 -1.088143144230e-04   3.957363962548e-05   2.995387724830e-05 
5 1  1.100927871992e-04   4.974709052524e-06   3.392783980563e-05 
6 1  1.980736270984e-05  -1.032379574539e-04   4.172561555972e-05 
7 1 -7.822113881210e-07  -2.465360400057e-05   2.551224439741e-05 
8 1  2.471836231623e-05   7.158318202144e-06   1.171358300539e-05 
8
Step 900
1 1  8.046691465751e-05   7.710086882963e-06  -6.450924185371e-05 
2 1 -9.948692888612e-05  -2.666479021392e-05  -1.243767107117e-04 
3 1  7.546197945495e-05   7.558256332843e-05   4.960082509760e-05 
4 1 -1.048298014830e-04   8.081939162954e-05  -1.191147151799e-05 
5 1  1.051103442455e-04   1.854473971895e-05   6.999103276346e-05 
6 1 -2.154801403238e-05  -1.088650254536e-04   1.277887377166e-05 
7 1 -1.120427251175e-05   3.038535610206e-06   4.275964570206e-05 
8 1  1.747861488545e-05  -3.157071091806e-05   1.487003760727e-05 
8
Step 1000
1 1  9.362072379947e-05   4.654291304922e-05  -8.085649227148e-05 
2 1 -8.670748495169e-05  -1.807791332440e-05  -1.400407410616e-04 
3 1  6.463511912245e-05   1.219619654194e-04   8.305576213318e-05 
4 1 -5.607827481488e-05   7.675164304224e-05  -1.501694188260e-05 
5 1  1.285429620431e-04   4.007108146088e-05   1.055761062917e-04 
6 1 -5.445570250584e-05  -1.055682129373e-04  -5.818549061887e-06 
7 1 -2.320510619356e-06   6.132837530629e-05   4.809344075243e-05 
8 1  2.474088615810e-05  -2.912382617503e-05   1.837473967114e-05 
8
Step 1100
1 1  4.646369558220e-05   1.468660445473e-05  -9.188833127077e-05 
2 1 -3.535907012886e-05  -1.883292207858e-05  -1.327424585026e-04 
3 1 -5.641596392666e-06   1.260338490283e-04   9.066262503603e-05 
4 1 -2.465638052105e-06   6.255531704863e-07  -4.797547339674e-05 
5 1  1.001994640387e-04   5.820203284977e-05   1.297777598608e-04 
6 1 -6.701866310203e-05  -1.109757221324e-05   6.014399750890e-06 
7 1  4.418825667880e-05   1.122560890974e-04   9.818014760805e-05 
8 1  5.724934529595e-05  -3.304310696257e-05   2.679712033352e-05 
8
Step 1200
1 1  1.957749550364e-05  -1.685042643304e-05  -9.470859856259e-05 
2 1 -2.353660440422e-05  -1.781278339811e-07  -1.028268297008e-04 
3 1 -2.143754939021e-05   1.021955428647e-04   1.088379175943e-04 
4 1  5.445990289494e-05   3.329838843165e-06  -3.144055228161e-05 
5 1  1.125208621768e-04   9.386563515839e-05   1.217955802301e-04 
6 1 -2.496282408244e-05   7.009808062767e-05   4.139663799201e-05 
7 1  4.806351187926e-05   7.959523959104e-05   9.789762071958e-05 
8 1  1.089423586589e-04  -4.943667263770e-05   3.484865630691e-05 
8
Step 1300
1 1  8.495952026605e-06  -8.802988487119e-06  -1.428525993111e-04 
2 1  1.055018914086e-05   2.006136692625e-05  -8.956420563952e-05 
3 1 -8.194678750231e-06   7.545057532121e-05   1.037882293120e-04 
4 1  6.359542740410e-05   8.199347726303e-05  -2.232107512665e-05 
5 1  1.139134064064e-04   6.344210746573e-05   1.062513350028e-04 
6 1  3.342489338709e-05   6.139210313553e-05   1.159500493203e-05 
7 1 -9.707627886539e-06   8.247252726301e-06   1.635033049456e-05 
8 1  1.064049546533e-04  -6.217743193415e-05  -1.822788073013e-05 
8
Step 1400
1 1  2.473522044310e-06  -6.718516225823e-05  -1.479274054029e-04 
2 1  5.107267562866e-05   7.147835604006e-06  -4.942534952258e-05 
3 1  4.116381374866e-06   6.897059371043e-05   5.953765309873e-05 
4 1  6.753103216067e-05   7.792525200562e-05  -4.138695922119e-06 
5 1  7.599056207371e-05   5.438083988205e-06   4.000209860712e-05 
6 1  2.895259205076e-05   4.413545148473e-05   2.419607417543e-05 
7 1 -4.299386055550e-05  -4.825839483571e-05  -5.715955967457e-05 
8 1  4.904955401229e-05  -2.259525508017e-05  -2.660196867629e-05 
8
Step 1500
1 1  1.213892623249e-05   2.002601002972e-06  -4.498686813267e-05 
2 1  7.030270652142e-05   7.920443130785e-06  -3.021390378909e-05 
3 1  2.647212507296e-05   1.099791334626e-04   2.916703643583e-05 
4 1  4.024640002014e-05   1.222449367214e-05   8.588542753367e-06 
5 1  4.348027914748e-05  -3.816420216128e-05  -1.160452272877e-05 
6 1  3.656245232829e-05   7.723995581469e-05   3.255298408234e-05 
7 1 -6.322894351000e-05  -6.036523701905e-05  -1.049743156186e-04 
8 1 -4.604152584032e-06  -1.184586701772e-05  -5.166693477300e-05 
8
Step 1600
1 1  2.358805991799e-05   8.279003540959e-05  -8.403828100630e-07 
2 1  3.918275778550e-05   5.715588839453e-05  -2.901923367335e-05 
3 1  4.636884693615e-06   1.544816584403e-04   4.103241849778e-05 
4 1  5.159645527644e-05   6.187806323483e-06   4.448236854567e-05 
5 1  1.059906070290e-04  -2.040420757352e-05  -3.124264843673e-05 
6 1  9.275906950427e-05   8.402566648860e-05   9.906353877611e-06 
7 1 -1.035453709795e-04  -3.723350125412e-05  -1.120623324616e-04 
8 1  1.346038179907e-05   8.396236901230e-06  -2.540629548047e-05 
8
Step 1700
1 1  4.702226932864e-05   1.381448402845e-04  -3.643219506949e-05 
2 1 -4.969922656902e-05   7.032971666596e-05  -1.639978353349e-05 
3 1 -9.971266932800e-06   1.585362024166e-04   5.067728900483e-05 
4 1  6.941487953022e-05   2.501005312984e-05   5.850286786623e-05 
5 1  1.306336977373e-04   3.784252932223e-05  -5.156080244301e-06 
6 1  1.549932549039e-04   9.024058898045e-05  -1.889990668408e-05 
7 1 -1.084041948078e-04  -2.549182466919e-06  -1.094676263712e-04 
8 1  8.447756786129e-05   1.072849042810e-04  -3.938027061216e-06 
8
Step 1800
1 1  3.472652808982e-05   9.502175243510e-05  -9.458614894521e-05 
2 1 -1.175340249132e-04   1.050047826110e-04  -7.566932258927e-05 
3 1 -5.108588674194e-05   1.205869729040e-04   6.424564574312e-05 
4 1  5.594236274680e-05  -2.161938046452e-05   5.484385801751e-05 
5 1  5.598778819920e-05   6.746444415623e-05   5.665800658059e-05 
6 1  1.497674808204e-04   8.728179341792e-05  -2.389052798465e-05 
7 1 -1.161609316669e-04   8.568985147507e-06  -4.945312875699e-05 
8 1  1.055904607431e-04   1.378853187795e-04  -3.993632439692e-05 
8
Step 1900
1 1  2.974016921539e-05   3.795934809389e-05  -1.375905488500e-04 
2 1 -1.176025861209e-04   9.070593982897e-05  -9.324119263097e-05 
3 1 -4.170848596994e-05   5.403364295865e-05   5.413554439206e-05 
4 1  8.566752247869e-06  -3.467878164473e-05   5.466822639095e-05 
5 1 -1.003273130360e-05   3.764422663289e-05   3.522029786292e-05 
6 1  9.892839319693e-05   4.220838691886e-05   1.855686890011e-06 
7 1 -8.547288985929e-05  -1.958333228575e-05   8.016321551533e-06 
8 1  8.208420656946e-05   6.188447105275e-05  -5.237155464240e-06 
8
Step 2000
1 1  9.154062689695e-05   6.188277883633e-06  -8.265541963386e-05 
2 1 -8.527205122495e-05   3.365208355368e-05  -1.785603288918e-05 
3 1 -1.212865382667e-05  -4.182636308814e-05   2.211759020576e-05 
4 1  2.429682828263e-05  -6.817594960149e-06   8.685801973058e-05 
5 1  6.606174356079e-06  -2.854854057876e-05   1.289997413077e-05 
6 1  7.973953955941e-05   3.285875216639e-05   6.349732376980e-06 
7 1 -2.347434298835e-05  -6.865142080211e-06   3.463040138775e-05 
8 1  4.814398157308e-05   2.862788723258e-05   1.236038527075e-05 
8
Step 2100
1 1  1.022246937990e-04   5.622691874842e-06  -1.830338957395e-05 
2 1 -3.279269998614e-05   5.193933085576e-05   8.229871380066e-05 
3 1  1.667244002361e-05  -6.621943086943e-05  -9.676045166067e-06 
4 1  3.627444677318e-05  -3.401426923952e-05   4.212984077256e-05 
5 1  8.323001908335e-05  -3.244500798461e-05  -6.388715486431e-07 
6 1  4.061820464868e-05   3.370484094462e-05   2.319907218498e-05 
7 1  3.186499297520e-05  -2.083234861731e-07   1.097331241743e-05 
8 1  7.312353438563e-06  -5.950713968620e-06   7.026309298581e-06 
8
Step 2200
1 1  7.699147197379e-05   5.952594380399e-05  -2.329974490792e-05 
2 1 -9.567462564015e-06   6.983180742411e-05   1.013120803332e-04 
3 1  2.095155092532e-05  -5.096800486799e-05   2.283469468957e-05 
4 1  4.171869699705e-05  -1.010494687718e-04   3.581488030296e-05 
5 1  1.376922744004e-04  -4.532386767253e-05  -6.956490156707e-05 
6 1 -6.347724764894e-06  -1.682099376564e-05   3.641304563036e-05 
7 1  1.859607468834e-05   1.807222036300e-05  -3.302407860993e-05 
8 1 -1.561302875907e-05  -1.327894360338e-05   4.411815382042e-05 
8
Step 2300
1 1  6.969801506967e-05   7.464663306630e-05  -3.706534321097e-05 
2 1 -2.264527907671e-05   5.329767210222e-05   1.119486313069e-04 
3 1 -5.692412757351e-06   1.253534092514e-05   3.788797186199e-05 
4 1  4.558547460656e-05  -6.408616838852e-05   5.990160081385e-05 
5 1  1.292140017603e-04  -8.729709014058e-05  -5.445163084324e-05 
6 1  2.368170522620e-06  -2.165902763854e-05   8.898062637275e-06 
7 1  5.088952141532e-05  -4.222778161658e-05  -2.856591955988e-06 
8 1 -1.154254560746e-05   5.357113863737e-05   2.184615427474e-05 
8
Step 2400
1 1  6.113954513808e-05   5.430121771867e-05   5.807702917827e-06 
2 1 -1.444760501609e-05   3.896116316633e-05   7.546289525357e-05 
3 1 -8.188122594269e-06   7.846405276338e-05   4.496574795259e-05 
4 1  8.812508843680e-06  -6.289142297213e-05   4.676966032909e-05 
5 1  4.343450524632e-05  -1.156023880892e-04   2.354179406402e-06 
6 1 -1.259021408688e-05  -3.660434595890e-05   1.584184381297e-05 
7 1  6.762545723857e-05  -9.283869985757e-05   1.814741917872e-05 
8 1  3.736602135180e-05   8.101437834624e-05  -2.497229724812e-06 
8
Step 2500
1 1  8.869349336138e-05   6.990688340474e-05   6.829425083050e-06 
2 1 -1.241032664886e-06   5.372468206783e-05   7.670707908949e-05 
3 1  1.376553478293e-05   6.861276962553e-05   2.613880722724e-05 
4 1 -3.764022485329e-05  -6.194336435363e-05   2.106794294680e-05 
5 1 -3.253996698551e-05  -1.203353611213e-04   1.645361132138e-05 
6 1  3.843143341533e-05  -6.476702869331e-05   5.686883255203e-05 
7 1 -8.404482239367e-06  -1.357697525546e-04   2.079730419249e-05 
8 1  2.376705913713e-05   6.968433221094e-05  -1.779408042506e-05 
8
Step 2600
1 1  9.751546647470e-05   5.964677668784e-05  -5.540822705656e-05 
2 1 -1.179587126199e-05   7.075601096698e-05   3.257770616548e-05 
3 1  7.244344450595e-05   4.590858932771e-05  -2.282220160555e-05 
4 1 -4.430773535131e-05  -7.586510141360e-05   4.672869705320e-05 
5 1 -1.063343546222e-04  -1.163744469452e-04   1.736765065483e-05 
6 1  7.950672938523e-05  -4.090085183205e-06   8.110927762048e-05 
7 1 -5.114292898106e-05  -1.393445340003e-04   2.914390488883e-05 
8 1  5.083259950298e-05   6.866975040509e-05   1.460500665194e-05 
8
Step 2700
1 1  1.176737565805e-04   9.579451699617e-05  -1.063702769089e-04 
2 1 -4.762158134006e-06   1.022542843107e-04  -2.027934091497e-05 
3 1  6.418740163647e-05   3.283547885214e-05  -4.921097422127e-05 
4 1 -5.542940021538e-05  -7.420968181383e-05   6.673855920989e-05 
5 1 -4.859313648343e-05  -7.640763778429e-05  -3.160789168176e-07 
6 1  8.159065412686e-05   5.573436015324e-05   8.404131742060e-05 
7 1 -1.163107863546e-04  -1.194695920902e-04   3.011973869893e-05 
8 1  9.383525061596e-05   4.617022000432e-05  -2.264607806544e-05 
8
Step 2800
1 1  1.375218087845e-04   8.529967660322e-05  -8.782018729581e-05 
2 1  1.970494699343e-05   1.066646135705e-04  -1.980209426450e-05 
3 1  3.719107192861e-05   1.790476371343e-06  -1.089711695456e-05 
4 1 -6.988372484258e-05  -8.719324227160e-05   7.104962913393e-05 
5 1  7.777258188072e-06  -7.436368769051e-05   1.763308715043e-05 
6 1  9.268567456767e-05   2.212542619177e-05   1.055925544826e-05 
7 1 -8.829755290411e-05  -1.601131536235e-04   1.726608240282e-05 
8 1  8.789290278677e-05   6.519883410629e-05  -6.823594020351e-05 
8
Step 2900
1 1  1.194095212674e-04   7.152561831320e-05  -9.730258554576e-05 
2 1 -1.119319488277e-05   1.250800942585e-04  -6.055047283782e-05 
3 1 -1.961548352559e-05  -2.898165156776e-05   4.228591404156e-05 
4 1 -5.720818948568e-05  -8.098246077876e-05   8.224812719768e-05 
5 1  2.252366229992e-05  -7.532064385254e-05  -2.113847101011e-05 
6 1  5.879683422124e-05  -4.373159302244e-05  -2.027099236488e-05 
7 1 -2.913844759212e-05  -9.928268677068e-05  -2.057521316509e-06 
8 1  4.810763710987e-05   1.243624563066e-04  -8.995867455118e-05 
8
Step 3000
1 1  1.129928734475e-04   5.473903921514e-05  -1.033574306175e-04 
2 1  1.356863884415e-06   1.382961396834e-04  -7.186333827119e-05 
3 1 -8.144604007896e-05  -6.950525326295e-05   3.287714592802e-05 
4 1  5.302902495452e-05  -7.866984737631e-05   6.048441925495e-05 
5 1  3.253362988235e-05  -4.810119672163e-05  -3.924774562341e-05 
6 1 -2.856241118588e-05  -5.839691267267e-05  -1.060641616467e-05 
7 1 -1.566362675481e-06  -5.459953522037e-05  -5.526663704358e-05 
8 1  2.009811266276e-05   7.524627333562e-05  -5.342681138230e-05 
8
Step 3100
1 1  8.313979287410e-05   8.904264733477e-05  -8.083397952136e-05 
2 1  3.237557692936e-05   1.514901260729e-04  -5.536470336417e-05 
3 1 -2.452724108425e-05  -7.559057016327e-05   2.332708047563e-05 
4 1  1.095103155736e-04  -1.056549077409e-04   4.713438510562e-05 
5 1  6.080798005488e-06   3.792212467628e-05  -5.631189532532e-05 
6 1 -3.330820382910e-05  -2.217475026756e-05  -5.220338669114e-05 
7 1 -1.125692930629e-05  -1.140431476081e-05  -6.975593153971e-05 
8 1  1.411279743837e-05   1.020398964028e-04  -5.869879148087e-05 
8
Step 3200
1 1  7.156406958910e-06   1.763639840707e-05  -2.792892227201e-05 
2 1  6.035517225715e-05   1.508447438534e-04  -4.260150554739e-05 
3 1  4.906726878396e-05  -3.168949380738e-05   1.685264566135e-05 
4 1  3.621733427997e-05  -1.181460343451e-04   3.677942172449e-05 
5 1 -2.054485492542e-05   8.049574383379e-05  -7.715953729366e-05 
6 1 -2.924463298833e-05  -1.252065181242e-05  -6.591604381460e-05 
7 1  3.645738352656e-05  -4.620683062527e-06  -8.550830576630e-05 
8 1 -4.138234310639e-06   5.154720371440e-05  -4.686454525031e-05 
8
Step 3300
1 1 -4.457644174588e-05   2.092824962894e-05   5.116213988525e-06 
2 1  1.187158415110e-04   1.500567996917e-04  -4.126222255589e-05 
3 1  5.272422319444e-05   3.445288186986e-05   2.394305393831e-05 
4 1  6.259703925844e-05  -8.924600870988e-05   3.789255582401e-05 
5 1 -5.285564513296e-05   9.328654245770e-05  -1.195989158996e-04 
6 1  7.246091942881e-06   2.068493141112e-05  -2.908399809719e-05 
7 1  6.204241858158e-05   1.312216646268e-05  -9.742153594480e-05 
8 1 -5.084753167056e-05   1.661459875010e-05   7.545753067108e-06 
8
Step 3400
1 1 -2.727760486605e-05  -1.236073738651e-05  -3.480621175697e-05 
2 1  1.255274465026e-04   1.732366002190e-04   2.952573678947e-06 
3 1 -3.597585294028e-05   6.047265830456e-05   3.717230251973e-05 
4 1  6.544759603645e-05  -5.907748742138e-05   3.314399442037e-05 
5 1 -5.744971447580e-06   8.547288325124e-05  -1.033210492882e-04 
6 1  4.198131789575e-05  -1.679759028932e-05  -4.619672645163e-06 
7 1  6.610321723002e-05   7.699814138956e-06  -6.869293022214e-05 
8 1 -1.096007357551e-04  -1.224508964056e-05   7.630511030403e-05 
8
Step 3500
1 1 -1.401572448361e-05  -7.545995336080e-06  -3.661107198258e-05 
2 1  1.062213915666e-04   1.310233582634e-04   6.624700255001e-05 
3 1 -7.202498958914e-05   7.608924686430e-05   1.396867909741e-05 
4 1 -2.664437463690e-05   1.777499841817e-05   9.221418283371e-05 
5 1  5.590691306987e-06   3.354165457952e-05  -4.340012226135e-05 
6 1  3.759646415733e-05  -6.579023733053e-05   2.464597235883e-05 
7 1  5.063887972679e-05   5.188558768181e-05  -4.372332922860e-05 
8 1 -1.126685634521e-04  -3.179095034956e-05   7.374326782320e-05 
8
Step 3600
1 1 -1.274821552884e-05   6.084834123066e-06   6.423234785356e-07 
2 1  1.841106009404e-05   1.274069576036e-04   1.114022173209e-04 
3 1 -4.548464272451e-05   2.195421757797e-05  -1.270397723193e-06 
4 1 -9.524642483826e-05   7.805835763450e-05   1.209771174632e-04 
5 1  9.026263178836e-06   1.666601909579e-05   3.446800783417e-05 
6 1  1.653441984674e-05  -8.524063761042e-05   6.485817624852e-05 
7 1  1.571134334741e-05   8.304854483549e-05  -6.844122488734e-05 
8 1 -1.090800586017e-04  -1.422816291323e-05   3.870890145388e-05 
8
Step 3700
1 1 -1.196195494112e-05   3.534900343056e-05   5.769910946113e-06 
2 1 -1.295905561760e-05   9.702738126576e-05   8.461200459535e-05 
3 1 -4.473025423315e-05  -4.562991676764e-06   1.983012443832e-06 
4 1 -1.040963243582e-04   6.540971047874e-05   8.171532317619e-05 
5 1 -6.984280301188e-05  -3.157273413095e-05   2.076805038093e-05 
6 1  3.015131804964e-06  -9.885141870804e-05   8.705129444361e-05 
7 1 -2.630473904923e-05   6.890684809961e-05  -4.799333749117e-05 
8 1 -1.126785990847e-04   2.730532269291e-05   2.678746691532e-05 
8
Step 3800
1 1  2.986037929855e-05   1.231137326607e-05   3.829962819993e-05 
2 1 -4.741756862764e-06   6.685642587758e-05   7.835688545982e-05 
3 1  1.228449677001e-05  -6.903848778208e-05   1.803316696014e-05 
4 1 -6.288751133777e-05   9.356620088608e-05   7.711185022565e-05 
5 1 -8.430822233862e-05  -7.641053082482e-05   2.044517049041e-06 
6 1 -4.086603690746e-05  -8.389385489475e-05   7.026999646833e-05 
7 1 -3.397782947011e-05   3.567240829472e-05  -2.594182944265e-05 
8 1 -7.465838175996e-05   1.605976805427e-05  -5.508377604997e-05 
8
Step 3900
1 1  9.302021927062e-05  -6.186332372703e-05   5.507587916155e-05 
2 1 -5.870031180162e-05   4.704371287019e-05   9.727120174272e-05 
3 1  4.047389007292e-05  -5.473378499663e-05   1.690894284201e-05 
4 1 -4.358914807321e-05   1.031117931158e-04   3.877833974674e-05 
5 1 -7.437645543003e-05  -5.987423644597e-05  -4.693248134598e-05 
6 1 -5.229710257356e-05  -4.112152876419e-05   4.072130049518e-05 
7 1 -2.156570969404e-05  -2.016450576398e-05  -9.347567320375e-06 
8 1 -3.785298904985e-06   2.195587224458e-05  -1.328092614337e-04 
8
Step 4000
1 1  9.547703707302e-05  -5.173238036268e-05   4.246621597564e-05 
2 1 -5.525674179100e-05   3.632398751121e-05   9.160848124230e-05 
3 1  4.051016899674e-05  -8.462532069651e-06   5.071284115023e-06 
4 1  6.899261072395e-05   1.090273427327e-04  -2.220853678647e-06 
5 1 -5.393801356333e-05  -5.130187437068e-05  -1.052018474176e-04 
6 1 -3.522438984156e-05   9.107665664133e-06   2.225499474875e-05 
7 1 -4.369903814233e-05  -4.807792757802e-05   2.291312342329e-05 
8 1  8.194425687980e-05   5.003164732485e-05  -9.109092502360e-05 
8
Step 4100
1 1  7.514913556551e-05  -1.061406458012e-05  -4.143066762155e-07 
2 1  1.257699566264e-06   5.521237274555e-05   4.768898486637e-05 
3 1  2.362704234817e-05   6.278200704824e-06  -6.023703852954e-06 
4 1  1.601785995475e-04   9.225665783255e-05  -3.828394110775e-05 
5 1 -5.484754589672e-05  -3.869871502422e-05  -1.195760562791e-04 
6 1 -2.044891125058e-05   4.102924354339e-05   1.302117888247e-05 
7 1 -8.088826019510e-05  -9.279395441801e-05  -2.075896681107e-05 
8 1  1.014267480241e-04   8.976343305349e-05  -4.730057240858e-05 
8
Step 4200
1 1  9.431677151957e-05   8.761515317191e-06  -8.738743611856e-05 
2 1  7.101972634787e-05   1.175258405594e-04   1.693871867505e-05 
3 1  1.740135450882e-05  -2.583871726849e-06  -7.919251909349e-06 
4 1  2.064223762451e-04   6.982557552097e-05  -5.260591333628e-05 
5 1 -5.252733243644e-05  -4.132755878936e-06  -1.048970347810e-04 
6 1 -1.782537217049e-05  -1.780401146886e-05   3.800959192502e-05 
7 1 -9.565983172887e-05  -1.200106223007e-04  -2.102535459799e-05 
8 1  5.208904089302e-05   8.318878948421e-05  -8.664352984255e-05 
8
Step 4300
1 1  1.272118700811e-04  -1.432555486081e-05  -1.354017587410e-04 
2 1  4.373803621604e-05   1.228315533304e-04  -1.626737702944e-05 
3 1  3.302276765278e-05  -1.213859696999e-05  -1.782035880560e-05 
4 1  1.698783981947e-04   3.862735923249e-05  -4.585862018367e-05 
5 1 -7.142149641543e-05   3.652130813723e-05  -2.769852754039e-05 
6 1 -4.168947307568e-05  -4.886142770119e-05   7.312630587877e-05 
7 1 -6.549004739379e-05  -1.300058470152e-04  -1.239866189113e-05 
8 1  3.956947135863e-05   6.716336545360e-05  -1.197224530747e-04 
8
Step 4400
1 1  1.293478431514e-04   9.777460493338e-07  -1.556592398046e-04 
2 1  6.396896294096e-05   6.419247326557e-05  -2.490450587938e-05 
3 1  3.355640057020e-06  -2.242973652847e-05   5.408922620374e-05 
4 1  1.373482688760e-04   5.285029699375e-05  -2.053309042604e-05 
5 1 -9.319235766755e-05   5.357093171806e-05   4.424270665050e-06 
6 1 -3.692589376080e-05  -1.007661033571e-04   7.319168586158e-05 
7 1 -4.551904841841e-05  -1.131066540527e-04  -2.555893503648e-05 
8 1  4.467343975184e-05   8.584173445225e-05  -9.565909580572e-05 
8
Step 4500
1 1  7.151259598058e-05   3.792202095743e-05  -1.169357403054e-04 
2 1  4.725267237109e-05   2.087254821611e-05  -2.496003066082e-05 
3 1  3.423496079466e-05  -2.080749875563e-05   9.588153217312e-05 
4 1  1.043910094986e-04   1.735676685777e-05   9.046437895560e-08 
5 1 -1.275062717426e-04  -1.381919430465e-05   2.383388575452e-05 
6 1  8.829701287177e-06  -1.731417502897e-04   2.120918448583e-05 
7 1 -5.611805254485e-05  -1.071770693127e-04  -3.477264573052e-05 
8 1  2.994744838638e-05   1.023839845282e-04  -8.508423729279e-06 
8
Step 4600
1 1  1.721849758123e-05   9.149937705777e-05  -6.075940875857e-05 
2 1  8.711082410949e-05  -1.822051408217e-05  -6.886092145936e-05 
3 1  4.068906824586e-05   1.473404007831e-05   1.340297605343e-04 
4 1  2.786525061690e-05   1.329357978991e-05   1.562201556693e-05 
5 1 -1.708248069002e-04  -6.197255320005e-05   4.294134239638e-05 
6 1  6.089875465734e-05  -1.562760354025e-04  -2.749573282172e-05 
7 1  9.928637094424e-06  -1.087024987294e-04  -1.019527485910e-05 
8 1  1.326301674253e-05   8.541178669658e-05   3.187387610743e-05 
8
Step 4700
1 1  2.561800126603e-07   8.769283037336e-05  -1.731252178576e-05 
2 1  6.182760849956e-05  -2.801772922013e-05  -1.025434161544e-04 
3 1  2.086370625282e-05   3.642063299199e-05   9.408310449321e-05 
4 1 -1.133938640637e-05   4.588724416493e-07   4.676609900619e-05 
5 1 -1.221232961497e-04  -8.483157046095e-05   9.549555860684e-05 
6 1  3.859178630417e-05  -1.725830076298e-04  -9.593549859750e-05 
7 1  6.095647876765e-05  -9.733794802709e-05   8.740938596227e-06 
8 1  3.604002241015e-05   9.357045511928e-05  -2.697344491773e-07 
8
Step 4800
1 1 -8.759633331064e-06   5.829741547540e-05   3.878576570450e-05 
2 1  4.219890979116e-05   2.792430159174e-05  -1.103419464874e-04 
3 1  2.352723106891e-05  -1.577381331069e-05   7.566637877286e-05 
4 1 -3.613382523275e-05  -2.067194829796e-05   8.879999629540e-05 
5 1 -6.274055756657e-05  -8.538778549293e-05   8.894927467998e-05 
6 1 -1.948169828649e-06  -1.510332029007e-04  -9.757913804690e-05 
7 1  7.136193101777e-05  -1.024471459668e-04   2.593149601674e-05 
8 1  5.016169463652e-05   1.281130335462e-04  -4.435024966309e-05 
8
Step 4900
1 1 -1.331594427945e-05   5.193834123405e-05   7.285693541185e-05 
2 1  3.093583724023e-05   1.022044007093e-04  -7.083524942916e-05 
3 1  3.704219375802e-05  -1.140411942812e-04   2.296008297157e-05 
4 1 -2.083110540252e-05  -3.544256646281e-05   8.340679765783e-05 
5 1 -2.771217097846e-05  -3.961351880867e-05   5.506991495865e-05 
6 1 -2.036341670188e-05  -1.023878604645e-04  -7.373622007690e-05 
7 1  4.308310428704e-05  -1.005266283147e-04   7.735282613472e-05 
8 1  6.488104343866e-05   1.150253924680e-04  -1.281748347441e-05 
8
Step 5000
1 1  1.671002537238e-05   2.855179595055e-05   5.512815117950e-05 
2 1 -1.211784920737e-05   9.825530715096e-05  -1.569941058397e-05 
3 1  7.209297746049e-06  -1.659878062319e-04  -5.033790629285e-06 
4 1 -1.202160546606e-05  -1.011023561983e-04   7.805666770045e-05 
5 1 -3.729475213584e-05  -2.451827324227e-05   4.421847913453e-05 
6 1 -5.500619328801e-05   2.244571000502e-05  -2.683017541934e-05 
7 1  6.915784181323e-05  -6.419689818524e-05   6.070348863734e-05 
8 1  5.380873838865e-05   3.871266243703e-05  -1.865934183702e-05 
8
Step 5100
1 1  9.297228413685e-05   5.178336381713e-07   8.059510729302e-05 
2 1 -2.304793754038e-05   5.821110995670e-05   2.507060617413e-05 
3 1  7.219086331437e-06  -1.970088562419e-04  -3.364278957343e-05 
4 1 -8.000816077434e-06  -1.275166671367e-04   1.104265170490e-04 
5 1 -5.604453830558e-05  -8.326355689848e-05   2.639574827557e-05 
6 1 -8.731425489128e-05   9.108558162915e-05  -5.251173242860e-05 
7 1  9.025540552278e-05  -2.871425988396e-05   4.850910172794e-05 
8 1 -6.411097612563e-06   1.793707935957e-05  -2.626521929856e-05 
8
Step 5200
1 1  1.205528418637e-04   4.257505183417e-05   8.785855421842e-05 
2 1  3.611111674454e-05   4.147159524597e-06   1.167950820318e-05 
3 1  6.408009264867e-06  -1.162535250008e-04  -4.623815259884e-05 
4 1  2.329634994281e-05  -1.273613251064e-04   1.143664453709e-04 
5 1 -2.846011741832e-05  -1.149567510702e-04   2.230102203819e-05 
6 1 -7.644241578106e-05   6.862268485933e-05  -6.645008678416e-05 
7 1  1.264080606837e-05   8.589514047329e-06   7.874615413455e-05 
8 1 -3.680908308353e-05   1.720572761435e-05   6.199714093704e-06 
8
Step 5300
1 1  6.325601788564e-05   5.546336163269e-05   7.896240760742e-05 
2 1  7.194946240211e-05  -2.209410134428e-05  -3.487501622748e-05 
3 1  1.350631564890e-05   1.667793040695e-06  -7.666471144440e-05 
4 1  5.319200862398e-06  -8.097116665275e-05   8.740915786895e-05 
5 1 -4.682867762054e-07  -7.118411102623e-05   1.591582644925e-05 
6 1 -2.420259707341e-05   6.591161177041e-05   4.261414180746e-06 
7 1 -6.144940133431e-05   3.482359620759e-05   1.109821962160e-04 
8 1 -4.173716860221e-05  -1.184787182452e-05   3.729892161495e-05 
8
Step 5400
1 1  1.212541375762e-05   9.651321935468e-05   8.537877648094e-05 
2 1  6.517378023370e-05  -3.493438949644e-05  -5.495751096169e-05 
3 1  5.020417269907e-05   1.607857263464e-05  -9.838803647192e-05 
4 1  1.972795077865e-06  -4.836224749893e-05   8.109252530877e-05 
5 1 -2.955572994639e-05  -2.183220360995e-05   2.172625305625e-05 
6 1  2.294382542099e-05   2.657726786169e-05   2.033586830940e-05 