8
Step 0
1 1  0.000000000000e+00   0.000000000000e+00   0.000000000000e+00 
2 1  0.000000000000e+00   0.000000000000e+00   0.000000000000e+00 
3 1  0.000000000000e+00   0.000000000000e+00   0.000000000000e+00 
4 1  0.000000000000e+00   0.000000000000e+00   0.000000000000e+00 
5 1  0.000000000000e+00   0.000000000000e+00   0.000000000000e+00 
6 1  0.000000000000e+00   0.000000000000e+00   0.000000000000e+00 
7 1  0.000000000000e+00   0.000000000000e+00   0.000000000000e+00 
8 1  0.000000000000e+00   0.000000000000e+00   0.000000000000e+00 
8
Step 100
1 1 -1.410356695714e-03   5.546830171052e-05  -6.864178227834e-04 
2 1  7.885854916676e-04   8.453512319017e-04  -1.411810313182e-03 
3 1 -1.695984001501e-03   1.130441414307e-03   1.107675100979e-03 
4 1  2.537824674282e-04  -1.976310097078e-05  -2.757152249008e-04 
5 1 -2.049664317078e-04   5.537208971947e-04   1.178292542964e-03 
6 1  1.064967573662e-03   7.714206611201e-04   5.655534949601e-04 
7 1  8.375201988405e-04   2.458728443936e-04   3.153589291254e-04 
8 1  8.582104461236e-04   7.374890740859e-04   2.016554823612e-04 
8
Step 200
1 1 -9.150264114194e-04   4.422706139783e-05  -6.051797321877e-04 
2 1  5.573684728754e-04   3.463409892706e-04  -7.994392214984e-04 
3 1 -1.026009575697e-03   7.145436268303e-04   7.484492858226e-04 
4 1  1.320900036184e-04  -9.943862584138e-05  -1.373431278441e-04 
5 1 -5.625185558213e-05   2.860068970007e-04   6.901324905035e-04 
6 1  6.903681663088e-04   4.610496265110e-04   4.332709295355e-04 
7 1  5.776512915079e-04   1.466705902350e-04   2.520493870171e-04 
8 1  4.271889852151e-04   6.155010217859e-04   1.153748559336e-04 
8
Step 300
1 1 -4.844279599399e-04   3.245862322489e-05  -4.774246922868e-04 
2 1  3.041364653404e-04  -6.386930939014e-05  -3.342380794494e-04 
3 1 -4.406861037809e-04   3.597936407486e-04   4.085267325697e-04 
4 1  3.575263583287e-05  -1.985508584272e-04  -3.090782689008e-05 
5 1  3.519571850987e-06   7.115680349417e-05   3.045365056383e-04 
6 1  4.036310713260e-04   2.356293042064e-04   3.103655978479e-04 
7 1  3.703577791594e-04   4.755885660449e-05   2.780495553242e-04 
8 1  8.795681455553e-05   4.835202447812e-04   4.296932316247e-05 
8
Step 400
1 1 -2.202836684735e-04  -1.091171738192e-05  -3.395889029306e-04 
2 1  1.022593927016e-04  -2.027491035291e-04  -1.205671824496e-04 
3 1 -3.995046085764e-05   1.896651790264e-04   2.197193498104e-04 
4 1  2.050027024849e-05  -2.421535477628e-04   4.685891214061e-05 
5 1  4.188892694830e-05  -3.689689059374e-05   6.254046843297e-05 
6 1  1.768405434411e-04   7.929654992244e-05   2.356925293497e-04 
7 1  1.818369109896e-04   3.285610906250e-05   2.616518958199e-04 
8 1 -6.140354856557e-05   4.070183987568e-04   4.706448977051e-05 
8
Step 500
1 1 -4.135013173676e-05  -4.683628480524e-05  -2.255781062077e-04 
2 1  7.439773573940e-06  -1.745097596705e-04  -1.189018815048e-04 
3 1  1.437582816413e-04   8.952532947249e-05   1.437445663586e-04 
4 1  5.259148637620e-05  -1.833294126287e-04   7.595231803054e-05 
5 1  1.078978384868e-04  -6.039155704776e-05  -3.652302866233e-05 
6 1  7.224876353447e-05   2.020804666486e-05   1.965624270244e-04 
7 1  1.395139327126e-04   1.103506844013e-05   2.466402800647e-04 
8 1 -1.309553911994e-04   3.014750442704e-04   1.469699540203e-06 
8
Step 600
1 1  7.715946736974e-05  -4.181446607340e-05  -1.507590565336e-04 
2 1 -2.724866516369e-06  -1.144799618234e-04  -1.694582228537e-04 
3 1  2.145725118288e-04   8.962258844846e-05   9.962949204659e-05 
4 1  7.179236036441e-05  -9.769298882004e-05   3.142195994322e-05 
5 1  1.423929933463e-04  -2.698218388067e-05  -7.757080726758e-05 
6 1  1.776811183668e-05  -3.666107022134e-05   1.690972364007e-04 
7 1  1.270312099051e-04   9.435658930342e-06   1.763897425709e-04 
8 1 -1.293975397210e-04   1.912838505955e-04   3.568203684432e-05 
8
Step 700
1 1  9.114438268144e-05  -2.014735555188e-05  -1.036416972217e-04 
2 1  7.123133135065e-06  -1.273929599591e-04  -1.312886803361e-04 
3 1  1.839140468641e-04   1.085303304897e-04   1.717596780260e-05 
4 1  6.269657961630e-05  -4.181526219003e-05  -3.217565414706e-06 
5 1  1.329462416953e-04   3.604461040332e-06  -1.140381968959e-04 
6 1 -8.036879403552e-06  -4.855659152361e-05   1.720059376872e-04 
7 1  1.248471440969e-04   2.477170632897e-05   1.518952949402e-04 
8 1 -8.145185170930e-05   1.307469374569e-04   8.073942211314e-05 
8
Step 800
1 1  1.287033224193e-04   2.552597472087e-05  -1.160567018566e-04 
2 1 -4.951763313779e-05  -1.407829683075e-04  -1.092292738123e-04 
3 1  8.612451441325e-05   9.107676342483e-05  -1.746333107446e-05 
4 1  4.034719319174e-05  -2.094218139590e-06   7.736354054496e-06 
5 1  1.227922654455e-04   1.612109396895e-05  -9.041194033585e-05 
6 1 -1.529941351524e-05  -7.127863169575e-05   1.236038250987e-04 
7 1  1.373129583309e-04   3.077526391975e-05   1.036653339444e-04 
8 1 -3.909659193254e-05   1.011067563907e-04   4.372830141076e-05 
8
Step 900
1 1  1.617339527467e-04   8.026780660713e-05  -9.291794496262e-05 
2 1 -9.099087720313e-05  -1.223929438504e-04  -8.354661864284e-05 
3 1  4.190111048060e-05   7.852910918109e-05  -2.788154528408e-05 
4 1  3.415640699021e-05   7.145352550274e-06   2.468318447304e-05 
5 1  7.616394811003e-05   1.536344963534e-05  -7.498665639876e-05 
6 1  2.719405650403e-05  -2.607364816127e-05   2.871575017500e-05 
7 1  1.260087158354e-04   1.677523617779e-05   4.901290685761e-05 
8 1  3.434082102370e-05   6.394990752147e-05   5.571235418331e-05 
8
Step 1000
1 1  1.656696283582e-04   1.049165790768e-04  -9.785652307044e-05 
2 1 -5.270518715056e-05  -9.670922245504e-05  -2.707536734553e-05 
3 1  7.022293327166e-05   6.750846659134e-05   2.428547794979e-05 
4 1  3.834881102312e-05   2.887308469525e-05   1.834978341698e-05 
5 1  1.596661076177e-05  -3.778653912643e-06  -1.643511800043e-05 
6 1  7.810744517533e-05   3.342856381714e-05  -2.692704520581e-05 
7 1  1.145902978975e-04   3.286112490216e-05   4.081444080551e-05 
8 1  6.781979806247e-05   8.991807811782e-05   4.939801589724e-05 
8
Step 1100
1 1  1.231390358465e-04   1.279619998509e-04  -8.805781168769e-05 
2 1 -2.348188375062e-05  -9.492104896248e-05   8.100503629016e-05 
3 1  5.131085989414e-05   3.412565642571e-05   1.886080551898e-05 
4 1  2.560886635079e-05   5.314887603736e-06   3.848006028091e-05 
5 1 -1.172920191019e-05   3.377711548005e-06   3.155135856302e-06 
6 1  7.717076005706e-05   5.147714558557e-05   2.829710805218e-05 
7 1  1.219210882421e-04   4.700361186339e-05   5.434772096917e-05 
8 1  2.236320204964e-05   1.144167196709e-04   6.064424922650e-05 
8
Step 1200
1 1  4.206731293201e-05   9.825168586187e-05  -1.573066817286e-05 
2 1 -3.696623969885e-05  -1.078746719067e-04   1.306290238078e-04 
3 1  3.944687609868e-05   4.333530196643e-05  -3.520715443889e-05 
4 1 -4.804504039195e-05  -2.580465679163e-05   8.967432520316e-05 
5 1  1.599845657645e-05   8.699311415759e-05  -2.147418573975e-05 
6 1  3.153581242416e-05   2.227217216447e-05   6.756332511780e-05 
7 1  8.302621319863e-05   6.080871938938e-05   4.955183844848e-05 
8 1 -2.856821190543e-05   7.319749364532e-05   4.143681694923e-05 
8
Step 1300
1 1  4.087009242181e-06   3.487368101741e-05  -3.721620374802e-05 
2 1 -2.005794157146e-05  -9.247722105826e-05   7.432438056043e-05 
3 1  2.928979363632e-05   4.072762242156e-05  -8.596200469102e-05 
4 1 -5.143368523090e-05  -6.969228914132e-06   1.422135330225e-04 
5 1  4.897089156786e-05   1.101751624795e-04  -5.826569333975e-05 
6 1 -3.108303976695e-05  -3.046215238042e-05  -1.198692375690e-05 
7 1  4.775233167504e-05   1.074027537663e-05   2.710341886286e-05 
8 1 -8.309418245101e-05   5.956548028822e-05  -1.695348205903e-05 
8
Step 1400
1 1 -3.201372721827e-05  -1.462066671251e-05  -4.171671209552e-05 
2 1  3.526525380072e-05  -7.317633226809e-05   4.890337989474e-05 
3 1  2.951577881253e-05   5.775861166532e-05  -6.030464292299e-05 
4 1 -7.205320377700e-05  -5.219211968510e-05   1.387763048192e-04 
5 1  5.152889188828e-05   4.719689339357e-05  -3.982155869236e-05 
6 1 -5.629985313116e-05  -3.253791609088e-05  -4.125244367759e-05 
7 1 -1.619460475027e-05  -2.292319883845e-05  -9.589919501353e-06 
8 1 -1.444602070029e-04  -2.706238014485e-06  -7.288227520568e-05 
8
Step 1500
1 1  4.899264569918e-05  -1.944918076420e-05  -4.127780791263e-05 
2 1  3.046592462554e-05  -4.313135639179e-05   5.547732863493e-05 
3 1  5.015262461728e-05   1.122726007615e-04  -4.125152798614e-05 
4 1 -4.566376415862e-05  -6.277137465799e-05   1.331130034740e-04 
5 1  3.059107683304e-05  -7.154140055744e-05  -6.179649173197e-05 
6 1  1.000468488184e-06  -1.302160743655e-05  -4.908636797112e-05 
7 1 -8.916380984802e-05  -1.340020756149e-05  -5.615617926405e-05 
8 1 -8.869901991035e-05  -4.513464310107e-05  -9.326326530508e-05 
8
Step 1600
1 1  7.083523785408e-05  -1.996765690792e-05  -3.460175225327e-05 
2 1  2.135259696875e-06  -4.664581463731e-05   3.128487025935e-05 
3 1  4.247812567628e-05   6.337718185380e-05  -1.181299993930e-05 
4 1 -4.728749521242e-05  -6.523565332886e-05   8.885028164201e-05 
5 1  7.903295978330e-05  -1.643232137670e-04  -5.458768603629e-05 
6 1  4.713806301851e-05   1.308703523508e-05  -5.504185091808e-05 
7 1 -1.524212490510e-04   4.518602340958e-05  -8.055975003579e-05 
8 1 -2.959372604665e-05  -2.291470289911e-05  -2.584005870679e-05 
8
Step 1700
1 1  1.435459713495e-05   1.278506322786e-07  -2.536018872591e-05 
2 1 -2.968109644049e-05  -6.765573476376e-05   4.696117041048e-05 
3 1  3.616405569665e-05   1.758425804701e-05  -2.755306275478e-05 
4 1 -6.929633903998e-05  -3.561107670161e-05   7.270185852658e-05 
5 1  7.173224236258e-05  -1.699181868735e-04   3.664268806592e-06 
6 1  2.222271645528e-05   3.689529252349e-05  -5.140690238950e-05 
7 1 -1.446061532615e-04   4.129568248495e-05  -4.595202335332e-05 
8 1  1.412080216008e-06   3.286026963447e-05  -2.285657117246e-05 
8
Step 1800
1 1 -2.738902882813e-05  -1.040610448908e-05   1.891325098110e-05 
2 1 -3.398004442091e-05  -6.525496872908e-05   1.182173409596e-04 
3 1  1.686759501074e-05  -3.132802005354e-05  -4.587266300578e-05 
4 1 -9.550812126183e-05  -3.181080249689e-05  -3.924866727493e-06 
5 1  5.432922095728e-05  -1.388335649356e-04  -5.274640765388e-06 
6 1 -1.548497742194e-05   4.974342849664e-05  -6.123177199801e-05 
7 1 -7.348529307723e-05   1.141848441529e-05  -2.499586669616e-05 
8 1  1.013912198177e-06   7.590057822406e-05  -7.973296024385e-05 
8
Step 1900
1 1 -4.305756579487e-05   5.480164742374e-06   3.684305558804e-05 
2 1 -2.453748084035e-05  -4.305847490868e-05   1.342344970242e-04 
3 1  1.432096212583e-05  -6.249008529548e-05  -5.827571016617e-05 
4 1 -9.345549966330e-05   7.946344694774e-06  -6.651462202812e-06 
5 1  4.922581790974e-05  -1.405958335030e-04  -6.712925610758e-05 
6 1 -5.624211741443e-05   4.486697433396e-05  -3.370618811043e-05 
7 1 -8.481945279209e-05  -1.888801884729e-05  -1.229476905586e-05 
8 1 -2.732973193757e-05   4.945570686217e-05  -9.190347721714e-05 
8
Step 2000
1 1 -8.439679303822e-05   4.032550276340e-05   6.267885202994e-05 
2 1 -3.344150480594e-05   1.217366720998e-05   5.561127248963e-05 
3 1  2.237569932141e-05  -5.488180690683e-05  -6.170116119701e-05 
4 1 -4.830322156470e-05   6.464261652375e-05  -4.768572576150e-06 
5 1  3.305261327687e-05  -1.312922094142e-04  -2.808134757049e-05 
6 1 -4.222572046496e-05  -1.410841381913e-07  -1.203039935993e-05 
7 1 -6.745645545934e-05   1.131681699279e-05  -6.639955858652e-05 
8 1 -1.108723970355e-05   1.231696213730e-05  -6.263678630395e-05 
8
Step 2100
1 1 -1.012138960351e-04   5.385651704494e-05   8.496136493812e-05 
2 1 -3.398717516107e-06   8.330916512856e-05  -1.581734615425e-05 
3 1  2.598259749736e-05  -1.078991585795e-05  -6.570413534953e-05 
4 1 -5.158029980130e-05   5.838010850588e-05  -5.593032768711e-07 
5 1 -4.646113049712e-05  -1.185766843984e-04   7.835001430357e-06 
6 1 -2.809241249093e-05  -2.162703643039e-05   1.673234467873e-05 
7 1 -1.093290684814e-04   6.936926072070e-05  -1.454231310587e-04 
8 1  2.396133575662e-05  -4.025097195985e-05  -4.865194001621e-05 
8
Step 2200
1 1 -8.830361076156e-05   5.172875718528e-05   5.522789229665e-05 
2 1  4.860544121024e-05   1.140990075521e-04  -1.093801918690e-04 
3 1  8.814677096308e-05   5.931192238123e-05  -3.966764673457e-05 
4 1 -6.575164839149e-06   7.535603693886e-05  -4.505097740304e-05 
5 1 -1.115429114331e-04  -4.857812352481e-05  -1.744110430038e-05 
6 1 -2.314569069422e-05   1.580748780113e-05   4.863276583941e-05 
7 1 -1.051885233769e-04   6.709878202567e-05  -1.205107518928e-04 
8 1  2.134765806838e-05  -8.731699636507e-05  -4.996978984230e-05 
8
Step 2300
1 1 -5.940038729559e-05   9.408702737708e-05   5.047540480778e-05 
2 1  6.325042279762e-05   1.558104956700e-04  -1.714522561091e-04 
3 1  1.416793042856e-04   8.745628823136e-05  -3.667460343888e-05 
4 1  1.756476946997e-05   6.844959629971e-05  -4.264645671085e-05 
5 1 -1.325161457996e-04  -7.510311377436e-06  -4.266727828044e-05 
6 1 -6.976791239429e-06   8.235198793892e-05   7.015251145538e-05 
7 1 -5.809391936422e-05  -1.488754483214e-05  -9.245921946248e-05 
8 1  3.650305433973e-05  -1.096085541958e-04  -1.268280532627e-06 
8
Step 2400
1 1  4.145607990330e-05   5.292087121242e-05  -2.133962948888e-07 
2 1 -3.225548764616e-05   1.642320933228e-04  -1.213590497959e-04 
3 1  1.255824272810e-04   1.208934257491e-04  -1.871929442856e-05 
4 1  2.124458503608e-05   6.520174387264e-05  -1.591278611888e-05 
5 1 -1.500471720165e-04   2.036793275361e-05  -8.772154666130e-05 
6 1  2.578508728822e-05   9.992845255121e-05   8.402084614905e-05 
7 1 -2.620965698843e-06  -5.818518544640e-05  -6.145748857204e-05 
8 1  7.334186011091e-05  -9.693164545195e-05   5.416453762895e-05 
8
Step 2500
1 1  1.132780259453e-04  -4.105304264259e-06  -2.689678282976e-06 
2 1 -4.969973067530e-05   1.851833464780e-04  -4.251633925826e-05 
3 1  4.614989555156e-05   7.859835597145e-05  -2.276527224993e-06 
4 1  3.035167582687e-05   5.193338316233e-05  -4.564030654056e-05 
5 1 -9.362230770096e-05   2.696566714621e-05  -9.673413873963e-05 
6 1  7.017951483978e-05   1.438931698528e-06   3.565627452423e-06 
7 1 -2.521790534559e-05  -4.235133716603e-05  -1.493003108211e-05 
8 1  6.763232794807e-05  -9.990810408618e-05   1.087786155222e-04 
8
Step 2600
1 1  9.733287560036e-05  -3.649258366551e-05  -2.164751865953e-05 
2 1 -6.341497586659e-05   1.694176014049e-04  -7.423638270748e-06 
3 1  2.905352450028e-06   1.633925846613e-05   1.445270585944e-05 
4 1 -9.071964663457e-07   1.443533506913e-05   1.062054301447e-05 
5 1 -1.861901262966e-05   1.448939750072e-05  -9.477675701078e-05 
6 1  1.124227524778e-04  -5.276111618252e-05  -1.022915260331e-04 
7 1 -5.223720515602e-05   2.664948516554e-05  -3.304370566974e-06 
8 1  1.071334348760e-05  -9.375716888178e-05   1.735651772816e-04 
8
Step 2700
1 1  6.954693154705e-05  -3.473186985976e-06   3.127926095877e-05 
2 1 -5.856912095347e-05   1.510062299676e-04   1.522785690298e-05 
3 1  1.175261558362e-05  -1.121647822368e-05   2.231437974487e-05 
4 1 -3.467123410919e-05  -3.959507304730e-05   5.159829940211e-05 
5 1  7.723078540170e-05   1.095819287262e-05  -7.386434033239e-05 
6 1  1.016148468827e-04  -7.248003428328e-05  -1.319451896697e-04 
7 1 -2.733632075643e-05   1.236509024615e-04   1.026234065401e-05 
8 1  1.244497667656e-05  -1.100903564788e-04   1.302203871155e-04 
8
Step 2800
1 1  6.948604920493e-06  -2.151772571083e-05   1.724549014630e-05 
2 1 -3.823271208034e-05   1.490346851977e-04   4.286587379775e-05 
3 1 -6.128983833752e-06  -1.247285797982e-05   2.634368686380e-05 
4 1 -3.830000084611e-05  -1.061850562429e-04   4.214687123141e-05 
5 1  9.679338053763e-05  -2.255241730839e-05  -4.592101007121e-05 
6 1  4.470927690511e-05  -9.606076011232e-05  -7.399757095018e-05 
7 1 -2.922169619360e-05   1.788275693914e-04   2.635186430813e-05 
8 1  3.335140296879e-06  -6.783833527150e-05   4.078207845648e-05 
8
Step 2900
1 1 -4.205959804280e-05  -4.749365865021e-05  -3.173490252718e-05 
2 1 -5.362649390310e-05   1.796247397123e-04   3.767604461812e-05 
3 1 -2.062328211497e-05   2.453577383604e-05  -4.601468890403e-06 
4 1 -3.697836274777e-05  -1.363310360417e-04   5.738676739434e-05 
5 1  7.423624888248e-05  -2.639266000441e-05  -8.752532210149e-05 
6 1  2.678875455770e-05  -1.072472905769e-04  -6.054067454210e-05 
7 1  2.754740616963e-05   1.320590564849e-04   3.760061666507e-05 
8 1 -8.180630755914e-05  -1.078572172188e-05   1.036300377581e-05 
8
Step 3000
1 1 -7.622339136295e-05  -7.416049624687e-07  -3.256977342149e-05 
2 1 -4.715431505244e-05   1.621876939970e-04   2.617481244171e-05 
3 1 -5.736195793955e-05   5.418248201002e-05  -9.424120402454e-06 
4 1 -5.605152256796e-05  -1.303179871901e-04   4.783873087973e-05 
5 1  1.668849340797e-05  -3.494469806119e-05  -1.210436653059e-04 
6 1 -1.667068788898e-05  -8.461876748732e-05  -7.713603802012e-05 
7 1  6.693186711640e-05   7.763396945689e-05   4.797992832872e-05 
8 1 -1.642138386775e-04   9.283863354877e-05   1.247685204860e-05 
8
Step 3100
1 1 -3.288625966393e-05   4.521037948514e-06  -2.931828166556e-05 
2 1 -3.815794316936e-05   1.478353646160e-04   4.545469836528e-05 
3 1 -1.873579845399e-05   6.791448660134e-05  -2.602175878561e-06 
4 1 -4.725007587675e-05  -1.250681204947e-04   6.981885380047e-05 
5 1 -1.065424091263e-06  -6.356662949478e-06  -1.332169502951e-04 
6 1 -3.000425216197e-05  -7.951977067943e-05  -9.505627866110e-05 
7 1  2.857467913186e-05   4.123474971003e-05   4.765236396538e-05 
8 1 -1.961470998319e-04   2.039012362362e-04   5.122630031966e-05 
8
Step 3200
1 1  2.440146289014e-05   2.413164688948e-05   2.119397100877e-05 
2 1  4.605472820788e-07   1.254254312500e-04   2.023110317720e-05 
3 1 -1.936055096776e-05   5.622812678189e-05  -5.251789636474e-05 
4 1 -5.518437365847e-05  -8.570095251621e-05   8.064997002820e-05 
5 1 -6.319298579637e-08   2.784043354143e-05  -8.604262077567e-05 
6 1 -1.342789396417e-05  -4.954978007300e-05  -5.937002808812e-05 
7 1  5.533729961132e-05  -4.396091182627e-07   4.900630359730e-05 
8 1 -2.070084131093e-04   2.428128137370e-04   6.723565532650e-05 
8
Step 3300
1 1  4.671687383874e-05   1.523267461720e-05   4.156519215323e-05 
2 1  7.764340304664e-05   4.680904515206e-05  -2.433870775082e-05 
3 1 -3.475721037612e-05   8.057681448906e-05  -1.470746376290e-04 
4 1 -8.690218032695e-05  -4.079948872985e-05   7.228909874742e-05 
5 1  4.386614356598e-05   7.739099319436e-05  -1.129934529495e-05 
6 1  2.062907610361e-05   8.292896126725e-06   1.545051495813e-05 
7 1  4.881956828851e-05  -6.603296490830e-05   5.038392949297e-05 
8 1 -1.184145460784e-04   2.106432131578e-04   7.240540548444e-05 
8
Step 3400
1 1  2.621436763798e-05   3.348967804190e-06   7.769340128850e-06 
2 1  8.472876236639e-05   5.356932765228e-06  -1.771024072091e-05 
3 1 -5.647063659289e-05   5.189276670546e-05  -1.497301295588e-04 
4 1 -2.448054589418e-05   3.856134821611e-05   2.717633839628e-05 
5 1  6.742993122889e-05   1.090721800193e-04   8.134711342045e-06 
6 1  1.053024640779e-04   2.264117181702e-05   2.857383930254e-05 
7 1  1.159691900991e-05  -4.571888220514e-05   1.078404927655e-04 
8 1 -6.129604169551e-05   1.553086499532e-04   9.812429585741e-05 
8
Step 3500
1 1 -6.775656746412e-05   1.177976374066e-05  -1.375903356202e-05 
2 1  6.306517721112e-05  -9.660605504436e-06  -6.387235379498e-05 
3 1 -3.809079482699e-05   2.964289172086e-05  -7.748711087974e-05 
4 1  1.131092478226e-05   6.125697840370e-05  -1.843201427655e-05 
5 1  1.000820100332e-04   1.239933084603e-04  -4.932267857067e-05 
6 1  1.584280216254e-04   6.258417608366e-05   1.345304693582e-05 
7 1  8.934109242383e-05  -1.388856234350e-07   1.221032993128e-04 
8 1 -3.046558802497e-05   1.167348992504e-04   1.106299781724e-04 
8
Step 3600
1 1 -1.264418045854e-04   9.443443398044e-05  -2.893137702029e-05 
2 1  1.088442577336e-04   1.114853437198e-05  -6.981777531266e-05 
3 1 -3.302197078342e-05   2.913301906913e-05  -3.870200856631e-05 
4 1 -3.349998994189e-05   7.177920322338e-05  -7.557842098516e-05 
5 1  6.566033110676e-05   1.211618451362e-04  -6.649834640807e-05 
6 1  1.797555187944e-04   6.014938311710e-05  -2.000712416296e-05 
7 1  1.217976561333e-04   3.171254721163e-05   1.006644610094e-04 
8 1 -1.547713706511e-05   3.148203679498e-05   4.365102379439e-05 
8
Step 3700
1 1 -1.052148623734e-04   4.497942256623e-05  -8.295319680766e-06 
2 1  8.308636385318e-05   2.697777149623e-05  -4.921445682083e-05 
3 1 -6.735980865522e-05   3.027829177924e-05  -1.721428823136e-05 
4 1 -6.786569492942e-05   7.177012248403e-06  -1.207363884824e-04 
5 1  1.025898543809e-05   6.786579755099e-05  -1.231216340369e-04 
6 1  1.272029673833e-04   6.786271434707e-05  -4.976057114198e-05 
7 1  1.004885045737e-04   4.324643429218e-05   6.579450482845e-05 
8 1  2.066106981555e-05  -1.495883667539e-05  -2.022468195852e-05 
8
Step 3800
1 1  1.688375264793e-05  -5.988846601458e-06  -1.081985160556e-05 
2 1  8.496370532119e-05   4.261725420622e-06  -1.945673328366e-05 
3 1 -6.476552878937e-05   2.959846983464e-05  -2.639021416822e-05 
4 1 -1.016147002592e-04   1.384744213559e-05  -7.722925613486e-05 
5 1 -3.934883364856e-05   4.249165279305e-05  -1.607244732641e-04 
6 1  9.059075228020e-05   1.028169594616e-04  -4.357361501744e-05 
7 1  4.029540322258e-05   3.048545332832e-05   1.232224767547e-05 
8 1  5.363887279944e-05  -3.606240659511e-05  -9.265079280134e-05 
8
Step 3900
1 1  5.717328754906e-05   5.378430153819e-06   2.437597917048e-05 
2 1  7.625606929667e-05  -5.162587111475e-05  -1.124069536473e-05 
3 1 -7.569178690333e-05   2.963988264249e-05  -4.898665320136e-05 
4 1 -5.603231622141e-05   9.246009402609e-06  -6.449263809244e-05 
5 1 -5.182897028416e-05   3.750004107756e-05  -1.234971276901e-04 
6 1  6.854244054904e-05   5.462150625228e-05  -1.194491153429e-05 
7 1  5.454039270542e-05   3.798163982032e-05  -6.476577991043e-05 
8 1  3.390245245607e-05  -2.057734764041e-05  -1.073571335108e-04 
8
Step 4000
1 1  5.556327768747e-05   5.611848782024e-05   6.726306840576e-05 
2 1  4.564246209135e-05  -3.902389222366e-05   8.494345411291e-06 
3 1 -1.283705906419e-04   1.044299716875e-05  -3.464933319553e-05 
4 1  5.404276052952e-05   5.472983960199e-05  -5.624104469763e-05 
5 1 -4.369157549494e-05  -2.234654476243e-05  -7.034500307541e-05 
6 1  5.998525026056e-05  -8.118100129680e-06   1.263207598033e-05 
7 1  2.858591054037e-05  -2.231949059741e-05  -1.147703616519e-04 
8 1  3.587632053872e-05   4.675972815935e-05  -9.924096257747e-05 
8
Step 4100
1 1  8.373164101142e-06   4.651196605162e-05   1.508092864331e-04 
2 1  5.114726498145e-05   9.649850935105e-06   1.752836716214e-05 
3 1 -1.039935700804e-04   7.884654727090e-05  -3.860112476607e-05 
4 1  1.261289624404e-04   1.859940454217e-05  -3.551607466354e-05 
5 1 -3.837678539730e-05  -7.768729002745e-05  -1.603332599117e-05 
6 1  6.941054295441e-05  -1.672642252321e-05  -1.554056527667e-05 
7 1  1.249093946300e-05  -7.311141026717e-05  -7.838269890133e-05 
8 1  6.296033150527e-06   9.023030206255e-05  -6.508524600418e-05 
8
Step 4200
1 1  1.063280265485e-05   3.261659754880e-05   2.100020959510e-04 
2 1  6.294800068761e-05   3.835535714833e-05  -1.318720809000e-05 
3 1 -6.285747995320e-05   7.827943977435e-05  -2.593507021945e-05 
4 1  7.213148425719e-05   5.417322448884e-05  -9.793537370085e-05 
5 1 -3.359022916067e-05  -4.557103488090e-05  -4.134767073309e-05 
6 1  9.354765067640e-05   2.829332801658e-05  -6.825634923379e-05 
7 1  1.168748107184e-05  -8.349862549895e-05   1.307583588636e-06 
8 1  2.404960200082e-05   7.240051201467e-05  -7.004792455927e-05 
8
Step 4300
1 1  3.388067559682e-05  -3.077678155392e-05   2.056985177175e-04 
2 1  5.284149136131e-05   5.446649065780e-05  -3.065862882127e-05 
3 1  1.806274786799e-06   6.363494086352e-05  -3.094498070874e-05 
4 1  2.209115722513e-05   9.322534266813e-05  -5.156727263597e-05 
5 1 -1.697237143744e-05   1.346659028063e-05  -1.227658702029e-05 
6 1  8.390711819027e-05   4.078445403730e-05  -6.091957868304e-05 
7 1 -5.945400505601e-06  -9.254575903291e-05   7.859491922111e-05 
8 1  5.373399532742e-05   1.978921686091e-06  -9.298303426943e-05 
8
Step 4400
1 1  1.769037614306e-05  -2.167860218125e-05   1.256044443713e-04 
2 1  9.734917458313e-05   5.279147920069e-05  -2.650611724451e-05 
3 1  4.738957934329e-05   5.049444174532e-05  -4.727520567263e-05 
4 1  2.945908047515e-05   1.157605567496e-04  -9.298751847967e-06 
5 1  3.872217400360e-05   2.493327426541e-05   3.518428993973e-05 
6 1  1.296271692873e-05   1.008295742069e-05  -3.190034400652e-06 
7 1  3.620618245887e-07  -8.329642029271e-05   5.939875062449e-05 
8 1  1.890808469944e-05  -7.934766231087e-05  -5.884954608932e-05 
8
Step 4500
1 1 -4.825246952456e-05  -3.962152215963e-06   3.671328217372e-05 
2 1  1.347506802418e-04   4.860396776998e-05  -2.387184830687e-05 
3 1  8.680118909733e-05  -1.634349832882e-05  -5.806197919393e-05 
4 1  2.486369794860e-05   8.953108977621e-05   4.887191367694e-05 
5 1  9.207006685217e-05   4.828108771699e-06   6.507925192847e-05 
6 1 -1.550330817419e-05  -4.683540797258e-05   7.087489715934e-05 
7 1 -1.180595903970e-05  -1.347620472953e-04   3.160465256479e-05 
8 1  2.471618398635e-05  -1.503583925857e-04  -1.537358433462e-05 
8
Step 4600
1 1 -9.699749099601e-05   1.417508869353e-05  -1.807377189022e-05 
2 1  1.439713950804e-04  -1.894975867987e-05  -6.080388857111e-05 
3 1  8.649785937581e-05  -2.220411152070e-05  -3.564706735293e-05 
4 1  2.019390250390e-06   5.807168663048e-05  -3.827758284884e-06 
5 1  9.158457535115e-05  -2.869409754747e-05   6.435050108384e-05 
6 1 -3.114819372860e-05  -7.824128191102e-06   1.204868270703e-04 
7 1  9.882808062817e-06  -1.306024477175e-04  -3.229234530065e-05 
8 1  8.078360237024e-05  -1.645485258860e-04  -3.533483879406e-05 
8
Step 4700
1 1 -9.051706583616e-05   4.071469029455e-05  -4.290290939814e-05 
2 1  1.121946346764e-04  -2.344153306435e-05  -3.350212204143e-05 
3 1  9.515920605112e-05  -2.835108370431e-05  -2.862881114745e-05 
4 1  2.154232382302e-05   4.879891916179e-05  -1.246829546238e-04 
5 1  8.847707091865e-05  -4.063546590547e-05   6.170790591019e-05 
6 1  1.469596201468e-05   7.066975124788e-05   1.731083560601e-04 
7 1  5.425290358624e-05  -1.444261474769e-04  -6.299013166363e-05 
8 1  9.341616496780e-05  -1.192947898354e-04  -2.360425689965e-05 
8
Step 4800
1 1 -4.079077482826e-05   6.581655672753e-05   1.676771332287e-05 
2 1  3.942191991492e-05   2.512338042839e-06  -2.598714108691e-05 
3 1  7.177571118152e-05  -9.122137253862e-05  -3.184663040346e-05 
4 1  1.711358018989e-05   8.172429301295e-05  -1.484209902770e-04 
5 1  1.021680956239e-04  -2.400266428329e-05   4.983456057802e-05 
6 1  4.947331222557e-05   9.220696016134e-05   1.616572747901e-04 
7 1  3.640143226526e-06  -1.788241324887e-04  -6.972867386499e-05 
8 1  3.898831029592e-05  -8.709624262564e-05  -1.478063526082e-05 
8
Step 4900
1 1  2.784250324370e-05   1.974546038838e-05   9.177683074978e-05 
2 1 -2.587352878761e-05   2.908860525848e-05   1.270960656856e-05 
3 1  1.115126165797e-04  -1.039789465102e-04  -2.055030127245e-05 
4 1  2.510786955959e-05   5.991611794117e-05  -1.118959900438e-04 
5 1  6.097571606620e-05  -6.420771535665e-06   5.243500608919e-05 
6 1  4.965234875427e-05   9.541964298070e-05   9.503885311151e-05 
7 1 -3.518353811211e-05  -1.925780974671e-04   1.849801209137e-05 
8 1  2.035243565160e-05  -2.977652712651e-05  -6.031045172344e-05 
8
Step 5000
1 1  5.271480459156e-05  -2.401123494570e-05   6.793738924668e-05 
2 1 -4.990135349572e-05   5.371807778271e-05   7.710840610503e-05 
3 1  1.156865236396e-04  -6.466604262349e-05   2.301131774085e-05 
4 1  8.722497282591e-05   4.810237637459e-05  -1.193423652586e-04 
5 1  1.968501718409e-05  -2.381777759591e-05   5.657590741987e-05 
6 1  4.879893564560e-05   9.970837198774e-05   2.642950218915e-05 
7 1 -5.102872431981e-05  -1.250266189735e-04   7.804802807884e-05 
8 1  1.726966836039e-05   4.776558958780e-05  -4.131566026681e-05 
8
Step 5100
1 1  3.928160731393e-05   3.636101143414e-07   4.453560921396e-05 
2 1 -2.114584599712e-05   2.755118602460e-05   1.358735339575e-04 
3 1  1.147627259575e-04  -8.386398194463e-06   6.201681529984e-05 
4 1  1.121805076965e-04   1.702288067769e-05  -8.444631964541e-05 
5 1 -1.195318391904e-05  -4.958168516692e-05  -2.281831549839e-06 
6 1  3.022337064602e-05   1.030709893722e-04   2.073709180707e-05 
7 1  1.388889926255e-06  -4.396675035334e-05   1.143102865869e-04 
8 1 -2.440303439888e-05   2.492478485048e-05   7.492524317346e-06 
8
Step 5200
1 1  5.194700907041e-05   1.082401212109e-04  -1.314851373211e-05 
2 1  2.430667602534e-05  -1.503846758927e-05   1.746117548132e-04 
3 1  1.022224930949e-04   3.054389799719e-05   7.661967381547e-06 
4 1  1.249258881293e-04   1.618521042234e-05  -3.297700491449e-05 
5 1 -2.212718732056e-05  -5.268285970191e-05  -5.617947762544e-05 
6 1  3.139642816346e-05   6.840965886264e-05   1.288317426820e-05 
7 1  6.737443323883e-07   1.506843628177e-05   9.714083077138e-05 
8 1 -5.236566908018e-05   1.521948611348e-05   1.042947403895e-04 
8
Step 5300
1 1  5.700723450446e-05   1.263615627182e-04  -4.742169563457e-05 
2 1  7.309245436042e-05  -4.414224011650e-05   1.565138493043e-04 
3 1  7.499596241054e-05   2.909281211240e-05  -1.059501447581e-05 
4 1  1.586913486451e-04   2.580741094850e-05  -1.764927492020e-05 
5 1 -2.257206073211e-05  -3.772653154569e-05  -8.456151768362e-05 
6 1  5.225277376094e-06   8.203113555581e-05  -3.230040047521e-06 
7 1 -2.224061996074e-05   3.594958746730e-05   6.594608578096e-05 
8 1 -6.792082879848e-05   2.918229122975e-05   1.112881857150e-04 
8
Step 5400
1 1 -1.772716752241e-05   1.035090847386e-04  -5.338781278538e-05 
2 1  1.343577401344e-04  -3.441357682910e-05   1.317501589690e-04 
3 1  4.505333426215e-05   2.143827615338e-05  -1.588295921873e-05 
4 1  1.622778200634e-04   5.956645245318e-05   7.383849809444e-06 
5 1 -2.407270449475e-05  -6.955929438538e-05  -8.224377902393e-05 
6 1  3.272643512670e-05   1.134931241684e-04  -1.215328311592e-05 