8
Step 0
1 1  0.000000000000e+00   0.000000000000e+00   0.000000000000e+00 
2 1  0.000000000000e+00   0.000000000000e+00   0.000000000000e+00 
3 1  0.000000000000e+00   0.000000000000e+00   0.000000000000e+00 
4 1  0.000000000000e+00   0.000000000000e+00   0.000000000000e+00 
5 1  0.000000000000e+00   0.000000000000e+00   0.000000000000e+00 
6 1  0.000000000000e+00   0.000000000000e+00   0.000000000000e+00 
7 1  0.000000000000e+00   0.000000000000e+00   0.000000000000e+00 
8 1  0.000000000000e+00   0.000000000000e+00   0.000000000000e+00 
8
Step 100
1 1  8.489827171625e-04  -2.402954331428e-04  -6.473287505893e-05 
2 1 -5.526448192102e-04  -6.740899317669e-04   1.259744098069e-03 
3 1  1.320777867088e-03  -7.505970971275e-04   7.257669873487e-04 
4 1 -7.801843501030e-04  -8.823911651416e-05  -1.412402438677e-04 
5 1  4.649269973049e-04  -8.541179901827e-04  -1.150236229307e-03 
6 1  7.034320488420e-04  -8.470400982359e-04   1.117668505926e-04 
7 1  8.794042157575e-04   8.572506367870e-04  -2.691684087912e-04 
8 1 -8.905198486732e-04   9.514738765259e-04   1.484500592939e-03 
8
Step 200
1 1  5.334030255785e-04  -1.551559149885e-04  -4.344480993608e-05 
2 1 -4.039651793155e-04  -2.974632652805e-04   7.303180482568e-04 
3 1  8.444376064959e-04  -3.054481936758e-04   6.138072571243e-04 
4 1 -5.093283624538e-04   2.750590695385e-05  -5.836490100136e-05 
5 1  1.903490254720e-04  -5.697937783692e-04  -6.005772828167e-04 
6 1  4.666043626786e-04  -4.890318260543e-04   7.140074022206e-05 
7 1  6.873941760601e-04   6.075284384063e-04  -8.098799591433e-05 
8 1 -4.808266093986e-04   6.632566943740e-04   1.018382704705e-03 
8
Step 300
1 1  2.772470937498e-04  -9.560923328523e-05  -3.422257398881e-05 
2 1 -2.444732414569e-04   3.203342593929e-06   2.679126441863e-04 
3 1  4.604301722254e-04   6.457911013539e-06   5.167746816220e-04 
4 1 -2.883930752879e-04   9.050376251613e-05   2.277610806101e-06 
5 1  3.510875889443e-05  -3.299985055677e-04  -2.481981227964e-04 
6 1  2.388978696685e-04  -2.311957636355e-04   4.398916241342e-05 
7 1  4.933049996284e-04   3.757333271444e-04   2.302718140383e-05 
8 1 -1.655700887266e-04   4.191904121057e-04   5.692562544246e-04 
8
Step 400
1 1  1.090109990796e-04  -3.239571048025e-05  -5.067086793714e-05 
2 1 -1.338441773341e-04   1.281575774167e-04   6.366391444439e-05 
3 1  1.920718623082e-04   1.643484820766e-04   3.667985100043e-04 
4 1 -1.428742083731e-04   1.252264159205e-04   2.880285709203e-05 
5 1 -1.778090929215e-06  -2.372786962326e-04  -6.574302443698e-05 
6 1  1.643800453667e-04  -5.450457782383e-05   2.277228634799e-05 
7 1  3.044662325399e-04   1.750400074571e-04   1.010485734536e-04 
8 1 -4.445499082077e-05   2.124847860080e-04   2.566615667469e-04 
8
Step 500
1 1  3.374338942250e-05   4.505731260712e-05  -6.064036336965e-05 
2 1 -1.033277786065e-04   1.393771882552e-04   5.709038097471e-05 
3 1  8.904551138148e-05   1.976260592553e-04   2.475469145626e-04 
4 1 -4.014603010552e-05   8.092314381250e-05   3.074524126788e-05 
5 1 -6.335056851553e-05  -2.018100180465e-04   1.237667268147e-05 
6 1  1.671595114532e-04   2.424079616555e-05  -3.075980363180e-06 
7 1  1.064448622960e-04   9.610271336222e-05   1.215419040221e-04 
8 1  1.773342267570e-05   1.184127168289e-04   7.589668077519e-05 
8
Step 600
1 1 -6.157086528683e-05   7.385022216460e-05  -8.487296550426e-05 
2 1 -7.524844416593e-05   1.202991853081e-04   1.130014927325e-04 
3 1  4.168071932114e-05   1.870375679618e-04   1.054633125292e-04 
4 1  5.921114900734e-05   7.804747487874e-05   1.230732087994e-04 
5 1 -7.797035341445e-05  -1.796076733233e-04   1.907326188754e-06 
6 1  1.500415926350e-04   6.356531944142e-05  -4.562242106666e-05 
7 1 -1.034965437192e-05   1.042151544421e-04   9.698032927727e-05 
8 1  1.513657553956e-05   8.874195812529e-05  -5.921610935837e-05 
8
Step 700
1 1 -6.353494768740e-05   5.809950174989e-05  -9.232945812619e-05 
2 1 -5.784990460982e-05   1.115812883597e-04   1.140661255941e-04 
3 1  1.507813418723e-05   1.190969819375e-04   6.376130123899e-05 
4 1  1.273262733938e-04   5.459243480981e-05   8.085519336734e-05 
5 1 -4.551928677762e-05  -1.871230978658e-04  -4.029340746978e-06 
6 1  8.606438202115e-05   9.782130296715e-05  -9.551640912794e-05 
7 1 -5.690343869012e-05   1.154627864063e-04   4.655185874326e-05 
8 1 -1.185474628954e-05   6.382819030123e-05  -1.258890114212e-04 
8
Step 800
1 1 -1.659624908240e-05   5.068650648947e-05  -4.474906428771e-05 
2 1  3.064704409975e-05   9.597424002703e-05   1.383666196564e-04 
3 1  5.018657954361e-05   6.373491249442e-05   4.056253447892e-05 
4 1  1.433527331963e-04  -3.776750971783e-05   1.646026206957e-05 
5 1 -1.662370691283e-05  -1.928049896378e-04  -4.599492849705e-05 
6 1  1.005397897297e-04   1.044095740549e-04  -7.424604077509e-05 
7 1 -4.566082129915e-05   6.376364452529e-05   7.363886103131e-05 
8 1 -2.157123733942e-05   1.079089565937e-04  -1.386452769904e-04 
8
Step 900
1 1 -4.435973915818e-05   2.541921585955e-05  -4.818077461819e-05 
2 1  6.871584182804e-05   2.119977072589e-05   1.722386875773e-04 
3 1  2.776348769644e-05   5.831192984363e-05   4.154048096211e-06 
4 1  1.501694142306e-04  -8.077042582741e-05  -1.754904439473e-05 
5 1  5.505388768314e-06  -1.523217856068e-04  -8.099847357313e-05 
6 1  1.140207939315e-04   8.496353598767e-05  -2.713224871009e-05 
7 1  1.627314583344e-05  -3.891687457153e-06   8.388120471813e-05 
8 1  6.078527611625e-06   1.462042112926e-04  -1.270330313466e-04 
8
Step 1000
1 1 -6.114618281674e-05   2.218691930188e-05  -4.456081187661e-05 
2 1  5.968145949345e-05   8.465235361313e-07   1.441560544098e-04 
3 1 -8.984909041000e-06   3.087287921276e-05  -8.697403350242e-06 
4 1  9.581254585789e-05  -1.028793634478e-04   9.710782973115e-06 
5 1  2.863730474937e-05  -1.267915979182e-04  -8.238101883149e-05 
6 1  5.415217184321e-05   1.998117649555e-06   4.305128521314e-05 
7 1  2.887898751968e-05  -3.979688015732e-05   4.643368611382e-05 
8 1  2.836204241675e-05   1.170074276840e-04  -7.557972843415e-05 
8
Step 1100
1 1 -5.223776774924e-05   6.544214320593e-05  -2.819602061311e-05 
2 1  2.815750827875e-05  -5.993199913776e-06   6.546677975179e-05 
3 1 -2.393576657906e-05   3.501636531354e-05   6.184511530836e-06 
4 1  6.239088884757e-05  -6.171250427005e-05   7.535676634958e-06 
5 1  7.002045372311e-05  -8.965284242961e-05  -9.326784549314e-05 
6 1  2.548768850941e-05  -1.136040034242e-04   4.167818298987e-06 
7 1 -4.145596566159e-06  -1.041153447351e-04  -3.166138982911e-05 
8 1  8.207818320861e-05   6.107887380085e-05  -2.696285287894e-05 
8
Step 1200
1 1 -1.611154890689e-05   8.097440886856e-05  -4.099410417412e-05 
2 1  3.028214301749e-05   7.142519025429e-07   2.325100827912e-05 
3 1 -5.258321901182e-05   1.928319115612e-05   4.701734242097e-05 
4 1  6.205386312219e-05   1.672737730882e-07  -8.329844398632e-07 
5 1  5.185841576414e-05  -1.089406677911e-04  -9.997066588177e-05 
6 1  2.758220580082e-05  -1.770716692811e-04  -2.999266689584e-05 
7 1 -1.251115245597e-05  -8.695409954945e-05  -5.536671140638e-05 
8 1  9.748136570683e-05   2.205352969747e-05  -1.674049200181e-05 
8
Step 1300
1 1 -1.302229935768e-05   8.594058349852e-05   3.577362725839e-05 
2 1 -7.758937054069e-06  -3.028498909552e-05   2.129748633691e-05 
3 1 -7.077539453435e-05   8.512480670243e-06   5.811439236728e-05 
4 1  6.982217063046e-05  -4.891529425491e-06  -3.244906774592e-05 
5 1  8.216187399066e-06  -1.291374210972e-04  -1.182810507255e-04 
6 1  4.116640361463e-05  -1.188519577080e-04  -3.403915739630e-05 
7 1 -7.202242061333e-06  -1.528616247698e-05  -5.736614241792e-05 
8 1  7.279186751605e-05   2.557148274499e-05   2.706587386028e-05 
8
Step 1400
1 1 -1.488621880350e-05   1.039857696022e-04   6.161338820378e-05 
2 1 -5.353571084249e-05  -2.888478690307e-05   1.524662328770e-05 
3 1 -7.434458324463e-05  -1.076736315926e-05   3.160068915388e-05 
4 1  7.349938173633e-05   4.787673377669e-05  -2.965882799052e-05 
5 1 -5.011183088070e-05  -1.106961631672e-04  -9.018105973343e-05 
6 1  4.104600741958e-05  -6.625051796980e-05  -5.679535295819e-05 
7 1 -4.171093020869e-05  -5.883006520658e-06  -6.002578420551e-05 
8 1  1.194358989439e-04   3.601994064115e-05   1.073776046122e-05 
8
Step 1500
1 1 -3.775211367203e-05   8.720950519918e-05   6.517025959154e-06 
2 1 -1.165560364007e-05  -6.218362409699e-05   1.001153906919e-05 
3 1 -6.002860183998e-05  -9.342837422775e-05   3.259460207992e-06 
4 1  5.210078769317e-05   8.342585508916e-05  -3.814018543584e-05 
5 1 -3.754502188861e-05  -8.515001507891e-05  -4.734910565995e-05 
6 1  2.944133718075e-05  -4.786563225573e-05  -4.146662958827e-05 
7 1 -3.123552643061e-05  -2.072925077671e-05  -6.194889997136e-05 
8 1  1.330023132723e-04   6.959213249352e-05  -1.905627998163e-05 
8
Step 1600
1 1 -1.603797543270e-05   4.746888349719e-05  -4.235253447554e-05 
2 1  3.064087641224e-05  -6.682636490540e-05   5.241297069681e-05 
3 1 -5.263658796054e-05  -8.162572628953e-05  -3.326395866262e-05 
4 1  5.619500243197e-05   7.517358527055e-05  -5.791817267278e-05 
5 1 -9.604261738683e-05  -3.778778428040e-05   1.143930306712e-05 
6 1  8.623943312307e-06  -2.710343557581e-05  -5.819332337460e-06 
7 1 -2.078350869058e-06  -7.697217827249e-06  -3.606046881845e-05 
8 1  1.286334428890e-04   5.012701391340e-05  -2.344263408556e-05 
8
Step 1700
1 1 -4.973537801713e-05   1.226968803081e-05  -6.502620064285e-06 
2 1  8.251143938169e-05  -3.230725060689e-05   3.703979690500e-05 
3 1 -1.097202849497e-04  -5.795538509651e-05  -6.649762846784e-05 
4 1  5.851239072254e-05   6.127820858808e-06  -9.094567480582e-05 
5 1 -5.872721674702e-05  -4.152550635351e-05  -2.530613255801e-05 
6 1 -4.451520235303e-06   1.578608841010e-05  -1.336132370721e-05 
7 1  1.651848320273e-05   1.574291927962e-05  -7.218149721685e-05 
8 1  8.450255654209e-05  -1.870410151189e-05   8.566505888346e-06 
8
Step 1800
1 1 -6.200195141105e-05   6.387609820331e-05   3.951206079309e-05 
2 1  6.464611935609e-05  -3.725154113965e-05   7.219498099408e-05 
3 1 -7.944484847486e-05   3.430330339938e-06  -5.213899563943e-05 
4 1  6.143399308725e-05  -1.805945180389e-05  -1.100380576699e-04 
5 1  4.979474834016e-05  -3.382243317187e-05  -6.536080954569e-05 
6 1  1.154261872889e-05   6.166806807590e-05  -5.332965967990e-05 
7 1  5.595590203371e-05   2.811317840491e-05  -7.868426480351e-05 
8 1  5.491631965644e-05  -6.202356799626e-05   5.861635509589e-05 
8
Step 1900
1 1 -5.746580525340e-05   1.044355433794e-04   4.183540115885e-05 
2 1  2.124873749493e-05   6.604093449595e-06   7.864652055678e-05 
3 1 -6.720936554920e-05   5.976432825333e-05  -5.220192732947e-05 
4 1  3.281159583882e-05  -4.105078284191e-05  -1.100774291781e-04 
5 1  9.605437373276e-05   4.510485933313e-05  -5.781898203137e-05 
6 1  6.649215893118e-05   5.270757381358e-05  -8.904137832023e-05 
7 1  7.701331844107e-05   2.420051902698e-05  -5.759700198841e-05 
8 1  4.860549432046e-05  -6.736281880998e-05   4.645838217053e-05 
8
Step 2000
1 1 -2.356914715584e-05   8.362724652453e-05  -4.525394035208e-08 
2 1  1.502409870899e-05   9.256945451556e-05   1.832537246694e-05 
3 1 -4.946504657025e-05   6.177521227560e-05  -5.632568149823e-05 
4 1 -1.185402142061e-06  -1.067183246564e-04  -9.111922973107e-05 
5 1  9.799563407207e-05   1.115362970596e-04  -5.841292501266e-05 
6 1  1.075030661538e-04   4.616380388603e-05  -7.232218207594e-05 
7 1  7.642037994528e-05   9.996345506127e-06   2.646309776354e-05 
8 1  6.901058707460e-06  -3.111095339907e-05  -4.855242512380e-06 
8
Step 2100
1 1 -1.992250017687e-05   8.257195379740e-05  -3.473666572470e-05 
2 1 -3.644583838685e-05   4.071211721188e-05  -6.440797151004e-05 
3 1 -2.309168196915e-05   5.085085834379e-05  -6.956724675174e-05 
4 1 -1.686728629181e-05  -1.136882848307e-04  -3.109679547184e-05 
5 1  1.028571446500e-04   1.419906636910e-04  -5.882312290148e-05 
6 1  1.298115588482e-04   8.477601172324e-06  -4.503005925313e-05 
7 1  5.219227810918e-05  -3.742169000950e-05   7.626060419641e-05 
8 1 -2.707829948604e-05  -4.287588664216e-06  -3.210949259247e-05 
8
Step 2200
1 1 -2.920501220190e-05   3.785689738383e-05  -4.827317531417e-05 
2 1 -8.746063284153e-05  -1.986733784338e-05  -9.398487680308e-06 
3 1 -6.060264262096e-05   7.476464204403e-06  -9.661745226899e-05 
4 1 -6.212351450040e-05  -5.958093675899e-05   2.403380804399e-05 
5 1  1.141102013518e-04   1.116718131140e-04  -2.172391483145e-05 
6 1  1.600647745294e-04  -4.309395259449e-05  -5.325270593209e-05 
7 1  2.468846688025e-05  -4.458721283476e-05   5.790823046412e-05 
8 1 -4.381604513362e-05  -2.196979496184e-05  -6.669049270271e-06 
8
Step 2300
1 1 -2.433369430818e-05   2.092848124732e-05  -1.220317463653e-05 
2 1 -8.414150714918e-05   6.025940846464e-06   6.520542671028e-05 
3 1 -6.082782325467e-05  -7.648101386675e-05  -9.742612519069e-05 
4 1 -7.024667146837e-05  -3.625821001384e-05   3.361548342213e-05 
5 1  1.115367226529e-04   1.085965395833e-04  -1.070157062577e-05 
6 1  9.556391564420e-05  -1.030731303625e-04  -1.608530302696e-05 
7 1 -8.293862386447e-05   8.388410628564e-05   1.327220487011e-05 
8 1 -3.261941391634e-05  -4.655605649328e-05   7.075830510448e-05 
8
Step 2400
1 1 -5.756672840297e-05   8.763860179292e-06   6.525152743417e-05 
2 1 -6.016647788406e-05  -3.335259056938e-06   1.327875752273e-04 
3 1 -4.257426112603e-05  -1.771861991016e-04  -7.430118643268e-05 
4 1 -6.157531965221e-05   3.030657311016e-06   1.692213681798e-05 
5 1  9.424582649676e-05   8.100729162170e-05  -2.867594873337e-06 
6 1  6.061819328307e-05  -8.713538045445e-05  -3.485102344544e-05 
7 1 -1.134310138676e-04   2.039257068962e-04  -8.648086090914e-06 
8 1 -2.292803606536e-05  -5.325667083871e-05   8.491704293425e-05 
8
Step 2500
1 1 -1.223430601379e-04   4.045467275258e-06   8.794995076160e-05 
2 1 -3.221434225462e-05  -5.204197781736e-06   1.030799393499e-04 
3 1 -1.528558837343e-05  -1.086381603702e-04  -5.243910539296e-05 
4 1 -5.846989712392e-05   1.801297208724e-05   5.319825717873e-05 
5 1  7.670138314916e-05   5.248917913093e-05   1.046827090044e-05 
6 1  1.808562385262e-05  -3.518494757332e-05   1.062333688001e-06 
7 1 -3.354038614582e-05   2.558194895395e-04   2.882485414610e-05 
8 1 -4.736793413168e-06  -3.111765894359e-05   2.458027658633e-05 
8
Step 2600
1 1 -9.978331778224e-05   9.114258596273e-06   7.970032318316e-05 
2 1 -2.554056762398e-05   5.329631119716e-07   1.219182516434e-04 
3 1 -7.563632998502e-05  -5.574501371087e-05  -1.976459775462e-05 
4 1 -6.789844872474e-06   2.411647277897e-05   6.343206268852e-05 
5 1  3.763155784337e-05   1.312350300872e-05  -1.837206602939e-05 
6 1 -7.839183301879e-06  -2.192042006467e-05   6.731190125353e-05 
7 1  1.750291158887e-05   2.305518082080e-04   8.157428809103e-05 
8 1  3.977010532550e-07   6.886320712023e-05  -8.555206116343e-05 
8
Step 2700
1 1 -5.859443384014e-05  -1.912587288828e-05   4.174200326098e-05 
2 1 -4.652524782795e-05   1.575328341965e-05   1.057657182301e-04 
3 1 -7.993983499879e-05  -4.184287415308e-05  -2.418603830767e-05 
4 1  6.901229749929e-05   6.766605169642e-05   2.843717473561e-05 
5 1 -6.252144128658e-05  -3.884894065726e-05  -4.317057581537e-05 
6 1 -3.053483158917e-05   4.089660729225e-05   9.258596899494e-05 
7 1  4.124266747386e-05   1.497597433942e-04   7.902071653944e-05 
8 1 -5.749042910178e-05   1.197601565863e-04  -8.144077425955e-05 
8
Step 2800
1 1 -3.352039988485e-05   2.015549744538e-05   6.896344765429e-06 
2 1 -5.791152242555e-05   4.238674997769e-06   8.898355038107e-05 
3 1 -7.765000639597e-05  -6.933711657194e-06  -4.424185898832e-05 
4 1  1.225277889528e-04   1.057860807218e-04   5.805803853358e-06 
5 1 -9.415856693862e-05  -1.561621098334e-05  -9.712357345299e-05 
6 1 -1.121057928240e-05   9.890019350979e-05   9.925792131570e-05 
7 1  4.228306116261e-05   6.360505329124e-05   5.074901859787e-05 
8 1 -4.504040237068e-05   1.255072724708e-04  -3.575390735932e-05 
8
Step 2900
1 1  6.708046288128e-07   5.503607815613e-05   3.522301245520e-05 
2 1 -2.194535268182e-05  -4.779128575301e-05   6.645457775736e-05 
3 1 -9.785296901611e-05  -1.283036134367e-06  -4.009714119125e-05 
4 1  1.383112345918e-04   5.975084592327e-05  -3.205258545976e-07 
5 1 -9.431522683868e-05   1.903680466797e-05  -7.165801478736e-05 
6 1  1.107753113179e-05   1.455181616007e-04   9.396796403559e-05 
7 1 -4.219285354240e-05   2.142437001192e-06  -1.493968905060e-05 
8 1  8.134258801737e-06   1.152894998164e-04   3.471486576138e-06 
8
Step 3000
1 1  3.128494384980e-05   5.661412549314e-05   3.557579110590e-05 
2 1 -2.808093031134e-05  -5.774742607971e-05   1.398416847207e-05 
3 1 -4.822169622629e-05   9.870207568340e-06  -1.621652076627e-05 
4 1  9.404278545494e-05   1.557211921166e-05   4.862257465106e-05 
5 1 -7.343585226721e-05   4.265435838527e-05  -7.384282261001e-05 
6 1  1.015844742150e-05   1.144758652472e-04   8.171870689073e-05 
7 1 -9.103757216273e-05  -3.455690082652e-05  -1.024842138572e-05 
8 1  5.329904818487e-05   8.428258047025e-05  -3.082919109901e-05 
8
Step 3100
1 1  1.851583731835e-05   2.767926983617e-05   9.026491983025e-06 
2 1 -3.196122557850e-05  -8.824831317229e-05  -5.381232918179e-05 
3 1 -1.766889540246e-05  -3.745374834884e-05  -2.724259539830e-05 
4 1  6.610149490771e-05   1.917309077461e-05   3.299918729745e-05 
5 1 -3.919965981825e-05   3.239113639701e-05  -3.767750795561e-05 
6 1  7.488898589068e-06   8.045550464276e-05   8.935486827816e-05 
7 1 -7.059687800089e-05  -1.889249247538e-05  -3.967544702803e-05 
8 1  1.144570487833e-05  -9.452829922043e-06  -5.403082085205e-05 
8
Step 3200
1 1  3.739040674862e-05   3.180610701439e-05  -3.648261551258e-05 
2 1  1.196868550319e-05  -7.796868135630e-05  -1.128283655470e-04 
3 1 -1.437439119155e-05  -9.098730037459e-05   1.742889097100e-06 
4 1  3.939804806103e-05   6.994178973257e-05   1.647907937579e-05 
5 1 -3.365872620961e-05   1.532540843687e-05  -4.885345244635e-06 
6 1  1.169425703887e-05   8.086779666202e-05   1.096706939352e-04 
7 1 -7.221801801271e-05  -2.749263928211e-05  -5.206955278923e-05 
8 1  3.236105009457e-05  -4.990488829400e-05  -7.012427258691e-05 
8
Step 3300
1 1  1.316518948057e-05   7.165746366232e-05  -5.820507041469e-05 
2 1 -4.983233885342e-06  -4.097931923236e-05  -1.130666482451e-04 
3 1  4.180565818678e-05  -1.278296660064e-04   3.514132845352e-05 
4 1 -1.479408909195e-05   8.067478078332e-05   4.262279314297e-05 
5 1 -1.534775821393e-05   5.292716908270e-06  -5.359366476343e-06 
6 1  9.263757685768e-06   2.257073741219e-05   3.967108576005e-05 
7 1 -5.219360953937e-05   9.960543374654e-06  -7.977600173648e-05 
8 1  4.030152409085e-05  -4.069850434259e-05  -5.890450610284e-05 
8
Step 3400
1 1 -5.311708445145e-05   9.330131445738e-05  -1.260305610390e-06 
2 1 -2.178065698395e-05  -3.053770369931e-05  -1.013608035221e-04 
3 1  1.241621832364e-04  -7.692694982502e-05   6.119331392848e-05 
4 1 -6.124566916406e-05   2.958864277347e-05   6.466166820340e-05 
5 1  1.016950158501e-05  -1.804148277554e-05  -4.490777582057e-06 
6 1 -2.621711601419e-05  -5.721208132803e-05   1.703635315719e-05 
7 1 -2.805747972948e-05   6.017478964599e-06  -1.511075990883e-04 
8 1  4.637001471034e-05  -2.596841857007e-05  -8.100696174757e-05 
8
Step 3500
1 1 -7.124118683603e-06   2.918188123438e-05   7.201740121125e-05 
2 1 -1.377166599585e-05  -2.042169836479e-05  -9.061808047870e-05 
3 1  1.247811082758e-04  -3.271235011140e-05   4.743312572382e-05 
4 1 -3.779852936285e-05  -1.447881938854e-05   3.900767071204e-05 
5 1  1.220806495930e-06  -2.627606543416e-05   4.471429962230e-05 
6 1  2.627726156008e-05  -4.295942304341e-05  -1.798930884503e-05 
7 1 -2.425846040138e-05  -5.885771221639e-05  -1.762430979239e-04 
8 1  1.925242293673e-05  -3.658118235653e-05  -9.790596906854e-05 
8
Step 3600
1 1  4.268333303987e-05  -6.318196704033e-05   9.153274217571e-05 
2 1 -1.976628858802e-05  -8.475451647065e-07  -2.583972753653e-05 
3 1  1.140205525965e-04   7.547039077891e-06  -3.433984533909e-06 
4 1  1.189630930881e-05  -5.024064624170e-05   8.762574322933e-05 
5 1 -2.685269300042e-05  -5.094725309124e-05   4.555062237625e-05 
6 1  3.452636988537e-05  -1.786751750401e-05  -7.628580601849e-05 
7 1 -3.033078795667e-05  -9.912039077487e-05  -1.535963879613e-04 
8 1  9.137547669189e-06  -8.129933661869e-05  -4.051324473280e-05 
8
Step 3700
1 1  3.607995055647e-05  -1.139230699385e-04   1.145912982909e-04 
2 1 -2.692315979648e-05   6.951729544188e-06   3.364151476224e-06 
3 1  1.462217464909e-04  -9.529291891077e-06  -2.797455611175e-05 
4 1  6.963948405117e-05   3.897984115120e-06   1.299002988947e-04 
5 1 -3.488643325168e-06  -2.900516246842e-05   4.154394487661e-06 
6 1  1.665648595204e-05  -1.215750186286e-05  -8.259547878794e-05 
7 1 -3.555832472693e-05  -1.453178531568e-04  -1.192415356385e-04 
8 1  3.168661433696e-05  -5.934748491286e-05   4.229489022075e-06 
8
Step 3800
1 1 -8.418653859073e-06  -8.515337310517e-05   9.185771570828e-05 
2 1 -2.365097653650e-05   1.118247297790e-05   4.204955967914e-05 
3 1  1.396602989537e-04  -1.217257988694e-05  -3.009691006620e-05 
4 1  1.082919828999e-04  -1.297107926968e-05   9.240672747488e-05 
5 1  1.056834955042e-05   4.966181641414e-05   6.084011341402e-06 
6 1  3.048441229548e-05  -5.729504965421e-05  -6.683068085987e-05 
7 1  1.598029436628e-05  -1.288552066773e-04  -7.228756444578e-05 
8 1  8.749505065906e-05  -1.996802804970e-05   5.079313090952e-05 
8
Step 3900
1 1 -3.363261050839e-05  -3.722657733002e-05   5.880901184222e-05 
2 1 -1.891011418906e-05   1.408654573643e-05   5.661019278631e-05 
3 1  1.153613478279e-04   4.739606402124e-06  -5.519937342471e-05 
4 1  9.157718496668e-05  -1.407254058869e-05   8.441503298746e-05 
5 1  2.422591459095e-06   8.198697004441e-05   1.826114103662e-05 
6 1  5.319820767080e-05  -6.189885312012e-05  -6.513289461211e-05 
7 1  8.676751886686e-07  -1.223484865052e-04  -1.739456745119e-07 
8 1  1.015998711672e-04   6.729810884143e-06   9.454157250772e-05 
8
Step 4000
1 1 -2.390816560674e-05   2.499938232971e-06   2.175870552787e-05 
2 1 -1.141213658356e-05   2.010296974256e-05   4.689510143181e-06 
3 1  8.597884251045e-05   3.178956468030e-05  -6.528086943043e-05 
4 1 -1.019260789697e-05  -3.352090579719e-05   6.861371026284e-05 
5 1 -1.140449958696e-05   8.467693471671e-05   3.925538608693e-05 
6 1  1.003444498239e-04   1.079632529070e-05   1.301897134818e-05 
7 1  4.231388235239e-06  -6.859277181415e-05   8.343693430169e-05 
8 1  1.044654157997e-04  -5.468565171764e-05   6.798767562438e-05 
8
Step 4100
1 1  1.662047094980e-05   1.906495991059e-05   9.533755069484e-06 
2 1 -2.975018033593e-05   5.688555514878e-05   3.030263415727e-05 
3 1  3.020658237560e-05   6.798409092430e-06  -4.982224728000e-05 
4 1 -6.141014792302e-05   2.346904121518e-05   9.023788680275e-05 
5 1 -6.356929963520e-06   3.463840591109e-05   3.514925813680e-05 
6 1  8.599984979765e-05   1.404038166785e-05   1.408602716577e-05 
7 1  1.196044772413e-05   1.257715262432e-06   1.050310801705e-04 
8 1  1.441564609510e-04  -1.232517092775e-04   2.239011547776e-05 
8
Step 4200
1 1  9.254516976519e-06  -5.113452549779e-07   1.992756655964e-05 
2 1 -3.248100463108e-05   3.600892434008e-05   5.735761028577e-05 
3 1 -4.387941833806e-05   1.485569880500e-05  -8.858653097452e-05 
4 1 -3.430423265910e-05   2.783807047874e-05   1.687256798748e-04 
5 1 -1.264182554787e-05  -4.460868386089e-05   5.429041372943e-05 
6 1  3.792010018536e-05   1.873917243209e-05  -2.001853100440e-05 
7 1 -9.749698964245e-06   2.760110190305e-05   3.377405274313e-05 
8 1  1.397266053758e-04  -8.779928641140e-05   6.732162559723e-05 
8
Step 4300
1 1 -5.045147407051e-05   2.280818826591e-05   1.866188217715e-05 
2 1  1.641290896374e-05   3.032869194104e-05   6.552565812988e-05 
3 1 -1.006525429713e-04   1.222399803681e-05  -4.836109102920e-05 
4 1 -7.623557688187e-06   1.622084397096e-05   1.617084779946e-04 
5 1 -1.529310535707e-05  -1.172467956790e-04  -1.576664612895e-05 
6 1 -8.880250407297e-06  -3.879099951286e-06  -6.309805950120e-05 
7 1 -1.255361334840e-06  -2.378204914039e-06  -3.309397062086e-05 
8 1  6.988445584043e-05  -1.299159842007e-05   9.405711303254e-05 
8
Step 4400
1 1 -2.726029649464e-05   3.036543385290e-05   3.723615442443e-05 
2 1  2.259494083828e-05   7.473064269988e-05   3.730932986049e-05 
3 1 -1.206973855386e-04   2.659100912056e-05  -1.170178080225e-05 
4 1  1.318722652126e-05   1.081910681213e-05   1.057562198154e-04 
5 1 -9.321005918885e-06  -8.915485686612e-05  -3.950170653698e-05 
6 1 -3.299250385333e-05  -6.503928363475e-06  -9.344506252941e-05 
7 1  1.763842742769e-05  -2.184249810052e-05   1.573855727029e-07 
8 1  6.641807977492e-05   5.763732628969e-05   8.183270219818e-05 
8
Step 4500
1 1  5.182599463605e-06   7.062562768213e-05   5.521364920018e-05 
2 1 -1.352273249092e-05   7.973554385725e-05   5.899513077081e-06 
3 1 -1.511783408115e-04   5.751087936565e-05  -4.599843192407e-05 
4 1  3.892508154375e-05   2.197605568016e-05   6.265881553983e-05 
5 1 -3.239204820037e-05  -2.831514932799e-05  -6.902046592781e-05 
6 1 -3.261159252789e-05   6.388468065013e-05  -6.365201627590e-05 
7 1  1.934674155117e-05   3.174503063560e-05   3.854992960320e-05 
8 1  4.688386271741e-05   9.313565091832e-05   1.285793415051e-05 
8
Step 4600
1 1  4.552708847433e-05   5.228136412140e-05   9.943442135749e-05 
2 1 -3.764413402673e-05   1.059261284089e-04   3.823933096887e-05 
3 1 -1.651981054931e-04   2.947182450404e-05  -8.206766596898e-05 
4 1  7.891635399730e-05   2.244513047547e-05   5.271571346608e-05 
5 1 -2.352233758887e-05  -7.578144627950e-06  -1.002387230367e-04 
6 1 -2.931829637088e-05   7.829779998687e-05   2.989973757736e-05 
7 1 -9.697572912815e-06   4.305484699900e-05   1.037336580958e-04 
8 1 -3.796298699016e-05   1.533924456956e-04  -4.028851894872e-05 
8
Step 4700
1 1 -1.641795099423e-05   2.405024168494e-05   8.127730346842e-05 
2 1 -2.155812903427e-05   9.180616900727e-05   5.172717644115e-05 
3 1 -1.183697314236e-04  -5.719588993719e-05  -9.244038220913e-05 
4 1  5.545116066970e-05   8.121262015677e-06   8.765312986856e-05 
5 1 -4.692900708045e-05  -4.238778704083e-06  -1.209042855844e-04 
6 1 -5.121788857825e-06   5.750199347239e-05   8.443258703793e-05 
7 1 -1.455452807719e-05   5.858507914184e-05   1.641810538056e-04 
8 1 -6.020450180772e-05   1.705380123390e-04  -3.633206390605e-05 
8
Step 4800
1 1 -5.502725746836e-05   1.051613842999e-05   2.285682657535e-05 
2 1  5.753535581340e-06  -1.601882993140e-05   4.264780200803e-05 
3 1 -6.639658340790e-05  -6.364871632297e-05  -7.494605143184e-05 
4 1  6.271371684196e-05  -4.762988846582e-05   6.671295807019e-05 
5 1 -7.029668943171e-05   1.439989172870e-05  -1.144334153118e-04 
6 1  4.415543268021e-05   6.603513682736e-05   2.930019386085e-05 
7 1 -1.505853932832e-05   6.772889077084e-05   2.061985821086e-04 
8 1 -3.229566210964e-05   1.488513781018e-04  -1.966890362737e-05 
8
Step 4900
1 1 -7.681565309897e-05   4.899775363966e-05  -8.805613694767e-06 
2 1  7.980031462666e-06  -1.193225104031e-04  -1.226195713722e-05 
3 1 -9.593203898114e-05   1.155708240247e-05  -3.126625907051e-05 
4 1 -1.435709701076e-05  -6.058004186430e-05   5.209924111710e-05 
5 1 -5.866553596417e-05  -2.722232760484e-05  -1.339906256925e-04 
6 1  1.393735329067e-05   6.619567232198e-05  -1.879625232555e-05 
7 1 -2.677235638180e-05   2.663949425485e-05   1.511249626287e-04 
8 1 -3.059126554903e-05   1.019105083851e-04  -1.381663092533e-05 
8
Step 5000
1 1 -4.776359906525e-05   9.894141539802e-05   3.688575966543e-05 
2 1  3.210174361607e-05  -1.644711981957e-04  -1.179847904190e-04 
3 1 -8.518481776703e-05   1.579868348752e-05  -1.849064610658e-05 
4 1 -1.272653302775e-04  -1.379162836795e-05   2.477795635300e-05 
5 1  1.129764723623e-05  -3.801776002773e-05  -1.506786628127e-04 
6 1 -2.215117497015e-05   1.821292126340e-05  -4.136123246180e-05 
7 1 -5.276602330482e-06  -3.764537966914e-05   9.851085406794e-05 
8 1 -3.296875870843e-05   3.493736962432e-05  -2.183313296458e-06 
8
Step 5100
1 1 -7.584916591793e-05   1.648580688628e-04   1.743946551453e-05 
2 1  5.998710747256e-05  -1.220368596324e-04  -1.639559235713e-04 
3 1 -7.529326355944e-05  -2.829209258950e-06   1.303123290139e-05 
4 1 -1.313561810331e-04  -1.145726352586e-06  -3.721452589921e-05 
5 1  5.674484537415e-05   4.101499155902e-06  -1.166578395085e-04 
6 1  5.061988411151e-05  -2.134483069988e-05  -7.239493133047e-05 
7 1 -1.949522386703e-05  -3.257130231431e-05   6.399422028179e-05 
8 1 -1.235811225822e-05   1.561446332378e-05  -3.555880205237e-05 
8
Step 5200
1 1 -1.130214438060e-04   9.780341597694e-05  -4.592732644375e-05 
2 1  6.688031919601e-05  -4.008336188122e-05  -1.584044556734e-04 
3 1 -5.228336445471e-05  -4.225407443235e-05   2.698903627566e-05 
4 1 -1.096729697656e-04  -1.011516070040e-05  -5.615991695243e-05 
5 1  3.209743445454e-05   5.313896203763e-05  -1.204592973426e-05 
6 1  1.181523395363e-04  -2.498811201884e-05  -8.597367589103e-05 
7 1 -5.871011237946e-06   1.246158010630e-06   1.597310823112e-05 
8 1  1.460486915463e-05   2.818448730354e-05  -4.263746377976e-05 
8
Step 5300
1 1 -1.362527834143e-04   2.883545581715e-05  -5.973185413542e-05 
2 1  9.731110381657e-06  -7.448145323454e-06  -1.581860447053e-04 
3 1 -4.778071581195e-05  -7.362616690438e-05   1.883627928004e-05 
4 1 -1.193713095312e-04  -1.752117832448e-05  -5.223435861812e-05 
5 1  4.748893268701e-05   5.490546601803e-05   7.837547175083e-05 
6 1  1.147875270584e-04  -5.252884113937e-05  -1.056345807407e-04 
7 1  4.511329612696e-05   2.233216446879e-05   2.510840816098e-05 
8 1  4.002651034248e-05   5.111126313299e-05   6.594888334151e-06 
8
Step 5400
1 1 -1.018929451493e-04  -1.466886360312e-05  -6.790638738467e-05 
2 1 -5.770453958908e-05  -2.691446290330e-05  -1.451137684342e-04 
3 1 -2.545930111598e-05  -1.008683765800e-04   5.837540749689e-08 
4 1 -9.948207072554e-05   1.412469190988e-05  -7.619678049696e-05 
5 1  8.364385781936e-05   1.867563915899e-05   1.033069404102e-04 
6 1  8.775173099436e-05  -4.748433137679e-05  -6.987961871647e-05 