8
Step 0
1 1  0.000000000000e+00   0.000000000000e+00   0.000000000000e+00 
2 1  0.000000000000e+00   0.000000000000e+00   0.000000000000e+00 
3 1  0.000000000000e+00   0.000000000000e+00   0.000000000000e+00 
4 1  0.000000000000e+00   0.000000000000e+00   0.000000000000e+00 
5 1  0.000000000000e+00   0.000000000000e+00   0.000000000000e+00 
6 1  0.000000000000e+00   0.000000000000e+00   0.000000000000e+00 
7 1  0.000000000000e+00   0.000000000000e+00   0.000000000000e+00 
8 1  0.000000000000e+00   0.000000000000e+00   0.000000000000e+00 
8
Step 100
1 1  3.665521815759e-04   8.853673080312e-04   4.119402936274e-04 
2 1 -9.753632214427e-04   2.342416237301e-03  -1.575374160802e-03 
3 1 -2.484838843545e-05   1.584972107592e-03  -2.456948874648e-04 
4 1  9.081633497750e-04   1.853025104174e-03   1.224209626163e-03 
5 1 -1.824199528970e-03  -8.499747777376e-04   2.220419155647e-03 
6 1 -8.513470423512e-04   1.751043487002e-03  -1.057992484881e-03 
7 1 -7.728888761988e-04  -2.664953083676e-04   6.394203110187e-04 
8 1 -4.291359930124e-04  -1.425977312296e-03  -2.092765705876e-03 
8
Step 200
1 1  7.268151739928e-04  -6.845393920018e-06  -3.056668665021e-04 
2 1 -7.228147802508e-05  -7.125591834552e-04   3.070670904142e-04 
3 1  1.033483829794e-03  -1.509352802588e-04  -5.695493345494e-05 
4 1 -3.807172633938e-04  -3.423840743366e-05   6.901766764162e-04 
5 1  1.592618139907e-04  -9.594732353808e-04  -7.905667288090e-04 
6 1  9.856059048034e-05  -5.786338159878e-04   1.400662517055e-04 
7 1  1.972873846806e-04  -5.623920030782e-05   1.241856195858e-04 
8 1 -7.312639790489e-04   8.015419571251e-04  -1.878481823807e-04 
8
Step 300
1 1  4.333582036214e-04  -1.920742826952e-04  -5.653746750081e-04 
2 1  2.468463476469e-04  -1.300979213553e-03   8.634257001765e-04 
3 1  8.846028439812e-04  -4.198869011893e-04   3.580827844988e-05 
4 1 -5.471862560160e-04  -6.308526562162e-04   2.503626713454e-04 
5 1  4.741003999145e-04  -4.855719362118e-04  -9.817332439637e-04 
6 1  4.157596312071e-04  -1.061983308737e-03   4.031220260896e-04 
7 1  3.411124129155e-04   1.408685127701e-04   1.503744874272e-05 
8 1 -7.100043788315e-04   1.270620064205e-03   3.974119882970e-04 
8
Step 400
1 1  2.644041020047e-05  -1.159089208360e-04  -2.880054776511e-04 
2 1  1.832717003691e-04  -3.372905551528e-04   9.796942300333e-05 
3 1  4.006510266865e-04   3.740555477169e-05   5.295177980069e-05 
4 1 -2.252958484058e-04  -3.377346666883e-04  -8.552519425234e-05 
5 1 -9.786068441975e-05  -3.342520735543e-07   1.587204628993e-05 
6 1  8.516038422805e-05  -4.936383279711e-04   1.640238043790e-04 
7 1  1.388059108915e-04   1.265321800111e-04  -1.587200124983e-04 
8 1 -3.546944983136e-04   6.326648687699e-04   3.431911386565e-05 
8
Step 500
1 1 -2.270767743444e-04  -4.604911721182e-05  -1.942394536405e-05 
2 1  2.114979350485e-04   4.220406530553e-04  -4.165488288984e-04 
3 1 -3.702613962489e-05   5.046198015825e-04   1.387005087319e-04 
4 1 -5.169458404301e-05   1.733797053938e-05  -8.804774432128e-05 
5 1 -1.635722467847e-04   5.274270640482e-05   3.155829989293e-04 
6 1 -2.234504235340e-04  -7.381342799849e-06   3.180975882392e-05 
7 1 -8.376389022964e-05   9.756477115689e-05  -1.369905224042e-04 
8 1 -9.773187519484e-05   1.132902088743e-05  -5.097586668014e-05 
8
Step 600
1 1 -6.188579193106e-05   1.227184436491e-05   8.296115710049e-05 
2 1  5.244358588717e-05   3.488805587860e-04  -3.385924556078e-04 
3 1 -3.100747121346e-05   4.013615526271e-04   1.926750158195e-04 
4 1  4.627639478330e-06   5.057478358979e-05  -9.337440524782e-05 
5 1  1.306813408287e-04   1.418887705667e-05   1.811440654037e-04 
6 1 -8.690830453151e-05   9.901169904077e-05   1.094915321102e-04 
7 1 -1.943508123515e-04   6.705949294819e-05  -1.176231137148e-05 
8 1  1.289291580488e-04  -3.710304625768e-04  -1.472071988440e-05 
8
Step 700
1 1  9.182381000399e-05   2.976364801158e-05  -1.127760540338e-04 
2 1 -1.203373861863e-04  -7.108812836689e-05  -5.393305024837e-05 
3 1  1.431764886854e-06   1.246274397482e-04   6.663117495544e-05 
4 1 -1.821116900535e-04   5.830582868483e-05   5.382721162424e-05 
5 1  2.036723507589e-04   4.059132967644e-05  -1.916804994386e-05 
6 1  1.182589527786e-04  -5.597289167945e-05   1.027056673850e-04 
7 1  2.167123314869e-06  -9.430602162476e-05   7.542055371698e-05 
8 1  1.114505125279e-04  -2.779566161790e-04   5.052486828712e-05 
8
Step 800
1 1  1.570507967683e-05   5.707439718294e-06  -1.441258863439e-04 
2 1 -3.047586166920e-04  -3.310848407587e-04  -1.146210708116e-04 
3 1 -3.411380389211e-05  -1.219041810909e-04   4.408776106966e-05 
4 1 -8.865651927675e-05   1.166837780071e-04   1.225114439858e-04 
5 1  1.697891151756e-04   7.231567361950e-05   9.450029236507e-05 
6 1 -2.782005230564e-06  -1.851953909921e-04  -2.617831523443e-05 
7 1 -2.026332651713e-05  -9.100436086274e-05   6.318944138593e-06 
8 1  1.512226662082e-04  -1.609853062750e-04  -3.297041184819e-05 
8
Step 900
1 1  2.562368055007e-04   6.910327243047e-05  -6.774924955924e-05 
2 1 -1.712413740285e-04   2.478146870904e-05  -1.416330704467e-04 
3 1  1.564756957455e-04  -3.448977431908e-06   4.410576833017e-05 
4 1 -1.282024768031e-04   1.445947174743e-04   3.244787374742e-06 
5 1  1.347406278998e-04   2.539933623779e-05   1.476999757249e-04 
6 1 -1.583399766195e-04  -2.203319795417e-04  -1.325795292383e-04 
7 1 -8.374022508382e-05   7.285177073605e-05  -2.007040897716e-07 
8 1 -3.146115411703e-05  -1.358560791235e-04  -2.994421386161e-05 
8
Step 1000
1 1  2.420996716743e-04   1.628721124869e-04  -1.001879591646e-04 
2 1  1.194554852659e-05   7.422070760899e-05  -2.224999784942e-04 
3 1  1.301475938092e-04   2.743171313413e-04   1.448481069959e-04 
4 1  2.970431190774e-05   3.839547424543e-05  -7.068782208248e-05 
5 1  2.144003920344e-04   1.025727243160e-04   1.695767497799e-04 
6 1 -1.855381085824e-04  -1.514184396302e-04  -8.603039795246e-05 
7 1 -1.682473515853e-05   2.502857867352e-04   6.607874457916e-05 
8 1  1.811700160303e-05  -2.191175014212e-05   1.854773188532e-05 
8
Step 1100
1 1 -5.117455982797e-05   9.171368356348e-06  -1.600633632961e-04 
2 1  1.115626020448e-04  -4.071475811299e-05  -1.592342359180e-04 
3 1 -1.586245239700e-04   2.235878424320e-04   1.291614276190e-04 
4 1  1.632498845510e-04  -1.873118316269e-04  -1.659654596259e-04 
5 1  8.143421303448e-05   1.457738126121e-04   2.069769800209e-04 
6 1 -1.609067975251e-04   1.708296076478e-04   7.847986395072e-05 
7 1  1.602928624107e-04   2.996851296105e-04   2.392951740764e-04 
8 1  1.975182878483e-04  -2.006614519793e-05   9.970771998741e-05 
8
Step 1200
1 1 -1.316156247461e-04  -8.182681037134e-05  -1.681090796932e-04 
2 1 -3.754025113322e-05  -1.061585197359e-05  -7.300904832550e-05 
3 1 -1.146184246750e-04   1.015956220096e-04   1.395413807489e-04 
4 1  2.171788587165e-04  -8.247767717819e-06  -2.593477315611e-05 
5 1  1.796623089400e-04   2.022838475874e-04   1.742757904477e-04 
6 1  8.417347659483e-06   2.844943082367e-04   1.652862286344e-04 
7 1  1.078123487715e-04   7.965510997341e-06   1.137831164012e-04 
8 1  3.373500225090e-04  -1.274938564311e-04   1.517188951257e-04 
8
Step 1300
1 1 -4.287715425139e-05   7.972525418870e-06  -3.063848260444e-04 
2 1  1.059762360157e-05   6.964784110478e-05  -8.177118633721e-05 
3 1  3.822255592229e-05   2.149340178992e-05   1.228458870135e-04 
4 1  6.779668495498e-05   3.664476755532e-04   3.818108565404e-05 
5 1  2.218832083718e-04   2.609641502646e-05   1.389928798496e-04 
6 1  1.656792293002e-04   3.791372101253e-05  -3.794000554316e-05 
7 1 -1.553493305651e-04  -2.597926801426e-04  -1.931408364926e-04 
8 1  2.178487044668e-04  -1.691767658452e-04  -7.256011581365e-05 
8
Step 1400
1 1  1.771641058316e-05  -1.236787493523e-04  -2.134739380195e-04 
2 1  1.524454987408e-04  -8.972392272057e-06   1.620564456432e-06 
3 1  6.467845899069e-05   5.278145020356e-05   2.687479805304e-05 
4 1  1.304956875754e-05   1.907462441300e-04   4.480938352339e-05 
5 1  8.176767023122e-05  -1.525758703076e-04  -2.524092985023e-05 
6 1  8.277964731332e-05  -1.815835090973e-05  -1.805526266923e-06 
7 1 -1.982959680452e-04  -2.445542570807e-04  -2.473223228295e-04 
8 1 -5.384940979551e-05   1.955833025151e-05  -5.085773816195e-05 
8
Step 1500
1 1  7.156347597244e-05   1.689719025860e-04   1.610496018532e-04 
2 1  1.430051453532e-04  -1.448337120843e-05   6.220589660558e-06 
3 1  3.836296291053e-05   2.348083645037e-04  -3.289061090546e-05 
4 1 -2.519892318017e-05  -1.799448574913e-04   3.681489680868e-05 
5 1 -3.315101012235e-05  -1.507467038425e-04  -1.146654191115e-04 
6 1  3.916772564424e-05   1.576801008431e-04   5.780343515607e-05 
7 1 -1.422181370936e-04  -7.380757098855e-05  -1.902881607475e-04 
8 1 -1.348461482892e-04   1.380725585506e-05  -6.974547726407e-05 
8
Step 1600
1 1  5.414828393366e-05   3.462848441212e-04   1.513352759658e-04 
2 1 -8.626814465941e-06   1.390352175259e-04  -6.911850347907e-05 
3 1 -9.171728111815e-05   2.765425248886e-04   1.009506756675e-04 
4 1  8.387189191213e-05  -1.209339149740e-04   1.505682388819e-04 
5 1  2.237756487074e-04   5.413082042049e-05  -1.064393876492e-04 
6 1  1.980027598279e-04   1.375131109193e-04  -1.599578023664e-05 
7 1 -2.015195366306e-04   1.219542931836e-05  -1.257174482538e-04 
8 1  2.941508420668e-05   6.076912219891e-05   9.377327665605e-06 
8
Step 1700
1 1  1.007450553138e-04   3.382606108814e-04  -1.747643625039e-04 
2 1 -2.324909193924e-04   1.382394352184e-04  -2.597252893504e-05 
3 1 -4.947922516971e-05   1.821582657151e-04   1.640731594350e-04 
4 1  1.473011220916e-04   7.246355319300e-05   1.512241493036e-04 
5 1  2.396061205356e-04   2.574661332265e-04   7.558295947815e-05 
6 1  3.444370242749e-04   1.400540819952e-04  -6.951684452519e-05 
7 1 -1.317216151738e-04   6.981057500663e-05  -1.290462718399e-04 
8 1  2.744314370577e-04   3.532016285943e-04  -1.982215949493e-05 
8
Step 1800
1 1  7.572112949750e-05   2.452851659353e-05  -3.581462930096e-04 
2 1 -2.558849247957e-04   2.274221075407e-04  -2.761550606734e-04 
3 1 -1.206759908223e-04   7.112091258083e-05   1.297917538611e-04 
4 1  8.611800134573e-05  -7.965442826137e-05   6.257379092732e-05 
5 1 -5.922035035279e-05   1.825251543115e-04   2.412885306239e-04 
6 1  2.097910483121e-04   1.064443179676e-04  -2.801433024426e-05 
7 1 -1.730484397017e-04   6.284734306415e-05   3.054605513515e-05 
8 1  2.197160456438e-04   2.934003054336e-04  -1.945463799210e-04 
8
Step 1900
1 1  6.165348817265e-05  -1.392851896448e-04  -2.950595723520e-04 
2 1 -1.327470669127e-04   1.340383657057e-04  -2.327520651385e-04 
3 1 -9.638797556583e-06  -4.612967956814e-05   7.136813660629e-05 
4 1 -7.438379654214e-05  -1.049609246885e-04   4.838186260113e-05 
5 1 -1.556929213137e-04  -4.691512283444e-05   2.574214477609e-05 
6 1  3.788510892552e-06  -6.970548157065e-05   4.590607027417e-05 
7 1 -7.516738968118e-05  -5.784489625132e-05   1.148234149885e-04 
8 1  7.304143232996e-05  -9.623989490663e-05   3.845730729208e-05 
8
Step 2000
1 1  2.211451149079e-04  -9.467072809194e-05   3.014220371740e-05 
2 1 -3.967568026020e-05  -9.482107596628e-05   1.536724372454e-04 
3 1  1.101503497325e-04  -1.874424386803e-04  -3.980563407739e-05 
4 1  3.318822887811e-05   7.440392800168e-05   1.679606721376e-04 
5 1  5.493940789139e-05  -2.049467341511e-04  -6.759006594808e-05 
6 1  3.688106329219e-05  -3.134538401300e-05   2.480971558256e-05 
7 1  1.255102379667e-04  -6.905676877385e-06   7.194572356739e-05 
8 1  2.509886640286e-05  -1.260421953517e-04   1.670722025661e-04 
8
Step 2100
1 1  2.120081122570e-04   1.226446599495e-05   1.660950187683e-04 
2 1  1.040562163311e-04   8.961763642341e-05   4.545062605749e-04 
3 1  1.119534803699e-04  -1.076193274636e-04  -1.253629741077e-04 
4 1  5.417959189219e-05  -6.226057673633e-05  -1.066132699801e-05 
5 1  3.217133233188e-04  -8.146727035812e-05  -8.186157845549e-05 
6 1 -1.308555225621e-05   1.037644532065e-04   5.212877259775e-05 
7 1  1.856840924852e-04   4.213299161438e-05  -4.777218163389e-05 
8 1 -4.449650736013e-05  -9.729415956882e-05   5.798446086216e-05 
8
Step 2200
1 1  5.506364094881e-05   1.877213416550e-04  -6.823222581009e-06 
2 1  6.024601913912e-05   1.833588271967e-04   2.394463149054e-04 
3 1  2.991237613839e-05   1.055075775166e-05   3.179040642999e-05 
4 1  5.109296330557e-05  -3.309252489083e-04  -1.315084853569e-05 
5 1  3.730163004898e-04  -6.807237493995e-05  -2.765611868425e-04 
6 1 -1.031355118280e-04  -1.960057796655e-05   7.881463026720e-05 
7 1 -1.963840011542e-06   5.690009698512e-05  -1.237838842678e-04 
8 1 -1.109951490891e-04   4.037265610000e-06   8.090971101339e-05 
8
Step 2300
1 1  3.256059569295e-05   1.228791368085e-04  -1.167655780178e-04 
2 1 -1.263402913405e-04   8.086948977910e-05   1.171435161357e-04 
3 1 -8.176725861557e-05   2.005074861180e-04   1.084386716992e-04 
4 1  4.370206344777e-05  -1.149362760261e-04   1.203092800444e-04 
5 1  1.495005554644e-04  -2.553756652016e-04  -1.052128742153e-04 
6 1  4.121340272680e-05  -1.100302342730e-05  -5.302568978956e-05 
7 1  1.168718988810e-04  -2.254941263181e-04   3.989577771664e-05 
8 1 -5.629299479983e-05   2.810645710358e-04  -5.315321126102e-05 
8
Step 2400
1 1  6.983223160377e-05   2.460502732667e-05   3.298355523202e-05 
2 1 -8.521928419464e-05   5.090887940055e-05   1.280817020747e-06 
3 1 -5.931950900181e-05   2.796930302285e-04   1.110721663505e-04 
4 1 -6.987490718360e-05  -7.179685538585e-05   1.102821060107e-04 
5 1 -1.772816581173e-04  -3.105680742074e-04   1.371120413807e-04 
6 1  3.434803916171e-05  -1.145398687743e-04   3.909822477045e-05 
7 1  1.421868714116e-04  -2.888785986529e-04   5.872451109315e-05 
8 1  1.235502809989e-04   2.428039436061e-04  -8.838072222541e-05 
8
Step 2500
1 1  1.780644897898e-04   1.039032763168e-04   4.141356705421e-05 
2 1  3.527915598849e-05   9.308632932610e-05   1.243423028939e-04 
3 1  5.944780238203e-05   1.040794994829e-08  -6.937693834357e-06 
4 1 -1.528513704131e-04  -8.499793829644e-05  -5.331477118470e-06 
5 1 -2.734674431680e-04  -1.985225308129e-04   7.285265316002e-05 
6 1  1.618160252509e-04  -2.491515550626e-04   1.613879683148e-04 
7 1 -2.084247351840e-04  -2.476033326298e-04  -2.589828955328e-05 
8 1  4.674126226588e-05   7.457094483821e-05  -9.321184631230e-06 
8
Step 2600
1 1  1.229328345668e-04   1.430307194647e-04  -1.653771837732e-04 
2 1  3.869447766738e-05   1.518356510130e-04  -1.141301432120e-05 
3 1  2.568604583085e-04  -1.068701794275e-04  -2.119099612850e-04 
4 1 -8.428584866682e-05  -1.292541013880e-04   6.285764529390e-05 
5 1 -2.715133863357e-04  -9.903651930856e-05   3.984648528089e-05 
6 1  1.753643640242e-04   4.945045449263e-05   1.588336896059e-04 
7 1 -2.633811647390e-04  -1.453042472496e-04  -2.566699760188e-06 
8 1  1.355638399324e-04   2.132374626462e-05   1.624525027092e-04 
8
Step 2700
1 1  1.694451768846e-04   2.370629524285e-04  -2.522979900891e-04 
2 1  9.393415001922e-05   2.386861581049e-04  -1.361454176484e-04 
3 1  8.902191636899e-05  -2.013472716235e-05  -1.987880329022e-04 
4 1 -8.776564020543e-05  -1.023639746102e-04   1.287808628952e-04 
5 1  1.135118527976e-04   1.207114893823e-05   9.063690372536e-06 
6 1  8.317518512269e-05   2.543624046093e-04   1.341344017043e-04 
7 1 -2.644514522495e-04  -1.177716747818e-04   4.293597086791e-05 
8 1  2.681832127601e-04   1.681366130287e-07  -8.875834893680e-05 
8
Step 2800
1 1  2.668739110612e-04   7.152922277158e-05  -1.058318109075e-04 
2 1  1.266631366125e-04   1.839372364537e-04  -5.810198959342e-05 
3 1 -4.253665096594e-05  -1.018955234951e-05   6.333678604138e-05 
4 1 -1.292822081995e-04  -1.008525787012e-04   1.098726347490e-04 
5 1  2.278611348266e-04  -9.913291794131e-05   8.990567881686e-05 
6 1  1.114495565340e-04   4.840512087846e-05  -1.061589149745e-04 
7 1 -3.899841850238e-05  -3.140149696475e-04   6.829046927763e-05 
8 1  1.396488906543e-04   1.367704353750e-04  -2.700774085062e-04 
8
Step 2900
1 1  1.828043829826e-04   2.093522964791e-06  -1.528864694139e-04 
2 1 -8.661311833858e-05   1.994165837862e-04  -1.398928608084e-04 
3 1 -1.220025012959e-04  -7.090248404032e-05   2.154009768457e-04 
4 1 -7.698189620020e-05  -5.329395890220e-05   1.201247615998e-04 
5 1  8.360407636712e-05  -1.486407192793e-04  -1.284371095609e-04 
6 1  2.887327502088e-05  -1.918037154650e-04  -1.446237871338e-04 
7 1  1.437489140022e-04  -7.112975618171e-05   7.237239896542e-06 
8 1 -5.642658814677e-05   3.056869055123e-04  -2.122484552247e-04 
8
Step 3000
1 1  1.529614078194e-04   1.666209574264e-05  -1.508287130691e-04 
2 1 -5.523999492075e-05   2.199485111676e-04  -9.261589981007e-05 
3 1 -2.128907406129e-04  -1.836297517122e-04   9.451748099758e-05 
4 1  2.942531142383e-04  -6.868826273571e-05   5.025232031680e-05 
5 1 -1.350581102948e-05  -3.480450405652e-05  -1.643455301744e-04 
6 1 -2.025684593192e-04  -1.303048775310e-04  -2.170367668955e-05 
7 1  6.329242653259e-05   6.189882086534e-05  -2.017153791950e-04 
8 1 -6.305008733223e-05   3.801302594411e-05   5.810902143858e-05 
8
Step 3100
1 1  8.083445002245e-05   2.217881783054e-04  -4.847209212061e-05 
2 1  8.075953656839e-05   2.315044452614e-04  -1.858788062040e-05 
3 1  9.916068562428e-05  -1.211368164975e-04   7.453438566031e-06 
4 1  3.212828945901e-04  -1.871348159924e-04   7.370553278273e-05 
5 1 -1.324660801737e-04   2.767408906558e-04  -1.253213677255e-04 
6 1 -9.500807596863e-05   4.510843440503e-05  -1.061134714705e-04 
7 1 -8.576600637917e-05   1.128545686630e-04  -1.404939999221e-04 
8 1  2.728130894588e-05   1.635558605281e-04  -7.251971797852e-07 
8
Step 3200
1 1 -1.241736206592e-04  -4.187056684721e-05   8.220513764898e-05 
2 1  1.148122385519e-04   1.776676094984e-04  -4.710212596608e-05 
3 1  3.045634169634e-04   8.314571212084e-05  -9.602236791448e-06 
4 1 -5.444047616110e-05  -1.945259204338e-04   6.752924121445e-05 
5 1 -1.299098530309e-04   2.544706009846e-04  -9.956883310133e-05 
6 1 -2.203545301212e-05   2.680925296311e-05  -8.418193519797e-05 
7 1  1.261282913485e-04   3.292029325983e-05  -9.996093197689e-05 
8 1 -3.163666040230e-05   2.360803935708e-05  -6.639712309414e-05 
8
Step 3300
1 1 -1.507715213461e-04  -1.674518047181e-05   2.858037544631e-05 
2 1  2.588984151729e-04   1.763813847763e-04  -4.078350900833e-05 
3 1  1.079125136013e-04   2.226379097749e-04   5.531790442540e-05 
4 1  9.012786171075e-05  -8.387575452599e-05   3.190501462001e-05 
5 1 -1.343254936286e-04   9.945954665302e-05  -1.950298985153e-04 
6 1  8.260605806316e-05   7.501231474249e-05   7.584692606559e-05 
7 1  2.040118769922e-04   6.939771401664e-07  -1.366795437321e-04 
8 1 -1.908748525996e-04  -6.969045397902e-05   6.057847817057e-05 
8
Step 3400
1 1  5.440809980504e-06  -9.622745277586e-05  -2.080793017968e-04 
2 1  1.685808403395e-04   2.918679252147e-04   1.272365477840e-04 
3 1 -3.227046709741e-04   1.105584360878e-04   9.834822766878e-05 
4 1  1.201683744979e-04  -2.783589140027e-05   1.883041655148e-05 
5 1  1.001999884389e-04   3.225631984195e-05  -9.105375642160e-05 
6 1  1.638506142607e-04  -1.072752860157e-04   5.648858789484e-05 
7 1  8.156858123921e-05  -1.112515586563e-05  -2.720229465199e-05 
8 1 -3.265583991607e-04  -8.520432369850e-05   2.192540274928e-04 
8
Step 3500
1 1 -2.193606615998e-05   8.379270110689e-06  -1.292359401235e-04 
2 1  5.278858569394e-05   1.192188189183e-04   2.287871359492e-04 
3 1 -3.012259424293e-04   5.838551102669e-05   8.697390135391e-06 
4 1 -1.847589443212e-04   1.141012029381e-04   2.510581361522e-04 
5 1  1.308294911797e-04  -6.032029243256e-05   2.493999139149e-05 
6 1  1.256818210472e-05  -2.532920920271e-04   7.961791356509e-05 
7 1 -2.684244685888e-05   1.831124599946e-04  -2.096691253117e-05 
8 1 -1.974220583236e-04  -4.540921194097e-05   7.701893756692e-05 
8
Step 3600
1 1 -1.312103090736e-05   1.267844049914e-04   8.649222798424e-05 
2 1 -1.707321552049e-04   1.341428749882e-04   1.764275057670e-04 
3 1 -3.097646615964e-05  -9.215272822225e-05  -2.690675335391e-05 
4 1 -3.356512317703e-04   2.185680529865e-04   2.374234166451e-04 
5 1  5.141659735018e-05  -1.833042687898e-05   1.939880612765e-04 
6 1 -7.430723115589e-05  -1.969046468156e-04   1.663454332427e-04 
7 1 -8.365108111114e-05   2.278759933178e-04  -1.825646569182e-04 
8 1 -1.146355461744e-04   8.996824806035e-05  -1.107623114852e-04 
8
Step 3700
1 1  3.729510836788e-05   1.444752012966e-04   7.402812128592e-05 
2 1 -1.359416959800e-04   1.074343246786e-04   4.551280369217e-06 
3 1 -1.130601680140e-05  -7.318140845886e-05  -3.912934602816e-06 
4 1 -1.929849650297e-04   6.913921511398e-05   1.790147500466e-05 
5 1 -2.703150327771e-04  -1.410590634478e-04   2.784368358182e-05 
6 1 -2.332902749149e-05  -1.257193758507e-04   1.826614206160e-04 
7 1 -8.653651378933e-05   1.082152087685e-04  -5.663743089942e-05 
8 1 -1.375036648483e-04   1.676207850799e-04  -2.670128058524e-05 
8
Step 3800
1 1  1.554645412630e-04  -6.046369529055e-05   1.417329951411e-04 
2 1  2.176873011024e-05   8.064891430488e-05   3.286409631432e-05 
3 1  1.734143978278e-04  -2.038320169283e-04   3.715332897009e-05 
4 1  4.916015291014e-05   1.786000481771e-04   8.076904955629e-05 
5 1 -2.051542996770e-04  -2.334054652385e-04  -8.777474335003e-05 
6 1 -1.050064504243e-04  -3.925879517251e-05   5.430410628102e-05 
7 1 -4.027689150259e-05  -6.856935432360e-05   1.375874313385e-05 
8 1 -6.968367292852e-05   2.080817468228e-05  -1.945286578679e-04 
8
Step 3900
1 1  2.283625309111e-04  -3.318697182492e-04   1.191422193815e-04 
2 1 -9.613998885604e-05   5.562213079774e-05   1.817015001150e-04 
3 1  1.457268894043e-04  -7.092799202889e-05   2.910131940600e-05 
4 1  8.863407299406e-05   2.208569962983e-04  -2.978643675813e-05 
5 1 -5.830079925651e-05  -2.714617022877e-05  -2.046040676851e-04 
6 1 -1.061046250024e-04   3.194380464685e-05  -4.398358484839e-05 
7 1  4.025017191943e-05  -1.778470433043e-04   2.202481544092e-05 
8 1  1.303399808089e-04  -1.227438535852e-05  -3.176475607411e-04 
8
Step 4000
1 1  9.939356034525e-05  -1.340296581910e-04   4.775497466720e-05 
2 1 -4.731291091743e-05   3.667207480919e-05   1.724265246484e-04 
3 1  5.614276021004e-05   9.585048195707e-05  -1.717400625278e-05 
4 1  3.725044237148e-04   1.899823201004e-04  -1.339245126241e-04 
5 1 -2.772880397833e-05   6.187423970646e-05  -2.476396602322e-04 
6 1  1.156510174691e-05   7.177135690474e-05  -8.981085864194e-05 
7 1 -5.654774934866e-05  -1.709068859337e-04   6.747112438276e-05 
8 1  2.878523858646e-04   8.217975539016e-05   2.119234451972e-05 
8
Step 4100
1 1 -9.613822190577e-06   8.780138199741e-05  -6.464623342490e-05 
2 1  1.367458044862e-04   1.016825721210e-04  -2.790030642233e-05 
3 1  7.146613539880e-06   5.962999354371e-05  -5.248775449772e-05 
4 1  3.883695821794e-04   5.308712404912e-05  -1.524657613480e-04 
5 1 -1.038511310887e-04   7.908424332124e-05  -1.639767652234e-04 
6 1  7.513554322516e-05   9.794037289746e-05  -3.870915942235e-05 
7 1 -2.049082674290e-04  -2.238956087219e-04  -1.031377909843e-04 
8 1  1.852984668162e-04   1.751947539646e-04   1.477120760777e-04 
8
Step 4200
1 1  1.167815005001e-04   7.045753699572e-05  -3.063885361879e-04 
2 1  2.574952005330e-04   2.858001772820e-04  -9.211321281438e-05 
3 1  2.647079879097e-05  -4.639004091397e-05  -3.255861422029e-06 
4 1  2.743273475938e-04   9.911712774125e-06  -1.024855738642e-04 
5 1 -7.391189647529e-05   1.052942695224e-04  -7.591334411195e-05 
6 1  2.483294853402e-05  -1.015152146455e-04   1.093361891384e-04 
7 1 -2.155294060650e-04  -2.106446994455e-04  -2.649427445742e-05 
8 1 -3.212505722299e-05   6.883909600315e-05  -2.101449415663e-04 
8
Step 4300
1 1  2.622407134324e-04  -1.144927113514e-04  -3.278408941755e-04 
2 1  2.149913226027e-05   2.314511972702e-04  -7.361357658636e-05 
3 1  8.199491603238e-05  -3.602598113032e-05  -8.930344288158e-05 
4 1  7.681020977213e-05   3.381146480374e-05  -4.061908627522e-06 
5 1 -1.047169869936e-04   1.024569473337e-04   1.651864865415e-04 
6 1 -1.089213816238e-04  -1.210381867432e-04   2.023917884962e-04 
7 1 -5.906294430675e-05  -1.954221082239e-04   4.389058614654e-05 
8 1  4.062819357402e-05   1.329770381273e-05  -3.381745057286e-04 
8
Step 4400
1 1  1.763118207119e-04  -3.970353048616e-06  -2.548605175599e-04 
2 1  6.928974344268e-05  -9.418116960674e-06  -1.265136434208e-06 
3 1 -6.631634760056e-05  -4.508736323598e-05   1.422035664163e-04 
4 1  7.838974655725e-05   1.418380838903e-04   6.538196385543e-05 
5 1 -1.755206767013e-04   3.333031723902e-05   1.021917753910e-04 
6 1 -1.103066431017e-04  -2.288741988905e-04   1.591188506280e-04 
7 1  3.740879551362e-05  -1.301785444236e-04  -6.260662906019e-05 
8 1  1.084204281680e-04   1.470086365907e-04  -1.107096621265e-04 
8
Step 4500
1 1 -8.263503131155e-06   1.443551984948e-04  -5.440888775726e-05 
2 1  3.858511321209e-05  -7.952725869573e-05   3.378700008970e-06 
3 1  3.237134916093e-05  -1.817563148195e-05   2.721683272814e-04 
4 1  7.419819322621e-05  -4.796921265688e-05   8.369791909673e-05 
5 1 -2.544111123176e-04  -2.214921649917e-04   4.869238724191e-05 
6 1  5.430017210931e-05  -3.700760277781e-04  -5.862276995146e-05 
7 1 -4.306574108929e-05  -1.362467155049e-04  -1.226054287174e-04 
8 1  5.166944507811e-05   1.990089239515e-04   2.359805989871e-04 
8
Step 4600
1 1 -4.554527956167e-05   2.790253366600e-04   6.466551260949e-05 
2 1  1.528073564713e-04  -1.280564572807e-04  -1.918618898813e-04 
3 1  5.004730759010e-05   1.400926611556e-04   3.486156420195e-04 
4 1 -9.570531569897e-05  -3.036124029510e-05   7.249373140654e-05 
5 1 -3.432118572596e-04  -2.133267144912e-04   4.578629848070e-05 
6 1  2.013140440532e-04  -1.513475930517e-04  -2.022919104177e-04 
7 1  1.070494237980e-04  -1.556749070181e-04  -5.410172307688e-06 
8 1  1.126382612467e-05   7.519418171431e-05   2.008283789233e-04 
8
Step 4700
1 1  5.459270863618e-05   1.537146974207e-04   9.185883943491e-05 
2 1  2.623227464065e-05  -5.710736581206e-05  -2.253388095161e-04 
3 1 -4.274307378900e-05   1.885681963425e-04   1.296649409387e-04 
4 1 -9.518196688833e-05  -1.132697941087e-05   1.189917543468e-04 
5 1 -1.084228775025e-04  -1.230227431726e-04   2.222711246051e-04 
6 1  1.706820418894e-05  -1.867102147338e-04  -2.981094774955e-04 
7 1  1.880587752665e-04  -1.196924108086e-04   4.926577316755e-05 
8 1  6.724882320522e-05   1.186421098509e-04  -1.189112084913e-04 
8
Step 4800
1 1  1.734328941089e-05  -9.242852243442e-06   1.638403606194e-04 
2 1 -5.279819433074e-06   1.893963417439e-04  -1.221098042480e-04 
3 1  2.552373558950e-06  -1.266096991178e-04   3.719967055349e-05 
4 1 -1.019987520499e-04  -1.693277010051e-05   2.283530356583e-04 
5 1  9.248994243310e-05  -5.393433469687e-05   1.116732875871e-04 
6 1 -1.345000476145e-04  -1.934756005243e-04  -9.564167008596e-05 
7 1  1.269974205390e-04  -1.689800813613e-04   6.665161693741e-05 
8 1  6.905202186183e-05   2.890962650960e-04  -2.615489037193e-04 
8
Step 4900
1 1 -5.329564649016e-05   6.901531406555e-06   1.387639893415e-04 
2 1  5.653183877245e-05   3.629770077682e-04   6.171533692743e-05 
3 1  1.379277922974e-04  -4.583818121318e-04  -1.033636184947e-04 
4 1  2.970682757587e-05  -4.548633884616e-05   1.266737079747e-04 
5 1  3.650031559153e-05   7.206712852746e-05  -4.287814559823e-05 
6 1 -6.840537131600e-05  -7.425896668751e-05   3.514907806558e-05 
7 1 -3.240273482827e-05  -1.188314512517e-04   2.817481659689e-04 
8 1  1.146803515147e-04   2.218198171865e-04  -1.131876220880e-05 
8
Step 5000
1 1  3.731120766855e-05   4.613550800252e-06  -3.355274619687e-05 
2 1 -6.650606671173e-05   1.432095243630e-04   1.507755218575e-04 
3 1 -5.164307574408e-06  -4.138620206466e-04  -8.058493943373e-05 
4 1  8.145079297761e-05  -2.438034791904e-04   9.838504625784e-05 
5 1 -1.630467477692e-04  -3.933613933744e-05   2.327993267772e-07 
6 1 -8.777795250348e-05   2.843891237727e-04   6.153392080992e-05 
7 1  8.036756730258e-05   4.766852485363e-05   1.532486940441e-04 
8 1  3.529002698771e-05  -6.043729695706e-05   1.065900109746e-05 
8
Step 5100
1 1  2.887615657211e-04  -4.447347018894e-06   1.180674219901e-04 
2 1 -7.614669108791e-05  -4.755509726899e-05   7.114639882187e-05 
3 1 -4.278393068666e-06  -3.264504869208e-04  -1.347251103229e-04 
4 1  2.141591208256e-05  -2.531538117590e-04   2.087167747893e-04 
5 1 -1.925795214872e-04  -3.202135668953e-04   3.066026529494e-05 
6 1 -2.058200351597e-04   3.097827788549e-04  -1.616956243197e-04 
7 1  2.015939223198e-04   5.779624673344e-05   5.493630691006e-05 
8 1 -1.463782457934e-04  -9.901399754805e-05  -2.211378386735e-05 
8
Step 5200
1 1  2.757675435396e-04   2.055348442200e-04   2.259744547315e-04 
2 1  1.701937268635e-04  -1.382816081911e-04  -1.102550923252e-04 
3 1  2.723591249871e-05   2.158659642536e-05  -1.241410525406e-04 
4 1  7.515127435343e-05  -1.965593891424e-04   1.614941184882e-04 
5 1  2.576923648930e-05  -2.881267348935e-04   3.508933394933e-05 
6 1 -1.414141396397e-04   3.714713900082e-05  -1.304284716387e-04 
7 1 -1.037871761724e-04   1.874490512258e-05   1.218810284851e-04 
8 1 -1.391521529439e-04  -2.667432255563e-05   8.612594261981e-05 
8
Step 5300
1 1 -3.608097989721e-05   1.443268099550e-04   1.723847819414e-04 
2 1  2.380267195737e-04  -6.604791879765e-05  -2.257484489134e-04 
3 1  5.424870639759e-05   2.930461577754e-04  -1.390395697119e-04 
4 1  1.569515175186e-05  -6.676071719934e-05   5.695018300076e-05 
5 1  1.022091195367e-04   1.320002289163e-05   1.201934125054e-05 
6 1  1.022135930621e-04   7.721138892190e-06   2.035969707347e-04 
7 1 -2.968108263129e-04   3.968762592197e-05   1.760658414470e-04 
8 1 -3.583029978199e-05  -5.388577433931e-05   9.815068798638e-05 
8
Step 5400
1 1 -1.590614975368e-04   1.573066835873e-04   1.278318467990e-04 
2 1  1.028834100491e-04  -3.786687633487e-05  -1.394305768838e-04 
3 1  1.440509348136e-04   1.475099671981e-04  -1.549029419907e-04 
4 1  1.370366720493e-06  -5.484109833970e-05   9.012366151734e-05 
5 1 -7.864217586584e-05   1.436099226060e-04   5.245025571070e-05 
6 1  1.984133119372e-04  -3.429069978712e-05   1.435909602319e-04 