8
Step 0
1 1  0.000000000000e+00   0.000000000000e+00   0.000000000000e+00 
2 1  0.000000000000e+00   0.000000000000e+00   0.000000000000e+00 
3 1  0.000000000000e+00   0.000000000000e+00   0.000000000000e+00 
4 1  0.000000000000e+00   0.000000000000e+00   0.000000000000e+00 
5 1  0.000000000000e+00   0.000000000000e+00   0.000000000000e+00 
6 1  0.000000000000e+00   0.000000000000e+00   0.000000000000e+00 
7 1  0.000000000000e+00   0.000000000000e+00   0.000000000000e+00 
8 1  0.000000000000e+00   0.000000000000e+00   0.000000000000e+00 
8
Step 100
1 1 -2.227550252286e-03   1.328166012937e-03   9.141293395145e-04 
2 1 -8.484047730927e-04   1.471715867787e-03   1.301479240972e-03 
3 1  6.910212604829e-04   1.566462887829e-03   1.050578324536e-04 
4 1 -7.024015803428e-04  -8.120605224559e-04  -2.194910226915e-03 
5 1 -1.696910770308e-03   9.389677377279e-04   2.579634098559e-03 
6 1 -1.038666930497e-03  -1.254176159460e-03   4.763586864028e-04 
7 1 -2.274883333241e-03   1.576905674424e-03  -1.716409340839e-03 
8 1 -1.970672631969e-03  -1.977414895190e-03  -1.253348392841e-03 
8
Step 200
1 1 -4.448592292801e-04  -3.018181814270e-04  -7.849539653919e-04 
2 1 -1.075791363655e-04  -2.056107838073e-04   6.414787385794e-04 
3 1  4.018383661430e-04  -2.170486346073e-04  -7.021050282868e-05 
4 1 -5.913046155029e-05  -6.836045103115e-04   1.742584707204e-04 
5 1  7.850316464442e-05  -4.466038475891e-05  -6.619101374741e-04 
6 1 -5.988335149093e-04  -1.878693489171e-04   5.958613370423e-04 
7 1 -4.214494858053e-04   5.930422851532e-05   4.182776628552e-04 
8 1  7.151678081637e-05   6.578176449658e-04   1.906066986197e-04 
8
Step 300
1 1  4.447581967412e-04  -4.586464032965e-04  -1.003061760703e-03 
2 1  1.780825621752e-04  -5.452325379696e-04   2.820073315668e-04 
3 1  1.413060391826e-04  -6.220953016994e-04  -1.670938288523e-04 
4 1 -2.329920432480e-05  -5.657645475919e-04   8.872102777766e-04 
5 1  4.729918374192e-04  -2.378256566901e-04  -1.220499128878e-03 
6 1 -4.278761147012e-04   3.184819611466e-04   3.024175003742e-04 
7 1  3.532970424348e-04  -4.414835540646e-04   8.997199545602e-04 
8 1  5.889702141819e-04   1.098411521526e-03   3.495746006064e-04 
8
Step 400
1 1  3.887489109769e-04   1.889622304365e-04  -3.729397383727e-04 
2 1  1.119586195257e-04   7.847375451150e-05  -1.056094047525e-04 
3 1  3.122175642961e-05  -1.491649699116e-04  -1.549435375441e-04 
4 1 -2.583639126365e-04  -3.665929980615e-04   5.831987420782e-04 
5 1  2.133389145127e-04  -2.629378815299e-04  -4.408124915411e-04 
6 1 -5.494590947442e-04   2.346055153195e-04  -1.152492207082e-04 
7 1  1.264317399773e-04  -3.527812057719e-04   3.470402376293e-04 
8 1  2.921386909542e-05   3.406337978322e-04  -1.915377177071e-04 
8
Step 500
1 1  2.086761708869e-04   6.190417227965e-04   1.253215861609e-04 
2 1 -3.815739954992e-05   4.487886726766e-04  -2.494570800540e-04 
3 1  3.017876185656e-05   1.938427204281e-04  -1.939949105172e-04 
4 1 -3.411691376888e-04  -1.885988066863e-04   2.573472659974e-04 
5 1 -1.560684406609e-05  -7.632076743775e-05   2.828531458247e-04 
6 1 -5.392937427245e-04  -6.630367378113e-05  -2.834372796827e-04 
7 1  3.355284696449e-05  -1.716253549581e-05  -7.055933350298e-05 
8 1 -4.293845774986e-04  -3.647939521394e-04  -3.065310027646e-04 
8
Step 600
1 1  1.285837255366e-04   3.668932623776e-04   2.256438335725e-04 
2 1 -1.219701268140e-04   2.484432888708e-04   2.100087077603e-05 
3 1  1.792823619718e-04   3.349390988053e-04  -5.429130824055e-05 
4 1 -2.527642249386e-04  -6.759811481966e-05   2.742248257696e-05 
5 1 -1.752966960951e-04   2.728987113751e-04   3.677311075910e-04 
6 1 -3.623688277328e-04   8.037885624638e-05  -1.109103712516e-04 
7 1  3.745373916104e-05   1.159197491607e-04   4.720913826501e-05 
8 1 -1.215289543342e-04  -4.815034075702e-04  -4.666099843693e-05 
8
Step 700
1 1  1.339551881284e-04   1.431705979308e-04   7.773835354869e-05 
2 1 -1.835987876145e-04   2.608702213253e-04   2.618540592013e-04 
3 1  8.400196532645e-05   1.600816635766e-04  -4.879195019967e-05 
4 1 -6.018564674581e-05   1.465932739333e-04   1.566432001565e-05 
5 1 -1.753626112783e-04   1.796177574597e-04  -7.506189080551e-06 
6 1 -8.968358923292e-05   1.742131263472e-04   4.092656846242e-05 
7 1  2.191937511253e-04  -6.444540507907e-05   1.193765016857e-04 
8 1  1.612521432836e-04  -1.039558501836e-04   1.566672686642e-04 
8
Step 800
1 1  8.592089859946e-05   1.699362040921e-04   1.269421055096e-05 
2 1 -1.832032121090e-04   2.097501828248e-04   1.620968741556e-04 
3 1  8.730373547613e-05  -2.431034869972e-04   2.643678083753e-05 
4 1 -1.639336974208e-05   1.258684833229e-04   1.795278901987e-04 
5 1 -6.327436531337e-05  -8.836011844916e-05   4.564451632152e-05 
6 1  8.860405025548e-05   1.880700562508e-04   3.193600608620e-05 
7 1  2.218827525908e-04  -6.553548054377e-05  -1.583229740723e-05 
8 1  1.156334902229e-04   2.528381599155e-07   1.552861392231e-04 
8
Step 900
1 1  1.244626685697e-04   1.362481441994e-04  -9.139293898077e-05 
2 1 -1.768882621102e-04   3.262911849383e-05   2.336772742036e-05 
3 1  9.876750083448e-05  -2.069048289952e-04   1.313272034985e-04 
4 1 -1.931386437928e-04   9.912541663543e-05   2.973670715701e-04 
5 1  4.083080585841e-05  -1.215921103717e-04   2.026171467633e-04 
6 1  1.854980259088e-04   1.421337498693e-04  -1.220078091333e-04 
7 1 -5.702356611786e-05   1.494938034323e-04  -1.211096578444e-04 
8 1  5.060009705023e-05   1.378081396511e-06   7.081346923406e-05 
8
Step 1000
1 1  4.348968763631e-05   1.257307091368e-04   1.750679847659e-04 
2 1  7.531167789712e-05   5.748702413412e-05  -6.174635661296e-05 
3 1  1.500585580834e-04  -8.290233640427e-05   8.457113901603e-05 
4 1 -2.072983670040e-04  -2.858335380131e-05   2.267088791672e-04 
5 1  7.737337672793e-06   7.732413535253e-06   3.002999022897e-04 
6 1  9.550239166457e-06   8.402105191746e-06   1.517994957327e-04 
7 1 -2.351977756993e-04   3.191011833168e-04  -2.524803423192e-06 
8 1  3.393229394688e-05   5.491495037355e-07   7.394588840134e-05 
8
Step 1100
1 1 -1.241107437163e-04   2.116502272130e-04   3.450816988981e-05 
2 1  1.185162072808e-04  -7.804693680928e-05  -9.685006753703e-06 
3 1  1.167896014071e-04   8.377414299213e-06   4.345189739052e-05 
4 1  2.157803117998e-04  -4.605659245121e-05   4.418693189932e-05 
5 1 -1.219948993144e-04   1.718024513371e-04   1.861823908986e-04 
6 1 -1.015595391209e-04  -2.191748616655e-04   1.018422409387e-04 
7 1 -1.591977696733e-04   2.484716091852e-04   1.038531760135e-04 
8 1  1.452282178439e-04   1.145087080255e-04   9.600145182151e-05 
8
Step 1200
1 1 -2.390288483170e-04  -4.949204208993e-05  -1.265387658583e-04 
2 1 -2.312833957547e-05  -6.510525487754e-05   1.999085628006e-06 
3 1  1.700447918378e-04   1.689335175403e-04  -1.143947257005e-04 
4 1  4.003803050514e-04   1.944035521135e-05  -2.184870223111e-04 
5 1 -2.879042141679e-04   6.145915159018e-05  -9.745547960055e-06 
6 1 -3.266358473364e-04  -1.974770002411e-04   8.665868425410e-05 
7 1  6.139375547188e-05   4.933410033461e-05  -1.292701093479e-04 
8 1  1.274764552074e-04   1.019308561512e-05  -4.556072488625e-05 
8
Step 1300
1 1 -8.321348165614e-05  -1.471969617845e-04   2.140005909354e-05 
2 1  2.255928239821e-06  -3.864595860779e-05   1.021526494195e-05 
3 1  1.798656311823e-04   3.109682338928e-04  -1.410189896329e-04 
4 1  1.754613038527e-04   9.114317889139e-05  -1.827055782617e-04 
5 1 -2.621467662022e-04  -5.153502011127e-05  -3.809471669297e-04 
6 1 -3.310455604076e-04  -1.084926385979e-04   4.819665408937e-05 
7 1 -2.084211537410e-05  -1.233767635732e-04  -2.658040217733e-04 
8 1 -6.816878151452e-05  -4.586531303316e-05  -6.254694806664e-05 
8
Step 1400
1 1 -1.960443442591e-06  -2.887672067958e-04   1.579318526238e-04 
2 1  1.609604440067e-04   5.186574607217e-05   4.776057693137e-05 
3 1  2.509663387369e-04   1.749497067618e-04  -1.255049551026e-04 
4 1 -1.110944482604e-04   1.130043349130e-04   4.260041014050e-06 
5 1 -1.890459114655e-04  -1.296998677446e-04  -1.765681875454e-04 
6 1 -1.683780013881e-04  -2.277917883894e-05   9.330387114763e-05 
7 1 -7.856335105680e-05  -1.599995574533e-04   1.318421231888e-05 
8 1 -3.229847416371e-04  -1.431842709849e-05  -3.192024953126e-05 
8
Step 1500
1 1  1.933840968820e-04  -2.768774465772e-04   5.649885245651e-05 
2 1  1.579307460283e-04   1.112961201678e-04   6.746266249658e-05 
3 1  2.585037740395e-04   4.611475954334e-06  -2.232698324504e-04 
4 1  4.036800335794e-05   7.277686911082e-05   4.219720707454e-05 
5 1  1.864865201175e-04  -1.036334851851e-04   1.541493952665e-04 
6 1 -1.581857436222e-04  -6.547451251673e-05   2.996715806209e-05 
7 1  1.388969258812e-04   1.830833314005e-04   2.938580111030e-04 
8 1 -8.202660395287e-05   4.261245709249e-05  -3.876317331901e-05 
8
Step 1600
1 1  2.012236580906e-04  -3.992200962776e-04  -6.781303345801e-05 
2 1 -2.580673320677e-05   1.901232742642e-04  -2.481843952423e-05 
3 1  3.158763968960e-05  -2.239971816874e-04  -2.595817638571e-04 
4 1  1.906032233587e-04   2.356570175699e-04   4.182572417835e-05 
5 1  2.227679144347e-04   3.214938774709e-05   1.887319999765e-04 
6 1 -3.065767595272e-04  -2.281206179394e-04  -4.754347328758e-05 
7 1  1.170696218195e-04   1.532267185014e-04   3.801198146697e-04 
8 1  2.183430355363e-04   4.124244575158e-05  -6.378778067146e-05 
8
Step 1700
1 1 -1.168606183578e-04  -3.108909474000e-04  -1.990080043840e-04 
2 1 -2.154965702435e-04   1.297573530829e-04   2.561986698798e-04 
3 1 -6.473134630137e-05  -1.422220014476e-04  -1.173855192885e-04 
4 1  1.838830245190e-04   1.101306789585e-04   8.994309914327e-05 
5 1 -5.658807887761e-05  -8.199215588191e-05  -1.000600213691e-05 
6 1 -1.980484424627e-04  -1.161850784642e-04  -3.556800648827e-05 
7 1  7.336522962800e-05   5.974619889416e-06   9.202296845297e-05 
8 1  2.593188683552e-04  -1.316492313653e-04  -2.583511781466e-05 
8
Step 1800
1 1 -3.808553159538e-05  -1.977808767922e-04  -8.329093540437e-05 
2 1 -7.980983633256e-05   2.631093906093e-05   1.311766410834e-04 
3 1 -3.542365319741e-05  -2.866249122047e-05  -2.584560467649e-04 
4 1  2.647764420382e-04  -1.857581624375e-04  -2.962438824938e-05 
5 1 -2.867425097921e-05  -2.963582752819e-04  -8.918300918638e-05 
6 1 -7.758730841866e-05   1.204028184032e-04  -9.487974684612e-05 
7 1 -6.516410927417e-05  -6.161481204091e-05  -2.692306171486e-04 
8 1  1.627014621601e-04  -1.508699517491e-04  -3.380065867119e-05 
8
Step 1900
1 1  3.174410320757e-05  -1.526618308387e-04  -2.163844967175e-06 
2 1 -4.994987512811e-05  -2.607600147742e-05  -3.526032814822e-05 
3 1 -4.332135550440e-05  -2.986067394250e-05  -9.027393941153e-06 
4 1  7.972292625431e-05  -9.286746630286e-05  -1.374907122324e-05 
5 1  5.795171711720e-05  -2.307789071785e-04  -9.445557467853e-05 
6 1 -4.666998360969e-05  -2.404345037232e-05  -2.757502839985e-04 
7 1 -2.004298800911e-04  -2.668877815755e-04  -2.944239868837e-04 
8 1 -1.412122562680e-04  -1.784487105615e-04  -4.121434312813e-05 
8
Step 2000
1 1  3.000826495137e-05  -2.423228222187e-04   1.796817309903e-05 
2 1 -1.546672467454e-04  -4.427191143573e-05  -2.500161025931e-04 
3 1  7.040718934397e-05   3.005727742623e-05   4.810898602858e-05 
4 1  1.216548348676e-04   2.315901765378e-04   7.340703006175e-05 
5 1  5.981876473767e-05  -7.432447190682e-05  -2.422094885854e-05 
6 1  1.462004135741e-04  -8.027282931443e-05  -8.946099007131e-06 
7 1 -8.125594981711e-05  -2.341448438192e-04  -1.515891175494e-04 
8 1 -1.195542447254e-04   2.224438761748e-06  -4.183631896461e-05 
8
Step 2100
1 1  4.968442072597e-05  -2.468416913973e-04  -3.821254906425e-05 
2 1 -3.838197409541e-05  -4.449724490438e-05  -2.185518847191e-04 
3 1 -6.312879859118e-05   2.493468492633e-05   2.749421113597e-05 
4 1  8.844071504969e-05   3.359252508358e-04   2.002368559443e-04 
5 1 -8.484899533264e-05   7.733778667190e-05   1.946205867540e-04 
6 1  2.128039772443e-04   1.452407882647e-05  -1.377217881953e-05 
7 1 -7.346427014613e-05   5.273808006102e-05  -1.012072826919e-04 
8 1  6.755864875908e-05   9.045229906651e-05   2.497872286697e-05 
8
Step 2200
1 1 -2.786603435132e-05  -5.204908338145e-05   3.165185095422e-05 
2 1 -5.538294428055e-05  -9.545448654347e-05  -3.328389462370e-05 
3 1 -2.249931876362e-04  -8.443974090282e-06  -1.498468918949e-04 
4 1  2.063923455691e-05   1.793763556997e-04   6.717369636240e-05 
5 1 -6.303106393235e-05   2.285890564102e-04   4.675188701652e-05 
6 1  1.688980770701e-04   2.715430362636e-04  -1.020856893217e-04 
7 1 -1.621581033563e-04   3.206597817935e-05   5.316674479368e-05 
8 1  1.132538801504e-04  -6.927627376226e-05   1.613961645477e-04 
8
Step 2300
1 1  4.704757974185e-05   3.026699237783e-07  -1.157236462315e-05 
2 1 -1.479316946760e-04  -1.105002754287e-05   9.213520308010e-05 
3 1 -1.154252665652e-04   1.325283126446e-05  -2.096576401272e-04 
4 1 -9.398697577028e-05   2.417442158728e-05  -1.363783140537e-04 
5 1 -1.962554574822e-04   1.320115039769e-04  -1.973612375423e-04 
6 1  4.085924248349e-05   4.482806368698e-04  -1.559224490620e-04 
7 1 -2.682330135540e-04  -2.406259050962e-04   1.214643282739e-04 
8 1  1.327012032239e-04  -7.824167049736e-05   2.003021640334e-04 
8
Step 2400
1 1  1.634883706713e-04  -1.033564174738e-05  -1.448938535274e-04 
2 1 -1.368442446535e-04   9.587958221222e-07  -2.888590729300e-05 
3 1  1.763248400396e-04   3.036123096797e-05   2.233113970602e-05 
4 1 -1.643045145712e-04  -1.090386017698e-04  -4.829178624153e-05 
5 1 -1.723020922483e-04   2.755556594109e-05  -9.769749071921e-05 
6 1  1.357820993401e-04   4.198408160152e-04  -5.842174624966e-05 
7 1 -1.226407738418e-04  -2.259563854638e-04   1.283801363673e-05 
8 1  9.722655247016e-05  -1.177454964180e-04  -1.045586625543e-04 
8
Step 2500
1 1  2.706710846730e-05  -2.279951009168e-04  -2.242532476905e-04 
2 1 -1.284950984594e-04   9.418062999296e-05  -1.381656049807e-04 
3 1  2.865465475641e-04   4.665668049656e-05   3.794309370129e-04 
4 1 -1.938125463409e-04  -1.068750800434e-04   5.313279654589e-05 
5 1  7.711275606900e-05  -5.498954809807e-05  -3.004000850990e-04 
6 1  2.390328512755e-04   1.749003345660e-04  -5.859922616677e-05 
7 1  2.243926680786e-05   3.634158771556e-05  -1.417485959594e-04 
8 1 -4.680683734941e-05  -1.144274294565e-04  -1.505779270491e-04 
8
Step 2600
1 1  9.646847072013e-06  -2.480839040346e-04  -7.545948799850e-05 
2 1 -2.131935288943e-04   3.540512904348e-04  -1.350063397202e-04 
3 1  3.286710303172e-05   2.360930391944e-05   3.814295176113e-04 
4 1 -1.978604282074e-05  -2.303713230194e-04  -1.042539345755e-06 
5 1  8.274179729542e-05  -6.918732681667e-05  -2.835525177336e-04 
6 1  2.097687411061e-04  -3.419993877953e-05  -1.166234085882e-05 
7 1 -4.227996102324e-05   9.867845207744e-05   4.796599308998e-05 
8 1 -1.390129213530e-04  -1.487722303209e-04   1.949908043374e-07 
8
Step 2700
1 1  8.271707402904e-05  -2.274557817066e-04   1.070302363993e-04 
2 1 -1.725511618133e-04   5.221056695073e-04  -1.661209832797e-04 
3 1 -2.480842876178e-04  -1.818473276458e-04   8.267540799400e-05 
4 1  8.192300649925e-05  -1.391407039493e-04   5.863808471928e-05 
5 1 -5.389512766733e-05  -6.499818418346e-05   8.065735397956e-05 
6 1  4.755010850813e-05  -8.074070716730e-05   2.508857219333e-04 
7 1 -1.022124289373e-04  -1.122225123999e-04   1.797647873547e-04 
8 1 -1.841618799504e-04   8.065332834600e-05   2.136316894591e-05 
8
Step 2800
1 1  8.738940420654e-05  -1.300335413770e-04   2.205926141948e-04 
2 1 -2.163345196164e-05   3.257024052848e-04  -1.652206836269e-04 
3 1 -2.322194233372e-04  -3.568596895716e-05  -1.187280388203e-04 
4 1  1.122522214960e-04  -1.706212820175e-04  -4.923560363337e-06 
5 1 -7.415863614796e-05  -1.345222234917e-04   2.358907539090e-04 
6 1 -2.017513938977e-05  -7.600821546416e-06   3.477572690006e-04 
7 1 -1.547486219355e-04  -2.413222519807e-04   2.086901101746e-04 
8 1 -4.940601244613e-05   1.738475572396e-04   1.568781533699e-05 
8
Step 2900
1 1 -9.352858180826e-05  -7.082648397405e-05   7.284373472640e-05 
2 1  1.859085116956e-04  -1.935883103227e-05  -2.655180269038e-04 
3 1  1.770881865066e-04   2.772467645165e-05  -6.945156424496e-05 
4 1  1.531343196436e-04  -1.026806071737e-04  -5.326513907159e-05 
5 1 -6.612038343455e-05  -7.782998689854e-05   1.714924054107e-04 
6 1  2.346244714395e-04   9.058379917557e-05   3.141802030256e-04 
7 1 -1.133102723240e-04  -1.746913267271e-04   2.341614205839e-04 
8 1 -3.092362405812e-04   1.232553294576e-05  -9.642613447279e-06 
8
Step 3000
1 1 -3.336532908548e-04  -7.134623426555e-05   1.581550619304e-05 
2 1  2.023054050761e-04  -7.290130944162e-05  -1.612462209056e-04 
3 1  2.333841756485e-04  -5.475712374273e-05   9.016124438551e-05 
4 1  2.270321904707e-04  -1.047736479546e-04  -1.051700593379e-05 
5 1  1.175390187739e-04   7.425703700775e-05  -1.051641440738e-05 
6 1  2.011658916721e-04   1.242955066794e-04  -1.448560862374e-05 
7 1 -1.856308104640e-04  -1.140240561910e-04   1.328840857639e-04 
8 1 -2.899403200662e-04  -1.829578370289e-04   8.908513841294e-05 
8
Step 3100
1 1 -3.189518082479e-04   9.972269402991e-05   1.154345133965e-04 
2 1  1.239922671829e-04  -1.003384733773e-04  -3.657797995215e-05 
3 1  2.265876732901e-04  -4.845013389912e-06  -1.436321558134e-04 
4 1  7.530515702637e-05  -1.646016329212e-04  -2.083545238361e-04 
5 1  1.647306624751e-04   1.428848141198e-04  -1.813278751126e-04 
6 1  2.512552016837e-04   1.197745368942e-04  -1.821158504296e-04 
7 1  5.103509973279e-05   1.055161682597e-04   6.418541539520e-05 
8 1 -1.049352678682e-04  -2.498097559753e-04   1.482320599251e-04 
8
Step 3200
1 1 -1.206471629019e-04   1.006805325379e-04   2.183508083137e-04 
2 1  2.023538825411e-05  -1.311138032723e-04  -1.816287585149e-04 
3 1  1.664992294530e-04   9.998435659756e-05  -2.670400627661e-04 
4 1  5.905309247028e-05  -9.406218288871e-06  -2.295094525110e-04 
5 1  2.830613695372e-05   8.544068309301e-07  -1.312852809933e-04 
6 1  1.921625143415e-04   2.151174234630e-04   4.942651323687e-05 
7 1  1.321499848997e-04   4.694914421209e-05   7.301946007211e-05 
8 1 -4.039763382489e-05  -2.342475074379e-05   1.107804670806e-04 
8
Step 3300
1 1  5.047351862368e-05  -5.676605986001e-05  -3.624348261664e-05 
2 1 -4.006372153187e-05  -1.706549806823e-04  -1.524743846641e-04 
3 1  1.911411065439e-04   2.228980664104e-04   3.471386769023e-05 
4 1  1.020521171969e-04   3.620916082205e-06  -1.238558801268e-04 
5 1 -1.117678435533e-04  -5.427092140292e-05  -7.005573846958e-05 
6 1 -3.271409435985e-05   2.702700076423e-04  -1.981235790429e-05 
7 1  2.016000334600e-04  -9.960298042759e-05   1.032664757827e-04 
8 1  8.350070177312e-05  -1.739488916347e-06   1.656963464296e-04 
8
Step 3400
1 1 -1.687423708525e-07  -1.933087620875e-04   6.118554037102e-06 
2 1  5.244600661128e-05  -1.297353539854e-05   8.885429631127e-05 
3 1  2.312031247323e-04   1.689703186820e-04   2.687802006074e-04 
4 1  1.556464242789e-04  -1.377504751328e-04  -3.830186987723e-05 
5 1 -3.972930374381e-05  -4.516482291942e-05   1.605037757291e-04 
6 1  1.114861947052e-05   9.740755279320e-05  -2.762221281864e-04 
7 1 -9.902952143283e-05  -1.541944541683e-04   7.677937670788e-05 
8 1  2.338878776881e-04  -1.785239591300e-04   1.395153283365e-04 
8
Step 3500
1 1 -2.302547819465e-04  -1.907204635023e-04   1.293333882923e-04 
2 1  1.995423456047e-04   9.872078520166e-05   1.599629692737e-04 
3 1  1.521646276461e-04   4.467891085560e-05   1.557815582197e-04 
4 1 -3.980890500742e-05  -2.609035220986e-04   1.232011785336e-04 
5 1  4.966637310299e-05  -2.291573364663e-05   1.979543529954e-04 
6 1  1.561206554051e-04   1.044396068831e-04  -1.127193486272e-04 
7 1 -4.736656932883e-04  -3.533991873675e-04   4.973729638332e-05 
8 1  2.615113864304e-04  -3.648965229256e-04   1.610492575979e-04 
8
Step 3600
1 1 -1.507812647240e-04  -1.307625967870e-04   2.986672737885e-06 
2 1  1.544116783475e-04   1.069241781833e-04   1.428900030792e-04 
3 1 -4.859794712071e-05  -2.926326970384e-05  -1.220099238486e-05 
4 1 -2.485838104431e-04  -2.357938560300e-04   8.118693625691e-05 
5 1 -9.266156190245e-05  -6.828103878756e-05   1.256738066492e-04 
6 1  1.426235219801e-04   1.335095314268e-04  -2.366871505532e-04 
7 1 -3.479596752788e-04  -2.148404837003e-04   4.642903320923e-05 
8 1  1.746647520534e-04  -2.891145478869e-04   1.124929660563e-04 
8
Step 3700
1 1  9.314321349770e-05   1.556303054089e-04   4.995286203808e-05 
2 1 -1.872860701271e-05   6.287349543794e-05  -3.695548462151e-05 
3 1 -1.850840352338e-04   6.840291564047e-06  -9.362943845593e-06 
4 1 -3.927344691987e-04  -5.046934698125e-05  -1.504225943446e-04 
5 1 -1.797223341649e-04  -5.299058042871e-05  -1.264470764096e-04 
6 1  2.393821144274e-05  -6.105123288986e-06  -1.294525812755e-04 
7 1  1.173127888878e-05  -1.993796683102e-05   1.456193465558e-04 
8 1  7.249961500653e-05  -6.848147995891e-06   6.355374493680e-05 
8
Step 3800
1 1  1.531827735625e-04   1.110294928590e-04   1.960217525168e-04 
2 1 -1.203164976612e-04  -1.004263357522e-05  -1.626220933873e-04 
3 1 -7.704718063076e-05   1.698379554053e-04   9.131027692176e-06 
4 1 -1.927940150889e-04   1.121866125257e-04  -1.527056260547e-04 
5 1 -5.789623597982e-05   1.358272097212e-04  -2.674013336212e-04 
6 1 -6.405826107630e-05   4.270011817430e-05  -3.846497343133e-05 
7 1  1.205388060273e-04   3.598412559963e-05  -1.524131763811e-06 
8 1  9.079305652303e-05   2.769061720371e-04  -2.396747922477e-04 
8
Step 3900
1 1 -2.486880039658e-05   1.583067711590e-04   1.455132053122e-05 
2 1 -9.220411062323e-05  -7.197565733388e-05   4.381863590100e-05 
3 1 -3.625218015014e-05   1.328624244679e-04  -3.580872548362e-05 
4 1  4.447047035225e-05   2.010083547008e-04  -7.988446195603e-05 
5 1  1.525382061175e-06  -1.771472653819e-05  -2.474316412862e-04 
6 1 -2.326490244156e-04   4.740005710950e-06  -8.656854076649e-05 
7 1  5.901209789154e-05   9.815012366500e-05   3.180679502645e-05 
8 1  1.058670030167e-04   2.728887196297e-04  -3.011892727880e-04 
8
Step 4000
1 1  1.267732207313e-04   1.925076066473e-04  -4.884172835980e-06 
2 1 -2.635542447382e-05  -5.402177514481e-05   1.133425082398e-04 
3 1 -1.599858236543e-04   1.753391711148e-04   5.962792116941e-05 
4 1  2.030266567001e-04   1.342826297348e-04   1.495400807977e-04 
5 1 -9.046624276358e-05   4.253333925702e-05  -1.097160579311e-04 
6 1 -8.800397991861e-05   2.239515365740e-04   1.867389427617e-04 
7 1  4.764637802084e-05   6.798935588603e-05  -7.318282374213e-06 
8 1  1.039651710571e-04  -8.845159832824e-06   4.120288451023e-05 
8
Step 4100
1 1  2.016201058429e-04   2.207560298958e-04   1.337864123288e-04 
2 1 -9.024421593026e-05   1.884253269429e-04   4.578538371312e-05 
3 1  3.172320737485e-05   5.964493865136e-05   1.627991136148e-04 
4 1  1.400198320943e-04  -9.839159552538e-05   1.559202389680e-04 
5 1 -1.777411429744e-04  -5.064178835356e-05  -2.911813273415e-05 
6 1  3.021630353041e-04   1.361426021706e-04   2.188553533024e-04 
7 1  1.864915479967e-04   6.229335591945e-05  -1.425198988420e-04 
8 1  9.784189818668e-05  -2.263354771951e-04   1.542626297428e-04 
8
Step 4200
1 1  1.345507652178e-04   1.096061275663e-04   3.812493257604e-05 
2 1 -2.514251012925e-04  -7.455232149862e-05   6.064630651186e-05 
3 1  1.146698867340e-04  -1.247880839479e-04   2.103651590407e-04 
4 1 -7.101892966033e-05  -2.193125347312e-04   1.114267923216e-04 
5 1 -1.729878992903e-04   2.772232096014e-05  -1.019794746615e-04 
6 1  3.501588157979e-04   2.979206705969e-05   2.819041134652e-05 
7 1 -2.205559747285e-06  -1.797892548767e-05  -1.215720386131e-04 
8 1 -1.704001057813e-04  -2.477979146067e-04   7.558544950789e-05 
8
Step 4300
1 1  2.208795093740e-04  -1.463152823176e-04  -9.122540795076e-05 
2 1 -8.945858714884e-05  -3.207602080311e-04   1.075492134886e-04 
3 1  2.382744172970e-04  -7.577875449991e-05   3.120094103209e-05 
4 1 -1.720119792630e-04  -9.465479564686e-05   5.948579504574e-05 
5 1 -2.243287349587e-04   4.604191811684e-05  -1.905446250561e-04 
6 1  1.332120220637e-04  -1.006644051433e-04   2.776609555129e-05 
7 1 -3.071425520289e-05  -1.650594816625e-04   1.456182411791e-04 
8 1 -1.861886241932e-04   2.704353804396e-05   5.997078926038e-05 
8
Step 4400
1 1 -7.497427090037e-05  -5.983878959392e-06  -1.226799491166e-04 
2 1  2.197851439878e-04  -3.037123236554e-04   6.978803759319e-05 
3 1  1.523285833420e-04  -4.762775545345e-05  -2.618064980569e-04 
4 1 -1.502410185909e-04   7.097859075232e-05  -1.187720886498e-05 
5 1  3.512249740478e-05  -7.481518862571e-05  -2.079550383721e-04 
6 1 -1.653471106895e-04  -1.526749340513e-04   5.880451464846e-05 
7 1  1.244022570091e-04  -2.423540326857e-04   3.502211589306e-04 
8 1  5.442911683080e-05   1.657389248763e-04   1.880550993063e-04 
8
Step 4500
1 1 -5.802417394962e-05   2.178830668853e-04  -5.003915324955e-05 
2 1  2.618957887946e-04   2.389957611658e-05  -7.981431929135e-05 
3 1  9.783588714761e-05  -1.698878211520e-04  -4.905037680546e-04 
4 1 -7.112809345250e-05  -9.863682824246e-05  -1.056490161012e-04 
5 1  2.525853126202e-04  -1.040762447474e-04  -2.787237350049e-04 
6 1 -2.709399144618e-04  -1.441611413537e-04   1.362299433288e-04 
7 1  4.442864941531e-05  -7.832084108532e-06   1.353105390511e-04 
8 1  1.731087461237e-04   7.356847159544e-05   1.592825320398e-04 
8
Step 4600
1 1  3.524039479312e-05   1.228070888848e-04  -3.403517153331e-05 
2 1  7.214630104184e-05   1.470075860374e-04  -3.126118879553e-04 
3 1  2.460064549717e-04  -1.259259494373e-04  -2.821431673184e-04 
4 1  3.808112638224e-05  -5.227249363924e-05  -6.128780308321e-05 
5 1  2.695330925686e-04  -5.563706172117e-05  -1.870854611591e-04 
6 1 -1.976049357523e-04  -1.913235938014e-04   3.056069946110e-05 
7 1 -1.840247909050e-04   1.439378748037e-04   1.071606245886e-04 
8 1  1.333721144778e-04  -3.187535494007e-05   9.468742328763e-05 
8
Step 4700
1 1  7.127939218969e-05  -1.415266484063e-04   9.600797998378e-05 
2 1  6.438326770629e-05   7.306262047149e-05  -2.547203770612e-04 
3 1  1.852207354596e-04  -2.129176174058e-05   7.234957097862e-05 
4 1 -8.318588488558e-05   1.458249383529e-04  -9.841158218066e-05 
5 1  1.267769576933e-04  -5.043722846537e-05   8.297866354811e-05 
6 1 -2.974512467487e-05  -1.807357484050e-04   3.648771411419e-06 
7 1 -2.534205497748e-04   9.522366228311e-05  -1.595587804711e-04 
8 1  8.950919455208e-05   1.509849171813e-05   3.897715150485e-05 
8
Step 4800
1 1  1.878801899763e-05  -1.662315288337e-04   2.145323884515e-04 
2 1 -1.497554866508e-05  -1.624451313252e-04  -1.498287265369e-04 
3 1  1.007889402386e-04   7.819645119501e-05   1.343663939925e-04 
4 1  4.072573730943e-05   5.734529802500e-05  -1.100590827337e-04 
5 1  2.343965587709e-04  -1.496331259290e-04   2.610010320252e-04 
6 1  1.353814446885e-04  -9.622858537707e-05   7.786165620108e-05 
7 1 -1.547033423270e-04  -1.469001114424e-04  -4.837216222528e-04 
8 1  9.559492150829e-05   8.679658252752e-05   9.592820041297e-05 
8
Step 4900
1 1  8.995876570343e-05  -8.370066991235e-05   1.534474693734e-05 
2 1  3.211442311352e-05  -2.832393990236e-04  -9.008451885186e-05 
3 1  1.165565630788e-04   1.774602701557e-04   1.304270953203e-04 
4 1 -5.110513300685e-06  -2.678864738257e-04  -6.889614978206e-05 
5 1 -1.793027403041e-05  -2.881743359178e-05   2.352125204134e-05 
6 1  2.494653666769e-04  -4.138479723397e-05   2.642913200257e-04 
7 1 -4.759546739819e-05  -3.019976280296e-04  -3.654557946989e-04 
8 1  2.000817296431e-04   6.742012894367e-05   2.047980492792e-04 
8
Step 5000
1 1  1.790551208433e-04   2.016021656771e-05  -7.363730789388e-05 
2 1  3.495463185869e-05  -1.847038140328e-04  -6.316370215626e-05 
3 1  5.851040379763e-05   1.198736477990e-04   1.502078180010e-04 
4 1 -3.989592045058e-05  -2.625662932935e-04   7.325347779833e-05 
5 1 -1.245537585844e-04  -7.810991906782e-05  -1.949524582924e-04 
6 1  1.685904654508e-04  -3.641844070140e-05  -2.452766053347e-05 
7 1 -2.554243560160e-05  -1.942019054509e-04  -1.593343723436e-04 
8 1  2.613990671596e-04   7.654123652580e-05   2.580341737451e-04 
8
Step 5100
1 1  2.795559498530e-04   1.511405496865e-04  -1.373148758892e-04 
2 1 -1.137458787426e-04   7.905096472014e-05  -1.067740897236e-04 
3 1  9.073544575215e-05   8.699827068213e-05  -2.456569460106e-05 
4 1 -4.896450496780e-05   4.038748209151e-05   4.054897206015e-05 
5 1 -1.356735654812e-04  -2.050491539248e-04  -1.844301858634e-04 
6 1  9.998701952459e-06   4.276428443802e-05  -3.472949998511e-04 
7 1  2.161680686849e-05  -2.686730583172e-05   1.603662626948e-04 
8 1  7.450519969740e-05  -1.774936630026e-05   1.589219898045e-04 
8
Step 5200
1 1  7.519165107099e-06   1.205574305506e-04  -8.268894503243e-05 
2 1  3.623144266772e-05   5.768356392097e-05   3.767136014651e-05 
3 1  2.147403503115e-04   9.034558465128e-05  -1.879540839891e-04 
4 1 -7.859446349839e-05   1.041192735664e-04   5.056815494769e-05 
5 1 -1.335648608738e-04  -1.122569944333e-04   7.835716639971e-06 
6 1 -9.180602133804e-05   9.597908987937e-05  -3.465868742625e-04 
7 1  1.458033814168e-05   1.532212854356e-05   9.997718889176e-05 
8 1  4.560307334307e-05  -1.924499277179e-04   1.302569856709e-04 
8
Step 5300
1 1 -2.101800531530e-04  -8.080973121063e-05  -1.948630141543e-04 
2 1  5.259216893398e-05   3.562179937406e-05   1.125706138950e-04 
3 1  1.477458323016e-04  -3.082346092950e-05  -1.686633364552e-04 
4 1 -7.201062345200e-05  -5.610043545918e-05  -1.193509962666e-04 
5 1 -2.202835744513e-05   8.944529660482e-05   1.311961963905e-04 
6 1  7.131946414984e-05  -1.224814793933e-04  -5.331370331571e-05 
7 1 -5.976244122111e-05   5.869758550864e-05  -1.756528513899e-04 
8 1  6.695531280275e-05  -8.976591692936e-05   3.334079217999e-05 
8
Step 5400
1 1 -1.515505505575e-04  -1.239257913365e-04  -2.964001911109e-04 
2 1 -4.049639111521e-05   2.267015238945e-05   3.627255952652e-05 
3 1  1.669130732831e-04  -7.557840460497e-06   5.653368512107e-06 
4 1 -1.133961583907e-04  -1.055670099465e-04  -1.520447878188e-05 
5 1 -2.905982256943e-05   2.265021718228e-04   7.263371409457e-05 
6 1  1.643272148967e-04  -2.918631565919e-04   1.139830026617e-04 