8
Step 0
1 1  0.000000000000e+00   0.000000000000e+00   0.000000000000e+00 
2 1  0.000000000000e+00   0.000000000000e+00   0.000000000000e+00 
3 1  0.000000000000e+00   0.000000000000e+00   0.000000000000e+00 
4 1  0.000000000000e+00   0.000000000000e+00   0.000000000000e+00 
5 1  0.000000000000e+00   0.000000000000e+00   0.000000000000e+00 
6 1  0.000000000000e+00   0.000000000000e+00   0.000000000000e+00 
7 1  0.000000000000e+00   0.000000000000e+00   0.000000000000e+00 
8 1  0.000000000000e+00   0.000000000000e+00   0.000000000000e+00 
8
Step 100
1 1  6.790608195289e-04   3.169382627566e-05  -9.036161365743e-04 
2 1  1.924637408716e-04  -1.457372359972e-03   6.407731153181e-04 
3 1  1.286016067849e-03  -3.368794345109e-04  -7.897941812492e-04 
4 1 -8.068906183630e-04  -9.636557378561e-04   8.907190095982e-04 
5 1  1.909666180356e-04  -5.737620199682e-04  -1.073177798596e-03 
6 1 -9.757126403970e-04  -1.125224441947e-03   3.721510048891e-04 
7 1 -2.085199017598e-04  -5.390506185331e-04   7.029025516845e-04 
8 1 -6.183669334474e-04   8.446953602910e-04  -1.035411994487e-03 
8
Step 200
1 1  4.193907972325e-04   3.648843672683e-05  -6.275245362993e-04 
2 1  6.841006393874e-05  -7.782739379767e-04   2.502225689874e-04 
3 1  7.336122821815e-04  -1.416298638730e-04  -4.779156974627e-04 
4 1 -5.377156689043e-04  -5.944414044407e-04   6.703304154325e-04 
5 1  2.177710628552e-05  -3.582063522049e-04  -5.975412565922e-04 
6 1 -6.633638046171e-04  -6.650480415651e-04   2.422541866993e-04 
7 1 -2.561579153738e-05  -3.002005284381e-04   6.254284912237e-04 
8 1 -4.320913003823e-04   6.306296660987e-04  -7.768901259002e-04 
8
Step 300
1 1  2.001438691624e-04   4.531181484300e-05  -3.275697952836e-04 
2 1 -1.899875020264e-05  -1.963281793856e-04  -5.424054243830e-05 
3 1  2.830207714025e-04   6.092658804507e-05  -1.982179786138e-04 
4 1 -2.683553305689e-04  -2.657498045680e-04   4.709614016334e-04 
5 1 -7.500443691288e-05  -1.982435503416e-04  -2.124181581094e-04 
6 1 -3.997933715264e-04  -2.777440008499e-04   1.628002277756e-04 
7 1  1.347348683927e-04  -1.078988521782e-04   4.384804267885e-04 
8 1 -2.974017173697e-04   4.292839212155e-04  -5.121174706087e-04 
8
Step 400
1 1  5.344554325654e-05   8.817378321080e-05  -1.507689487057e-04 
2 1 -4.189621210712e-05   7.127912065291e-05  -1.431403146795e-04 
3 1  5.110731064346e-06   1.686884735991e-04   1.008250733251e-05 
4 1 -1.134729486587e-04  -5.303772865579e-05   3.440927905311e-04 
5 1 -1.187926770903e-04  -8.980453794259e-05   1.997171896147e-05 
6 1 -1.841789416148e-04  -6.609597373565e-05   1.509554082993e-04 
7 1  2.706219249818e-04   2.559864708136e-05   2.987281611146e-04 
8 1 -2.023783385342e-04   2.443477097977e-04  -3.338076391503e-04 
8
Step 500
1 1 -1.262732336295e-05   9.166606550118e-05  -9.685542566747e-05 
2 1 -8.018457144364e-05   9.829224395622e-05  -1.008456708525e-04 
3 1 -1.485496973095e-04   1.520057446086e-04   9.091507033590e-05 
4 1 -4.795698516543e-05   3.826677785938e-05   2.607909338263e-04 
5 1 -1.967038655134e-04  -2.487940655240e-05   1.044415127451e-04 
6 1 -6.646926444614e-05   2.182233816557e-05   1.390700961751e-04 
7 1  2.710510495910e-04   9.035154434924e-05   1.572321930418e-04 
8 1 -1.161006322878e-04   1.174516900982e-04  -1.776907948343e-04 
8
Step 600
1 1 -1.448504746639e-05   5.665183214049e-05  -1.048123939526e-04 
2 1 -1.166931526986e-04   5.355332690193e-05  -4.807203070208e-05 
3 1 -1.834419966865e-04   9.784677816271e-05   1.318564705467e-04 
4 1 -1.264320532841e-05   7.920107061388e-05   1.971446591456e-04 
5 1 -2.430510559439e-04  -6.131363675192e-05   1.399392133415e-04 
6 1  1.691841823292e-05   3.364173586559e-05   7.359203274472e-05 
7 1  2.326459920962e-04   4.909353715394e-05   5.520196747115e-05 
8 1 -6.201292627433e-05   9.852458123343e-05  -1.074003464462e-04 
8
Step 700
1 1 -7.846327779198e-07   4.499010321372e-05  -4.287151022120e-05 
2 1 -9.549957720700e-05   2.620302146446e-05  -3.522731450093e-05 
3 1 -9.368121981533e-05   5.341703374179e-05   1.187969526972e-04 
4 1  1.413967004851e-05   4.306522424900e-05   1.886959983624e-04 
5 1 -2.406494543835e-04  -9.536195192117e-05   1.936073050214e-04 
6 1  7.710976461751e-05  -3.109761808444e-06   4.572419927503e-06 
7 1  1.279275158704e-04   6.391383601546e-05   9.753767842708e-06 
8 1 -2.938941470407e-05   1.148780253830e-04  -7.489485305165e-05 
8
Step 800
1 1 -1.309980311152e-05   4.122546476716e-05  -3.976729326198e-05 
2 1 -3.249723962585e-05   2.239583368535e-05  -6.556758355990e-06 
3 1 -1.328891188094e-05   5.850695010249e-05   6.124049702682e-05 
4 1  7.627022854969e-06   3.656716441746e-05   1.382661890619e-04 
5 1 -2.586446152607e-04  -1.065233899610e-04   1.249066211308e-04 
6 1  7.669106027716e-05  -7.655709180652e-06   1.526259092360e-07 
7 1  4.233328338395e-05   8.028157870765e-05   2.197423999346e-05 
8 1 -4.768460536254e-05   1.066599124237e-04   2.120461380283e-05 
8
Step 900
1 1 -1.230976159069e-04   7.315690220350e-06  -5.224383777267e-05 
2 1  1.757785817263e-06  -4.431737462208e-05  -2.470281798830e-05 
3 1  1.934108065782e-05   3.881266017330e-05   2.412970925349e-05 
4 1  2.587040744758e-05   2.850490772708e-05   4.339798911487e-05 
5 1 -2.179183901281e-04  -1.066293451521e-04   1.118278892271e-04 
6 1  1.993630606565e-05  -4.852022986043e-05   2.649807458537e-05 
7 1 -3.327583702331e-05   6.803322200624e-05   4.193510063294e-05 
8 1  5.013083872125e-06   1.018047346816e-04   7.019573921298e-05 
8
Step 1000
1 1 -1.966099597869e-04  -3.260187317010e-05  -5.484390843053e-05 
2 1 -1.986692039613e-05  -1.253112987098e-04   7.210927370454e-06 
3 1  1.286665893500e-05   1.208165085664e-05  -4.397972661046e-05 
4 1  3.556977728935e-05   6.508018802755e-05   2.519766797186e-06 
5 1 -1.889140538098e-04  -1.065981837666e-04   9.877190750611e-05 
6 1 -2.651559786724e-05  -5.253292927856e-05  -8.037519874386e-06 
7 1 -7.457238496132e-05  -3.125906096013e-05   4.076110213573e-05 
8 1  1.269768568924e-05   4.429581886431e-05   8.006933900041e-05 
8
Step 1100
1 1 -1.632640014135e-04  -8.176045037501e-05  -3.919789052664e-05 
2 1 -3.001883834691e-05  -1.096123280324e-04   6.710974039076e-06 
3 1  8.851268301276e-05   4.014713345190e-05  -9.224606809309e-05 
4 1 -7.862076521005e-06   1.105142988118e-04  -9.422179307862e-07 
5 1 -1.106520918529e-04  -1.211546453810e-04   6.561145913982e-05 
6 1 -5.321127166925e-05  -4.934488775225e-05  -6.551706189418e-05 
7 1 -8.469710662021e-05  -1.086903951255e-04   4.623629844073e-05 
8 1 -3.100715522717e-05   1.422375005885e-05   4.243141867001e-05 
8
Step 1200
1 1 -9.452261332770e-05  -6.099501165357e-05  -3.067484523140e-05 
2 1  1.907140528482e-05  -1.223336188147e-04  -1.671077643754e-06 
3 1  9.618726567497e-05   2.180551174321e-05  -9.846296121343e-05 
4 1 -4.979813496735e-05   7.752344381260e-05  -4.989833549400e-05 
5 1 -6.996946025826e-05  -1.445418448933e-04   4.571616662807e-05 
6 1 -6.291727904068e-05  -2.208207271732e-05  -1.003988001120e-04 
7 1 -8.471446511541e-05  -1.368925528792e-04   7.931009986384e-05 
8 1 -5.054213025749e-05   4.894239092637e-05  -1.773259697350e-05 
8
Step 1300
1 1 -2.568830529979e-05  -2.680762506678e-05  -2.984870781868e-05 
2 1  5.953536064384e-05  -1.175373825656e-04   3.525947118407e-06 
3 1  4.144748243065e-05   2.967619715261e-06  -5.449343859103e-05 
4 1 -6.233046932407e-05  -3.879308244968e-05  -6.460484892487e-05 
5 1 -3.470592514094e-05  -1.136779124313e-04   7.793593114141e-05 
6 1 -4.703160064840e-05   1.037869902508e-05  -4.471181269015e-05 
7 1 -4.076324630494e-05  -8.912378672222e-05   1.441983809745e-04 
8 1 -3.429391951974e-05   5.878430883908e-05   4.471239507268e-06 
8
Step 1400
1 1  4.015191729787e-05  -2.043262554112e-07  -5.762285261106e-05 
2 1  2.725291344523e-05  -9.043418761323e-05  -1.213204637448e-05 
3 1  1.714011074878e-06  -3.114957799162e-05  -2.152307784752e-05 
4 1 -2.106167530048e-05  -8.868793729286e-05  -5.358305689366e-05 
5 1  3.785992102209e-05  -2.777512426492e-05   6.120327481957e-05 
6 1 -2.746879414855e-05  -2.888931920351e-05  -4.339526555301e-06 
7 1  5.181988134625e-05  -1.230611831463e-05   1.561285249655e-04 
8 1 -1.191276825239e-05   3.725395154467e-05   3.371945632157e-05 
8
Step 1500
1 1  2.061241178766e-05  -3.432637746077e-05  -7.652202669655e-05 
2 1 -1.621901471418e-05  -3.895425800202e-05  -3.494815276813e-05 
3 1  4.462971546369e-06  -6.077781683241e-05   5.897384926020e-05 
4 1  1.637116612739e-05  -5.862868887126e-05  -2.671684629013e-05 
5 1  8.836894070856e-05   5.724696695481e-05   6.833784650074e-05 
6 1 -2.475648648521e-05  -7.727286017660e-05  -1.766979428150e-05 
7 1  8.776885918146e-05   8.028127350261e-06   1.398300689000e-04 
8 1 -2.874163229194e-05   3.829958904641e-05   2.991852472138e-05 
8
Step 1600
1 1 -1.954654431465e-06  -5.083955379592e-05  -7.435407942736e-05 
2 1 -1.462051303376e-05  -4.270344239668e-06  -3.688271782880e-05 
3 1  5.963705964828e-05  -2.182904292557e-05   6.212500507436e-05 
4 1 -1.055697414365e-05  -4.017125799752e-05  -1.235230786723e-05 
5 1  8.777560526937e-05   4.362750732092e-05   6.630398437525e-05 
6 1 -4.234705262695e-05  -5.616266932280e-05  -2.163375360512e-05 
7 1  1.188362660241e-04   4.236991977375e-06   6.802946770017e-05 
8 1 -2.915963925712e-05   7.841377248622e-06  -3.447919939810e-05 
8
Step 1700
1 1  4.167105757222e-05  -8.264015406603e-05  -4.342238266576e-05 
2 1  1.346480641831e-05   1.951522557545e-05  -5.472092638768e-05 
3 1  8.767154082607e-05   7.149268265951e-05   5.430153425314e-05 
4 1 -3.541452185960e-05  -4.958448296329e-05   1.959430396735e-05 
5 1  5.565850167378e-05  -1.845321979595e-05   2.426269918147e-05 
6 1 -3.890988052798e-05  -8.992449137944e-05  -1.846089461760e-05 
7 1  6.298126514635e-05  -2.911576554866e-05   1.276721372727e-05 
8 1 -4.911413845976e-05  -6.018914716618e-05  -2.512178814302e-05 
8
Step 1800
1 1  3.480932251395e-05  -1.110873568607e-04  -1.691190723779e-06 
2 1  4.173994737904e-05   3.441122530385e-05  -2.898691440652e-05 
3 1  1.070713529233e-04   1.191334891491e-04   6.022506293506e-05 
4 1 -8.090310782753e-05  -1.148696676839e-05   1.061981922844e-04 
5 1  2.633723017091e-05  -3.313972308703e-05   4.121099284286e-06 
6 1 -6.236682813913e-06  -1.155748997632e-04  -1.652558937195e-06 
7 1  1.711839590779e-05  -6.048558696966e-05  -8.042680909401e-05 
8 1 -3.951247839853e-05  -9.696743262488e-05   7.124860403258e-05 
8
Step 1900
1 1  2.910481621233e-05  -1.410220637867e-04   2.151189133596e-05 
2 1  7.682033618042e-05   1.639390193956e-05  -9.384374385149e-06 
3 1  9.089765491557e-05   1.577020745038e-04   4.111928648378e-05 
4 1 -8.156638665495e-05   2.697905405703e-05   1.275155043355e-04 
5 1  1.287609466576e-05  -5.566134496434e-05   3.509753480412e-05 
6 1  2.837591556109e-05  -2.798891894107e-05   2.318316742779e-05 
7 1 -3.135395757431e-06  -3.781358650258e-05  -1.222446789515e-04 
8 1 -4.753412800892e-05  -2.315153055098e-05   8.679427331706e-05 
8
Step 2000
1 1  3.867983270592e-05  -1.389068242757e-04   3.426457437607e-05 
2 1  8.480901653066e-05   3.580378777625e-05   5.134637478069e-05 
3 1  3.750615203717e-05   1.748265332009e-04   4.174869898754e-05 
4 1 -1.289739365838e-04  -2.908548916265e-05   1.021411372987e-04 
5 1 -1.035777877076e-05  -9.380806453980e-05   5.860409782065e-06 
6 1  1.951305000917e-05   6.095337571415e-05   7.550648678716e-06 
7 1 -6.744869776273e-05  -1.344404056749e-05  -1.305608509066e-04 
8 1 -6.649908553176e-05   1.619564141041e-05   4.634819648686e-05 
8
Step 2100
1 1  5.265383162698e-06  -1.412581070614e-04   3.596249393934e-05 
2 1  2.037545729176e-05   5.415691977160e-05   6.146410429669e-05 
3 1  3.748512452295e-06   1.443239984007e-04   6.712313059408e-05 
4 1 -1.140040736655e-04  -5.983468896576e-05   7.132078068369e-05 
5 1 -4.385016079011e-05  -1.165126309122e-04  -6.791269837158e-06 
6 1  4.137920113177e-05   6.782221102951e-05  -3.423048414030e-05 
7 1 -6.110107728803e-05  -8.780084693365e-06  -9.215054273342e-05 
8 1 -6.243428683708e-05   8.160218891572e-05   6.187969762069e-05 
8
Step 2200
1 1  1.164925217258e-05  -1.021069636639e-04   3.235625610481e-05 
2 1 -1.197126998719e-05   1.067164993013e-04   1.162140888061e-04 
3 1  1.229261148619e-05   9.693845229233e-05   8.155384441631e-05 
4 1 -9.801137657101e-05  -7.929368527287e-05   5.701794102493e-05 
5 1 -9.145451909408e-05  -1.331720024353e-04   8.319522521740e-06 
6 1  6.785353267488e-05   5.640594575955e-05  -6.373269268231e-05 
7 1 -3.489736201722e-05  -9.437508423219e-06  -6.708027480820e-05 
8 1 -1.014813095400e-05   1.456984645804e-04   4.341499355535e-05 
8
Step 2300
1 1  9.319876424140e-06  -7.268811651916e-05  -1.059395224655e-05 
2 1  2.660009000764e-05   9.499386923605e-05   1.206571448406e-04 
3 1 -1.938238691878e-05   3.308983950909e-05   5.997568678660e-05 
4 1 -8.716466623677e-05  -1.241835785901e-04   3.919187602374e-05 
5 1 -5.715066791314e-05  -9.094679554106e-05   8.077090564497e-06 
6 1  9.014343187593e-05  -4.012118796570e-05  -4.841469303857e-05 
7 1 -4.987517375013e-05   1.022017471728e-05  -5.663693944831e-05 
8 1 -3.170279349316e-05   1.227795592133e-04  -1.024306936906e-05 
8
Step 2400
1 1 -4.052476367946e-05  -6.065816194312e-05  -5.520837700031e-05 
2 1  9.556215985411e-05   7.849239538425e-05   6.842317056085e-05 
3 1 -2.504987875970e-05  -2.016526431456e-05   9.222479041905e-06 
4 1 -3.764998809497e-05  -1.577417774969e-04  -3.646717310366e-06 
5 1  4.211310736332e-05  -1.879810655529e-05  -2.254029176428e-06 
6 1  6.277133096665e-05  -1.173496442844e-04  -6.081825997007e-05 
7 1 -1.022622078017e-04   1.461456502161e-05  -4.509970001971e-05 
8 1 -8.629651221764e-05   1.027003619121e-04  -1.480181813254e-05 
8
Step 2500
1 1 -7.211635134445e-05  -2.997219136425e-05  -5.975668093227e-05 
2 1  1.038635743804e-04   9.359735034452e-05  -2.757403412036e-06 
3 1 -3.328772393643e-05  -1.733206757644e-05  -1.855499149379e-05 
4 1  3.248212468741e-05  -1.203818681855e-04  -3.714131322257e-05 
5 1  1.060162029695e-04   7.365648545915e-06   4.975456005236e-05 
6 1  1.501187989349e-05  -8.097046191192e-05  -5.227044102461e-05 
7 1 -6.426165687229e-05   2.878683073157e-05  -4.411671793760e-05 
8 1 -1.087435468314e-04   1.064656875225e-04  -1.256559578394e-05 
8
Step 2600
1 1 -5.471488004771e-05  -6.021919326159e-05   8.641849888440e-06 
2 1  1.004395343082e-04   6.513829478020e-05  -2.070393476943e-05 
3 1 -2.064106475554e-05   2.787482511501e-05   4.559347850596e-06 
4 1  5.896562054002e-05  -5.937981059107e-05  -7.145905644730e-05 
5 1  1.113449847522e-04   2.036948670733e-05   9.163810483679e-05 
6 1 -1.636232650931e-05  -7.821084696511e-05  -2.590102378232e-05 
7 1 -5.865588481883e-06   3.256464284653e-05  -4.209272157730e-05 
8 1 -1.113031183654e-04   7.981843669006e-05  -2.368285484115e-05 
8
Step 2700
1 1 -6.137726959648e-05  -8.185626161819e-05   2.055410892365e-05 
2 1  6.490402959129e-05  -4.139213542968e-05  -2.080567257848e-05 
3 1  3.706659592249e-05   6.336609583647e-05   2.088224364977e-05 
4 1  6.176768992583e-05  -9.610627092298e-06  -6.415856489877e-05 
5 1  4.776967130736e-05   3.110365068137e-05   8.292931379410e-05 
6 1  1.569087927703e-05  -1.294393105578e-04  -3.942417817940e-05 
7 1 -1.759415586641e-06   5.680600594905e-05  -1.172224104004e-05 
8 1 -1.225546146759e-04   8.194840299092e-05   4.183965095812e-05 
8
Step 2800
1 1 -7.732664793625e-05  -5.472435349668e-05   2.110875496594e-06 
2 1  2.936711752806e-06  -1.140044804937e-04  -2.585959920845e-05 
3 1  1.181833578340e-04   5.856514390845e-05   8.197845986231e-06 
4 1  5.353311390502e-05   1.133248878714e-05  -2.827265438112e-05 
5 1 -1.611705656224e-05   6.404264570971e-05   4.439387538222e-05 
6 1  3.621938434566e-05  -1.386915803196e-04  -8.282156946777e-05 
7 1  2.109265570943e-05   1.299044143385e-04  -3.367342250293e-05 
8 1 -1.265903298376e-04   3.220658746296e-05   1.167765344267e-04 
8
Step 2900
1 1 -6.846011254735e-05  -3.828918018091e-05   7.179379113190e-06 
2 1 -1.730643883940e-05  -1.542804135947e-04  -8.217787519167e-06 
3 1  1.590341263721e-04   7.265281312969e-05   3.971484000853e-05 
4 1  6.159058992692e-05   6.381475241681e-05  -5.198607739721e-06 
5 1 -2.322377277731e-05   7.808565404698e-05   8.920460671065e-05 
6 1  4.174828523502e-05  -1.182203014715e-04  -8.629217548611e-05 
7 1  4.089153276633e-05   1.857376997106e-04   1.626814279002e-06 
8 1 -7.774854858162e-05  -4.756990142022e-05   1.381689045286e-04 
8
Step 3000
1 1 -5.190141282086e-05  -2.053850490864e-05  -1.578798729286e-05 
2 1 -1.891220605873e-05  -1.815427676643e-04  -6.541070562144e-06 
3 1  1.725262351196e-04   8.987539042877e-05   3.541255280141e-05 
4 1  1.957386192106e-05   9.413956712755e-05  -9.325663159159e-06 
5 1 -2.783519673041e-06   6.314407161832e-05   1.363848897192e-04 
6 1  1.178638607873e-04  -1.125679131507e-04  -7.615512489586e-05 
7 1  7.606994411742e-05   2.151420274118e-04   2.862185434319e-05 
8 1 -2.001670408608e-05  -5.307762758528e-05   1.074349191545e-04 
8
Step 3100
1 1 -2.877779874626e-05  -4.708418457988e-05  -5.020338981009e-05 
2 1 -6.282027631796e-05  -1.384846300009e-04   3.989101533444e-06 
3 1  5.904418780601e-05   1.084406474527e-04   5.616948398874e-05 
4 1 -3.223919281889e-05   9.752175887739e-05  -3.008331536074e-05 
5 1  3.061620210762e-05  -6.248928937760e-05   1.296521186177e-04 
6 1  1.184588857255e-04  -1.167816310515e-04  -6.068956403115e-05 
7 1  1.058748996184e-04   1.820768731008e-04   9.236661145224e-06 
8 1  7.186219571150e-05  -8.670020445198e-05   7.121384598763e-05 
8
Step 3200
1 1 -1.755652119257e-05  -5.748682081446e-05  -1.224160415430e-04 
2 1 -1.096283175657e-04  -8.899096920742e-05   8.288191870604e-05 
3 1 -6.310290744638e-05   7.132950138977e-05   7.181664413193e-05 
4 1 -2.719655094785e-05   5.660815344316e-06  -2.014521108434e-05 
5 1  5.576919998400e-05  -1.242553026695e-04   6.814542800973e-05 
6 1  8.765219189464e-05  -1.452726666178e-04  -9.626490378310e-05 
7 1  1.331786918931e-05   1.638697783988e-04  -3.355160434316e-05 
8 1  1.159685343493e-04  -9.434763365897e-05   5.787190746700e-05 
8
Step 3300
1 1 -2.829246053363e-05  -9.363440921266e-05  -1.106166366878e-04 
2 1 -1.781307644539e-04  -3.167548685296e-05   8.711877333982e-05 
3 1 -1.295894528802e-04   3.387818191763e-06   9.698496464123e-05 
4 1 -4.729499219543e-05  -5.108125645786e-05   1.024834131743e-05 
5 1  6.915873303302e-05  -1.184380670158e-04   1.875875709708e-05 
6 1  4.519225242224e-05  -1.607319657074e-04  -1.230010938023e-04 
7 1 -8.821107608524e-05   1.579817143957e-04  -7.376560260303e-06 
8 1  1.324279224528e-04  -6.906112880617e-05  -1.207860487983e-05 
8
Step 3400
1 1  7.050254313433e-06  -5.464377850978e-05  -6.964877677506e-05 
2 1 -1.348679388504e-04  -1.761968794687e-05   6.651946500603e-06 
3 1 -9.436533445945e-05  -3.487443334684e-05   7.476535862324e-05 
4 1 -5.552923276325e-05  -4.339206570564e-05   3.594135271234e-05 
5 1  2.513937031291e-05  -8.953001043886e-05  -8.595743753320e-05 
6 1 -4.312979210613e-05  -9.574656367977e-05  -1.103037610986e-04 
7 1 -6.699808080975e-05   1.393157406492e-04  -2.949502147167e-05 
8 1  1.561969489911e-04  -3.759898373221e-05  -6.848157594183e-05 
8
Step 3500
1 1  9.293065907564e-05   5.499479168500e-06  -8.475521224530e-05 
2 1 -9.906047237254e-05   5.126350173681e-05  -2.164108963661e-05 
3 1 -5.084173288781e-05  -4.940062619738e-05   1.254481575151e-05 
4 1 -6.153605388920e-05   2.902174826413e-05   1.975993960440e-05 
5 1 -4.185925112869e-05  -6.294650262768e-05  -1.216807915834e-04 
6 1 -8.480392554749e-05  -7.463822944998e-05  -9.194113276886e-05 
7 1 -3.251909689151e-05   9.302402457466e-05  -3.642835997353e-05 
8 1  1.425898071504e-04   1.405911099075e-06  -6.742529361422e-05 
8
Step 3600
1 1  1.016428286728e-04  -4.636516806635e-05  -8.636723704369e-05 
2 1 -6.672001080150e-05   5.014233573918e-05  -2.484729877425e-05 
3 1 -3.257939652453e-05  -5.913608278102e-05  -2.344323652156e-05 
4 1  2.199986643407e-05   5.992694125146e-05   9.117602391431e-07 
5 1 -3.882916927521e-05  -2.509727965683e-05  -1.720614054095e-04 
6 1 -9.169987535088e-05  -7.552010840531e-05  -4.135021439400e-05 
7 1  4.136604050502e-05   4.312746991009e-05   7.924862164320e-06 
8 1  1.054081985151e-04   5.076713923753e-05  -2.953591584755e-05 
8
Step 3700
1 1  7.614784279689e-05  -5.689775034040e-05  -9.028922105548e-05 
2 1  1.707700080734e-05   9.851798693438e-06  -7.488562780187e-06 
3 1  1.651994872430e-05  -3.060842868587e-05  -4.727154161319e-05 
4 1  6.827773675321e-05   1.029563691084e-04   3.649233854014e-05 
5 1  2.460797932316e-05   5.342284784830e-05  -1.044614572061e-04 
6 1 -7.823227042570e-05  -8.244821941871e-05  -4.623264888347e-05 
7 1  7.580481941290e-05  -4.267495391614e-06  -2.756769294876e-05 
8 1  3.496085561809e-05   4.759343742303e-05  -3.376800000633e-05 
8
Step 3800
1 1 -5.456392614420e-06  -7.034975321173e-05  -1.023162052941e-04 
2 1  3.548958152820e-05  -1.274525810125e-05  -1.579948449536e-05 
3 1  7.244366430073e-07   1.182543215910e-05  -5.427570974650e-05 
4 1  7.275432410007e-05   1.064211954019e-04   2.273996809217e-05 
5 1  5.111985822289e-05   1.056366088288e-04  -2.345754132353e-05 
6 1 -3.722356097800e-05  -6.254074275420e-05  -5.999227100824e-05 
7 1  9.918456272344e-05  -1.458046569113e-05  -1.312255189286e-05 
8 1 -5.940732589038e-06   2.460350660378e-05   4.286185226197e-05 
8
Step 3900
1 1 -4.812760820356e-05  -3.387601791475e-05  -8.822888724478e-05 
2 1  4.212615722847e-05   7.547682002746e-06  -4.785322988041e-05 
3 1  5.255068253312e-05  -1.076126697457e-05  -4.991582379629e-05 
4 1  3.234812866056e-05   5.253270453696e-05   8.293545177521e-05 
5 1  3.823855508454e-05   6.724870491367e-05   6.649880160837e-05 
6 1  2.526397931860e-05  -2.053842212389e-05  -6.103732683055e-05 
7 1  8.185740651854e-05  -3.891018501695e-05   2.100624973894e-05 
8 1 -4.199984179962e-05  -3.048530605932e-05   1.333915267828e-04 
8
Step 4000
1 1 -5.223429562020e-05  -9.553561875966e-05  -8.627050962775e-05 
2 1  1.054235618034e-05   3.498090196760e-05  -2.604887110630e-05 
3 1  1.269382687942e-04  -6.125701441925e-05  -4.965066307603e-05 
4 1 -1.104011830492e-04  -1.263763458215e-05   1.672899434505e-04 
5 1  7.233109537408e-05   3.420056388014e-05   8.339607561269e-05 
6 1  1.270423582846e-06  -1.057867598065e-05  -5.915935322497e-05 
7 1  7.394234836784e-05  -4.655324524540e-05   4.082145948986e-05 
8 1 -7.285114208885e-05  -5.206402759177e-05   1.261913580860e-04 
8
Step 4100
1 1 -1.924737253955e-05  -1.204970637313e-04  -1.414024169130e-04 
2 1 -2.386164484859e-05   4.964006855743e-06  -1.124778061799e-05 
3 1  1.495507638888e-04  -8.816308221314e-05  -4.634563420008e-05 
4 1 -1.996525672470e-04  -1.861017664494e-05   1.563703164122e-04 
5 1  1.328999219917e-04  -9.283410628633e-06   8.888925835135e-05 
6 1 -2.689321792666e-05   1.837779638491e-05  -1.252309018305e-06 
7 1  8.724761330516e-05  -4.998733431155e-05   8.706865945078e-05 
8 1 -8.701818206122e-05  -2.547745812635e-05   7.888318919201e-05 
8
Step 4200
1 1  1.354110758338e-05  -8.119471802353e-05  -1.430022925472e-04 
2 1 -6.770346559958e-05  -2.393380257056e-05   1.508806746034e-05 
3 1  1.541138202849e-04  -7.854167407433e-05  -8.597947515654e-05 
4 1 -2.221548830660e-04   1.376650050607e-05   1.070149425792e-04 
5 1  1.341768134634e-04  -6.768797002387e-05   8.930987724335e-05 
6 1 -6.629882888407e-05  -5.772962657689e-06   6.179547743879e-05 
7 1  1.292939422495e-04  -4.499079355260e-05   1.041395017828e-04 
8 1 -4.053376920633e-05   1.505949272760e-05   1.159870961290e-04 
8
Step 4300
1 1  4.424211457784e-05   1.021361692125e-05  -1.060644094239e-04 
2 1 -8.539845602725e-05  -4.027548506594e-05   9.825879344889e-06 
3 1  1.221587917436e-04  -8.798272786836e-05  -7.424941932192e-05 
4 1 -1.872974130045e-04   4.483384179710e-06   4.438502750584e-05 
5 1  1.171266470665e-04  -1.034690465170e-04   5.103339967203e-05 
6 1 -1.038829808053e-04  -1.889817590204e-05   1.119396950005e-04 
7 1  1.292966370985e-04   1.164567303111e-05   7.710822910908e-05 
8 1 -1.004620970727e-06   6.195588554715e-05   1.558899947318e-04 
8
Step 4400
1 1  8.870132137320e-05   1.985440124615e-05  -5.613427492760e-05 
2 1 -1.138645638169e-04  -2.576787160193e-05  -1.938260096189e-06 
3 1  9.123325126057e-05  -5.396437598993e-05  -7.425371094665e-05 
4 1 -1.755401557610e-04  -4.218711306733e-05   4.468954261418e-05 
5 1  1.101268146644e-04  -1.552448432332e-04   4.265603034506e-05 
6 1 -6.178855111150e-05   2.930667550185e-05   7.408402055416e-05 
7 1  3.822353912976e-05   4.426556097518e-05   5.121947983000e-05 
8 1  3.139401412391e-05   6.409766283338e-05   1.143366790588e-04 
8
Step 4500
1 1  1.177015894217e-04  -1.722638622612e-05  -3.857877675831e-05 
2 1 -1.366933668119e-04   2.059160015062e-05   2.731196360280e-06 
3 1  6.688919298786e-05  -1.488684419238e-05  -3.347261931745e-05 
4 1 -1.399394862501e-04   2.994348505437e-06   4.927455854114e-06 
5 1  9.363196205177e-05  -1.324092801982e-04   1.783104215892e-05 
6 1 -1.344096274408e-05   6.109743558041e-05   2.667577718298e-06 
7 1 -7.034634762957e-06   4.191813920497e-05   4.036510400379e-05 
8 1  3.975183464217e-05   1.002843015381e-04   3.048470908036e-05 
8
Step 4600
1 1  8.881180811736e-05  -6.386916408151e-05  -4.614020514265e-05 
2 1 -1.397443787170e-04   1.004520868077e-04   5.676135138693e-05 
3 1  7.056320034105e-05  -2.349127325567e-05  -3.091983989710e-05 
4 1 -8.357684246420e-05   1.991732818619e-05  -4.203039420454e-06 
5 1  6.386221487419e-05  -1.161167559499e-04   5.155758765894e-05 
6 1  1.042256397046e-05   2.254350651170e-05  -5.777690455332e-05 
7 1 -2.461621902146e-05   2.907498583787e-05   2.421247306600e-06 
8 1  2.862371164400e-05   1.521548300630e-04   7.995946806030e-06 
8
Step 4700
1 1  6.073256729202e-05  -6.719423269541e-05  -3.347959181003e-05 
2 1 -9.429665345720e-05   1.164836226407e-04   5.396128900669e-05 
3 1  7.092937517543e-05  -3.826797308999e-05  -3.816934667147e-05 
4 1 -2.517561556792e-05   3.072329711733e-05   1.117948965358e-05 
5 1  1.818828453489e-05  -1.137935260665e-04   1.577942474217e-05 
6 1  4.846957483762e-05   2.335257046491e-05  -7.036144151072e-05 
7 1 -7.349720201211e-05  -3.246646067402e-06  -8.568033740453e-06 
8 1 -3.018331831510e-06   1.691889576807e-04   2.272536112326e-05 
8
Step 4800
1 1  5.387509887109e-05  -1.436370705773e-05  -6.449524880124e-05 
2 1 -2.661305790469e-05   1.301140819067e-04   1.270062468491e-05 
3 1  7.232658641531e-05   9.312350208621e-06  -6.266178309186e-05 
4 1  4.500064407325e-05   4.906599491642e-06   9.315991279560e-06 
5 1 -8.296453727930e-05  -1.525114056178e-04   1.810480398743e-05 
6 1  5.947764081406e-05   4.100170838869e-05  -6.461259464507e-05 
7 1 -6.235893346074e-05   4.513335761551e-05   3.216863960491e-05 
8 1  6.889444260145e-06   1.269996611521e-04   4.453339985185e-05 
8
Step 4900
1 1  3.629590033217e-05   3.857926624846e-05  -1.259081592089e-04 
2 1  1.267491802425e-05   8.646640832425e-05  -7.363896892508e-05 
3 1  3.329760518688e-05   1.309585886889e-05  -7.348292845852e-05 
4 1  8.202352942785e-05  -1.116051008741e-05   2.598293846892e-05 
5 1 -9.903270534621e-05  -1.735553430416e-04   6.174411118454e-05 
6 1  5.779271015459e-05   2.130900280934e-05  -3.919118794993e-05 
7 1  9.984987208574e-06   8.536999201218e-05  -1.363063960195e-05 
8 1  8.567496170655e-06   7.249652471675e-05   4.678431858327e-05 
8
Step 5000
1 1 -4.188073580461e-05   7.508191375873e-05  -1.112122966646e-04 
2 1  7.177083768013e-05   1.059003978417e-04  -1.342662602404e-04 
3 1  6.299454255132e-05   1.374203991590e-05  -1.182450152701e-04 
4 1  8.170640552484e-05  -1.701469581901e-05   9.782190934210e-06 
5 1 -5.425517200475e-05  -1.147069986832e-04   7.130809029488e-05 
6 1  2.807876276190e-05  -2.059198773648e-05   2.059236056124e-05 
7 1  1.730759109547e-05   5.293867624939e-05  -7.966013829989e-06 
8 1  5.367449685978e-05   5.740018023041e-05   5.063603853646e-05 
8
Step 5100
1 1 -1.102772499943e-04   7.184651793098e-06  -8.081928112513e-05 
2 1  9.666386645664e-05   5.235825171813e-05  -1.475593946352e-04 
3 1  4.922497120271e-05   3.816859388933e-05  -1.033452017402e-04 
4 1  5.669378119943e-05   1.247467012334e-07  -1.380827973775e-05 
5 1 -1.353530144856e-05  -1.506055796668e-05   4.986266801477e-05 
6 1 -5.888084109583e-06  -3.627859306365e-05   1.481122130235e-04 
7 1 -4.368972338732e-05   1.327297456406e-06  -2.771077021655e-05 
8 1  9.046311403756e-05   9.317975356729e-05   5.857031679913e-05 
8
Step 5200
1 1 -1.568521285980e-04  -8.270070970127e-05  -4.333658225554e-05 
2 1  4.614050393709e-05  -2.015414497439e-06  -1.334990781788e-04 
3 1 -6.340997664724e-07   3.651101616809e-05  -2.391883740425e-05 
4 1  7.803230315249e-06  -1.177401307259e-05  -3.949071146811e-05 
5 1  5.981476038246e-07   2.050044922009e-05   7.790926271405e-06 
6 1 -2.988022012454e-05  -2.614303538127e-05   1.586337737666e-04 
7 1 -8.069946637537e-06  -3.799827310885e-05   8.648207286183e-06 
8 1  9.436328755805e-05   1.128640040563e-04  -4.025838575772e-05 
8
Step 5300
1 1 -1.088789559265e-04  -6.300548331896e-05  -3.789603814791e-05 
2 1  1.066983956980e-05  -3.974580155595e-05  -7.435601355983e-05 
3 1 -2.112264723157e-05   3.477719748458e-05   3.101653518572e-05 
4 1 -4.309196245837e-05  -1.549205256432e-05  -7.320430468404e-05 
5 1  1.509279532581e-08   8.034889089104e-06  -2.022232858656e-05 
6 1 -5.943483708912e-05  -1.049634298107e-05   7.253316946332e-05 
7 1  3.856521492290e-05  -7.931587279573e-05   4.494232801375e-05 
8 1  5.697949931335e-05   1.292744616808e-04  -7.830500775790e-05 
8
Step 5400
1 1 -4.126336153244e-05  -9.294685409683e-06  -2.767728311180e-05 
2 1  5.217259911325e-07  -4.182658438331e-05  -6.453922504593e-05 
3 1 -5.440407562561e-05   2.703091872012e-05   8.193175483320e-05 
4 1 -8.387261535085e-05  -1.792432445107e-05  -1.098479246752e-04 
5 1  2.765772462831e-05   3.153908619277e-05  -3.456699450553e-05 
6 1 -1.186387715856e-04  -2.992610790861e-05  -1.332502236469e-05 