8
Step 0
1  5.854051177305e+02  -2.841389406478e+01   5.016505855149e+02 
1 -3.716605965379e+02  -3.157347621074e+02   6.502572045012e+02 
1  6.469245543057e+02  -5.810478960450e+02  -6.539554565289e+02 
1  6.340371909667e+01   1.021183614821e+02   9.520920988084e+00 
1  1.210770460596e+02  -1.049354269047e+02  -4.780773672669e+02 
1 -5.591487414874e+02  -2.585970701202e+02  -3.580310115032e+02 
1 -5.807987240504e+02  -1.777150272331e+02  -2.642056281941e+02 
1 -2.788968567768e+02  -6.514713253371e+02  -1.251377270472e+02 
8
Step 100
1  5.040580465747e+02  -3.713634681748e+01   4.756135618331e+02 
1 -3.173320599474e+02  -2.312354226388e+02   5.157807502882e+02 
1  5.105918870998e+02  -4.978174216613e+02  -5.574850306922e+02 
1  5.917530918751e+01   9.086381047243e+01  -8.415960656095e+00 
1  9.131335667764e+01  -5.695303515286e+01  -3.908160011892e+02 
1 -4.737985290762e+02  -1.884830400349e+02  -3.191993675893e+02 
1 -4.943830796327e+02  -1.622364628679e+02  -2.450084575857e+02 
1 -2.120528211428e+02  -5.749515635496e+02  -8.542393100770e+01 
8
Step 200
1  3.284384850459e+02  -3.136832741131e+01   3.990416597937e+02 
1 -2.164903190491e+02  -8.106015775722e+01   3.039090931881e+02 
1  2.980095567955e+02  -3.480783639928e+02  -4.008939225244e+02 
1  6.125736328992e+01   9.104137175813e+01  -5.059961840269e+01 
1  4.798144541838e+01   1.007129490936e+01  -2.406426655816e+02 
1 -3.044633397878e+02  -1.102015156519e+02  -2.448709796624e+02 
1 -3.684028476557e+02  -1.126251593529e+02  -2.165134430333e+02 
1 -7.118579254330e+01  -4.683406152158e+02  -3.870695618332e+01 
8
Step 300
1  1.714212406648e+02  -2.433260291014e+01   2.988866033105e+02 
1 -1.088595237344e+02   4.085543672058e+01   1.486484335268e+02 
1  1.064511443093e+02  -2.156837224614e+02  -2.505201525011e+02 
1  5.188348881610e+01   1.091134104897e+02  -7.722128246369e+01 
1  3.017620669127e+01   6.037007417665e+01  -1.152989119347e+02 
1 -1.740906114923e+02  -5.997115250178e+01  -1.774636020179e+02 
1 -2.657469733161e+02  -5.918249246630e+01  -2.133039295066e+02 
1  4.196221926874e+01  -3.603490779499e+02  -3.373610077112e-01 
8
Step 400
1  7.781488252590e+01  -8.057146796013e+00   2.093863783739e+02 
1 -2.599328360553e+01   7.604740059354e+01   7.304272350443e+01 
1 -2.789381031867e+01  -1.512630939717e+02  -1.607472785316e+02 
1  2.493882027233e+01   1.097665889171e+02  -9.351933056578e+01 
1  9.767305507090e+00   8.235831528358e+01  -3.278686737705e+01 
1 -8.276293009159e+01  -2.014943214788e+01  -1.394743766485e+02 
1 -1.695310690447e+02  -4.228572741346e+01  -1.902210181398e+02 
1  8.509405560107e+01  -2.788006370470e+02   1.979995959282e+00 
8
Step 500
1  7.881117829208e+00   4.710206771642e+00   1.449840163655e+02 
1  1.648757371386e+01   6.108613777884e+01   6.786028604555e+01 
1 -8.332986618990e+01  -9.963104520717e+01  -1.191843519300e+02 
1 -8.973461788485e+00   7.858813663677e+01  -9.074742385122e+01 
1 -1.525239396811e+01   7.664510844865e+01   5.986589179535e+00 
1 -4.679048958536e+01  -7.678161905800e+00  -1.175237102877e+02 
1 -1.228360410455e+02  -3.017428916505e+01  -1.624420621276e+02 
1  9.487593123599e+01  -1.981596095342e+02   1.752957214988e+01 
8
Step 600
1 -3.803200422032e+01   4.846874021408e+00   1.086358367195e+02 
1  2.306926372869e+01   3.903390681831e+01   8.171794316574e+01 
1 -1.047308814339e+02  -9.101376427849e+01  -8.628872096961e+01 
1 -3.628092374625e+01   3.103641711338e+01  -6.569931697211e+01 
1 -3.366879670325e+01   5.635279996496e+01   2.502089021087e+01 
1 -3.112509696249e+01   1.439358592461e+01  -9.205339973788e+01 
1 -9.404333833184e+01  -2.607122062510e+01  -1.086761082081e+02 
1  7.936537088168e+01  -1.302354665443e+02   4.886378272528e+00 
8
Step 700
1 -4.498554234123e+01  -2.426069546413e+00   7.691331294989e+01 
1  1.623308470369e+01   5.094223001662e+01   6.157923174963e+01 
1 -9.264754722175e+01  -8.567801828982e+01  -3.691059936163e+01 
1 -4.201793577340e+01   8.825275944008e+00  -3.833309345183e+01 
1 -3.646958549790e+01   4.046005790028e+01   3.457248873701e+01 
1 -2.053379859258e+01   1.961460938892e+01  -7.860311868255e+01 
1 -7.428225279040e+01  -3.618952629111e+01  -8.529125365462e+01 
1  4.984907124730e+01  -9.444061257577e+01  -1.528995498471e+01 
8
Step 800
1 -6.494881983652e+01  -2.458776407933e+01   7.550624806666e+01 
1  3.022613559237e+01   6.222296001798e+01   4.598719458450e+01 
1 -5.318524685010e+01  -6.761441143680e+01  -8.350578301326e+00 
1 -3.417332031673e+01  -1.287742089560e+00  -2.682986577757e+01 
1 -3.259845793980e+01   3.197651642039e+01   3.343828108192e+01 
1 -1.743737010949e+01   2.996864990510e+01  -5.590749731289e+01 
1 -6.980296946364e+01  -3.369789432716e+01  -6.765432498793e+01 
1  2.782314637901e+01  -8.128835386650e+01  -7.226633138461e+00 
8
Step 900
1 -6.525221543104e+01  -4.602253473302e+01   6.528930386511e+01 
1  4.338208860887e+01   6.749587312301e+01   3.071824548868e+01 
1 -3.264426821059e+01  -5.818111643167e+01   7.282108579137e+00 
1 -3.465233534840e+01  -1.730140220996e+00  -1.537993493564e+01 
1 -1.692187243405e+01   2.602984900887e+01   2.975511457343e+01 
1 -3.069574022225e+01   1.535237680002e+01  -1.543099533499e+01 
1 -6.149844918237e+01  -1.747125389618e+01  -4.486333429177e+01 
1 -2.019897963974e+01  -6.432534047357e+01  -2.177305458311e+01 
8
Step 1000
1 -5.587370400197e+01  -5.527278441081e+01   6.872171138134e+01 
1  2.711852054180e+01   6.752723493347e+01   2.284747218238e+00 
1 -4.059972384549e+01  -4.815702599249e+01  -1.059260030032e+01 
1 -3.385704915758e+01  -1.455497875601e+01  -1.009453755760e+01 
1  5.342727970501e+00   3.099576022385e+01  -5.354542831491e-01 
1 -4.026312950117e+01  -3.540417043022e+00   9.414389883411e+00 
1 -5.233206431738e+01  -1.110867955973e+01  -3.577401625961e+01 
1 -4.186251551227e+01  -6.603158853518e+01  -2.707099589200e+01 
8
Step 1100
1 -3.681612696609e+01  -6.424161116026e+01   6.007178816577e+01 
1  1.452867257832e+01   6.545973651350e+01  -4.279001622345e+01 
1 -3.465900306871e+01  -3.568782574511e+01  -3.777770830394e+00 
1 -2.034101778383e+01  -9.371849026392e+00  -1.753663293558e+01 
1  5.122237787248e+00   2.311696279263e+01  -6.141554944693e+00 
1 -3.148355685069e+01  -3.575311462128e+00  -6.560889795526e+00 
1 -5.320495757649e+01  -2.394213936686e+00  -3.605849069093e+01 
1 -2.201731329917e+01  -6.667515226066e+01  -3.485311688231e+01 
8
Step 1200
1 -7.799510829731e+00  -5.193673263406e+01   2.379951168297e+01 
1  1.374133334713e+01   7.171744850931e+01  -6.325012790993e+01 
1 -2.473678433006e+01  -3.426774573940e+01   1.805707157542e+01 
1  1.946717164558e+01   2.475484902733e+00  -3.703653736893e+01 
1 -1.291028348344e+01  -1.618622612578e+01   1.058038229000e+01 
1 -9.768411368708e+00   1.110615270281e+01  -1.956782351743e+01 
1 -3.240242474559e+01  -5.884816794807e+00  -3.485408291393e+01 
1  1.323922173782e+00  -4.394272250280e+01  -1.876705360315e+01 
8
Step 1300
1  2.609713004807e+00  -2.530427816768e+01   2.735788254724e+01 
1  2.583337289753e+00   6.609338993095e+01  -3.570719724517e+01 
1 -1.050106565423e+01  -2.721696807058e+01   3.690578635924e+01 
1  2.126515247125e+01   4.259233442326e+00  -5.824273273263e+01 
1 -2.874578765926e+01  -2.756100974852e+01   2.852411977520e+01 
1  1.457825058192e+01   2.637709182428e+01   1.606588339125e+01 
1 -1.733267791843e+01   8.118873623188e+00  -2.668150098427e+01 
1  3.054617626290e+01  -3.796080377446e+01   5.569943640705e+00 
8
Step 1400
1  1.281066939151e+01  -2.290068931781e+00   3.024764378509e+01 
1 -1.775089379385e+01   5.317346319322e+01  -2.230964725199e+01 
1 -5.535668080552e+00  -2.829043869755e+01   2.571540672469e+01 
1  2.548291347475e+01   2.728322650773e+01  -5.951290348329e+01 
1 -2.956680799642e+01  -5.753666668559e+00   2.176394675134e+01 
1  2.514051800394e+01   2.673370830140e+01   2.786014497322e+01 
1  9.662775232697e+00   1.727667175190e+01  -4.464686824553e+00 
1  5.627106724806e+01  -7.099922195938e+00   3.298883701955e+01 
8
Step 1500
1 -2.353600947782e+01   2.666593994885e+00   3.348467465029e+01 
1 -1.630382366715e+01   3.527848621106e+01  -2.310022430733e+01 
1 -1.983832162889e+01  -4.360448315378e+01   1.083113720517e+01 
1  1.153884320516e+01   2.800034385579e+01  -5.991504652991e+01 
1 -2.531878029860e+01   4.284138413084e+01   2.953605558459e+01 
1 -3.477481545692e+00   1.869491536091e+01   3.106766193255e+01 
1  4.202379508953e+01   1.242926669716e+01   2.489323631772e+01 
1  3.158362977093e+01   9.248622078668e+00   4.957237654767e+01 
8
Step 1600
1 -3.533358502264e+01   5.402594251381e+00   3.357878498430e+01 
1 -5.761045819918e+00   2.986998965882e+01  -1.627166557358e+01 
1 -2.299246791844e+01  -2.828189512074e+01  -4.769286757603e-01 
1  1.473981414695e+01   2.826443504157e+01  -3.880743476812e+01 
1 -4.610087758043e+01   8.464228947969e+01   1.940891889091e+01 
1 -2.547908587003e+01  -7.772398386298e-01   3.126854197634e+01 
1  6.882309787875e+01  -2.029289832070e+01   4.405890892807e+01 
1  8.189364740465e-01   3.344511810456e+00   2.269567371947e+01 
8
Step 1700
1 -9.254455238392e+00   6.611756548143e-01   2.206955019217e+01 
1  5.363486181196e+00   3.188916521713e+01  -2.060339623682e+01 
1 -1.489345772334e+01  -2.094253719665e+01   1.252878085544e+01 
1  2.792575407571e+01   2.252518339031e+01  -3.128681867795e+01 
1 -4.463795860436e+01   9.270990545990e+01  -1.406075007989e+00 
1 -1.538396773971e+01  -1.459957192391e+01   3.183553533873e+01 
1  7.017858212107e+01  -1.916919027654e+01   3.855345994125e+01 
1 -1.090167366392e+01  -1.297602838272e+01   1.419608846241e+01 
8
Step 1800
1  1.549301467054e+01   5.666151924853e+00  -8.777499169621e+00 
1  1.047843998111e+01   2.710158918506e+01  -6.155631196718e+01 
1 -9.122056807108e+00  -8.249579352733e+00   1.829597419281e+01 
1  4.797104962772e+01   2.166749062564e+01  -9.662858576597e-01 
1 -4.169814754785e+01   7.585250150572e+01   7.384634988112e+00 
1 -2.337259178987e+00  -2.372975606181e+01   4.032123728684e+01 
1  3.512988474171e+01  -2.007206136492e+00   3.750355891953e+01 
1 -9.336482981745e+00  -2.611286638547e+01   2.577685489069e+01 
8
Step 1900
1  2.399134882447e+01  -2.694159551574e-01  -1.867406585959e+01 
1  6.774896930883e+00   1.314844855470e+01  -7.216625420025e+01 
1 -7.882466128737e+00  -9.080599604794e-01   2.788735834127e+01 
1  5.390710582409e+01   4.824624472252e-02  -2.441433577478e+00 
1 -3.931977385818e+01   7.101481657698e+01   3.520267407389e+01 
1  9.638634110832e+00  -2.901063223839e+01   2.606038896363e+01 
1  3.886788915594e+01   1.276294152978e+01   3.014554233865e+01 
1  8.615207940022e+00  -1.700460452365e+01   2.933734305166e+01 
8
Step 2000
1  3.532869447619e+01  -1.355266216947e+01  -3.145791710462e+01 
1  9.033884907182e+00  -2.576763484251e+01  -3.677235451583e+01 
1 -9.063153275974e+00  -1.285091946808e+00   3.215546761341e+01 
1  4.081386164639e+01  -1.426591187498e+01  -4.588217434254e+00 
1 -2.921546143071e+01   6.663928371755e+01   2.067407994058e+01 
1 -6.693550900051e-01  -1.653258701138e+01   1.452881711551e+01 
1  3.481840906825e+01  -4.889515919434e+00   4.589005163768e+01 
1  1.068098881441e+01  -6.110621293584e+00   2.566113234321e+01 
8
Step 2100
1  4.729032767281e+01  -1.998296416076e+01  -4.249914256870e+01 
1  6.007379394373e+00  -5.881583265373e+01   3.251157986146e+00 
1 -1.174547136465e+01  -1.669326654392e+01   3.458807807828e+01 
1  4.182466334957e+01  -4.216415512457e+00  -7.847965527184e+00 
1  1.048929474896e+01   5.932756907296e+01   4.917481068304e+00 
1 -1.139577540576e+01  -1.411239429177e+00   6.910946677146e-01 
1  5.515157250196e+01  -2.924488042477e+01   7.590895341233e+01 
1 -6.086755927331e-01   1.051445676644e+01   2.042895543968e+01 
8
Step 2200
1  4.268143852305e+01  -2.157585994191e+01  -2.463507221773e+01 
1 -1.080666992469e+01  -7.463423363562e+01   3.507469860966e+01 
1 -3.992209871145e+01  -4.126275861509e+01   2.089462068945e+01 
1  2.239929949642e+01  -1.332846103356e+01   9.803499922077e+00 
1  4.526344039473e+01   3.067333654242e+01   1.517987398005e+01 
1 -1.861910140003e+01  -8.824391396763e+00  -1.137380336171e+01 
1  5.405355708002e+01  -2.818796670122e+01   6.504847479073e+01 
1 -2.624584790153e+00   2.879183622816e+01   1.779436866636e+01 
8
Step 2300
1  2.800370138216e+01  -4.591891909432e+01  -2.039234508166e+01 
1 -2.314576053349e+01  -9.685595098548e+01   5.546944673059e+01 
1 -6.131086167887e+01  -3.969841087767e+01   2.143520344506e+01 
1  9.424347127809e+00  -9.227049829914e+00   8.153817951163e+00 
1  5.224382225410e+01   7.019023718823e+00   2.567191307987e+01 
1 -2.173511477783e+01  -2.138584673598e+01  -2.774766728548e+01 
1  4.449111187449e+01  -2.433420606407e+00   5.339503556887e+01 
1 -9.240426782168e+00   4.237886562253e+01  -8.940702362826e+00 
8
Step 2400
1 -1.183493597348e+01  -2.352690649063e+01  -1.621409710205e+00 
1  1.264084059952e+01  -9.675050296446e+01   3.006860978422e+01 
1 -5.461518204961e+01  -4.016488066623e+01   1.553357987498e+01 
1  2.002364630693e+00  -8.416608718534e+00   3.367685388201e+00 
1  5.558334279684e+01  -1.148631905695e+01   4.545673656461e+01 
1 -2.911385620688e+01  -2.112969606658e+01  -3.106856545789e+01 
1  2.624940267921e+01   6.104579443486e+00   3.758992773364e+01 
1 -2.513678731243e+01   3.776665317961e+01  -3.707073528523e+01 
8
Step 2500
1 -3.730965748511e+01   1.157847962001e+00  -2.877340453618e+00 
1  1.581940438421e+01  -1.102115016250e+02   3.288699961033e+00 
1 -1.792616905162e+01  -2.755147454061e+01   9.116369993805e+00 
1 -9.620235543048e+00  -8.774073076329e+00   1.984956915423e+01 
1  2.525715390007e+01  -1.424370494102e+01   4.032071579036e+01 
1 -4.286478947832e+01   1.912638331073e+01   1.486122152519e+00 
1  2.669561765131e+01  -8.215111733418e+00   8.389869461982e+00 
1 -2.077018779693e+01   3.650375873882e+01  -5.618740428831e+01 
8
Step 2600
1 -3.512137779517e+01   2.180468405891e+01   2.648370435690e+00 
1  2.307413540059e+01  -1.001472081108e+02  -1.198642670815e+01 
1  6.936560100464e+00  -7.516664678940e+00  -3.885214154587e+00 
1 -3.778999896049e+00   2.221937432741e+00  -7.328980140757e+00 
1 -3.869625225724e+00  -4.537376746768e+00   3.749342550777e+01 
1 -5.934959635718e+01   4.083811608039e+01   4.159297643746e+01 
1  2.842883237718e+01  -4.040428077263e+01  -5.514162299410e+00 
1  6.297999825793e+00   2.348528225026e+01  -7.499837410832e+01 
8
Step 2700
1 -2.685709069469e+01   9.351169140159e+00  -1.767313226340e+01 
1  2.780104858053e+01  -8.035946407054e+01  -1.801274581603e+01 
1 -4.301146018798e+00   7.341534131360e-01  -7.840426263988e+00 
1  3.569100045070e+00   1.713860484672e+01  -2.583336989410e+01 
1 -3.444598650971e+01   3.091581004522e-01   3.245255233765e+01 
1 -5.521642819845e+01   4.555086632834e+01   5.499681328150e+01 
1  1.606168363642e+01  -8.367499370232e+01  -1.629058478795e+01 
1  1.203603596382e+01   2.609888279493e+01  -5.986423796960e+01 
8
Step 2800
1  2.691724826540e+00   1.026240908500e+01  -4.451753877365e+00 
1  2.576588431925e+01  -6.823518890863e+01  -2.923574550850e+01 
1 -4.723407022679e+00  -7.221717606894e-01  -7.910634551218e+00 
1  2.145523304436e-01   4.405918492222e+01  -2.306457040238e+01 
1 -3.511537513552e+01   9.727022540452e+00   2.953019775406e+01 
1 -3.218680846209e+01   5.316250751480e+01   3.498682233683e+01 
1  1.200480281521e+01  -1.075657855910e+02  -1.690572504049e+01 
1  1.593919929294e+01   9.212691574711e+00  -2.750608252193e+01 
8
Step 2900
1  2.310556122782e+01   1.748865213395e+01   1.670665063962e+01 
1  3.348712387551e+01  -7.256710591650e+01  -2.331909912569e+01 
1  3.521680770377e+00  -2.038267557948e+01  -2.877458434441e-01 
1 -4.499639484788e+00   5.822455946614e+01  -3.387692695321e+01 
1 -2.352231214889e+01   5.157759856525e+00   4.378310421711e+01 
1 -2.461952471330e+01   5.399990547515e+01   3.124891237202e+01 
1 -1.207046804274e+01  -8.673553225316e+01  -1.731679824421e+01 
1  4.824795406729e+01  -1.157850807325e+01  -1.875835998210e+01 
8
Step 3000
1  3.461616753493e+01  -7.996440953095e+00   2.058347089189e+01 
1  3.042206709809e+01  -5.944017905025e+01  -9.828795486812e+00 
1  1.772221739370e+01  -3.682236137293e+01   1.290638651080e-01 
1  9.927134403744e+00   5.687516743467e+01  -3.367193680480e+01 
1 -2.934359464152e-01   6.626030571319e+00   5.600352467341e+01 
1 -6.986137358450e+00   4.678839288177e+01   3.941572665479e+01 
1 -3.214141215450e+01  -6.073022272883e+01  -2.353149015100e+01 
1  7.828709406781e+01  -5.655649920619e+01  -1.335960931733e+01 
8
Step 3100
1  1.292806922757e+01  -5.362039759658e+00   2.574137828512e+01 
1  3.031221350540e+01  -5.463391586919e+01  -1.299429408020e+01 
1  5.551329162895e+00  -3.956947796348e+01  -4.073141204243e+00 
1  1.262416869450e+01   5.496143831384e+01  -3.914643489043e+01 
1  1.320609363672e+00   4.914430929821e+00   5.933693816156e+01 
1  4.241177618167e-01   4.704804896668e+01   4.811295272060e+01 
1 -1.869136404621e+01  -4.249028490965e+01  -1.582798786773e+01 
1  8.824174958325e+01  -9.787581627797e+01  -2.481358407125e+01 
8
Step 3200
1 -1.563634270662e+01  -1.000074489499e+01   1.245377236472e+01 
1  9.146081036315e+00  -5.121599194895e+01  -3.586050575162e+00 
1  1.727998871200e+01  -2.410564723559e+01   1.585015998194e+01 
1  2.429267270234e+01   4.116829355114e+01  -4.314024103819e+01 
1 -1.653162636290e+00  -4.629437496934e+00   4.040253219428e+01 
1 -4.718462957804e+00   3.489176288104e+01   3.278293825346e+01 
1 -2.267764891710e+01  -1.795426876031e+01  -8.041982204645e+00 
1  8.615812877593e+01  -1.080641245973e+02  -2.977728789842e+01 
8
Step 3300
1 -1.902818143796e+01  -6.156067141308e+00   1.261575953937e+00 
1 -2.251550626255e+01  -2.368924739039e+01   1.860645714280e+01 
1  2.632603342744e+01  -2.659399316690e+01   5.587723866819e+01 
1  4.891402984155e+01   2.256923094075e+01  -4.658910703879e+01 
1 -2.637936905282e+01  -3.024339009333e+01   1.159379142792e+01 
1 -1.840058905764e+01   1.315110317892e+01   5.231361919745e+00 
1 -9.930740367482e+00   1.022235660577e+01  -7.780479223150e+00 
1  4.047066656581e+01  -9.403917282433e+01  -2.793672295311e+01 
8
Step 3400
1 -5.442561390201e+00  -6.163353307490e+00   7.846282151019e+00 
1 -3.016242384185e+01  -7.261992492980e+00   2.170877901430e+01 
1  2.716960154538e+01  -1.527879446129e+01   5.587441502987e+01 
1  2.418058037912e+01  -1.410757047868e+01  -2.965474110187e+01 
1 -3.894060116786e+01  -4.672098015693e+01   1.467341261202e+01 
1 -4.719655665352e+01   1.019861496091e+01  -1.701028603553e+00 
1  2.725157312705e+00   3.229943500231e+00  -2.637032839003e+01 
1  1.092957070228e+01  -7.012579377868e+01  -3.485317062653e+01 
8
Step 3500
1  2.396095249585e+01  -1.024817099159e+01   1.110377379020e+01 
1 -2.377558430184e+01  -7.583622466884e+00   4.368633343333e+01 
1  1.407749320190e+01  -8.904067551193e+00   3.065790072487e+01 
1  9.363309520075e+00  -3.446633891231e+01  -4.401738530523e+00 
1 -4.609293216211e+01  -5.353581286653e+01   3.844548099351e+01 
1 -7.558281279436e+01  -1.191910044138e+01   6.432446890825e+00 
1 -4.127894179108e+01  -7.864502422166e+00  -3.092037326938e+01 
1  8.567230360032e-01  -5.297633711229e+01  -3.894663599907e+01 
8
Step 3600
1  4.599954985225e+01  -3.389840649913e+01   1.407205559016e+01 
1 -4.518574931112e+01  -2.050695457835e+01   3.551132724615e+01 
1  8.774293321402e+00  -9.327070046927e+00   2.353706058729e+01 
1  1.863156652163e+01  -4.303846829519e+01   1.899081157985e+01 
1 -2.529576652812e+01  -5.279552028258e+01   4.898709042086e+01 
1 -8.534311763346e+01  -1.271218887556e+01   2.204443008318e+01 
1 -6.485617820945e+01  -1.394560170072e+01  -2.744410606141e+01 
1 -6.391731110742e-01  -1.107575218980e+01  -1.532758657207e+01 
8
Step 3700
1  3.942943794375e+01  -2.142842274360e+00   5.873665945981e-01 
1 -4.037998805948e+01  -2.227361717426e+01   2.036278126778e+01 
1  1.529390268892e+01  -9.774353826726e+00   1.888019768518e+01 
1  2.269989763670e+01  -2.231873540088e+01   3.406777882917e+01 
1 -3.661371103116e+00  -3.604206464082e+01   7.530163062969e+01 
1 -5.697834933904e+01  -1.562877020234e+01   3.737948367275e+01 
1 -5.522473629819e+01  -6.271258027467e+00  -1.074016365057e+01 
1 -1.242399501064e+01   7.510533397907e+00   1.264874592671e+01 
8
Step 3800
1 -8.668276290760e+00   2.334621386445e+01   4.515075675480e+00 
1 -4.480243568981e+01  -6.231965858264e+00   1.411111341971e+00 
1  1.335982178231e+01  -1.070647814122e+01   2.379142574625e+01 
1  3.151008215840e+01  -2.571300315683e+01   1.902764080464e+01 
1  1.716414724848e+01  -3.792182711108e+01   8.451329311232e+01 
1 -4.286418444554e+01  -3.106092000497e+01   3.500986989153e+01 
1 -3.406561434522e+01   1.547746192409e+00   6.914501418953e+00 
1 -3.375133356314e+01   1.681214135877e+01   3.826134639883e+01 
8
Step 3900
1 -2.412652896747e+01   1.082135248958e+01  -1.200586190507e+01 
1 -3.844585357402e+01   2.050284790118e+01  -1.631483245486e+00 
1  1.342822059124e+01  -1.087083744514e+01   3.824218373428e+01 
1  1.467967686025e+01  -1.651652805876e+01   7.878458123090e+00 
1  2.576919249066e+01  -3.559896040705e+01   5.473986742120e+01 
1 -4.238841630935e+01  -1.417761383906e+01   2.061124851909e+01 
1 -3.775582793602e+01   3.683323962369e+00   3.093364144367e+01 
1 -2.519013040942e+01   1.235391565976e+01   3.255588927499e+01 
8
Step 4000
1 -2.421980962806e+01  -1.283200714212e+01  -2.840644702633e+01 
1 -1.972862985542e+01   1.020286260852e+01  -7.295157573159e+00 
1  3.430073904916e+01  -8.156190848233e-01   3.298585866368e+01 
1 -1.573163999104e+01  -2.871851522613e+01  -3.019208140220e+00 
1  1.755486839291e+01  -1.391854596362e+00   2.610768835526e+01 
1 -4.223175783730e+01   3.546388791491e+00  -1.635923243726e+00 
1 -2.243986107797e+01   3.009002287451e+01   4.046905336015e+01 
1 -2.787446658064e+01  -1.266946634324e+01   3.031354926905e+01 
8
Step 4100
1 -8.721464447886e+00  -9.397155469426e+00  -5.932407126923e+01 
1 -1.900497626441e+01  -1.683837252034e+01  -1.459552026351e+01 
1  2.738789384027e+01  -2.974745389753e+01   3.317463648228e+01 
1 -3.942380562617e+01  -1.606178401092e+01  -1.278155479848e+01 
1  6.003186001818e+00   3.880769440952e+01  -9.712599179314e-01 
1 -4.224106680203e+01   1.557067526228e+00   5.388198953453e+00 
1 -1.467807753396e+01   4.994873149951e+01   1.543265808255e+01 
1 -1.742891325029e+01  -3.177223294855e+01   2.261979504576e+01 
8
Step 4200
1 -1.454398589993e+01  -6.189988985649e+00  -8.527775687901e+01 
1 -2.318497913116e+01  -2.876501789398e+01  -4.141568040624e+00 
1  1.614095907584e+01  -3.128698308528e+01   3.743045324353e+01 
1 -1.534871643322e+01  -3.782320760674e+01   1.614343868933e+01 
1  4.082985741362e+00   3.880749310409e+01   8.403996425197e+00 
1 -4.291546568690e+01  -1.510758081146e+01   2.686487487231e+01 
1 -1.607988996173e+01   5.275646788983e+01  -1.801125317014e+01 
1 -2.907046934083e+01  -3.251802605822e+01   1.655586979627e+01 
8
Step 4300
1 -2.461457822319e+01   1.219753965307e+01  -8.484595010890e+01 
1 -2.049771739235e+01  -3.436892090231e+01   6.526765344714e+00 
1 -5.943073796416e+00  -2.154461832241e+01   3.358865500454e+01 
1  4.265079868193e+00  -5.299781845301e+01   1.407613096267e+00 
1 -5.521011905739e-01   2.067571868647e+01   3.273866599237e+00 
1 -2.502749847202e+01  -1.468138639065e+01   1.991301639341e+01 
1 -1.012609658292e+01   5.441466509709e+01  -4.541213782083e+01 
1 -3.936444144249e+01  -1.192723239634e+01   2.138015991279e+01 
8
Step 4400
1 -2.562541613501e+01   4.234149608017e+00  -5.182660259687e+01 
1 -4.155639595870e+01  -3.775344010277e+01   1.036708640169e+01 
1 -2.048587815971e+01  -2.071511507200e+01   3.240051221324e+01 
1 -1.845393048926e+00  -5.838856884278e+01  -1.430987325048e+01 
1 -2.754046967157e+01   1.692628048425e+01  -1.872349979655e+01 
1  8.556153565578e+00  -1.828115857891e+00  -4.095503540733e-01 
1 -4.850978356982e+00   4.681974935590e+01  -3.574225665825e+01 
1 -2.577830072409e+01   1.866331726813e+01   9.654911657277e+00 
8
Step 4500
1  3.500446360158e+00  -7.622244006877e+00  -1.359649143734e+01 
1 -5.165523754005e+01  -3.980598697187e+01   1.264418860860e+01 
1 -3.520610750509e+01   3.920215562044e+00   3.438089663449e+01 
1 -5.700783221424e+00  -5.032841452319e+01  -3.418330977623e+01 
1 -4.730737477859e+01   2.018093153063e+01  -2.790532145664e+01 
1  1.361314185268e+01   1.808591753014e+01  -2.937850617254e+01 
1  7.953951473223e+00   6.585085802060e+01  -2.465486194687e+01 
1 -2.629935568569e+01   4.425543898052e+01   2.542290946325e+00 
8
Step 4600
1  3.036690202317e+01  -1.152038931089e+01   5.907391130238e+00 
1 -5.523608575815e+01  -1.709272383847e+01   2.265179851833e+01 
1 -3.406075880562e+01   9.619060867025e+00   2.501305389665e+01 
1 -2.178836270556e+00  -3.631830437237e+01  -5.607623798721e+00 
1 -4.146636336707e+01   3.539753393761e+01  -2.908996282067e+01 
1  1.462546093295e+01   3.073991932838e-01  -5.615971372464e+01 
1 -1.044633252354e+00   6.402610785714e+01   2.803483596299e+00 
1 -4.094114201737e+01   3.741362810364e+01   2.043391778542e+01 
8
Step 4700
1  4.032504376828e+01  -2.059123914447e+01   1.659489003675e+01 
1 -4.569035446647e+01  -1.442739074065e+01   9.372686452292e+00 
1 -4.362464041666e+01   2.512573461708e+01   2.635322736750e+01 
1 -1.440793105447e+01  -3.027601793122e+01   4.746799553850e+01 
1 -3.362197428820e+01   4.220151265868e+01  -2.344100417789e+01 
1 -1.585621576198e+01  -3.613418855616e+01  -8.442147113492e+01 
1 -1.973518353968e+01   7.265394990117e+01   1.061385649058e+01 
1 -4.156168509961e+01   9.093823937690e+00   1.394564949429e+01 
8
Step 4800
1  2.159912904644e+01  -3.689266379456e+01  -5.416926892322e+00 
1 -2.004808627991e+01  -1.852184806893e+01   1.284130932835e+01 
1 -3.905182723006e+01   5.507089254861e+01   3.012266266650e+01 
1 -2.104994213179e+01  -3.473737177863e+01   6.003138372780e+01 
1 -2.754922767086e+01   3.644101705886e+01  -1.813617817031e+01 
1 -3.924423575654e+01  -5.208150094526e+01  -7.176421823203e+01 
1  4.074492360282e+00   8.279895806998e+01   1.758138176458e+00 
1 -1.971775474041e+01  -9.408082529580e-01   7.026478896420e+00 
8
Step 4900
1 -7.917544732265e+00  -2.528366421464e+01  -3.338491442356e+01 
1  8.477201901026e+00  -1.695737621817e+01   9.644337010039e+00 
1 -5.097057051141e+01   5.716661275228e+01   2.324760339103e+01 
1 -2.069347082546e+01  -1.869942527759e+01   4.139640511795e+01 
1 -8.090719757397e+00   3.301021457110e+01  -2.057019909539e+01 
1 -3.384040680824e+01  -5.418135457387e+01  -3.610413842296e+01 
1  1.754157218907e+01   8.983401866040e+01  -3.302687688511e+01 
1 -1.157273423059e+01  -1.571219289284e+01   2.722983968792e+01 
8
Step 5000
1 -1.591151162067e+01  -1.309986546778e+01  -2.822929459361e+01 
1  1.225093218680e+01  -2.583246138104e+01  -4.308029987170e+00 
1 -5.668456669102e+01   3.968775708918e+01   7.061639336702e+00 
1 -3.772097902387e+01  -1.401046561491e+01   5.144552217222e+01 
1 -1.882226149138e+00   3.444583988561e+01  -2.103357222828e+01 
1 -2.228148368701e+01  -5.215871600293e+01  -9.008135858908e+00 
1  2.008834533609e+01   6.603353225218e+01  -5.609505252337e+01 
1 -1.507679554827e+01  -3.943165291395e+01   1.577934808658e+01 
8
Step 5100
1 -8.253898293587e-01  -2.352438378327e+01  -1.935391569456e+01 
1 -8.924480129821e+00  -8.377885732668e+00  -2.896629005190e+01 
1 -5.568688761346e+01   1.206474722342e+01  -1.737370933136e+01 
1 -4.681198725643e+01  -4.489383079584e-01   4.310875276250e+01 
1  3.839222854997e+00   3.217765393285e+01   8.533913600745e+00 
1 -1.596793147894e+01  -5.077222649968e+01  -1.752679304836e+01 
1  2.094819362163e+00   2.857349071884e+01  -6.653349809687e+01 
1  2.322665163276e+00  -2.864220410338e+01  -5.279073162794e+00 
8
Step 5200
1  2.276432456705e+00  -6.017816280767e+01   1.322338736767e+01 
1 -3.005676034848e+01   1.313804269201e+01  -5.060312345076e+01 
1 -4.557761076689e+01  -7.449929200904e+00  -1.391391666947e+00 
1 -5.164700696086e+01   2.796884961016e+00   2.255092448371e+01 
1  8.714169324998e+00   2.432582708023e+01   2.791846575480e+01 
1 -2.315959129641e+01  -3.247337489775e+01  -1.220300979840e+01 
1  7.377401198451e-01  -3.283990081165e+00  -5.809046833840e+01 
1  1.439630670776e+01  -2.799573852626e+01  -4.256438943948e+01 
8
Step 5300
1 -1.363586018356e-02  -6.360323358427e+01   3.247116801022e+01 
1 -4.477286862222e+01   3.040195392375e+01  -4.641073040315e+01 
1 -2.992475083145e+01  -9.739144009396e+00   3.558344907437e+00 
1 -5.958072565191e+01  -3.579835196693e+00   2.045669766402e+01 
1  5.151660062218e+00   1.532733792559e+01   3.440303539720e+01 
1 -8.630725041848e+00  -3.766350542340e+01   5.866101819962e+00 
1  3.968870512348e+00  -1.290669270845e+01  -5.032770216485e+01 
1  2.429502297646e+01  -3.862133345332e+01  -4.964261948962e+01 
8
Step 5400
1  2.769551054363e+01  -5.590213293710e+01   3.483987438151e+01 
1 -6.519886486490e+01   2.915822065343e+01  -3.555229720074e+01 
1 -1.544886382856e+01  -1.999053199729e+00   3.297096968482e+00 
1 -5.837368197445e+01  -2.690024512103e+01   1.625230288358e+01 
1 -8.680032017720e-01   3.020352158957e+01   3.141187885920e+01 
1 -1.403429301100e+01  -4.931592365592e+01   1.619718514238e+01 
1  2.661202438595e+00  -1.062557858402e+01  -2.544927517182e+01 
1  1.035405188203e+01  -4.285449463629e+01  -5.154092822657e+01 
8
Step 5500
1  4.937611411632e+01  -2.475238063261e+01   1.809166952483e+01 
1 -5.014791911028e+01   1.261120067269e+01  -2.848151793661e+01 
1 -1.532036647667e+01   1.419372994805e+01  -7.990173969610e+00 
1 -4.489507986074e+01  -4.461867057849e+01  -3.556561443862e+00 
1 -2.660453889552e+01   3.339253212935e+01   3.074330815463e+01 
1 -2.010960390466e+01  -6.610287224198e+01   4.086584258216e+01 
1  5.797244580449e+00  -1.560224893079e+00  -1.909964772419e+01 
1  1.337891509300e+01  -5.340257082693e+01  -2.821769283044e+01 
8
Step 5600
1  4.306929276368e+01  -2.150602950178e+01   1.358682120685e+01 
1 -1.272853736181e+01   1.553435970588e+01  -1.761081204459e+01 
1 -2.972371022307e+01   2.757432866320e+01  -5.795547026021e+00 