8
Step 0
1  5.854051177305e+02  -2.841389406478e+01   5.016505855149e+02 
1 -3.716605965379e+02  -3.157347621074e+02   6.502572045012e+02 
1  6.469245543057e+02  -5.810478960450e+02  -6.539554565289e+02 
1  6.340371909667e+01   1.021183614821e+02   9.520920988084e+00 
1  1.210770460596e+02  -1.049354269047e+02  -4.780773672669e+02 
1 -5.591487414874e+02  -2.585970701202e+02  -3.580310115032e+02 
1 -5.807987240504e+02  -1.777150272331e+02  -2.642056281941e+02 
1 -2.788968567768e+02  -6.514713253371e+02  -1.251377270472e+02 
8
Step 100
1  3.914387322265e+02  -6.507233639637e+01   4.327258872799e+02 
1 -2.839087919312e+02  -1.714887448193e+02   3.760821147333e+02 
1  3.863836629273e+02  -3.915081185925e+02  -4.628384744349e+02 
1  4.756259785350e+01   3.470455332248e+01  -2.467833025699e+01 
1  1.238520417689e+02   3.163257515378e+01  -3.065424108698e+02 
1 -4.407972348050e+02  -1.343841629118e+02  -2.369730213642e+02 
1 -5.014803446004e+02  -1.934895317529e+02  -2.116092065847e+02 
1 -1.643548927730e+02  -4.090062263372e+02  -1.950406890710e+02 
8
Step 200
1  8.979776242283e+01  -8.924324791216e+01   2.863718269595e+02 
1 -1.547205252250e+02   2.315292422543e+01   4.052566324946e+01 
1  6.480691736673e+01  -1.360454313288e+02  -2.274726116022e+02 
1  4.002497474552e+01  -1.817662618045e+01  -9.460145078602e+01 
1  1.276796127242e+02   1.769207455941e+02  -9.442394450300e+01 
1 -2.150862146132e+02  -2.271996577937e+01  -5.950864939745e+01 
1 -3.854320272308e+02  -1.484655730877e+02  -1.306476559505e+02 
1  8.013750994523e+00  -1.164374399225e+02  -2.465727546764e+02 
8
Step 300
1 -4.644373116286e+01  -9.183252835358e+01   1.602707610887e+02 
1 -6.903274885505e+01   9.840649904388e+01  -5.330616919404e+01 
1 -8.367159896153e+01  -2.680938071536e+01  -1.138466676167e+02 
1  3.685465780355e+01   1.840419562158e+01  -1.321785977157e+02 
1  1.195694339638e+02   1.891189725823e+02  -2.455206167057e+01 
1 -6.483672288321e+01   2.053680610358e+00   1.939167562651e+01 
1 -2.701399957662e+02  -4.378337507130e+01  -1.055376562789e+02 
1  5.473867780586e+01   9.216946515426e+00  -1.482957616419e+02 
8
Step 400
1 -3.170004806461e+01  -5.882444659210e+01   1.032589470822e+02 
1 -3.625069149916e+01   4.660877844714e+01   4.678423852901e+00 
1 -1.004934262365e+02  -5.373416686592e+01  -1.148834482759e+02 
1  1.608560771773e+01   6.563812078018e+01  -1.475604797831e+02 
1  6.131600603332e+01   1.215287488782e+02  -1.877321344960e+01 
1  1.839777934610e+01   8.817052674624e+00  -6.522574477911e+00 
1 -1.354231813705e+02   1.121493221646e+01  -7.115758537677e+01 
1 -3.068762913469e+00  -1.825548799267e+01  -4.364769934728e+01 
8
Step 500
1 -2.082587932460e+01  -2.311750885231e+01   9.585367119421e+01 
1 -3.001726483105e+01  -8.470001425524e+00   7.655274343102e+01 
1 -6.445841964108e+01  -5.950571197892e+01  -1.240230649155e+02 
1 -2.101955713572e+01   6.319699978121e+01  -1.290407128190e+02 
1 -1.145007679030e+01   5.175848350211e+01  -9.984217469103e+00 
1  2.200637105777e+01  -3.842227007442e+00  -5.535319456010e+01 
1 -6.430228496678e+01   3.173902603581e+01  -5.133471982236e+01 
1 -3.273543295408e+01  -4.180200926046e+01   2.799964076144e+01 
8
Step 600
1 -2.760276078996e+01  -1.464974811520e+01   1.020145446747e+02 
1 -3.019444517543e+01  -1.924186849804e+01   8.155396923988e+01 
1 -7.299457625778e+01  -7.984240891953e+01  -8.183325761314e+01 
1 -5.163860110179e+01   2.699489479845e+01  -7.377813859921e+01 
1 -4.901664921673e+01   1.902408083190e+01   1.747136659786e+01 
1  1.038240237430e+01   1.750836477887e+01  -6.913124205857e+01 
1 -1.768506980125e+01   1.481954001381e+01  -1.196189464421e+01 
1 -2.694774739745e+01  -3.405879390596e+01  -1.149333749520e+00 
8
Step 700
1 -9.610003576431e+00  -2.062611343542e+01   7.984336547140e+01 
1 -2.320722811272e+01   1.994507396038e+01   1.647297553023e+01 
1 -8.016208216207e+01  -7.574052388014e+01   5.854281362269e+00 
1 -5.377784973096e+01   2.504851115410e+01  -2.535290061680e+01 
1 -4.305686642785e+01   2.464573793187e+01   4.583203136824e+01 
1  5.465275008411e+00   2.382840211258e+01  -7.414653824541e+01 
1  7.739030148489e+00  -2.312442597710e+01  -2.051639705466e+01 
1 -1.739161933655e+01  -3.312720445136e+01  -4.595344976132e+01 
8
Step 800
1 -3.771394459215e+01  -3.894142306832e+01   8.242238956449e+01 
1  1.765805700476e+01   2.952599104449e+01  -7.272505566805e+00 
1 -4.866101731211e+01  -4.192587678922e+01   4.072945981007e+01 
1 -3.642384232455e+01   3.428244122357e+01  -7.117093689232e+00 
1 -3.169435236957e+01   3.995237466780e+01   4.965652926447e+01 
1 -2.478254084348e+00   3.240363398626e+01  -5.577314194853e+01 
1  1.291352101304e-01  -2.216834744699e+01  -2.407332679031e+01 
1 -8.513643416525e+00  -3.829062263712e+01  -3.241182864282e+01 
8
Step 900
1 -5.638941224522e+01  -4.607920705427e+01   6.311925916538e+01 
1  3.717706991552e+01   1.714288469364e+01  -3.622952946316e+00 
1 -3.692212661933e+01  -2.292093887059e+01   3.639980846707e+01 
1 -2.950170726294e+01   4.275463653281e+01   1.057362170097e+00 
1 -1.439527350273e+01   4.392618072499e+01   4.167401189136e+01 
1 -3.088863375602e+01   4.694045224779e+00  -1.873277823959e+01 
1 -8.849524602904e+00   8.598052228304e+00  -1.504752337183e+01 
1 -5.442957152176e+01  -2.472374215455e+01  -4.267401482518e+01 
8
Step 1000
1 -6.342861689892e+01  -3.986043197399e+01   6.508527182272e+01 
1  6.474247284826e+00   4.055204453869e+00  -1.882301682396e+01 
1 -5.138879315752e+01  -1.622606628895e+01  -5.632964152215e+00 
1 -1.582756241982e+01   2.334031498457e+01  -1.127660925731e+01 
1  8.949779818576e+00   5.226950815186e+01  -1.299085261699e+00 
1 -4.889642647328e+01  -1.554951508116e+01  -6.372968248078e+00 
1 -2.506008628946e+01   2.009015541827e+01  -3.174378109208e+01 
1 -6.498086634778e+01  -3.471267920462e+01  -3.819153739702e+01 
8
Step 1100
1 -4.776210077585e+01  -4.620112648608e+01   5.447123747598e+01 
1 -7.671756618921e+00  -8.479148858100e-01  -5.950747324333e+01 
1 -3.210001568987e+01  -1.554435207769e+01   9.038037778199e+00 
1  1.841061273866e+01   2.921720869742e+01  -3.643125219843e+01 
1 -5.444281909855e-03   4.048897611970e+01   7.903567811503e-01 
1 -3.140190979038e+01  -3.432474229881e+00  -3.945297864721e+01 
1 -4.759896433135e+01   2.402763381742e+01  -5.224311298049e+01 
1 -2.208265315440e+01  -4.080750955894e+01  -3.999090359060e+01 
8
Step 1200
1 -1.555914302776e+01  -3.722752810796e+01   9.958451644424e+00 
1 -7.087176166369e-01   1.354164888447e+01  -5.733184856947e+01 
1 -1.132028546894e+01  -2.963126587418e+01   4.150211336545e+01 
1  7.025575181123e+01   3.451446030814e+01  -6.100680619380e+01 
1 -3.460205651545e+01  -8.822980685988e+00   3.124992261990e+01 
1  2.864172839165e+00   2.598138343715e+01  -4.151333133875e+01 
1 -1.895735194646e+01   4.198636569970e+00  -5.147418532562e+01 
1  5.642857777840e+00  -1.265612502790e+01  -1.453519009092e+01 
8
Step 1300
1 -1.503589075314e+01  -1.133630996651e+01   2.030468592935e+01 
1 -1.142819122377e+01   1.102070938780e+01  -3.476654461402e-02 
1  3.950927104948e+00  -2.918397816703e+01   5.298841691847e+01 
1  4.498530018569e+01   1.698737049924e+01  -6.961833853263e+01 
1 -5.499640465526e+01  -8.380968734737e+00   5.084180518444e+01 
1  2.622321566693e+01   4.355703256807e+01   3.084959705859e+01 
1  1.674271048171e+00   9.828184264100e+00  -3.427658526966e+01 
1  3.322768887384e+01  -1.907877620501e+01   1.152189167439e+01 
8
Step 1400
1 -8.052143058842e+00   1.095001311439e+01   1.321757074019e+01 
1 -2.789736289887e+01   4.689185042672e+00   8.319959493074e+00 
1  3.568439382066e-01  -3.232391264902e+01   1.992044158495e+01 
1  2.629161371084e+01   3.301088761015e+01  -3.731586041457e+01 
1 -4.015190386058e+01   2.859369655988e+01   3.354188988284e+01 
1  1.815552501575e+01   2.580145277266e+01   5.162017832922e+01 
1  3.668778984869e+01   1.332702513332e+01   1.899297731474e-01 
1  5.670441872187e+01   9.192121677639e-01   3.538440859853e+01 
8
Step 1500
1 -5.054172364088e+01   8.627432481651e+00   9.017078467004e+00 
1 -8.282012683431e+00  -7.513843115441e+00  -1.398228104383e+01 
1 -2.454503755582e+01  -4.679466624895e+01   1.139814743934e+00 
1 -4.276691181162e+00   1.786002363071e+01  -1.245992683604e+01 
1 -1.352407568855e+01   8.269657577487e+01   4.346824585710e+01 
1 -3.720679944761e+01  -6.834918197572e-01   5.037477979157e+01 
1  7.896172975972e+01   8.601604988509e+00   3.155407740018e+01 
1  1.620014862565e+01  -3.156703444140e+00   4.428629631127e+01 
8
Step 1600
1 -3.927657439878e+01   6.467198074118e+00   1.893923646417e+01 
1  1.012933939261e+01   1.487682859132e+00  -1.296935128395e+01 
1 -1.971996385475e+01  -1.120965359939e+01   2.686607158471e+00 
1  8.963959977333e+00   9.200156511598e+00   2.387922600219e+01 
1 -2.729311453633e+01   1.119874896681e+02   2.861739849031e+01 
1 -5.701737991791e+01  -2.608973069755e+01   3.658936250166e+01 
1  1.096268033695e+02  -2.378222006923e+01   3.724688570855e+01 
1 -1.206828769680e+01  -2.501890114531e+01   4.498053971759e+00 
8
Step 1700
1  1.974641638882e+01  -2.714401790099e+00   2.653579298318e+01 
1  1.164784433522e+01   1.404259417484e+01  -1.723670564019e+01 
1  4.327023970783e+00  -1.284823206360e+00   3.904551431277e+01 
1  3.780801642815e+01   8.490391659379e-01   2.778212249795e+01 
1 -1.289187072712e+01   9.697827239450e+01  -9.597012776647e-01 
1 -2.332335661841e+01  -3.232751819441e+01   1.924527055824e+01 
1  9.973881769464e+01  -6.798752236606e+00   1.615449224474e+01 
1 -2.643977273476e+00  -4.059176168964e+01   1.000351460861e+01 
8
Step 1800
1  5.130753468086e+01  -4.703082035935e-01   2.934133122689e+00 
1  8.029272499730e-01   6.936826116669e-02  -6.373174589864e+01 
1  2.118705177476e+01   4.045253140127e+00   5.411464892539e+01 
1  5.887954674076e+01   3.631403918046e+00   6.009624598262e+01 
1 -1.479639265911e+01   6.516157454693e+01   1.805178930665e+01 
1 -4.166679678048e+00  -4.230285583722e+01   2.215136022984e+01 
1  4.225741091678e+01   1.438754281925e+01   1.835087095388e+01 
1  1.951675482217e+01  -3.979605361558e+01   4.238869034228e+01 
8
Step 1900
1  4.320146947743e+01  -1.747608184054e+01  -7.586638098841e-01 
1 -1.097096199052e+01  -3.184611174336e+01  -5.988949153846e+01 
1  2.116651263121e+01  -1.927983883342e+00   5.970048271119e+01 
1  5.176499667618e+01  -1.593747267003e+01   4.723834454717e+01 
1 -2.868420750694e+01   6.164160697414e+01   5.971068228584e+01 
1 -1.873602246673e+00  -5.567908614457e+01   7.699627907806e+00 
1  5.053851355937e+01   1.907275623016e+01   1.683950477018e+01 
1  4.548348531126e+01  -1.657637008635e+01   4.756548626690e+01 
8
Step 2000
1  4.007352053860e+01  -3.358500856432e+01  -1.914251354119e+01 
1 -1.263020142201e-02  -9.213038817263e+01   1.079376042688e+00 
1  1.201252797290e+01  -9.585558117171e+00   5.472693197845e+01 
1  3.046694625119e+01  -1.640008163038e+01   4.061659167100e+01 
1 -2.088479295880e+01   4.909737025150e+01   2.832253797859e+01 
1 -2.580528686324e+01  -3.066701431163e+01   6.584173847322e+00 
1  4.512138144646e+01  -1.706378600405e+01   4.312409969890e+01 
1  2.977579963161e+01  -5.071837313220e+00   3.439835209767e+01 
8
Step 2100
1  3.965075315658e+01  -2.622100510735e+01  -4.067173232742e+01 
1  3.873345324221e+00  -1.207417217550e+02   5.582337705369e+01 
1  8.863925546135e-01  -2.233190221854e+01   5.372423433406e+01 
1  3.990428861060e+01   7.785510259700e+00   3.147909607510e+01 
1  3.044500785003e+01   2.233675698338e+01  -1.126596613432e+00 
1 -3.135778128134e+01  -5.046994769436e-01  -3.121683789317e+00 
1  6.690626961774e+01  -4.787853597506e+01   7.398745397767e+01 
1 -1.699663111573e+00   6.249819212094e+00   2.067407941263e+01 
8
Step 2200
1  2.360925463418e+01  -1.367991354340e+01  -1.797981277677e+01 
1 -1.249598651022e+01  -1.018216305130e+02   8.560696892195e+01 
1 -4.675432895207e+01  -3.862601323539e+01   3.661445184156e+01 
1  2.196873544131e+01  -1.396313166094e+01   4.420594100000e+01 
1  5.884942103909e+01  -2.377118291613e+01   1.268278722839e+01 
1 -2.549039079276e+01  -1.008871126938e+01  -1.855595000487e+01 
1  4.809242407672e+01  -3.069335965960e+01   3.926784310224e+01 
1 -1.521319114779e+00   2.552045830674e+01   1.785591127950e+01 
8
Step 2300
1  8.675431207150e+00  -3.529825414548e+01  -1.717543461216e+01 
1 -1.809875579575e+01  -9.014083823729e+01   8.501542324272e+01 
1 -7.299066674823e+01  -2.031859608144e+01   4.688820876143e+01 
1  1.125985837600e+01  -2.321118314430e+01   1.762223583390e+01 
1  4.411127511984e+01  -3.807094808347e+01   2.321078152848e+01 
1 -1.890971359879e+01  -2.686705979239e+01  -4.304011826966e+01 
1  2.622562211541e+01   1.491766648323e+01   1.315462301928e+01 
1  2.149263263422e+00   4.704911510651e+01  -1.122852525348e+01 
8
Step 2400
1 -3.310278048807e+01   9.876909112979e+00   1.933646477958e-01 
1  4.137075594395e+01  -6.475483783995e+01   1.828595527942e+01 
1 -4.911427643980e+01  -1.154290563248e+01   4.037860383211e+01 
1 -9.097190160374e-01  -3.322744946396e+01  -8.678680781517e+00 
1  3.588890186978e+01  -3.372024711145e+01   4.481613300191e+01 
1 -1.565975618962e+01  -2.212943107434e+01  -3.999743594935e+01 
1  1.615726028935e+01   1.292645199120e+01  -8.846055800360e+00 
1 -9.622493204650e+00   4.315844444818e+01  -3.715684085212e+01 
8
Step 2500
1 -4.725963259025e+01   3.969929493255e+01  -1.262055334338e+01 
1  4.442782751992e+01  -8.297613987145e+01  -3.030465075932e+01 
1  8.036305277361e+00   4.903790049476e+00   2.532962271045e+01 
1 -2.125951986049e+01  -3.463194017584e+01   1.253311693065e+01 
1  4.104079936126e+00  -1.564858554622e+01   3.105224470329e+01 
1 -2.242357170225e+01   3.785770023318e+01   1.518484027264e+01 
1  3.967098446765e+01  -3.402672668798e+01  -3.743393030023e+01 
1 -1.701027109214e+00   3.798506574550e+01  -4.838289967035e+01 
8
Step 2600
1 -2.266872203056e+01   4.153410359347e+01  -6.393321790283e+00 
1  5.345084584098e+01  -7.445419288193e+01  -3.878086832926e+01 
1  3.005751994121e+01   1.301308100888e+01  -3.670607019305e+00 
1 -1.221188717405e+01  -1.787954852098e+01  -1.995390351783e+01 
1 -3.808644957292e+00  -1.124987926442e-01   2.947433212391e+01 
1 -3.567781087132e+01   5.944535537723e+01   5.785949479385e+01 
1  4.694232688468e+01  -8.837308887599e+01  -4.044078064360e+01 
1  2.127600328158e+01   9.059893479185e+00  -5.594158090209e+01 
8
Step 2700
1 -6.382489410750e+00  -3.380760750211e+00  -3.022249523703e+01 
1  6.148612848091e+01  -5.730720016781e+01  -2.691008805346e+01 
1  6.017904058939e+00   3.207707437929e+00  -9.450584993263e+00 
1 -6.127661632612e+00  -2.406591364262e+00  -2.881467642184e+01 
1 -1.113755712930e+01  -3.008630697389e+00   3.286595369451e+01 
1 -2.091747691215e+01   4.854689077972e+01   4.459730505070e+01 
1  2.082579625215e+01  -1.235985269718e+02  -4.454913297061e+01 
1  7.308969080711e+00  -1.251321919576e+00  -1.956483880348e+01 
8
Step 2800
1  1.999174947811e+01  -4.140451955909e+00   8.283794327744e-01 
1  6.428479393740e+01  -5.931040835959e+01  -3.051851369417e+01 
1  1.806859933810e+01  -4.793438892864e+00   1.545081055414e+00 
1 -2.301150577826e+01   2.088594997841e+01   1.485023148699e+00 
1  1.002215161784e+01   2.292386647671e+00   3.703717919322e+01 
1  1.670475897368e+01   3.770959170236e+01  -5.183564864843e+00 
1  1.266547646191e+01  -1.103046990329e+02  -3.916633060902e+01 
1  4.117946560896e-01  -3.540015360629e+01   2.254558880990e+01 
8
Step 2900
1  2.532504418155e+01   1.335457733094e+01   3.483247204768e+01 
1  7.344891788139e+01  -7.750286396852e+01  -1.419627700781e+01 
1  4.920425420641e+01  -2.742973783333e+01   2.085745982566e+01 
1 -3.859747110825e+01   2.571307000644e+01   5.885992868579e+00 
1  2.239286274399e+01  -6.007457220388e+00   5.466116077431e+01 
1  1.515931357179e+01   1.937993511388e+01  -6.665740567952e+00 
1 -1.528270436102e+01  -4.167575871125e+01  -3.672764401565e+01 
1  3.750128789913e+01  -6.341430824939e+01   1.775864593600e+01 
8
Step 3000
1  2.057817620022e+01  -1.993948378113e+01   3.246459952708e+01 
1  5.648219771332e+01  -5.857049811444e+01   9.515076474021e+00 
1  7.381804745332e+01  -4.144862951225e+01   1.354678893513e+01 
1 -1.620343257649e+01   2.255280981768e+01   1.106319495984e+01 
1  3.139553911670e+01  -3.932516151575e+00   6.230274055925e+01 
1  1.681671213088e+01   2.483072709484e+00   2.027305175087e+01 
1 -2.311463517133e+01   3.544308431238e-01  -3.558034240029e+01 
1  6.042332269376e+01  -1.129429778026e+02   1.436665588435e+01 
8
Step 3100
1 -1.807588308957e+01  -5.578769001670e+00   3.259352274711e+01 
1  4.390387457189e+01  -5.597970278632e+01   1.065763952411e+01 
1  4.550490340574e+01  -3.304211300090e+01  -1.031465205538e+01 
1 -8.763276929169e+00   2.582867268352e+01  -3.285522284017e+00 
1  1.213784195353e+01  -7.480647130989e+00   5.825607145901e+01 
1  6.953068384847e+00   7.959285123808e+00   4.129621800049e+01 
1  1.540137155399e+01   7.084752755636e-01  -9.240173453356e+00 
1  5.831787882576e+01  -1.372790505989e+02  -4.470025370382e+00 
8
Step 3200
1 -4.702966502555e+01   3.151705478321e-01   6.216777926191e+00 
1  3.694304071181e+00  -5.897882892129e+01   3.758219657300e+01 
1  4.797120899769e+01  -3.252787242230e-01   8.824893832326e+00 
1  1.218615028351e+01   1.073047079076e+01  -1.660445030104e+01 
1  2.363835118771e+00  -2.123506978440e+01   2.437361424368e+01 
1 -1.440212043379e+01  -3.137410600718e+00   1.687098549861e+01 
1  9.315029559627e+00   1.303494255100e+00   1.600467516990e+01 
1  5.951480122805e+01  -1.100880952465e+02  -9.950615199733e+00 
8
Step 3300
1 -3.074920653685e+01   5.358916267992e+00  -1.733430031123e+01 
1 -3.921021812475e+01  -2.982674567250e+01   7.645448335674e+01 
1  4.146880674505e+01  -2.513967621005e+00   6.150641448115e+01 
1  5.455745530501e+01  -1.266423831265e+01  -2.788171689710e+01 
1 -2.326198095748e+01  -5.159844567217e+01  -8.620762099083e+00 
1 -3.948070886356e+01  -2.756714763252e+01  -1.758999862058e+01 
1  1.546467273700e+01   1.182975335491e+01   2.188954973264e+01 
1  5.340320875762e+00  -6.434636907250e+01  -1.457449016366e+01 
8
Step 3400
1  6.328700840469e+00  -6.731330036220e+00  -9.430165485699e+00 
1 -3.155535890345e+01  -2.184843230959e+01   7.305644738885e+01 
1  2.791559114723e+01   1.008428375483e+01   5.331407564913e+01 
1  2.254432187101e+01  -5.258016740076e+01  -1.530168453076e+01 
1 -2.493303401785e+01  -6.396273342176e+01   1.540860627899e+01 
1 -7.166024101449e+01  -1.923771894574e+01  -1.084480639766e+01 
1  1.658762185579e+01  -1.903596315416e+01   2.297312889306e+00 
1 -2.109201438275e+01  -2.515863417961e+01  -3.834119477907e+01 
8
Step 3500
1  5.143487474802e+01  -2.565028328468e+01  -7.349616649613e+00 
1 -7.689409865564e+00  -3.620834566838e+01   8.681477480773e+01 
1  5.794493172798e+00   7.226102723053e+00   1.465146494415e+01 
1  7.110330155481e+00  -5.484955002474e+01   1.569085711737e+00 
1 -2.706052438697e+01  -6.175130899651e+01   5.263136144820e+01 
1 -9.094556643214e+01  -3.651839726950e+01   1.154877814898e+01 
1 -5.060425863644e+01  -2.939975228802e+01   8.315506499570e+00 
1 -1.568258590307e+01  -6.456005675730e+00  -5.112829585222e+01 
8
Step 3600
1  7.157184072177e+01  -5.892957996823e+01  -1.034340742553e+01 
1 -4.298448890793e+01  -4.823482924569e+01   4.816412983398e+01 
1  7.769056893261e+00  -5.022885286144e+00   1.242930030089e+01 
1  2.153643731396e+01  -4.184201413551e+01   1.503274558581e+01 
1 -1.700800936394e-01  -4.893574891133e+01   4.933910863282e+01 
1 -9.145768971759e+01  -2.477177388120e+01   3.022447003927e+01 
1 -6.640622712673e+01  -1.537916927695e+01   1.860213573488e+01 
1  1.316741276435e+00   4.760424793707e+01  -2.373704462096e+01 
8
Step 3700
1  4.583227521878e+01   8.373672433070e+00  -3.311159842426e+01 
1 -4.438020887195e+01  -3.141836905457e+01   8.207056311982e+00 
1  2.795245526208e+01  -1.262419092642e+01   1.270236127389e+01 
1  1.974709116974e+01  -7.126401340445e+00   1.901564881607e+01 
1  1.911607844969e+01  -1.987748247181e+01   6.652223840737e+01 
1 -4.796725007222e+01  -2.337764302335e+01   3.931797694413e+01 
1 -3.464620231813e+01   8.322036744531e+00   3.624365764066e+01 
1 -8.137407963877e+00   6.399938452113e+01   1.534603618791e+00 
8
Step 3800
1 -2.529587808556e+01   5.315906482252e+01  -2.177700503272e+01 
1 -5.396325345396e+01   1.116165191290e+00  -1.955409928640e+01 
1  2.745269302582e+01  -1.347894912103e+01   2.211699173289e+01 
1  2.354711912861e+01  -2.718721545626e+01  -1.053407573495e+01 
1  3.416475985697e+01  -2.664572588266e+01   6.901453659417e+01 
1 -3.482836298586e+01  -3.981937441826e+01   2.327103006005e+01 
1 -1.924869875036e+00   1.945540466400e+01   4.810567965373e+01 
1 -4.065603140683e+01   6.001591814633e+01   2.398592040985e+01 
8
Step 3900
1 -2.746456942492e+01   2.321032310554e+01  -3.740212060721e+01 
1 -4.004037972670e+01   3.613209551858e+01  -1.652116638694e+01 
1  2.189056039284e+01  -1.343350548517e+01   3.723297171498e+01 
1 -5.182792918360e+00  -2.203422507673e+01  -2.406283161732e+01 
1  3.812700219882e+01  -2.635480289549e+01   3.174392051850e+01 
1 -4.135886246027e+01  -5.844240541651e+00  -4.180123733791e-01 
1 -1.629493436304e+01   1.573501654324e+01   6.531992639677e+01 
1 -3.427925407764e+01   3.905262276715e+01   1.079352846167e+01 
8
Step 4000
1 -6.613302445654e+00  -2.291345475628e+01  -4.704399331252e+01 
1 -8.250401050444e+00   1.540305609621e+01  -1.956976298486e+01 
1  3.783509696624e+01  -7.405128816829e+00   1.816037695861e+01 
1 -3.874162578293e+01  -3.747989591444e+01  -3.145245371614e+01 
1  2.511363763452e+01   1.509255021843e+01   1.751482763643e+01 
1 -3.968256570664e+01   1.666811442666e+01  -1.890554255872e+01 
1 -7.880049213794e-01   4.859586853232e+01   5.605359603821e+01 
1 -4.077471020317e+01   7.178401965865e+00   1.785815789983e+01 
8
Step 4100
1  1.582746399586e+01  -2.327507150806e+01  -7.227358019808e+01 
1 -1.058963803511e+01  -2.039147323612e+01  -2.467816355135e+01 
1  1.749976278787e+01  -5.494686717340e+01   8.312558988150e+00 
1 -5.456645308231e+01  -1.686251505971e+01  -3.459040774355e+01 
1  1.265177749180e+01   4.907676790911e+01   8.164029211202e+00 
1 -3.666930835604e+01  -3.964353629298e+00   7.878541949833e+00 
1  8.022414605668e+00   6.149961723693e+01  -3.207660808246e+00 
1 -2.005185211535e+01   2.758381085920e+00   2.597004188493e+01 
8
Step 4200
1 -8.154810510423e+00  -2.235413651242e+01  -9.406294949861e+01 
1 -1.931944195932e+01  -2.693269232859e+01  -5.383090933346e+00 
1  4.832709949870e+00  -4.691281685585e+01   1.184371855405e+01 
1 -1.518262520952e+01  -5.325543515947e+01   1.387033734640e+01 
1  1.500781620087e+01   2.631048298756e+01   4.026357769171e+01 
1 -3.482760181221e+01  -3.296647407055e+01   4.623225710420e+01 
1  7.529172845162e+00   3.902327692365e+01  -5.567455938724e+01 
1 -3.364580245042e+01   1.959322764117e+01   3.071332343750e+01 
8
Step 4300
1 -3.073785304358e+01  -3.958586372445e+00  -8.858973864537e+01 
1 -2.059416289080e+01  -2.123644803396e+01   7.327971925258e+00 
1 -1.605993133465e+01  -2.776224957153e+01   1.458711636792e+01 
1 -1.251203855372e+01  -6.944374511023e+01  -1.047491304566e+01 
1  9.337265833173e+00   3.203395769885e+00   3.165613516351e+01 
1 -6.612225079786e+00  -2.067964501458e+01   3.632182948586e+01 
1  1.694815334907e+01   2.868604084497e+01  -7.066361777501e+01 
1 -4.155245655539e+01   4.242916305993e+01   3.214818445055e+01 
8
Step 4400
1 -3.255630056811e+01  -2.686738587236e+01  -4.445440547943e+01 
1 -6.009805830071e+01  -1.664585995981e+01   8.022051940134e+00 
1 -2.324834589356e+01  -2.847006480224e+01   2.029390575533e+01 
1 -5.560923391941e+01  -6.585675632309e+01  -2.806749032936e+01 
1 -2.700612776387e+01   1.669177060718e+01  -6.129991470778e+00 
1  3.617978568437e+01   1.059325171770e+01   1.246624923676e+01 
1  1.382700632787e+01   2.308241033057e+01  -2.891666638520e+01 
1 -1.571069724660e+01   6.010997374517e+01   4.904382090065e+00 
8
Step 4500
1  3.728072898660e+00  -4.194114073095e+01  -2.064367915049e+00 
1 -6.609081217369e+01  -2.165897384671e+01   1.022312831382e+01 
1 -3.708467002443e+01   1.536840260645e+00   3.177578203312e+01 
1 -7.366913532047e+01  -4.359553638406e+01  -3.809315912524e+01 
1 -3.642527567645e+01   2.752750486932e+01  -1.786354649314e+01 
1  2.547054131445e+01   4.557391828201e+01  -2.143350520568e+01 
1  1.473030031238e+01   5.975589734651e+01  -1.245573974290e+01 
1 -1.950938822281e+01   6.818368294830e+01  -2.897232121033e+00 
8
Step 4600
1  2.872609205319e+01  -3.902315513069e+01   9.859764198936e+00 
1 -5.050250525541e+01  -1.377952266411e+00   2.262592430422e+01 
1 -3.151232666008e+01  -3.726365354694e+00   2.925147017270e+01 
1 -6.127519614896e+01  -1.512891454595e+01   1.781665014219e+01 
1 -8.623979525019e+00   3.755762062310e+01  -9.277849839786e+00 
1  9.702241933182e+00   1.508245057998e+01  -5.666431756279e+01 
1 -6.024797180506e+00   5.671674338830e+01   8.924886576894e+00 
1 -3.474504160666e+01   3.835164098044e+01   3.048138636916e+01 
8
Step 4700
1  2.589561758457e+01  -4.819487683557e+01   1.113200885651e+01 
1 -2.056363828219e+01  -1.515679111807e+01  -1.959069936654e+00 
1 -4.266726716183e+01   1.188256036896e+01   4.008480378682e+01 
1 -6.965024035442e+01  -4.492652721810e+00   7.864701881857e+01 
1  4.506885661702e+00   3.288206912037e+01   4.127814457906e+00 
1 -3.831479020762e+01  -3.718150942173e+01  -9.421959803545e+01 
1 -2.598859882996e+01   6.415757672003e+01  -5.438486565079e+00 
1 -1.647880867853e+01  -6.663014419789e+00   2.216670288406e+01 
8
Step 4800
1 -2.785145090806e+00  -6.506717309683e+01  -2.950239314129e+01 
1  1.481275271249e+01  -2.476796781199e+01   5.664366728847e+00 
1 -3.578461670108e+01   5.098972324024e+01   4.862350548469e+01 
1 -6.201051954531e+01  -1.045401912857e+01   5.629647473241e+01 
1  1.434543443279e+00   2.256824694723e+01   4.613927646750e+00 
1 -6.206472000058e+01  -4.503777238669e+01  -6.107391513360e+01 
1  1.579934479937e+01   7.201473446345e+01  -2.696495920004e+01 
1  2.366125287729e+01  -1.239922941630e+01   1.232645693743e+01 
8
Step 4900
1 -2.484267230742e+01  -3.886859017471e+01  -6.145899710049e+01 
1  3.511363099329e+01  -4.942139583430e+00   1.180671433512e+01 
1 -5.539896844574e+01   4.288222779910e+01   3.471403503805e+01 
1 -3.594799931745e+01   1.319249603216e+01   7.703438393450e+00 
1  1.080811906042e+01   2.624976963826e+01  -1.181381857064e+01 
1 -4.285802272778e+01  -3.709453250828e+01   5.378017900991e+00 
1  2.779254215707e+01   7.632424355191e+01  -6.414535411300e+01 
1  1.902852834756e+01  -1.837349186925e+01   4.312983743080e+01 
8
Step 5000
1 -1.471924019139e+01  -2.019026786154e+01  -3.691629081719e+01 
1  1.832295223996e+01  -4.351889954811e-01   1.767960752423e+00 
1 -5.590894351277e+01   1.333423617966e+01   1.010980669790e+01 
1 -3.213423645620e+01   5.331611676588e+00   2.482796660421e+01 
1 -1.491409400263e+00   3.836102724507e+01  -1.500823381398e+01 
1 -1.503535178024e+01  -3.378437009489e+01   3.614827127186e+01 
1  1.963360787283e+01   4.103553664792e+01  -7.263432924431e+01 
1 -5.279373707622e+00  -3.815262483400e+01   3.052333650003e+01 
8
Step 5100
1  4.760688836686e+00  -3.613915236711e+01  -2.349830418282e+01 
1 -1.919579433799e+01   2.370717087581e+01  -2.236181600263e+01 
1 -3.670448854190e+01  -4.880176190735e+00  -1.893891172577e+01 
1 -2.109158744433e+01   2.506141563467e+00   2.273140705521e+01 
1 -1.307149454740e+01   3.740945462388e+01   3.541444869650e+01 
1 -3.723543516600e+00  -2.769467968822e+01   2.196674804687e+00 
1 -1.090759968315e+01  -5.093000384443e+00  -6.159849339019e+01 
1  1.015826255693e+01  -1.241443613166e+01   1.212544612221e+01 
8
Step 5200
1 -3.774269864725e+00  -8.405605925750e+01   4.813428524747e+00 
1 -4.094478431605e+01   3.120180359951e+01  -3.845772919252e+01 
1 -1.915103634496e+01   3.326529325775e+00   9.530871721081e+00 
1 -2.115781758466e+01  -1.170910130772e+01   3.688828607132e+00 
1 -1.839535097673e+01   2.332513601013e+01   5.913006169677e+01 
1 -2.639496498664e+01   1.156290247218e+00   5.941917646618e-01 
1 -7.458198726637e+00  -3.856995534277e+01  -3.493284387475e+01 
1  2.144282385966e+01  -1.117803416312e+01  -2.240505543736e+01 
8
Step 5300
1 -1.256874175102e+01  -7.095042590620e+01   1.156840277704e+01 
1 -4.658261695467e+01   2.524561411832e+01  -2.114515048299e+01 
1 -1.337041511117e+01   2.267065271207e+01   1.024007873564e+01 
1 -4.002657158822e+01  -2.734528916542e+01   1.208012638600e+01 
1 -2.087269742212e+01   1.108017253097e+01   4.604093774047e+01 
1 -2.020939445119e+01  -1.388712754408e+01   2.730160727856e+01 
1 -4.665267493969e-01  -4.352803121449e+01  -2.321627415066e+01 
1  2.084166147470e+01  -2.712421214427e+01  -1.960800060589e+01 
8
Step 5400
1  3.244029787587e+01  -4.320118089286e+01   7.931094299534e+00 
1 -5.762026804995e+01   1.261936107661e+01  -5.013084470290e+00 
1 -1.706253098951e+01   2.419409310895e+01   1.818562139066e+00 
1 -4.478117657413e+01  -5.778929121313e+01   9.956377619121e+00 
1 -2.308449676465e+01   3.880965553212e+01   1.904142431179e+01 
1 -3.833683085350e+01  -3.194583188895e+01   4.615456839162e+01 
1 -1.099714652105e+01  -3.629206299636e+01   6.567022408713e-01 
1 -1.176260964853e+01  -3.123874749389e+01  -2.715743264405e+01 
8
Step 5500
1  5.802877973064e+01   8.565668414814e+00  -9.532686685661e+00 
1 -1.941408295318e+01   2.963862617211e+00  -4.902914486005e+00 
1 -3.539756559296e+01   2.603849854461e+01  -1.365087176229e+01 
1 -3.223945739183e+01  -7.440629358587e+01  -1.169690585354e+01 
1 -5.356624092531e+01   4.261216513474e+01   1.406150113794e+01 
1 -4.600138193562e+01  -4.705914660744e+01   7.521737170833e+01 
1 -1.396657263589e+01  -2.047470891765e+01  -1.011301396781e+01 
1 -8.062845522656e+00  -4.240258233669e+01  -1.158808218727e+01 
8
Step 5600
1  3.111289587447e+01   2.579246568571e+00  -3.233338436200e+00 
1  3.636358076326e+01   2.299582549298e+01  -2.940665456181e+00 
1 -5.842258213173e+01   2.554152871379e+01  -8.365559231171e+00 