8
Step 0
1 -2.158830235783e+02  -3.142408652792e+02   1.167810667624e+02 
1  3.296897109744e+02  -5.507807655964e+02   2.693926396295e+02 
1 -2.669372731777e+02  -5.431606441563e+02  -6.222014149850e+01 
1 -3.552929618605e+01  -4.177581202499e+02  -5.317095545143e+02 
1  6.240102309409e+02   4.422151443761e+02  -5.955950649110e+02 
1  2.819999597600e+02  -3.673184511150e+02   2.540559007329e+02 
1  8.371624351045e+01   3.742086875642e+01  -2.962222465916e+02 
1  3.559014991594e+02   1.441370710462e+02   6.379664327236e+02 
8
Step 100
1 -2.058160258601e+02  -2.724201720742e+02   1.186774663283e+02 
1  3.007643990729e+02  -4.651601000158e+02   2.372669212881e+02 
1 -2.821449439503e+02  -4.576617948094e+02  -5.417401207957e+01 
1 -9.037142058337e+00  -3.522003676910e+02  -4.699335305355e+02 
1  5.283902923315e+02   4.242002147947e+02  -4.865547028515e+02 
1  2.467176790052e+02  -2.694396808389e+02   1.868590303651e+02 
1  5.896565056694e+01  -4.534509018995e+00  -2.779863041853e+02 
1  3.340305600576e+02   7.876442181679e+01   5.580914249507e+02 
8
Step 200
1 -1.589609719102e+02  -1.859334391706e+02   1.158271772577e+02 
1  1.980762149365e+02  -2.735942530187e+02   1.384194142985e+02 
1 -2.570947003698e+02  -3.287379276202e+02  -6.036066725448e+01 
1  2.941829752966e+01  -2.113902942783e+02  -3.795288392482e+02 
1  3.597139697596e+02   3.548410431766e+02  -2.800623617064e+02 
1  1.621518598762e+02  -1.178730429169e+02   8.611691713884e+01 
1  1.005833383437e+01  -1.804362004842e+01  -1.999733463520e+02 
1  2.881404763205e+02  -3.727766137554e+01   3.862549558663e+02 
8
Step 300
1 -1.296548110534e+02  -1.119402961954e+02   1.231234997657e+02 
1  1.059940744943e+02  -1.143964272793e+02   4.428473447219e+01 
1 -2.209618286222e+02  -2.115239514191e+02  -5.476886236803e+01 
1  3.113576019741e+01  -9.438950437456e+01  -2.945853808923e+02 
1  2.186235626864e+02   2.697941748875e+02  -1.319034073916e+02 
1  8.258301037511e+01  -1.251891579248e+01   2.814074807385e+01 
1 -3.679753182609e+01  -2.767647140642e+01  -1.479288857042e+02 
1  2.521330541783e+02  -1.285137915955e+02   2.256870056324e+02 
8
Step 400
1 -1.120821523516e+02  -5.576036376895e+01   1.150467669496e+02 
1  3.782526141505e+01  -2.006098465046e+01   2.284403945959e+01 
1 -1.979587862642e+02  -1.298270377517e+02  -4.256122269303e+01 
1  3.911824991792e+01  -2.997395601655e+01  -2.062276599796e+02 
1  1.331921102413e+02   2.005540552150e+02  -5.374346208059e+01 
1  3.234581355164e+01   4.432018329116e+01  -5.452225570117e-01 
1 -7.767807588695e+01  -1.549573243516e+01  -8.771680670880e+01 
1  1.997533152918e+02  -1.563082616560e+02   1.329632315882e+02 
8
Step 500
1 -8.399550402632e+01  -2.155098440116e+01   1.012109855773e+02 
1 -1.225932425090e+01   1.051965790044e+01   2.198763815385e+01 
1 -1.439686082795e+02  -1.047369142233e+02  -5.291639039506e+01 
1  5.692363990592e+01   2.528511762061e+00  -1.436758716529e+02 
1  6.660931618396e+01   1.551765056966e+02   1.149448448493e+01 
1  1.259982533550e+01   6.402231807972e+01  -1.860372138368e+01 
1 -6.219252220173e+01  -2.007304530888e+01  -4.063510661830e+01 
1  1.381570488251e+02  -1.463897864667e+02   4.978241137758e+01 
8
Step 600
1 -6.553416502636e+01  -6.047997965320e+00   8.151205125953e+01 
1 -8.577177375628e+00   1.564301973265e+01   3.213956385699e+01 
1 -1.075179960511e+02  -9.680545405168e+01  -6.364808329462e+01 
1  4.360998809355e+01   3.554428264223e+00  -9.545343297007e+01 
1  2.700411618144e-01   1.138926914597e+02   2.203316655590e+01 
1 -1.902010833614e+01   5.978016783412e+01  -2.812267216605e+01 
1 -2.930499709352e+01  -2.516604691168e+01  -1.379056896757e+01 
1  6.893119425929e+01  -9.323569431260e+01   2.499646805120e+01 
8
Step 700
1 -5.358582983063e+01  -2.854955877650e+00   6.937620272552e+01 
1  1.314713130142e+01   2.465373239017e+01   3.816842389788e+01 
1 -7.442575770228e+01  -8.443910673833e+01  -5.302858092411e+01 
1  5.110202326869e+01  -5.383224960134e+00  -6.415275829631e+01 
1 -2.727277594491e+01   7.048260442696e+01  -3.423189265891e+00 
1 -4.203149726345e+01   5.117794843267e+01  -2.158711573776e+01 
1 -2.352349709230e+01  -1.951516447500e+01  -1.646082853358e+01 
1  3.133397939147e+01  -5.897528430491e+01   1.281269589153e+01 
8
Step 800
1 -2.888810366088e+01  -6.592010196171e+00   5.609165680122e+01 
1  4.053707486827e+01   4.255652758529e+01   5.270166198372e+01 
1 -4.335284429984e+01  -5.790216838110e+01  -4.080000709697e+01 
1  3.268854958167e+01  -1.996542193728e+01  -3.678890393026e+01 
1 -2.690589773534e+01   3.697290020625e+01  -2.229721218277e+01 
1 -3.317403529911e+01   4.429446569397e+01  -1.920546686782e+01 
1 -7.901602153792e+00  -8.851821001897e+00  -3.262208517615e+01 
1 -7.820027427873e-01  -3.917582529414e+01   7.124012487767e+00 
8
Step 900
1 -2.882414350663e+01  -1.349842785116e+01   5.255506001343e+01 
1  4.719045654080e+01   2.458558442717e+01   4.902039560435e+01 
1 -4.768797815240e+01  -5.686032282614e+01  -2.744948035907e+01 
1  2.764844142177e+01  -3.475463893100e+01   1.023674594557e+00 
1 -2.989713799275e+01   2.460383094911e+01  -3.523135241756e+01 
1 -8.847033871003e+00   5.246373606251e+01  -8.287266542582e+00 
1  7.479002069060e-03  -1.131375722784e+01  -4.206030058348e+01 
1 -1.264047040338e+01  -2.150807974159e+01  -3.465424813707e+00 
8
Step 1000
1 -2.357767428248e+01  -2.910670090952e+01   6.110142203374e+01 
1  4.236010161845e+01   3.228063247481e+01   5.292164571309e+01 
1 -3.809497775760e+01  -7.256588865671e+01  -3.693646848587e+01 
1  8.470033942780e+00  -3.601661447095e+01   4.862147190304e+00 
1 -4.511979063349e+01   1.134005045993e+01  -5.522716888979e+01 
1  1.915850061853e+01   5.876509697505e+01  -4.752522789911e-02 
1  7.338125481422e-02  -2.386916732446e+01  -3.903683892227e+01 
1 -2.255232852655e+01  -1.267087607951e+01  -1.316476571224e+01 
8
Step 1100
1 -2.446290490534e+00  -1.346574498153e+01   6.178882432411e+01 
1  1.985263921744e+01   3.135311931798e+01   5.302261946574e+01 
1 -9.129978969026e+00  -7.688581116816e+01  -3.596304430869e+01 
1 -7.756579004248e+00  -7.269847821122e+00   2.121718993191e+01 
1 -4.504995489332e+01  -1.458121602561e+00  -6.290033640087e+01 
1  3.314956872006e+01   2.447389980756e+01   3.427367679535e+00 
1 -1.836109903729e+01  -3.164373489645e+01  -5.570644178853e+01 
1 -3.765507942457e+01  -5.760634188674e-01  -1.968109050188e+01 
8
Step 1200
1  2.281583622719e+00  -3.420378608729e-01   5.920148764181e+01 
1  7.721479148745e+00   2.344231081832e+01   4.139680918476e+01 
1  2.554750872107e+00  -6.065193715753e+01  -4.651134838627e+01 
1 -2.648082319294e+01  -1.058409653915e+01   1.725338843458e+01 
1 -5.617659681541e+01  -1.926684399012e+01  -5.364050556391e+01 
1  1.555718733265e+01  -1.033188262261e+01  -7.838566698738e+00 
1 -1.673034134891e+01  -1.430590270131e+01  -5.652515245484e+01 
1 -6.031539768661e+01   1.102822678721e+01  -1.581390069675e+01 
8
Step 1300
1  6.333977774031e-01  -5.726145439573e+00   7.470955557345e+01 
1 -1.113680328972e+01   1.564779878151e+01   3.775610775596e+01 
1  6.301405412185e+00  -4.278158387790e+01  -4.815004112584e+01 
1 -3.029682009471e+01  -3.561843326501e+01   1.551015257786e+01 
1 -5.785636750953e+01  -6.612847623765e+00  -4.522088536058e+01 
1 -1.433752737534e+01  -1.479671621863e+01   5.495248425398e+00 
1  8.423835286671e+00   9.236374771878e+00  -2.186141296703e+01 
1 -5.439709666011e+01   1.661063954379e+01   6.141194759769e+00 
8
Step 1400
1 -2.648291906359e+00   2.127204517295e+01   7.785674663805e+01 
1 -2.483659437833e+01   1.716803426023e+01   2.176635344488e+01 
1  5.849649982608e+00  -3.331622649490e+01  -2.800408252600e+01 
1 -3.708593000486e+01  -3.104208084954e+01   4.548960323904e+00 
1 -4.053178840987e+01   1.296478238858e+01  -1.401712756547e+01 
1 -1.307401863775e+01  -7.635243913481e+00  -1.477251488557e+00 
1  2.167558191236e+01   2.863321142294e+01   1.685847585485e+01 
1 -3.046997386881e+01   1.815359586324e+00   1.224362008317e+01 
8
Step 1500
1 -7.016274355427e+00  -6.949199412821e+00   3.514726646666e+01 
1 -3.416072100538e+01   1.239444037148e+01   1.531099937489e+01 
1 -9.223502129004e+00  -4.257643299117e+01  -2.073409009847e+01 
1 -2.697051696506e+01  -5.616666801925e+00  -4.096769918143e+00 
1 -3.109638460163e+01   2.788000480166e+01   7.037430067190e+00 
1 -1.941819423269e+01  -2.176496598137e+01  -5.527300285755e+00 
1  3.039845228727e+01   3.348141171487e+01   4.677603928624e+01 
1 -6.112020857757e+00  -5.673121815944e+00   3.092675888959e+01 
8
Step 1600
1 -1.415496652552e+01  -4.065869571987e+01   1.844520040608e+01 
1 -2.236764250074e+01  -1.665927968372e+01   1.075973961911e+01 
1 -6.030074792789e+00  -6.911961363198e+01  -2.416496688862e+01 
1 -2.958506522944e+01  -3.751238058904e+00  -1.891945106141e+01 
1 -5.818468346124e+01   2.013037872007e+01   8.944470711786e+00 
1 -4.592877057127e+01  -3.257558788089e+01   2.155411594210e+00 
1  4.691441209886e+01   1.665177744233e+01   5.817998883198e+01 
1 -1.848013205513e+01  -1.069066399866e+01   2.250123870156e+01 
8
Step 1700
1 -2.389778838127e+01  -6.120514732262e+01   2.703259367099e+01 
1  1.433664308787e+01  -2.996302070467e+01   7.798246566233e+00 
1  5.786769962061e+00  -8.412445803578e+01  -2.253809185923e+01 
1 -3.425175805724e+01  -4.648329137814e+00  -2.492209978096e+01 
1 -7.104062447350e+01  -4.191477282236e-01   2.547659706347e+00 
1 -7.489856108252e+01  -3.851168121022e+01   1.726422567312e+01 
1  5.395099985203e+01   4.843363135494e-01   6.702442442404e+01 
1 -4.813590330398e+01  -4.633698268348e+01   5.715822640076e+00 
8
Step 1800
1 -1.235037704443e+01  -4.159204334317e+01   4.209877737632e+01 
1  4.793163727379e+01  -4.921760016260e+01   2.535367627669e+01 
1  2.133819348632e+01  -7.634570319303e+01  -3.106472315289e+01 
1 -1.991685737833e+01   1.709917038736e+01  -2.730945502261e+01 
1 -4.244160280598e+01  -1.662089102542e+01  -2.037676723641e+01 
1 -7.641192187228e+01  -4.055638453789e+01   2.358296855391e+01 
1  5.425930385821e+01  -7.299138084336e-01   4.846656338450e+01 
1 -5.621307798968e+01  -5.389761946940e+01   7.937953079222e+00 
8
Step 1900
1 -8.640345269992e+00  -1.482825869134e+01   5.951605941028e+01 
1  4.849147020002e+01  -4.681165132791e+01   2.980006546212e+01 
1  1.723281816252e+01  -5.313999622331e+01  -2.250115540853e+01 
1  8.175478119954e+00   1.915502316920e+01  -2.992807612037e+01 
1 -1.275704013935e+01  -8.881558178550e+00  -1.067566727009e+01 
1 -5.991678040911e+01  -2.781891643514e+01   1.011972506418e+01 
1  3.916079330308e+01   1.307461682326e+01   2.104106545717e+01 
1 -4.042975438646e+01  -2.257581674587e+01  -9.510965887264e+00 
8
Step 2000
1 -4.353551834971e+01   1.749400172900e+00   3.368838852846e+01 
1  3.226700521313e+01  -3.539536723916e+01  -3.840524497664e+00 
1  6.403474864264e+00  -7.137214253897e+00  -5.416413637695e+00 
1  8.270780223227e+00   1.776623528921e+01  -4.565997510157e+01 
1 -1.736080544959e+01   2.058427979323e+01   2.304140914959e+00 
1 -5.534046614457e+01  -3.132481321604e+01   6.289895448916e+00 
1  1.510336107150e+01   3.260574552814e+00   6.032202851486e-01 
1 -1.586949511573e+01  -1.342201797415e+01  -7.956462495832e+00 
8
Step 2100
1 -4.390132587984e+01   1.637920441412e+00   3.789438793105e+00 
1  1.918327620002e+01  -4.475425730884e+01  -4.072951330467e+01 
1 -7.572179288850e+00   8.153096840933e+00   9.473402473252e+00 
1  2.443641198806e+00   3.719950313132e+01  -2.698343848632e+01 
1 -4.764495790701e+01   2.071891571057e+01   8.715907362845e+00 
1 -4.219541277395e+01  -2.621383659678e+01  -2.207625652998e+00 
1 -8.138877685232e+00   1.943376233904e+00   5.804012643836e+00 
1  6.854255745865e+00  -4.860685413096e+00  -4.528903470347e+00 
8
Step 2200
1 -3.141233066328e+01  -2.507096055875e+01   1.056505914431e+01 
1  1.526942159492e+01  -5.479139466830e+01  -5.936842896290e+01 
1 -9.801740371001e+00   8.170384466201e+00  -7.122147761556e+00 
1  7.515033684623e-01   6.574557194451e+01  -2.644474229282e+01 
1 -6.645660612249e+01   2.921461146723e+01   3.854444441907e+01 
1 -2.614881486623e+01   5.801374488723e+00  -5.896295418294e+00 
1 -1.433074984873e+00  -6.211736775192e+00   2.583244204593e+01 
1  1.394309861242e+01  -4.395832161912e+00  -2.438069344437e+01 
8
Step 2300
1 -2.986485144401e+01  -3.720473313598e+01   1.884792674473e+01 
1  1.535711688704e+01  -5.090442379922e+01  -7.156542685379e+01 
1  4.748731906589e+00  -6.114983681493e+00  -1.198758296128e+01 
1 -3.135976049818e+00   5.018230582204e+01  -3.781350290924e+01 
1 -6.507710963023e+01   4.278356717632e+01   3.095426682173e+01 
1 -2.592400792815e+01   2.523724726961e+01  -2.902685700472e-01 
1 -4.360879198842e+00   9.821881609989e+00   1.323052316419e+01 
1  1.229608558103e+01  -3.076667686185e+01  -1.930178249388e+01 
8
Step 2400
1 -2.065807883871e+01  -2.414564888598e+01  -4.320376478801e+00 
1  4.658430454858e+00  -4.059762030653e+01  -5.815712280245e+01 
1  5.347667917660e+00  -2.114585047670e+01  -1.301333605697e+01 
1  7.575061462707e+00   4.900134577524e+01  -2.472981541034e+01 
1 -3.114510973581e+01   4.946258155159e+01   5.080157019066e+00 
1 -1.191206970791e+01   4.007133600144e+01  -5.072252241220e-01 
1 -5.238661945335e+00   2.163806934402e+01   1.906908230713e+00 
1 -9.010563536185e+00  -4.199791934575e+01  -1.167201293653e+01 
8
Step 2500
1 -2.628960381696e+01  -3.201822636141e+01  -7.144292839567e+00 
1 -5.902279806492e+00  -5.128495779101e+01  -5.015337644246e+01 
1 -3.409830680685e+00  -2.307542045805e+01  -3.620846367477e+00 
1  2.085723609234e+01   4.227135009362e+01  -1.005250390535e+01 
1 -2.123097099762e+00   5.178420229466e+01  -1.041586323522e+01 
1 -2.863366427940e+01   4.880330452857e+01  -2.240711961963e+01 
1  1.915897548235e+01   3.365983332249e+01  -7.624962253958e+00 
1 -1.107515146359e+00  -3.951630563821e+01   5.489968411855e-01 
8
Step 2600
1 -3.520322442893e+01  -2.128992866559e+01   1.778165869897e+01 
1 -6.420579436467e-02  -5.592200196138e+01  -2.991708945234e+01 
1 -2.423399414221e+01  -2.077116166455e+01   1.282331912087e+01 
1  1.567535686697e+01   4.269924375945e+01  -2.351451443989e+01 
1  3.544890861173e+01   5.412253814458e+01  -1.277547372149e+01 
1 -4.459493955073e+01   1.902125330838e+01  -4.061670935371e+01 
1  2.793832143764e+01   3.400278771883e+01  -2.005915052490e+01 
1 -1.168551696091e+01  -4.932282836098e+01  -3.744238791345e+00 
8
Step 2700
1 -4.843001232485e+01  -3.514572831617e+01   4.402847989950e+01 
1  3.681996653576e+00  -5.850633118170e+01  -2.096591045783e+00 
1 -2.780511764846e+01  -1.901220253266e+01   2.422092111573e+01 
1  1.287397919060e+01   3.265465523358e+01  -3.262001410066e+01 
1  2.195477552144e+01   3.947102295659e+01  -5.155663456341e-01 
1 -4.624055370999e+01  -1.192142861558e+01  -4.181946303407e+01 
1  5.594462152189e+01   2.530413326069e+01  -2.519169329665e+01 
1 -2.444727661562e+01  -4.394515538980e+01   8.658384724377e+00 
8
Step 2800
1 -5.583790998729e+01  -3.761865199177e+01   4.264409389365e+01 
1 -2.047584099213e-01  -4.924274064213e+01  -1.144734668120e+00 
1 -2.414168710506e+01  -7.115732813771e+00   8.782611713398e+00 
1  1.437200406533e+01   3.554607577502e+01  -3.602027505759e+01 
1  4.786235451356e+00   3.295150233390e+01   1.041978186603e+00 
1 -5.369230079724e+01   1.853719332826e-01  -2.915902140013e+00 
1  3.848564434515e+01   4.436490274730e+01  -1.283300965036e+01 
1 -2.196394478830e+01  -5.042141948269e+01   2.136140813827e+01 
8
Step 2900
1 -4.927321410479e+01  -3.586191758730e+01   4.609746306590e+01 
1  1.446633383507e+01  -4.811738664040e+01   2.071108490592e+01 
1  3.069933538505e+00   3.606590765871e+00  -2.130508568939e+01 
1  4.568410745104e+00   3.341447744519e+01  -4.502106883840e+01 
1 -3.420675168613e-01   2.708980212907e+01   1.402509847143e+01 
1 -3.896719451353e+01   2.552889861619e+01   1.319796683227e+01 
1  1.333905107453e+01   1.696375174424e+01   4.600216910301e-01 
1 -9.986166821859e+00  -7.215888193002e+01   2.621098305787e+01 
8
Step 3000
1 -5.020030745733e+01  -3.286572306348e+01   5.231414458602e+01 
1  8.676858253257e+00  -4.873075393293e+01   3.411695286922e+01 
1  2.851794339820e+01   1.862085179978e+01  -1.883254232374e+01 
1 -3.896838491301e+01   3.372381116357e+01  -3.934038561871e+01 
1 -7.396042177832e+00   1.252345086305e+01   1.933838078017e+01 
1 -1.655654523709e+00   3.503440706366e+01   9.593723699600e+00 
1 -1.436977734042e+00  -1.456355580921e+00   2.274893790157e+01 
1 -4.331015042891e+00  -4.867069730872e+01   1.618180683358e+01 
8
Step 3100
1 -3.908078314779e+01  -4.324897815788e+01   4.883336724956e+01 
1 -1.304542853060e+00  -5.627216818340e+01   3.219815422274e+01 
1  8.147352023355e+00   2.475687934270e+01  -1.569596932283e+01 
1 -5.764391230025e+01   4.625943652927e+01  -2.897808771533e+01 
1 -1.882695428152e+00  -1.493360215079e+01   2.486413172415e+01 
1  1.905119060683e+00   2.134305740812e+01   2.890407951006e+01 
1 -8.367857181793e-01  -1.889474517221e+01   3.680045699439e+01 
1 -6.007565276450e+00  -5.221631765446e+01   2.446050348704e+01 
8
Step 3200
1 -7.906220475340e+00  -7.089240003858e+00   3.447318308330e+01 
1 -1.770177459839e+01  -6.261023701508e+01   2.457876068949e+01 
1 -1.339288430217e+01   1.530355828677e+01  -1.524528970813e+01 
1 -1.667828020901e+01   5.571185022858e+01  -2.347520184705e+01 
1  7.527773101143e+00  -2.823225944829e+01   3.642067667694e+01 
1  2.371414073882e+00   1.829340050324e+01   3.571719963802e+01 
1 -1.421469816568e+01  -1.608009608287e+01   5.225439354620e+01 
1 -4.778733676103e+00  -2.232902753460e+01   2.136829844179e+01 
8
Step 3300
1  2.189418443793e+01  -8.709117197728e+00   1.759988517961e+01 
1 -4.092628851412e+01  -6.997020848899e+01   2.619244808117e+01 
1 -1.288765060842e+01  -5.918871070709e+00  -2.078169852512e+01 
1 -1.809921995507e+01   4.428545631104e+01  -3.117080499374e+01 
1  1.697631805266e+01  -3.736859393314e+01   6.013923666788e+01 
1 -1.240164630011e+01   7.596354744079e+00   2.519402430838e+01 
1 -1.585790287823e+01  -2.525904995915e+01   5.847354273200e+01 
1  1.018365084038e+01  -7.065554894699e+00   1.136713692369e+00 
8
Step 3400
1  1.853529565459e+01   8.785456475380e-01   2.693083725215e+01 
1 -4.845049530453e+01  -8.251430566261e+01   1.244664141439e+01 
1  1.798278398039e+01  -1.912474376158e+01  -2.790488096387e+01 
1 -1.612984435524e+01   2.965918429485e+01  -3.232975188086e+01 
1 -6.139841100335e+00  -3.614255992351e+01   6.463362477298e+01 
1 -1.881275773950e+01   2.787709933047e+01   1.317801299913e+01 
1 -2.170737275831e+01  -2.071506739578e+01   5.276104369963e+01 
1  3.258222239063e+01   4.980421738014e+00  -2.507268791965e+01 
8
Step 3500
1 -1.284611139427e-01  -1.585370449143e+00   2.134723434663e+01 
1 -4.312042222742e+01  -7.064542059866e+01  -1.463986354820e+01 
1  2.928854698900e+01  -2.972371602830e+01  -1.033729454159e+01 
1  2.637682951125e+01  -1.497547605361e+01  -5.399906262733e+01 
1 -3.737056573117e+00  -1.299072311393e+01   3.579068622942e+01 
1 -2.141988561401e+01   4.562492324970e+01   1.415201252976e+00 
1 -2.393061680088e+01  -3.118455074623e+01   4.341166212314e+01 
1  3.770433027839e+01   1.360059812588e+01  -2.241211266400e+01 
8
Step 3600
1 -4.963772263084e+00   5.704434379199e+00   8.155999080878e-01 
1 -4.648932596398e+00  -7.261996746626e+01  -4.572080672869e+01 
1  1.436070474373e+01  -6.109161492611e+00   6.758284787143e+00 
1  4.630949873584e+01  -4.585310869419e+01  -6.911550384761e+01 
1  9.053951132342e-02  -5.955109258555e+00   3.728770433276e+00 
1 -1.217901479604e+01   5.245910635909e+01  -1.599656833349e+01 
1 -1.730282911213e+01  -3.695703976620e+01   4.835777171731e+01 
1  4.131847710291e+01   9.413913507420e+00  -1.311227280756e+01 
8
Step 3700
1 -2.371317922060e+00   2.174007572578e+00  -5.717394166429e+00 
1  2.672515523259e+00  -5.367346000059e+01  -3.962513113172e+01 
1  5.150170919089e+00   5.843303830267e+00   1.027497881424e+01 
1  3.894033171343e+01  -4.842162987527e+01  -5.668150509857e+01 
1  3.224437591979e+01   8.531406588605e+00   1.080286340007e+01 
1 -1.310965453049e+00   5.910109042190e+01  -2.394664063115e+01 
1  1.610525658314e+00  -1.777357707054e+01   4.026540763155e+01 
1  4.734571191221e+01  -1.143443953939e+01  -8.424520440133e+00 
8
Step 3800
1 -1.448506868384e+01   1.514311281337e+01  -1.750280494767e+01 
1 -4.591827486464e+00  -3.429013438449e+01  -4.243399022142e+01 
1 -2.117796793972e+01   3.350768630913e+01   3.878578410847e+00 
1  1.415056153808e+01  -6.144705654145e+01  -5.015599201370e+01 
1  3.731726077874e+01   1.537625534210e+01   1.155184864958e+01 
1  1.606151881717e+01   5.263248305689e+01  -1.602070000311e+01 
1 -7.725261977260e-01  -7.773141645015e-01   2.406643147762e+01 
1  2.375810355535e+01  -6.551701739601e+00   2.142187469687e+01 
8
Step 3900
1 -4.019496997045e+01   4.096256969510e+01  -2.576713820161e+01 
1  2.204854702064e+01  -2.372594136775e+01  -5.027210415932e+01 
1 -3.864321864833e+01   2.694978584265e+01   8.704383801956e+00 
1  9.102008042383e+00  -5.859200663832e+01  -3.841291285444e+01 
1  3.587613658413e+01   8.049205794401e+00   2.041964966166e+01 
1  1.177809045264e+01   2.873934545772e+01  -2.996460152311e+00 
1 -3.641153188643e+00   2.974742108313e+01   6.092344386206e+00 
1 -8.296539237269e+00  -6.711664058393e+00   4.396484385739e+01 
8
Step 4000
1 -4.211121224169e+01   3.551230656311e+01  -1.729122066810e+01 
1  2.549958988245e+01  -2.357193769025e+01  -4.455119383556e+01 
1 -4.140031519642e+01   7.658812801203e+00   1.518103227535e+01 
1 -2.243293280233e+01  -5.305745258462e+01  -2.723383992797e+01 
1  2.214784965198e+01   1.158741540493e+01   4.173232120288e+01 
1  4.461063877095e-01  -4.175086606711e+00  -5.949411039776e+00 
1  9.961975774718e+00   4.163628095224e+01  -2.124777568953e+01 
1 -4.852448826104e+01  -1.413610902512e+01   2.666028269038e+01 
8
Step 4100
1 -3.865389398540e+01   1.620967359117e+01   8.462131550310e+00 
1  3.358096390315e+00  -3.726184137800e+01  -2.811506246473e+01 
1 -2.981823742645e+01   2.781416482180e+00   1.857175861151e+01 
1 -5.468660661786e+01  -4.907875846583e+01  -1.154085450624e+01 
1  1.338622914244e+01   2.133100708532e+01   4.544192450304e+01 
1 -1.961431443879e+00  -2.433199656404e+01  -7.414645778927e+00 
1  2.717928901184e+01   5.877146148747e+01  -1.039726640460e+01 
1 -6.007139912300e+01  -3.156295821379e+01   1.464778838567e+01 
8
Step 4200
1 -5.205545067585e+01   4.503087466115e+00   4.802754768878e+01 
1 -2.680314228587e+01  -6.425330603393e+01  -1.764555997624e+01 
1 -1.983518405792e+01   4.960117789494e+00   2.935483561787e+01 
1 -7.554481053429e+01  -4.483939747401e+01  -4.175560025051e+00 
1  1.257157073708e+01   2.023272228186e+01   3.689009434044e+01 
1  7.007659138381e+00   5.555620872573e+00  -2.076899291308e+01 
1  3.203870428686e+01   6.912302531423e+01  -8.000480073511e+00 
1 -4.163918995256e+01  -3.735388764296e+01   2.399487479883e+01 
8
Step 4300
1 -6.645042637769e+01   4.823252570479e+00   6.805276130510e+01 
1 -1.641707994585e+01  -6.501366296146e+01   7.586510666329e-02 
1 -1.993591362531e+01   1.242098385862e+01   2.770552351716e+01 
1 -6.198077294168e+01  -2.852419034638e+01  -1.151298942532e+00 
1  2.385480088876e+01   1.034140676833e+01   1.018677460831e+01 
1  3.127136226753e+01   2.550251478850e+01  -4.017325276078e+01 
1  1.656488084851e+01   7.120620581768e+01  -4.624128372519e+00 
1 -3.301517229176e+01  -4.114625725253e+01   3.336614456729e+01 
8
Step 4400
1 -7.567604348305e+01  -5.921592526732e+00   7.425026642407e+01 
1 -2.659366593747e+01  -4.286395282196e+01   9.649161700902e+00 
1 -7.475987151445e-01   1.197325740531e+01  -1.303624667195e+01 
1 -5.020688384942e+01  -3.018895038671e+01  -9.274064103650e+00 
1  3.159041734710e+01   4.089407504003e+00  -4.935274940794e+00 
1  3.091879826309e+01   4.786014218267e+01  -3.464777122255e+01 
1  1.571529824424e+01   6.018223142768e+01   2.340153585303e+00 
1 -3.732765983790e+01  -5.538307802236e+01   2.615484762275e+01 
8
Step 4500
1 -5.018442419544e+01  -2.639688756139e+01   5.527691374135e+01 
1 -1.243412404922e+01  -2.737533649134e+01   1.313196798372e+01 
1 -1.164321668945e+01   5.921210460370e+00  -3.462451363067e+01 
1 -4.134902011077e+01  -1.797616583554e+01  -1.231695183595e+01 
1  5.111804890248e+01   2.853961315154e+01  -9.417024099414e+00 
1  2.705833802110e+00   7.470292524474e+01  -7.115775845601e+00 
1  2.781691396431e+01   5.348585019441e+01   5.098861743630e+00 
1 -2.864427781280e+01  -6.903671129758e+01  -5.350276096865e-01 
8
Step 4600
1 -2.083058646220e+01  -4.618111774726e+01   2.504129199019e+01 
1 -2.974824938938e+01  -1.741960882506e+01   2.626337561590e+01 
1 -1.352689935548e+01  -6.938521085541e+00  -5.104483913746e+01 
1 -1.376428201237e+01  -1.624645070351e+01  -1.432601415042e+01 
1  7.615903648822e+01   5.031465168362e+01  -1.949327527248e+01 
1 -2.663472197845e+01   6.685118964470e+01   1.017369108572e+01 
1 -1.065176184629e+00   5.420942281929e+01  -7.101561429223e+00 
1 -1.067493806237e+01  -7.463145756835e+01  -9.692489647968e+00 
8
Step 4700
1 -3.642000671577e-01  -4.164926101785e+01   5.123960340815e+00 
1 -2.311325930798e+01  -1.237610393825e+01   4.032055027061e+01 
1 -1.032157100562e+01  -3.908284709327e+00  -2.865257318889e+01 
1  3.313449595041e-01  -8.607519359647e+00  -2.938430034748e+01 
1  6.077995667004e+01   6.201248292881e+01  -3.858637026396e+01 
1 -2.656755490240e+01   7.290422608971e+01   3.617784094456e+01 
1 -2.274007118664e+01   5.154659374938e+01  -2.153970352689e+01 
1 -1.584274299245e+01  -8.632334193600e+01   3.485914746542e+00 
8
Step 4800
1  7.241121744625e+00  -3.352219743104e+01  -1.528655195376e+01 
1 -2.129287616427e+01  -2.991279891033e+01   5.065347758932e+01 
1 -1.742437352789e+01   2.125141076731e+01  -1.807020523141e+01 
1  2.818287351318e+00   1.116189723584e+01  -4.630327991971e+01 
1  4.637132389138e+01   6.395698987013e+01  -3.566940753504e+01 
1 -1.619447916671e+01   5.695126760735e+01   4.443889331602e+01 
1 -2.628190076682e+01   4.856285910773e+01  -4.112167669916e+01 
1 -2.472624105872e+01  -9.740868964158e+01   2.028110297957e+01 
8
Step 4900
1  1.053179120915e+01  -3.971417142242e+01  -2.490404291183e+01 
1 -1.698768177509e+01  -4.973164138300e+01   4.709344423431e+01 
1 -1.758909159232e+01   6.167703043381e+01   3.744008280784e+00 
1 -1.012562769534e-01   2.404524827966e+01  -4.614836290506e+01 
1  3.166375886090e+01   4.788891340719e+01  -2.175130095498e+01 
1 -2.455734746224e+00   3.448615604447e+01   3.954954171253e+01 
1 -1.754156785930e+01   4.857180930865e+01  -5.940863570739e+01 
1 -3.153274957386e+01  -8.061987091101e+01   5.941045313734e+00 
8
Step 5000
1  2.276847602727e-01  -3.666132304117e+01  -2.248753438456e+01 
1 -4.685580378881e+00  -4.579634136103e+01   3.729321328425e+01 
1 -8.059487200901e+00   8.510538985914e+01   1.963290130043e+01 
1  6.766448810099e+00   5.287077993592e+01  -3.703889093696e+01 
1  2.365904105868e+01   3.475983811156e+01  -1.549433643276e+01 
1  2.424932132114e+01  -1.752561168466e+01   1.486559464994e+01 
1 -3.378546350926e+01   3.876651851426e+01  -4.832033665914e+01 
1 -3.145548858714e+01  -3.537366471691e+01   5.623619310087e+00 
8
Step 5100
1 -2.489231638364e+01  -2.359351470955e+01  -3.551763988666e+01 
1 -8.071864737726e+00  -2.212124270072e+01   2.070128880462e+01 
1 -7.480289570418e+00   9.661504744199e+01   2.550585227837e+01 
1  7.059471693560e+00   6.434113116558e+01  -4.424328907553e+01 
1  2.360323870452e+01   4.727560354238e+01  -4.320854643081e+00 
1  3.671848576443e+01  -4.539974947120e+01   1.530710246914e+01 
1 -3.773972977289e+01   2.173653894959e+01  -3.703801811983e+01 
1 -5.742247533463e+00  -2.550995461829e+01   9.852886132891e+00 
8
Step 5200
1 -2.847623517082e+01  -3.074369680005e+01  -3.205318260082e+01 
1 -3.534811863663e+01   4.538056512470e+00   2.243150089233e+01 
1 -2.628624432098e+00   5.835223621607e+01   2.276941809735e+01 
1 -6.091413773849e+00   6.714183518553e+01  -4.349599848520e+01 
1  1.155291475633e+01   5.224019245045e+01  -7.260536133696e+00 
1  2.517933252590e+01  -3.256886412083e+01   2.335824366384e+01 
1 -4.626513283409e+00  -3.798034552180e-01  -4.984502689857e+01 
1  7.423043661525e+00  -2.888607426328e+01   1.406853482032e+00 
8
Step 5300
1 -2.814662399379e+00  -3.182300842558e+01  -2.418069615580e+01 
1 -4.426052075960e+01   2.051884259253e+01   3.937961612671e+01 
1 -2.361924284448e+00   2.554161994649e+00   3.317418584107e+01 
1  9.168570028099e+00   4.428382264424e+01  -2.663590268042e+01 
1 -4.756389823681e+00   3.032474819661e+01  -1.063608507414e+01 
1  4.560363894519e+00  -3.043790466756e+01   2.508046206487e+00 
1  2.154426567291e+01  -1.240196543452e+01  -7.051520633256e+01 
1  1.255815795343e+01  -2.022950121782e+01  -1.647682069042e+01 
8
Step 5400
1  1.431404613237e+01  -5.276622576773e+01  -2.736245774918e+01 
1 -3.418705089288e+01   2.939167571406e+01   4.813969636762e+01 
1 -1.775773489687e+01   4.034419553157e-01   4.028012180828e+01 
1  1.348328632812e+01   2.147895679169e+01  -1.678772165376e+01 
1  1.589771194984e+00   8.809781441157e+00  -1.519284423216e+01 
1 -9.649223512375e+00  -1.035576047832e+01   1.633874202137e+00 
1  4.200512060710e+01  -2.134312393862e+01  -4.901282184012e+01 
1 -5.263891713330e+00  -1.338610192048e+01  -1.191809588522e+01 
8
Step 5500
1  8.313530092355e+00  -5.723088025827e+01  -3.733644744865e+01 
1 -7.411741891581e+00   3.427674957556e+01   5.419433950974e+01 
1 -2.772680907674e+01   2.313853123047e+01   4.701206402509e+01 
1  6.566977332497e+00   7.116371586059e+00   1.791938495196e+01 
1 -6.602001720843e+00  -1.239373993294e+01  -5.411211650812e+00 
1 -1.324702506763e+00   8.887933871919e+00  -2.951732905767e+00 
1  5.183130300635e+01  -4.503207080047e+01  -4.333506457920e+01 
1 -1.079967433977e+01  -3.175753669561e+01   5.463202437056e+00 
8
Step 5600
1  9.671935358446e+00  -7.074915550161e+01  -6.406860559049e+01 
1 -5.741626504065e-01   2.254910622729e+01   3.425199416447e+01 
1 -1.685502086949e+01   4.408793781887e+01   4.414482017091e+01 