8
Step 0
1 -3.725609721510e+02   3.755376068281e+01   2.003144348063e+02 
1  2.702184259474e+02   1.940885871767e+02  -4.504086892699e+02 
1 -6.143886054221e+02   2.046284953525e+02  -4.887892839025e+02 
1  4.272190790357e+02  -2.304902992146e+01  -3.792784389004e+01 
1 -1.341709354384e+02   5.371985670023e+02   4.150598171875e+02 
1 -4.323687805359e+02   3.297703400286e+02  -6.487103398667e+01 
1 -5.531583529799e+02  -4.904936835904e+02  -6.399893603187e-02 
1  5.401589627151e+02  -6.116312495915e+02  -6.183126594955e+02 
8
Step 100
1 -2.132968208491e+02   7.626036555289e-01   1.832199693380e+02 
1  1.957230316813e+02   3.188660337893e+01  -2.379907438471e+02 
1 -4.063408194471e+02  -2.772024370126e+01  -4.491739864683e+02 
1  2.847196407045e+02  -4.217937707825e+01  -8.872494563686e+01 
1  3.422470926223e+01   4.046637595175e+02   1.401463922596e+02 
1 -3.109881387313e+02   1.656887474959e+02  -8.528760605352e+01 
1 -4.431969858397e+02  -3.487568492125e+02  -4.899521293903e+01 
1  3.257360667109e+02  -4.765255307760e+02  -4.120238220835e+02 
8
Step 200
1 -7.430984827755e+00  -5.981512925547e+01   1.891050375995e+02 
1  5.599622041371e+01  -1.329012318486e+02   8.134448299811e+01 
1 -1.026182927552e+02  -2.758662363616e+02  -2.964307994546e+02 
1  9.778560377380e+01  -7.910455231925e+01  -1.629457168130e+02 
1  1.846448259567e+02   2.164723641864e+02  -1.630257755498e+02 
1 -1.082956125951e+02  -2.859954390204e+01  -6.573744536390e+01 
1 -2.810757098408e+02  -1.485800627492e+02  -1.778838129229e+02 
1  7.533695973989e+01  -2.611711167000e+02  -6.570175555327e+01 
8
Step 300
1  4.499493143775e+01  -6.722439527737e+01   1.733723112121e+02 
1 -3.930843116793e+01  -1.176360181294e+02   1.642640277659e+02 
1 -1.308195931767e+01  -2.756290848530e+02  -1.696891028403e+02 
1  1.338439777273e+01  -3.631283188668e+01  -1.769423060017e+02 
1  1.770192193559e+02   1.219193712584e+02  -1.634565508973e+02 
1  1.886503368097e+01  -4.234244500240e+01  -4.633135046488e+01 
1 -1.853906992565e+02  -3.462590865460e+01  -1.930167542302e+02 
1 -1.085058223388e+01  -1.262398554082e+02   7.742805735597e+01 
8
Step 400
1  1.690012942613e+01  -5.704329031496e+01   1.418151710902e+02 
1 -5.972981091394e+01  -1.311223288352e+01   5.194590083280e+01 
1 -4.327606960587e+01  -1.605568413309e+02  -6.956856320059e+01 
1  6.182296748008e+00   1.566396828167e+01  -1.353794068717e+02 
1  8.295083989172e+01   1.285069433233e+02  -4.632317855488e+01 
1  1.326808380887e+01   1.303106985505e+01  -3.166226871599e+01 
1 -1.187092596491e+02   1.632432611418e+01  -1.405281848192e+02 
1  2.934597808704e+01  -4.211909920351e+01   5.418661023881e+01 
8
Step 500
1 -1.898968314964e+01  -6.088004475589e+01   9.773314128218e+01 
1 -2.763005550532e+01   3.173734373435e+01  -6.315342563023e+01 
1 -8.724002089392e+01  -6.303792246988e+01  -5.269524103682e+01 
1  3.087539189066e+00   6.705027276148e+01  -8.441322214237e+01 
1  4.323581496348e+01   1.246706400803e+02   2.959871000735e+01 
1 -2.769084435812e+01   4.968001573439e+01  -1.890941433185e+01 
1 -3.307283917264e+01  -8.050675685140e+00  -6.120509202071e+01 
1  3.536730936175e+01  -2.222750189651e+01   2.935654314243e+00 
8
Step 600
1  9.855165522948e+00  -4.825233625553e+01   7.687100620408e+01 
1 -7.334845053290e+00   1.323149290985e+00  -8.456395839676e+01 
1 -7.940296271099e+01  -4.882174539780e+01  -3.378021173746e+01 
1 -4.114512185583e+01   3.792087368862e+01  -1.048966386458e+02 
1  4.251041535943e+00   8.830575081614e+01   5.237145975815e+01 
1 -3.339169336327e+01   3.715390405539e+01  -5.256117557595e-01 
1  1.833621908195e+01  -5.414594871485e+01   1.042089325560e+01 
1  1.329140395430e+01  -1.106444936931e+01   1.248369739263e+01 
8
Step 700
1  2.934480595733e+00  -2.618661758557e+01   6.258723794585e+01 
1  4.777506615035e+00  -3.322691366153e+01  -3.824290889283e+01 
1 -4.057096656881e+01  -3.869090361924e+01  -4.420935838880e+01 
1 -6.729795690315e+01   1.435890223464e+01  -4.677124954707e+01 
1 -3.284466382095e+01   6.820955323845e+01   2.584420498473e+01 
1 -1.906996367058e+00  -4.899296311560e+00   1.718090980094e+01 
1  3.035006195100e+01  -6.661151670577e+01   3.927419598730e+01 
1 -9.294202452348e+00   3.708721321523e+00   1.925253328755e+01 
8
Step 800
1 -2.860823384548e+01  -3.124174793181e+01   3.655484121597e+01 
1 -2.296664464442e+01  -2.583399558214e+01  -2.436835823802e+01 
1 -3.582136265887e+01  -2.698979648639e+01  -3.023087657459e+01 
1 -6.459811269294e+01   4.337372844656e+01   4.528696121710e+00 
1 -4.192270590886e+01   6.081759491870e+01   2.776203100618e+01 
1 -2.164360804440e+01  -1.533207051778e+01  -5.718943740488e+00 
1  1.604546655405e+01  -2.090828754056e+01  -9.688218164910e+00 
1 -3.115512611858e+01  -2.803817047531e+01   1.587836954777e+01 
8
Step 900
1 -9.171924335331e+00  -3.262594759630e+01   5.175861724592e+01 
1 -1.471293550128e+01   2.422690933229e+01  -4.477824839456e+01 
1 -1.890080501417e+01  -3.918949065423e+01   1.160583584589e+01 
1 -5.757328472198e+01   4.695318229306e+01   2.584830689569e+01 
1 -3.266049330040e+01   4.154231175876e+01   3.281544591124e+01 
1 -3.629936517251e+01  -3.248380431333e-01  -1.935459909741e+01 
1 -1.986418271927e+01   2.509701412058e+01  -3.617250504149e+01 
1 -6.377476968105e+01  -4.817009622190e+01  -1.283380862248e+00 
8
Step 1000
1 -1.186598861162e-01  -4.647884223613e+01   6.283842406772e+01 
1  3.981989661497e+00   3.114067236212e+01  -3.217760255452e+01 
1 -9.051846375677e+00  -2.968391790757e+01   1.371836470381e+01 
1 -2.268441259107e+01   3.977469370205e+01  -3.070640366292e+00 
1 -2.646794050929e+01   4.211476690221e+01   6.882204478223e+00 
1  5.313552373758e+00   4.679399103054e+01  -3.682968111928e+01 
1 -1.518193968391e+01   3.209501071483e+01  -1.861600429191e+01 
1 -7.268604095284e+01  -3.060804755738e+01  -3.308370263402e+01 
8
Step 1100
1 -1.228553466309e+00  -7.126659368773e+01   5.346893393186e+01 
1  1.172375404782e+01   1.764003809696e+01  -9.523082088118e-01 
1 -4.719688915894e+00  -3.707104536248e+01  -7.015728511018e-01 
1 -8.870127368968e+00   1.619875449211e+01  -4.399143446859e+00 
1 -3.924799274434e+01   3.059962544974e+01   1.152852116897e+00 
1  1.968950347654e+01   8.720109382944e+01   2.079001087446e+00 
1  3.437475539156e+00   5.536174499394e+01   1.063400540254e+01 
1 -8.631596026823e+01  -1.117226704000e+00  -5.366031708605e+01 
8
Step 1200
1 -9.968620712105e+00  -5.738345702369e+01   4.893511819086e+01 
1 -7.314631820177e+00   3.767549649475e+00  -2.690679915246e+00 
1  1.207322497625e+01  -2.749276687388e+01  -2.524622506690e+01 
1 -8.298101558244e+00  -1.174478894954e+01  -9.655128769986e+00 
1 -2.888538246475e+01   3.588805117247e+01   1.157758799579e+01 
1  6.485322267042e+00   8.177062389388e+01   1.358679966164e+01 
1  5.601028510509e+00   3.130871867145e+01  -2.721690227695e+00 
1 -7.397837572435e+01   1.504435403678e+01  -3.537166265510e+01 
8
Step 1300
1  2.486933023282e+00  -3.810868590345e+01   4.543666709558e+00 
1 -1.777135939586e+00   1.857673756704e+01  -1.025433123744e+01 
1  2.350981692933e+01  -1.763774020929e+01  -1.678411450397e+01 
1 -1.271681638558e+01  -2.226220247731e+00  -3.608625117145e+00 
1 -1.375653418741e+01   4.697152072046e+01   3.571007453720e+01 
1 -1.085894432136e+01   1.923360363719e+01   2.050684063868e+01 
1  7.982724276421e+00  -2.822856904462e+00  -8.346057383857e+00 
1 -3.132115172966e+01  -3.384024529771e-01  -2.775345403568e+01 
8
Step 1400
1  9.062963262405e+00  -2.307230234656e+01   1.835856927144e+00 
1  5.906974990673e+00   1.283252780739e+01  -8.793392799899e+00 
1  2.134144921171e+01  -5.747138668354e+00   1.186887223195e+01 
1 -1.111840082787e+01  -2.192251444382e+01  -1.753372661073e+01 
1  9.830149493332e+00   4.539659023374e+01   3.002885388239e+01 
1 -8.069419404641e+00  -6.175279486160e+00   3.442748057109e+01 
1  4.508871462140e+01   1.799534329284e+01   1.223371783423e+01 
1 -3.550027042188e+01  -1.107544107590e+01   1.469270071408e+01 
8
Step 1500
1  3.667737846431e+00  -1.424617229276e+01   3.367505847662e+01 
1 -3.429167429507e+01   2.613149494871e+01  -4.222252144023e+00 
1 -1.915890594717e+00   2.971029667202e+01   2.261633203581e+01 
1  8.055376634260e-02  -2.501028842262e+01  -1.301419243943e+01 
1 -9.753896612606e+00   5.563598447985e+01   2.133330480465e+01 
1 -1.417607562889e+01  -3.249661730176e+00   2.567495837406e+01 
1  5.281803660281e+01   3.721577651563e+01   4.231281259893e+01 
1 -2.971015738647e+01  -3.299447097182e+01   5.349055020789e+01 
8
Step 1600
1 -2.741629836294e+01  -4.939365143461e+00   4.853552855820e+01 
1 -4.776673395986e+01   1.159817872084e+01  -2.811096892133e+01 
1 -6.798095913421e+00  -2.309746195110e+00   2.584778850656e+01 
1 -1.318175978606e+01  -4.057370463630e+00   1.135443028906e+01 
1  6.952789115095e+00   4.808799578910e+01  -2.243044602158e+00 
1 -2.532913627435e+01  -1.241813547718e+01   8.861261768936e+00 
1  5.101463207058e+01   7.114831716461e+00   4.385896270693e+01 
1 -3.201904690170e+01  -2.265185458250e+01   3.607107131578e+01 
8
Step 1700
1 -1.980177258446e+00  -7.624780385212e+00   8.893829413733e+00 
1 -4.166591431492e+01  -1.874159170895e+01  -1.509822615527e+01 
1  3.683273930241e+01  -3.087469293935e+01   3.436186506317e+01 
1 -1.984099200845e+01   3.751177657262e+01   3.868270882909e+01 
1 -2.718191028408e+01   5.637470606954e+01   2.573637239662e+01 
1 -3.447953723373e+01  -3.976274792903e+01   2.414162364114e+01 
1  4.894325776925e+01  -2.159757094827e+01   6.988728690355e+01 
1 -2.221734761252e+01  -1.656986388520e+00  -5.245431816144e+00 
8
Step 1800
1  2.194199760066e+01  -4.391956633992e+01  -1.992701534555e+01 
1  8.242752066428e+00  -1.966266156664e+01  -4.244449216642e+01 
1  2.242693443653e+01  -5.653085490224e+01   1.457243364722e+01 
1 -7.239834527912e+00   4.044233429656e+01   5.703855166707e+01 
1 -7.793018673324e+01   3.888471736704e+01   4.080972527217e+01 
1 -4.602487433368e+01  -6.354740387002e+01   5.421182159766e+01 
1  1.772988573464e+01  -2.196657041557e+01   5.882621287366e+01 
1 -2.069251478623e+01  -1.344095676142e+00  -2.878803026969e+01 
8
Step 1900
1  2.996104564402e+01  -5.124133066868e+01   3.639790479531e-01 
1  3.997340568676e+01  -4.876692632792e+01  -4.267101656476e+01 
1  1.726484687642e+01  -6.223349698788e+01   2.537069142187e+01 
1  2.996877845618e+01   2.739311417768e+01   4.838176127325e+01 
1 -6.666529598024e+01  -1.157338924084e+01   3.426092662016e+01 
1 -6.251986990896e+01  -4.333619680077e+01   5.577140162926e+01 
1  5.264289249270e+00   7.365146056597e-01   2.378895766052e+01 
1 -1.640671438920e+01  -1.041287609560e-01  -8.122558454420e+00 
8
Step 2000
1  5.173433984473e+00  -1.719376415153e+01   2.414886035215e+01 
1  2.199011992532e+01  -1.032839632582e+02   1.536745513297e-01 
1  7.563643844682e+00  -2.666418157359e+01   4.522076955595e+01 
1  4.627621566856e+01   4.573859149706e+01   2.376028844981e+01 
1 -3.876051589108e+01  -2.703776152041e+01   3.279280833566e+01 
1 -7.118834151231e+01  -3.123944829948e+01   2.346571155167e+01 
1  6.613387546222e-01   7.205530905452e+00  -2.962909138917e+01 
1  1.869682589601e+01  -1.323284053610e+01   2.937821900597e+01 
8
Step 2100
1  8.498375316076e+00  -1.195017003767e+01   1.876196040949e+01 
1  2.909234274151e+01  -6.976197035951e+01   4.032878231121e+01 
1 -8.966040281485e+00  -9.758348404295e+00   6.403921444932e+01 
1  4.287683915282e+01   4.515396736577e+01  -8.412229504715e+00 
1 -3.072800565711e+01  -2.053123345941e+01   3.174785752191e+01 
1 -6.839854358414e+01  -3.449093740321e+00  -6.019354849641e+00 
1  1.498381439543e+01   2.209430349527e+01  -2.581118376093e+01 
1  4.075916351525e+01  -8.640240628935e+00   3.450410224108e+01 
8
Step 2200
1  1.694690425089e+01   1.392149764278e+00   1.087051118464e+01 
1  3.714300251654e+01  -4.223292411915e+01  -1.009830857700e+01 
1  8.975096033742e+00   4.421965494453e+00   6.610778614670e+01 
1  4.998474719215e+01   1.689396097836e+01  -2.253969348494e+01 
1 -3.274307836586e+01   4.449708265160e+00   2.131843654429e+01 
1 -7.345737233034e+01   2.736272127376e+01   2.442603163890e-01 
1  2.976222416876e+01   7.140250377409e+00   1.758173320183e+01 
1  4.035704192058e+01   1.824567131452e+01  -5.124777319923e+00 
8
Step 2300
1  8.828918132904e+00  -1.557396191554e+01  -1.754822923872e+01 
1  1.868270751872e+01  -7.564082848058e+01  -5.081138363963e+01 
1  8.683582563670e-01   3.632473284520e+01   5.045374388399e+01 
1  3.331894063618e+01   9.818458449928e+00  -1.248392162302e+01 
1 -2.850594096288e+01  -4.910255945986e+00   2.111561896096e+01 
1 -2.646616574457e+01   5.157235936086e+01  -1.858375602479e+01 
1  8.235423340201e+01  -6.611654813804e+01   4.513872873070e+01 
1  1.824416813211e+01   2.723705442592e+01  -6.295780378174e+01 
8
Step 2400
1  1.726437243572e+01  -9.651999099216e+00  -5.633213082616e+01 
1  1.431126317322e+01  -6.447053928098e+01  -7.259744735312e+01 
1 -1.414868770626e+01   6.841464399540e+01   2.454630390304e+01 
1  1.967314336213e+01  -5.545394689969e+00   6.271909625656e+00 
1 -4.402575224354e+00  -3.965659016225e+00   1.656288881039e+01 
1 -1.024521813687e+01   3.097710768461e+01  -2.794626474095e-02 
1  6.882658689937e+01  -1.046958960583e+02   3.201664186920e+01 
1 -5.470775424155e+00   1.448053651238e+01  -6.067880552027e+01 
8
Step 2500
1  3.690102932813e+01  -1.074836862355e+00  -4.762796140332e+01 
1  6.498923063183e+00  -6.116354076972e+01  -3.720103050209e+01 
1 -1.730909484085e+01   3.596520040395e+00   1.436309197977e+01 
1  1.676779959755e+01  -1.065966547603e+01  -1.364403153949e+01 
1  4.908406795364e+00   2.050653653715e+00   2.081351487554e-02 
1 -9.870566758434e+00   1.349103767970e+01  -1.656945903809e+01 
1  8.921306175602e+00  -9.188591041516e+01  -2.884591869812e+01 
1 -1.218253392117e+01  -4.290107443413e+00  -9.105844258899e+00 
8
Step 2600
1  2.451417194491e+00   1.253482114960e+01  -1.371339263763e+01 
1  1.866797697001e+01  -5.601353156993e+01  -4.485595530873e+01 
1  3.244822342240e+01  -1.630539833248e+01   4.843226307074e+00 
1 -1.413294809107e+01  -6.988689305497e+00  -3.428292584351e+01 
1  2.510480785747e+01   2.000768231624e+01   1.535407331530e+01 
1 -2.176975524916e+01   1.936938454920e+01  -4.246820838314e+01 
1 -4.644279758584e+00  -6.073676428078e+01  -7.743318454002e+01 
1 -1.827519860498e+00  -6.640209558810e+01   4.617774892196e+01 
8
Step 2700
1 -2.811889829823e+01   2.094462328408e+01   1.857526204077e+01 
1  4.367561333822e+01  -5.767240258867e+01  -3.044511882272e+01 
1  2.656714491837e+01   2.548535555109e-01   1.977279304853e+01 
1 -5.080139957174e+01  -2.886750603593e+01  -1.965529893981e+01 
1  5.820135706459e+01   3.487930496664e+01   2.939132147448e+01 
1 -1.821529384133e+01  -1.509193218503e+01  -3.563375491516e+01 
1  1.294392061601e+01  -3.889036842398e+01  -6.945023272938e+01 
1  3.616054092608e+01  -7.313963444082e+01   2.595976411288e+01 
8
Step 2800
1 -2.247601275352e+01  -1.502978801558e+01   3.514641922244e+01 
1  4.926861926158e+01  -4.017772113024e+01  -2.469207723752e+01 
1  1.800456636969e+01  -4.186423435746e+00   2.697163833177e+01 
1 -6.649286443155e+01  -3.407535720153e+01  -9.918317546277e+00 
1  4.415343109131e+01   5.663799121592e+00   5.697918991020e+01 
1 -2.728858781480e+01  -3.396655346828e+01  -1.873557348426e+01 
1  2.044186896741e+01  -1.986369024340e+01  -3.539833797117e+01 
1  1.948100645509e+01  -6.303475506331e+01   7.756557437347e-01 
8
Step 2900
1 -1.774065003932e+01  -3.479676001116e+01   1.343109645760e+01 
1  3.488705184921e+01  -1.027666376589e+01  -5.790055120606e+00 
1  4.099537749240e+01  -4.527382114869e+00   7.542531489673e+00 
1 -6.293996601877e+01   9.237687119366e+00  -1.654150487538e+01 
1  2.854174015925e+01  -2.163882982085e+01   4.232905154306e+01 
1 -2.564914012964e+01  -3.646922799015e+01  -6.399079899849e+00 
1  5.037717061018e+01  -1.335297822440e+01   1.135850045061e+01 
1 -4.983222131152e+00  -6.672626195572e+01  -7.238744769341e+00 
8
Step 3000
1 -1.886639446331e+01  -3.203313574096e+01   1.633860077090e+01 
1  4.500975554852e+01  -1.087109129025e+01   3.152436123779e+01 
1  3.153571370917e+01  -1.212116913125e+01  -1.190572945333e+01 
1 -3.927564305222e+01   3.377126805485e+01  -4.257181550299e+01 
1  1.917692649460e+01  -3.090520525001e+01   5.109429250842e+01 
1  4.988773276060e+00   1.089997569041e-01   3.487894673034e-02 
1  4.039149934741e+01  -7.007114254357e+00   1.460518705535e+00 
1 -8.139670206877e+00  -6.295227270475e+01   2.778008303061e+01 
8
Step 3100
1 -7.512712507116e+00  -1.038105170328e+01   3.606913809415e+01 
1  4.706410928594e+01  -2.608413005547e+00   6.181714346863e+01 
1  1.818807985747e+01   1.679846089594e+01  -1.950137991529e+00 
1 -3.865641742315e+01   2.326055302944e+01  -2.011458628409e+01 
1  8.785902129227e+00  -2.410073709558e+01   3.525255542810e+01 
1  1.431474009013e+01   1.539020674130e+01  -1.803203209967e+00 
1  7.857641018126e+00  -2.391216065100e+01   1.977723355939e+01 
1  3.637874048785e+01  -3.428289361054e+01   3.836472830017e+01 
8
Step 3200
1 -2.044508988872e+01  -5.925028843700e+00   4.895911740594e+01 
1  1.584128883163e+00  -1.997533577545e+01   7.945194369808e+01 
1  2.041223115429e+01   4.340783587880e+01  -1.041814010753e+01 
1 -1.599763951053e+01  -1.515544480525e+01  -4.506604710123e+00 
1  1.751931114205e+01  -2.029578568239e+01   1.751316970549e+01 
1  2.447827811101e+00  -3.737993703765e+00  -1.550264514756e+01 
1  2.544940837348e+00  -6.624855168634e+00   3.207204770284e+01 
1  2.122043791751e+01  -2.393162221380e+01   3.339186604028e+01 
8
Step 3300
1  3.215366616949e+00  -2.748754961564e+01   3.685036854856e+01 
1 -1.234223410513e+01  -3.838819759642e+01   7.017762501807e+01 
1 -9.552730063112e+00   4.348590964549e+01  -1.278447368978e+01 
1  2.497869931377e+01  -2.251219010333e+01  -2.883333754774e+01 
1  4.683763395818e+00  -2.939659868569e+01   2.019539097062e+01 
1 -1.747492701549e+01   9.189843827668e+00   1.742411068276e+01 
1  2.248149285608e+00  -1.879671590013e+01   5.268028716211e+01 
1  1.396352474512e+00  -2.997992748296e+01   9.918660409348e+00 
8
Step 3400
1  4.624084629737e+01  -2.765264407901e+01  -8.672225710983e+00 
1 -1.589493008315e+01  -3.684614229394e+01   5.458571675045e+01 
1 -3.822944110333e+01  -1.735534367266e+00  -1.850783032962e+01 
1  4.422028982457e+01  -7.000746867432e-03  -3.893855343167e+01 
1 -2.409360904061e+01  -2.328034980792e+01   2.441349102673e+01 
1 -2.017542662876e+01   4.731178340218e+01   1.084665577437e+01 
1  4.436088041788e-01  -9.725188367763e+00   8.637541411245e+01 
1 -8.499528176982e+00  -1.969473198491e+01   6.728711769974e+00 
8
Step 3500
1  1.163284068032e+01   1.523176087737e+01  -4.918350365794e+01 
1 -2.163112287427e+01  -3.243302272276e+01   4.838069486361e+01 
1 -1.481898734633e+01  -2.443290583361e+01  -2.570190059846e+00 
1  2.943185980658e+01  -4.510650948417e+00  -2.014171695176e+01 
1 -2.030187536309e+01  -1.553096802241e+01  -2.070757279245e+00 
1 -7.457677629285e+01   1.862405843774e+01   1.713824118158e+01 
1 -8.258967020870e+00   2.174316048510e+01   8.115832657152e+01 
1  4.692232967233e+00   1.063079012096e+01   7.103615303871e+00 
8
Step 3600
1 -1.154706457169e+01   5.059787533124e+01  -4.812478422415e+01 
1 -6.130391514146e+00  -4.593297933640e+01   1.236072418557e+00 
1 -5.248784963223e+00  -2.303609182519e+01   3.174360690315e+01 
1  8.329331398916e+00  -1.618200555140e+01  -5.254187161286e+01 
1  7.522165049055e+00  -2.147916953289e-01   3.794964070148e+00 
1 -7.191575408691e+01  -1.422270590349e+00   4.358116744766e+01 
1 -1.144751853294e+01   2.581197320700e+01   5.546949711541e+01 
1  5.824267518870e+00   5.884042373880e+01  -2.331864919663e+01 
8
Step 3700
1  5.509994363398e+00   5.755740030043e+01  -5.675406546057e+01 
1  6.135061999870e+00  -4.204192916528e+01  -9.901894264688e+00 
1 -3.340487925372e+01   9.531552082246e+00   3.627131226926e+01 
1 -1.692557916594e+01  -5.707126889932e+01  -6.536425911511e+01 
1  1.511135278999e+01  -7.024793682002e+00   4.719673873245e+01 
1 -3.209204744090e+01   2.209220470335e+00   3.891641653670e+01 
1 -4.010807192919e+00   4.786054054926e+01   3.878284895389e+01 
1 -1.468874129287e+01   4.091746742996e+01  -2.885001457675e+01 
8
Step 3800
1  1.727748310129e+01   3.191123632821e+01  -4.070018867238e+01 
1 -6.011055162131e+00  -2.556139090160e+01  -3.265754309115e+01 
1 -4.290928702772e+01   2.388891428859e+01   2.412330916093e+01 
1 -3.204336906481e+01  -4.258435385713e+01  -3.305063499967e+01 
1  2.423545655817e+01  -4.796181606999e+01   4.452662391328e+01 
1 -2.000756370689e+01   2.897033708972e+01   2.450334729325e+01 
1 -2.839631167551e+01   3.923895781875e+01   2.248605672287e+01 
1 -5.965424110305e+01   1.941529333551e+01  -2.152965236718e+01 
8
Step 3900
1  4.462345407506e+00   1.450168864577e+01  -3.024048827152e+01 
1 -7.855198834219e+00  -5.232451078438e+00  -3.922387022066e+01 
1 -3.720103334231e+01   6.551589758355e+00   3.893560540845e+01 
1 -1.993770579369e+01  -2.990900542793e+01  -2.752235468819e+01 
1  3.654697906745e+01  -5.219648567245e+01   2.408925430809e+01 
1 -3.158091810381e+01   2.207644040736e+01   2.417262371670e+01 
1 -1.108283287302e+01   5.321805824612e+01  -3.419620726943e+00 
1 -6.552984783240e+01   9.203645027758e+00  -2.345816507938e+01 
8
Step 4000
1 -1.790643805804e+01   2.591517935954e-01  -1.761064937814e+01 
1 -7.873666525295e+00  -3.956531474865e+00  -4.497796135763e+00 
1 -1.727187599884e+01  -1.883739172871e+01   4.146835131318e+01 
1  1.724973761394e+01  -1.879783823773e+01  -2.547492667813e+01 
1  3.389304715797e+01  -2.732270516417e+01   5.860845608478e+00 
1 -6.247487532320e+01  -3.436240498896e+01  -2.795390837344e+01 
1  1.142145616823e+00   4.281830637322e+01  -4.018853493982e+01 
1 -7.601884985108e+01   4.504778557532e+01  -9.494434201333e-02 
8
Step 4100
1 -3.546010500878e+01  -2.227337303120e+00  -2.147947444993e+01 
1  2.231777998021e+00  -3.884539299333e+01  -2.456657792213e+01 
1  1.085726012198e+01  -1.811466089347e+01   2.973837952219e+01 
1  4.744370534396e+00  -4.910933860983e+01  -4.592332469419e+01 
1  1.492152178149e+01   2.707890878172e+01   3.693893256742e+00 
1 -4.714538349668e+01  -3.345581766602e+01  -1.227366178466e+01 
1  7.197950543143e+00   2.712709918114e+01  -3.701329543856e+01 
1 -9.813155545926e+01   6.455111898665e+01   1.777369896782e+01 
8
Step 4200
1 -2.289766175184e+01   5.963047048341e+00  -2.769017448337e+01 
1 -7.783336232704e+00  -4.005927695768e+01  -3.584730961576e+01 
1  4.131595064667e+01  -2.918904919561e+01   5.620478597254e+01 
1 -3.417822227680e+01  -4.725876296763e+01  -8.294074286705e+01 
1  1.019759902349e+01   6.961388313704e+01  -2.592324734593e+00 
1 -1.135681587621e+01  -2.197188846811e+01   2.224155288151e+01 
1  2.606049538991e+01   3.485170935624e+01   3.271157652496e+00 
1 -8.048133576760e+01   1.719625573451e+01  -1.893461373533e+01 
8
Step 4300
1  8.198287639760e+00  -1.142994482909e+01  -1.596441369728e+01 
1 -3.690019831183e+01  -4.328943861506e+01  -2.226231107046e+01 
1  4.583786352973e+01  -2.046963294392e+01   2.265529176607e+01 
1 -3.780098678205e+01  -3.277764873347e+01  -6.571697785962e+01 
1  9.929500687007e+00   8.213329161538e+01   3.518033258261e+01 
1  2.656289032478e+01   5.678816008476e+00   3.671353539483e+01 
1  1.487477194957e+01   6.064700130282e+01   1.638326239525e+01 
1 -2.770688701324e+01  -2.860900941589e+01  -2.368820737667e+01 
8
Step 4400
1 -2.766204636301e+01  -2.433113389888e+01  -9.443363775737e+00 
1 -4.130214298078e+01  -6.283299755544e+01   7.969671907618e+00 
1  3.561078020189e+01  -2.308925889836e+01  -1.186092300504e+01 
1 -3.342875811017e+01  -3.437296323220e+01  -2.924844632703e+01 
1  2.770945738482e-01   3.314895581959e+01   2.760450570361e+01 
1  4.493313502202e+01   1.986615913943e+01   3.444073620834e+01 
1 -8.449168236851e-01   5.469980918318e+01  -2.566323123203e+01 
1 -2.895335162069e+01  -4.824594642222e+01  -8.862005504715e+00 
8
Step 4500
1 -4.105891662881e+01  -6.124789453641e+01  -8.934889395299e+00 
1 -1.007533681351e+01  -4.687755596947e+01   2.574501716097e+01 
1  3.219394968669e+01  -2.892186089689e+01   9.728226225121e+00 
1 -4.150682834144e+01  -3.863361557058e+01  -1.957894179530e+01 
1  1.600029407879e+01   2.276445777134e-01   2.539299877582e+01 
1  2.969913932273e+01  -3.057380347238e+00   2.187627675640e-01 
1  5.365401506547e+00   1.077101306300e+01  -4.710302181208e+01 
1 -2.363198061070e+01  -4.122540371929e+01   2.167952290114e+01 
8
Step 4600
1 -3.788978363321e+01  -5.590756523194e+01  -3.570789578352e+01 
1 -5.239120207423e+00  -3.887529381871e+01   3.651650383249e+00 
1  3.065109366237e+01  -5.175304587466e+00   2.311836248449e+01 
1 -5.464932268679e+01  -2.829450269570e+01  -2.017893777505e+01 
1  2.156828972071e+01   2.126713506527e+01   2.759033384726e+01 
1  7.576162609124e+00  -2.468405309099e+00  -5.835219746856e+01 
1  1.146298606139e+01   6.777234165504e+00  -6.548628254700e+01 
1  2.076282155078e+01  -6.539290127919e+01   3.710828369103e+01 
8
Step 4700
1  2.825224370969e+01  -3.950583919323e+01  -2.107029689646e+01 
1 -1.634237014117e+01  -1.988742211099e+01  -5.237284948613e+00 
1 -5.324228829933e+00   5.122052196459e+01   3.124454385045e+01 
1 -3.352237843199e+01  -6.794616451778e+00  -3.057418334322e+01 
1  3.802107959260e+01   4.582553358136e+01   2.778703099336e+01 
1 -2.814060615680e+01   8.386719508566e+00  -7.006452690753e+01 
1 -6.353717568982e+00   1.132530272629e+01  -8.202474555213e+01 
1  1.548888244830e+01  -7.966062854320e+01   1.692413008458e+01 
8
Step 4800
1  4.789813256651e+01  -3.598769534472e+01   9.058947153432e-01 
1 -1.935605778596e+01   3.162877087347e+01   8.712590866206e+00 
1 -3.101303125242e+01   5.585955600506e+01   2.652556120400e+01 
1 -3.954086694641e+01   3.413024048080e+01  -7.617183078283e+00 
1  4.706591328284e+01   3.995120841020e+01   2.155597751957e+01 
1 -6.429821770441e+01  -1.462055158468e+01  -7.012078039655e+00 
1 -4.846933704055e+00   1.859204717450e+01  -9.874784579475e+01 
1 -7.741465905898e+00  -7.272381654541e+01   7.219472064039e+00 
8
Step 4900
1  3.592106683841e+01  -5.960471008303e+01  -8.479551613861e+00 
1  3.218174514441e+00   5.490356335730e+01   4.136636937716e+01 
1 -3.056394766118e+00   1.659637058154e+01   1.643328200982e+01 
1  3.480037714968e+00   4.173001775941e+01  -3.816775374792e+00 
1  3.067249376960e+01   5.636407787494e+01   3.900405199523e+01 
1 -2.752202640789e+01  -2.881473109141e+01   3.488789298437e+01 
1  1.266166468995e+01   5.184643920656e+01  -7.340868690661e+01 
1 -2.969757411424e+00  -5.114761544581e+01   1.344534728012e+01 
8
Step 5000
1 -2.983981294773e+00  -7.771419866086e+01  -5.013778626600e+01 
1  4.476932786203e-01   4.139122931808e+01   8.871365819628e+01 
1 -5.609027286789e+00   3.137173337967e+01   2.343540345566e+01 
1  5.518502932158e+01   1.704528477160e+01   1.018789630707e+01 
1 -1.715401081645e+01   4.680430821091e+01   4.896186068324e+01 
1  1.318435392558e+01  -1.833264304680e+01   3.926897968188e+01 
1 -1.588940933547e+00   7.195238305012e+01  -5.481223176497e+01 
1  1.963897961439e+00  -1.341087609221e+01   8.917159591835e+00 
8
Step 5100
1  1.102657230722e+01  -1.006975831465e+02  -3.408565545011e+01 
1 -2.373929631770e+01   9.426364774184e+00   7.883042533453e+01 
1 -1.106533045169e+01   4.741527964648e+01   6.296005724593e+00 
1  2.983320269913e+01   2.267436404157e+01   3.242123876456e+01 
1 -3.090681235053e+01   1.871710920207e+01   3.416861252124e+01 
1 -2.605896590068e+01  -1.399562870609e+01   4.248503214909e+01 
1  1.046479284880e+00   2.719238668452e+01  -4.712259788995e+01 
1  2.955705014620e+00  -6.697371074797e+00   2.506439965378e+01 
8
Step 5200
1  3.365013496587e+01  -5.414208411574e+01   2.242211815269e+01 
1 -4.653080951510e+01  -1.107687204384e+01   4.527339423304e+01 
1 -1.408416390172e+01   4.595211909173e+01   5.839286669199e+00 
1 -4.134077955128e-02   3.457693836930e+01   2.201712246241e+01 
1 -3.825916032256e+00  -3.436480533928e+00  -1.859419219204e+01 
1 -6.132601098819e+01  -1.156558268387e+01   4.044896468046e+01 
1 -2.020623476191e+00  -2.874033853622e+01  -2.536768713184e+01 
1 -3.545130447161e+00  -2.275536820867e+01   7.551234941882e+00 
8
Step 5300
1  4.918013945499e+01  -1.769626186899e+01   3.176350511347e+01 
1 -2.494787687211e+01   1.258577113881e+01   4.568370767835e+01 
1 -1.237853823043e+00   2.797692576541e+01   1.703197745870e+01 
1  1.406990060025e+01   2.496617580794e+01   1.340062835962e+01 
1 -2.129857048817e+01  -2.652857645654e+00  -4.570967805384e+01 
1 -4.439675817116e+01   7.633819646953e+00   4.000665286444e+01 
1 -2.038863157944e+01  -4.781128195157e+01  -4.139527887480e+01 
1 -7.547424538923e+00  -3.984266066311e+01  -3.826928616785e+01 
8
Step 5400
1  3.860480687731e+01  -1.392320125256e+01   2.447414918777e+01 
1  6.610791321853e-01   4.697965410154e+01   5.046186622725e+01 
1 -8.947697212169e+00   3.122319565029e+01   2.618992056269e+01 
1  1.054826846357e+01  -2.204651143804e+01   2.958784416781e+01 
1 -4.709766823746e+01   1.894782154815e+01  -3.132901476009e+01 
1 -3.056388920684e+01   8.629375457635e+00   1.501500322013e+01 
1 -4.523814360865e+01  -4.122394597313e+01  -4.701095971959e+01 
1 -1.948457745435e+01  -3.334620647951e+01  -6.505101949154e+01 
8
Step 5500
1  3.711062764514e+01  -3.296282918022e+01   2.480802866013e+01 
1  4.733753875550e+00   2.642220393862e+01   9.754306636778e+00 
1 -2.554577873634e+01   3.148800814078e+01   5.853241773555e+00 
1  5.226516892422e+00  -4.434860997212e+01   5.817167226673e+01 
1 -1.411543281714e+01   2.930490703895e+01  -1.087212043105e+01 
1 -1.812221584886e+01  -9.888895082340e+00   2.519622252711e+01 
1 -2.355977236280e+01  -2.187565929736e+01  -5.377874001450e+01 
1 -2.596086381140e+01  -3.048318182743e+01  -3.741572253289e+01 
8
Step 5600
1  2.921413398781e+01  -2.591689803479e+01   2.043829227488e+01 
1 -5.442659594244e+00   2.531408065185e+00  -1.414472660518e+01 
1 -2.733476503034e+01   3.430550318584e+01  -4.208673906159e+01 