8
Step 0
1 -2.526747284012e+02  -9.139898326518e+01   6.153100321031e+02 
1 -1.258207520092e+02   5.954881177993e+02  -1.504192038587e+02 
1 -6.369877599390e+02  -7.416346211132e+01   2.694691806287e+02 
1  4.335563653125e+02   4.553172070703e+02  -5.768887597283e+02 
1  4.918422941353e+01   4.104898738733e+02   3.662172568987e+02 
1  4.401477329557e+02   4.801209372720e+02  -2.382806015216e+02 
1  4.157396733158e+01   2.433279188640e+02  -4.636222617984e+02 
1  3.420269462983e+02  -5.302369339801e+02   6.603489089374e+02 
8
Step 100
1 -2.342186794624e+02  -8.704027035422e+01   5.448740178880e+02 
1 -9.017025418006e+01   4.894191452662e+02  -1.100480049847e+02 
1 -5.227088944246e+02  -7.380154665173e+01   2.101132983719e+02 
1  3.734866031260e+02   3.704720167439e+02  -5.118137592344e+02 
1  6.020481769038e+01   3.435967990110e+02   2.746229262936e+02 
1  3.839363356737e+02   3.966419987990e+02  -1.979547122828e+02 
1 -8.977070365082e+00   2.023918326998e+02  -4.381290343310e+02 
1  3.058832263384e+02  -4.953804897492e+02   5.753357283043e+02 
8
Step 200
1 -1.481173341845e+02  -6.748346335873e+01   4.024288316707e+02 
1 -3.499744428214e+01   2.654182181631e+02  -8.090151856032e+00 
1 -3.192162271525e+02  -9.575774027534e+01   1.057009485662e+02 
1  2.623663210354e+02   2.381431665448e+02  -4.016786390835e+02 
1  8.616228337207e+01   2.464242979519e+02   1.453355927818e+02 
1  2.638703140050e+02   2.444466595153e+02  -1.459429756062e+02 
1 -7.283014627413e+01   1.038211622805e+02  -3.783416279918e+02 
1  2.447313786003e+02  -4.016442088009e+02   4.300143905234e+02 
8
Step 300
1 -7.988784858830e+01  -5.237382023644e+01   2.461255632330e+02 
1  7.842026101520e+00   7.070143781414e+01   6.970734824224e+01 
1 -1.538069324500e+02  -1.278252463385e+02   1.702211385562e+01 
1  1.398237191870e+02   1.225870377221e+02  -2.985890375535e+02 
1  9.215927090801e+01   1.665450882176e+02   3.705419239976e+01 
1  1.576777732926e+02   1.074434665202e+02  -1.081086136967e+02 
1 -1.315787628857e+02   2.792936293143e+01  -2.815415423773e+02 
1  2.025064596128e+02  -3.074484094476e+02   2.825784233476e+02 
8
Step 400
1 -3.201955982018e+01  -5.453922235963e+01   1.439160939674e+02 
1  2.156390626666e+01  -1.877830679599e+01   8.672341073832e+01 
1 -5.543022675987e+01  -1.417506626400e+02  -5.235458482430e+01 
1  6.593597565099e+01   4.254811188313e+01  -2.247655576995e+02 
1  8.688495253589e+01   1.068195622304e+02  -2.931149052851e+01 
1  7.069618405715e+01   3.531459251812e+01  -1.006102555210e+02 
1 -1.794708565477e+02  -2.506964191786e+01  -1.992994629294e+02 
1  1.577362106734e+02  -2.119030656361e+02   1.813796574861e+02 
8
Step 500
1 -1.224822380230e+01  -4.505180454908e+01   1.013411512893e+02 
1  3.693769091718e+01  -2.721200141091e+01   6.634393546079e+01 
1  1.310810027400e+01  -1.162211619425e+02  -8.124523957021e+01 
1  3.277866459854e+01   1.932248330786e+00  -1.720558037312e+02 
1  1.002562270391e+02   6.569597512528e+01  -4.270306111005e+01 
1  2.175045690963e+01   3.474940546732e+00  -9.436688466088e+01 
1 -1.650331626951e+02  -5.232257187190e+01  -1.182602238725e+02 
1  1.068710407326e+02  -1.337145996592e+02   9.548754828628e+01 
8
Step 600
1 -1.787444102980e+01  -2.567687322458e+01   9.172092691920e+01 
1  5.571762626115e+01  -1.114079404017e+01   4.833712475017e+01 
1  3.228954404634e+01  -8.805068220295e+01  -9.438248025612e+01 
1  7.391741893930e+00  -2.736335223544e+01  -1.262869330863e+02 
1  1.010898331145e+02   6.753984302195e+01  -5.165693103729e+01 
1 -1.938203347479e+01   2.371883509342e+00  -6.126315651550e+01 
1 -1.333057132523e+02  -3.406152283027e+01  -5.355872318849e+01 
1  6.268908579997e+01  -9.674281350214e+01   5.517329998607e+01 
8
Step 700
1 -2.284048038875e+01  -2.140941820865e+01   5.363669216533e+01 
1  4.972050179712e+01   6.040920294857e+00   3.925964966716e+01 
1  2.683196671427e+00  -6.396997639479e+01  -7.441209554781e+01 
1 -4.200794676767e+00  -1.849419451722e+01  -1.086964694786e+02 
1  9.287396926773e+01   6.884908884283e+01  -7.945585682024e+01 
1 -4.928513425026e+01   1.805025877660e+01  -2.562267849057e+01 
1 -8.035575630234e+01  -4.175585393699e+01  -2.831270210367e+01 
1  3.227486163356e+01  -8.759043893422e+01   3.298887282655e+01 
8
Step 800
1 -1.620625029287e+01  -2.581545527684e+01   4.878853224993e+01 
1  3.121633491935e+01   1.461389271272e+01   2.615891210580e+01 
1 -1.675702151813e+01  -5.575777763709e+01  -3.901545447977e+01 
1 -3.768166144288e+00  -2.139179998420e+01  -7.694645814890e+01 
1  1.019374589561e+02   6.397191271324e+01  -5.336827364453e+01 
1 -4.628489915643e+01   2.090455064391e+01  -1.774123743420e+01 
1 -3.725854235342e+01  -4.599757376168e+01  -3.344334619020e+01 
1  2.773702426884e+01  -7.615367007787e+01  -9.529144916963e+00 
8
Step 900
1  3.304409941109e+01  -1.728355489962e+01   5.114518419241e+01 
1  2.052227302559e+01   4.153055473870e+01   2.983424223603e+01 
1 -2.757050080141e+01  -4.446515742772e+01  -1.556122328692e+01 
1 -1.324434796254e+01  -2.136162528203e+01  -2.283100147517e+01 
1  8.666651666068e+01   5.971002116133e+01  -5.141548642406e+01 
1 -1.824023171421e+01   3.770526165283e+01  -1.745831158261e+01 
1  4.481483768295e-01  -3.726862506981e+01  -3.924914754051e+01 
1 -9.973695048213e+00  -6.582929170198e+01  -3.740353713112e+01 
8
Step 1000
1  6.943713104500e+01  -5.239241257720e+00   5.512907364855e+01 
1  2.525253323245e+01   7.965409775590e+01   9.756830750624e+00 
1 -2.428304467664e+01  -3.381969835753e+01   8.531184560580e+00 
1 -2.191734566515e+01  -4.107094108595e+01  -2.360583085287e+00 
1  7.532213171341e+01   5.774370333816e+01  -5.739466738093e+01 
1  6.920090821696e+00   3.654140688168e+01   5.806696757096e+00 
1  2.113159059297e+01   5.782219403081e+00  -3.587296672722e+01 
1 -2.084749080887e+01  -3.837303934282e+01  -4.535800243171e+01 
8
Step 1100
1  6.394554458733e+01   1.836600509868e+01   4.624227478103e+01 
1  2.154533631243e+01   7.191233449259e+01  -6.006440067833e-01 
1 -4.997875733738e+01  -4.448270451363e+01   3.199909031092e+01 
1 -3.086706392968e+00  -5.345371307516e+01   1.288324030295e+00 
1  4.020564321268e+01   5.940371445902e+01  -4.565483600665e+01 
1  2.424401716793e+01   2.703600794695e+01   2.863085615082e+01 
1  2.112731061046e+01   4.071207355267e+01  -4.231624217487e+01 
1 -1.409108250110e-01  -2.219890220500e+01  -3.185093294627e+01 
8
Step 1200
1  4.107162757173e+01   1.504078637178e+01   3.327879068147e+01 
1 -3.498945705878e+00   7.722572627421e+01  -4.392656879019e+00 
1 -4.833514737247e+01  -3.210736527552e+01   3.744135545870e+01 
1  2.067189405960e+01  -3.665782069775e+01   1.771236019718e+01 
1  1.510892967191e+01   5.644958543623e+01  -3.062366630587e+01 
1  2.956476690737e+01   1.008049505716e+01   3.855564832148e+01 
1  2.641326917661e+01   5.661175431787e+01  -5.705087528371e+01 
1  8.775879500151e+00  -2.968272992759e+01  -1.876562231973e-01 
8
Step 1300
1  1.227787110483e+01   4.715619169851e+00   3.739448710987e+01 
1 -2.869930217315e+01   7.191864120907e+01  -1.098436761006e+00 
1 -1.956700600103e+01  -1.779972708413e+01   2.178118087102e+01 
1  2.581472637509e+01   1.001076291162e+01   1.890496008024e+01 
1 -4.819053795364e+00   4.291575867521e+01  -3.886336757087e+01 
1  2.113862379341e+01  -1.927598974892e+00   2.511511047324e+01 
1  1.617608491649e+01   4.403327062260e+01  -7.605847568520e+01 
1  9.760578784707e+00  -3.137349087530e+01   7.511949256123e-01 
8
Step 1400
1 -1.560712001108e+01   4.557730691145e+00   5.126468302562e+01 
1 -2.223628220150e+01   5.708743689433e+01   5.310380080450e+00 
1 -6.944333558983e-01  -5.321715277051e-01   9.109264892621e+00 
1  6.710932110765e+00   3.887010566072e+01   1.108659035200e+01 
1 -3.346379235500e+01   1.414689595556e+01  -2.561176306636e+01 
1  1.515197348505e+01   1.744322958859e+01   8.152652331291e+00 
1 -1.585494902235e+01   1.631806273494e+01  -6.706879487930e+01 
1  1.141048147848e+01  -1.794250884022e+01  -4.472357258281e+00 
8
Step 1500
1 -1.642798531518e+01   1.437922493204e+01   5.044905988288e+01 
1 -4.603264575457e+00   2.867794597790e+01   1.383288779733e+01 
1 -8.838294166327e+00   6.966821315764e+00  -2.876511551948e+01 
1 -1.096921423289e+01   3.154690225116e+01  -3.085041987062e+00 
1 -5.288505402489e+01  -9.021480423271e+00  -2.202741364959e+01 
1  5.710163159738e+00   3.391534417362e+01   1.392973123530e+01 
1 -2.230278096235e+01   7.203393670138e+00  -4.581645808788e+01 
1  1.887652289164e+01  -1.632659299686e+01   5.529074883779e+00 
8
Step 1600
1 -1.076765066557e+01   1.449373609167e+01   4.556970039413e+01 
1 -6.454238876914e-02   5.022447054013e+00   1.523586980660e+01 
1 -3.356091988271e+01  -1.313204264939e+01  -3.364545224202e+01 
1  1.239340538069e+00   2.377437150896e+01  -8.045228989343e+00 
1 -6.388219310428e+01   5.095158614263e+00  -2.304978284386e+01 
1  2.181057129860e+00   1.732763906559e+01   1.756145912001e+01 
1 -2.603743681833e+01  -2.755932788800e+00  -6.439210543163e+00 
1  8.915468539921e+00  -5.243335725397e+00   2.608942956584e+01 
8
Step 1700
1 -2.647928192720e+01   2.279859055112e+01   3.101706046430e+01 
1 -1.400509185876e+00  -8.294539636304e+00   2.151590018526e+01 
1 -4.144155102975e+01  -5.676720695918e+01  -2.669576757991e+01 
1  1.438620983015e+01   2.643244342973e+01  -2.200819344024e+01 
1 -5.216624046195e+01   2.998615330567e+01  -1.060719559926e+01 
1 -3.800554766484e+00   2.781259990009e+01   1.982747529792e+01 
1  9.741652534927e-01   8.654952408956e+00   1.911778546388e+01 
1  8.124933130937e+00   1.302451739247e+01   1.594581852021e+01 
8
Step 1800
1 -1.486392110942e+01   4.134231397674e+01   8.598017551701e+00 
1 -4.967081073987e+00  -2.062841047569e+01   4.475554000612e+00 
1 -4.512064242792e+01  -7.330561886796e+01  -3.000024775346e+01 
1  4.286562128275e+01   1.427019626826e+01  -5.425630757838e+01 
1 -3.160237726127e+01   2.879113672724e+01  -4.904120099681e+00 
1 -1.573276113742e+01   3.668117010935e+01   1.577635153040e+01 
1  1.335843249388e+01   2.646875674905e+01   5.627876815003e+01 
1  2.288813795022e+00   2.464066988654e+01  -2.400476407409e+01 
8
Step 1900
1 -9.434443525450e+00   5.966112195233e+01  -3.330046376996e-02 
1 -2.143158040936e+01  -1.526897906918e+01  -5.761494834270e+00 
1 -3.854502913260e+01  -8.340679437756e+01  -1.716449859317e+01 
1  5.116924774500e+01  -7.575193798201e+00  -6.477501998292e+01 
1 -1.802453104277e+01   3.956919673628e+01  -9.961728733509e+00 
1 -2.454915265764e+01  -8.249661758838e-01  -1.879314667547e+00 
1  1.976428818486e+01   2.302914177192e+01   6.683971265943e+01 
1  1.382181428127e+01   1.065098037057e+00  -3.424084888262e+01 
8
Step 2000
1 -1.926922135273e+01   5.948808279224e+01  -1.483435437054e+01 
1 -2.829836125584e+01  -3.043973182785e+01  -3.257161997620e+01 
1 -1.743796679406e+01  -8.034788378854e+01  -1.242266541494e+01 
1  6.936155512034e+01   1.386118170058e+01  -5.760747651255e+01 
1 -6.315725741415e+00   6.257184973450e+01   2.779453087525e+00 
1 -2.192492698857e+01  -3.858248710476e+01   1.513704824483e+00 
1  4.197973664277e+01   5.643048758035e+00   6.946318589603e+01 
1  2.858754635548e+01  -1.185542352461e+01  -1.661003637653e+01 
8
Step 2100
1 -1.562840543579e+00   5.900287714198e+01  -2.522798701212e+01 
1 -3.206389922115e+00  -4.864422845524e+01  -3.636940649813e+01 
1 -6.225396046985e+00  -6.670280804368e+01  -1.972111561230e+01 
1  6.151808805749e+01   3.458135741526e+01  -4.016489318131e+01 
1  1.091379511972e+01   7.106055928553e+01   6.251904903288e+00 
1 -3.115739822668e+01  -3.690112577798e+01   1.498705160079e+01 
1  3.844994951934e+01  -2.487900593558e+00   6.053231179300e+01 
1  2.945574330257e+01  -3.524806606376e+01  -2.399665146216e+01 
8
Step 2200
1 -2.570362420384e+00   3.479438415156e+01  -1.781417887496e+01 
1  6.416150493605e+00  -7.828751414707e+01  -5.780904784791e+01 
1 -1.720936823592e+01  -5.123888836395e+01  -3.331620104335e+01 
1  4.938074304087e+01   4.787638198773e+01  -2.947378338997e+01 
1  3.600822859311e+01   7.378518146990e+01   8.911193989608e+00 
1 -4.094858898964e+01  -2.599531519019e+01   2.450491021064e+01 
1  2.802351321844e+01  -3.863296845381e+00   5.145159182179e+01 
1  7.211971711563e+00  -5.956958443025e+01  -2.101048801737e+01 
8
Step 2300
1 -4.615546052926e+00   1.302495404779e+01   4.385379239491e+00 
1 -1.375606773418e+01  -7.734668642343e+01  -5.787186104012e+01 
1 -4.619937896593e+00  -2.561169483171e+01  -2.466132482215e+01 
1  4.055124101308e+01   6.530156158885e+01  -2.454624450601e+01 
1  2.259841514373e+01   5.248475339649e+01   9.702623896077e+00 
1 -5.162032225587e+01   1.889055283692e+01   1.510510210831e+01 
1  3.179859330284e+01  -2.842827524424e+00   4.106347147085e+01 
1  1.492977016143e+01  -5.230396833006e+01  -2.053512507742e+00 
8
Step 2400
1  1.052022394433e+01   1.597355826531e+01   2.334923514909e+01 
1 -3.876565294544e+01  -6.750004755732e+01  -3.727954575446e+01 
1 -3.631752580748e-01  -5.386278310817e+00  -3.541018920247e+00 
1  1.913007170900e+01   8.025689776801e+01  -3.391504953680e+00 
1 -1.312735664891e+01   1.736145812700e+01   1.290085674179e+01 
1 -3.779005677121e+01   5.705880504706e+01   1.983262162501e+01 
1  5.078266374450e+01  -2.362004343787e-02   2.950895238880e+01 
1  3.064824143096e+01  -4.703113760364e+01  -4.833415200550e+00 
8
Step 2500
1  1.736242168201e+01   6.174149557198e+00   2.442809951717e+01 
1 -4.422366992507e+01  -7.995256542339e+01  -9.790463364749e+00 
1  9.901268820678e+00  -4.142535270666e+00   9.610307497375e+00 
1 -1.191628313833e+01   6.184270162548e+01   1.895373484842e+01 
1 -4.207886610120e+01   5.530987352321e+00  -1.526644527404e+01 
1 -2.355148658369e+01   5.227784921540e+01   1.850794335977e+01 
1  3.959420213403e+01  -6.917023230313e+00   1.995535495642e+01 
1  4.359700110888e+01  -4.843220623077e+01  -7.458238370191e+00 
8
Step 2600
1  7.979825930743e+00   2.711445718082e+01   9.331215405433e-01 
1 -3.960832104520e+01  -6.591881012123e+01  -5.786257750892e-01 
1  5.182591719429e+00  -1.915058407362e+01   5.925189808069e-02 
1 -2.363241442028e+01   3.718629100461e+01   2.477467164309e+01 
1 -4.248048014850e+01   2.535905110062e+00  -3.526119804409e+01 
1 -1.712197121758e+01   4.914203688221e+01   1.183987212221e+01 
1  1.589150622641e+01  -1.610331420032e+01   1.285115342928e+01 
1  4.862419747312e+01  -4.185787609890e+01  -7.910942937846e+00 
8
Step 2700
1  9.798658720135e+00   3.062316443437e+01  -3.012438250874e+00 
1 -2.168589544725e+01  -1.411870930004e+01   4.594783777530e+00 
1 -2.416922350769e+01  -3.270446654039e+01  -5.506440957610e+00 
1 -2.381867862233e+01   1.602349830004e+01   1.500607070973e+01 
1 -2.435179970538e+01  -4.582647700440e+00  -2.965895151482e+01 
1 -3.090458907029e+01   6.593380897586e+01   2.077235694965e+01 
1  1.773053847693e+01  -3.919706350781e+01  -4.505573218714e+00 
1  5.201513307404e+01  -4.093242385587e+01  -3.080256618754e+01 
8
Step 2800
1  2.215737872795e+01   1.809380782402e+01   8.039814929655e+00 
1  4.697719428105e+00   2.346209011398e+01   4.443585959846e+00 
1 -5.976734099319e+01  -2.809604144307e+01  -3.469535156052e+00 
1 -2.056432628400e+01   1.364997965856e+01  -1.228414905563e+00 
1  8.855613898378e-02  -1.866566994663e+01  -1.270650029869e+01 
1 -3.644130974112e+01   7.472057193602e+01   4.467064341790e+01 
1  2.424742098479e+00  -7.309995828461e+01   8.097135957832e+00 
1  5.532678382180e+01  -2.413237482102e+01  -5.379099599417e+01 
8
Step 2900
1  2.453053778605e+01   1.284026085911e+01   1.155858877219e+01 
1  1.904028278984e+01   4.076138706102e+01   3.070013529921e+00 
1 -6.973638962495e+01  -3.651386447055e+01  -2.288266837331e+01 
1 -2.759189374658e+01  -7.043927838923e+00  -1.623309346547e+01 
1  4.795202134397e+00  -2.741470042531e+01  -2.638479693997e+01 
1 -3.367462180219e+01   7.170422358160e+01   4.913820368856e+01 
1 -1.803121465676e+01  -9.967333452558e+01  -4.695339186658e+00 
1  4.385326152883e+01   1.621274170017e+00  -6.018094163979e+01 
8
Step 3000
1  1.959819912303e+01  -4.077672376112e-01   2.422857721414e+01 
1  1.767674717109e+01   5.592600925093e+01   8.646641413384e+00 
1 -6.645560860374e+01  -4.456928919716e+01  -2.027434527500e+01 
1 -1.560693293949e+01  -2.088177989942e+01  -1.299833429005e+01 
1 -5.614885601814e-01  -2.379887266761e+01  -4.340804304154e+01 
1 -5.486592160002e+01   6.971027083382e+01   4.566775211838e+01 
1 -4.199889958512e+01  -1.110691975399e+02  -1.301391065248e+01 
1  2.637314461794e+01  -9.660709083746e-01  -4.749384811285e+01 
8
Step 3100
1  6.746395889745e+00   9.668197997274e+00   4.004993371784e+01 
1  3.498430239115e+01   3.598159910574e+01   2.730225950667e+00 
1 -2.324357560890e+01  -5.209383955490e+01  -2.982939624709e+01 
1  3.858874842927e+00  -1.989869811920e+01  -2.543668056288e+00 
1 -1.385600803290e+01   2.565357464281e+01  -3.830565524291e+01 
1 -5.255134308761e+01   6.843882364184e+01   4.532500622894e+01 
1 -5.205322945142e+01  -9.605910156530e+01   7.941235475044e-01 
1 -1.286401071235e+01   3.549331216201e+00  -3.200478740916e+01 
8
Step 3200
1  2.330566126229e+00   2.174756654174e+01   6.591430133258e+01 
1  4.712804663886e+01   1.310893009518e+01  -3.221271143817e+01 
1  2.920054364756e+01  -3.404454029927e+01  -3.204960278783e+01 
1  1.398243386845e+01   2.025680650745e+01  -6.643377042438e+00 
1 -2.361643021713e+01   4.796581911690e+01  -1.247107591430e+01 
1 -3.984244801025e+01   7.763226939204e+01   5.926782310814e+01 
1 -1.464990634851e+01  -8.146259048915e+01   2.544199707109e+01 
1 -3.283586086125e+01   1.161214338966e+01  -2.791966387609e+01 
8
Step 3300
1  1.335646045488e+01   3.847423566729e+01   5.402185954649e+01 
1  6.492059087788e+01  -7.837916987764e+00  -2.851068883924e+01 
1  6.125049339742e+01  -9.168327094004e+00  -3.521626322612e+01 
1  2.845026005672e+01   3.862703832666e+01  -2.288943953852e+01 
1 -3.321288642891e+01   3.718207386791e+01   8.468939227044e+00 
1 -2.750474521806e+01   7.692987453806e+01   6.229400898228e+01 
1  3.347311148645e+01  -7.435342298380e+01   1.523378316475e+01 
1 -4.744290257197e+01   7.168505401970e+00  -8.913406049614e-01 
8
Step 3400
1 -7.978596535413e-02   2.325072907364e+01   3.940264265736e+01 
1  4.195845278939e+01  -1.322480798015e+01   5.054453452003e+00 
1  5.292300315115e+01   7.537940718115e+00  -2.693292134324e+01 
1  2.678526538688e+01   2.310959295356e+01  -3.069467856959e+01 
1 -2.187543366905e+01   2.063555833473e+01   5.719016835507e+01 
1  3.802107818207e+00   5.187711898785e+01   5.214416887645e+01 
1  2.556579296434e+01  -6.656244691247e+01   1.943048106725e+01 
1 -5.977792079315e+01   1.526185822806e+00   1.659741830085e+01 
8
Step 3500
1 -3.604892142903e+01  -5.249383938318e+00   4.562683002555e+01 
1  2.866449547032e+01  -4.138492549646e+01   1.653479890066e+01 
1  3.299318621051e+01   1.305543429466e+01  -8.421341597311e-01 
1  3.599268482661e+01  -2.464187337970e+01  -2.259815315752e+01 
1  7.039310306796e+00   1.256328450522e+01   7.201012464809e+01 
1  1.519037649910e+01   4.138711416639e+01   4.305917109473e+01 
1 -7.659831065518e-01  -5.088574708183e+01   1.926805818050e+01 
1 -5.484332518434e+01  -9.894653765661e+00   1.578680311094e+01 
8
Step 3600
1 -3.590651937981e+01   1.414968674012e+01   4.221705980091e+01 
1  1.818207895773e+01  -4.438758259959e+01   8.735719451979e+00 
1  2.004704107100e+01   2.287595116815e+01   1.763645343866e+01 
1  5.418071978433e+00  -4.777704095447e+01  -1.220219860696e+01 
1  1.147486563309e+01  -2.573145987644e+00   8.952994277812e+01 
1  1.815928223259e+01   4.320378614690e+01   1.995825632249e+01 
1 -3.787302840755e+01  -3.130849231377e+01   1.368303939674e+00 
1 -3.767822433697e+01  -2.314744925217e+01   6.548095993046e+00 
8
Step 3700
1 -2.541422987196e+01   2.551183474979e+01   3.926526941363e+01 
1 -1.652672811348e+01  -2.228515902698e+01  -1.175348840978e+00 
1 -2.594943669814e+00   1.279536391118e+01   2.804926435401e+01 
1 -1.610268433673e+01  -6.279437048298e+01  -2.167837668416e+01 
1 -4.305461317687e+00  -3.041966896426e+01   6.708395069443e+01 
1  2.135323309335e+01   4.718584719665e+01   2.388437734827e+01 
1 -4.659415014386e+01  -3.744435826231e+00   1.930405526713e+01 
1 -7.454760865298e+00  -2.225705923832e+01   1.613044625684e+01 
8
Step 3800
1 -3.001758162556e+00   4.059027660595e+01   4.280759754256e+01 
1 -2.752990121821e+01  -3.821090516788e+00  -2.569853774003e+00 
1 -2.164208682983e+00   6.397472360599e-02   3.083945706161e+01 
1 -2.186905025339e+01  -6.821076321056e+01  -1.751720463204e+01 
1 -1.009599028309e+01  -5.265636411530e+01   3.311739730626e+01 
1  1.037929874666e+01   3.310940945679e+01   3.135945930068e+01 
1 -5.265646033758e+01   6.716985407325e+00   1.317149831058e+01 
1  3.117026331117e-01  -8.614449178494e+00  -5.170427197527e+00 
8
Step 3900
1  6.439501105604e+00   2.736886565196e+01   3.066137688437e+01 
1 -2.274112491590e+01  -4.141599717101e+00   9.238237245230e+00 
1 -2.948858919726e+01   8.606861392015e+00   3.342058419447e+01 
1 -8.904665061064e+00  -4.121964419503e+01  -4.436018673872e+01 
1 -2.636376141089e+00  -3.662632893265e+01  -1.212441197376e+01 
1 -1.852671376590e+01   1.263251017656e+01   3.150453818634e+01 
1 -4.643272189077e+01   2.530724337794e+01  -7.044885725961e-01 
1  1.094763958499e+01   1.499261156171e+01  -4.178890519548e+01 
8
Step 4000
1  7.807522815587e+00   4.816027930082e+01   2.791898959706e+01 
1 -3.367816742655e+00  -1.882576135476e+01  -5.221326641574e-01 
1 -5.857068108642e+01   2.906863763635e+01   3.358884716454e+01 
1  4.050801129585e+01  -1.357567712847e+01  -8.210600409647e+01 
1 -2.308113747635e+01  -1.293160941956e+01  -2.142079798294e+01 
1 -1.040093332949e+01   4.593985334584e+00   2.473356683399e+01 
1 -3.608060621076e+01   3.774356029821e+01  -1.377583578998e+01 
1  1.468023918910e+01   1.703087559048e+01  -4.316047727561e+01 
8
Step 4100
1 -2.518964839192e+00   5.561586129289e+01   5.141688314426e+01 
1  7.014569340663e+00  -1.495399790739e+01  -5.007250329395e+00 
1 -6.760817375574e+01   3.317457702953e+01   3.294956039096e+01 
1  6.735195919775e+01  -6.984439168585e+00  -7.581588488275e+01 
1 -5.501058501922e+01   1.831093215018e+01  -2.938154093140e+01 
1  1.654817713042e+00  -1.359643425853e+01   8.456039555356e-02 
1 -3.616754803330e+01   4.798693850689e+01  -3.784391407661e+01 
1  2.077150515819e+01  -3.481400994555e+00  -2.659106977068e+01 
8
Step 4200
1 -2.173955398121e+01   3.599875466740e+01   5.533664205440e+01 
1  1.858681230146e+01  -1.115729098709e+01  -1.188939528673e+01 
1 -6.995094076881e+01   2.901215287172e+01   5.425388901260e+01 
1  7.819553530863e+01  -2.561998125521e+01  -4.515376736007e+01 
1 -5.622641998645e+01   4.423240826361e+01  -2.937634559040e+01 
1  2.127004408499e+01   3.403229670858e-01  -2.626565666327e+01 
1 -5.420136210634e+01   4.884339458193e+01  -5.280081338376e+01 
1  1.532524209163e+00  -2.319013147061e+01  -4.245047896006e+01 
8
Step 4300
1 -4.125766495319e+01  -5.735617480454e-01   4.359237477315e+01 
1  2.959455257857e+01  -5.329511043657e+00  -2.850976800864e+00 
1 -6.084675431311e+01   3.729175155175e+01   4.770390755112e+01 
1  7.037681070553e+01  -2.119044720961e+01  -1.983534883831e+01 
1 -4.701946051096e+01   5.367796577127e+01  -1.970873461271e+01 
1  4.803477881885e+01   1.101716604494e+01  -5.494403081183e+01 
1 -5.644247372845e+01   2.433629686419e+01  -4.633657508597e+01 
1 -1.657938819376e+01  -4.025912213664e+01  -5.699703568731e+01 
8
Step 4400
1 -6.359503764502e+01  -9.296792250249e+00   3.043818567129e+01 
1  3.500539347530e+01  -7.417435387266e+00   5.578315989678e+00 
1 -4.589132348837e+01   2.213279989801e+01   3.784042490622e+01 
1  6.643910946853e+01  -1.930370151459e+00  -2.558106014760e+01 
1 -4.841162526687e+01   7.453337368740e+01  -2.468714320073e+01 
1  3.698460599447e+01  -2.306196377307e+00  -4.145667422434e+01 
1 -1.457756630731e+01   5.333670024321e+00  -3.081816429567e+01 
1 -2.892018975658e+01  -3.737141847137e+01  -4.282615148145e+01 
8
Step 4500
1 -6.374387252250e+01  -2.823784707237e-01   2.709970003912e+01 
1  4.619385349964e+01  -2.503685610802e+01   4.840435130420e+00 
1 -4.100604270662e+01   8.988573016209e+00   1.494683290089e+01 
1  5.165805413091e+01  -1.741314515642e+01  -1.314947236074e+01 
1 -4.107407986016e+01   7.081578708591e+01  -1.677411435309e+01 
1  9.864513441026e+00  -5.555356419115e+00  -9.782239151160e+00 
1  1.156957122559e+01   9.288060168821e+00  -2.269491788280e+01 
1 -3.074613648831e+01  -5.078320723084e+01  -1.319254119773e+01 
8
Step 4600
1 -3.756629106756e+01   1.505325041095e+01   2.796412315542e+01 
1  4.264523679601e+01  -5.314797277467e+01  -1.393443969372e+01 
1 -4.282663964105e+01   1.116068465435e+01   7.735021547161e+00 
1  3.371229645507e+01  -2.129557891226e+01  -2.806032468520e+00 
1 -2.046372874115e+01   7.221615226904e+01  -3.454158848719e+01 
1 -7.497507977991e+00   5.696130661008e+00   1.507884322209e+01 
1  1.053785433143e+01   1.478593432735e+01  -2.096593482132e+00 
1 -2.497502103804e+01  -7.696036321194e+01  -1.056917003073e+00 
8
Step 4700
1 -1.782134719280e+01   1.547576834483e+01   2.011735912395e+01 
1  2.608027844376e+01  -5.852037231191e+01  -1.249624242698e+01 
1 -4.448683916369e+01   2.214578709291e+01   1.656846942636e+01 
1  7.973022520120e+00  -2.292040928009e+01  -7.564323824711e-01 
1 -1.763107399175e+00   7.552792703967e+01  -2.166715335360e+01 
1 -3.170816255995e+01  -1.816450711337e+00   2.018870356979e+01 
1  2.295151507623e+01   3.067762205462e+01   1.269965152321e+00 
1 -1.215332886553e+01  -9.401001679186e+01  -6.085322108127e+00 
8
Step 4800
1 -1.736396595792e+01  -1.012888441986e+01   2.403891030200e+01 
1  2.202507017552e+00  -6.971969406138e+01   9.246185990098e+00 
1 -4.570840532508e+01   1.378308491566e+01   3.092397982391e+01 
1 -2.446120938300e+01  -7.746304962616e+00  -9.459141507852e-01 
1  4.161750253546e+01   9.198543649148e+01  -2.077505888526e+01 
1 -3.970474311090e+01  -1.723330284170e+01   2.253350126100e+01 
1  2.272745429988e+01   1.067614045376e+01  -2.368122247355e+01 
1 -1.354513169968e+01  -8.006777883243e+01  -1.353714666683e+01 
8
Step 4900
1 -1.565460343902e+01  -3.258611634110e+01   4.272410597539e+01 
1 -7.683924447121e+00  -5.444950652124e+01   4.635822826496e+01 
1 -3.105664195652e+01   2.209168068945e+01   3.928950731594e+01 
1 -4.165982136534e+01   6.260498046987e+00  -1.276494729889e+01 
1  4.993790031510e+01   9.683065336775e+01  -3.763443085912e+01 
1 -3.444554345628e+01  -1.418574292640e+01   1.837815457980e+01 
1 -4.475784499624e+00  -5.702653587484e+00  -1.563857352037e+01 
1 -1.398239153196e+01  -5.516199757831e+01  -1.316658733066e+01 
8
Step 5000
1  1.508296092760e+01  -4.536355501297e+01   3.791825851058e+01 
1 -3.039138523122e+01  -6.432307024409e+01   6.794591414801e+01 
1 -4.347059003214e+01   2.320184767000e+01   5.928428414296e+01 
1 -4.390810163688e+01   1.677004417549e+01  -9.952427053386e-01 
1  2.944368224455e+01   6.770052162770e+01  -4.055836382960e+01 
1 -1.212334835321e+01  -7.165165939749e+00  -7.852394595507e+00 
1 -1.098085624883e+01   9.278558117595e-01  -2.099641488193e+01 
1 -3.500794109577e+01  -4.333015558978e+01  -1.766192053539e+01 
8
Step 5100
1  4.338099739075e+01  -1.430658344691e+01   2.331700603529e+01 
1 -4.732867870239e+01  -3.064559918559e+01   6.419910395919e+01 
1 -3.692734630356e+01   8.461406191006e+00   4.823799900842e+01 
1 -3.476617382528e+01   1.497684515388e+01   5.922644743237e+00 
1  1.252397086817e+01   2.544493870789e+01  -2.135975363311e+01 
1  7.521600486410e+00  -6.365721616052e+00  -6.691377804400e+01 
1  1.119733363547e+01   1.124214441757e+01  -1.194724898835e+01 
1 -4.135479725296e+01  -5.450906065905e+01  -2.517809090565e+01 
8
Step 5200
1  6.414482746841e+01   1.567832637698e+01   1.499535261040e+01 
1 -3.607122297904e+01   5.062302718024e+00   5.321285134129e+01 
1 -1.105788371476e+01  -4.389657415784e+00   1.575154642948e+01 
1 -1.708269323267e+01   2.173312871680e+01   1.277374557960e+01 
1  4.500384932616e+00   8.825345068131e+00   1.368170498436e+00 
1  1.386906485384e+01  -3.584694764629e+00  -6.848318770810e+01 
1  2.702402500532e+00   1.617075374639e+01  -2.927198646699e+01 
1 -3.716475766725e+01  -6.397479740745e+01   8.362202910005e+00 
8
Step 5300
1  4.813970436278e+01   5.790105810208e+00   1.893756523363e+01 
1 -2.573083719973e+01   2.979692597227e+01   3.167589134833e+01 
1  1.871744370750e+00  -1.727943697343e+01  -5.260659130718e+00 
1  7.454900892429e+00   1.652130246166e+01   3.136007609729e+01 
1  8.623509980920e-02   7.139520275094e+00   1.465665458544e+01 
1  2.568406720772e+01  -1.131811986654e+01  -3.054280539217e+01 
1 -1.128410182694e+01   2.959875570410e+01  -4.857777880834e+01 
1 -1.687020984211e+01  -7.179408756957e+01   1.954354033014e+01 
8
Step 5400
1  2.838050900371e+01  -2.140148835905e+01   1.416569465690e+01 
1 -2.361770613527e+01   3.252463944015e+01   3.189140883205e+01 
1  1.657375203217e+01  -1.249207053527e+01  -2.647304236317e+01 
1  2.703406747914e+01   6.759067006080e+00   4.911352220785e+01 
1 -1.222779669724e+01  -4.958265880216e+00   1.931077446901e+01 
1  4.760767277668e+01  -6.253251905502e-01   1.016831096283e+01 
1 -6.530902849596e+00   3.240029334361e+01  -3.295915981754e+01 
1  1.933885807694e+00  -6.235907469414e+01   2.145920717118e+01 
8
Step 5500
1  2.508646005988e+01  -4.913398977339e+01  -1.061288076490e+01 
1 -1.771801312639e+01   3.511013613229e+01   8.247137992226e+00 
1  1.567696880065e+01  -4.602571372339e+00  -2.701281755284e+01 
1  3.253403325023e+01  -2.229092937295e+01   4.726730784978e+01 
1 -3.562962202867e+01  -2.805167386889e+00   4.719003662157e+01 
1  4.535373156938e+01   1.496957402507e+00   2.107343402356e+01 
1  1.889899948283e+01  -1.302628209810e+00  -1.530215378714e+01 
1  1.927424623915e+01  -4.774551396629e+01   1.836660935920e+01 
8
Step 5600
1  3.082934612613e+01  -4.268245518348e+01  -3.545366718451e+01 
1 -1.996025933803e+01   1.462207706411e+01  -1.259772778301e+00 
1  6.862197772132e-01   3.651134054432e+00  -6.014623739530e+00 