8
Step 0
1  8.007571172427e+01  -3.110845953379e+02   3.800107656691e+02 
1 -5.019994772206e+02   1.856027071839e+01   1.621393706246e+02 
1  2.207658232920e+02  -1.104410825658e+02   2.470314518826e+02 
1 -1.415348931650e+02  -1.523649789114e+02  -2.476720116951e+02 
1  5.676001120780e+02   2.888057127613e+02  -1.504853858455e+02 
1 -1.790786513439e+02  -9.031868555372e+01   1.561677563649e+02 
1 -5.707928555522e+02  -1.331594404432e+02  -2.466767960142e+02 
1 -3.040050612691e+02   6.518498697881e+02  -5.665670346277e+02 
8
Step 100
1  9.785523821901e+01  -2.401706999614e+02   3.204984205923e+02 
1 -4.381162048180e+02   1.423824202703e+01   1.562700309487e+02 
1  2.115501810595e+02  -8.880626100026e+01   2.931648154842e+01 
1 -3.676105405732e+01  -6.343022843797e+01  -1.970443188144e+02 
1  3.809959771980e+02   2.028090409058e+02  -1.697224075560e+02 
1 -1.433481817920e+02  -4.790610069897e+00   1.076592851985e+02 
1 -4.955198293110e+02  -5.006889687240e+01  -1.255879021407e+02 
1 -2.726683347504e+02   3.983873562732e+02  -3.377040753949e+02 
8
Step 200
1  1.002731908366e+02  -1.475015315366e+02   2.459215886969e+02 
1 -3.513933999936e+02   8.416464138928e+00   1.219314748209e+02 
1  1.667881981097e+02  -2.286518561750e+01  -2.522878919876e+02 
1  1.624582404287e+02   9.750415805742e+01  -1.563087289843e+02 
1  8.422024280501e+01   7.517833660759e+01  -1.214343155415e+02 
1 -1.064709638523e+02   6.033767014073e+01   2.751696204511e+01 
1 -3.483578359861e+02   5.645472925353e+01   3.202517603938e+01 
1 -2.405084554339e+02   3.677504457968e+01  -7.282872457133e+01 
8
Step 300
1  4.188249096142e+01  -8.159922805276e+01   2.014277395600e+02 
1 -2.140759054941e+02   1.379986915780e+00   4.447154213075e+01 
1  9.060763869390e+01   2.391484173219e+01  -2.935968540727e+02 
1  1.734032046788e+02   1.481147952285e+02  -1.511449769420e+02 
1 -3.550967364630e+01   4.348641965354e+01  -3.953889965307e+01 
1 -5.346040494221e+01   6.429656929438e+01  -3.222584198531e+01 
1 -2.100495374852e+02   5.042600839828e+01   9.225876465658e+01 
1 -1.690288459136e+02  -1.410257452028e+02  -2.321512971251e+01 
8
Step 400
1  2.718774162852e+00  -2.674479743522e+01   1.595081831492e+02 
1 -7.540025467303e+01   4.512273003091e+00  -2.460813291727e+01 
1  1.127594415400e+01   5.152436179592e-01  -1.723826588731e+02 
1  6.541040416256e+01   9.209645070992e+01  -1.637641132064e+02 
1 -3.155716682191e+01   3.372277674323e+01   2.717280119037e+01 
1  1.457850294533e+01   6.552367177826e+00  -5.343597307282e+01 
1 -9.151350028176e+01   7.727454802951e+00   5.031851540331e+01 
1 -8.616635975944e+01  -1.122301449960e+02  -6.545744959199e+01 
8
Step 500
1  7.793264596284e+00  -2.505956433339e+01   1.191871263174e+02 
1  6.773185838279e-01  -4.333983232094e+00  -2.529686677931e+01 
1 -7.714410256118e+01  -4.807861410784e+01  -7.512561661914e+01 
1 -3.892633186419e+00   3.261309785176e+01  -1.210033342246e+02 
1  5.407248172797e+00   4.923662363751e+01   1.960633955830e+00 
1  6.352511093507e+01  -3.072895405981e+01  -7.823637871871e+01 
1 -1.266623930628e+01  -1.489880144853e+01  -3.289501672846e+01 
1 -1.465878611967e+01  -4.464960166651e+01  -8.015250339636e+01 
8
Step 600
1  8.756107861330e+00  -1.780530848077e+01   7.722421016288e+01 
1  1.152789076723e+01  -4.911356572394e+01   1.790260112735e+01 
1 -1.203552787136e+02  -5.447614813089e+01   1.494831861925e+00 
1 -3.432409668383e+01   4.296866622921e+01  -5.703324247463e+01 
1  3.806466169744e+01   8.514967926368e+01   6.275004716168e+00 
1  4.152118064634e+01  -1.634162859723e+00  -8.544332501547e+01 
1  1.200768341158e+01   2.111295022565e+01  -5.524259503703e+01 
1  1.639101995177e+01  -2.772449149509e+01  -6.171704722950e+01 
8
Step 700
1 -9.207407510956e+00   5.908121223749e+00   6.368311677483e+01 
1  1.489790226494e+01  -6.889907035754e+01   4.930814727688e+01 
1 -1.026936566804e+02  -3.571046257310e+01   1.724138522734e+01 
1 -1.089771241781e+01   7.751052434992e+01  -1.660361138721e+01 
1  2.230434029160e+01   7.859951873757e+01   1.165196206083e+01 
1 -7.935186035429e+00   9.890684075656e+00  -1.037733936784e+02 
1  1.592713318614e+01   5.322366519788e+01  -4.145605881692e+01 
1  1.065877080811e+01  -2.032216555448e+01  -4.485871004236e+01 
8
Step 800
1 -6.496432594589e+01   3.434585836163e+01   6.313453371656e+01 
1  2.210009114426e+00  -8.198995032281e+01   5.819621405328e+01 
1 -7.168499557899e+01  -3.724712254138e+00   1.005113739314e+01 
1  1.269856986086e+01   5.114209150890e+01  -4.949125075687e+01 
1  9.875639425714e+00   6.831283204315e+01   1.273049037938e+01 
1 -2.215243647915e+01   2.006746517064e+01  -1.219276457126e+02 
1  1.714492052165e+01   2.933511327364e+01  -3.155454545798e+01 
1 -2.433028798876e+00   5.520107006750e+00  -2.933587189264e+01 
8
Step 900
1 -8.946340248361e+01   2.598340971950e+01   4.625819044973e+01 
1 -2.310187056426e+00  -8.886851573543e+01   4.407546130956e+01 
1 -3.741071049661e+01  -1.116635061495e+01   1.561366953113e+01 
1  4.451353080173e+01   3.344866084159e+01  -8.539674294547e+01 
1  1.731501703133e+01   6.258381862375e+01   1.967296272633e+01 
1 -2.380779744352e+01   3.387235460161e+01  -7.592095087453e+01 
1 -1.661810011624e+01   1.147714558046e+01  -6.455301252587e+01 
1  5.863146795132e+00   1.086079091996e+01  -3.403744242065e+01 
8
Step 1000
1 -6.658873292126e+01   8.129325477478e+00   4.672121928404e+01 
1  1.140375307107e+01  -8.535931864376e+01   1.049307471673e+01 
1 -1.076636207265e+01  -3.180251247293e+01   4.719305548270e+01 
1  5.793904683405e+01   4.345711915462e+01  -6.020636247255e+01 
1  3.472240409646e+01   8.474405485900e+01   2.701368505594e+01 
1 -4.565109974284e+01  -1.967643824250e+01  -2.506443189624e+01 
1 -3.515678086650e+01   4.079174796653e+00  -8.331997589063e+01 
1 -1.560885111525e+00  -5.017341459302e+00  -1.295357041846e+01 
8
Step 1100
1 -4.669493368030e+01  -4.697358268929e+00   4.620803461307e+01 
1 -1.383104009610e+01  -4.183386833784e+01   6.751339898861e+00 
1 -2.753097222408e+01  -2.664312250914e+01   4.280194988968e+01 
1  4.308493169019e+01   1.882572744477e+01  -2.100747914915e+01 
1  2.446721864823e-01   9.822801004133e+01   2.238011003779e+01 
1 -3.514942082764e+01  -3.789880146216e+01   1.309027326106e+01 
1  2.061417081594e+00  -1.446577185011e+01  -7.325153366149e+01 
1 -5.856373015921e+00  -2.911046002874e+01  -1.196141790896e+01 
8
Step 1200
1 -5.535524217326e+01  -1.911954881739e+01  -1.894253450079e+00 
1 -1.889266935721e+01  -3.722375639029e+01  -1.497140511143e+01 
1 -4.975819906209e+01  -4.331616698916e+01   3.511165777430e+01 
1  1.868416391715e+01   5.632821097828e+00  -9.371375969850e-01 
1 -2.604613706893e+01   7.403232889816e+01   1.466329979415e+01 
1 -2.379203003039e+01  -2.493564976516e+01   1.048476877742e+01 
1 -4.499665997478e+00  -1.712122428982e+01  -7.244997564312e+01 
1  1.575277142544e+01  -5.361671251719e+01  -1.273838146210e+01 
8
Step 1300
1 -5.507085251797e+01   1.122064784370e+01  -4.787361549597e+01 
1  3.238177962610e+00  -2.843223269089e-01  -1.882496598370e+01 
1 -3.464131770036e+01  -1.827088666695e+01   3.214655807949e+01 
1  2.640460302324e+01   6.022817761642e+00   4.116256401594e+01 
1 -2.818099678861e+01   9.832316441460e+00   2.490787897006e+01 
1 -2.815409681397e+01  -7.543537458743e+00   2.674816413671e+01 
1  1.340537754215e+01   1.458584440707e+01  -5.070312638998e+01 
1  2.899398621874e+01  -8.271857568138e+01  -7.719247310810e+00 
8
Step 1400
1 -1.335197211137e+01   1.511625636872e+01  -2.240530550810e+01 
1  1.721928221810e+01  -1.447355448995e+01  -2.802506439471e+01 
1 -1.815265333610e+01  -8.764673631913e+00   3.814808389384e+01 
1  1.600064255400e+01   2.094261154966e+01   7.537526213655e+01 
1 -8.230927961457e+00  -8.450572523903e+00   3.907261329129e+01 
1 -2.710631562367e+01   7.108592618274e+00   4.278779657839e+01 
1  3.003040800122e+01   2.022224492712e+01  -6.567289681908e+01 
1  6.704383439028e+01  -7.843312744381e+01  -1.511326647198e+01 
8
Step 1500
1  2.049226204491e+01   1.166450607388e+01   1.790870767197e+01 
1  2.659649885206e+01  -1.885781903624e+01   2.960117187291e+00 
1  2.970551328571e+01  -8.750346868471e+00   3.012619535115e+01 
1  1.927375710818e+01   1.576388248835e+01   6.096642175920e+01 
1  2.413748605175e+01  -5.113623071002e+00   5.196336816348e+01 
1 -2.442882159884e-01   2.243582432300e+01   1.949355405429e+01 
1  6.218193915995e+01   2.693593433945e+01  -8.116705314239e+01 
1  9.280694305937e+01  -2.603204941665e+01  -7.314267555237e+00 
8
Step 1600
1  3.430606028735e+01   7.831768725845e+00   7.595555798165e+01 
1  5.569879967418e+00  -8.855567134244e+00   3.578381369374e+01 
1  2.333609827979e+01  -1.585943738438e+01   2.998713111940e+01 
1  4.232541724252e+01  -7.947128385995e+00   6.402390829843e+01 
1  1.712997368770e+01   5.393253910529e+01   2.678774021076e+01 
1 -2.985170009164e+00   1.870465238427e+01  -1.772289970236e+01 
1  8.372589767582e+01   2.010805040410e+01  -3.803945649840e+01 
1  7.418237553860e+01   1.123467467758e+00   4.058839173906e+01 
8
Step 1700
1  9.112780082926e+00  -1.020243017553e+01   9.775880696674e+01 
1 -1.113051875214e+01  -4.009791761142e+01   3.959130297183e+01 
1  2.032918880502e+01  -8.055252823482e+00   4.985763160221e+01 
1  2.719881079158e+01  -4.024245007000e+01   5.948438064972e+01 
1  2.236209001731e+00   8.287158329687e+01   7.510361246607e+00 
1 -4.001599262362e+01  -1.707637294632e+01  -2.449924784958e+01 
1  8.047270364603e+01  -3.758750982372e+00  -1.604675251660e+01 
1  6.627811560154e+01   4.617851525565e+00   6.658778771663e+01 
8
Step 1800
1  1.423579851937e+00  -4.201006969856e+00   5.850287460972e+01 
1 -3.148763820512e+01  -7.340164010470e+01   3.460577887739e+01 
1  1.435356640865e+01  -9.996782752929e+00   4.579739593088e+01 
1  2.950466220666e+01  -1.559074025072e+01   5.398299080420e+01 
1 -5.900326736200e+00   7.049394846850e+01   4.769640352787e+00 
1 -4.527688106242e+01  -5.692758236174e+01  -4.416156572155e+00 
1  8.260427961807e+01  -8.115871781152e-01   5.733339040271e+00 
1  4.681781972190e+01  -3.585597461227e+01   5.486661316767e+01 
8
Step 1900
1  1.103297575905e+01   2.815732382682e+01   3.386428645891e+00 
1 -3.306989435290e+01  -7.893268041225e+01   3.447839518472e+00 
1  1.275654143833e+01   7.250736203703e+00   5.420108887939e+01 
1  5.140843937710e+01   7.421028823286e+00   7.204764980014e+01 
1  2.847049204297e+01   4.166075166081e+01   1.320863779109e+01 
1 -9.988115661199e+00  -2.110544876790e+01   1.285847999338e+01 
1  6.055765043100e+01   1.419757125934e+01   2.820926875597e+01 
1  1.947112536763e+01  -4.065440657397e+01   2.282211291078e+01 
8
Step 2000
1 -5.574027324782e+00   3.207496858746e+01  -5.922206682155e+01 
1 -2.575491247965e+01  -5.069848598939e+01   2.073800888866e+01 
1  2.650441225739e+01   1.492910089225e+01   5.311167888715e+01 
1  4.291265277006e+01  -2.133849047011e+01   6.519963828811e+01 
1  7.244147450496e+00  -3.861464612142e+00   5.898906120867e+00 
1  3.358621417514e+01  -1.351797255824e+01   2.255812228241e+00 
1  5.175718180678e+01  -1.564450579024e+01   3.760115644247e+01 
1  2.930916372282e+00  -4.598510241962e+01   9.862315619486e-01 
8
Step 2100
1  1.972501102817e+00   1.686786183766e+01  -6.224041731719e+01 
1 -8.819204344475e+00  -2.495730977065e+01   3.117215315493e+01 
1 -3.598807824218e+00   1.152835596339e+01   3.681780153920e+01 
1  5.321018219882e+01  -4.745803116209e+01   4.508194182666e+01 
1 -5.641381493997e+00  -1.560857066345e+01  -1.487035500189e+01 
1  3.141877967742e+01  -3.291024919351e+01   1.776709740957e+00 
1  1.197711481797e+01  -2.858027987605e+01   3.785969892580e+01 
1  8.319890772396e+00  -1.930442833591e+01  -8.909844502232e+00 
8
Step 2200
1  3.473798545258e+01   1.848670410895e+01  -4.774518452546e+01 
1  9.114787722292e+00  -9.185415790647e+00   4.823418519145e+01 
1 -4.361621455692e+01  -2.127210401022e+01   4.897581043199e+01 
1  2.540054927286e+01  -5.901879115788e+01   1.541392039902e+01 
1  2.850169740830e+01  -2.603243551414e-01  -1.753261864754e+01 
1  3.989534853991e+00  -4.410396726268e+01  -2.284784317936e+01 
1 -4.308253838610e+00  -1.207952958544e+01  -1.387946779433e+01 
1  2.805786460642e+01   1.486550471634e+01   4.593195383178e+01 
8
Step 2300
1  1.673598890842e+01   3.784593937092e+01  -1.612658038056e+01 
1  1.561333190504e+01  -1.448798430681e+00   5.132702139743e+01 
1 -2.981030475083e+01  -1.743224065894e+01   3.541761748390e+01 
1 -1.197450197940e+01  -4.969821725885e+01  -2.951485147575e+01 
1  2.871463896609e+01   6.823721693438e+00  -1.391321465829e+01 
1  1.790011788847e+01  -4.128309193873e+01  -6.754653314663e+00 
1  3.510551932634e+01   1.328762113866e+01  -5.880529975284e+01 
1  3.979962679101e+01   2.238659025058e+01   8.313222514090e+01 
8
Step 2400
1  3.917008089356e+00   3.431882910278e+01   2.255299207459e+01 
1  4.293007834533e+01  -3.807335462374e+01   3.334420254128e+01 
1 -1.705066623146e+01  -2.926535686145e+01   4.323072164939e+01 
1 -2.910948194320e+01  -1.837559860899e+01  -8.882824317103e+00 
1  5.277866675640e+01  -1.462134548625e+01   1.103892296948e+01 
1  1.894102043251e+01  -7.532768544222e+00   3.682664274742e+00 
1  6.026401589853e+01  -5.871818528456e+00  -4.349150288437e+01 
1  2.708300641869e+01   1.642801875701e+01   4.120677555813e+01 
8
Step 2500
1 -1.828166072647e+01  -1.109198256734e+01   2.989252358986e+01 
1  7.103226523974e+01  -4.537937958936e+01   9.012323742193e+00 
1 -6.056534484093e+00  -3.321972590384e+01   2.053658549124e+00 
1 -3.423500323342e+01  -2.669359903975e+01   3.534592561674e+01 
1  7.495232192756e+01  -5.282601013775e+01   3.801726589899e+01 
1  2.183614532575e+01   3.428978902960e+01  -1.505244002057e+01 
1  6.447429941490e+01  -3.108695595089e+01  -1.871453787473e+01 
1 -1.478953127305e+01  -8.548929123174e+00   1.324557019927e+01 
8
Step 2600
1 -6.747394934452e+00  -2.731395591580e+01   3.418791531474e+00 
1  7.715848203546e+01  -5.433699229319e+01   1.198959319066e+01 
1  1.814162587720e+01  -1.379136972266e+01   8.618716918821e+00 
1 -3.207032651157e+01  -5.055242076847e+01   5.877737827570e+01 
1  5.677029984845e+01  -6.164958772087e+01   4.281867409678e+01 
1  2.641931402042e+01   3.974733895467e+01  -1.394779481997e+01 
1  3.208438746683e+01  -2.638897207559e+01  -1.224049647512e+01 
1 -1.811359902996e+01  -1.674617452655e+01  -2.958726960128e+01 
8
Step 2700
1 -1.579944492650e+01   1.180993388746e+01  -2.013761708312e+01 
1  9.370322528100e+01  -6.288129452207e+01  -1.048701828449e+01 
1  6.614987948292e+01   1.214711374111e+01   2.482066016756e+01 
1 -4.305799083926e+01  -6.013988558968e+01   7.419774482556e+01 
1  8.036196737624e+00  -5.425606600318e+01   3.079082028024e+01 
1  5.506386481285e+01   2.337790082226e+01   1.319079725682e+01 
1  2.812881682297e+01  -2.282882531997e+01  -2.618633215283e+01 
1 -2.493580376852e+01  -3.407680013575e+01  -2.371379592278e+01 
8
Step 2800
1 -1.094636246641e+00   3.091147119052e+01  -1.755652112069e+01 
1  8.125906239040e+01  -4.339195948277e+01  -1.344450207504e+01 
1  9.462652789414e+01   1.602820392532e+01   2.498834143970e+01 
1 -4.158662016268e+01  -4.348814876039e+01   8.282505725990e+01 
1  3.411242150200e+00  -6.140467606426e+00  -1.930502704982e+01 
1  3.790030891978e+01   1.082405936092e+01   1.148990296877e+01 
1  1.372817505016e+01  -3.083884506221e+01  -4.657387509531e+01 
1 -1.630994307893e+01  -5.014071426965e+01   2.871124132114e+00 
8
Step 2900
1  3.887763793373e-02   2.233527103852e+01   1.377653618618e+01 
1  5.537777518093e+01  -3.294326857294e+01   1.372509152202e+00 
1  7.512381454146e+01  -1.511020888052e+01   3.363630717730e+00 
1 -3.816407856105e+01  -1.690340567200e+01   6.569092336243e+01 
1 -2.599516443297e+01  -4.531927117517e+00  -4.349458339141e+00 
1 -5.020756858872e+00   1.209410175728e+01   1.200494294028e+01 
1  1.395673587372e+01  -4.406392989651e+01  -4.414061909849e+01 
1 -2.354187524452e+01  -5.147567637644e+01   3.839216371635e+01 
8
Step 3000
1  3.845865113496e+00   2.703585339240e+01   3.104548998075e+01 
1  4.299275579693e+01  -5.292877507891e+01   1.989420369896e+01 
1  5.738016861058e+01  -2.363630161862e+01  -3.577563465392e+01 
1 -2.295929413147e+01  -3.236744618505e+01   6.239580712635e+01 
1  5.502705219486e+00  -9.504602768638e+00   9.621931725754e+00 
1 -2.730138086997e+01  -1.618675670211e+01   1.873441135939e+01 
1  1.288246511915e+01  -6.794674311200e+01  -7.779740489593e+00 
1 -6.905370337572e+00  -4.380506517724e+01   2.628868078786e+01 
8
Step 3100
1  7.309970119583e+00   4.003271038993e+01   4.255398891567e+00 
1  1.030825091249e+01  -6.849527096997e+01   5.132241973663e+01 
1  4.425577550145e+01  -1.329160349274e+01  -2.435543223617e+01 
1 -1.308470661776e+01  -3.888168549142e+01   3.247599961248e+01 
1  2.827811108875e+01  -4.489517944621e+00   1.371349261129e+00 
1 -5.357104399818e+01  -2.647360190153e+01   1.235904182354e+01 
1  9.718126444747e+00  -5.696172954122e+01   3.453883526445e+01 
1  3.436823500649e+01  -3.663191030495e+01   5.637969586254e+00 
8
Step 3200
1 -4.536264593383e+00   7.654320285581e+00  -4.518844872839e+01 
1  2.639906040298e+01  -7.206688891064e+01   5.326586469423e+01 
1  2.711325247796e+01  -2.568191476745e+01   3.614075021067e+00 
1  4.366741709415e+01  -1.232433079929e+01   5.415487879099e-01 
1  3.652241215228e+01   5.622216459946e+00   2.209849427451e+01 
1 -5.077287857332e+01  -2.443947738948e+01   3.576023289459e+01 
1  1.131820453072e+01  -5.296629208481e+01   3.639561790823e+01 
1  2.801243016154e+01  -4.135332961933e+01  -4.308355157132e+01 
8
Step 3300
1 -7.513137003454e+00   2.567173689865e+00  -4.239363229163e+01 
1  4.491497464272e+01  -6.408859820275e+01   5.864260263758e+01 
1  5.781522971431e+01  -2.681211676370e+00   3.836094663891e+01 
1  5.930991633801e+01   4.658220177308e+00  -3.350188079571e+01 
1  2.867705512420e+01  -1.000753462520e+01   3.622773995267e+01 
1 -3.535096282370e+01  -3.011102081172e+01   2.154557354688e+01 
1  1.236782463008e+01  -5.328574767309e+01   5.147582104606e+01 
1 -2.036109827433e+01  -1.501072035234e+01  -5.440586210466e+01 
8
Step 3400
1 -1.894865029908e+01  -3.440020233820e+01  -1.897399895221e+01 
1  3.767689919639e+01  -6.605269498923e+01   6.195193508078e+01 
1  7.652257655716e+01   9.057329452670e+00   4.407001523082e+01 
1  2.198851750856e+01  -6.386633553784e+00  -4.823693854405e+01 
1  1.021024749369e+01  -3.198093138767e+01   7.975708803638e+00 
1 -8.115253164229e+00  -4.193309046208e+01   6.002483915709e+00 
1  3.961963368426e+01  -1.396447121828e+01   4.762909616339e+01 
1 -2.659376120508e+01   1.606343952599e+01  -4.939656647450e+01 
8
Step 3500
1  1.937476744507e+01  -6.677506793797e+01  -1.281276397354e+01 
1 -1.037821964585e+01  -2.058831035467e+01   3.015578789168e+01 
1  4.983524997842e+01   3.420952397123e+01   3.081499145355e+01 
1 -3.523197591338e+00  -2.287391542629e+01  -4.155834543811e+01 
1  7.202833589339e-01  -2.590519064282e+01   5.453667560858e+00 
1 -2.575229387364e+01  -2.976980845543e+01  -8.394426228786e+00 
1  2.942162545818e+01   1.319142121824e+01   1.722735048012e+01 
1 -8.301055994123e+00   4.301656912195e+01  -6.289504437020e+01 
8
Step 3600
1  5.034174186512e+01  -1.664431856247e+01  -7.284886529702e+00 
1 -5.788820940905e+01   1.229180221129e+01   2.804069967987e+01 
1  3.784482861995e+01   9.212134020892e+00  -1.115814976891e+01 
1 -2.088212152215e+01  -4.573670878864e+01  -1.041906722844e+01 
1 -4.440727049008e+00  -3.503224438355e+01   1.415440755976e+01 
1 -4.331862664174e+01  -2.235974001887e+01  -2.811590199732e+01 
1 -2.370350696002e+01  -1.950347079308e+01   3.053625295294e+01 
1 -1.416745853711e+01   5.585073086823e+01  -6.777816124377e+01 
8
Step 3700
1  3.741064903498e+01  -1.678191300250e+00   1.682465405418e+00 
1 -7.170755017538e+01  -3.023058134320e+00   2.670841205895e+01 
1  5.586526957702e+01  -4.358863902102e+00  -1.833016963741e+01 
1  1.172758099937e+00  -4.440270341716e+01   1.905281991729e+01 
1 -1.114370867898e+01  -2.994920416474e+01   2.419669519747e+01 
1 -4.197626863825e+01  -5.923620401809e+00  -6.798090193192e+00 
1 -2.954317868523e+01  -1.590045497267e+01   5.018420217176e+01 
1 -1.108343727694e+01   4.837782000420e+01  -2.214917497989e+01 
8
Step 3800
1  2.990371994228e+01   2.359018889303e+01  -2.843949549438e+00 
1 -4.514932540476e+01  -2.898201179456e+00   1.290463017595e+01 
1  4.460251479269e+01  -2.950851514154e+01  -1.407379025857e+01 
1  7.382807117412e+00  -2.523475094766e+01  -1.652169554522e+01 
1  1.906161409087e+01   1.098658217252e+01   5.272232966262e+01 
1 -3.567794086643e+01  -1.563363586422e+01  -5.073918570077e-01 
1 -4.848932803652e+00  -9.050614007797e+00   6.257152794957e+01 
1 -2.985286748116e+01   6.786068286583e+01   1.729805623016e+01 
8
Step 3900
1  3.644426567330e+01   2.022271210883e+00   2.387415872100e+00 
1 -1.895223936713e+01   3.334895450472e+01  -1.494079053711e+00 
1 -7.229484780438e+00  -6.150007846414e+01  -2.121713607296e+01 
1  1.700373155874e+01  -2.049119605695e+00  -5.141166862402e+01 
1  3.368486446835e+01  -3.476158048172e+00   9.170912400372e+01 
1 -7.734599612080e+00  -2.366168707857e+01   3.474633571513e+01 
1 -3.836076357106e-01   9.336847009220e+00   5.477969107779e+01 
1 -1.360433620809e+01   1.102918806540e+02   2.912569303558e+01 
8
Step 4000
1  9.296572127859e+00  -1.478328150165e+01   4.323269845910e-01 
1 -1.168822681184e+01   3.254036377522e+01  -2.348553082549e+01 
1 -1.144477644939e+01  -3.105344834454e+01  -4.112183521967e+01 
1 -1.571097775680e+01  -1.652227770012e+01  -5.509151406060e+01 
1  1.814942615888e+01  -4.293376220030e+01   7.476310425419e+01 
1  1.364016897620e+01  -2.093815122220e+01   4.480755754560e+01 
1  1.389110365004e+01   9.860366415905e+00   2.762027393057e+01 
1  4.157833830573e+01   1.093492402532e+02   4.724639219821e+01 
8
Step 4100
1 -2.077394826061e-01  -3.442378047554e+01  -2.580215159639e+01 
1 -5.154976928756e+00   3.349770217483e+01  -1.562026156733e+01 
1  3.757051877753e+00  -4.918722456498e+00  -3.472206806324e+01 
1 -5.284297343926e+01  -2.819641839701e+01  -3.582203356397e+01 
1  1.159638182019e+01  -3.252118372028e+01   6.183288855333e+01 
1  6.066007416508e+00   1.609347479369e+01   2.829802163570e+01 
1  3.632494807620e+01  -2.027425279238e+01  -1.863233673973e+01 
1  4.386411083588e+01   5.463160145600e+01   4.875089391799e+01 
8
Step 4200
1  1.204751172622e+00  -6.477912157868e+01  -8.226664050605e+01 
1 -1.040288843202e+01   3.569669924473e+01  -3.810321956150e+00 
1 -3.183422710300e+01  -2.556076780060e+01   5.718235084497e+00 
1 -8.429691592236e+01  -1.698514121740e+01   7.941711725784e+00 
1  5.134920582366e-01   1.825727852028e+01   3.130249372402e+01 
1 -4.179362783853e+00   3.488303065764e+01   2.608982791137e+01 
1  1.081392115972e+01  -1.011160102829e+01  -3.359311515068e+01 
1  2.783190622702e+01   3.085616118417e+01   2.414878795847e+00 
8
Step 4300
1 -4.213245147394e+01  -6.760285296417e+01  -8.673852924645e+01 
1 -3.737015195742e+01   5.188919036193e+01   1.765117421703e+00 
1 -4.010199165843e+01  -3.125400481268e+01   1.082909800885e+01 
1 -1.027326245281e+02  -4.555549879662e+01   2.458742215388e+01 
1 -6.910478715824e+00   2.756258096067e+01   4.401378691540e+00 
1 -3.226861801098e+00   3.526916946002e+00   4.047908767298e+01 
1 -2.133181677963e+01  -5.793012856036e+00  -3.767755559332e+01 
1 -8.615441767265e+00   2.708621974579e+01  -8.106777835554e+00 
8
Step 4400
1 -6.286023922876e+01  -3.207011663421e+01  -6.612190235617e+01 
1  7.587790562892e+00   2.862060479765e+01   8.945081765781e-01 
1 -5.137430085400e+01  -2.023230927033e+01   5.721704448543e+01 
1 -9.542341899353e+01  -2.796487952148e+01   2.592604439958e+01 
1  3.417767059788e+01   2.645882090843e+01  -5.782872991240e+00 
1 -2.218534408927e+01   3.474656488428e+01   1.879552072140e+01 
1 -2.763579862547e+01  -9.429709340448e-01  -5.394039379943e+01 
1 -3.414031952536e+01   6.467418919148e+01   1.059074438085e+01 
8
Step 4500
1 -2.895272608426e+01  -8.389903595010e+00  -2.117852892887e+01 
1  1.346334775089e+01  -2.238199625037e+01  -1.337906510941e+01 
1 -6.832676973218e+01  -3.919046368141e+01   6.432635618896e+01 
1 -6.559726788055e+01   1.697136245908e+01   6.946541326109e+00 
1  2.654866676308e+01   1.446350386875e+01   1.663165212724e+01 
1 -2.719023883778e+01   4.806100715129e+01  -1.101494999248e-01 
1  1.284772245368e+01   2.520623832968e+01  -3.386425811630e+01 
1  9.678909124814e+00   6.921569452060e+01   4.042870513675e+00 
8
Step 4600
1 -1.789382216129e+01  -3.760586069713e+01   1.850930737366e+01 
1  1.576608978129e+01  -4.010210179200e+01  -2.183373110553e+01 
1 -4.826407390807e+01  -2.222246143499e+01   5.354631327032e+01 
1 -8.142424002845e+01   2.319384566353e+01  -6.787874433722e+00 
1 -6.487752866533e+00   2.098631870091e+00   4.468314263767e+00 
1 -6.640338461690e+00   3.126444278373e+01  -1.166561364489e+01 
1  1.502493579498e+01   3.962344701836e+01  -3.230316355036e+01 
1  2.866991384066e+01   5.695046725278e+01   3.003784558261e+00 
8
Step 4700
1 -7.425180725016e+00  -3.840731600128e+01  -8.084893669014e+00 
1  1.704253048170e+01  -3.064890004531e+01  -5.127786453113e+00 
1 -3.649281312998e+01  -3.345933694814e+01   5.380034688290e+01 
1 -6.368808416202e+01   1.341479280492e+01  -2.828499991034e+01 
1 -1.649725749170e+01   2.539940818554e+01  -1.359957522824e+01 
1 -2.752748552505e+00   2.055361591737e+01   5.902005077540e+00 
1  2.023559283247e+01   3.105101536319e+01   1.919318012496e+01 
1  2.396704752102e+01   3.521403583940e+01   1.951365290421e+01 
8
Step 4800
1  1.249780320440e+01  -4.229182150194e+01  -1.769951513667e+01 
1  8.239381629976e-02  -4.354290116387e+00   3.579032559994e+01 
1 -3.349524713682e+01  -4.119168168700e+01   4.858021173835e+01 
1 -1.997375659869e+01   1.136084128398e+01   1.236593092382e+01 
1 -4.014357543116e+01   4.148961170076e+01  -2.577279487219e+01 
1 -2.763530166340e+01  -7.291257019767e+00   1.949634140188e+01 
1 -3.806895687333e+00   2.964150528751e+01   4.686923582433e+01 
1  4.302946739793e+00   3.296409913103e+01   3.025690815232e+01 
8
Step 4900
1 -9.058486726614e+00  -4.180468350430e+01  -6.020701302976e+00 
1 -4.454061574429e+00   1.265623293256e+00   2.028581915380e+01 
1 -2.939787996301e+01   3.197198093018e+00   4.949341955649e+01 
1  4.085414391334e+00  -3.449368675656e+01   5.342269816399e+00 
1 -2.931422610167e+01   3.689186512377e+01  -3.022755267001e+01 
1 -1.374507026962e+01  -2.375468549018e+01  -1.117036593556e+01 
1 -1.372682011322e+01   1.177383979083e+01   1.081120227310e+01 
1 -1.343505571579e+00   1.711087923368e+01   5.945599831488e+01 
8
Step 5000
1 -4.365765686753e+01   6.948150754448e+00  -2.100287119556e+01 
1  1.905533663683e+01  -2.512164368729e+01  -1.637644080027e+00 
1  1.601641306951e+01   5.814658246335e+01   4.833507130039e+01 
1 -9.896934536724e+00  -4.149938737487e+01   1.075563144823e+01 
1 -2.217683716281e+01   2.558621908721e+01   5.545613472559e+00 
1 -2.004928970389e+01   1.453177603410e+01  -3.325986751200e+01 
1  8.200515124956e+00  -2.251925809822e+01  -2.280028806190e-01 
1 -9.337816293593e+00  -1.778016206668e+01   7.844996603232e+01 
8
Step 5100
1 -3.366684824404e+01   1.472536090339e+01  -7.465327436888e+01 
1  8.916133288024e+00  -3.114304640988e+01   2.218571682387e+00 
1 -1.054875246520e+01   6.764664644704e+01   1.857194940330e+01 
1 -1.173375850907e+01  -5.881537154096e+01  -5.321755916474e+00 
1 -3.963411883174e+01   2.821910924332e+01   2.996911348682e+01 
1 -3.040607160304e+01   3.203297173538e+01  -2.783056376560e+01 
1  5.669837179127e+00  -2.373876461376e+01  -1.915253665704e+00 
1 -3.794464320185e+00  -2.909205253674e+01   8.087139265839e+01 
8
Step 5200
1 -2.088551151502e+01  -7.519042784445e+00  -8.457959669346e+01 
1  1.361529710369e+01  -2.308588146201e+01  -1.296714969844e+00 
1 -4.304546158404e+01   3.963456446199e+01  -1.948353518369e+01 
1 -1.373201470603e+01  -4.970493378905e+01   9.638692420146e+00 
1 -1.618015811551e+01   3.084745187042e+01   3.702625543424e+01 
1 -2.640699392289e+01   1.301829266124e+01  -4.389066842062e+00 
1 -9.838567102522e+00  -3.761513469206e+01  -1.464378863822e+01 
1 -2.938811456773e+01  -2.734153179751e+00   4.061984452240e+01 
8
Step 5300
1  4.006411456452e+00  -3.515538974996e+01  -3.620466577667e+01 
1  6.695715099779e+00   1.552971958996e+01  -1.902421842909e+00 
1 -6.444978910149e+01  -3.123791798187e+01  -3.044187663850e+01 
1 -2.157119654111e+01  -5.714142657794e+01   7.940809917558e-01 
1 -1.531990986777e+01   4.088443558523e+01   3.423927767608e+01 
1 -3.234541587586e+01   1.449735303435e+01   5.105150613059e+01 
1 -3.864430548789e+01  -3.447601721633e+01  -1.872809464514e+01 
1 -2.476578723410e+01   1.233837460865e+00   2.205147333822e+01 
8
Step 5400
1  3.104395805300e+00  -1.031932051190e+01  -2.279291217036e+00 
1 -7.111258138746e+00   4.551581654331e+01  -2.371027060199e+01 
1 -4.922662868815e+01  -3.728452219592e+01  -1.850337814411e+01 
1 -3.505259388730e+01  -5.493991698462e+01   1.124641251989e+01 
1 -2.851704554180e+01   2.248180251406e+01   4.410414676595e+01 
1 -2.336649945586e+01   2.896307325905e+01   7.719321869442e+01 
1 -3.665340520887e+01  -2.325927485653e+01  -1.203574588378e+01 
1 -1.126225634505e+01  -7.089620490084e+00  -1.345952669284e+00 
8
Step 5500
1 -1.786055969523e+01   4.730815343368e+00  -1.600105180978e+01 
1  8.339585248606e+00   3.393180882066e+01  -4.004237360406e+00 
1 -3.154629804431e+01  -2.249854167115e+01  -1.404284279690e+01 
1 -2.275451981574e+01  -3.892759593321e+01   1.576183173614e+01 
1 -6.842106393422e-01  -3.658656869612e+00   4.204806277927e+01 
1 -1.634278197438e+01   3.560833529068e+01   4.012792538118e+01 
1  2.336826967982e+01  -2.830186540198e+01  -9.378671938088e+00 
1  1.226884121755e+00   1.480270659903e+01  -2.264397409923e+01 
8
Step 5600
1 -1.305743310494e+01  -1.656351318113e+01  -9.728424982169e+00 
1  3.470179097835e+01   6.529156983448e+00  -5.218801043893e+00 
1 -1.408768189231e+01  -1.119411433092e+01  -3.044779815276e+01 