8
Step 0
1 -3.667134699379e+02  -4.123784025325e+02  -3.724352894162e+01 
1 -6.134875609703e+02   3.546872966150e+02  -2.129568259624e+02 
1 -1.085612203914e+02   5.714618773966e+02  -4.201339180976e+02 
1  5.776160757834e+02   5.150527109729e+02  -2.790509322489e+02 
1 -3.640504577084e+02   1.459409628465e+02   1.790603989506e+02 
1  2.252651748308e+02   5.190313869790e+02   4.248133453922e+02 
1 -1.143210776159e+02   4.864662517631e+02   6.502292776888e+02 
1 -3.151580651484e+02   3.728094634919e+02   6.083085494358e+02 
8
Step 100
1 -2.309410323038e+02  -2.563582007996e+02   9.167196242459e+01 
1 -5.303540889894e+02   1.398263633560e+02  -1.598052073672e+02 
1 -3.916858485347e+01   4.296418685648e+02  -2.883781456619e+02 
1  3.986473800094e+02   3.923559137365e+02  -3.019124131021e+02 
1 -1.986834716044e+02   1.660518635438e+02   1.797000802906e+02 
1  1.716247969839e+02   2.938950100994e+02   2.614750727212e+02 
1 -1.496549636842e+02   3.038270619388e+02   4.392518307791e+02 
1 -3.078471087260e+02   2.722227975141e+02   2.747888981651e+02 
8
Step 200
1 -3.183040407508e+01  -9.491828358884e+01   2.391622476396e+02 
1 -3.590062592600e+02  -8.123493850526e+01  -6.319745889130e+01 
1  8.747459528111e+01   2.177536367499e+02  -1.431531252281e+02 
1  1.015435755937e+02   2.182322030572e+02  -2.788687718261e+02 
1 -1.788104988094e+01   1.272430063086e+02   1.105940871961e+02 
1  9.760238547517e+01   3.788598350502e+01   5.443846552245e+01 
1 -1.352389548325e+02   5.549984000352e+01   8.778415112499e+01 
1 -2.744030231939e+02   1.448471938204e+02  -1.047904266512e+02 
8
Step 300
1  9.233261728494e+01  -5.825115231685e+01   1.948192763054e+02 
1 -2.255868452860e+02  -1.149953325550e+02  -3.246322852611e+01 
1  1.245328693228e+02   6.803542867410e+01  -1.049079684978e+02 
1  1.281040908308e+01   1.227022930954e+02  -1.801978200544e+02 
1  4.173174167482e+01   8.690748519943e+01  -2.202487255118e+01 
1  7.435746574805e+01  -3.471547096988e+01  -4.309479301453e+01 
1 -5.162977972813e+01  -8.082671148085e+01  -2.917008238640e+01 
1 -1.846411810284e+02   3.432408933981e+01  -2.057540270764e+02 
8
Step 400
1  8.091838604630e+01  -7.742601964587e+01   1.034232332026e+02 
1 -1.283725233050e+02  -4.774861552629e+01  -3.203394035899e+01 
1  4.721846690549e+01  -4.886737427057e+00  -1.036368909487e+02 
1  4.566946671807e+01   1.225414880589e+02  -1.049985396020e+02 
1  4.366445655885e+01   6.515477787316e+01  -8.120866187219e+01 
1  4.895367540523e+01   6.548822754790e+00  -8.932340706603e+01 
1  5.845918498972e+00  -6.044602720174e+01   2.826622966580e+01 
1 -6.860624929481e+01  -4.886189961517e+01  -1.399520814647e+02 
8
Step 500
1  1.196014302385e+01  -9.579434289183e+01   9.250474880798e+01 
1 -5.798702261017e+01  -2.619597949905e+01  -5.938605137330e+01 
1 -2.106020405659e+01  -3.355920430436e+01  -7.081353100674e+01 
1  8.878987360693e+01   1.316610846267e+02  -8.314234600336e+01 
1  1.376959079649e+01   5.067718529781e+01  -6.295832416629e+01 
1  5.159082498128e+01   3.694346263891e+01  -8.162572125301e+01 
1 -4.221290062791e-01  -1.607643732620e+00   7.707621319707e+01 
1 -9.533770026414e+00  -7.346372217577e+01  -4.432333792095e+01 
8
Step 600
1  2.260176569866e+00  -1.125183759597e+02   9.123956797346e+01 
1 -2.899054775618e+01  -3.358279255108e+01  -2.945719471201e+01 
1 -4.851587093103e+01  -2.512832209768e+01  -5.196866105812e+01 
1  6.242562856806e+01   8.879142112348e+01  -8.668730486768e+01 
1  2.935720812593e+01   4.991383486034e+01  -4.130834553543e+01 
1  2.271374400062e+01   1.599322745466e+01  -6.272658133619e+01 
1 -1.104934089813e+01   2.470198269208e+01   3.751009029139e+01 
1  2.957593107917e+01  -6.752701126913e+01  -1.374402447507e+01 
8
Step 700
1  9.871187825887e+00  -7.472979707006e+01   8.827024002430e+01 
1 -3.267818835865e+01  -4.050853713466e+01   2.102862607703e+01 
1 -5.232467111125e+01   1.152980683493e+01  -1.502706769570e+01 
1  3.121542970917e+01   3.709494680829e+01  -6.746960226480e+01 
1  6.530115142311e+01   8.737253440065e+01  -1.030739152063e+01 
1 -2.047036263985e+00  -6.465496267279e+00  -4.317283322216e+01 
1  7.301808950916e+00   3.090069216178e+01  -4.158718167163e+00 
1  4.981979327399e+01  -4.809997357954e+01  -4.250562238509e+01 
8
Step 800
1  8.347968731754e-01  -2.860133551055e+01   5.590313271547e+01 
1 -4.721811514098e+01  -8.910990707549e+01   3.408200990319e+01 
1 -4.969123628387e+01   1.266678639729e+01  -1.883367049319e+01 
1  4.147762493056e+01   4.810638667260e+01  -3.291680824850e+01 
1  7.273320681485e+01   1.083639298642e+02   6.690546422153e+00 
1 -1.066765370413e+01   1.383071781012e+01  -2.335898589613e+01 
1  8.125375542972e+00   5.412059506563e+00  -2.242557695250e+01 
1  3.279884825263e+01  -2.718943047845e+01  -4.696097535636e+01 
8
Step 900
1 -2.295419868396e+01   5.420627944708e+01   4.806647489310e+01 
1 -4.011179776405e+01  -8.983950364039e+01   3.072444363149e+01 
1 -6.721092424410e+01  -1.661128008935e+01  -3.796599484200e+00 
1  9.387297551881e+01   9.016364903782e+01  -1.137239424433e+01 
1  8.877899081054e+01   9.956927399319e+01   8.892198669497e+00 
1  7.254904426794e+00   2.008204715663e+01  -3.035190273419e+01 
1  1.439399402344e+00  -4.141132984868e-02  -2.763034921166e+01 
1 -1.793572295753e+01  -4.032686403084e+01  -3.665669758184e+01 
8
Step 1000
1 -5.829160036219e+01   7.631139096260e+01   5.138317910589e+01 
1 -5.402333903270e+01  -5.379446272270e+01   2.035597329232e+01 
1 -7.003396964188e+01  -2.737514713211e+01   2.858495403796e+01 
1  1.187893822525e+02   7.248717012873e+01   9.059746082234e+00 
1  5.375586676607e+01   6.920961044263e+01   3.794934195990e+01 
1  6.234963182562e+00  -4.747820502072e+00  -6.044312786166e+01 
1 -3.145833897486e+00  -3.077984637058e+00  -5.791026856218e+01 
1 -1.252284941664e+01  -3.710604985567e+01  -3.272461000264e+00 
8
Step 1100
1 -4.363947156231e+01   7.424522741766e+01   4.478271353529e+01 
1 -3.963614384107e+01  -2.810812238298e+01   1.534938974317e+01 
1 -3.739454647099e+01  -9.727820130547e+00   6.761023212008e+01 
1  1.305157356105e+02   4.714129803412e+01   1.529509370041e+01 
1  2.481433775586e+01   5.209428965116e+01   3.730735379557e+01 
1 -1.190713762143e+01  -1.871911198771e+01  -2.243861902576e+01 
1 -2.217052759123e+01  -3.783439995703e+00  -4.840436477787e+01 
1  1.559853412705e+01  -4.203822900892e+01   3.461683891667e+01 
8
Step 1200
1 -3.307677041407e+01   3.256284889898e+01   7.746975860885e+01 
1 -1.447935404116e+01  -6.125100294189e+00   1.227446422688e+01 
1 -2.564080851201e+01   2.451660475117e+01   6.009549733508e+01 
1  6.855136922123e+01   5.260510106083e+01   3.761072891982e+01 
1  2.020554897338e+01   4.390203880850e+01   2.002571704287e+01 
1 -4.800552461186e+01  -2.675404020523e+01   3.009694952891e+01 
1  2.151485442908e-01   2.573220138783e+01  -2.828045234615e+01 
1  2.737227923487e+01  -6.730325852501e+01   3.693163596768e+01 
8
Step 1300
1 -3.289191469959e+01  -2.783155819682e+01   6.954834210337e+01 
1  1.694367226234e+00  -2.171720424181e+01  -1.750483518076e+00 
1 -4.873424491639e+01   1.061167506814e+01   5.295025996093e+01 
1 -1.170219608973e+01   7.793566521842e+01   6.665290362007e+01 
1  1.994368450122e+01   3.525788513832e+01   2.313890218572e+01 
1 -5.268363968348e+01   1.918367915530e+00   4.822700621008e+01 
1  1.558964340135e+01   3.263994126033e+01  -3.183995943331e+01 
1  1.921012620365e+01  -6.146035323642e+01   3.235859226795e+00 
8
Step 1400
1 -9.794327943714e+00  -4.142365584751e+01   3.934760953011e+01 
1 -3.116663100826e+01  -5.174982441570e+00   1.553481495418e+01 
1 -5.816840535208e+01  -2.672035129690e+01   3.982631762446e+01 
1 -2.702099950732e+01   6.740342586108e+01   8.269293597308e+01 
1  2.244996832153e+01   3.346686966374e+01   2.801093345570e+01 
1 -2.759865726435e+01  -4.671988947522e+00   4.032584623796e+01 
1  1.751202137436e+01   9.486271946201e+00  -3.000878668050e+01 
1  6.868364212645e+00  -4.975137719793e+01  -3.815563509793e+01 
8
Step 1500
1  3.859638138029e+01  -5.655906707405e+01   3.108424476316e+01 
1 -3.461904468429e+01   1.448476427763e+01  -2.552184771582e+01 
1 -4.863325505619e+01  -6.031088045109e+01   3.157820043987e+01 
1  4.937785749463e+01   4.803304794011e+01   1.046421438622e+02 
1  1.956524556153e+01   4.018884297176e+01   2.203936217070e+01 
1 -1.237304553076e+01  -3.018770159209e+01   1.566605400407e+01 
1  3.361369209019e+01  -4.364544481605e+00  -2.845336995013e+01 
1  1.637512681080e+00  -5.857303527902e+01  -5.787320491794e+01 
8
Step 1600
1  5.445588357496e+01  -3.175859977126e+01   1.741453614784e+01 
1 -2.934100868030e+01   1.821684941383e+01  -7.759607685547e+00 
1 -2.519143680332e+01  -4.322156381388e+01   7.237244128034e+00 
1  7.340200391232e+01   1.438549134375e+01   6.007781725014e+01 
1  6.133041113161e+01   2.746129209604e+01   6.075080062916e+01 
1 -8.348995436389e+00  -4.100715446449e+01  -2.818874847269e+00 
1  2.779338297115e+01  -8.004379082036e-01  -1.973155001724e+01 
1  1.754977080630e+01  -4.927243557697e+01  -4.181526222117e+01 
8
Step 1700
1  5.282261600948e+01   9.654600668002e+00   1.921863659800e+01 
1  2.554759736914e+00   5.497894828004e+00   7.975706363376e+00 
1 -3.578371037332e+01  -1.322736825453e+00   3.588160846227e+01 
1  7.294062201863e+01   1.029958673532e+01   6.119108355994e+01 
1  8.742010769608e+01   8.589349113366e+00   7.468492957126e+01 
1 -1.404887419061e+00  -2.951808626761e+01  -9.125152407245e+00 
1  4.742320467092e+01   5.089650408912e+00   9.664905968655e+00 
1  5.360307095597e+01  -1.170958895786e+01  -1.886302763525e+01 
8
Step 1800
1  1.969350008154e+01   1.985344105800e+00   1.163840149381e+01 
1  1.219724450344e+01  -6.835657808748e+00  -1.462860720618e+01 
1 -5.092094455415e+01   3.826227384656e+00   5.112443608227e+01 
1  3.637111648098e+01  -6.101144470610e+00   7.506242509748e+01 
1  2.015464684797e+01   2.011702974131e+00   4.969885632296e+01 
1  1.043349471774e+01  -9.565363385289e+00  -1.526845512173e+01 
1  3.897079707711e+01   2.127304240182e+01   3.234684838846e+01 
1  6.444042496640e+01   9.130245408959e+00  -3.082052148403e+00 
8
Step 1900
1 -1.753634223594e+00  -1.439844524488e+01   9.285907996211e+00 
1  8.773075108058e+00  -1.391001979704e+01  -2.533785876940e+01 
1 -7.339606048084e+01  -7.254687551478e-01   4.485977494950e+01 
1 -1.148928087891e+01  -2.653839050838e+01   5.532400442039e+01 
1 -3.541393068558e+01   2.790501020030e+01   2.208153538186e+01 
1  2.370081938444e+01  -3.757141583307e+00  -6.001336827722e+00 
1  9.813728987921e+00   3.177694357008e+01  -6.448891663224e+00 
1  5.124877142519e+01  -4.257636462582e+00   1.978552359569e+01 
8
Step 2000
1 -3.387296811656e+00   2.888328671250e+01   3.834528310097e+00 
1 -7.370744303328e+00  -9.666116565358e+00  -3.360256161400e+01 
1 -9.494803293046e+01   6.708576094646e+00   4.073601600706e+01 
1 -3.621622950453e+01  -4.075921526519e+01   6.124804989580e+01 
1 -3.425415536213e+01   5.091874723437e+01  -3.380087512569e-01 
1  2.286400927308e+01  -3.167114511855e+01  -1.225937004426e+01 
1 -2.877174309677e+01   2.864410739794e+01  -1.579087256506e+01 
1  1.583940936209e+01  -2.233678908124e+01   2.578623129692e+01 
8
Step 2100
1  3.076805458972e+01   7.694889549811e+01   1.811272833757e+01 
1 -4.082296403452e+00  -9.754642045338e+00  -1.847398508222e+01 
1 -9.810389262016e+01  -1.336918216172e+01   3.176190480823e+01 
1 -4.207375324705e+01  -4.540929243491e+01   4.840364627573e+01 
1 -3.753227430297e+01   4.677409442760e+01  -2.898930403386e+01 
1  5.143717615979e+01  -4.664608486678e+01  -5.658952919020e+01 
1 -5.983538211067e+00   3.023180240663e+01  -3.273007961933e+00 
1 -1.717008453108e+00   1.375087997390e+01   1.612248586969e+01 
8
Step 2200
1  3.318935432752e+01   7.900201129621e+01   3.469231791585e+01 
1  2.947050053666e+01   4.368887801650e+00   1.227701405516e+01 
1 -3.840650533517e+01   1.681276596721e+01   2.698710731831e+01 
1 -1.274933204569e+01  -1.396537957504e+01   1.953601740143e+01 
1 -1.460465766633e+01   2.754029937924e+01  -5.067155823292e+01 
1  7.970586368021e+01  -2.622284383367e+01  -7.400249033347e+01 
1  4.406455636724e+01   1.525383537021e+01   4.599194269217e+00 
1  3.041387075483e+01   3.255707898103e+01   1.248255614345e+01 
8
Step 2300
1 -4.700412825486e+00   3.844287707490e+01   1.052499465742e+01 
1  5.757311977065e+01  -2.297023614532e+01   6.290619145328e+01 
1  2.160389088078e+01   2.534327831955e+01   3.121159852943e+01 
1  1.205674191196e+01  -2.579516685289e+01   1.758524100535e+01 
1  2.909209660997e+01   1.180834526407e+01  -6.388819591990e+01 
1  6.929194063678e+01   4.928942542834e+00  -7.484801781734e+01 
1  5.176703800868e+01  -2.820884469679e+00  -2.775609474115e+01 
1  2.085638142937e+01   3.401963767321e+01   1.563603534445e+01 
8
Step 2400
1  1.802471112731e+01   3.477312597931e+00   6.327987829768e+00 
1  6.102515985394e+01  -1.786258729004e+01   6.426462134184e+01 
1  6.764234986009e+01   6.117868379015e-01   1.092214670561e+01 
1  3.721727872975e+01  -7.244494429906e+01  -9.344930400266e+00 
1  4.503407886217e+01   1.839387139660e+01  -4.858329693129e+01 
1  3.978451280968e+01   1.882823450615e+01  -4.347619379409e+01 
1  5.837305793598e+01  -1.229718252681e+01  -3.608072850417e+01 
1 -6.488383935298e+00   2.572347141234e+01   2.433259107177e+01 
8
Step 2500
1  4.051737586752e+01  -1.965084733737e+01   2.472108647532e+01 
1  6.932397159638e+01  -2.608957901633e+01  -1.349517048062e+01 
1  5.854238138152e+01  -1.876663639509e+01  -1.310204905489e+00 
1  2.627143400569e+01  -8.999618773308e+01   4.099162748171e+00 
1  2.411656196232e+01   8.368697937598e+00  -2.803915858535e+01 
1  3.923767970664e+01   2.307806917719e+01  -1.193241239761e+01 
1  7.038876582232e+01  -2.237795627020e+00  -3.192133908319e+01 
1  6.164831720080e+00   1.761989497276e+01   4.610479042303e+01 
8
Step 2600
1  2.267854298924e+01   2.587238011486e+01   4.107152320599e+01 
1  7.915868520206e+01  -1.021343375043e+01  -3.990135223789e+01 
1  9.009900793603e+01  -3.614323732177e+00   3.464943790842e+00 
1 -1.562724206004e+01  -1.131944598550e+02   4.046559424544e+01 
1  1.221837511330e+01  -6.876731810316e+00  -2.521731060647e+01 
1  2.515332827258e+01   1.047226058077e+01   2.041708280387e+01 
1  6.517791814044e+01  -3.442102814128e+01  -4.417892839735e+01 
1 -5.709094100313e+00  -1.589564000425e+01   6.467202834335e+01 
8
Step 2700
1 -2.387190665010e+01   4.041391322690e+01   5.576672762248e+01 
1  4.909385285715e+01   6.431290655170e+00  -7.169936501116e+00 
1  8.263874721887e+01  -4.128385113280e+00  -8.079226159444e+00 
1 -3.373136618392e+01  -9.260970225923e+01   7.493844744045e+01 
1  5.300471839272e+01  -3.794073645550e+01  -1.065291069999e+01 
1  3.601689977319e+01  -3.281441941258e+00   3.916221570396e+00 
1  3.870692601737e+01  -1.541708224648e+01  -4.075903201873e+01 
1 -8.587614178983e+00  -4.846755892548e+01   7.302517563016e+01 
8
Step 2800
1 -1.043175119234e+01   6.401682279208e+01   3.344658370066e+00 
1  4.376079605593e+01   3.797013789850e+00   2.279563392989e+01 
1  8.183550086859e+01   8.804003008840e+00   3.576692253735e+00 
1 -3.712245977705e+01  -6.394575965433e+01   8.932608133287e+01 
1  3.910019329079e+01  -2.036796837158e+01   1.954178859107e+01 
1  4.026044928405e+00  -1.132709558548e+01  -9.643253834509e+00 
1  1.735292076391e+01  -2.029338919465e+01  -2.460294812795e+01 
1 -5.168190107401e+00  -1.575666205273e+01   2.113884602652e+01 
8
Step 2900
1  1.736346949339e+01   6.505697851724e+01  -5.194956960802e+01 
1  1.929236479395e+01  -1.001166087004e+01   2.214763594435e+01 
1  8.441152372339e+01   2.874696922484e+01   3.473220140376e+01 
1 -1.877521136697e+01  -6.474181278043e+01   6.719805790087e+01 
1  4.838303641663e+01  -7.302752574118e+00  -8.702073950812e+00 
1 -1.512028052105e+01  -2.411568622593e+01   1.660561586693e+01 
1 -2.116552197735e+01  -1.518220467152e+01  -1.804389429216e+01 
1 -2.858433743778e+01   1.692371899270e+01  -1.423738792918e+01 
8
Step 3000
1  3.854061720077e+00   3.688349665557e+01  -7.311607876936e+01 
1  5.952538447840e+00  -3.802949241281e+01   2.964639736318e+01 
1  5.468519256877e+01   7.517348512761e+00   2.898741117178e+01 
1 -2.153138000960e+01  -3.957019512388e+01   2.205994505060e+01 
1  3.970863555518e+01   1.192772556593e+01  -3.862167334525e+01 
1 -3.053010779220e+01  -1.114793353302e+01   2.428219940696e+01 
1 -1.179197027840e+01  -1.764516751431e+01  -1.384657000053e+01 
1 -2.998593119735e+01   2.259599783835e+01  -2.523618332613e+01 
8
Step 3100
1 -2.825376122005e+01   1.344144614276e+01  -7.696432031996e+01 
1  1.072428170247e+01  -4.637919358039e+01   5.022800262216e+01 
1  7.203910262075e+01  -1.607539624765e+01   9.453182048691e+00 
1  4.655134716967e+00  -2.692918830683e+01  -8.859561989310e+00 
1  1.925310841705e+01   1.894448044479e+01   9.493380926021e-02 
1 -5.386087851448e+01   8.731149627236e+00   1.464925852207e+01 
1 -1.802769017361e+01   6.673088911703e+00   2.292081991762e+01 
1 -3.124610888935e+01   4.162049558169e+01  -2.243268507404e+01 
8
Step 3200
1 -2.783162217683e+01   1.941482914569e+01  -5.394387225686e+01 
1  7.941149307018e+00  -2.234731060022e+01   6.433461737485e+01 
1  1.064261356451e+02   2.734320979430e+00  -2.674362669716e+01 
1 -2.259672654419e+00  -3.264124955202e+01  -4.627407207795e+01 
1  2.289469509938e+01  -1.006155060045e+01   6.121917042909e+01 
1 -1.820331365188e+01   2.049021322647e+01  -5.250991893444e+01 
1 -4.236947182989e+01  -1.814097817668e+01   3.673012008448e+01 
1  2.943817806264e+01   4.164268439150e+01  -2.842725652281e+01 
8
Step 3300
1  3.867049496015e+00   1.768671901535e+01  -3.741511038358e+01 
1  1.526153300734e+01  -1.345315400277e+01   7.033921678935e+01 
1  9.373916064326e+01   6.525331848306e+00  -4.269136812097e+01 
1  3.198026602342e+01  -2.317160310443e+01  -7.165525810186e+01 
1  1.709516399697e+01  -2.598976087288e+01   4.689515420312e+01 
1 -2.271417177353e+01   3.202823331062e+01  -4.237820254522e+01 
1 -3.700948215988e+01  -1.901150848393e+01   2.883633496455e+01 
1  7.382380362567e+01   2.274971182533e+01  -3.672358072597e+01 
8
Step 3400
1  2.688195171700e+01   1.252147133688e+01  -2.819836885307e+01 
1  2.753294991405e+01  -3.452654546781e+01   5.977660595988e+01 
1  2.922605960990e+01   2.152970358569e+01  -6.154713435086e+01 
1  6.968882556529e+01   1.056478376005e+01  -4.958666584242e+01 
1  6.506087017387e+00  -4.489815253032e+01   2.593618995590e+01 
1 -4.068109353749e+01   1.328093037973e+01  -1.933887937840e+01 
1 -3.280935418195e+01  -1.250238656351e+01   3.143336755629e+01 
1  7.459269128129e+01   2.157102753649e+01  -2.397766035950e+01 
8
Step 3500
1  1.530136287823e+01   4.308666243709e+01  -3.879064299952e+00 
1 -2.982320631337e+00  -1.224184520357e+01   1.908290486360e+01 
1  1.812053144560e+01   1.187965748361e+01  -4.944558379346e+01 
1  5.923164252323e+01   1.267757717593e+01  -5.677162833969e+00 
1 -3.245853465339e+01  -4.704669893071e+01   2.309395362817e+01 
1 -2.716492556292e+01  -4.709613459282e+01  -1.721942324856e+01 
1  2.258530402555e+01  -2.314204526065e+01   1.680071122072e+01 
1 -1.561568469662e+01   1.638302662309e+01  -9.613331174096e+00 
8
Step 3600
1  2.383047309467e+01   4.542483598562e+01   9.354323241721e+00 
1 -2.250883699262e+01  -3.441858561905e+00   8.656341813188e+00 
1  3.307596250355e+01  -4.814522595112e+00   9.381762129882e+00 
1  4.532296272935e+01   7.219371287544e+00   1.270698722387e+00 
1 -5.069665078758e+01  -4.609595364286e+01   2.717850335724e+01 
1 -4.048335828108e+01  -8.275925630588e+01  -1.633222618320e+01 
1  8.287473828977e+01  -3.268204717633e+01   1.446565345578e+01 
1 -7.381290912070e+01   5.679178616448e+01  -4.117356359102e+01 
8
Step 3700
1  5.339896764645e+01   3.991742153034e+01  -1.933634443067e+00 
1 -3.362800793740e+01   1.013521905905e+01   2.117078029101e+01 
1  2.656590590318e+01  -2.275772401087e+01   5.720501727316e+01 
1  4.400396634809e+01  -1.203273335416e+01  -2.924038667227e+01 
1 -2.871610738765e+01  -4.957820064352e+01   4.790437168976e+01 
1 -5.671645258148e+00  -6.706263343980e+01  -8.190168148265e+00 
1  3.719463632202e+01  -2.362198426473e+01   1.017788628751e+01 
1 -6.894897296336e+01   9.650735686585e+01  -6.921844836465e+01 
8
Step 3800
1  5.206027422248e+01   5.409289679805e+00  -6.080510969184e+00 
1 -6.153178000540e+01   3.496499436998e+01   2.763456297332e+01 
1  2.812507094023e+00  -1.716865753735e+01   6.492308871534e+01 
1  1.954872575216e+01  -1.429001656890e+01  -1.803598888727e+01 
1  3.164160719599e+01  -6.292900484617e+01   7.269016693929e+01 
1 -1.575164207972e+01  -3.584138481927e+01   1.580365991175e+01 
1  1.716272264050e+01  -3.777406433580e+01  -1.222532514211e+01 
1 -2.348917311627e+01   7.155931789457e+01  -3.343138334222e+01 
8
Step 3900
1  5.919437311201e+00  -1.817500180732e+01   6.906243952225e+00 
1 -4.304014254942e+01   2.637240625562e+01  -8.464277610667e+00 
1  2.478689545797e+01  -1.302010263080e+01   3.002848236634e+01 
1 -1.094992294323e+01  -2.277702286305e+01  -3.011648958751e+01 
1  4.160431175841e+01  -3.338305670114e+01   6.591135593457e+01 
1  8.699859673409e+00   9.031110037956e+00   5.762584759875e+01 
1 -1.706490777514e+00  -1.228844547452e+01  -4.922349076900e+01 
1  4.730707852060e+00   8.290261135528e+01   2.412043404090e+01 
8
Step 4000
1 -2.415258226978e+01  -2.007252490209e+01   2.711253391323e+01 
1 -3.061989591040e+01  -1.692729121205e+01  -3.555195993157e+01 
1  6.499962109490e+01  -1.806663450799e+01  -7.503407567939e+00 
1 -2.725035209928e+01  -2.379092875264e+01  -2.697834592971e+01 
1  2.133629416410e+01  -2.443667467495e+01   2.866056019140e+01 
1  9.772036220038e+00   4.309865468351e+01   5.122602463044e+01 
1 -1.631970478049e+01  -1.863080686707e+00  -5.989255189530e-01 
1  2.224640226657e+01   6.581522933231e+01   3.515025938900e+01 
8
Step 4100
1 -3.059996715716e+01  -2.361843579101e+01   2.030934414626e+01 
1 -8.339498845258e+00   7.036426800920e+00  -1.736901420729e+01 
1  6.509825063328e+01  -4.628432765373e+01  -4.985561774003e+01 
1 -2.054823009852e+01  -1.643532939080e+01  -2.208148492884e+01 
1 -9.643629631474e+00  -2.132637585020e+01   9.733951062515e+00 
1  1.742720174642e+01   9.942498221467e+00   4.094826213313e+01 
1 -2.847328821464e+01  -2.138537999778e+01   2.449503493952e+01 
1  4.113038352859e+01   3.981229197403e+01   3.662747349627e+01 
8
Step 4200
1 -4.382715404813e+01  -3.014010498286e+01  -2.280126539042e+01 
1 -1.809452990372e+00   5.467286088282e+01  -1.955312035202e+00 
1  2.372010222548e+01  -4.033245341638e+01  -6.155360471951e+01 
1 -9.471854038715e+00  -4.594112135663e+01  -2.502973739702e+01 
1 -1.645699381374e+01  -1.619216510160e+00   1.353991817866e+01 
1 -9.424219622731e+00  -2.260969120892e+01  -8.189585829203e+00 
1  2.805864489913e+01  -8.100187601829e+00   4.658161821675e+00 
1  3.818444941282e+01   1.494817453453e+01   2.944804576773e+01 
8
Step 4300
1 -3.429567612385e+01  -5.029306078949e+01  -5.135009095527e+01 
1 -1.163053332974e+01   4.601853720520e+01   1.776857573669e+01 
1 -1.006254849130e+01  -1.422356872300e+01  -2.883607249135e+01 
1 -4.487635536867e+01  -4.781072419717e+01  -2.191839995022e+01 
1  7.402877615668e+00   1.929626237039e+01   1.150473337072e+01 
1 -2.117947635048e+01  -4.333270739848e+01  -1.838111630120e+01 
1  3.414930377328e+01  -2.655610822446e+01  -2.033559553321e+01 
1  1.688078850377e+01   1.499052883441e+01   1.598986159813e+01 
8
Step 4400
1 -2.815217753941e+01  -6.241066482221e+01  -6.710940868834e+01 
1 -1.494176856677e+00   3.295600652071e+00   1.464025649072e+01 
1 -4.813834604749e-01  -3.707150609594e+01   6.370619238874e+00 
1 -5.985904360606e+01  -4.608289674376e+01  -3.000496230472e+00 
1  4.433449144995e+00   4.073229673839e+01   2.399692942628e+01 
1 -2.293953197894e+00  -5.289022471551e+01  -1.772667801790e+01 
1  6.019254541090e+00  -2.401379643679e+01  -2.473902901303e+01 
1  1.927803088970e+01   2.979759781586e+01  -1.582879791501e+01 
8
Step 4500
1 -5.314052525071e+01  -1.184251548638e+01  -5.425787018563e+01 
1  2.441528955875e+01   1.000024043826e+01  -6.401426710857e+00 
1  1.011647262324e+00  -4.427247881239e+01   3.955069540430e+01 
1 -6.427911643061e+01  -2.515295177554e+01   2.025157757307e+01 
1 -1.833604968766e+01   5.366525619795e+01   3.504185810575e+00 
1 -2.557033723562e+01  -3.974796737328e+01   1.208982156095e+01 
1 -1.020950937159e+01   1.596621145804e+00  -2.906739135069e+01 
1 -2.013176891515e+01   3.303914215211e+01  -1.250926674149e+01 
8
Step 4600
1 -2.958426587874e+01   1.495466271044e+01  -6.194142598061e+00 
1  3.269853195963e+01  -5.055242833410e+00  -2.743407557433e+01 
1 -1.969051987109e+00  -3.544234585572e+01   4.027440218848e+01 
1 -4.812423533917e+00  -8.976597218034e+00   4.715491149241e+01 
1  4.581283915334e+00   2.894730319923e+01   6.336944410218e+00 
1 -3.826201331890e+01  -8.386475423724e+00   2.319788491601e+01 
1 -1.447800258866e+01   2.029265868773e+01  -3.138498629445e+01 
1 -4.589096410109e+00   2.629253955707e+01   5.974028247414e+00 
8
Step 4700
1  2.228904224620e+01   1.721896090216e+01   1.256577821851e+01 
1  3.337665997899e+01  -2.274516006121e+01  -3.666208015351e+01 
1  8.849329956752e+00  -3.242785784424e+01   3.733675257738e+01 
1  2.354715684179e+01  -2.546335346335e+01   6.812765612912e+01 
1 -3.594926633599e+01   3.570972699030e+00  -5.576816110031e+00 
1 -8.219214734683e+00   2.701470237150e+01   2.476979204533e+01 
1  4.553982621835e-01  -4.592730406156e+00  -3.455985699895e+01 
1  3.033145646130e+01   4.105061423929e+01   1.258724728093e+01 
8
Step 4800
1  2.922250290678e+01  -4.554927527835e+00   2.167279794416e+01 
1  2.975119646071e+01  -1.660217468063e+01  -3.364300918063e+01 
1  2.615944515663e+00  -1.880541058490e+01   3.293107377113e+01 
1 -2.120494856195e-01  -5.977553736694e+01   3.492807020420e+01 
1 -3.821510127097e+01   4.006348135387e+01   1.590141182724e+01 
1 -1.338922698490e+01   5.344342013742e+01   2.060553929633e+01 
1  2.987749124364e+00  -1.851950217837e+01  -7.338948746980e+00 
1  1.215991345401e+01   4.923481180520e+01  -8.291122992707e+00 
8
Step 4900
1  1.033522946931e+01  -1.823212254683e+01   6.216923422774e+00 
1  3.541145932754e+01  -1.966480724919e+01  -5.051100736934e+00 
1  9.491373392104e+00   1.476967551191e+01   4.940581938849e+01 
1 -8.222221992674e+00  -7.303054763113e+01   1.961642271420e+01 
1 -2.110185002072e+01   2.871447108220e+01   2.032348361763e+01 
1 -2.567262816599e+01   4.837384690529e+01   3.638571173545e+00 
1  1.987967410292e+00  -2.270501848347e+01   2.514043689199e+01 
1 -9.126625543159e+00   3.930208027585e+01  -1.215856263793e+01 
8
Step 5000
1 -1.164237355919e-01  -3.431664545332e+01  -3.701688244834e+01 
1  2.485872785091e+01  -4.211830181105e+01   2.589974069995e+01 
1  1.009419754381e+01   4.386846652065e+01   4.546251272430e+01 
1  9.109213902380e-01  -6.235604607386e+01   2.640007264415e+01 
1 -3.057652728344e+01  -2.653475909115e+01   4.456231009045e+01 
1 -3.121769853388e+01   3.125595058366e+01  -1.859460881166e+01 
1 -1.471013541558e+01  -1.273694282307e+01   4.361864884011e+01 
1 -2.478953879914e+01  -3.408788587848e-01   1.957466968331e+01 
8
Step 5100
1  5.479254292292e+00  -3.014650792211e+01  -2.928346214011e+01 
1  2.045610221204e+01  -5.683827946827e+01   5.102188813844e+00 
1  1.561390538862e+00   6.815160594825e+01   8.313734917737e+00 
1  2.148895759017e+00  -5.560185931696e+01   3.533544826667e+01 
1 -2.693787687941e+01  -4.675188527130e+01   3.554221339976e+01 
1 -6.424753292115e+00   3.157622778534e-01  -3.853526342627e+01 
1 -7.633437697237e+00  -2.799460018603e+01   2.772343347734e+01 
1 -3.326640391008e+01  -2.889805106062e+01   4.786697078079e+01 
8
Step 5200
1  2.816196111216e+01  -1.854905144359e+01  -1.828738234295e+01 
1  2.364231932812e+01  -1.078362889468e+01  -5.976461277621e+00 
1 -6.116554111835e+00   6.500078555384e+01  -1.422629588355e+01 
1 -3.643870015396e+00  -4.341421917276e+01   2.577178943062e+01 
1 -2.499646694360e+01  -8.710870361860e+00   3.852609788532e+01 
1 -1.314972513364e+01   4.851540046688e+01   3.997641639793e+00 
1  8.362931349484e+00  -2.099584390965e+01   2.950907954311e+01 
1 -4.668738597151e+01  -3.488741419347e+01   7.016584210391e+01 
8
Step 5300
1  1.634532497044e+01  -1.418931967161e+01  -5.410799458906e+01 
1  2.940698121663e+01   2.433692886713e+01  -3.939654582412e+00 
1 -4.092589952157e+01   6.818859594122e+01  -4.006385285770e+01 
1 -4.858006229178e+01  -3.756557220593e+01   3.973052105700e+01 
1  1.624462589068e+00   2.210549898096e+01   2.297971780701e+01 
1 -6.314489958934e+01   7.439949121422e+01   2.402844286335e+01 
1  3.604428003581e+01  -7.462497371577e-01   3.533080263137e+01 
1 -4.106761730521e+01  -1.666071856995e+01   4.220012303796e+01 
8
Step 5400
1  2.047189158248e+01  -1.791545595559e+01  -7.095155248212e+01 
1  2.700111155441e+01   5.426949337441e+01  -3.968216977391e+00 
1 -6.179561773399e+01   4.918800279147e+01  -7.303953677999e+01 
1 -5.227618653163e+01  -5.331105143539e+01   2.796686455956e+01 
1  4.991532338719e+01   1.851534068804e+01  -4.277555931674e+00 
1 -7.178686457731e+01   6.293165431803e+01   7.539288464980e+00 
1  2.522332134964e+01  -7.559690092583e+00   3.500953059840e+01 
1 -3.319450295585e+01   1.461445555756e+01  -8.780810502145e+00 
8
Step 5500
1 -1.240116957999e+00  -3.021908976990e+01  -2.524463070470e+01 
1  4.013560650323e+01   3.759265474792e+01   3.385759773252e+00 
1 -4.091969410930e+01  -2.344742113248e+00  -3.826325733907e+01 
1  2.622537215980e+00  -4.045958965095e+01   4.513956535741e+00 
1  3.765278557347e+01  -5.247416051613e+00   4.942309539240e+00 
1 -6.691963808494e+01   4.529737807950e+01  -1.894948188293e+01 
1 -2.786478283760e+00  -3.111222601955e+01   3.348559485997e+01 
1 -2.712862236310e+01   1.571733907062e+01  -4.042899517090e+01 
8
Step 5600
1 -2.091620520110e+01   6.083876343084e+00  -8.507229989276e+00 
1  2.118239373252e+01   4.782906996582e+00   3.651828229014e+01 
1 -4.050071922679e+01  -2.700301189770e+01   2.703549444427e+01 