8
Step 0
1  5.673418056429e+02  -4.628436099907e+02   1.450497756956e+01 
1  1.785201629494e+02  -4.362662897724e+02  -5.299309931838e+02 
1 -3.184056323091e+02  -3.657961676757e+02  -4.107676916923e+01 
1  3.218258291505e+02   4.952880269401e+02   3.094924502577e+02 
1  4.987239025196e+02  -1.478778429024e+02  -6.305671509398e+02 
1  5.617336029350e+02   4.425364783636e+02  -2.519007552474e+02 
1  6.568948294788e+02  -4.626386768802e+02   4.384210720659e+02 
1  6.071083467259e+02   4.486797571527e+02   4.960959665132e+02 
8
Step 100
1  3.668814112938e+02  -2.641262722881e+02   1.616907013976e+02 
1  1.070769007895e+02  -2.708113772055e+02  -4.010733111915e+02 
1 -2.842734537824e+02  -2.087479609813e+02  -3.277432851251e+01 
1  2.382460219638e+02   4.490693104316e+02   9.819519124894e+01 
1  3.133225831234e+02  -6.030035944426e+01  -3.145302009692e+02 
1  4.955991439949e+02   3.372679528383e+02  -2.302464661913e+02 
1  4.832345264842e+02  -2.513390366271e+02   1.956008927668e+02 
1  3.682106890622e+02   1.947402996911e+02   3.370984058361e+02 
8
Step 200
1  9.393182275257e+01  -7.925454880025e+01   2.803292281189e+02 
1  1.673285798955e+01  -6.191441417771e+01  -2.459020334412e+02 
1 -2.082373140362e+02   2.446667632546e+01  -3.394342005608e+01 
1  1.439887075565e+02   3.250338053996e+02  -1.708364880993e+02 
1  8.592386781281e+01   8.633857474641e+01   6.687333234115e+01 
1  3.503741398604e+02   1.621505548089e+02  -1.556390157793e+02 
1  1.864467858132e+02  -4.139947441835e+01  -6.854624019005e+01 
1  9.412176174643e+01  -1.061597405020e+02   1.421640230407e+02 
8
Step 300
1 -6.080114368277e+01  -4.903517716541e+01   2.340926006482e+02 
1 -3.823491924348e+01  -2.530717356672e+01  -1.326822578687e+02 
1 -1.202679497870e+02   6.697935945716e+01  -1.402634097445e+01 
1  1.009670873994e+02   2.273366911258e+02  -2.387727493600e+02 
1  1.455625021172e+01   1.206195412259e+02   1.329527221507e+02 
1  2.373926341200e+02   5.155732292146e+01  -5.944891371633e+01 
1  5.054197309525e+00   3.277588360169e+01  -1.321733242915e+02 
1  1.213500310815e+01  -1.513474450757e+02   6.077830939540e+01 
8
Step 400
1 -6.497609235391e+01  -1.147170215816e+02   1.190893797901e+02 
1 -5.007435161958e+01  -9.582095809433e+01  -3.717627382924e+01 
1 -5.442771293500e+01  -1.640736883652e+00  -1.085647357735e+01 
1  9.687131044721e+01   1.507325330658e+02  -1.968636258257e+02 
1  2.710312322548e+01   1.175219900013e+02   3.371945183526e+01 
1  1.940345083962e+02   2.835269846909e+01   3.838710659413e+00 
1 -3.821701311188e+01   2.071379437199e+01  -6.608339429629e+01 
1  6.580026896863e+01  -5.878175958644e+01   6.951430006174e+01 
8
Step 500
1 -3.737393383809e+01  -1.550873244120e+02   4.120933502508e+01 
1 -2.191139105018e+01  -1.209662660084e+02   1.311236954498e+01 
1 -1.501497331632e+01  -3.753035415155e+01   2.629920065590e+00 
1  8.725042060001e+01   9.620568043815e+01  -1.406474557967e+02 
1  4.814098787816e+01   6.735830222807e+01  -6.044260733322e+01 
1  1.535750416847e+02   5.157057103413e+01   1.165823341399e+01 
1 -5.386405530275e+01  -2.192213846332e+01  -3.047140986010e+00 
1  9.938025112764e+01   3.037024243193e+01   2.047417065495e+01 
8
Step 600
1 -2.566115199726e+01  -1.068827662142e+02   2.644354781029e+01 
1 -3.790415860785e+00  -8.930146998549e+01  -1.360469356423e+00 
1 -2.283252729429e+01  -5.906207063971e+01  -2.402800924136e+01 
1  6.351453341523e+01   5.255820809022e+01  -8.446809741997e+01 
1  6.560052545106e+01   1.829961061537e+01  -8.090058605685e+01 
1  1.058393694980e+02   1.715286475050e+01  -3.136135649027e+00 
1 -4.679353013820e+01  -2.336958178661e+01   5.184648444243e+00 
1  2.986883738329e+01   4.422180709184e+01  -3.081512077920e+01 
8
Step 700
1 -3.238707578196e+01  -7.899927062214e+01   3.130065119699e+01 
1  8.594280324846e+00  -9.432066631974e+01  -2.428181209216e+01 
1 -2.620352008249e+01  -4.177894022332e+01  -2.528852816422e+01 
1  3.192612510983e+01   1.032757732725e+01  -7.669984908057e+01 
1  6.524026548616e+01   2.216829350868e+01  -3.752757409605e+01 
1  4.550677779608e+01  -5.303373057959e+00  -1.023907112154e+01 
1 -4.915511452915e+01  -3.273558353910e+00   8.825256322432e+00 
1 -2.125574480620e+01  -1.666985087883e+01  -5.879699990235e+01 
8
Step 800
1 -2.610096154846e+01  -7.075406634372e+01   3.589473575196e+01 
1  8.590686475533e+00  -9.460235562786e+01  -1.318209689933e+01 
1 -4.592847324552e+01   1.034294458670e+01  -1.711548316426e+01 
1  2.848884441222e+01  -1.256760907287e+01  -9.278494608256e+01 
1  5.323853521683e+01   5.794430178742e+01  -2.718940557094e+01 
1  4.264490009698e+00  -2.185634787283e+01  -9.260661607629e+00 
1 -3.566772749635e+01   7.242697132528e-01   1.774662783437e+01 
1 -1.024534669300e+01  -2.942854551697e+01  -6.488033001271e+01 
8
Step 900
1 -4.104992555175e+00  -5.108940766343e+01   5.520828872005e+01 
1  2.090190737541e+01  -4.682023350133e+01   1.747819122630e+01 
1 -5.411672100349e+01   1.173414530086e+01  -2.188282740768e+01 
1  5.364643102986e+01  -1.885119137473e+01  -7.136083703821e+01 
1  3.510390153864e+01   6.922767325697e+01  -4.761617361295e+01 
1 -2.304443780192e+01  -9.616467483356e+00   1.212697439907e+01 
1  3.287659799507e+01  -1.691194929343e+01   1.945772079055e+01 
1 -1.927221265896e+01  -2.252875356468e+01  -4.655135048299e+01 
8
Step 1000
1  2.947704896511e+01  -3.149247858457e+01   1.817128280179e+01 
1 -1.017082719112e+01  -2.734703726589e+01   2.253713245828e+01 
1 -7.246991769444e+01   3.096183876295e+00  -4.213584288893e+00 
1  5.311461619287e+01   1.247103757994e+01  -3.107598239186e+01 
1  4.166600620975e+01   4.257763984350e+01  -6.900689839485e+01 
1 -1.179047668875e-01   7.921229001594e+00  -4.036774150904e+00 
1  8.133197532426e+01  -2.188668163100e+01   5.999623755122e+00 
1 -1.496526418039e+01  -1.644319137369e+01  -3.874669963412e+01 
8
Step 1100
1  5.340089834529e+01  -2.271702115299e+01   4.216766369277e+01 
1 -2.335683482297e+01  -4.856503191333e+00  -9.223126647679e-01 
1 -8.356985464584e+01  -1.261541944357e+01   1.127400757721e+01 
1  3.848454148502e+00   2.148300101430e+01   1.036406336372e+01 
1  4.745542446568e+01   3.224509437774e+00  -4.538527717739e+01 
1  1.775985104336e+01   4.254762869175e+01   7.046363803526e+00 
1  6.658264538087e+01   2.356192935200e+00  -2.022019031285e+01 
1 -2.194715628112e+01  -2.302122105842e+01  -3.545124211468e+01 
8
Step 1200
1  5.517995193132e+01   2.292484787112e+01   6.706656889811e+01 
1 -1.497259398108e+01   7.593837742702e+00  -3.485589789338e+00 
1 -8.970178689155e+01  -2.608644049200e+01   3.704769900895e+01 
1 -2.605418709141e+01   2.083053789420e+01   5.634733148681e+01 
1  6.812372135031e+01   2.025235437840e+00  -1.040704707170e+01 
1  5.881296588298e+01   3.535989827942e+01   3.476545450109e+00 
1  1.717406577717e+01   2.210938215973e+01  -2.775446222153e+00 
1 -2.207072917626e+01  -1.130446530250e+01   6.501616161837e+00 
8
Step 1300
1  1.781739176867e+01   3.866346606367e+01   5.363462493716e+01 
1 -4.318013496044e+01  -3.536275856784e+00  -2.430276429025e+00 
1 -6.281791172391e+01  -4.697162517751e+01   3.621788997686e+01 
1 -8.664641220101e+00   1.051725506548e+01   5.779281816628e+01 
1  6.278013155428e+01   1.786506440709e+01   5.628668268916e+01 
1  6.388401356597e+01   2.109232693317e+01  -2.982222075721e+00 
1  1.652781000969e+01   4.300212097864e+01   1.012254413951e+01 
1 -1.812784933753e-02  -1.543134388151e+01   1.158457691676e+01 
8
Step 1400
1 -3.041673813245e+00   7.426626715099e+01   3.183137116545e+01 
1 -6.138082939101e+01  -2.575914647689e+01  -1.027277013896e+00 
1 -6.516787893284e+01  -2.453777327456e+01   3.317151017016e+01 
1  2.919117688905e+01   5.991569895692e+00   3.760562779459e+01 
1  4.886708208370e+01   3.044703462656e+01   4.555965544213e+01 
1  3.968471837464e+01   2.491141634714e+00  -1.926640840032e+01 
1  1.128906801303e+01   3.821836087609e+01  -1.208029954142e+01 
1  4.141757627098e+01  -1.324111871250e+01   1.282323638063e+00 
8
Step 1500
1 -3.136567715120e+01   7.695661998871e+01   2.789800913040e+01 
1 -4.214129178594e+01  -4.116807910686e+01  -9.499274788849e+00 
1 -8.441159756747e+01  -9.948467827937e+00   5.250185602847e+01 
1 -1.606420852287e+00   2.809821584617e+00   2.349142224197e+01 
1 -1.306929464264e+01   3.228405850100e+01   1.380599164686e+01 
1  3.312457399633e+01   1.808036226368e+01  -1.080461285687e+01 
1 -2.751567571923e+01  -2.593760766466e+01  -4.232838793456e+01 
1  8.310121647844e+00  -2.392183708959e+01   8.466183701857e+00 
8
Step 1600
1 -1.868361059385e+01   9.492948334788e+01   2.315265611993e+01 
1 -2.945522390152e-01  -4.889257792582e+01  -4.676108237344e+00 
1 -6.740245228952e+01   7.904970685828e+00   6.387689850651e+01 
1 -1.903650157304e+01  -3.145526787426e+01   2.301087604051e+01 
1 -3.392990492189e+01   2.103948564026e+01   1.139615432553e+01 
1  4.652015882388e+01   3.729545852710e+01   4.383120266035e+00 
1 -2.059101140085e+01  -3.272555255329e+01  -5.482153010026e+01 
1 -4.303462653814e+01  -2.060052046313e+01   2.015314271046e+01 
8
Step 1700
1  1.654508931223e+01   9.265728814983e+01   3.070882432791e+01 
1  2.730996715782e+01  -3.328005234906e+01  -5.469276066802e+01 
1 -4.952529127706e+01  -2.545369194085e+01   4.325577852564e+01 
1 -2.491227859808e+01  -1.228048973746e+01   1.081783041951e+00 
1  6.022607974673e+00   6.455909546080e+01   3.514304447687e+01 
1  2.978452227175e+01   1.216241242386e+01   7.487199723223e+00 
1  2.963995721371e+00   6.286193057316e-01  -7.346108685067e+00 
1 -5.226666146432e+01   9.266356113047e+00  -4.630265519933e+00 
8
Step 1800
1  1.427767514486e+01   8.162434781007e+01   1.680588402065e+01 
1  3.691415186871e+00  -2.010995001831e+01  -4.056666699453e+01 
1 -3.886256482378e+01  -3.773927732792e+01   5.908056619054e+01 
1 -3.210479721417e+01   2.821402263486e+01  -9.533627737420e-01 
1  1.687136133941e+01   9.702320789400e+01   3.179696956172e+01 
1  9.914378285744e+00  -2.419488932914e+01   1.146334543711e+01 
1  3.570632441039e+01   2.532591615911e+01   7.274796994237e+01 
1 -3.850341715665e+01   6.032382145468e+00  -2.567180126950e+01 
8
Step 1900
1  1.244258374125e+01   7.136682876441e+01   1.065204575191e+01 
1  5.824111766392e+00   3.555601231358e+00  -1.431227422167e+01 
1 -9.466274615122e+00  -3.461614951841e+01   6.978906203315e+00 
1 -7.894357090765e+00  -1.814965858648e+00  -1.099867920761e+01 
1  9.234641776076e+00   8.586896770026e+01   1.682231323132e+01 
1  9.613324474071e+00  -2.037958012236e+01   4.137712290590e+01 
1  5.566316294156e+01   6.416279579180e+01   7.929911886067e+01 
1  2.191630585500e+01   1.839036969185e+00  -2.058725829317e+01 
8
Step 2000
1  8.257176474731e+00   7.812156674842e+01   2.235975567852e+00 
1  2.458191059836e+01   8.433955127396e+00   2.594799983627e+01 
1 -1.554467426951e+01  -3.972778800490e+01  -1.089934534813e+01 
1 -1.089349144893e+01  -4.195398612776e+01  -2.138277094474e+01 
1  1.214979162835e+01   6.224785006127e+01  -1.724545690053e+00 
1 -1.330055531880e+01  -1.817907070372e+01   9.241666564618e+00 
1  4.174104547220e+01   5.925719694313e+01   5.723354493308e+01 
1  2.435580348271e+01  -1.660865075417e+01  -2.720555161732e+00 
8
Step 2100
1  4.060342835129e+00   7.189408159143e+01   1.312029563833e+01 
1  2.509888749342e+01  -1.087908051354e+01   4.357222389472e+01 
1 -4.402887663692e+00  -2.033920529610e+01  -4.652409335019e+00 
1 -1.024156357723e+01  -6.708126561844e+01  -3.692705896408e+01 
1  2.801106718888e+01   3.686247536023e+01  -4.946824890997e+01 
1 -2.594265318413e+01  -2.152269075161e+01   1.833539035312e+01 
1  3.785387319300e+01   1.302427872124e+01   4.009313880900e+01 
1 -1.327365955335e+01  -2.464536453757e+01  -1.013246241021e+01 
8
Step 2200
1  1.209712562095e+01   3.181295359176e+01   3.803906495464e+00 
1  2.969710832573e+01  -2.418426038493e+01   8.427120859216e+00 
1  4.875421420405e-01  -5.541379959159e+00   1.972018974785e+01 
1 -4.546895588567e+00  -5.208188428992e+01  -2.936502286015e+01 
1  2.764187620036e+01  -2.939317384112e+00  -3.409995059648e+01 
1 -3.453541108333e+01  -6.128979936453e+01   3.485408830840e+01 
1  3.925746351653e+01   1.442743934551e+01   1.159836197305e+00 
1 -3.386157066016e+01  -2.607423832977e-01  -2.288966037299e+01 
8
Step 2300
1 -3.207380880142e+00   1.781417338266e+01   2.877695433124e+01 
1  3.353221190418e+01  -3.655151711463e+01  -1.293182122722e+01 
1  2.428930939754e+00   9.401199094629e+00   2.740917812319e+01 
1  2.182055403643e+01  -2.726714368099e+01  -3.697684898608e-01 
1  3.660783658606e+01  -1.634654801254e+01   4.156439292773e+00 
1 -3.128692602963e+01  -7.685922603387e+01   3.514975523368e+01 
1  6.123830095032e+01   4.684168831866e+01  -1.280793215081e+01 
1 -3.030434707454e+01   3.331543484915e+00  -2.387034777648e+01 
8
Step 2400
1 -2.423734703727e+01   2.560323688392e+01   5.290522538159e+01 
1  2.886753956688e+01  -4.287735005900e+01   1.028536060698e+01 
1 -2.405869599410e+01   7.671330311946e+00  -1.022086810702e+01 
1  3.623108510442e+01   6.247574769719e+00   6.471435797162e+00 
1  2.609843746012e+01  -2.644073446080e+01  -3.629648373489e+00 
1 -3.960349519172e+01  -5.639191852637e+01   1.509095062903e+01 
1  5.171225774850e+01   5.098574304250e+01  -7.276334005621e+00 
1 -8.365276071281e+00   1.902651459221e+01   1.754386595319e+01 
8
Step 2500
1 -1.966399413480e+00   5.686248050069e+01   6.156533512353e+01 
1  3.894766641863e+01  -7.196524212582e+01   3.709977975754e+01 
1 -1.605250129551e+01  -1.105395266667e-01  -6.542947140356e+01 
1  3.002367146330e+01   1.563162825907e+01   1.019374379881e+01 
1 -1.537715301975e+01  -2.155954487429e+01   2.891176850809e+01 
1 -4.670013905042e+01  -2.335350398588e+01   9.671936739217e+00 
1  3.148217794270e+01   1.131258685271e+01   1.396148925591e+01 
1  1.202005338615e+01   2.621110186201e+01   2.306093913290e+01 
8
Step 2600
1  1.813552421968e-01   6.621154472422e+01   1.974559361274e+01 
1  5.603262940652e+01  -1.095249912129e+02   3.996584910532e+01 
1  9.941509928953e+00  -1.041336327497e+01  -7.506130289757e+01 
1 -1.078021877073e+01   3.450927057121e+01   2.945735818452e+01 
1 -6.785999845068e+00  -1.471424317391e+00   3.407325113777e+01 
1 -4.101402838230e+01   1.477229604847e+01  -1.903498513335e+00 
1  3.166026974412e+01  -8.808676600337e+00  -1.106833811713e+01 
1  3.314371156245e+01   3.082034887857e+01   9.825222564254e+00 
8
Step 2700
1 -5.146635121097e+00   5.834320949309e+01  -1.819169401502e+01 
1  5.420205964876e+01  -1.034190735596e+02   3.785641620456e+01 
1  3.538923342665e+01   1.444522873649e+01  -2.655996481298e+01 
1 -3.298412526421e+01   1.918721975111e+01   1.672806001961e+01 
1  2.750917685355e+01   1.415922892670e+01  -1.157436978366e+01 
1 -3.241633985155e+01   4.214167100521e+01  -4.010527383933e+01 
1  4.572788891255e+01   4.363680953607e+00  -3.950251327016e+01 
1  4.722673868523e+01  -1.373468074095e+01  -9.024284288465e+00 
8
Step 2800
1 -1.120322171751e+00   4.741843092925e+01  -2.878881891402e+01 
1  3.162089857837e+01  -5.069263064251e+01   3.607020760400e+01 
1  2.920617045518e+01   3.283452250469e-01   2.700027338402e+01 
1 -4.138622335855e+01   3.272224321572e+01   7.934717894998e+00 
1  3.620886250954e+01   5.333413421570e+00  -3.191918877048e+01 
1 -3.226509890126e+01   3.468070615898e+01  -4.461947517898e+01 
1  5.293652188738e+01   7.686745301154e+00  -3.920521947246e+01 
1  3.609427070744e+01  -2.547684444341e+01  -2.356437530711e+01 
8
Step 2900
1  3.476669324684e+01   4.209731378448e+01  -6.859295878219e+00 
1  9.076943600820e+00   1.361823922477e+01   4.938780112621e+01 
1 -2.476464760134e+01  -9.118232417296e+00   8.777631878822e+00 
1 -5.159375367637e+01   2.441064208022e+01   4.268411302045e+00 
1  2.102178222319e+01  -1.526686936323e+01  -4.082927596848e+01 
1 -7.236905689760e+01   2.969083545535e+01  -3.032954548882e+01 
1  2.690562078824e+01  -8.155726045003e+00  -5.997053004472e+01 
1  8.980702671598e+01   9.755143658145e+00  -1.608970287444e+01 
8
Step 3000
1  7.327616318677e+01   3.599326446395e+01   1.647951610822e-01 
1  8.872214665826e+00   3.730695507305e+01   4.251008611549e+01 
1 -2.969354325548e+01  -6.378447168595e+00  -2.255215760928e+01 
1 -6.654493095273e+01   2.104379595932e+01   6.206099972653e+00 
1 -1.728163043042e+01  -2.580194700992e+01  -2.246742170424e+01 
1 -7.628074196124e+01   1.172878489982e+01   2.068460438729e+01 
1  1.509438874600e+01  -1.302847840637e+01  -4.507803146133e+01 
1  7.565485702055e+01   3.980956437344e+01  -1.859429079101e+01 
8
Step 3100
1  7.126047604560e+01   8.728486316077e+00  -7.721848063853e+00 
1  1.226696110084e+01   3.336289802127e+01   3.551296983197e+01 
1 -5.375105366174e+00  -1.679239148386e+01   1.212206511186e+01 
1 -4.177643634931e+01   2.281284066584e+01   3.956448946881e+01 
1 -2.027400184077e+01  -1.502006322570e+01   1.504610708532e+01 
1 -7.608305484733e+01   1.030362202028e+01   5.231623234580e+01 
1 -2.567670536223e+01  -4.403663107758e+01  -2.017554260793e+01 
1  1.823475742789e+01   5.273660715044e+01  -2.784443622565e+01 
8
Step 3200
1  4.080704990909e+01   8.748852690576e+00  -2.606412616654e+01 
1  2.553610548784e+01   2.013695419534e+01   5.980182774647e+01 
1  1.927232711085e+01  -1.945372344438e+01   2.719330852290e+01 
1 -2.782353157676e+01   5.764706666915e+00   4.103934579203e+01 
1 -1.374111541361e-01   9.639044227701e+00   2.631886753241e+01 
1 -5.392182945458e+01  -6.891921340382e+00   2.159884636462e+01 
1 -1.965999200351e+01  -3.291971773808e+01  -1.124229190108e+01 
1 -4.266099304110e+00   2.613914122962e+01  -4.368441131426e+01 
8
Step 3300
1  2.055585478671e+01   3.852042890219e+01  -8.847886985397e+00 
1  3.297465775841e+01   1.711559610357e+01   6.201865743528e+01 
1  2.236763532174e+01  -3.120936090808e+01  -2.132908306424e+01 
1 -8.485499352607e+00   5.990081843079e+00   1.453532431264e+01 
1  1.877995837537e+01   1.179858372258e+01   2.735886281992e+01 
1 -2.086897072520e+01  -2.078366051856e+01   3.290910270623e+01 
1 -4.582364185133e+00  -8.754388582450e-01  -2.294905196385e+01 
1 -4.351077051137e+01   2.498413114148e+01  -5.072070928072e+01 
8
Step 3400
1  3.185805538378e+01   5.403536750326e+01  -1.734567116661e+01 
1 -3.821113452636e+00  -7.801228916566e+00   3.717964726347e+01 
1  6.108621138081e-01  -2.923654044715e+01  -5.627846686034e+01 
1  2.454490954393e-01   2.137222956947e+01   6.131602329191e+00 
1  1.378379101026e+01   6.619725721491e+00   8.170498123917e+00 
1 -1.688260247157e+01  -1.484886503907e+01   7.859222012479e+01 
1  3.136446758855e+01   5.693655468388e+00  -2.240224463614e+01 
1 -7.712333304545e+01   5.744652858461e+01  -5.466885676349e+01 
8
Step 3500
1  4.666512397769e+01   4.187816760112e+01  -1.908514726929e+01 
1 -3.543106154546e+01  -4.406075627955e+01   2.558550076390e+01 
1 -1.223801658381e+01  -1.727182110100e+01  -3.122832366242e+01 
1  4.110825682597e+01   1.169089140890e+01  -7.657651081399e+00 
1  2.752332624058e+00  -7.869673299558e+00   1.370206435758e+01 
1 -3.342284977535e+01  -1.313546426755e+01   5.488023594559e+01 
1  6.792575052661e+01   3.053280891286e+01  -9.879849922302e+00 
1 -8.184681971632e+01   8.772985516911e+01  -6.873986603642e+01 
8
Step 3600
1  3.391854374418e+01   4.361713649609e+01   6.187270528317e-01 
1 -3.315155724381e+01  -5.130181090654e+01   1.361079827354e+01 
1  1.038475711804e+01  -1.403060298805e+01  -4.977141730531e+00 
1  6.456910199664e+01  -6.652063388969e+00   1.333143401864e+01 
1  1.729286302253e+01  -1.370066430834e+01   3.003386598306e+01 
1 -3.140193561490e+01  -1.800994437022e+01   5.473566502446e+01 
1  4.095486603259e+01   1.990780961324e+01  -9.085982261974e+00 
1 -6.136326743268e+01   7.977781654419e+01  -5.507988279243e+01 
8
Step 3700
1 -5.214231789421e+00   1.404738353441e+01  -1.026429831472e+01 
1 -1.686751153940e+01  -2.990808143185e+01   1.892510924732e+01 
1  2.804205195465e+01  -2.542387449044e+01   5.115806226665e+00 
1  7.564443141313e+01  -3.320344401855e+01   3.873817737887e+01 
1  3.306975594504e+01  -2.274523678088e+01   6.435919605985e+01 
1 -3.119655721150e+00   9.528279606837e+00   3.836727972227e+01 
1  2.580887487912e+00   1.308646357155e+01  -7.630242884563e+00 
1 -3.634357500041e+01   3.822258587137e+01  -2.536912811193e+01 
8
Step 3800
1 -2.244100212741e+01   2.040304154118e+01  -2.208424938664e+01 
1  1.460710854167e-02  -4.431087236712e+00   3.035391252688e+01 
1  1.616636668852e+01  -4.985345872414e+01   5.948715193855e+00 
1  4.392216999172e+01  -5.770793201842e+01   2.250558141909e+01 
1  9.442694098330e+00  -5.495361999458e+01   7.917445367530e+01 
1  1.514080286003e+01  -4.387340917480e+00   3.045448666506e+01 
1 -6.993974605974e+00   6.530565735100e+00   2.028638658206e+01 
1 -4.197623509794e+01  -1.338298202602e+01   3.637448541727e+01 
8
Step 3900
1 -4.890069844851e+00  -1.137437040639e+01  -9.440122775385e-02 
1 -5.502873952872e+00   7.991952110377e+00   1.123327445802e+01 
1 -1.649093675594e-01  -3.682282462225e+01   1.906205899921e+01 
1  1.360291378406e+01  -6.549630856619e+01  -1.860177814740e+01 
1 -1.918312630366e-01  -2.782527897092e+01   5.643549547832e+01 
1  2.850818720981e+01  -1.192678408566e+01   3.505829907074e+01 
1  1.612568397091e+00  -6.422591140144e+00   5.766478773529e+00 
1 -3.892969179298e+01  -2.545725154587e+01   5.876493529214e+01 
8
Step 4000
1 -2.795125171707e+01  -1.106197159216e+01   3.433411206481e+00 
1 -2.218665434667e+00   5.973479943123e+00  -4.614301853978e+00 
1  1.126554583427e+01  -3.802422295803e+01  -1.348548860857e+00 
1  2.933116463515e+00  -3.525121130875e+01  -8.249036111297e+01 
1  8.363670097173e+00  -3.110028272463e+01   4.594664913607e+01 
1  8.359329552434e+00  -5.217612094467e+01  -5.941875142455e+00 
1 -3.356760326561e+00   1.768359268918e+00  -4.716015931393e+00 
1 -2.655290438578e+01   6.015635640842e+00   8.458447448964e+00 
8
Step 4100
1 -5.233730762790e+01  -1.946747725029e+01  -1.164914987689e+00 
1  1.934750668925e+01  -2.700859136257e+01  -1.000389020507e+00 
1 -1.728659722640e+01  -8.801505799693e+00  -3.084719191946e+01 
1  6.201489415817e+00   1.089429702805e+01  -7.614017317781e+01 
1  2.188612119657e+01   8.496799229217e-01   2.596399681040e+01 
1 -5.666459424956e+01  -5.259266871359e+01  -2.677199500520e+01 
1 -3.822223138653e+01   4.128662014062e+00   3.112430632710e+00 
1 -1.211973087458e+01   1.978682813558e+01  -1.527235681360e+01 
8
Step 4200
1 -6.043074015225e+01  -8.999596531381e+00   2.162951271176e+01 
1  6.177299856463e+01   1.549556351426e+01  -1.380227958847e+01 
1 -3.120466397877e+01   2.586845258250e+01  -3.144464380051e+01 
1  1.861059826544e+01   3.356047342039e+01  -5.716625879467e+01 
1  2.614871699687e+01   1.133496169634e+01   3.507915199605e+01 
1 -6.467950044965e+01  -3.452507954765e+01  -2.076158548924e+01 
1 -2.281798718683e+01   1.887014767719e+01  -3.646070659507e+00 
1  1.506407235393e+01   1.172867084091e+01  -2.426632097513e+01 
8
Step 4300
1 -9.351218042559e+01   1.173736281958e+01   2.422836561749e+01 
1  4.912785898940e+01   4.774312866508e+01  -9.510813874999e+00 
1 -6.210587391024e+01   3.312844126383e+01  -7.408327588516e+00 
1  2.239041489855e+01   1.137346612412e+01  -3.399129931438e+01 
1  3.629132528509e+01   1.496237014621e+01   5.244570847667e+01 
1 -2.384836547344e+01  -8.314760356486e+00  -3.955494396324e+01 
1 -1.500590725142e+01   2.243766262458e+01  -3.810423541130e+01 
1  1.513504599590e+01  -3.761156186758e+01  -2.790002257510e+01 
8
Step 4400
1 -5.296041435261e+01  -2.015212522920e+01   2.541631304866e+01 
1 -6.704274415696e+00   4.738017398875e+01   5.865903780639e-01 
1 -5.607527646619e+01   2.754507909683e+01   4.332105994534e+01 
1  3.566206226743e+01  -1.319390019624e+01  -1.029359435889e+01 
1 -1.699358931083e+01   4.573726548971e+01   4.944430885728e+01 
1  2.212774893718e+01   1.786385203081e+01  -4.155940200083e+01 
1  3.297374799997e+00   2.087658943422e+01  -7.047275775324e+01 
1 -3.030412043532e+01  -4.374038970072e+01  -3.520542353461e+01 
8
Step 4500
1 -3.210704661298e+01  -4.780625689978e+01   2.747198856104e+01 
1 -9.938788534419e+00  -1.536226571123e+01   1.932730861242e+01 
1 -4.370437871462e+01   3.754528496919e+01   7.712575285635e+01 
1  3.073366548517e+01  -4.753028673456e+00   1.810251937809e+01 
1 -5.428179328232e+01   4.738961934759e+01   6.253235774828e+01 
1  3.220368532880e+01   3.519538172500e+01  -3.546761568515e+01 
1  3.431439360866e+01  -1.986332067785e+01  -4.398366118221e+01 
1 -4.470078841106e+01  -3.710816070773e+01  -3.247193543069e+01 
8
Step 4600
1 -1.361121748056e+01  -2.102889679239e+01   3.038296010419e+01 
1  1.835673630834e+01  -4.799244315329e+01   4.723319001906e+01 
1 -5.817648268570e+01   1.794494288719e+01   4.592736648501e+01 
1  6.841312152456e+00  -2.106805670822e+01   2.363034414201e+01 
1 -4.820751654784e+01   4.509986770280e+01   3.104743218069e+01 
1  1.866519074638e+01   5.647424672103e+01  -1.615821931773e+00 
1  5.023341018543e+01  -3.499417863053e+01  -2.865787429722e+01 
1 -3.499142220502e+01  -2.226041724001e+01  -3.028350498640e+01 
8
Step 4700
1 -2.780167758495e-02   1.846219391805e+01  -6.802313681596e+00 
1  6.437289002663e+00  -4.538661439585e+01   4.763519427799e+01 
1 -4.807529049448e+01  -2.769202559751e+00   2.647455414172e+00 
1  1.473435734983e+01  -4.747493316822e+01   3.188455185404e+01 
1 -6.097934255642e+00   5.037886905752e+01   4.020347675505e+00 
1 -6.072387066893e+00   5.504997336127e+01   1.306015884057e+01 
1  4.985285702046e+01  -1.229746529074e+01   1.299267930036e+01 
1 -2.515710984598e+01  -3.659864659225e+01  -3.098341276072e+01 
8
Step 4800
1  4.579474310671e+00   1.242724697184e+01  -3.815107299610e+01 
1 -5.149558406818e-01  -1.731789545237e+01   4.617951266236e+01 
1 -3.412571483326e+01  -1.970819666442e+01   2.633585372052e+00 
1 -3.055671421316e+01  -1.591676316177e+01   3.651258772565e+01 
1 -4.830866700611e+00   6.578622818336e+01  -3.497413351722e+01 
1 -3.582385022100e+01   3.651629125109e+01   1.909106080311e+01 
1  2.373177021189e+01   2.236961371111e+01   5.923984071070e+01 
1 -2.896796397215e+01  -4.784962780928e+01  -4.076657885726e+01 
8
Step 4900
1 -1.567774566304e+01  -3.071941862703e+00  -5.691737156474e+00 
1 -2.874593465928e+00   1.182203441879e+01   5.744271301168e+01 
1 -3.185649369112e+01  -2.539960580080e+01   7.319268910890e+00 
1 -2.944627813355e+01   5.164682439985e+01   2.552381853317e+01 
1  3.075916309692e+01   4.964758528773e+01  -1.686884971738e+01 
1 -6.989528450138e+01   3.218105687160e+01  -1.194920800761e+01 
1  2.080049630395e+00   4.192723813297e+01   6.066579546781e+01 
1 -4.538211032889e+01  -4.571245768224e+01  -4.814760533410e+01 
8
Step 5000
1 -1.683368713863e+01  -1.914937039831e+01   2.238884401227e+01 
1 -6.223101990240e+00   1.069780351339e+00   5.689293836407e+01 
1 -3.742385687559e+01  -1.492187403548e+01   7.511516866502e+00 
1 -2.029674986521e+01   6.036593686085e+01   6.824226251295e+00 
1  2.230813029438e+01   4.758940468536e+01   1.188341052173e+01 
1 -5.250766425480e+01   3.286838994135e+01   9.800771190008e+00 
1  8.115473118813e+00   3.603349571163e+01   3.601951421934e+01 
1 -7.910692524049e+01  -4.092690368156e+01  -6.072562131671e+01 
8
Step 5100
1 -2.291013285899e+01  -2.636447574272e+01   4.297988060397e+01 
1  7.391542132322e+00  -1.363966854310e+01   6.399988244991e+01 
1 -4.080099595380e+01   2.501126062370e+00   1.603132126968e+01 
1 -8.609268418820e+00   1.060889956152e+00   8.871342912199e+00 
1  2.653122968390e+01   4.759011811359e+01   1.378122080772e+01 
1 -2.747004658256e+01   9.638196142408e+00   2.387488463065e+01 
1  1.456318334007e+01   9.430356295425e+00  -8.570510542611e+00 
1 -6.749682955554e+01  -3.548613111934e+01  -4.883096224338e+01 
8
Step 5200
1  3.460039876801e+01  -1.345377737541e+01   3.496131500896e+01 
1 -1.982235360079e+01   1.179307427315e+01   4.681791403998e+01 
1 -4.997937782053e+01   1.051214187074e+01   3.526639852415e+01 
1  1.076730445974e+01  -1.534243130668e+01   1.907651869149e+00 
1  2.937061475229e+01   3.423137222196e+01   3.152289302238e+00 
1 -8.239972270242e+00  -5.179003550655e+00   3.097635914703e+01 
1  1.526886230646e+01  -5.389509566190e+00  -1.843206431956e+01 
1 -5.906485108764e+01  -6.147299069030e+00  -2.263235663246e+01 
8
Step 5300
1  5.708349607290e+01  -7.104295618116e+00   4.685492597388e+01 
1 -2.479198116268e+01   2.347736151966e+01   2.508905470484e+01 
1 -3.418541828091e+01   3.123396738310e+01   2.093539363813e+01 
1  3.455044809626e+01   2.008879108250e+00   3.000354566985e+01 
1  3.034219551527e+01   2.259783858314e+00  -6.128076289278e+00 
1 -1.513197973427e+01   2.340016156712e+01   1.050045615585e+01 
1  2.916954881550e+01  -1.298995946439e+01   1.322187136898e+01 
1 -4.387410679829e+01  -1.493473796499e+01  -1.608939888444e+01 
8
Step 5400
1  4.021445597207e+01  -3.078942678038e+01   5.038258518862e+01 
1  3.799831545435e+00   2.018371774017e+01   1.767689110327e+01 
1 -3.786919866082e+01   1.840290769168e+01  -2.237027881306e+01 
1  4.241841278534e+01  -2.672618853128e+00   2.293560730661e+01 
1  3.755334378708e+01  -3.361150932170e+01   2.410678046263e+00 
1 -1.808858870544e+01   5.788297424758e+01  -1.822649419192e+00 
1  3.532586539301e+01  -1.761082397249e+01   7.328548724513e+00 
1 -2.124643355384e+01  -2.400462189735e+01  -1.009704181905e+01 
8
Step 5500
1 -5.588145152472e-01  -5.946187840658e+01   2.793660999938e+01 
1  3.525919334782e-01   2.317649345860e+01   3.395731950788e+01 
1  9.050609015126e+00   3.869580920780e+01  -4.994394362636e+01 
1  2.578977381587e+01  -2.462614300007e+01  -1.017231574245e+01 
1  4.081632158377e+01  -3.827533137499e+01   9.336299173899e+00 
1  2.368732600558e+01   3.159678158129e+01   3.765833597711e+01 
1  6.197021251633e+01  -1.720093450109e+01  -1.028916522365e+01 
1 -2.133315972297e+01  -5.108890870589e+01  -3.032188229689e+01 
8
Step 5600
1  2.098906014086e+01  -7.140140675442e+01   4.575124677559e+00 
1  8.285676262570e+00   8.560755843049e+00   3.263897708559e+01 
1  2.466545901866e+01   1.452635973191e+01  -6.745172435509e+01 