8
Step 0
1  4.876430362593e+01   3.604609035164e+02   6.098475967773e+02 
1 -1.226853795494e+02  -3.989859253822e+02  -2.499864071027e+02 
1  2.341627212537e+02   4.547871264247e+02  -2.213268289048e+02 
1 -2.306758912571e+02   4.831366144294e+02  -5.522624748716e+02 
1 -2.877270793319e+02  -2.650705997917e+01   5.480070424582e+02 
1  3.942263764950e+02  -2.578338582513e+02  -3.249648679985e+02 
1 -5.420655860033e+00   3.286778150045e+01  -1.398997635434e+02 
1 -5.764290742362e+02  -2.852104532885e+02  -6.061573592877e+02 
8
Step 100
1  4.975077487410e+01   1.024985710066e+02   4.176131568719e+02 
1 -1.308092662703e+02  -2.891807188278e+02  -2.613436019843e+02 
1  8.947418553634e+01   3.320293801648e+02  -2.041865973409e+02 
1 -5.332678602213e+01   4.566690455448e+02  -3.746500545270e+02 
1 -1.607337406745e+02   2.478584960212e+00   3.214607770301e+02 
1  3.563894062346e+02  -7.612990697506e+01  -2.121289721563e+02 
1  7.754917389741e+01  -6.149797661429e+00   1.511093253644e+01 
1 -3.512547144705e+02  -1.163945595325e+02  -3.005462877362e+02 
8
Step 200
1  3.730853650766e+01  -1.817710623862e+02   1.713324759831e+02 
1 -1.569333013844e+02  -1.255076272333e+02  -2.303850315992e+02 
1 -7.752393580684e+01   1.246271625031e+02  -1.394896626060e+02 
1  1.682711397141e+02   3.743230619356e+02  -1.381815459040e+02 
1 -2.230218094552e-01   4.858973362244e+01   5.885953076110e+00 
1  2.834645156230e+02   1.794693878335e+02  -4.666627166317e+01 
1  1.643206076140e+02   1.299450488921e+01   1.753332193300e+02 
1 -5.937466569324e+01   1.057782187665e+02   7.950936558224e+01 
8
Step 300
1  2.127503239802e+01  -2.313713820301e+02   8.760159585533e+01 
1 -1.766578576463e+02  -5.854525420346e+01  -1.377543959765e+02 
1 -1.094913287254e+02   7.174707461692e+00  -4.030245746784e+01 
1  1.929126118182e+02   2.471294123893e+02  -5.892451419408e+01 
1  6.668709891292e+01   1.032699574558e+02  -9.849357317641e+01 
1  1.896921442821e+02   2.398836886978e+02   5.027931932115e+01 
1  1.461753347990e+02   2.621637761218e+01   1.281391771827e+02 
1  5.096951018926e+01   1.570555040819e+02   1.748537853439e+02 
8
Step 400
1  5.050763218229e+00  -1.341854980343e+02   8.982595705948e+01 
1 -1.466756220112e+02  -5.196932280478e+01  -6.672073223581e+01 
1 -5.518520055382e+01  -1.027375646601e+01   1.175714295048e+01 
1  9.636885056328e+01   1.451678114087e+02  -9.445643988806e+01 
1  8.551575042079e+01   1.058219546346e+02  -9.210711861421e+01 
1  1.327416862116e+02   1.406271822252e+02   4.490304423421e+01 
1  5.381604556274e+01   7.709058992763e+00   1.652932372201e+01 
1  3.663815667928e+01   7.451935913579e+01   7.341472183417e+01 
8
Step 500
1  2.123670892146e+01  -5.585299635625e+01   8.064551529726e+01 
1 -7.576997034071e+01  -6.688674213915e+01  -1.734220797960e+01 
1 -2.302108323734e+01   4.902714177277e+00   4.780061633620e+00 
1  1.653017134720e+01   8.328469937108e+01  -1.011927048113e+02 
1  5.545981901419e+01   8.481034209048e+01  -5.761497207738e+01 
1  7.984122985879e+01   4.877625715311e+01  -2.023657999907e+01 
1 -7.694340490319e+00   4.457240715080e+00  -4.324552667496e+01 
1  1.867874453144e+00  -3.080577015512e+01  -5.002420209640e+01 
8
Step 600
1  3.351426974224e+01  -5.696917281762e+01   7.363122232059e+01 
1 -5.892719935554e+01  -1.149104226270e+02   2.582983854108e+01 
1 -4.219249766057e-02   2.132040110113e+01  -2.000469445882e+01 
1  3.368011375786e+00   5.995525446085e+01  -9.360056435548e+01 
1  1.843736358643e+01   1.078589887726e+02  -3.418401624130e+01 
1  6.842083617996e+01   2.735514579569e+01  -3.718927293890e+01 
1 -1.906326693086e+01  -3.390370088715e+00   3.544388019058e+00 
1  2.141545515392e+01  -7.918035878962e+01  -7.679180552361e+01 
8
Step 700
1  1.437091079488e+01  -7.473758935214e+01   7.826623974229e+01 
1 -5.395527122838e+01  -1.065736961535e+02   4.698632139495e+01 
1 -1.939902481424e+01   4.450541771661e+00  -5.962711791301e+01 
1  2.495881001031e+01   5.904848034883e+01  -8.810846182320e+01 
1  1.267416964170e+01   7.832503092637e+01  -1.677953329253e+01 
1  6.863993633984e+01   1.829875995745e+01  -3.322844870582e+01 
1 -8.245133443090e+00  -2.490338668293e+01   5.445859306195e+01 
1  4.912583864592e+01  -8.299905158618e+01  -7.095874714484e+01 
8
Step 800
1 -1.165387108971e+01  -2.781656811878e+01   6.770405203312e+01 
1 -5.674647159983e+01  -1.112923083349e+02   3.538232177390e+01 
1 -5.181764230693e+01  -3.874301583338e+01  -4.034567697402e+01 
1  4.149261361651e+01   2.369582072814e+01  -8.510709977799e+01 
1  1.381405041120e+01   5.825110253371e+01   1.256468069603e+01 
1  4.630685010727e+01   9.546044212059e+00  -2.843501319619e+01 
1 -1.115578415091e+01  -3.091252214611e+00   4.487421442990e+01 
1  4.775066184334e+01  -8.177558382184e+01  -4.881376529195e+01 
8
Step 900
1 -5.503308919690e+00  -1.279711979593e+01   5.638636495409e+01 
1 -3.892370511170e+01  -1.011739899673e+02   4.164165818367e+01 
1 -5.744144797203e+01  -4.175239960449e+01  -8.711317242302e+00 
1  4.287821300960e+01   1.694787629128e+01  -3.251598152854e+01 
1  3.993449738097e+01   7.286941772491e+01   3.446427020531e+01 
1  1.035402006060e+00   1.492369846606e+01  -3.126046243463e+01 
1  1.023439372634e+01   4.318131292380e+01   1.379637585699e+01 
1  3.397319687305e+01  -5.702952466749e+01  -1.758685446087e+01 
8
Step 1000
1  1.044302786257e+01   6.448390461304e+00   7.530780659820e+01 
1 -2.126668511727e+01  -8.726634923460e+01   3.721642967933e+01 
1 -7.989909054249e+01  -2.759566485199e+01   7.142352342505e+00 
1  4.391756923914e+01   7.043153864164e+01   2.923938533660e+01 
1  5.918174576245e+01   5.764380657675e+01   3.822854332294e+01 
1 -3.493357767088e+01   3.015932227339e+00   3.397928352939e+01 
1  4.070375757759e+01   6.155547138051e+01   2.866715329368e+01 
1  3.001182326013e+01  -5.200414349280e+01  -2.572242688080e+00 
8
Step 1100
1  1.976417889866e+01   3.309855569315e+01   8.170658024519e+01 
1 -2.080854381301e+01  -7.470466475004e+01   8.449584167608e-01 
1 -8.274558057499e+01  -1.062421806410e+00   1.381776231695e+01 
1  8.841220622932e+01   8.480855742401e+01   5.249838639650e+01 
1  5.798296958733e+01   3.055441968390e+01   3.154696489820e+01 
1 -4.913073486951e+01  -9.654964847430e+00   2.178628895882e+01 
1  4.614540092635e+01   6.796187136844e+01   2.350537206655e+01 
1  1.832368793910e+01  -9.959975996935e+00  -1.389749955825e+01 
8
Step 1200
1  1.853212950817e-01   3.011589358775e+01   8.101614499015e+01 
1 -1.917750375438e+01  -4.523258373978e+01  -9.788378302732e+00 
1 -8.220022466477e+01   3.491635968613e+01   1.037176508274e+01 
1  8.241165538912e+01   6.534108462399e+01   1.568236333939e+01 
1  4.707220067556e+01  -8.582239603305e+00   8.261686835506e+00 
1 -5.037405861862e+01  -5.435072488481e+00   1.031849963382e+01 
1  2.421845751758e+01   2.784763515399e+01  -1.542835204832e+01 
1  3.096409283381e+00  -1.940908942447e+00  -1.446157225225e+01 
8
Step 1300
1  2.642383670923e+00   2.899629688006e+01   9.538630329287e+01 
1 -4.810233535010e+01  -5.855090485400e+01  -1.477864866845e+01 
1 -5.320738262912e+01   3.936948188105e+01   2.136369301499e+01 
1  4.422196474162e+01   7.548359089877e+00   2.420507858901e+01 
1  4.599701004482e+01   4.221443500082e+00   7.911263770248e+00 
1 -2.464095816437e+01   7.536007956178e+00   8.232644941598e+00 
1  9.106285123623e+00   2.289558760394e+01  -2.850169020564e+01 
1 -1.663506770188e+01  -3.740202708611e+01  -1.382426152174e+00 
8
Step 1400
1  1.100621108499e+01   3.781905488879e+01   7.611579571839e+01 
1 -3.860162137711e+01  -5.436866638453e+01   1.259201670875e+00 
1 -4.272526724725e+01   1.931642954202e+01   3.198907424205e+01 
1  4.513013973985e+01   7.673075475465e-01   6.681632302520e+01 
1  6.005297499082e+01   2.521222465421e+01   3.902053112935e+01 
1  1.460547785074e+00  -3.407549499914e+01   1.196963064209e+01 
1  1.092243983311e+01   1.463473659337e+01   1.180316333968e+01 
1 -3.017171579792e+01  -4.014469722957e+01  -3.034229407137e+00 
8
Step 1500
1  2.423870834238e+01   2.153665778242e+01   2.969391969906e+01 
1 -1.626026592533e+01  -3.037813062233e+01  -1.318239473494e+01 
1 -6.098601675695e+01  -2.562295951385e+01   6.969379686746e+01 
1  4.965348781482e+01   2.206102115725e+01   6.797676877742e+01 
1  8.600201559475e+01   4.468814145523e+01   9.587589795737e+01 
1  4.463577266635e+00  -3.088802269805e+01  -1.090112092940e+01 
1  1.078776901016e+01   4.845397835401e+00   2.881016010404e+01 
1 -2.538627725664e+01  -3.502883033771e+01  -3.610174175742e+00 
8
Step 1600
1  5.509629778790e+01   9.660246372105e+00  -1.421473753983e+01 
1  2.135747631543e+00   9.399922480638e+00  -3.649737929656e+01 
1 -8.218876202610e+01  -5.710945623086e+01   5.757987819879e+01 
1  4.262865916265e+01   3.429576568704e+01   7.332952818411e+01 
1  5.938815919695e+01   3.917694276964e+01   1.087328399388e+02 
1 -3.173608794503e+01  -2.360756077725e+01  -1.790489223507e+01 
1  1.885182316284e+01  -1.390681020874e+01   1.674896339331e+00 
1 -9.598116348440e+00  -2.892612247446e+01  -1.484077674688e+01 
8
Step 1700
1  2.030215966938e+01   4.127825529254e+01  -2.547702502228e+01 
1 -2.135823471879e+01   2.816710233735e+01  -3.185885191271e+01 
1 -8.317707809630e+01  -4.963075370750e+01   4.170586196072e+01 
1  7.006363274126e+00   1.923824583629e+01   6.050800457570e+01 
1  2.043823952649e+01   6.794207003934e+01   6.593142909222e+01 
1 -1.913778510418e+01  -4.795477611849e+01  -1.097556269719e+01 
1  2.163495244422e+01  -6.609053732457e+00  -1.322948152597e+01 
1 -5.337816454717e+00  -4.645496214011e+01  -4.030387370052e+01 
8
Step 1800
1  3.003024271517e+01   4.777098387797e+01   1.330513501813e+01 
1 -2.857889982756e+01   1.958302324749e+01  -2.128707432693e+01 
1 -5.864852450686e+01  -2.011112932352e+01   1.791811554856e+01 
1  5.677094206207e+00  -7.682978034480e+00   4.100146303011e+01 
1  3.868930429393e+01   6.740331035690e+01   2.182771232079e+01 
1  7.071432343888e+00  -3.488038077988e+01  -2.747702483221e+01 
1  3.067689804133e+01   8.426332100276e+00  -7.787469073515e+00 
1  7.260179523308e+00  -6.772214216201e+01  -3.815288421701e+01 
8
Step 1900
1  4.673531812780e+01   2.349374811045e+01   2.444040827092e+01 
1  2.136803753911e+00   3.571219492076e+01  -2.666060036865e+01 
1 -1.445854079917e+01  -1.475654063069e+01  -7.856433079456e+00 
1 -1.013069979895e+01  -3.028389868800e+01   2.350994872791e+01 
1  4.406765633926e+01   5.902698639361e+01  -1.428519481920e+00 
1  3.348326327954e+01  -2.954227533946e+01  -1.867144400234e+01 
1  1.258264099595e+01   2.002367796443e+01  -8.349331799100e+00 
1  4.663053680662e+00  -5.569371686167e+01  -2.210663267913e+01 
8
Step 2000
1  4.911580615927e+01   3.180219075055e+00   1.595061485250e+01 
1  1.645539396435e+00   4.748185694481e+01  -8.387323767153e+00 
1 -1.207375455856e+01  -1.689766760593e+01  -1.645931276089e+01 
1 -1.579245860247e+01  -2.487308136954e+01   1.488654576575e+01 
1  4.091555186565e+01   3.930755657655e+01  -2.895499762771e+01 
1  5.657052817524e+01  -8.708144139329e+00   9.429107242662e+00 
1  5.492557499692e+00   3.690146868347e+01   5.666232423211e+00 
1 -1.181550306205e+01  -1.522284835989e+01  -8.388752319167e+00 
8
Step 2100
1  2.965000040303e+01  -1.335898564853e+01   2.822400042309e+01 
1  1.961856627545e+01   6.408119487479e+00   3.867743331066e+01 
1 -5.041039658474e+01   1.929632783519e+00   1.463666670102e+01 
1 -1.359886969713e+01  -5.720635823675e+01   1.451539758525e+01 
1  1.160525912438e+00   4.035647537034e+01  -4.604369134170e+01 
1  6.880958175213e+01   1.367015232705e+00   1.004118159631e+01 
1  2.020462154064e+01   4.939880399321e+01   7.521838137521e+00 
1 -3.206948178306e+01   2.268851370418e+01   1.292872541043e+01 
8
Step 2200
1  2.577054622397e+01   1.464715505090e+01   2.803611258745e+01 
1  1.863754147272e+01  -2.465814138130e+01   5.828813590260e+01 
1 -8.569433783305e+01   8.353757647655e-01   1.144574095534e+01 
1 -1.465440853516e+01  -8.904777827732e+01  -3.013727076204e+01 
1 -1.577773074960e+00   2.531357599781e+01  -6.985187939513e+01 
1  4.054789985257e+01  -6.234792992426e+00   5.328668061790e+00 
1  9.939905169579e+00   3.905070505311e+01  -1.897534321944e+00 
1 -3.481561140844e+01   2.902402856755e+01   3.825567353295e+01 
8
Step 2300
1  2.562408515245e+01   3.995855518165e+01   4.058916164169e+01 
1  2.076718554111e+01  -2.974427465071e+01   6.174216678834e+01 
1 -4.792082743977e+01   2.135791511984e+01  -2.092835256195e+01 
1  7.782179517316e-01  -1.091915344637e+02  -4.481298001076e+01 
1  1.155927503510e+00  -6.037755140111e+00  -8.786802858470e+01 
1 -5.449944667979e-01  -1.907870216349e+01  -1.811140840168e+00 
1  5.286509817632e+00  -8.393913195283e+00   9.051709209550e+00 
1 -2.812685646496e+01   1.090851139093e+01   3.160543033093e+01 
8
Step 2400
1  4.520296625622e+00   4.765445026619e+01   1.649791835451e+01 
1  4.094571703817e+01  -5.979263325945e+01   3.847611890741e+01 
1  1.082418367452e+01   1.282949704477e+01  -4.008707116317e+01 
1  1.563296746385e+01  -9.548822349954e+01  -7.668968499967e+00 
1  3.447940451810e+01  -3.356455420420e+01  -6.515479162063e+01 
1 -1.229530570207e+00  -8.814888384545e+00  -1.782788450749e+01 
1  1.113965344369e+01   6.768107546434e-01  -1.300739750085e+01 
1 -5.347954018313e+00   2.689682233258e+01   3.171224725013e+00 
8
Step 2500
1 -7.167651614271e+00   2.923754814714e+01   1.084828169401e+01 
1  6.360807344964e+01  -6.985167166572e+01   2.098053687061e+01 
1  7.308142943558e+01   1.491164640258e+01  -1.258232310214e+01 
1  2.542397059524e+00  -3.983568634805e+01   2.463277585648e+01 
1  5.879139117037e+01  -6.302651373824e+01  -3.316229719541e+01 
1  1.278914238406e+01  -7.610607522044e+00  -2.762882720613e+01 
1  4.138909023488e+01   3.159746660877e+01  -2.589447540129e+01 
1 -2.959949029183e+01   5.127186691263e+01  -7.023334445018e+00 
8
Step 2600
1  6.184581555321e+00   3.230119368515e+00   1.306258202292e+01 
1  5.167587903721e+01  -5.360045140752e+01   2.219959442035e+01 
1  3.964656209301e+01   4.167528752379e+00   3.808522792332e+00 
1 -2.794430379205e+01  -2.484520421723e+01   4.698217679834e+01 
1  5.170214931590e+01  -3.191585277697e+01   4.836159329827e+00 
1  1.692944699190e+01   2.153033281046e+00  -1.513231237474e+01 
1  4.100479646377e+01   2.775220766298e+01  -2.413201463767e+00 
1 -2.101303043918e+01   3.433097833465e+01   2.109299621889e+01 
8
Step 2700
1  2.248393079268e+01  -1.174226567737e+01   3.451701546654e+00 
1  3.581773737932e+01  -9.199948440985e+00  -4.593667102087e+00 
1  1.804374433216e+01  -1.655451939900e+01   3.743150599552e+00 
1 -4.057596096539e+01  -1.196043625540e+01   6.049098089619e+01 
1  2.864016772277e+01   9.508322304568e+00   3.296736427569e+01 
1 -1.098420437636e+01   2.592508789822e+01   1.398331904936e+01 
1  3.581389495561e+01  -1.874848259314e+00   7.809702077196e+00 
1 -8.580092640238e+00   2.790672683788e+01   8.788171034030e+00 
8
Step 2800
1  2.056890267546e+01   3.123690739616e+01   1.137555026668e+01 
1  1.973307503642e+01   1.337897598486e+01  -1.086332777050e+01 
1  3.777605951104e+01  -9.824730889991e-02   2.998363656886e+01 
1 -3.921454199544e+01  -7.437599464603e+00   3.013283827710e+01 
1  8.692311501956e+00  -3.327220498556e+01   2.591941634191e+01 
1 -4.063137358615e+01   3.293649031448e+01   3.226219926489e+01 
1  4.090200007888e+01  -2.107612173634e+01   5.983657998866e+00 
1  2.317419916779e+01   2.961045185996e+01  -8.904584182291e+00 
8
Step 2900
1  3.247454983105e+01   5.565807390816e+01  -2.530751817601e+00 
1  6.152375764038e+01   1.068248446578e+01  -2.441812556370e+01 
1  7.536802183904e+01   1.403518945260e+01   1.766233251107e+01 
1 -2.108013453072e+01   2.338626781062e+01   1.195334682809e+01 
1 -1.481977987441e+01  -5.358453048629e+01   1.832383081215e+00 
1 -3.094539365879e+01   7.245679074128e+01   5.578129841723e+01 
1  1.833346023961e+01  -2.522364759671e+01  -1.230610966864e+01 
1  4.983874265217e+01   2.721637572494e+01  -6.286308666866e+00 
8
Step 3000
1  2.354084280295e+01   5.450266046461e+01  -2.279811367401e+01 
1  9.016279390584e+01   2.411357693369e+01  -4.979024695630e+00 
1  6.731404377086e+01  -1.032133803387e+01   3.051506638108e+00 
1 -2.788366633485e+01   2.640202419350e+01   2.336462361977e+01 
1  6.724262448373e-01  -1.488954080543e+01  -9.659246622038e+00 
1 -2.786249555294e+01   4.024423869156e+01   3.286917318365e+01 
1 -1.585660841358e+01  -1.526493219878e+01  -1.223725133009e+01 
1  3.086659763067e+01   2.953607306878e+01   1.114810423594e+01 
8
Step 3100
1  2.942315575421e+01   4.815720862108e+01  -9.285230911764e+00 
1  4.854383943627e+01   1.958631544223e+01   4.413979500645e+01 
1  6.842836620464e+01  -1.072834432782e+01  -4.522703639410e+00 
1 -4.372592240343e+01  -9.435001784695e+00  -6.143788576845e+00 
1  4.615986623983e+01  -1.298033178531e+01  -1.198247148620e+01 
1 -1.348294073198e+01   3.378630585063e+01   2.197260185149e+01 
1 -3.094434032267e+00  -1.409523121436e+01  -1.361389074559e+01 
1  1.114738693163e+01   1.379531598486e+01   3.500140160322e+00 
8
Step 3200
1  3.224746289199e+01   3.980498076119e+01  -2.709169868239e+01 
1  2.778723646635e+01  -8.903219851903e+00   8.394350181626e+01 
1  5.610525613255e+01   3.430652182977e+00  -2.906535763475e+01 
1 -1.858601168875e+01  -4.289935304720e+01  -1.364595506597e+01 
1  4.389656252533e+01  -1.857315634743e+01  -6.292406010803e+00 
1 -5.451005755266e+00   2.629536887552e+01   1.976623351540e+01 
1 -5.300076687430e+00  -1.698726054879e+01  -2.987909265493e+01 
1  3.937049195758e+00   2.476899506471e+01  -4.630223044516e+01 
8
Step 3300
1  3.229058845514e+01   2.483987510597e+01  -6.676529588359e+01 
1  4.157399379428e+00  -2.020109435671e+01   8.049354263540e+01 
1  7.148860164761e+01   8.595347242426e+00  -1.447553548148e+01 
1  2.653432875094e+01  -4.671299250037e+01  -1.471301998373e+01 
1  2.373676959835e+01  -9.079473424665e-01  -3.348020320656e+00 
1 -4.217376775485e+01   2.930605474624e+01   1.143179677282e+01 
1  1.739769972367e+01   3.671795077325e+00  -2.732749284865e+01 
1 -2.105610467338e+01   3.032734511955e+01  -6.221568183523e+01 
8
Step 3400
1  5.545922874313e+01   2.338519470467e+01  -4.572623595941e+01 
1 -4.503192578810e+00  -1.043368387931e+01   7.558689184291e+01 
1  7.739652334679e+01  -9.943388077863e+00   4.474066902678e+00 
1  7.104247713571e+01  -3.038390193096e+01   1.172419442645e+01 
1  1.301653883184e+01   1.005322985987e+01  -7.572956228423e-01 
1 -4.972272513441e+01   2.547582212431e+00   2.345164120432e+01 
1  9.587282857261e+00  -9.648142044806e+00  -4.003194131929e+01 
1 -2.250886678493e+01   3.301028145930e+01  -8.857255409525e+01 
8
Step 3500
1  3.546441434388e+01   2.294962333590e+01  -1.102150314589e+01 
1  6.032950266799e+00  -9.238151337080e+00   8.332086587848e+01 
1  3.955463039213e+01  -2.402523657898e+01  -7.362603623999e-01 
1  6.035305811940e+01  -4.287091683874e+01   4.423288275919e+01 
1 -1.069190583460e+01  -2.538774142787e+01   3.979831527703e+01 
1 -2.635092109110e+01   9.618538583744e+00   4.706344711491e+01 
1 -3.096014580767e+01  -6.397190818688e+01  -1.725628935774e+01 
1 -3.200094387235e+01   2.955492987686e+01  -8.910668550796e+01 
8
Step 3600
1  3.248972561339e+01   1.279673469938e+01  -1.817294076891e+01 
1  1.023509898410e+00  -2.076595023038e+01   8.632048265149e+01 
1  6.434703141988e+00  -5.579263884419e+01  -2.533342105601e+01 
1  4.300487135929e+01  -6.120408410404e+01   7.735579406205e+01 
1 -2.812923879108e+01  -5.869291699497e+01   5.725457066543e+01 
1 -1.809727143858e+01  -1.184702519610e+01   1.077669772791e+01 
1 -1.574259504269e+01  -5.160519522581e+01   3.496334324978e+00 
1 -4.138090359290e+01   5.036909073782e+01  -5.315254813790e+01 
8
Step 3700
1  3.158760213150e+01   5.455962005245e+01  -1.461656662035e+01 
1 -8.505588870039e+00  -1.903501204529e+01   4.573375625482e+01 
1  2.356255451676e+00  -5.488018468084e+01  -1.008625865894e+01 
1  2.373261840971e+00  -3.758147251101e+01   5.687684745133e+01 
1  2.663429746404e+00  -4.898850940591e+01   7.838051095945e+01 
1 -2.363870941498e+00  -2.353753888592e+01   5.443452777711e+00 
1  3.417096822431e+01  -5.327496375668e+00   1.891011262346e+01 
1 -5.813433303885e+01   7.111170980766e+01  -1.999942983340e+01 
8
Step 3800
1 -2.234994223158e+00   4.277571447189e+01   2.448906266593e+01 
1 -2.423291539871e+01  -1.229973734342e+01   1.209946716403e+01 
1  9.110883057777e+00  -2.881214728546e+01  -4.288145088134e+00 
1  5.327578492992e+00  -2.510724528374e+01   4.207000004210e+00 
1 -2.912789807118e+00  -2.357081576575e+01   8.436671839662e+01 
1  1.135850905393e+01  -1.789579427855e+01   1.917795572316e+01 
1  5.358857824181e+01   3.585387872269e+00   3.011999963874e+01 
1 -6.218923126020e+01   6.637480151266e+01   1.223582386451e+01 
8
Step 3900
1 -3.371920873961e+01   1.643326366572e+01   1.503699913018e+01 
1 -5.074251744112e+01  -5.871943548735e+00   3.590750594683e+01 
1  2.386230402605e+01  -3.273233724132e+01   5.060989153721e+00 
1  2.795161745872e+01  -3.668130580521e+01  -3.535184999040e+01 
1 -1.853119936735e+01  -5.736423673577e+01   6.105883307180e+01 
1 -1.088083228325e+01  -2.809946959381e+01   1.070046187485e+01 
1  4.199327094657e+01  -1.581140169383e+01   3.154882403230e+01 
1 -4.745734675021e+01   2.573222538294e+01   6.233824701186e+01 
8
Step 4000
1 -8.271821015075e+00   8.098938418484e+00   1.022540623387e+01 
1 -4.222870853804e+01   1.651224598354e+01   4.566082602658e+01 
1  2.945568843884e+01  -4.119079503942e+01  -2.576324459926e+00 
1  3.240949309863e+01  -1.273552001112e+01  -4.620901584176e+01 
1 -7.219599378278e+00  -6.383669856116e+01   7.058040314332e+01 
1 -2.637271647276e+01  -1.516621961275e+01   4.600315812900e+01 
1  2.039441942563e+01  -1.667222103872e+01   9.701632931269e+00 
1 -4.160626695947e+00  -4.600210625361e+00   6.170309995530e+01 
8
Step 4100
1 -1.288738187593e+01   3.070200249873e-01   1.793675240442e+01 
1 -2.229118032682e+01   3.727180738700e+01   3.253296716598e+01 
1  4.285286852698e+01  -1.084909159821e+01  -2.586034198628e+01 
1  1.326391367166e+01  -1.119651714132e+00  -4.497108275042e+01 
1  2.737551334222e+01  -5.026031082120e+01   4.323648638361e+01 
1 -2.370427458437e+01  -2.427798647276e+01   4.663394293267e+01 
1  8.514802584759e+00  -1.681993648350e+01  -9.773961581519e-02 
1  3.485921038931e+01  -3.700491042542e+01   2.749622000274e+01 
8
Step 4200
1 -3.729632519280e+01   2.097098105150e+01   1.756007443756e+01 
1  8.333806454171e+00   1.889351209692e+01   1.173632300170e+01 
1  3.423198980551e+01   6.847638867933e-01  -2.614622793846e+01 
1 -3.982757755049e+01   2.112917661259e+01  -6.019421886538e+01 
1  2.499213074510e+01  -2.175558955107e+00   2.763205607513e+01 
1 -2.332311038583e+01  -4.590903783071e+01   9.890676910642e+00 
1 -1.072645993461e+01  -8.341205920790e+00  -2.309713798497e+00 
1  1.850701893508e+00  -5.406196716808e+01   8.457020498098e+00 
8
Step 4300
1 -5.500348924972e+01   4.926987823812e+00  -3.242942156466e+01 
1  4.487850502833e+01  -2.299758891439e+01   2.663417364059e+01 
1 -5.574430991060e+00   2.013013670967e+01  -2.852972654316e+01 
1 -5.502045685926e+01  -2.416718542206e+00  -4.518955172033e+01 
1 -1.645773233939e+00   1.732045193319e+01   2.496658715848e+01 
1 -3.216804508797e+01  -6.337636889530e+01  -4.968017460992e+00 
1 -6.762832057381e+00  -3.182150998143e+01   7.337031144082e+00 
1 -5.606036690764e+00  -4.504571180399e+01   1.715243646077e+01 
8
Step 4400
1 -6.540192719739e+01  -2.147484162210e+01  -3.875090955768e+01 
1  4.514831983968e+01  -2.070815661885e+01   2.299399697277e+01 
1 -4.297591950293e+01   2.948694095227e+01  -2.260217756776e+01 
1 -1.258820076078e+01  -2.155077970666e+01   5.948123560328e+00 
1 -1.834545206863e+01   1.438919605041e+01   2.697791306153e+01 
1 -3.259815896265e+01  -1.572706097180e+01  -2.582069530063e+01 
1  5.301413307453e+01  -5.753688000146e+01  -3.264639170249e+00 
1 -1.755961723229e+01  -3.406178809664e+00   3.223697182068e+01 
8
Step 4500
1 -2.134455073455e+01  -1.193435369274e+01   5.782428112916e-01 
1  5.327785378854e+01  -1.324949219851e+01   4.421922220717e+00 
1 -3.346290940664e+01   5.982908621337e+00  -2.294107537253e+01 
1  1.811198220916e+01  -4.874869518436e+01   1.809047222871e+01 
1 -1.423226330205e+01   9.014097769659e+00   1.801836293751e+01 
1 -3.338971757623e+01   1.635508546946e+01  -2.348744767503e+01 
1  6.932227749804e+01  -6.807852770453e+01  -3.474200380496e+01 
1 -4.472960809971e+00   1.591098807040e+00  -1.141803162111e+01 
8
Step 4600
1  1.448140967873e+01  -7.498976655391e-02   2.090167643205e+01 
1  5.108301795895e+01  -4.247285984183e+00  -1.304251603980e+01 
1  9.482917478323e+00  -3.278090663934e+01  -1.281235427915e+01 
1  1.970855427529e+01  -5.950812976755e+01   3.207039097342e+01 
1 -5.596401377773e+00   1.611369188205e+01  -4.279328737256e-01 
1 -2.849270934119e+01   1.491654005972e+01  -2.000108413936e+01 
1  1.506160789001e+01  -3.639830944231e+01  -2.151683127864e+01 
1 -4.185059780537e+00   3.454356765586e+01  -3.241761648798e+01 
8
Step 4700
1  3.504681689284e+01  -1.044447052308e+01   1.292364153057e+01 
1  3.937762544200e+01  -2.675053163854e+01  -4.549841126762e+00 
1  1.344809213792e+01  -4.627455302795e+01   2.149360635975e+01 
1  5.348551008817e+00  -2.921484317894e+01   3.047514384508e+01 
1  2.322131880853e+01   2.171055166913e+01   3.647980581923e+01 
1  1.046822687169e+01   2.169400004975e+01   3.282727679304e-01 
1 -3.130123388307e+01  -8.046213849094e+00  -2.935936326002e+01 
1 -1.528230907603e+01   3.340936014299e+01  -3.479305112962e+01 
8
Step 4800
1  2.782002577776e+01  -6.535250800261e+00  -6.420788735862e-01 
1  6.861818285176e+00  -5.284110376980e+01  -3.446521255863e+00 
1  9.477702158260e+00  -1.892240485226e+01   3.287044367445e+01 
1 -2.076510179171e+01  -8.307877957235e+00   4.084880068536e+01 
1  3.242327053481e+01  -9.518744218742e+00   3.406397082790e+01 
1  1.284612910669e+01   3.377812424239e+01   4.610313762934e+01 
1 -4.482031529987e+01   3.116517542488e+00  -2.777931227536e+01 
1 -1.647958344056e+01   5.091179919665e+00  -2.384734675685e+01 
8
Step 4900
1  1.081373765290e+01   1.060616417040e+00  -2.487746669012e+01 
1  2.455476563893e+01  -6.101531164711e+01   7.680318145631e+00 
1 -8.460012558565e-02   4.686397430254e+00   3.825240610725e+01 
1 -2.612907366685e+01  -1.271269621773e+01   5.149678580900e+01 
1  1.592748700699e+01   9.015437470368e+00   7.066005310159e+00 
1 -3.218707371459e+01   4.338900829950e+01   6.343091755342e+01 
1 -4.495251350653e+00  -8.803592730600e+00   2.497404795019e+00 
1 -1.970857255276e+00  -3.280663452579e+01  -2.412170549853e+00 
8
Step 5000
1  9.865678090081e+00   6.817898740319e+00   1.292781400676e+01 
1  3.936583178632e+01  -3.136655115810e+01   1.257730327925e+01 
1 -2.217905749965e+01  -2.252099306209e+00   2.660588040937e+01 
1 -2.533772133110e+01  -1.469399246499e+01   5.186734221270e+01 
1 -1.629595491332e+01   3.427612353914e+01  -2.459500042762e+01 
1 -5.039155999995e+01   4.285133467448e+01   2.868501447877e+01 
1  2.586742618920e+01  -4.515806106663e+00   2.930218645996e+01 
1 -2.176966683712e+01  -2.579214110094e+01  -3.048046070943e+00 
8
Step 5100
1  1.966756196246e+01   1.782700505237e+00   4.264913254459e+01 
1  1.335917439270e+01   3.112559617444e+00   3.859148135734e+01 
1 -2.670816201573e+01   4.010581087274e+01  -1.085260746833e+01 
1 -2.278143581302e+01  -2.725096815219e+01   3.367114395981e+01 
1  5.500254293710e+00   2.799088296151e+01  -5.643636066543e+01 
1 -7.759006383758e+01   3.583483963091e+01  -1.356505410301e+01 
1  2.932153014517e+01  -1.779565832730e+01   4.626522102244e+01 
1 -7.153489775343e+01  -4.320362719634e+01  -5.093720590698e+00 
8
Step 5200
1  3.708495102226e+01  -6.802377350126e+00   4.353655371047e+01 
1 -1.396611235558e+01   1.253332523182e+01   8.338062739422e+01 
1 -2.545455425925e+01   6.938945495681e+01   1.958224574665e+00 
1 -1.630066940873e+01  -3.880572090821e+01   1.777329426866e+01 
1  9.701392963704e+00   3.153826513636e+01  -2.327714012959e+01 
1 -7.609698592865e+01   3.629516271313e+01  -3.095991770970e+01 
1  4.192001590893e+01  -3.350412812300e+01   1.986556177248e+01 
1 -7.925135134839e+01  -4.773275627563e+01   2.657844650920e-01 
8
Step 5300
1  2.501067691665e+01  -5.160263689563e+01   4.551375324755e+00 
1 -2.511440229064e+01   1.313210745414e+01   8.267197320877e+01 
1 -2.271623243622e+01   7.877695037123e+01  -1.464208355908e+01 
1  1.629549142637e+01  -4.629322217900e+01  -1.174979026943e+01 
1  6.267546946778e+01   2.469295030017e+01   1.381568989180e+01 
1 -2.601942983191e+01   1.901129401879e+01  -2.466369632649e+01 
1  5.464262588816e+01  -3.507241454752e+01  -1.344611180216e+00 
1 -6.385647461192e+01  -2.395795326755e+01  -4.077161184191e+01 
8
Step 5400
1  1.737403653784e+01  -8.984569024836e+01  -3.360172920091e+01 
1  1.389001214042e+01   1.550116849729e+01   1.191130267087e+01 
1 -2.945027742919e+01   4.979793845694e+01  -3.197592303904e+01 
1 -5.877963390469e+00  -5.822571658865e+01  -2.093894026658e+00 
1  9.181256032730e+01   1.951115041469e+01   2.552217943854e+01 
1 -3.123491883609e+00  -3.545883083275e+00  -1.746390547628e+01 
1  2.855369436114e+01  -4.314959724649e+01   1.829480231671e+01 
1 -4.064655711588e+01  -5.692175626898e+01  -5.746111283554e+01 
8
Step 5500
1  1.732910781881e+01  -8.669563142990e+01  -3.919200134914e+01 
1  3.051942786637e+00   7.260680088410e+00  -2.726486702217e+00 
1 -2.861365491679e+01   6.633736003655e+00  -3.923547614605e+01 
1 -4.835192705538e+00  -5.205052544099e+01   2.006390449068e+01 
1  1.089069896335e+02   1.776601171494e+01   2.024226515775e+01 
1  1.084490107473e+00   6.953873056621e+00   1.530525686748e+01 
1  1.301072872375e+01  -1.892100812574e+01   6.016419322395e+01 
1  2.300581908367e+01  -4.486474654256e+01  -2.515337282835e+01 
8
Step 5600
1 -9.779613671672e+00  -4.587161422760e+01   7.201472482762e+00 
1 -8.506500301702e+00   4.209090818982e+00   3.485725970085e+01 
1 -2.230771537161e+01   5.891673142243e+00  -4.184035003662e+01 