8
Step 0
1 -2.158830235783e+02  -3.142408652792e+02   1.167810667624e+02 
1  3.296897109744e+02  -5.507807655964e+02   2.693926396295e+02 
1 -2.669372731777e+02  -5.431606441563e+02  -6.222014149850e+01 
1 -3.552929618605e+01  -4.177581202499e+02  -5.317095545143e+02 
1  6.240102309409e+02   4.422151443761e+02  -5.955950649110e+02 
1  2.819999597600e+02  -3.673184511150e+02   2.540559007329e+02 
1  8.371624351045e+01   3.742086875642e+01  -2.962222465916e+02 
1  3.559014991594e+02   1.441370710462e+02   6.379664327236e+02 
8
Step 100
1 -2.179232363196e+02  -2.215263937149e+02   1.635615093663e+02 
1  2.580988826121e+02  -3.073522855760e+02   1.427473397696e+02 
1 -3.447031317371e+02  -3.525755940323e+02  -6.318453762079e+01 
1  7.081575453374e+01  -2.409467301121e+02  -4.257225016348e+02 
1  4.130610492689e+02   4.291494682652e+02  -3.185200495892e+02 
1  2.003478259706e+02  -1.269319570041e+02   1.044344536410e+02 
1  8.515993193736e-01  -4.241232454954e+01  -2.672828867233e+02 
1  3.458788281205e+02  -4.828909362043e+01   4.496144472343e+02 
8
Step 200
1 -1.413009027548e+02  -8.648813647085e+01   1.981818396821e+02 
1  9.326510128173e+01   2.942450019659e+01  -6.209826452582e+01 
1 -3.354310845689e+02  -1.441086237160e+02  -9.765132099965e+01 
1  1.762545438398e+02   2.739513927747e+01  -2.763917146510e+02 
1  1.430557981840e+02   3.218845519466e+02   2.487063122284e+01 
1  6.787362942309e+01   1.535840722538e+02  -7.836474563860e+01 
1 -1.023648611036e+02  -8.297623124103e+01  -1.517228584819e+02 
1  2.959003146519e+02  -2.760701168408e+02   1.558390220227e+02 
8
Step 300
1 -4.942591061686e+01  -3.452557724618e+01   1.862125722687e+02 
1  2.583022170739e+00   9.210061748942e+01  -1.228892249192e+02 
1 -2.207986611669e+02  -8.096452900092e+01  -1.022302055615e+02 
1  1.282811154182e+02   1.288248286615e+02  -1.664596547103e+02 
1  5.740581976580e+01   1.739446838354e+02   6.322348428157e+01 
1  1.392697474077e+01   1.980031363878e+02  -1.158674039319e+02 
1 -1.220702475795e+02  -9.920609427288e+01  -9.306819907207e+01 
1  2.294449861753e+02  -2.939072253091e+02   1.386792565411e+01 
8
Step 400
1  6.988577291892e+00  -2.794832253154e+01   1.235911246134e+02 
1 -2.939956301935e+01  -3.381305296771e+00  -2.870649111972e+01 
1 -1.184444561158e+02  -9.496367727655e+01  -8.123327373856e+01 
1  5.553102244937e+01   9.483165007945e+01  -8.854061496360e+01 
1  8.394344035058e+01   7.756556979780e+01  -3.329584213020e+01 
1  2.945775134989e+01   1.139153818165e+02  -7.794705701246e+01 
1 -1.078426028271e+02  -6.501198981526e+01  -3.336962361219e+01 
1  1.343098783788e+02  -1.585768078412e+02   2.003181954025e+01 
8
Step 500
1  2.791965894280e+01  -3.343168528359e+01   7.478073566411e+01 
1 -4.952773167548e+01  -7.750802324294e+01   2.629173856673e+01 
1 -2.758447633439e+01  -1.218059729752e+02  -8.163560490000e+01 
1  2.820131142121e+01   5.159389377817e+01  -6.990250780456e+01 
1  7.087238526368e+01   5.892480818610e+01  -3.249199856829e+01 
1  5.290776317264e+01   4.097162780444e+01  -4.641737583398e+01 
1 -4.196254750954e+01  -4.812702013364e+01   2.291641972763e+00 
1  5.081018812168e+01  -3.619045247708e+01  -6.357822146493e+00 
8
Step 600
1  5.078970919915e-01  -3.756928648973e+01   5.422760257849e+01 
1 -1.607467450325e+01  -6.261070923327e+01   2.239580753978e+01 
1 -1.471638661962e+01  -9.877972769413e+01  -7.530621312788e+01 
1 -1.696355288297e+00   2.199533665988e+01  -6.642427498718e+01 
1  3.193774823332e+00   5.875443224937e+01  -1.244341030699e+01 
1  1.490983031290e+01   1.751349638516e+01  -2.979372778126e+01 
1  1.088555805203e+01  -3.409482649314e+01   1.882886352141e+01 
1 -1.985296118891e+01   5.027001814997e+01  -1.913159818690e+00 
8
Step 700
1 -2.901922194731e+01  -3.897448427856e+01   6.059217049847e+01 
1  1.975584413839e+01  -3.998507434735e+00   1.152535360785e+00 
1 -1.911863955771e+01  -5.202459034927e+01  -4.072512229875e+01 
1  1.858600669474e+01   9.297657366858e+00  -6.766172407375e+01 
1 -2.297232736532e+01   4.406106852518e+01  -1.872670210978e+01 
1 -2.067252971136e+01   2.842751709330e+01  -2.050100016748e+00 
1  6.243878288861e+00  -1.399953467335e+01   1.106964134615e+01 
1 -3.479697303949e+01   4.950740338491e+01  -3.865071790602e+00 
8
Step 800
1 -1.966648013642e+01  -4.156625092865e+01   5.288660927787e+01 
1  4.436574978230e+01   3.926911063483e+01   1.493330311979e+01 
1 -1.711882235409e+01  -7.597278789088e+00  -1.644902609261e+01 
1  5.195973166016e-01  -3.181453635522e+00  -4.720840823632e+01 
1 -1.183041524337e+01   2.908176988153e+01  -3.033944428668e+01 
1 -5.266748333063e+00   3.781243793476e+01   1.040541798864e+01 
1  1.995376992624e+01  -1.494802886234e+00  -7.662770580525e+00 
1 -4.765205632953e+01   2.151034349335e+01  -4.644722558640e+00 
8
Step 900
1 -3.002887291973e+01  -4.634743006127e+01   4.900782912159e+01 
1  2.930027058838e+01   3.574372540427e+00   1.442193494594e+01 
1 -4.980271488980e+01  -2.508111796104e+01   2.257113051382e+00 
1  2.377210207482e+00  -1.559319772628e+01   6.082191290162e+00 
1 -1.067989542955e+01   2.968207085201e+01  -3.805240283243e+01 
1  2.629376455378e+01   5.180283666676e+01   1.873799303297e+01 
1  2.609673949520e+01  -9.723999284027e+00  -2.251474831401e+01 
1 -4.216468285636e+01   6.435600634624e+00  -2.146177381846e+01 
8
Step 1000
1 -1.155923096108e+01  -5.904991488122e+01   6.446583221879e+01 
1  1.145969668508e+01   1.574948350247e+01   2.533558955295e+01 
1 -4.112198255942e+01  -6.411346863319e+01  -1.285078759529e+01 
1 -1.692650179818e+01  -1.194142701401e+01   1.159122600044e+01 
1 -3.016913346876e+01   1.889011029596e+01  -5.694247047442e+01 
1  5.184816588449e+01   5.471013231189e+01   1.253533703544e+01 
1  1.893534721379e+01  -2.059282530193e+01  -2.520301298403e+01 
1 -5.210219656554e+01  -3.918951097374e+00  -4.035678223655e+01 
8
Step 1100
1  3.165245621641e+01  -2.581029006416e+01   6.731242165528e+01 
1 -9.369112360506e+00   2.424100370842e+01   2.617235606589e+01 
1 -1.931351897719e+00  -6.666746901377e+01  -1.032240228595e+01 
1 -2.435106757423e+01   2.096341820716e+01   2.722063315222e+01 
1 -2.829807312212e+01   8.079973782977e+00  -6.111116196292e+01 
1  5.564661733457e+01   7.856053809601e+00   3.698119706851e+00 
1 -9.465797891201e+00  -1.207965699644e+01  -5.041704797005e+01 
1 -7.250027409606e+01   5.442351107287e+00  -5.165700915930e+01 
8
Step 1200
1  3.125311182272e+01  -5.210671759892e+00   6.227386658459e+01 
1 -7.664593429535e+00   1.658778014966e+01   1.322560769619e+01 
1 -3.809049957442e-03  -3.792497029348e+01  -2.404967495509e+01 
1 -2.740162842178e+01  -4.104914225219e+00   1.067091772463e+01 
1 -4.842213477296e+01  -6.795275757367e+00  -4.331626173401e+01 
1  1.872677089426e+01  -2.019105310916e+01  -9.862184979387e+00 
1  1.281256197864e+00   3.114901254148e+01  -4.299202944511e+01 
1 -9.115635326376e+01   2.091504198919e+01  -3.832571884354e+01 
8
Step 1300
1  1.025960154148e+01  -1.636398212450e+01   7.910838815368e+01 
1 -2.665278701555e+01   6.433669444063e+00   1.643237583544e+01 
1 -6.553518359875e+00  -1.541456396912e+01  -2.771212575709e+01 
1 -1.087310027763e+01  -4.446672292764e+01   5.883709027796e+00 
1 -5.050230427891e+01   2.011870406604e+01  -2.950407457213e+01 
1 -2.306169541329e+01  -1.554722001546e+00   1.781744115045e+01 
1  4.108959330038e+01   5.832084618432e+01   4.482434201724e+00 
1 -5.890992797626e+01   2.195156552354e+01   3.154742550691e+00 
8
Step 1400
1 -7.457246299048e+00   1.982000862952e+01   7.187611961666e+01 
1 -4.242931984307e+01   1.177291280094e+01   3.625666373574e+00 
1 -5.542240403774e+00  -1.161163853931e+01  -3.002249790179e+00 
1 -1.583313053123e+01  -1.731235650469e+01  -2.847554436644e+00 
1 -2.106656943699e+01   4.257556684349e+01   1.392427376611e+01 
1 -1.071573943587e+01   1.251997013418e+01   7.175009231323e+00 
1  4.687614419346e+01   5.524558530663e+01   3.650687047033e+01 
1 -1.068476660197e+01  -8.193753057085e+00   1.171984153437e+01 
8
Step 1500
1 -1.675098055512e+01  -1.987511258708e+01   1.001922742109e+01 
1 -4.640365146984e+01   4.262091293031e+00   5.380081788656e+00 
1 -2.044372189463e+01  -3.114105269021e+01  -1.254396460087e+00 
1 -8.764962557533e+00   3.141310709502e+01  -7.113816189044e+00 
1 -9.613722200863e+00   4.531302303654e+01   3.468012971941e+01 
1 -1.083047959951e+01  -1.261086436959e+01  -1.705095030130e+00 
1  4.113563020156e+01   3.444162432456e+01   5.292686200409e+01 
1  1.644011195388e+01  -1.777406563324e+01   3.650750501242e+01 
8
Step 1600
1 -2.354680808565e+01  -4.933139263050e+01   6.908007342863e+00 
1 -2.296147108988e+01  -3.853923603560e+01   6.830423830841e+00 
1 -1.506414905878e+01  -6.374319995883e+01  -1.551662586241e+01 
1 -2.097809844813e+01   1.985585827586e+01  -2.138553625231e+01 
1 -5.457939956626e+01   2.043131534463e+01   2.295146986716e+01 
1 -4.476349058606e+01  -2.629668018847e+01   8.964624030016e+00 
1  5.117479048624e+01   1.690695280798e+00   5.565787580923e+01 
1 -1.666892078626e+01  -2.178140612416e+01   2.642193832582e+01 
8
Step 1700
1 -3.259565642130e+01  -4.708127353184e+01   3.961552966100e+01 
1  2.254383228066e+01  -5.316205933152e+01   4.293709508981e+00 
1 -5.527930013427e+00  -7.842546257723e+01  -1.192354717429e+01 
1 -2.858978470813e+01   1.851523173741e+00  -1.882526953060e+01 
1 -6.761276339643e+01  -3.048462853155e+00   3.549442200887e+00 
1 -7.703166786082e+01  -3.226675437703e+01   2.750111964637e+01 
1  5.173924026291e+01  -1.708534164727e+01   6.617820571727e+01 
1 -6.166257313174e+01  -6.336884183981e+01   7.933214819900e+00 
8
Step 1800
1 -1.003137361688e+01   4.523729844115e+00   5.492358987057e+01 
1  5.078683238180e+01  -7.280465425477e+01   2.688580839123e+01 
1  8.621492992813e+00  -7.049786356854e+01  -1.438687443877e+01 
1 -3.939030433041e+00   2.727325954645e+01  -1.183155819722e+01 
1 -2.296034964017e+01  -3.113647373016e+00  -2.221878314225e+01 
1 -6.421942885286e+01  -3.278740382408e+01   3.091334180830e+01 
1  5.070589300732e+01  -9.667710195610e+00   4.302494367859e+01 
1 -6.000861533381e+01  -5.063895594970e+01   7.859774068228e+00 
8
Step 1900
1  3.375316354762e-01   3.971622351200e+01   5.569572813523e+01 
1  3.597846564904e+01  -5.917095085979e+01   1.614675924461e+01 
1 -3.347075195684e+00  -5.011954227268e+01   5.002593069871e+00 
1  3.639702824368e+01   2.294046133346e+01  -1.284078284520e+01 
1  5.731756282021e+00   2.414421279671e+01   8.409037838284e+00 
1 -3.722908402120e+01  -1.727547901126e+01   1.064264564494e+01 
1  2.952531229546e+01   1.778240200493e+01   1.577571725872e+01 
1 -2.612823328010e+01   8.252344865668e+00  -2.993836642784e+01 
8
Step 2000
1 -4.441646555235e+01   4.272748035922e+01   3.172498537963e+00 
1  1.114815333745e+01  -4.100501974768e+01  -4.575072432679e+01 
1 -1.526832448653e+01  -3.113365325927e+00   2.951075610936e+01 
1  2.977084782442e+01   1.481674644152e+01  -3.549416399033e+01 
1 -1.803580911058e+01   6.063564920022e+01   3.043251616192e+01 
1 -4.283803570452e+01  -3.606552574301e+01   8.445222882069e+00 
1  1.425047230528e+00   5.432860966396e+00   1.912630541155e+00 
1  9.376817157312e+00   8.008252351432e+00  -2.681137344320e+01 
8
Step 2100
1 -3.436415009292e+01   2.428498258098e+01  -2.854584538396e+01 
1  2.321568645668e+00  -6.553074094215e+01  -8.088158252349e+01 
1 -2.077152816966e+01  -2.630765250852e-01   4.303712684105e+01 
1  1.816527295386e+01   4.687243161773e+01  -6.675578722829e+00 
1 -5.999886850262e+01   4.261823895581e+01   3.227731639501e+01 
1 -3.750121411621e+01  -3.998881001854e+01  -1.807229269125e-01 
1 -1.235019063812e+01   4.340186912133e+00   1.715364273407e+01 
1  3.597390777737e+01  -1.975414765477e+00  -7.847589117554e+00 
8
Step 2200
1 -6.759938399875e+00  -1.792465888534e+01   4.256448480322e+00 
1  1.542718960209e+01  -8.286432961636e+01  -6.895087132047e+01 
1 -9.947120972293e+00  -7.672225457323e+00   7.291221675808e+00 
1  1.501736333560e+01   8.410785503535e+01  -1.147061756141e+01 
1 -6.556608014353e+01   4.405793761390e+01   6.157074270799e+01 
1 -2.846278923422e+01   5.934699703662e+00  -7.531435068740e-01 
1  1.721828334221e+01  -2.640986099720e+00   4.165035590641e+01 
1  3.715367336531e+01  -1.809330054670e+01  -2.485864564592e+01 
8
Step 2300
1 -7.068837806684e+00  -2.663936225738e+01   2.564140530266e+01 
1  2.870567777145e+01  -7.154668257022e+01  -6.150249727319e+01 
1  1.521238947577e+01  -1.956236512494e+01  -3.858026256328e+00 
1  8.927500867989e+00   4.503075705264e+01  -3.546313505633e+01 
1 -3.923138556839e+01   5.609531530232e+01   2.955863638667e+01 
1 -4.146813754706e+01   3.607633440127e+01   9.479522176543e+00 
1  1.973525490551e+01   2.150373908788e+01   1.643530903875e+01 
1  2.291879874379e+01  -5.707906328697e+01  -1.366378151439e+01 
8
Step 2400
1 -1.856708402115e+00  -3.254088936647e+00  -8.576969263726e+00 
1  8.878511288630e+00  -5.398683179222e+01  -3.866654188255e+01 
1  9.994111531307e+00  -1.697947547483e+01  -1.492457080925e+00 
1  2.025651196188e+01   3.442459115417e+01  -1.756172595109e+01 
1  1.185080144700e+01   4.795531918543e+01  -1.538340051880e+01 
1 -2.426866253185e+01   5.845924899450e+01   3.911546363057e+00 
1  2.500150397761e+01   2.156053642109e+01   1.764974141858e+00 
1 -1.330587585197e+01  -5.283243920564e+01  -1.037966139273e+01 
8
Step 2500
1 -1.283438364760e+01  -1.665494187122e+01  -1.063249471934e+01 
1 -1.377837233022e+01  -6.837142429432e+01  -3.439592538578e+01 
1 -9.116377296604e+00   4.143814152667e+00   1.689817224099e+01 
1  2.796167634395e+01   2.295097077893e+01   6.123224814994e+00 
1  2.875647321229e+01   3.051375228327e+01  -2.751374314356e+01 
1 -4.119084665152e+01   6.369770180786e+01  -2.690030329901e+01 
1  6.172169636200e+01   1.590041130230e+01  -8.722835253209e+00 
1  1.429429117674e+00  -3.059946361721e+01  -4.006473325387e+00 
8
Step 2600
1 -2.233140713928e+01  -2.852098505701e+00   2.600922151043e+01 
1 -3.665522188544e+00  -7.288177182810e+01  -9.173392486628e+00 
1 -3.450015916244e+01   5.848976382536e+00   3.562375706682e+01 
1  6.597757756156e+00   2.268334015055e+01  -1.413207900723e+01 
1  4.867853076452e+01   2.433896290285e+01  -2.193096144606e+01 
1 -4.972128358125e+01   5.943029532149e+00  -4.426027432138e+01 
1  5.494140131699e+01   2.007645325215e+00  -3.095158932171e+01 
1 -1.040372345552e+01  -4.010432355023e+01  -1.054385078385e+01 
8
Step 2700
1 -4.101345630210e+01  -1.523913700470e+01   5.449675564571e+01 
1  7.738089426625e+00  -6.965690958317e+01   2.219681736860e+01 
1 -2.394100537221e+01  -9.051919093933e+00   3.200970133589e+01 
1 -5.435215348292e+00   5.753943577198e+00  -2.758505391197e+01 
1  7.929864119815e+00   9.735388058794e+00   3.369131243265e-01 
1 -4.185964359829e+01  -3.614873923421e+01  -3.776763262206e+01 
1  6.695781307621e+01  -9.049726249183e+00  -4.422041150654e+01 
1 -1.938913876992e+01  -3.820723964640e+01   1.814447714415e+01 
8
Step 2800
1 -5.127797644227e+01  -8.100063439459e+00   4.115844726091e+01 
1  1.558353886308e+01  -4.524316487123e+01   1.076406659656e+01 
1 -1.376485127479e+01  -6.005911768773e+00  -8.014669981022e+00 
1 -7.138324615642e+00   9.359631580478e+00  -2.903134322271e+01 
1 -6.087942963358e+00   1.395001320968e+01   7.335041146550e+00 
1 -5.152273485781e+01  -1.836865928473e+00   1.984665011965e+01 
1  2.343827520351e+01   2.167094145530e+01  -2.925854616987e+01 
1 -4.857132630605e-01  -5.473902522219e+01   3.332707527680e+01 
8
Step 2900
1 -3.618984483569e+01  -6.754764248492e+00   4.132503404201e+01 
1  4.933467299138e+01  -3.522356448256e+01   3.330778082504e+01 
1  1.741250534391e+01   1.969352758081e+00  -4.811571531142e+01 
1 -2.515834190399e+01   9.710081189422e+00  -3.907850159100e+01 
1  1.011443011009e+01   1.036077213068e+01   3.072051938986e+01 
1 -3.206023691968e+01   3.967000362007e+01   3.068119378033e+01 
1 -8.368165109199e+00  -2.277187136316e+01  -8.558382898029e+00 
1  2.142493104780e+01  -8.143042557888e+01   2.119603815387e+01 
8
Step 3000
1 -3.371752250001e+01  -1.413385951407e+01   4.641076180647e+01 
1  3.912063348905e+01  -3.077598674073e+01   4.399903494031e+01 
1  3.929151575003e+01   1.687215601207e+01  -2.919868971813e+01 
1 -8.348453933571e+01   1.721251874552e+01  -3.081961601272e+01 
1  1.429619972817e+01  -1.178107554437e+01   2.983233310123e+01 
1  1.157926753604e+01   4.338795532006e+01   9.213055696462e+00 
1 -9.221767990296e+00  -4.250395332052e+01   2.245780160818e+01 
1  1.826214586165e+01  -3.735359598959e+01  -6.346498292641e+00 
8
Step 3100
1 -1.745967911653e+01  -3.680302584690e+01   4.044164622998e+01 
1  1.972498535634e+01  -3.697641118731e+01   3.906757816525e+01 
1 -1.296427102047e+00   1.556419352999e+01  -1.495561083376e+01 
1 -8.551688196993e+01   3.975997644150e+01  -1.831263067624e+01 
1  2.037990791186e+01  -4.423886402977e+01   2.306926340504e+01 
1 -8.770236683225e-01   1.700263912797e+01   2.891183427865e+01 
1  4.023785948871e+00  -4.923150933317e+01   3.089771246112e+01 
1  3.506463560278e+00  -4.285562841436e+01   1.344699675810e+01 
8
Step 3200
1  2.089994263190e+01   1.739865436540e+01   2.891844277324e+01 
1 -2.267866041947e+00  -4.157557032589e+01   3.304521145292e+01 
1 -2.031774734581e+01  -7.234485048698e-01  -1.337865294775e+01 
1 -5.718926660039e+00   5.099873833324e+01  -1.060336305203e+01 
1  1.897610302353e+01  -3.817166445798e+01   2.971368010362e+01 
1 -1.102742545195e+01   1.638794028890e+01   3.266883303164e+01 
1 -1.547935586457e+01  -2.626845161381e+01   4.508437020486e+01 
1  8.501467860539e-01  -1.607382326281e+00   2.034631259454e+01 
8
Step 3300
1  4.661413428849e+01   1.066186455737e+01   1.953820769769e+01 
1 -2.903081815159e+01  -5.448372785059e+01   3.723354101686e+01 
1  6.211671137735e+00  -1.754543822303e+01  -2.449874672228e+01 
1 -6.876256089715e+00   3.169672049563e+01  -1.992549939381e+01 
1  1.553746793101e+01  -2.789190121157e+01   5.977473216544e+01 
1 -3.266460977701e+01   7.657910762823e+00   1.746777060259e+01 
1 -1.094254895629e+01  -2.828520477433e+01   5.287056205676e+01 
1  1.624791904591e+01   1.407976974325e+01  -3.033486095248e+00 
8
Step 3400
1  2.721808500877e+01   1.607448680880e+01   3.692612421831e+01 
1 -2.985203203982e+01  -7.476781315759e+01   2.185029102489e+01 
1  5.844169364781e+01  -1.517678884574e+01  -3.356943320844e+01 
1 -3.627403571480e+00   1.279708476322e+01  -2.425776301055e+01 
1 -2.670595485802e+01  -2.077816330661e+01   6.474889800531e+01 
1 -3.373418783712e+01   4.066321527801e+01   1.183388449029e+01 
1 -5.770666156552e+00  -2.092804350233e+01   4.625310585180e+01 
1  3.251119398638e+01   1.953422062897e+01  -3.229949624810e+01 
8
Step 3500
1 -1.354066207598e+00   1.860624406348e+00   1.408174208312e+01 
1 -1.895014410278e+01  -5.692211540313e+01  -8.414583195278e-01 
1  5.081303757377e+01  -1.997849125142e+01  -4.606131767470e+00 
1  5.598287611005e+01  -4.303993940697e+01  -5.654315002291e+01 
1 -1.608324318698e+01   2.929012148225e+00   2.952061081699e+01 
1 -2.556089721435e+01   5.686876380499e+01   7.453487750030e+00 
1 -6.264404934678e+00  -3.573700174359e+01   4.166658484698e+01 
1  1.777204402327e+01   2.096332880829e+01  -1.557677232859e+01 
8
Step 3600
1 -8.852490856768e+00   1.049944162349e+01  -2.659036707760e+01 
1  2.448971923214e+01  -6.618191657010e+01  -2.582569978712e+01 
1  2.550210763382e+00   1.044116954009e+01   2.002968616330e+01 
1  6.722026431392e+01  -7.353296713109e+01  -6.639832378682e+01 
1  4.426194602319e+00  -1.644599455015e-01  -3.525276547821e+00 
1 -1.208394652855e+01   4.747073883810e+01  -7.372649107913e+00 
1 -6.494861828426e+00  -3.216686695037e+01   5.375784366646e+01 
1  1.082882641447e+01   1.262526292395e+01  -1.942176549822e+00 
8
Step 3700
1 -5.010433859766e+00   1.729057451474e+01  -3.118264324309e+01 
1  1.063166174983e+01  -4.716853512449e+01  -1.050062005298e+01 
1 -1.821256695159e+01   1.458519728370e+01   2.219325112098e+01 
1  3.098679860985e+01  -6.304016612766e+01  -4.025037670737e+01 
1  5.476543738867e+01   9.999417926276e+00   2.351283788338e+01 
1 -5.935328854061e+00   4.180775427780e+01  -6.581544877742e+00 
1  5.945550519577e+00   1.002313176156e+01   3.771736013992e+01 
1  1.964282178824e+01  -5.988045966182e+00  -1.204766208940e+01 
8
Step 3800
1 -1.525062427706e+01   4.803797677007e+01  -3.743306847399e+01 
1 -1.928328719972e+01  -2.646268863157e+01  -2.344602273924e+01 
1 -5.068594090063e+01   4.016473522648e+01   1.182752341454e+01 
1 -1.563224400532e+01  -7.687209643887e+01  -3.542856962707e+01 
1  4.740710813693e+01   4.155702765353e+00   3.024102890304e+01 
1  1.051147024118e+01   2.913485735163e+01   1.529008614449e+01 
1 -9.097391168575e+00   3.987676225326e+01   1.446678624838e+01 
1 -1.115991770254e+01   1.589146438662e+01   1.480686203298e+01 
8
Step 3900
1 -3.705717967641e+01   7.897870906192e+01  -3.720315583521e+01 
1  1.196486381074e+01  -1.547450885616e+01  -4.371337970598e+01 
1 -5.781766121788e+01   1.638478261883e+01   2.021663675898e+01 
1 -1.329373060475e+01  -6.654268598952e+01  -2.485791344856e+01 
1  3.242129780611e+01  -2.405565516077e+01   3.404845478751e+01 
1 -3.089966122015e+00   2.597438949700e+00   3.240055746885e+01 
1 -1.561246803955e+01   7.181354345720e+01  -6.061350755423e+00 
1 -5.053091998798e+01   2.109464947284e+01   2.834307590878e+01 
8
Step 4000
1 -2.662209869835e+01   4.657063815259e+01  -1.721302813273e+01 
1  1.508319521597e+01  -1.887103164027e+01  -3.516969805908e+01 
1 -4.714007836012e+01  -1.452691342667e+01   3.011410938135e+01 
1 -3.448282577056e+01  -4.796959409935e+01  -2.171290344642e+01 
1  1.274660327321e+01  -2.044599648259e+01   4.632594578248e+01 
1 -2.423549551136e+01  -3.138214150620e+01   1.659842323614e+01 
1  8.496384445705e+00   6.938627649629e+01  -3.808574018752e+01 
1 -8.877287212976e+01   8.471710023353e+00  -1.193813376912e+01 
8
Step 4100
1 -2.188492753642e+01   4.255193311569e+00   2.033520083539e+01 
1 -1.327233302994e+01  -4.058981899617e+01  -9.587091297250e+00 
1 -2.520451077522e+01  -1.163401785629e+01   3.086383511721e+01 
1 -4.328277291211e+01  -3.598768029442e+01  -1.919348465752e+01 
1  3.292523184694e+00   6.918679931957e+00   3.559859035774e+01 
1 -2.361561279050e+01  -4.907372009456e+01  -1.887556681100e+00 
1  3.401156913370e+01   7.447102344197e+01  -1.861313546182e+01 
1 -8.027272308373e+01  -1.521288730105e+01  -1.784891743567e+01 
8
Step 4200
1 -5.150916557612e+01  -7.579870605241e+00   6.800435152188e+01 
1 -3.910717433178e+01  -7.448702467967e+01  -3.978437064130e+00 
1 -1.204708541406e+01  -3.608814414627e-01   4.039647891578e+01 
1 -4.337274225329e+01  -3.573184906717e+01  -2.628387314928e+01 
1  1.960550607791e+00   2.493187597392e+01   1.843970564122e+01 
1  4.570068227179e-01  -7.784510570224e-01  -3.102401635953e+01 
1  3.118714550719e+01   7.153549839348e+01  -1.913987818591e+01 
1 -4.276543575715e+01  -1.931563990040e+01   1.815185951888e+01 
8
Step 4300
1 -7.653616137664e+01  -5.604231656558e-01   7.463224407545e+01 
1 -3.408371538201e+00  -6.281248536361e+01   5.079891278063e+00 
1 -1.299597118124e+01   9.896266816352e+00   3.496352710325e+01 
1 -1.713735681616e+01  -2.435190811573e+01  -3.019052933041e+01 
1  1.857673321668e+01   2.976909932090e+01  -9.686622130784e+00 
1  4.407480767564e+01   2.241986969501e+01  -5.574615818937e+01 
1 -1.293085370692e+00   6.416560630124e+01  -1.566641487913e+01 
1 -3.564691005554e+01  -2.864248677141e+01   3.016390574583e+01 
8
Step 4400
1 -8.493832844306e+01  -2.164099933828e+01   6.142097966495e+01 
1 -1.246850636402e+01  -2.375758474602e+01   7.929878154699e+00 
1  1.523064484954e+01   6.555759460518e+00  -2.757880437804e+01 
1 -1.496523161121e+01  -3.136791154032e+01  -3.838838541548e+01 
1  2.942488513858e+01   3.295749924239e+01  -7.956734184225e+00 
1  4.215316578404e+01   4.591643025059e+01  -3.668816042324e+01 
1 -1.551313919550e+00   4.382589225567e+01  -2.483101487867e+00 
1 -4.478548748866e+01  -5.775718803813e+01   4.286290795696e+00 
8
Step 4500
1 -4.904909751141e+01  -5.338391026617e+01   2.457180025807e+01 
1  6.844216996385e+00  -9.261691054509e+00   1.218565308932e+01 
1 -5.915087623969e+00  -4.273874901859e+00  -5.187985130402e+01 
1 -1.954289513916e+01  -1.022311285540e+01  -3.179050261816e+01 
1  5.174914652254e+01   6.578438246280e+01   4.554880034610e+00 
1 -3.627623824610e+00   6.960969159211e+01   9.999789230676e+00 
1  2.561827063977e+01   3.477447986971e+01  -8.697256258800e-01 
1 -2.960597138409e+01  -7.713176000984e+01  -3.381158093080e+01 
8
Step 4600
1 -1.903310320961e+01  -7.185236927926e+01  -1.005319971683e+01 
1 -1.861431342652e+01  -1.038066428779e+01   3.130461497978e+01 
1 -1.349386338272e+01  -2.072600155929e+01  -5.728739868583e+01 
1  2.690430470612e+00  -1.295990618175e+01  -2.162460619112e+01 
1  7.628122218994e+01   7.641997973459e+01  -1.301622689868e+00 
1 -4.140465804771e+01   4.225985221493e+01   2.669742047250e+01 
1 -5.271529176096e+00   3.754214167107e+01  -2.489333960334e+01 
1 -2.560143877978e+00  -8.115979076648e+01  -2.287989722124e+01 
8
Step 4700
1  4.221854814887e-01  -4.775376241155e+01  -1.929680523068e+01 
1 -8.215733565295e+00  -1.851428215390e+01   4.190591178151e+01 
1 -1.303034892083e+01  -3.728777939716e+00  -4.200317831793e+00 
1  1.795161161076e+00  -9.516639474979e+00  -3.234687834640e+01 
1  4.339298357483e+01   7.328054943973e+01  -2.526153906733e+01 
1 -2.983993849786e+01   5.096743427694e+01   4.167674222390e+01 
1 -2.246744560132e+01   3.520746860167e+01  -4.637253122835e+01 
1 -9.011636994471e+00  -9.996785173569e+01   1.854449903896e+01 
8
Step 4800
1  1.268320830230e+01  -2.824493342198e+01  -2.812510315920e+01 
1 -1.254822685629e+01  -4.974982994182e+01   4.577245254474e+01 
1 -3.166789516235e+01   4.754082641109e+01   1.821751322216e+01 
1 -1.135615717135e+01   1.444985975533e+01  -4.529970936510e+01 
1  2.725875629143e+01   6.730411163293e+01  -1.210034689442e+01 
1 -1.576675269022e+01   3.570422029876e+01   3.061183412293e+01 
1 -1.302758562052e+01   3.251263166342e+01  -7.075001009100e+01 
1 -2.062462544535e+01  -1.158163862414e+02   3.779945143890e+01 
8
Step 4900
1  2.074608784075e+01  -4.358557699476e+01  -2.223204043548e+01 
1 -1.573926143308e+01  -6.305146988267e+01   4.237389617121e+01 
1 -3.698836834376e+01   9.742914405775e+01   4.225825686509e+01 
1 -2.436306323592e+01   3.155586426293e+01  -3.241121849366e+01 
1  2.639643848075e+01   4.937380003237e+01   7.935890408088e+00 
1 -8.993640484709e+00   1.011469799771e+01   1.950187892890e+01 
1  5.951499971237e+00   3.155083503206e+01  -8.924835142386e+01 
1 -2.989875605684e+01  -8.156733680106e+01  -1.790786047492e+00 
8
Step 5000
1  4.497197084802e+00  -4.924728715294e+01  -9.671983979055e+00 
1 -2.552343925090e+00  -3.148522759418e+01   4.684021787575e+01 
1 -1.912270156772e+01   9.740236519516e+01   4.917066996676e+01 
1 -1.142799470247e+01   6.926440115808e+01  -1.411170107101e+01 
1  2.912780054198e+01   4.527165459658e+01   4.309791084266e+00 
1  1.995199267382e+01  -5.063485423144e+01  -2.064850437999e+00 
1 -2.228400691024e+01   2.091882413840e+01  -5.490337358401e+01 
1 -2.781937588567e+01  -1.063571277142e+01  -1.007787616797e+01 
8
Step 5100
1 -2.799316732413e+01  -3.743760892316e+01  -3.443156278029e+01 
1 -1.407402083440e+01   1.235589489853e+01   4.663332117298e+01 
1 -1.703680780638e+01   8.219936674359e+01   4.319815901072e+01 
1 -1.158404168424e+00   7.510274411486e+01  -2.287299194243e+01 
1  2.290071432046e+01   6.537623368426e+01   9.160708986179e+00 
1  3.275250159220e+01  -5.943696789598e+01   1.125116767499e+01 
1 -2.992229058151e+01   1.125030518444e+01  -2.541805859782e+01 
1  2.626707915364e+00  -6.135776619596e+00  -3.413878108851e+00 
8
Step 5200
1 -1.659808437181e+01  -4.772181679452e+01  -3.064815395595e+01 
1 -5.742923866288e+01   3.900266069506e+01   5.944149295684e+01 
1 -1.069164949120e+01   1.414595656713e+01   2.492029558320e+01 
1 -1.146372657716e+01   6.917991640150e+01  -1.705355060150e+01 
1 -5.522930148519e+00   5.327105234327e+01  -8.575835128657e-02 
1  6.744633147647e+00  -1.292118582696e+01   1.866633812435e+01 
1  2.012204966183e+01  -4.166681063045e+00  -4.015489191827e+01 
1  4.818078868295e+00  -2.721216182829e+01  -1.158687436460e+01 
8
Step 5300
1  3.415630659249e+01  -3.571788662110e+01  -1.078456897444e+01 
1 -5.919286423617e+01   4.216104425722e+01   7.353669467583e+01 
1 -8.425891533325e+00  -4.878620992194e+01   2.778973285879e+01 
1  1.738047228015e+01   3.179826984835e+01   7.049865674011e+00 
1 -2.551898282331e+01   5.759811821033e+00  -7.206189336008e+00 
1 -2.804563246659e+01  -5.239905462606e+00  -1.201362334060e+01 
1  4.394871211004e+01  -1.442783583562e+01  -6.777969462121e+01 
1 -2.795974797484e+00  -2.780240663320e+01  -2.715881760113e+01 
8
Step 5400
1  4.989550121077e+01  -5.343309269642e+01  -5.804149672129e+00 
1 -2.801192449294e+01   4.371950883239e+01   6.537785959789e+01 
1 -2.561906435461e+01  -1.766737411562e+01   3.017001567936e+01 
1  2.749740052546e+01   2.017633092745e+00   1.572211859300e+01 
1 -7.438844072010e+00  -1.842453951853e+01  -1.602332249509e+01 
1 -3.513225757742e+01   1.476039538349e+01   5.348709065851e+00 
1  4.587968111335e+01  -2.540699690240e+01  -3.585908862853e+01 
1 -3.037630675016e+01  -2.650256016280e+01  -1.331279560071e+01 
8
Step 5500
1  2.184516623167e+01  -5.526119689884e+01  -1.599507438642e+01 
1  1.646641476490e+01   4.682365661411e+01   5.759744725478e+01 
1 -3.109255841131e+01   3.862338399060e+01   3.452013165754e+01 
1  1.993274252509e+01  -1.643487689493e+01   5.770642551671e+01 
1 -1.732258749284e+01  -2.764774676353e+01  -4.382227938748e-01 
1 -4.195651590747e+00   3.150078340743e+01   1.802184196318e+01 
1  3.644228834028e+01  -5.749506629866e+01  -3.186289975849e+01 
1 -2.644608029346e+01  -5.160817790546e+01   7.007463558123e+00 
8
Step 5600
1  1.586315608857e+01  -7.685427809278e+01  -5.501766946831e+01 
1  1.562350133015e+01   2.431879587628e+01   1.497411761165e+01 
1 -1.227212095294e+01   6.772868617783e+01   2.324768392155e+01 