8
Step 0
1 -3.725609721510e+02   3.755376068281e+01   2.003144348063e+02 
1  2.702184259474e+02   1.940885871767e+02  -4.504086892699e+02 
1 -6.143886054221e+02   2.046284953525e+02  -4.887892839025e+02 
1  4.272190790357e+02  -2.304902992146e+01  -3.792784389004e+01 
1 -1.341709354384e+02   5.371985670023e+02   4.150598171875e+02 
1 -4.323687805359e+02   3.297703400286e+02  -6.487103398667e+01 
1 -5.531583529799e+02  -4.904936835904e+02  -6.399893603187e-02 
1  5.401589627151e+02  -6.116312495915e+02  -6.183126594955e+02 
8
Step 100
1 -3.103864253785e+02   3.487932383468e+01   1.688433355203e+02 
1  2.438257773768e+02   1.383116199680e+02  -3.875026779856e+02 
1 -5.382909231615e+02   1.116480172128e+02  -4.692392725310e+02 
1  3.615154782531e+02  -2.193479905624e+01  -4.923647338481e+01 
1 -6.259833393320e+01   4.692667838849e+02   3.091644836377e+02 
1 -3.687427941352e+02   2.719454487680e+02  -8.123712390102e+01 
1 -4.966406906110e+02  -4.235023028924e+02  -2.396765794346e+00 
1  4.278761794888e+02  -5.432441200826e+02  -5.542188750918e+02 
8
Step 200
1 -1.992234868401e+02   1.842140523679e+01   1.406142167685e+02 
1  1.767454682343e+02   4.989411172542e+01  -2.232936717656e+02 
1 -3.688938452877e+02  -2.232592780977e+01  -3.836655061038e+02 
1  2.496416682680e+02  -4.064565024238e+01  -7.503986865222e+01 
1  1.059966732319e+01   3.412686796330e+02   1.466964960984e+02 
1 -2.426396147239e+02   1.655471264543e+02  -6.935766152131e+01 
1 -3.924379355228e+02  -3.030697109393e+02  -6.168937626551e+01 
1  2.665770540900e+02  -4.162693232463e+02  -3.747193531317e+02 
8
Step 300
1 -1.144494848546e+02   1.079425131610e+01   1.146322305434e+02 
1  1.089113055740e+02  -1.873886670250e+01  -7.469830168642e+01 
1 -2.333309629204e+02  -1.034095800218e+02  -3.034744203471e+02 
1  1.488056683633e+02  -3.710415898215e+01  -8.850082413381e+01 
1  4.280086544607e+01   2.256044448550e+02   5.309261532892e+01 
1 -1.286165351848e+02   8.657814925175e+01  -5.485137513852e+01 
1 -2.923083629515e+02  -1.888594880908e+02  -9.531400092929e+01 
1  1.434127340010e+02  -3.029239788240e+02  -2.021489736257e+02 
8
Step 400
1 -5.692685887807e+01  -4.937656610638e-01   9.904697886893e+01 
1  6.277971982832e+01  -4.427416049831e+01  -5.976895682755e+00 
1 -1.392358347427e+02  -1.398052549193e+02  -2.122530689755e+02 
1  7.911513449236e+01  -3.735905875898e+01  -8.343637132312e+01 
1  3.443298847877e+01   1.729250752587e+02   9.110271983319e+00 
1 -8.554590555528e+01   3.011873188497e+01  -4.315197851551e+01 
1 -1.946416182606e+02  -9.205695623685e+01  -1.106892907535e+02 
1  8.694683278641e+01  -1.976204621744e+02  -8.329905121707e+01 
8
Step 500
1 -3.303396547879e+01  -2.415936103625e+01   8.510769520237e+01 
1  4.731166829983e+01  -4.562838942163e+01  -4.451137064271e+00 
1 -9.339430900039e+01  -1.366705365258e+02  -1.514556990788e+02 
1  2.927739225724e+01  -1.718853179743e+01  -6.893747640607e+01 
1  4.048041130107e+01   1.450053875597e+02  -1.434858227238e+00 
1 -8.297399290651e+01   2.390863114590e+00  -3.064969228297e+01 
1 -9.124819192492e+01  -5.490054202290e+01  -1.022619981960e+02 
1  4.687972451410e+01  -1.341453813351e+02  -1.818341866222e+01 
8
Step 600
1  3.231847553042e+00  -3.338607739288e+01   8.278304815891e+01 
1  3.713997339212e+01  -4.105972535411e+01  -2.386432413686e+01 
1 -6.862205164328e+01  -1.280305877365e+02  -8.255170751993e+01 
1 -2.481708039578e+01  -2.684625121392e+01  -9.308429417877e+01 
1  2.709216017757e+01   1.205653226478e+02   1.021606976710e+01 
1 -7.905469641353e+01  -1.104140778769e+01  -7.825098478905e+00 
1 -2.438254963028e+01  -5.876987059803e+01  -7.228593663864e+01 
1  2.810670569740e+01  -9.235773799586e+01   3.357464331629e+01 
8
Step 700
1  5.287442549635e+00  -2.728572579891e+01   7.580629162262e+01 
1  3.284397948808e+01  -3.223001611887e+01  -2.766135916373e+01 
1 -4.606834716744e+01  -9.341111185541e+01  -4.974228209250e+01 
1 -5.493685968528e+01  -2.366128397034e+01  -6.035666661241e+01 
1  5.406578461964e+00   1.099811603805e+02   9.135066587746e+00 
1 -5.329905495545e+01  -2.719224265453e+01   1.924228951358e+01 
1  2.494996781630e+00  -6.486274840022e+01  -4.480750163772e+01 
1  2.441492017151e+01  -6.470727365817e+01   5.584708093270e+01 
8
Step 800
1 -1.463896313313e+01  -3.005638144376e+01   5.102161859715e+01 
1  2.911814867223e+00  -1.836773847898e+01  -3.880320983067e+01 
1 -4.521000591895e+01  -5.810121963411e+01  -2.974652669974e+01 
1 -6.460741972803e+01   1.192882938226e+01  -2.234676836536e+01 
1 -6.548776838939e+00   1.026477694035e+02   2.323860274988e+01 
1 -5.697512796542e+01  -2.932888094069e+01   1.560807668851e+01 
1  2.184947278920e+00  -3.859338494681e+01  -5.660209019475e+01 
1  1.603166781803e+01  -7.671355600371e+01   6.212380880009e+01 
8
Step 900
1 -2.250272142512e+00  -2.539848746732e+01   4.932391002880e+01 
1 -9.491776183432e+00   1.216239589920e+01  -5.844508353164e+01 
1 -3.134585741085e+01  -5.320573435443e+01  -6.607103160418e+00 
1 -6.896156450803e+01   2.762120716622e+01   4.488597866344e+00 
1 -1.348352791622e+01   8.019172624648e+01   3.501922041615e+01 
1 -6.041374475880e+01  -2.212903694339e+01   6.581561412308e+00 
1 -2.176225763437e+01  -5.028176338121e+00  -5.805155171928e+01 
1 -1.045128180524e+01  -8.573142380155e+01   5.100455560171e+01 
8
Step 1000
1  8.715289488420e+00  -2.979839980157e+01   5.051966016825e+01 
1 -1.040514757178e+01   2.310366438635e+01  -5.162902820014e+01 
1 -1.448804650016e+01  -4.224289470134e+01  -7.284169851297e+00 
1 -4.892125718869e+01   3.421718021635e+01  -5.583966890403e+00 
1 -2.219559162424e+01   6.679543157152e+01   2.380740402598e+01 
1 -2.923935815158e+01   1.209778316512e+01  -1.709393688257e+01 
1 -2.524064255379e+01   9.609309686005e+00  -3.841571101826e+01 
1 -2.786906224713e+01  -7.096612724295e+01   2.441192590324e+01 
8
Step 1100
1  1.417786853419e+01  -4.761777864085e+01   4.131067006235e+01 
1 -4.532298470493e+00   2.546490462923e+01  -2.693802219610e+01 
1  4.264291421100e-01  -4.218282998681e+01  -1.212256489409e+01 
1 -3.457770367211e+01   2.374721017117e+01  -2.511904946547e+00 
1 -4.078109679611e+01   4.528298395566e+01   2.556305100580e+01 
1 -1.103290997465e+01   5.584025309402e+01  -2.605496094918e+00 
1 -1.498002479716e+01   3.866130034129e+01  -7.398486369297e+00 
1 -5.083158368571e+01  -4.320178182057e+01  -7.448464619288e-01 
8
Step 1200
1  5.923750135154e+00  -4.859721968147e+01   3.790441400688e+01 
1 -8.524175738298e+00   2.206933335000e+01  -1.556401933853e+01 
1  1.835144591096e+01  -3.097673128266e+01  -2.777040922461e+01 
1 -2.946593213785e+01  -1.982801252540e+00  -4.281257131850e+00 
1 -3.950059879735e+01   4.049130431060e+01   3.468067525616e+01 
1 -1.100176314522e+01   7.955481458344e+01   6.995993324536e+00 
1 -5.951974205992e+00   3.422676758199e+01   3.318207715470e+00 
1 -5.757587496610e+01  -1.762975748214e+01  -6.323687673629e-01 
8
Step 1300
1  6.600314911037e+00  -4.582393471988e+01   7.979176816259e+00 
1  1.465467877317e+00   3.280762474234e+01  -9.064555916830e+00 
1  3.073706720958e+01  -2.028521933817e+01  -2.869544854547e+01 
1 -3.342289303936e+01  -5.185659167397e+00   4.491082853814e+00 
1 -2.405895523043e+01   4.984550666206e+01   4.909118936028e+01 
1 -1.839626413198e+01   5.600023707034e+01   2.033107670248e+01 
1  1.132314340030e+00   1.093544461616e+01   1.429312476926e+01 
1 -3.824078614682e+01  -1.648579167749e+01  -9.376883870791e+00 
8
Step 1400
1  9.063807189283e+00  -4.214563631909e+01  -2.183141068018e+00 
1  1.397734001762e+01   2.949782555013e+01  -6.962149731135e+00 
1  3.339894582326e+01  -9.668529949891e+00  -1.470354348240e+01 
1 -3.567620378075e+01  -2.234521332997e+01   3.625188008360e-01 
1  5.969677609977e+00   5.131637622956e+01   4.224649234681e+01 
1 -1.555988925901e+01   3.419044306951e+01   3.166605532947e+01 
1  2.607037778400e+01   1.343889322279e+01   2.982269897107e+01 
1 -4.746675593916e+01  -1.738936159866e+01   5.829222440333e+00 
8
Step 1500
1  9.734000912840e+00  -4.009941707380e+01   1.322667976662e+01 
1 -6.648820445795e+00   3.909054423130e+01  -6.320361619150e+00 
1  2.007015050049e+01   2.160248272457e+01  -3.791056917859e+00 
1 -2.698507078228e+01  -3.212926051120e+01   2.035486948182e+00 
1  3.556068890717e+00   5.480818071995e+01   2.982943647214e+01 
1 -1.858409272891e+01   2.073351007473e+01   2.459669841548e+01 
1  3.104111368829e+01   2.009393162253e+01   4.463126787473e+01 
1 -5.362544372228e+01  -3.035352261300e+01   2.748210467488e+01 
8
Step 1600
1 -4.454780867056e+00  -2.957316863004e+01   3.122495978825e+01 
1 -2.035302821163e+01   3.306327730571e+01  -2.479105673873e+01 
1  1.676591134527e+01   1.367191051098e+01   9.112794071741e+00 
1 -2.868233325452e+01  -2.792912778764e+01   1.237973837090e+01 
1  1.851460138197e+01   4.158968539825e+01   1.543392984822e+00 
1 -2.066676838209e+01   4.301793877990e+00   1.047262102615e+01 
1  2.816272187411e+01   2.593594686866e+00   4.021925989288e+01 
1 -6.181551761078e+01  -2.419793589311e+01   2.114227258243e+01 
8
Step 1700
1  1.449379016077e+01  -1.974488876759e+01   1.446772140750e+01 
1 -3.235076615192e+01   1.493496317393e+01  -1.961598189803e+01 
1  4.703963144870e+01   1.258083903760e+00   2.745263860638e+01 
1 -2.771666985677e+01   1.459319535638e+00   2.754151812738e+01 
1 -8.926703191881e-01   4.032834042042e+01   1.161210770344e+01 
1 -1.924656654019e+01  -1.957232631711e+01   1.754158497540e+01 
1  2.180117706846e+01  -1.145302046396e+01   5.719617277711e+01 
1 -5.176895115816e+01  -5.571216651935e+00   8.449901051447e-01 
8
Step 1800
1  2.853187788309e+01  -3.708531763233e+01  -9.871401847214e+00 
1 -1.523480707844e+01   1.149453225347e+01  -4.087938263505e+01 
1  3.848552508302e+01  -2.144150409169e+01   2.036711032572e+01 
1 -2.093719805894e+01   1.721632256036e+01   4.267191635123e+01 
1 -4.211724502475e+01   2.909716254852e+01   2.624124992755e+01 
1 -2.370235976677e+01  -4.276825652604e+01   3.894068958140e+01 
1 -4.050537979092e+00  -1.324577294672e+01   5.549767005371e+01 
1 -4.003903680916e+01   8.977030064799e+00  -1.834233950870e+01 
8
Step 1900
1  2.937096761596e+01  -5.036561925155e+01  -9.143344277258e+00 
1  3.478472195841e+00  -1.088068270470e+01  -4.522147575540e+01 
1  3.232668034114e+01  -3.950605247266e+01   2.466687571056e+01 
1 -1.008547568416e-01   2.291928280426e+01   4.172636943980e+01 
1 -5.530931960707e+01  -5.599405737845e+00   3.168823954189e+01 
1 -4.163481601664e+01  -3.699729029688e+01   4.842550657755e+01 
1 -1.616249337533e+01  -4.768774205781e+00   3.786129432978e+01 
1 -2.927291587437e+01   2.088287442511e+01  -1.616022507289e+01 
8
Step 2000
1  8.633977397270e+00  -4.026314879381e+01   5.450777216395e-01 
1  2.982833007176e+00  -5.588502723222e+01  -1.776990607613e+01 
1  2.154700365297e+01  -2.967245932801e+01   3.153932299122e+01 
1  1.208015255893e+01   4.866021685132e+01   2.902177337565e+01 
1 -5.488530584552e+01  -2.947406887531e+01   3.159007197775e+01 
1 -6.136658392738e+01  -3.195303931198e+01   3.731682121646e+01 
1 -2.250979359822e+01  -4.864139517842e+00  -9.230350184633e-01 
1 -4.314178580960e+00   9.349828675284e+00   6.341982086301e+00 
8
Step 2100
1  9.727666007315e+00  -4.132928393499e+01   6.463017530361e+00 
1  2.226384123788e+01  -4.261757550749e+01   2.005294060073e+01 
1  5.805761428904e+00  -2.480333257297e+01   4.155055140558e+01 
1  1.797637717254e+01   5.872131267492e+01   5.743939209318e+00 
1 -5.484797496652e+01  -4.481393091270e+01   2.957526121545e+01 
1 -7.079733543966e+01  -1.029981524625e+01   1.982797737111e+01 
1 -1.233396725685e+01   1.035074202244e+01  -1.495823785030e+01 
1  1.360736885130e+01   3.252155782908e+00   1.813414426644e+01 
8
Step 2200
1  1.574262296762e+01  -2.794462685401e+01   1.832808490157e+01 
1  4.025437081325e+01  -2.154611895908e+01  -1.503021709275e+00 
1  1.546603894024e+01  -1.113741778996e+01   4.654935039212e+01 
1  3.329395494743e+01   3.904011284866e+01  -1.468859622373e+01 
1 -5.613646620071e+01  -3.596642671955e+01   2.237820992242e+01 
1 -8.228241669515e+01   1.860566374221e+01   1.980724040403e+01 
1  1.314075889481e+00   1.189261096832e+01  -4.574693457486e+00 
1  2.230366482747e+01   1.558796482540e+01   1.439759428778e+00 
8
Step 2300
1  1.046971759118e+01  -2.893882655677e+01   5.106715593600e+00 
1  3.588401957683e+01  -3.746667885153e+01  -3.301554507388e+01 
1  1.395804121132e+01   2.350360482048e+01   4.589427388752e+01 
1  3.296772443944e+01   2.588888301968e+01  -2.204661814400e+01 
1 -5.301596112456e+01  -3.696084638007e+01   1.812018698891e+01 
1 -5.405006224909e+01   4.710885559945e+01   6.134044618001e-01 
1  4.661933449330e+01  -3.586279552748e+01   9.726592494018e+00 
1  1.534064664331e+01   2.360097583138e+01  -3.836250031730e+01 
8
Step 2400
1  1.815931023661e+01  -1.514496745528e+01  -3.064709800055e+01 
1  3.103994289765e+01  -3.082067851080e+01  -6.613098685150e+01 
1  7.492155467420e+00   6.499859162608e+01   3.389858962019e+01 
1  2.985463752652e+01   8.190412310282e+00  -1.261152472071e+01 
1 -3.649592632810e+01  -2.737646156004e+01   1.317588848729e+01 
1 -3.682490956953e+01   4.351521588940e+01   8.192768837962e+00 
1  5.578909784430e+01  -8.488262382223e+01   1.316946167791e+01 
1  2.243226786728e+00   2.287683664705e+01  -4.953254449792e+01 
8
Step 2500
1  3.987661936257e+01  -9.074317038333e+00  -4.178162006378e+01 
1  1.677346065901e+01  -3.566462302984e+01  -5.723221127479e+01 
1  1.831784506966e+00   3.678555800844e+01   2.479891246240e+01 
1  2.885309729091e+01  -1.929934602867e-01  -2.154111331609e+01 
1 -2.893845407222e+01  -1.469570302898e+01   2.343692864618e+00 
1 -2.492929693157e+01   3.175442362195e+01  -5.398553035829e+00 
1  2.582334637322e+01  -1.086847536498e+02  -1.274081432232e+01 
1 -3.024182377437e+00   1.323973553693e+01  -2.410893147057e+01 
8
Step 2600
1  2.818182085904e+01  -3.964366785612e+00  -3.091894587675e+01 
1  1.686244892673e+01  -3.695937313365e+01  -6.450923511960e+01 
1  2.983430198705e+01   1.833213431604e+01   1.096249706151e+01 
1  5.842571746208e+00  -2.410434663246e-01  -3.569047517884e+01 
1 -9.438325784731e+00   5.783928189808e+00   1.405102633320e+01 
1 -2.094248296604e+01   2.390976844965e+01  -2.994296157435e+01 
1  5.416540959318e+00  -1.048513585426e+02  -4.258276946001e+01 
1 -1.445862657977e+00  -3.694717798436e+01   1.982202175248e+01 
8
Step 2700
1  8.551248411240e+00   2.504173435921e+00  -1.250994372167e+01 
1  2.826244557461e+01  -3.973422915829e+01  -5.214103232161e+01 
1  2.827908495095e+01   1.445561233031e+01   1.469548414337e+01 
1 -2.706608485191e+01  -1.861588907257e+01  -2.650010870331e+01 
1  2.508635722348e+01   2.677370646848e+01   2.686551346340e+01 
1 -1.018384472197e+01  -1.041952212431e+01  -3.840138986199e+01 
1 -1.545209864105e+00  -8.086371597741e+01  -4.518124029191e+01 
1  2.285001413372e+01  -5.788159921587e+01   2.445806964091e+01 
8
Step 2800
1  2.521162221519e+00  -1.547119786518e+01   5.894721139896e+00 
1  3.197303182095e+01  -2.954058199137e+01  -4.703502839157e+01 
1  2.801525875584e+01   1.263918974029e+00   2.003664138766e+01 
1 -5.149129303633e+01  -2.868898483946e+01  -1.650413501089e+01 
1  3.507078041990e+01   1.704153225074e+01   5.072890876683e+01 
1 -1.518075728294e+01  -3.178029765654e+01  -3.694676189400e+01 
1 -7.073888983768e+00  -4.338117008265e+01  -2.974535010744e+01 
1  1.877190630877e+01  -6.595454705688e+01   1.458100370818e+01 
8
Step 2900
1 -6.457499705010e+00  -2.899292640849e+01  -1.012012007962e+00 
1  2.111968288951e+01  -6.972524490309e+00  -3.040198639796e+01 
1  4.541363684689e+01  -3.372008951845e+00   1.289317211427e+01 
1 -6.198203798777e+01  -5.222275647312e+00  -1.841970099963e+01 
1  3.666205322989e+01  -9.459649722881e-01   4.572211483711e+01 
1 -1.992641019366e+01  -4.651693874853e+01  -3.166367468675e+01 
1  1.921148633758e+01  -1.737648217049e+01   2.730620821442e+00 
1  5.356164083261e+00  -7.138069712499e+01   1.973783356562e-01 
8
Step 3000
1 -1.769021023925e+01  -3.499154973440e+01   1.204686374570e+00 
1  2.178664159302e+01   4.345613873634e-01  -5.538278221733e-01 
1  3.249498328828e+01  -8.706845774917e+00   2.868464522634e+00 
1 -4.898773980057e+01   1.433619667379e+01  -3.897371895373e+01 
1  3.110852567787e+01  -1.461432792581e+01   5.082684487002e+01 
1 -6.586808235105e+00  -3.206244395856e+01  -2.509943018000e+01 
1  3.290729566079e+01   8.587222070638e-01   4.409748844266e+00 
1 -6.490751491930e+00  -6.253799054828e+01   1.448324704541e+01 
8
Step 3100
1 -1.445304753329e+01  -2.384463277426e+01   1.350005021320e+01 
1  2.115168653252e+01   1.346309460896e+01   2.863980411345e+01 
1  1.114317919809e+01   1.330354256448e+01   7.560193661957e+00 
1 -4.022248618405e+01   1.522121007406e+01  -3.082049465213e+01 
1  1.743905697132e+01  -1.687671876526e+01   3.670010127564e+01 
1 -2.808879625087e+00  -1.997301877519e+01  -2.193263599034e+01 
1  2.705051000926e+01  -5.974281496160e+00   2.271904952494e+01 
1  1.421777207734e+01  -3.107692047838e+01   2.413632267756e+01 
8
Step 3200
1 -2.229947687929e+01  -1.827812251711e+01   2.739451400242e+01 
1 -7.377992682118e+00   8.168173005301e+00   5.551471752627e+01 
1  7.357913023399e+00   3.871420996705e+01  -6.389368100481e-01 
1 -1.586869519339e+01  -8.557236842048e+00  -2.306027026794e+01 
1  1.646977206156e+01  -1.460144435179e+01   2.026507792321e+01 
1 -5.794189586946e+00  -2.373553304146e+01  -3.304311798030e+01 
1  2.369168360454e+01   4.315900751827e+00   3.374269528463e+01 
1  4.641319573343e+00  -8.309383993902e+00   2.945481614296e+01 
8
Step 3300
1 -5.226993452686e+00  -3.561809469431e+01   3.052829621798e+01 
1 -1.269304984774e+01  -3.667460145011e+00   6.122272715797e+01 
1 -1.557762265367e+01   4.965010734761e+01  -7.494760387030e+00 
1  1.388168140909e+01  -2.043280332565e+01  -3.740133621083e+01 
1  4.667275240646e+00  -1.828043592734e+01   1.927992435549e+01 
1 -1.139974347110e+01  -5.235837541375e+00  -1.062403991596e+01 
1  1.732822799225e+01  -8.002710676860e+00   4.768694158414e+01 
1 -6.147106089464e+00  -5.545083627702e+00   2.009843997257e+01 
8
Step 3400
1  2.689031403538e+01  -4.306588113134e+01   8.747407706461e+00 
1 -8.733091217010e+00  -7.434288010248e+00   5.347133093515e+01 
1 -4.503228498616e+01   2.638804441193e+01  -2.084923191728e+01 
1  2.934766659230e+01  -9.604119273228e+00  -4.356860313975e+01 
1 -1.516516752006e+01  -1.140928159942e+01   2.067261563110e+01 
1 -3.779024650721e+00   3.460397937694e+01  -4.936228662863e+00 
1  8.110610023183e+00  -6.811300836246e+00   7.394350170264e+01 
1 -1.054783249060e+01  -3.687232485651e+00   2.221194130724e+01 
8
Step 3500
1  8.800783030437e+00  -1.586505624635e+01  -2.464672950184e+01 
1 -9.566340131546e+00  -9.251926846348e+00   4.745383868121e+01 
1 -4.573001620838e+01   5.574889465554e+00  -1.648087152331e+01 
1  2.535230379286e+01  -5.142678571271e+00  -3.122597754558e+01 
1 -1.227139024976e+01  -3.874294062858e+00  -2.576724987788e+00 
1 -3.460193251756e+01   2.718704159832e+01   9.910154910782e+00 
1 -4.468825824580e+00   1.719546963188e+01   8.194022453363e+01 
1  4.428425996509e-01   7.133117950125e+00   2.944981167951e+01 
8
Step 3600
1 -9.477836877738e+00   2.168784214687e+01  -3.752687317283e+01 
1 -2.864997570828e+00  -2.153129187387e+01   9.180577135757e+00 
1 -4.566660638390e+01  -7.014858394223e+00   8.667276171974e+00 
1  9.947006640079e+00   1.605745662375e+00  -5.107187176711e+01 
1  6.106392148667e+00   9.014143443031e+00  -8.014975631485e+00 
1 -3.842182184518e+01   1.736092565434e+01   3.561818775770e+01 
1 -5.734817327561e+00   3.245432496082e+01   7.377044698866e+01 
1  5.475239548067e+00   3.605154697575e+01   1.146870015892e+01 
8
Step 3700
1 -7.453736974557e+00   5.107351993822e+01  -5.257273120937e+01 
1  3.196409985919e+00  -2.098519867357e+01  -6.040094312247e+00 
1 -6.073396939124e+01   3.346609172230e+00   1.939936160992e+01 
1 -1.671308960902e+01  -1.839130057791e+01  -6.354863525538e+01 
1  8.288891998640e+00   6.528810505482e+00   1.839673198108e+01 
1 -2.118079452009e+01   1.567792744284e+01   4.018407048685e+01 
1  3.324546536141e+00   5.948159896534e+01   6.039699298962e+01 
1 -5.987077291595e+00   2.567936987382e+01  -9.019852900744e-01 
8
Step 3800
1 -1.673920108943e+00   4.722602146511e+01  -4.423115428646e+01 
1 -1.020057209039e+00  -1.454673192361e+01  -2.850077474144e+01 
1 -6.444241771012e+01   1.082111967943e+01   2.000127377710e+01 
1 -3.779885920455e+01  -1.469299670622e+01  -4.874543419727e+01 
1  8.081284406596e+00  -2.756557931523e+01   1.987535193903e+01 
1 -1.997090200210e+01   3.075801964325e+01   3.442478679115e+01 
1 -1.536002203491e+01   5.794080974828e+01   3.969230408083e+01 
1 -4.157102759192e+01   1.136480819714e+01  -8.725634767763e+00 
8
Step 3900
1 -5.790338949502e-02   2.887075894395e+01  -3.524858230080e+01 
1  4.618475451923e+00  -7.072655210145e+00  -3.758764891785e+01 
1 -5.764356428653e+01   1.658571611379e+00   3.578894325376e+01 
1 -3.545417853992e+01  -1.136374299535e+01  -4.502341124013e+01 
1  1.341818336628e+01  -4.323277842125e+01   9.498191852967e+00 
1 -3.104827359499e+01   3.117238551326e+01   3.334038259788e+01 
1 -1.012895313785e+01   6.270858738324e+01   8.789565844003e+00 
1 -5.342114750606e+01  -1.689120522641e+00  -2.437435482097e+01 
8
Step 4000
1 -4.889707521987e+00   4.215693583799e+00  -2.050526840665e+01 
1  6.473317624641e+00  -1.215670588130e+01  -1.430065824260e+01 
1 -4.021055671458e+01  -1.263963124433e+01   4.059511064675e+01 
1 -4.410633076095e+00  -4.214719429928e+00  -3.787423431243e+01 
1  1.445346877481e+01  -3.555771848607e+01  -1.634667583139e+00 
1 -5.481101444740e+01  -4.987391100507e+00  -7.620475601395e+00 
1 -4.832563592985e+00   4.762281119629e+01  -3.287828640267e+01 
1 -6.480217429651e+01   1.820602254381e+01  -1.707058916315e+01 
8
Step 4100
1 -1.859677957350e+01  -6.943025491757e+00  -1.624048272334e+01 
1  9.654114220186e+00  -3.822790994010e+01  -2.363228618049e+01 
1 -1.411196508187e+01  -9.392054124592e+00   3.450795742753e+01 
1  5.384587031248e+00  -2.584651179697e+01  -4.617192394859e+01 
1  7.411508098366e+00  -1.377088104786e+00  -5.292505092714e+00 
1 -4.894966951236e+01  -1.165218159479e+01  -6.790871844286e+00 
1 -2.419962945206e+00   2.501626804141e+01  -4.589559615216e+01 
1 -8.285287590403e+01   4.034605398644e+01  -1.267964599345e+00 
8
Step 4200
1 -1.981808330123e+01  -1.676884001191e-01  -1.769691208678e+01 
1  2.798291251788e+00  -3.802670838668e+01  -3.083678136677e+01 
1  1.879982592203e+01  -1.285335984780e+01   5.542250570003e+01 
1 -6.008800975437e+00  -3.192758363752e+01  -7.281569807109e+01 
1  9.585255540365e+00   3.388708356521e+01  -1.367881845474e+01 
1 -2.544624745576e+01  -1.064727841556e+01   1.040759554415e+01 
1  8.125158976059e+00   1.630396837709e+01  -2.125939513004e+01 
1 -7.926945953235e+01   2.291647082024e+01  -2.063610867598e+01 
8
Step 4300
1  1.188878432313e+00  -6.219097276202e+00  -1.231637283401e+01 
1 -1.604254474674e+01  -3.697793946740e+01  -2.781848632825e+01 
1  3.902876123929e+01  -7.626063892428e+00   3.609942549758e+01 
1 -1.016226489382e+01  -2.645178119617e+01  -7.242576179436e+01 
1  1.233789246908e+01   5.985386253371e+01   1.023448628237e+01 
1  5.449662179603e+00   4.284842684369e+00   2.351690563179e+01 
1  2.077655719238e+00   3.062252122350e+01   3.061726518022e+00 
1 -4.835552338278e+01  -6.663799842298e+00  -2.928035356384e+01 
8
Step 4400
1 -1.161506820740e+01  -1.400837840869e+01  -1.141524957164e+01 
1 -2.616278451214e+01  -5.246604541864e+01  -1.201447517657e+01 
1  4.910690287540e+01  -1.397627250948e+01   9.801428236856e+00 
1 -1.815822319592e+01  -2.569048785246e+01  -5.295428995362e+01 
1  5.131039775857e+00   4.490843800038e+01   1.214018579583e+01 
1  2.407673454591e+01   1.374596060953e+01   3.363848897460e+01 
1 -5.350259058430e+00   3.496670683011e+01  -7.929503825787e+00 
1 -4.461977980711e+01  -3.447556290922e+01  -2.825619501755e+01 
8
Step 4500
1 -1.330706621785e+01  -3.966217569975e+01  -1.494289581669e+01 
1 -9.017568394431e+00  -5.154821773627e+01   3.420232401827e+00 
1  5.674305695796e+01  -2.346381534379e+01   2.056154722141e+01 
1 -2.851825712057e+01  -2.592172391685e+01  -3.902764107926e+01 
1  1.541637208213e+01   2.415543652545e+01   2.215720463820e+01 
1  1.845777704484e+01  -6.804743209360e+00   1.994561849967e+01 
1 -2.559203443332e-01   1.384817136979e+01  -2.188126323051e+01 
1 -3.394307878867e+01  -4.757881384993e+01  -5.291312851798e+00 
8
Step 4600
1 -1.816385045375e+01  -3.701139836821e+01  -3.728992189418e+01 
1 -3.121351288527e+00  -5.560172014696e+01  -5.631916212615e+00 
1  6.285371992242e+01  -1.258010349169e+01   3.066211143175e+01 
1 -3.912552299927e+01  -2.242867008637e+01  -2.831994896839e+01 
1  1.870652819272e+01   2.356355666840e+01   3.350133585088e+01 
1  1.031639237930e+01  -1.929581515816e+01  -2.422234334415e+01 
1  3.850548798478e+00   8.519440557610e+00  -4.751003383684e+01 
1  4.872566668956e+00  -7.751512627872e+01   2.058666731725e+01 
8
Step 4700
1  1.676148854504e+01  -2.542470438787e+01  -3.132259160293e+01 
1 -6.524874415963e+00  -4.745866664371e+01  -1.149479811280e+01 
1  4.036676978475e+01   3.063025425822e+01   4.089554264650e+01 
1 -2.816805106737e+01  -1.278901308699e+01  -3.503585650787e+01 
1  2.742581640391e+01   2.641984693221e+01   3.960152516288e+01 
1 -7.685753264270e+00  -1.712398088278e+01  -4.919795229988e+01 
1 -3.469627074452e+00   2.961458329521e+00  -7.616507288979e+01 
1  1.348045774657e+01  -9.461473256934e+01   2.038725739303e+01 
8
Step 4800
1  3.145167889330e+01  -2.128131254086e+01  -1.511678872907e+01 
1 -1.230586714226e+01  -4.215396770245e+00  -4.177681239603e+00 
1  1.647446397500e+01   4.648799260996e+01   3.643042156400e+01 
1 -3.240112086486e+01   1.580325469860e+01  -2.667419075167e+01 
1  3.593912070477e+01   1.716719667739e+01   3.863539704976e+01 
1 -3.283654029381e+01  -2.845457475121e+01  -1.956304728753e+01 
1  1.524981562798e+00   5.476587678681e-01  -1.016904056749e+02 
1  4.019651104857e+00  -8.986284378658e+01   1.524163232950e+01 
8
Step 4900
1  3.504782033273e+01  -3.725621896763e+01  -9.767285993896e+00 
1 -5.579434491986e+00   3.779568548912e+01   1.884589051418e+01 
1  2.687074020492e+01   2.278143955248e+01   2.036582183366e+01 
1  1.542939244366e+00   2.841287741714e+01  -2.447161919979e+01 
1  3.184325598931e+01   3.123665933788e+01   5.010395903076e+01 
1 -1.478731385086e+01  -3.430625997613e+01   9.236094043474e+00 
1  1.200074999141e+01   2.062338027281e+01  -8.949051975994e+01 
1  3.570582243592e+00  -6.834685995117e+01   1.399787933742e+01 
8
Step 5000
1  1.771996322298e+01  -5.605861247087e+01  -2.846691775163e+01 
1 -1.260965421554e+01   5.687140390378e+01   6.064772083822e+01 
1  2.295103086499e+01   2.227995409899e+01   1.456923828790e+01 
1  4.976379290943e+01   1.532529934801e+01  -7.717117084938e+00 
1  5.953252890673e-02   3.332445517744e+01   5.894753177840e+01 
1  1.039229670394e+01  -2.455952470199e+01   1.991839656023e+01 
1 -8.574576136662e-01   4.153229497669e+01  -6.872483089504e+01 
1  3.830028391216e+00  -3.326116698600e+01   6.014433282982e+00 
8
Step 5100
1  2.794855697650e+01  -8.498392954731e+01  -2.072762477635e+01 
1 -3.088826638220e+01   4.752727150000e+01   7.154887269004e+01 
1  1.888813951297e+01   2.683873305002e+01  -3.927912671266e+00 
1  4.952750428412e+01   1.554633660909e+01   1.641452975220e+01 
1 -1.897921053863e+01   1.685551781236e+01   5.328331405556e+01 
1 -1.780818116999e+01  -1.305980303308e+01   3.192888071712e+01 
1  3.521128740914e-01   2.643724269628e+01  -5.305414876285e+01 
1  4.734971919509e+00  -1.974030276820e+01   1.701542804533e+01 
8
Step 5200
1  4.449765715631e+01  -6.523291915956e+01   1.615665758527e+01 
1 -4.536787632971e+01   2.212631732860e+01   6.437672422272e+01 
1  1.209397678300e+01   3.091691278773e+01  -7.067984434884e+00 
1  3.557618995754e+01   2.098954564860e+01   2.024574198286e+01 
1 -9.619217724820e+00  -5.804917340580e+00   1.026007100717e+01 
1 -5.248675242798e+01  -4.102390897072e+00   4.116246911530e+01 
1  1.716726403840e+00  -1.420621466338e+00  -3.255538432098e+01 
1 -1.412926783622e+00  -2.601707679495e+01   9.428628207867e+00 
8
Step 5300
1  6.041006366239e+01  -3.537773314543e+01   2.872550255759e+01 
1 -2.531005043074e+01   1.531945303993e+01   6.925282876104e+01 
1  1.382126366475e+01   3.131253398627e+01   1.991588794222e-01 
1  4.164723282495e+01   1.743086113234e+01   2.196026626661e+01 
1 -2.119398495946e+01  -1.387028625474e+01  -2.953995755562e+01 
1 -5.241136928457e+01   7.523010585307e+00   4.932115632774e+01 
1 -1.421928906493e+01  -1.596512972242e+01  -3.968719443455e+01 
1 -9.271007064624e+00  -3.675731638299e+01  -1.851296565232e+01 
8
Step 5400
1  5.555781095383e+01  -1.899250490933e+01   3.219845109007e+01 
1  2.482304894035e+00   2.584025858178e+01   6.800906896636e+01 
1  3.599213369696e+00   4.483898074735e+01   1.022682297636e+01 
1  3.403102930352e+01  -7.606952730268e+00   3.402934627024e+01 
1 -3.732366501739e+01   8.077935795643e-01  -4.249142400785e+01 
1 -4.490718009947e+01   7.245174859692e+00   3.551899374886e+01 
1 -4.377759714702e+01  -1.962069275572e+01  -4.316053639788e+01 
1 -2.067961074222e+01  -3.338379399957e+01  -4.354976550717e+01 
8
Step 5500
1  4.801079361080e+01  -2.145362081152e+01   3.854246400112e+01 
1  1.553934901240e+01   1.196028672042e+01   3.183299321186e+01 
1 -9.465921691080e+00   4.994897824698e+01   2.363271844795e+00 
1  2.476742574696e+01  -1.896480685955e+01   5.521313492137e+01 
1 -1.572493249925e+01   1.456350027933e+01  -3.905758829431e+01 
1 -2.941494185202e+01  -5.475975685435e+00   3.469350605996e+01 
1 -4.288046887328e+01  -1.269452598335e+01  -5.473469550407e+01 
1 -2.282704484536e+01  -3.119634315882e+01  -3.909489341024e+01 
8
Step 5600
1  3.476475043903e+01  -1.641210818474e+01   4.077389571135e+01 
1  6.949977246738e+00  -2.683444016443e+00   1.608835285766e+00 
1 -1.102097392701e+01   4.654971426535e+01  -3.108050835358e+01 