8
Step 0
1 -2.526747284012e+02  -9.139898326518e+01   6.153100321031e+02 
1 -1.258207520092e+02   5.954881177993e+02  -1.504192038587e+02 
1 -6.369877599390e+02  -7.416346211132e+01   2.694691806287e+02 
1  4.335563653125e+02   4.553172070703e+02  -5.768887597283e+02 
1  4.918422941353e+01   4.104898738733e+02   3.662172568987e+02 
1  4.401477329557e+02   4.801209372720e+02  -2.382806015216e+02 
1  4.157396733158e+01   2.433279188640e+02  -4.636222617984e+02 
1  3.420269462983e+02  -5.302369339801e+02   6.603489089374e+02 
8
Step 100
1 -1.705573134782e+02  -1.467439580340e+02   4.321171400452e+02 
1  1.113037016212e+00   2.961756696828e+02  -1.465459121261e+02 
1 -4.888128853289e+02  -1.208668970677e+02   1.702386848826e+02 
1  3.292976102035e+02   3.073174267709e+02  -4.191320121354e+02 
1  1.554179379140e+02   2.902189892681e+02   1.011920438166e+02 
1  4.189018598108e+02   3.430450075565e+02  -1.510043896565e+02 
1  7.726061738681e+01   1.131443465877e+02  -3.313813007828e+02 
1  3.562025546136e+02  -3.263952503902e+02   5.674211721175e+02 
8
Step 200
1 -8.485284199053e+00  -1.650753506382e+02   1.731598180891e+02 
1  1.485732888168e+02  -1.310812945920e+02  -9.422158985050e+01 
1 -2.647031184724e+02  -1.653080271912e+02   1.906747848713e+01 
1  1.725437862502e+02   1.329985565794e+02  -2.165979060744e+02 
1  2.577973587073e+02   1.513858402962e+02  -1.497804158128e+02 
1  3.291684636529e+02   1.465692195303e+02  -6.836401513942e+01 
1  1.127265843771e+02  -9.083672480848e+01  -1.517651842776e+02 
1  3.346289687210e+02  -6.450631427535e+01   3.755768319158e+02 
8
Step 300
1  3.475258501826e+01  -1.127319988337e+02   3.452468218887e+01 
1  1.634978045007e+02  -2.659939952136e+02  -6.793334929333e+01 
1 -1.313986506855e+02  -1.318340937717e+02  -7.522571738454e+01 
1  5.472334320319e+01   6.596446093438e+01  -1.303736859857e+02 
1  1.958949156814e+02   9.254973974055e+01  -1.421191217815e+02 
1  2.148453492742e+02   4.392400275314e+01  -5.858188432741e+01 
1  3.504786355027e+01  -1.525004218639e+02  -3.831289700317e+01 
1  2.606471895502e+02  -2.172919927318e+01   1.473922250418e+02 
8
Step 400
1  1.360172485659e+01  -6.978182577457e+01   3.771924695283e+01 
1  7.168232207456e+01  -1.562003804070e+02  -7.884591336161e+01 
1 -6.941789818954e+01  -6.497637820428e+01  -1.133753244235e+02 
1  2.881269049571e+01   6.648740915366e+01  -1.322449899175e+02 
1  8.554835585627e+01   7.009943381982e+01  -3.143936590946e+01 
1  1.027798214186e+02   4.376807444625e+01  -8.995812031763e+01 
1 -9.153094275001e+01  -1.226548271008e+02  -2.057974234122e+01 
1  1.458925112452e+02  -6.291029876917e+01   1.349173373452e+01 
8
Step 500
1 -1.761903895497e+01  -4.672298659774e+01   8.464474680901e+01 
1  1.446998103227e+00  -2.934204576431e+01  -6.787041778079e+01 
1 -1.081703795409e+00  -8.750891361755e+00  -9.043844542900e+01 
1  4.455813214390e+01   7.341949944445e+01  -1.366515740916e+02 
1  6.047045265695e+01   5.144785366582e+01   3.744772742598e+01 
1  5.684255697121e+01   5.179613654809e+01  -8.488674342418e+01 
1 -1.143540846456e+02  -6.880812647837e+01   1.830429088423e+00 
1  4.828765255083e+01  -6.511641757195e+01  -4.350714081599e+01 
8
Step 600
1 -3.802918935549e+01  -4.217585636211e+01   1.016033897953e+02 
1 -8.878982773971e+00   4.401883038760e+00  -1.931361982401e+01 
1  2.692297602783e+01  -1.314197526968e+01  -6.742662238015e+01 
1  3.900222296881e+01   4.253147934618e+01  -1.097920464924e+02 
1  6.617527592026e+01   6.901337325012e+01   2.018654978539e+00 
1  3.020537713757e+01   5.488349367810e+01  -2.367264179334e+01 
1 -8.300863773806e+01  -1.284003764060e+00   3.222673121031e+01 
1 -2.758023905456e+00  -3.683396948117e+01  -2.439758335103e+01 
8
Step 700
1 -3.356297038228e+01  -5.951130593375e+01   3.896915361123e+01 
1 -1.146758562367e+01  -1.087796641060e+01   1.550860731456e+01 
1 -7.739551046277e+00  -3.526595634118e+01  -2.841505559851e+01 
1  2.818767757054e+01   3.723723806517e+01  -1.009779175381e+02 
1  7.098389134076e+01   6.403230880325e+01  -8.296183322640e+01 
1  5.258088215359e+00   5.108691900532e+01   2.648320967678e+01 
1 -1.331764007008e+01  -1.417991836768e+01   2.501429908102e+01 
1 -2.679207128031e+01  -9.231308999770e+00  -5.092519680892e+00 
8
Step 800
1 -1.430792628039e+01  -7.255541725631e+01   3.032408478151e+01 
1 -8.497186321733e+00  -3.122911973377e+01   8.042900629136e+00 
1 -2.429449619441e+01  -5.054024941663e+01   9.077965220307e+00 
1  2.370346263896e+01   4.048865168982e+00  -6.715167909997e+01 
1  9.247541027651e+01   4.814904226248e+01  -6.049887563093e+01 
1  6.822267988175e+00   2.402173095453e+01   1.991488867927e+01 
1  2.543584395823e+01  -2.626661347306e+01  -6.938362444214e+00 
1 -1.892988146699e+01   6.483916323999e+00  -4.348415042871e+01 
8
Step 900
1  5.426429039993e+01  -5.322847249294e+01   4.155811243442e+01 
1  8.235897263087e+00  -3.264258153437e+00   1.427686074412e+01 
1 -3.419340934187e+01  -2.672481528614e+01   1.518522870144e+01 
1  2.603545899657e+00  -1.804261244903e+01  -8.716936115510e+00 
1  6.946824476110e+01   4.661688076677e+01  -5.997868994600e+01 
1  2.826280412844e+01   2.813040351017e+01   4.225426035299e+00 
1  4.685379214025e+01  -1.531672687717e+01  -2.161823522889e+01 
1 -5.925890693306e+01  -4.514625028304e-02  -6.797557342568e+01 
8
Step 1000
1  8.580702522475e+01  -2.726523145808e+01   5.463998946141e+01 
1  3.107358117070e+01   4.456867405755e+01  -8.873045643153e+00 
1 -3.433735644024e+01  -3.955700517578e+00   2.234045233287e+01 
1 -6.542735343828e+00  -5.208783608835e+01  -8.941214162443e-01 
1  5.127464965079e+01   5.514634943208e+01  -7.203250208328e+01 
1  3.918011680461e+01   2.128443774439e+01   2.797674681512e+01 
1  5.569125600115e+01   3.434328424580e+01  -1.449535972493e+01 
1 -5.219946135350e+01   1.012921291581e+01  -6.149844706404e+01 
8
Step 1100
1  5.796563456579e+01   9.494683006947e+00   4.278599564854e+01 
1  1.740349967083e+01   2.508672307370e+01  -7.821294097720e+00 
1 -7.578064452929e+01  -2.727513735025e+01   3.576810512710e+01 
1  2.422348090511e+01  -5.169357152381e+01  -4.894206632649e+00 
1  5.519029251009e+00   5.953619803304e+01  -5.917229999336e+01 
1  4.626951160990e+01   1.429472859969e+01   4.477672460908e+01 
1  4.865171405386e+01   5.642033545724e+01  -2.585645437654e+01 
1 -5.393719211176e+00   5.506229930122e+00  -3.122359172011e+01 
8
Step 1200
1  2.736915082303e+01   5.057628016951e+00   3.057617892132e+01 
1 -3.020628146566e+01   3.368323497654e+01   1.808526389985e+00 
1 -6.667450497501e+01  -2.130293130986e+01   3.007980739151e+01 
1  4.152003185563e+01  -2.702577914110e+00   2.464742627153e+01 
1 -9.627493895995e+00   4.304433562175e+01  -3.957195485747e+01 
1  4.551203872324e+01   1.990381756127e+00   3.986491503385e+01 
1  4.903211194741e+01   5.230604101957e+01  -5.325382351572e+01 
1  1.061924808143e+00  -2.217248125571e+01   9.422200886420e+00 
8
Step 1300
1  3.381873246465e+00  -2.759322476689e-02   5.224767157653e+01 
1 -6.147440452388e+01   3.108237133304e+01   1.341636658048e+01 
1 -2.209853820249e+01  -1.162576077275e+01   4.280603428626e+00 
1  1.714479313941e+01   6.281313578375e+01   3.687115732600e+01 
1 -9.977519678077e+00   1.701308636536e+01  -4.511490387275e+01 
1  3.067344796889e+01  -5.159758748080e+00   7.080811065426e+00 
1  2.332016414423e+01   2.853643554146e+01  -7.215838181367e+01 
1 -1.587944100351e+01  -2.398670242098e+01   1.278036233140e+00 
8
Step 1400
1 -1.973438751075e+01   1.495519276624e+01   8.067489203885e+01 
1 -4.202604217113e+01   1.306268515644e+01   1.885619811652e+01 
1 -4.738059897159e+00   1.130980574113e+00  -6.762108226776e+00 
1 -2.323940408124e+01   6.840912982435e+01   3.157895462209e+01 
1 -2.486920796683e+01  -8.964852510957e+00  -6.369201841071e+00 
1  2.003686436410e+01   2.960969051821e+01  -1.690112010813e+01 
1 -1.941252576755e+01   7.095624985578e+00  -3.648002545626e+01 
1 -1.752786110208e+01  -6.060314046524e-01  -8.883023845192e+00 
8
Step 1500
1 -1.250803573540e+01   4.379471552235e+01   6.870589120324e+01 
1 -1.650815112281e+01  -2.210795037561e+01   2.097177540721e+01 
1 -3.220028432476e+01   2.325918901772e+00  -4.149622763932e+01 
1 -3.454317556366e+01   1.980212210717e+01   1.231922764267e+01 
1 -3.067120662912e+01  -1.131816871535e+01   1.292232686622e+01 
1  5.077605502719e+00   4.603503403534e+01  -2.513195479614e+00 
1 -1.514293057873e+01   1.588882564987e+01   2.682669703604e+00 
1  7.612985129595e+00  -5.976197163827e+00   6.842703985154e+00 
8
Step 1600
1 -7.133309046773e+00   4.345698683011e+01   4.124593842374e+01 
1 -1.518202080669e+01  -4.413588757283e+01   1.269386754526e+01 
1 -7.548847657540e+01  -2.932110964936e+01  -1.752818576738e+01 
1 -6.283693528930e-01  -2.660537637276e+00   5.558111724479e+00 
1 -4.023325075218e+01   3.005017787648e+01   1.036138005954e+01 
1  4.927074020874e+00   1.052761362022e+01   6.492409534760e+00 
1 -1.585830214958e+01   3.026209297266e+00   3.888921019371e+01 
1  3.314206912504e+00  -4.220389856850e+00   3.610276184577e+01 
8
Step 1700
1 -3.356400842458e+01   4.808658692460e+01   9.384528361768e+00 
1 -1.129732621374e+01  -5.164684172958e+01   1.373063208250e+01 
1 -7.456475229550e+01  -8.333438553129e+01   1.322973610952e+01 
1  1.673620144951e+01   1.746451010491e+00  -1.489695468254e+01 
1 -3.195730260939e+01   5.844179992237e+01   1.935859554981e+01 
1  1.133748071514e+00   2.378385519584e+01   1.322122152528e+01 
1  2.090349937593e+01   1.106556853869e+01   3.823426472889e+01 
1 -5.087288275179e+00   7.497345653893e+00   1.613360326014e+01 
8
Step 1800
1 -1.158272754204e+01   6.719451381915e+01  -9.909806712030e+00 
1  2.576831303894e-02  -5.858414029710e+01  -2.018898099649e+01 
1 -5.781060821715e+01  -9.024925557900e+01   1.037890693215e+01 
1  3.816295076734e+01  -8.491813579562e+00  -5.755427843060e+01 
1 -9.112849582172e+00   4.007117033224e+01   1.717667693711e+01 
1 -1.861934956511e+01   3.022635337662e+01   1.166221006024e+01 
1  2.978534770277e+01   2.712610024128e+01   6.597607252728e+01 
1 -2.843412374283e+01   1.132268697473e+01  -4.373125500657e+01 
8
Step 1900
1  2.687870035448e-01   8.667606864586e+01   1.825365520421e+00 
1 -1.100281827813e+01  -3.902051052051e+01  -2.680941834635e+01 
1 -3.043274655420e+01  -8.817135755031e+01   2.144057225205e+01 
1  2.787219216520e+01  -1.859881267008e+01  -5.824313806085e+01 
1  7.198343898401e+00   5.109895212718e+01  -4.516487911499e-01 
1 -3.107705740466e+01  -3.413303452216e+01  -6.634534041997e+00 
1  3.459435518542e+01   1.728086286708e+01   7.132624553243e+01 
1 -1.575931896623e+01  -2.458685634719e+01  -5.027917365626e+01 
8
Step 2000
1 -1.366377350953e+01   8.159438224345e+01  -1.662770769008e+00 
1 -1.231952856487e+01  -4.695566697295e+01  -4.419962608896e+01 
1  5.773948858532e+00  -7.059078114514e+01   1.144299663450e+01 
1  4.582023773876e+01   2.766783634231e+01  -3.471796882966e+01 
1  1.870991751832e+01   8.480566881952e+01   1.299958805897e+01 
1 -2.102017396069e+01  -7.610969894913e+01   9.992186261753e+00 
1  6.276958697004e+01   3.427342449534e+00   6.879727293496e+01 
1  1.728604736587e+01  -2.627815779677e+01  -1.850899112231e+01 
8
Step 2100
1  4.418980878854e+00   8.002306210744e+01  -1.280282406398e+01 
1  2.641764404065e+01  -5.547985469985e+01  -3.111537688779e+01 
1  9.060215241534e+00  -4.217372272594e+01  -1.346349771372e+01 
1  2.947771904523e+01   4.530489710456e+01  -1.377214349177e+01 
1  3.020654682858e+01   9.094057957019e+01   1.197456253152e+01 
1 -3.393266468135e+01  -4.960230408540e+01   3.038461548496e+01 
1  4.180754623509e+01   9.095127744566e+00   4.701486006019e+01 
1  3.023253355473e+01  -4.276201516972e+01  -2.699656119181e+01 
8
Step 2200
1 -8.043359893568e+00   4.208468231274e+01  -3.212980445565e+00 
1  3.108445661893e+01  -8.277915441855e+01  -5.254598521396e+01 
1 -2.021813946115e+01  -1.905720751987e+01  -3.228224529700e+01 
1  1.283301028375e+01   4.102041779687e+01  -1.311793401967e+01 
1  4.239042114125e+01   7.602878046330e+01   4.736502531690e+00 
1 -4.860225301776e+01  -2.149030596633e+01   3.536433061092e+01 
1  1.342511577524e+01   1.319299551326e+01   3.019241843674e+01 
1  1.985276704670e+00  -6.268773552785e+01  -2.004029918914e+01 
8
Step 2300
1 -1.143490134258e+01   5.835296454184e+00   2.764140314243e+01 
1 -5.297517746968e+00  -6.918378999735e+01  -5.099758985514e+01 
1 -8.307270783525e-01   9.045299316082e+00  -8.691955983173e+00 
1  1.037303964532e+01   5.083215731459e+01  -2.109008956220e+01 
1 -8.209074664999e-01   2.702457908208e+01   4.518079951872e+00 
1 -6.016847196219e+01   3.563439601323e+01   1.761993266275e+01 
1  2.388315003499e+01   1.382051483522e+01   1.597948547467e+01 
1  1.367463188283e+01  -3.963693132694e+01   2.627392252002e+00 
8
Step 2400
1  1.123805973158e+01   1.303234562716e+01   5.006293783766e+01 
1 -3.214866811702e+01  -4.962601562719e+01  -2.587742378575e+01 
1  1.150584661994e+01   2.128938997828e+01   2.453167615041e+01 
1 -1.045502172710e+00   5.956403066988e+01   1.251483409388e+00 
1 -4.966650586685e+01  -2.106670619792e+01   9.321378772825e+00 
1 -3.558481967539e+01   6.427348195006e+01   2.867353836199e+01 
1  6.296306644313e+01   2.235606835317e+01   4.760420441582e-01 
1  3.021948172496e+01  -3.422135494831e+01  -8.014370509422e+00 
8
Step 2500
1  1.502042840182e+01   7.883740821136e+00   4.010650727978e+01 
1 -2.500359670432e+01  -6.970557372930e+01   8.282681725885e+00 
1  2.226227771618e+01   7.027164206317e+00   2.563495464762e+01 
1 -1.791609093251e+01   2.898905300276e+01   2.679577048626e+01 
1 -6.146812636099e+01  -1.841180617401e+01  -3.582719734745e+01 
1 -1.861177142831e+01   3.106925034380e+01   2.450346035353e+01 
1  4.997311588477e+01   1.470069833216e+01  -5.841850473653e+00 
1  3.810787511283e+01  -3.860518269272e+01  -5.600519865032e+00 
8
Step 2600
1 -1.125160664115e+00   4.828052511802e+01   1.595930238972e+00 
1 -9.631295139619e+00  -5.843190164462e+01   1.591279144285e+01 
1  1.483291398123e+00  -1.960742625092e+01  -1.448602958881e+01 
1 -9.104414396739e+00   3.553527191036e+00   2.800719841839e+01 
1 -2.968258142599e+01  -4.807921562189e+00  -5.257478684581e+01 
1 -2.211931846153e+01   1.941263816136e+01   4.699856920082e+00 
1  1.998870863583e+01  -3.325391445031e+00  -3.104272917580e+00 
1  3.973506256301e+01  -2.621093064117e+01   4.177490621856e+00 
8
Step 2700
1  3.724814200914e+00   5.291486725128e+01   9.085370063504e-01 
1  2.089344268423e+01  -7.143203370321e+00   2.248095862339e+01 
1 -4.551696731567e+01  -3.304079362617e+01  -3.242695851433e+01 
1 -4.928433975288e+00  -5.142588033583e+00   1.030418068488e+01 
1  1.618377963811e+01  -4.182537458981e+00  -2.421102712362e+01 
1 -4.943665307414e+01   4.360908366911e+01   2.739111959713e+00 
1  3.268338649791e+01  -4.039337717753e+01  -2.341680139710e+01 
1  4.188661075374e+01  -2.468820985970e+01  -2.173829534020e+01 
8
Step 2800
1  1.818284722921e+01   2.834157520007e+01   1.991757124718e+01 
1  5.099324904239e+01   1.184721295085e+01   2.460217513728e+01 
1 -7.353742098603e+01  -1.605719396323e+01  -1.734299545200e+01 
1 -1.337516360132e+01   1.002487709328e+01  -1.214477309534e+01 
1  4.877371666131e+01  -1.713214524365e+01   4.638317749049e+00 
1 -5.165872643526e+01   5.231433127384e+01   1.903124213226e+01 
1  2.104533506930e+01  -7.416540146838e+01  -7.052108176864e+00 
1  4.578758950854e+01  -1.209439960968e+01  -4.400834635925e+01 
8
Step 2900
1  1.207015270001e+01   1.848446765314e+01   1.964815460962e+01 
1  5.028257409336e+01   1.499451925844e+01   2.451341710920e+01 
1 -5.448345348358e+01  -2.419614305339e+01  -2.824825098812e+01 
1 -3.819516596941e+01  -9.738465384353e+00  -2.638494456120e+01 
1  3.719670280718e+01  -2.260715431279e+01  -2.477942317755e+01 
1 -4.275476038484e+01   4.677151797040e+01   1.613839456234e+01 
1 -3.354947309819e+00  -7.887939477253e+01  -2.984275719751e+01 
1  3.301028381943e+01   3.652176833607e+00  -3.953701703004e+01 
8
Step 3000
1  5.317457283954e+00   3.750403805306e+00   3.075316433424e+01 
1  2.892857330905e+01   3.676521843919e+01   3.711337039011e+01 
1 -3.224684004600e+01  -3.210397304396e+01  -1.789968886642e+01 
1 -3.450800077327e+01  -2.237882286531e+01  -1.247032444693e+01 
1  1.102511456130e+01  -1.586138858220e+01  -5.292347842318e+01 
1 -7.179750394288e+01   4.901195688181e+01   1.323680118837e+01 
1 -3.387723228940e+01  -7.242961069021e+01  -3.998615927621e+01 
1  2.490723849154e+01  -1.466295534541e+01  -1.636659624361e+01 
8
Step 3100
1  1.272004708289e+00   2.170680908031e+01   4.447782980673e+01 
1  4.194702935321e+01   1.811761506989e+01   2.944223514189e+01 
1  2.571892686978e+01  -3.461061025423e+01  -3.282435608051e+01 
1 -2.746121133169e+01  -1.050395683165e+01   8.292721898061e+00 
1 -1.965355320001e+01   4.254517838319e+01  -3.582565165489e+01 
1 -6.181347786217e+01   4.966455079401e+01   2.535049523371e+01 
1 -3.839591568522e+01  -4.849458367061e+01  -7.516106060362e+00 
1 -1.439946246660e+01   2.363135258486e+00  -4.251543021034e+00 
8
Step 3200
1  1.485966230408e+01   3.056743492179e+01   6.429923107337e+01 
1  4.728818370793e+01  -1.942937137000e+00  -1.720620266630e+01 
1  7.258281427156e+01  -5.660302490718e+00  -2.843875618863e+01 
1 -2.458680208253e+01   5.319161639197e+01   9.498415768946e+00 
1 -3.076677769623e+01   4.368062480669e+01   1.120603223042e+01 
1 -4.120139505450e+01   5.850185260662e+01   5.912318490581e+01 
1  1.786199482195e+01  -4.500976024126e+01   3.584854920478e+01 
1 -3.411009511210e+01   3.105688060055e+01  -1.287767528223e+01 
8
Step 3300
1  4.442479025104e+01   4.683355178632e+01   2.682977166550e+01 
1  6.125986044773e+01  -1.722047717710e+01   5.810405080457e+00 
1  7.686800810736e+01   1.759307868342e+01  -2.364744555442e+01 
1  3.274853185444e-01   6.378747434925e+01  -7.030717890281e+00 
1 -2.884602304519e+01   5.293742576733e+00   4.008965601858e+01 
1 -2.688536372368e+01   4.616148442974e+01   6.346298103282e+01 
1  6.687968824326e+01  -5.335497511786e+01   1.770412969582e+01 
1 -5.067189588865e+01   3.286721679140e+01   1.116075826234e+01 
8
Step 3400
1  2.609823089179e+01   2.301220748954e+01   4.191303933620e+00 
1  1.969086904076e+01  -1.573650287661e+01   6.200812095574e+01 
1  3.428839478171e+01   1.550205876899e+01  -2.067328929113e+01 
1  3.719210918112e+00   1.954222348013e+01  -1.425443006124e+01 
1  3.382463076916e+00  -1.460137584924e+01   9.814081468986e+01 
1  1.177019525625e+01   5.795639195066e+00   4.638315876771e+01 
1  2.361901132211e+01  -4.920274150581e+01   1.919427923337e+01 
1 -6.372518477882e+01   2.917023049384e+01   1.493057244447e+01 
8
Step 3500
1 -2.555061342132e+01  -6.472863603378e+00   2.371497453497e+01 
1 -1.786917179913e+00  -5.665005320058e+01   5.843187151420e+01 
1  1.559222274663e+00   1.045430916665e+00  -5.090775470372e+00 
1  2.602831469605e+01  -5.143613323671e+01  -5.176597132542e+00 
1  4.140045089445e+01  -5.693199182180e+00   8.959741954948e+01 
1  1.506181276648e+01   6.464647854656e+00   3.988284010910e+01 
1 -2.057864579328e+01  -2.610649142828e+01   1.562802692926e+01 
1 -5.318049480912e+01   2.146085061018e+01  -1.033656950666e+01 
8
Step 3600
1 -1.738728299815e+01   3.669350320246e+01   2.118097919874e+01 
1 -1.243138513729e+01  -5.977062444326e+01   1.661482254942e+01 
1 -2.969931492805e+00   5.900750721792e+00   6.768050160591e+00 
1  4.058833034069e+00  -6.814822445022e+01  -4.524878518361e+00 
1  2.830934637278e+01  -8.937229549229e+00   7.956576259589e+01 
1  5.558315754006e+00   2.928480868205e+01   1.675459277735e+01 
1 -4.503799099628e+01   2.937293944385e-01  -4.665961987398e+00 
1 -3.267454250068e+01   1.636333780711e+01  -3.441316750158e+01 
8
Step 3700
1 -5.862191692433e-01   5.556252484932e+01   1.210580792187e+01 
1 -4.363847040009e+01  -2.765994627561e+01  -1.483873401921e+01 
1 -1.865065085590e+01  -7.011783863124e+00   1.873629394244e+01 
1  4.414113905060e+00  -7.154198715585e+01  -2.925302637458e+01 
1 -3.520366652514e+00  -3.453611744915e+01   2.631770793157e+01 
1  5.771111967518e+00   4.504641845654e+01   3.121771585014e+01 
1 -2.196983585119e+01   2.936596276780e+01   3.089393942457e+01 
1 -4.670763624188e-01   2.357384259229e+01  -1.474024243684e+01 
8
Step 3800
1  1.768812781467e+01   6.239023002116e+01   1.228201083649e+01 
1 -3.303510298059e+01  -3.838339107620e+00  -1.177122586449e+01 
1 -4.380516250101e+00  -1.804780051712e+01   2.388102958347e+01 
1  1.539942738923e+01  -6.933888830510e+01  -1.926738578237e+01 
1 -4.651959169885e-01  -5.255749674205e+01  -8.838667099312e+00 
1 -3.069717614717e+00   2.699062356416e+01   4.054270851568e+01 
1 -1.409964839037e+01   3.028835801020e+01   2.113893366630e+01 
1 -2.133177129612e+00   3.121807286872e+01  -3.317893836813e+01 
8
Step 3900
1  9.343423532408e+00   2.981916139044e+01  -8.348269924103e+00 
1 -7.274690175254e+00  -7.929516185927e+00   1.374865447704e+01 
1 -4.155141467240e+01   1.652982100458e+00   2.673116254522e+01 
1  2.808732170418e+01  -3.541808721556e+01  -5.036422647664e+01 
1  1.876614536429e+01  -2.237673880929e+01  -3.428912865873e+01 
1 -2.687375985841e+01  -2.058861440010e-01   3.790648734585e+01 
1 -9.754159741391e+00   4.610104183651e+01  -1.622705958478e+00 
1 -1.878586873168e+00   3.900627177751e+01  -5.520341872338e+01 
8
Step 4000
1 -2.973915383624e+00   5.524351289491e+01  -3.753400411095e+00 
1  2.399046517537e+01  -2.693489927581e+01  -3.501387006295e+00 
1 -7.678669638894e+01   2.726401389630e+01   2.752073740933e+01 
1  7.180616798134e+01  -1.364007046717e+01  -9.395225411908e+01 
1 -1.443618113559e+01   4.398868989901e+00  -5.096435422616e+00 
1  5.878562329201e+00  -1.187194916374e+01   2.771223914328e+01 
1 -6.302826615226e+00   5.358632512808e+01  -2.527227405479e+01 
1 -1.436500406362e+01   1.580271786551e+01  -2.040342403653e+01 
8
Step 4100
1 -2.520005522021e+01   5.495032992173e+01   4.279912064018e+01 
1  2.888776890792e+01  -1.673769732255e+01  -1.328942879710e+01 
1 -7.204120053185e+01   1.670304200955e+01   2.435236086870e+01 
1  6.931764262178e+01  -1.782603316092e+01  -7.587871859591e+01 
1 -5.594744294521e+01   2.831751985898e+01   9.428876695755e+00 
1  2.241546583662e+01  -4.565005453343e+01  -1.100004983229e+01 
1 -1.763723324740e+01   5.706948881519e+01  -5.980719445338e+01 
1 -1.931557477508e+01  -2.009151776636e+01   6.841242731817e+00 
8
Step 4200
1 -5.347533316038e+01   8.171327420075e+00   5.602510706002e+01 
1  3.021146954559e+01  -1.469383684233e+01  -1.822016004204e+01 
1 -5.957944213705e+01   6.169196785593e+00   4.576244134007e+01 
1  5.369259858448e+01  -3.958501132875e+01  -3.322574468029e+01 
1 -4.037703080965e+01   4.442579676314e+01   1.368826823507e+01 
1  2.435558375772e+01  -2.837353210180e+01  -4.966646944918e+01 
1 -4.879623594406e+01   4.813371682506e+01  -6.493697155618e+01 
1 -4.440800951327e+01  -3.390621179982e+01  -3.464012429488e+01 
8
Step 4300
1 -7.942353321405e+01  -4.453781024760e+01   5.106611941951e+01 
1  3.840588379210e+01  -7.432928300980e+00   2.184293244236e-01 
1 -4.008738332396e+01   2.867051600040e+01   2.440619526648e+01 
1  3.046954347427e+01  -1.352127454923e+01  -1.358237788694e+01 
1 -1.220128166096e+01   4.295062446646e+01   1.867376444237e+01 
1  3.450288757710e+01  -5.875982581879e+00  -8.316877516278e+01 
1 -4.631940982549e+01   1.070307081290e+01  -3.562460641053e+01 
1 -4.428929847612e+01  -3.845521520717e+01  -6.008417308713e+01 
8
Step 4400
1 -1.060211690765e+02  -3.301602488758e+01   4.545032237033e+01 
1  4.235294102114e+01  -2.532726351867e+00   1.174845905104e+01 
1 -2.816726650742e+01   1.841408943875e+01   8.918908364806e+00 
1  3.241580852972e+01   2.154710021937e+01  -3.798295053175e+01 
1 -8.472987609994e+00   6.718112332963e+01   6.788127410876e-01 
1  1.054855616403e+01  -1.121336580656e+01  -5.266935521809e+01 
1  1.468700452232e+01  -4.396446566618e+00  -1.051870014099e+01 
1 -3.417217689288e+01  -2.974105374585e+01  -3.288398174440e+01 
8
Step 4500
1 -8.856761937416e+01  -6.796170736500e+00   4.598696674099e+01 
1  4.599165177932e+01  -1.473395705908e+01   7.090555044673e+00 
1 -3.193352753429e+01   9.312989605598e+00  -1.304205228200e+01 
1  2.676699976936e+01  -1.041083112098e+01  -2.202136483675e+01 
1 -4.563835521501e+00   6.285373408170e+01   9.470763494634e+00 
1 -1.313251717360e+01   5.172410451025e+00  -2.515205177739e+00 
1  3.977092591309e+01   1.344745685247e+01  -1.352133575067e+01 
1 -2.762517420438e+01  -6.164271173015e+01   4.071655683895e+00 
8
Step 4600
1 -3.257620235656e+01   4.679101647328e+00   4.074556433912e+01 
1  3.031952421336e+01  -4.871757674724e+01  -1.481378702783e+01 
1 -4.139278788530e+01   1.878853195103e+01  -3.878262725132e+00 
1  1.596027339561e+01  -1.937662388181e+01  -7.071942680116e-01 
1  1.043797942642e+01   7.295759934274e+01  -9.118285840047e+00 
1 -1.779392275328e+01   3.867612401381e+01   3.041619262235e+01 
1  2.601494747665e+01   1.528006687289e+01  -8.809281009241e-01 
1 -2.195847696869e+01  -1.067688665529e+02  -8.675249597113e-02 
8
Step 4700
1 -1.168454547371e+00  -9.652867635578e+00   1.537266104627e+01 
1  7.783299241272e+00  -5.475595641576e+01   5.296795775212e+00 
1 -4.842474443500e+01   2.903729920508e+01   1.974994813710e+01 
1 -7.211576992372e+00  -2.298715716107e+01   4.358209578001e+00 
1  2.153492273710e+01   8.336506398487e+01   1.334437456806e+01 
1 -4.019629860814e+01   3.329177020400e+01   3.487689542192e+01 
1  3.835015181612e+01   2.188735878841e+01  -1.334238439289e+01 
1 -6.551755353005e+00  -1.200039387666e+02  -2.603906728646e+01 
8
Step 4800
1 -7.136367442335e+00  -4.079360299001e+01   5.057544869679e+00 
1 -1.531411015622e+01  -6.890771642846e+01   5.042198188167e+01 
1 -4.892183566697e+01   5.663310148033e+00   3.787551189722e+01 
1 -3.814074810912e+01  -5.166661701157e+00   2.965428444459e-01 
1  6.683794872825e+01   1.068305376879e+02   6.250720474065e-01 
1 -4.016578118206e+01   1.396402643487e+01   3.990330908784e+01 
1  3.195060774901e+01  -1.576022326507e+01  -5.080707981839e+01 
1 -1.222141554487e+01  -8.636792271620e+01  -3.492944453850e+01 
8
Step 4900
1 -8.142340437576e+00  -4.879834422435e+01   1.760064842352e+01 
1 -1.662529915129e+01  -4.359401524254e+01   9.661316749766e+01 
1 -2.603459423238e+01   1.474827881732e+01   4.262459794304e+01 
1 -5.176254096950e+01   1.746878000743e+01  -1.890524153729e+01 
1  5.435438132301e+01   1.044835027033e+02  -3.909034166866e+01 
1 -2.810535891417e+01   1.936539621835e+01   3.182775516912e+01 
1 -1.284372707092e+01  -2.759401485168e+01  -2.110098010658e+01 
1 -1.902625754312e+01  -5.222230077618e+01  -2.342532870729e+01 
8
Step 5000
1  3.227919513066e+01  -4.628700615676e+01   9.372041801271e+00 
1 -3.866432187857e+01  -5.386451817271e+01   1.031294524180e+02 
1 -4.585353758033e+01   2.110859025643e+01   6.418511326856e+01 
1 -4.567569240832e+01   4.432717426727e+01   5.099135237892e-01 
1  1.413802170361e+01   5.047114882691e+01  -3.780692979331e+01 
1 -3.864085691183e+00   2.402981659095e+01  -1.525231759799e+01 
1 -1.723671470993e+01   4.357134155003e+00  -1.288965681797e+01 
1 -5.644415429392e+01  -4.262929216669e+01  -2.966544444129e+01 
8
Step 5100
1  5.477358161556e+01   2.643650270460e+00   2.087326023697e+00 
1 -4.859391997330e+01  -4.137577292371e-01   7.455601009926e+01 
1 -3.463007780128e+01   7.739785114026e+00   4.023327936901e+01 
1 -2.260150232829e+01   4.920567271292e+01   8.375145393929e+00 
1 -2.132532201829e+00  -3.701570489632e+00   3.909307243944e+00 
1  1.195899572067e+01   9.231678131208e+00  -9.066724444859e+01 
1  1.829319350122e+01   2.916480105450e+01   8.153146085574e+00 
1 -6.594301640298e+01  -5.618515634824e+01  -4.434518646822e+01 
8
Step 5200
1  5.516156545935e+01   2.974661636096e+01   6.669678687542e+00 
1 -1.957299592392e+01   4.516106531616e+01   5.453503653856e+01 
1 -3.415411370619e-01   5.790515726546e-01  -1.106850743145e+00 
1  6.458720252148e+00   4.908087473713e+01   1.120022388242e+01 
1  1.946745914703e+00   2.714510123418e+00   3.508710341146e+01 
1  1.125543522989e+01  -3.852808334845e+00  -5.473723143296e+01 
1  4.151650565638e+00   2.699100998618e+01  -1.948057435352e+01 
1 -5.038497530448e+01  -5.968182350350e+01   3.777688380020e+00 
8
Step 5300
1  2.116209035166e+01  -5.091272313176e+00   2.270551970260e+01 
1 -1.336718300070e+01   6.399606192573e+01   3.523612922467e+01 
1  5.484167013084e+00  -1.341925858803e+01  -1.204247074305e+01 
1  3.794384371822e+01   2.472104127066e+01   3.178975604159e+01 
1  4.586026060153e+00   2.369968649644e+01   3.296814692880e+01 
1  2.121168077233e+01  -1.738383929740e+01   2.617888863587e+01 
1 -8.358432067306e+00   2.974203288551e+01  -4.843525290229e+01 
1 -1.668298327784e+01  -5.706758323382e+01   1.542159751167e+01 
8
Step 5400
1  1.349558748157e+01  -4.807824378710e+01   2.153736206599e+01 
1 -2.344075159026e+01   4.701814738786e+01   5.066282674891e+01 
1  1.190749415987e+01  -6.239302565832e+00  -2.265637542372e+01 
1  6.056786022861e+01   1.096571728171e+00   5.362578370774e+01 
1 -9.421154570422e+00   2.238248882607e+00   1.524995573794e+01 
1  3.503787556518e+01   1.286257145821e+01   6.708215139614e+01 
1  1.478783564549e+01   1.561294610693e+01  -2.023569772439e+01 
1  2.742039665574e+00  -3.559141345782e+01   1.067648550902e+01 
8
Step 5500
1  3.182478542825e+01  -7.838064784127e+01  -8.777328079852e+00 
1 -1.352583084189e+01   3.659343304440e+01   2.520612105766e+01 
1 -5.098886712184e+00   7.304326283946e+00  -1.405793882384e+01 
1  5.946317942090e+01  -4.074781528081e+01   4.658675303520e+01 
1 -3.289871993518e+01  -1.424669319769e+01   3.784657474233e+01 
1  1.532003188176e+01   3.290457631285e+01   4.351256842570e+01 
1  6.033117896133e+01  -4.191947310317e+01   6.147375010351e+00 
1  1.174316714959e+01  -2.129886270882e+01   3.283179410018e+00 
8
Step 5600
1  4.092398538325e+01  -5.866906206801e+01  -3.558289841368e+01 
1 -6.314105610008e+00   4.513011385912e+00   2.036417591786e+01 
1 -2.457615448827e+01   2.637726226838e+01   9.588993011720e+00 