8
Step 0
1 1  2.375943488016e+02  -1.480223336209e+02   1.589121402850e+02 
2 1 -1.067078471211e+02   1.323836513967e+02  -2.788207799486e+02 
3 1 -2.892588650908e+01  -2.099513818476e+01   1.229494998605e+02 
4 1 -2.431110455995e+02  -3.910494945763e+01   1.403208948989e+02 
5 1 -6.674579459913e+01   6.462618718242e+01   1.884644784966e+00 
6 1  9.746756801194e+00   1.128339223835e+02   1.492581394598e+02 
7 1  3.031961415281e+02  -2.181447178628e+02  -1.083810579019e+02 
8 1 -1.369124070865e+02   2.273844800461e+02   3.111753005513e+02 
8
Step 100
1 1 -1.664510618685e+03  -2.944335497812e+01  -6.820778646841e+02 
2 1  9.855871312663e+02   1.367956201262e+03  -2.236506732476e+03 
3 1 -1.993584011544e+03   1.264015405635e+03   1.436351723561e+03 
4 1 -2.448575114679e+01  -2.615423051527e+02  -4.754242513983e+02 
5 1 -4.008419849668e+02   7.335489301666e+02   1.455792813707e+03 
6 1  1.636285016470e+03   9.669807859781e+02   6.468946366960e+02 
7 1  1.126514359500e+03   4.057843010590e+02   3.324161153895e+02 
8 1  1.384021169055e+03   1.069608371784e+03   4.090569876368e+02 
8
Step 200
1 1 -1.737825578498e+03   9.554866976520e+01  -9.807469911893e+02 
2 1  1.044011478951e+03   1.503261906608e+03  -1.854451360621e+03 
3 1 -2.056926478698e+03   1.626233439498e+03   1.545173592452e+03 
4 1  2.077721946609e+01   1.711328303648e+02  -3.810474913061e+02 
5 1 -2.903996200980e+02   6.271420774990e+02   1.448667090504e+03 
6 1  1.596692058711e+03   4.422477735954e+02   6.432654482717e+02 
7 1  1.168661676662e+03   5.220624769674e+02   4.885755999940e+01 
8 1  1.320374747744e+03   1.165569468266e+03   5.363368461500e+02 
8
Step 300
1 1 -1.258854768410e+03   1.037090758177e+02  -1.003946253745e+03 
2 1  9.674555572775e+02   8.022921497456e+02  -1.129021795741e+03 
3 1 -1.623757609298e+03   9.194546222223e+02   1.119836726182e+03 
4 1 -2.567933660276e+02   5.142596779743e+01  -1.376439627785e+02 
5 1 -2.303537688643e+02   2.056867668117e+02   1.148605397827e+03 
6 1  1.064565671728e+03   5.484861675899e+02   4.250181322729e+02 
7 1  8.827613868874e+02   3.518750931044e+02   3.321529625803e+01 
8 1  8.308600668591e+02   1.178678808812e+03  -4.573235273454e+01 
8
Step 400
1 1 -6.278677003847e+02   1.554593722800e+02  -1.014996313092e+03 
2 1  6.035233537947e+02  -9.062303346639e+01  -4.691106369070e+02 
3 1 -9.028719826093e+02   6.610391885238e+02   7.346894866208e+02 
4 1 -4.410589999867e+02  -1.836012971908e+02  -9.377406580235e+01 
5 1 -9.930271354954e+01   1.871144193120e+02   4.702772004057e+02 
6 1  4.965271089416e+02   2.043290354337e+02   3.451466900629e+02 
7 1  7.493116224725e+02   9.754363727234e+01   2.178798040919e+02 
8 1  2.979582755380e+02   6.703887106601e+02   2.362309695695e+02 
8
Step 500
1 1 -5.974262745523e+02   7.738036202531e+01  -4.019639303895e+02 
2 1  1.952790004717e+02  -2.827747960052e+02   2.111213649581e+02 
3 1 -3.967252034552e+02   1.030825231509e+02   1.677054807763e+02 
4 1 -3.854802247911e+02  -3.355694088489e+02   1.042801107398e+02 
5 1 -3.061776046599e+02  -2.200463643522e+02   2.827075006776e+02 
6 1  2.968137494571e+02   2.814788471477e+02   1.804731505090e+02 
7 1  5.169130724864e+02   1.291736691910e+02   3.871080690719e+02 
8 1 -2.011101667193e+02   7.622035689853e+02   1.330467611766e+01 
8
Step 600
1 1 -2.030269228139e+02  -2.688823595820e+01  -5.445209424846e+02 
2 1 -5.870751986943e+01  -9.388925187930e+01  -3.651386194165e+01 
3 1  5.560934799388e+01   5.875325540701e+01   5.027241505413e+02 
4 1 -1.775179069950e+02  -4.135907499784e+02   4.388982234756e+02 
5 1 -6.557118958157e+01  -1.171977570840e+02   1.218831321115e+02 
6 1  2.045022425001e+00  -5.015821733748e+01   5.044318685049e+01 
7 1  3.691674494744e+02  -4.216944701622e+01   5.125180853149e+02 
8 1 -1.829551898894e+02   5.162039839662e+02  -3.228549902815e+02 
8
Step 700
1 1 -2.583577329158e+02  -2.806382796288e+02  -5.385681946965e+01 
2 1 -9.048642520221e+01   3.245617225657e+02  -1.975151208851e+02 
3 1  2.422427353423e+02  -1.116585852285e+01   5.043110088163e+02 
4 1  8.018422082328e+01  -8.280194262167e+01   2.723684001367e+02 
5 1  3.685005839117e+01  -9.768306357636e+01   7.141037010226e+01 
6 1  9.181802898702e+01   1.746492399057e+02   7.234173584715e+01 
7 1  6.151576632550e+01  -2.836697426972e+02   5.199410917166e+01 
8 1 -3.173090666328e+02   4.256936347709e+02   7.227913065207e+01 
8
Step 800
1 1 -9.747952256937e+01  -2.951801476943e+02  -4.463136624966e+01 
2 1  3.742119595100e+02  -5.938275824708e+01  -1.240951232682e+02 
3 1  3.210641147908e+02   1.550057338028e+02   3.233036055795e+02 
4 1  4.949610487942e+01   1.194341231054e+02   1.226999824016e+02 
5 1  2.734929953600e+01   4.614462691021e+01   5.900614295649e+01 
6 1 -9.071069205935e+01   1.805338966165e+01   5.061491587133e+02 
7 1 -2.754717303581e+01   1.816812619062e+02   2.265583049495e+02 
8 1 -3.570759666630e+02   1.074718255522e+02  -4.651578809569e+01 
8
Step 900
1 1  1.064596055926e+02  -1.819649027599e+01  -8.111876945477e+01 
2 1 -2.994750105133e+02   8.287223387553e+01  -3.349593378289e+02 
3 1 -1.138667587107e+02   1.840545051613e+02  -2.211441262980e+02 
4 1 -3.562033231192e+01  -1.770472209826e+02  -5.768534058866e+01 
5 1  1.873998651289e+02  -5.690243523393e+01  -2.132499187394e+02 
6 1 -2.994133719447e+01  -2.248286089224e+02   3.267517282215e+02 
7 1  9.976204803928e+01   8.509974373406e+01   1.813198718865e+02 
8 1 -5.325581249641e+02   5.611621283836e+01  -2.477919621175e+02 
8
Step 1000
1 1  3.009738371373e+02  -4.018049104262e+02   1.390337278738e+01 
2 1 -3.233027112412e+00  -8.360694802216e+01  -3.372752488978e+02 
3 1 -2.252454643308e+02   2.989375517246e+02  -2.034952334539e+02 
4 1 -1.335029895428e+02  -8.644915276508e+01   7.988172842267e+01 
5 1  8.631837442310e+01   2.895042641943e+01  -2.921524054069e+02 
6 1 -3.568168200542e+00   9.629748680841e+01   2.069715794166e+00 
7 1  1.508915422592e+02   7.193760124205e+01  -1.599010898684e+02 
8 1 -1.360491826822e+02  -5.527414714880e+01  -1.327682751930e+02 
8
Step 1100
1 1  3.149670688647e+02   1.974905578461e+02  -5.299082364133e+02 
2 1 -1.679844128615e+02   1.537974807599e+02  -5.280702492963e+02 
3 1  1.179504014401e+02   9.074076615060e+00   1.411851764687e+02 
4 1  3.681456370200e+02   1.506486811242e+02   2.349817098417e+02 
5 1 -7.262377513244e-01  -1.068694913971e+02   2.812264962619e+02 
6 1  2.612819302890e+02  -8.004397086808e+01  -1.376625078785e+02 
7 1  6.603005751642e+01   6.324627096700e+01  -1.010952878619e+01 
8 1  4.149620779460e+02   1.112121055024e+02   5.560699854747e+01 
8
Step 1200
1 1 -1.871951303302e+01   1.760308050438e+00  -1.921298956586e+02 
2 1  5.637301867131e+01  -2.004971565273e+02   1.319016783428e+02 
3 1  3.975132285737e+01   4.789774132376e+00   3.074727473700e+02 
4 1  2.003194435676e+02   7.702064855319e+01  -2.844981612239e+02 
5 1 -3.616882014026e+02  -5.115145472251e+02   2.783767040007e+02 
6 1  2.765663339755e+02   2.895236723757e+02   6.596160062988e+01 
7 1  2.342288846482e+02  -8.455159792407e+01   4.125112292305e+00 
8 1  9.852206335652e+01   2.734670829084e+02   2.841060642304e+02 
8
Step 1300
1 1  1.357557046065e+02   4.217034870141e+02   4.753497820463e+01 
2 1 -1.236958780298e+02  -4.670352799120e+01   8.114392370502e+01 
3 1  1.865969985967e+02   6.947702357864e+01   1.840509096891e+02 
4 1  1.336792811596e+02   1.845086356391e+02  -2.152388979041e+02 
5 1  7.130317246258e+01   7.804128121963e+01  -1.438356530099e+01 
6 1  2.229764976789e+02   8.499932448178e+00   4.446610099485e+02 
7 1  6.622697062466e+00   1.901826509652e+02   2.231588337896e+02 
8 1  5.124784181297e+02  -1.647644071848e+01   3.540814054307e+02 
8
Step 1400
1 1 -2.455720378582e+02  -1.893497354190e+02   1.168198868004e+02 
2 1 -9.563261883018e+01  -1.620074274877e+02  -7.900897719622e+01 
3 1 -2.828201154235e+02  -9.199606560979e+01  -2.278873956145e+02 
4 1  8.906004556156e+01   5.313452087577e+01  -2.212285501762e+00 
5 1  8.291160187630e+01   1.579881082495e+02   5.933577735907e+01 
6 1 -1.710544041857e+02  -5.610726786623e+01   1.011972666164e+01 
7 1  3.801547140787e+02   9.472772865935e+00   3.567235133499e+02 
8 1  1.563059092073e+00   3.268850394662e+02   3.105435221209e+02 
8
Step 1500
1 1 -3.514677355851e+02   1.655257777200e+02   7.226440734582e+01 
2 1 -7.305968678721e+01  -1.819202518788e+02   1.209062577141e+02 
3 1 -8.712325181785e+01  -1.915592971239e+02  -1.937710552296e+01 
4 1 -2.753890690421e+02  -1.043207448536e+02   1.804862613187e+02 
5 1 -1.360110872040e+02   6.922751197362e+02   4.625154360145e+01 
6 1 -1.722835446675e+02  -1.910269372020e+02  -1.164690108095e+00 
7 1  1.991892792742e+02  -1.484189854905e+02   3.196571329517e+02 
8 1 -3.847285151091e+02   1.079375904190e+02  -1.249438036646e+02 
8
Step 1600
1 1  1.879382352712e+01  -7.541709560294e+01   2.359546359801e+01 
2 1  3.899037807683e+01  -1.691440513727e+02   3.848755791673e+01 
3 1  6.861968561364e+01   2.882985959936e+02  -1.747242464962e+02 
4 1  3.079102885377e+02  -8.536205531871e+01   1.969023499986e+02 
5 1 -1.955039686959e+02   3.032542505493e+02  -3.223484962663e+02 
6 1 -1.345699357127e+02  -1.418666501991e+02  -1.154567735299e+02 
7 1  1.080073800229e+02  -2.485663566839e+02  -6.527225594880e+01 
8 1 -2.288177078033e+02   1.705655496206e+01  -1.713332267909e+00 
8
Step 1700
1 1  3.705869212656e+02   1.385099669945e+02  -2.270336383230e+02 
2 1  2.130322452792e+02  -1.506629969542e+02  -2.078660290279e+02 
3 1  3.980858903463e+01   1.044591232108e+02   1.335356861500e+02 
4 1  2.378132842797e+02   8.464010475508e+01   1.430710228467e+02 
5 1  1.340363869753e+02  -2.868390714747e+01  -5.910397379105e+01 
6 1  1.313568545241e+02  -2.171066077792e+02   3.829948935294e+01 
7 1 -1.371642512907e+02   1.531531580772e+02   3.514138460427e-01 
8 1 -7.792196843477e+01  -4.209292615707e+02   4.671666291808e+01 
8
Step 1800
1 1  1.370171440630e+02  -1.847274717628e+02  -3.341862916456e+02 
2 1  5.024175425668e+01  -1.202518044255e+02  -2.883464668836e+02 
3 1 -5.079795958744e+01   2.084833167648e+02   1.121721799450e+02 
4 1  1.489994407533e+02  -1.338999472696e+02   1.173658816097e+02 
5 1 -3.445138980325e+01  -1.400599231026e+02   2.202955395415e+02 
6 1  1.788822306957e+02  -7.152496264469e+01  -1.096413865953e+02 
7 1 -1.399560502423e+02   3.072677656804e+02  -7.983068380993e+01 
8 1  1.482110497674e+02   3.878945691988e+01   9.189178160243e+01 
8
Step 1900
1 1 -2.860497897575e+01  -8.449209867639e+01   3.691870003092e+01 
2 1 -1.019998839928e+02  -2.990157066054e+02   2.359355267143e+02 
3 1 -3.223338517977e+01  -5.555190936205e+01   5.829734161383e+01 
4 1  1.472372100434e+00  -7.340673904974e+01  -7.866226207879e+01 
5 1  1.579168022371e+02  -1.127643295081e+02   2.487641013590e+02 
6 1 -1.607238167008e+02   1.605150136946e+01  -2.376259343510e+01 
7 1 -1.021293069284e+02  -6.923191853715e+01   1.795093704870e+02 
8 1  3.176396739826e+02   3.690001860655e+02  -2.087574342018e+01 
8
Step 2000
1 1  3.594886544766e+01  -1.837635445591e+02  -5.647173078589e+01 
2 1 -1.056211468895e+00  -4.907137064028e+02   4.169082846946e+02 
3 1 -1.129495484257e+02  -3.604652000805e+01  -1.293927756040e+02 
4 1 -7.386940409513e+01   7.329977048052e+01   8.643890613344e+00 
5 1  3.237464195116e+02  -1.606201302366e+02  -2.907601751045e+02 
6 1 -5.742891515866e+01   2.417419714602e+02  -3.296434400611e+02 
7 1  2.226470634687e+02  -3.191494962773e+02   2.830926563860e+02 
8 1 -1.289065941775e+02   5.180555070239e+01   1.155914085655e+02 
8
Step 2100
1 1  4.707817374991e+01  -8.133756027841e+01  -1.790573509636e+01 
2 1  2.216630036656e+01  -5.421908553556e+01   1.101093432408e+02 
3 1 -2.590443616280e+02  -3.915936244603e+02  -9.026590369309e+01 
4 1 -1.536629942836e+02  -1.004598450502e+02  -1.579459940209e+00 
5 1  4.766989749464e+02  -1.246519158340e+02   1.571668205307e+02 
6 1 -1.419991630601e+02  -1.810207193532e+02  -3.701649097112e+01 
7 1  1.301975275948e+02  -6.639969091925e+01   8.822883872272e+01 
8 1 -1.386764406684e+02   2.935009832842e+02  -1.214165321765e+02 
8
Step 2200
1 1 -1.858254915699e+02  -4.178050173945e+01   6.913368963827e+01 
2 1 -1.677292843577e+02  -4.287986114485e+02   3.309850653262e+02 
3 1 -1.534039993975e+02  -3.288805440116e+01  -1.246913470388e+02 
4 1 -2.418605370046e+02   1.031219487465e+02   2.107878832999e+02 
5 1  8.487423618416e-01  -2.391672988278e+02   5.632215272118e+01 
6 1 -8.642124553768e+01  -5.752366214917e+01   3.596210044570e+01 
7 1 -1.480512149046e+02   1.259314153719e+02  -2.252910153024e+02 
8 1  4.544987042149e+01   2.357896786609e+02   2.678349052758e+01 
8
Step 2300
1 1 -2.225286695712e+02  -1.237117882937e+01   3.249946629386e+02 
2 1  9.340620286349e+01  -1.370763574163e+02  -3.736554811577e+01 
3 1 -1.092851062645e+02   1.220937347246e+02  -4.465553826638e+01 
4 1  4.460078226181e+01   1.301624098384e+02  -8.239452030351e+01 
5 1  2.780028483566e+02  -3.015879288761e+02   2.117763945418e+02 
6 1 -3.921916129892e+01  -1.270240179282e+02  -1.813482481702e+02 
7 1 -1.177937449316e+02   3.027131357017e+02   3.361358995929e+01 
8 1 -1.857484396982e+02   6.678248097933e+01  -2.718839364615e+02 
8
Step 2400
1 1 -1.834655979162e+02   3.368393331937e+02  -9.093688869191e+00 
2 1  1.490647914740e+02   1.237531049109e+02  -2.473403767187e+02 
3 1  3.604280713624e+02  -6.406762947616e+01  -1.033248010695e+02 
4 1 -2.302267379659e+02  -4.990125549402e+01   3.159226039187e+02 
5 1 -2.424470382811e+02  -2.518296655630e+02   1.000854110944e+02 
6 1  1.083945130228e+01   4.102558332888e+01   2.101346677798e+02 
7 1 -2.274321484521e+02   2.470661185030e+02  -4.119008160593e+02 
8 1 -6.245048467072e+01   1.020933884281e+02  -3.078540752086e+02 
8
Step 2500
1 1 -2.519534922631e+02   2.459077791230e+02  -5.557419812663e+01 
2 1  2.757103612522e+01  -8.859863346017e+01  -1.757059024348e+02 
3 1  4.605350256886e+02   2.583405343118e+02  -5.685032199467e+01 
4 1 -7.714569806797e+00   1.361408188720e+02   3.818449398278e+01 
5 1 -1.993558739218e+02   7.704718840924e+01   4.685502469460e+01 
6 1 -2.649451482266e+02   4.774185390340e+02   4.595849906011e+02 
7 1  4.780154986966e+01  -3.606197433974e+02  -1.383749504843e+02 
8 1  2.831356601199e+02  -7.836357001522e+01  -1.603752127195e+02 
8
Step 2600
1 1  7.233643317426e+01   2.031411468438e+02  -3.023658314052e+01 
2 1  9.130577660447e+01   2.860574275873e+02   1.038140232211e+02 
3 1  9.244124625737e+01   1.956335545171e+02  -1.249629713707e+02 
4 1 -1.135530249856e+02  -7.789819604802e+01  -1.863491262675e+02 
5 1 -3.497071294907e+02   1.364313892191e+02   3.841693969507e-01 
6 1 -2.713456305506e+01   9.824237368511e+01   2.823227754797e+02 
7 1 -1.778594909456e+02  -4.761372721860e+02  -2.604052536585e+02 
8 1  8.427647339388e+01  -5.673894767634e+00  -8.636138105357e+01 
8
Step 2700
1 1  1.786069547518e+02  -1.140015515474e+02  -6.809612298594e+01 
2 1 -1.058605088224e+02   3.304025370726e+02  -1.201384275031e+02 
3 1 -7.300641933799e+01  -1.215195155151e+01   3.998678554416e+01 
4 1 -1.793346171391e+01   3.078035344835e+02  -1.596487203484e+02 
5 1  4.255607494657e+01   1.480848887854e+02  -2.306952264333e+02 
6 1  1.400777498036e+02   8.269094761983e+01   1.407195531716e+02 
7 1 -1.815711591332e+02  -5.663882217071e+02   1.274423137899e+01 
8 1  1.730258733776e+02  -1.002204139146e+02   3.375146269700e+02 
8
Step 2800
1 1  4.148541867377e+02   1.242478735392e+02   3.223124473970e+02 
2 1  2.115503571665e+02  -7.673825109894e+01  -9.043546664660e+01 
3 1  7.090294089969e+01  -3.405378910494e+01   7.707084641857e+01 
4 1 -1.713459584661e+01   1.888349749484e+02   5.295231364920e+01 
5 1  2.138710324133e+02  -1.043103036149e+01   8.894775230670e+00 
6 1  2.614944104369e+02   1.019944801790e+02  -3.597892112304e+02 
7 1 -5.434406201761e+01  -1.028731461352e+02  -3.296536426050e+01 
8 1  6.872447027047e+01  -1.231574459854e+02   3.585915363745e+02 
8
Step 2900
1 1  1.585929328436e+02  -5.847332988053e+01   4.697270512129e+01 
2 1 -3.335915876843e+01   1.261964484952e+02   1.653335194373e+02 
3 1  1.047593732733e+02  -2.594048912639e+02   7.904659604268e+01 
4 1  7.760432355542e+00   1.079197555401e+02   2.561872272747e+01 
5 1  2.226393541129e+02  -4.927016256709e+01   2.147161172440e+02 
6 1  1.366386529920e+02  -1.979785973229e+02   1.747782648164e+02 
7 1 -2.972246079869e+02   2.601956098464e+02  -1.299933509082e+02 
8 1  3.006370051253e+02  -4.152062964495e+02   8.674651396841e+01 
8
Step 3000
1 1 -4.165277687446e+01  -2.102391040171e+02   2.478192697689e-01 
2 1  1.450219930789e+01   1.216133988391e+02  -2.133427878285e+01 
3 1 -8.151916238392e+01  -2.335825677295e+02  -1.086888412083e+01 
4 1  3.399841854630e+02  -6.138048125494e+01   4.351327657972e+01 
5 1  1.213961793245e+02  -3.147080698114e+02   9.523680626848e+01 
6 1 -7.117132040072e+01   4.948158458602e+00   1.168859203669e+02 
7 1  2.276867888023e+01   1.102179330665e+02   1.415117817904e+02 
8 1  1.731587295417e+02  -4.742304337769e+02   2.175686073833e+02 
8
Step 3100
1 1 -3.263337256007e+02   7.295856873819e+01  -2.746125537105e+01 
2 1 -1.148602564000e+02  -8.748998574176e+01  -1.573487098538e+02 
3 1 -3.161686182662e+01   3.830420790637e+01   1.419365917723e+02 
4 1 -1.953453866152e+02  -1.805377382070e+02  -2.496092691225e+01 
5 1 -2.884291052023e+01  -6.949521571461e+01  -1.917088470581e+02 
6 1 -1.766961834964e-02  -5.032717198981e+01   1.466727055409e+02 
7 1  7.454552912887e+01   2.802591805540e+02  -1.702625114560e+01 
8 1  1.376270776946e+02  -1.629042981354e+02  -3.519668475332e+02 
8
Step 3200
1 1 -2.780044621541e+02   1.246393633958e+02  -9.145261725106e+01 
2 1 -2.446700903604e+02   1.508844635086e+02   1.891073377464e+02 
3 1  2.208861440395e+02   5.917201785069e+01   1.424130072814e+02 
4 1  4.028097689360e+02  -4.989326730889e+01  -7.136299419858e+01 
5 1 -1.359647521884e+02  -1.614582005133e+02  -2.579546197239e+02 
6 1 -8.960707988774e+01  -1.967801327697e+02  -3.620540781981e+02 
7 1  8.959665210431e+01   3.297714176374e+02   7.415790302203e+01 
8 1 -1.060376657701e+02  -9.686482822709e+01   2.465181929884e+02 
8
Step 3300
1 1  1.195900098935e+01  -1.208753922204e+02   1.459520175673e+01 
2 1 -3.053334858423e+02   1.387537831470e+02   2.649909702481e+02 
3 1 -1.641732629854e+01  -4.855771522293e+01   4.364897880949e+02 
4 1 -2.211824637843e+02  -2.775981518881e+02   2.018973338466e+02 
5 1 -2.003089534253e+02  -2.745360975547e+02  -2.428665357047e+02 
6 1 -3.587125227916e+02  -1.121977745674e+02  -2.903410466573e+02 
7 1  2.912055841620e+02   2.274159899366e+02  -4.289033358760e+01 
8 1 -4.463177698381e+02   1.668955378997e+02  -9.614266946619e+01 
8
Step 3400
1 1  2.607677578426e+02   1.046304252322e+02  -1.032027005799e+02 
2 1  2.348006672975e+02   4.576544553419e+02   2.229559704631e+02 
3 1  1.656104107360e+02   2.131184933483e+02  -1.159315642591e+02 
4 1 -2.908011991331e+02  -3.789884512914e+02   2.099960763170e+02 
5 1 -1.503700766417e+02  -5.438607358024e+01   2.383574760947e+02 
6 1 -2.031220834713e+02  -7.820592193134e+01  -2.231984831896e+01 
7 1 -2.438247583574e+02  -1.176358102782e+02  -1.743940297665e+02 
8 1 -1.402117145630e+02   2.517190757927e+02  -9.319705318007e+00 
8
Step 3500
1 1  1.624361647030e+02  -1.229356124659e+02   5.655084044853e+01 
2 1  4.940776862202e+01  -1.504181885368e+02   1.581103328528e+02 
3 1 -2.810487634811e+02  -1.175017974864e+02  -2.754084279779e+02 
4 1  2.000761609982e+01  -2.707708975544e+02   2.494171753622e+02 
5 1  2.894649391939e+02  -1.061999959218e+02   2.084904617490e+02 
6 1 -2.444510113156e+02  -2.190259405343e+02   2.214033493283e+02 
7 1 -3.806542265375e+02  -3.271649934107e+01  -1.428836581316e+02 
8 1 -9.232947295032e+01   4.876101293037e+02   1.653623687758e+02 
8
Step 3600
1 1  2.607018535283e+02  -1.333093027194e+02   5.807075826060e+01 
2 1 -2.148747783271e+02  -8.613006299103e+01  -1.592430068063e+02 
3 1  2.629383485341e+02  -4.103606898798e+01  -6.623123944382e+01 
4 1  3.390103897638e+01   1.592515895309e+02   3.044159771986e+02 
5 1  2.636656125796e+02   5.591900075385e+01   2.363248695516e+02 
6 1  1.745692355625e+02   2.699083095597e+02   2.468609011147e+02 
7 1 -1.685640614245e+02   4.631442994464e+01   2.399230561325e+02 
8 1  2.133054646363e+02   2.755193134519e+02   2.456864956517e+02 
8
Step 3700
1 1 -4.917978013247e+02   3.903902329585e+02  -1.286000947950e+02 
2 1  2.644499802697e+02   9.686285207558e+01  -1.792618273900e+02 
3 1  2.970728584634e+01   1.291457694535e+02   1.427575356450e+01 
4 1  6.132004152630e+01   1.104542266228e+02   1.004743530236e+02 
5 1  1.552460532869e+02   1.914913314825e+02   2.728011742173e+02 
6 1  2.133357846330e+02   2.482329263130e+00   2.324104385378e+01 
7 1  2.132740070651e+02   7.253825900168e+01  -4.294260799494e+01 
8 1 -1.877612439564e+02   1.209419378102e+01   3.892794442050e+02 
8
Step 3800
1 1 -3.247315320112e+02   2.567814605057e-01   5.059686927637e+01 
2 1 -1.864371400791e+02   2.679402761584e+02  -8.444350666771e+01 
3 1  4.060802821257e+01  -9.403632980980e+01   1.492399513060e+02 
4 1 -1.352593045575e+02   1.052720925907e+02  -2.124637401812e+02 
5 1  1.129063790506e+02   7.178030284553e+01   4.926219045226e+01 
6 1 -4.207886176632e+00  -2.618359147941e+01  -3.116354120458e+02 
7 1  1.515971204116e+02   8.487861983764e+01   2.846965429619e+02 
8 1 -1.316811952089e+02   2.501781008322e+02   1.471049611309e+02 
8
Step 3900
1 1 -6.476855912601e+01  -3.261113722826e+02  -1.263983041080e+02 
2 1  8.284158702258e+01   2.057477881824e+02  -6.974406431405e+01 
3 1  1.544506927526e+02  -6.947250733658e+01   6.040986787142e+01 
4 1 -4.551586710148e+02  -9.545401501639e+00  -1.755067136552e+02 
5 1 -1.574653822727e+02  -1.577518485164e+00  -4.529909469332e+02 
6 1 -3.624261365927e+01   1.140192373062e+02  -1.999632163715e+02 
7 1  3.214842938166e+01   1.823329090786e+01  -3.643835092826e+01 
8 1  7.335733515724e+01  -1.492682984482e+02  -1.972583907137e+02 
8
Step 4000
1 1 -1.823277989336e+01   1.647155034520e+01  -1.919658176585e+02 
2 1  4.695179210394e+01  -3.344443145022e+02  -1.293555489742e+02 
3 1  3.737233436881e+01  -5.251619206804e+01  -1.096487962840e+02 
4 1 -4.309828697894e+02  -4.272098537712e+01  -3.639667906511e+01 
5 1 -1.374763625555e+02   4.305172841841e+02  -1.526414979638e+02 
6 1  6.041742309488e+01   1.206117162983e+02  -1.565902875269e+02 
7 1  2.559767783406e+02   1.622209868633e+02  -3.185359820201e+01 
8 1  1.255451049685e+02  -2.923158637710e+02  -3.274615136365e+01 
8
Step 4100
1 1  2.228738794279e+02  -1.738816299095e+02  -3.418092852841e+02 
2 1 -3.912416587446e+01  -3.688432074454e+01   2.321551885001e+01 
3 1 -3.379502185546e+01  -1.993248267592e+02   1.444719806322e+02 
4 1 -4.533754118013e+01   5.704691051033e+01   4.597137979689e+01 
5 1 -8.229946207121e+00   1.840671083147e+02  -2.763699491839e+02 
6 1 -5.725235459816e+01  -1.616510441361e+02   2.061080787951e+02 
7 1  1.621585449674e+02   2.031738216577e+02  -2.616373161245e+02 
8 1  9.303435399580e+01  -1.607617287301e+02  -2.708249730232e+02 
8
Step 4200
1 1 -8.339787675274e+01   1.119932189939e+02  -1.481482148223e+02 
2 1  6.632557870097e+01  -1.199043437402e+02   7.438976261401e+01 
3 1 -1.353959146371e+02   3.773268015206e+02  -7.651420291673e+01 
4 1  3.442885245927e+02  -2.959578383751e+02   4.279908182816e+01 
5 1 -3.022244369756e+01  -1.911565521212e+02  -4.502298724940e+01 
6 1  1.598023625071e+02  -1.396344099342e+02   1.886599532909e+02 
7 1 -1.516177265903e+02  -2.853460871594e+01  -2.341968182286e+02 
8 1 -1.760713842800e+02   1.420308426537e+02  -4.995518978198e+01 
8
Step 4300
1 1 -6.911771435000e+01  -6.157682859339e+01   3.162836398935e+02 
2 1 -7.513298907497e+01   9.748677760101e+00   1.115588774972e+02 
3 1 -2.096848400470e+02   9.791300876383e+01  -4.768550117533e+01 
4 1  9.798848397881e+01   3.171751350837e+01  -2.615660225833e+02 
5 1 -2.808954127800e+02  -1.432729279541e+02  -1.129830146185e+02 
6 1  2.377180212420e+02   5.424923767771e+01  -3.195303009613e+02 
7 1  1.793241572112e+02  -3.037386117094e+01  -9.470288296987e+00 
8 1 -9.477015267719e+00   1.616140271044e+02   7.886611730422e+00 
8
Step 4400
1 1  4.502791000751e+01  -2.457149468767e+02   3.508337495400e+02 
2 1 -1.188979745772e+02  -1.276231577134e+02   4.534122563800e+01 
3 1 -1.372472000579e+02   7.955815158370e+01  -2.296111510622e+01 
4 1 -5.823994574103e+01  -1.263631515391e+02  -1.791126858055e+02 
5 1 -1.064269509465e+02  -4.351358741016e+01  -2.528080660833e+02 
6 1  1.470682587217e+02   3.797491468527e+02  -2.783347402611e+02 
7 1  8.077451439268e+01   2.622624706773e+02   2.687461856636e+02 
8 1  9.967150330120e+01   3.360032446423e+02  -2.753151918865e+02 
8
Step 4500
1 1  2.958705218863e+02  -9.604716029881e+01   2.638851260745e+02 
2 1 -9.257324183187e+01   3.501439765741e+02   9.373715762546e+00 
3 1 -1.684145958411e+02  -3.519254782430e+01  -1.457814391855e-01 
4 1  2.641995528933e+01   2.322926319953e+02  -3.485833082227e+01 
5 1  1.319119448381e+02   1.729876156546e+01  -3.595856163634e+01 
6 1 -1.017498921487e+02  -2.412540388962e+01  -2.736549986209e+02 
7 1  4.267287794333e+01  -6.566581369389e+01   1.717964284068e+02 
8 1 -1.641094417203e+02   1.437910919196e+02   1.322319127596e+02 
8
Step 4600
1 1  2.972638232563e+02  -1.390893575869e+02   1.303740305951e+02 
2 1  1.190317699565e+02   2.684002105798e+02  -1.022853768941e+02 
3 1  1.266498451019e+02   1.499324451134e+02  -2.376665438611e+01 
4 1 -8.547039551195e+01  -7.390138083684e+01   6.696162827404e+02 
5 1 -5.733103502148e+01   1.739658975700e+02   1.418460029238e+02 
6 1  2.586753157687e+01  -3.076317425291e+02  -4.784123466067e+02 
7 1 -1.503166187020e+02  -2.124200395074e+01   2.482685760782e+02 
8 1 -1.892463855856e+02  -2.323689915768e+02  -1.794228494534e+01 
8
Step 4700
1 1 -5.434692503418e+01  -1.266897546765e+02   9.615278561630e+00 
2 1  1.802408746018e+02  -1.757757051159e+02  -5.354717678584e+01 
3 1 -2.589961167533e+02   2.125508801345e+02  -1.182375623654e+02 
4 1 -1.582787722206e+02  -8.197064384922e+01   3.746891137339e+02 
5 1  3.290545191481e+02   5.340071724086e+01   1.469396758004e+02 
6 1 -4.740890543451e+02  -3.924418799095e+02  -1.556342197781e+02 
7 1  2.522002388887e+01  -1.581385902792e+02   6.201626206968e+00 
8 1  9.277332340160e+01  -1.884322699265e+02  -1.535501335947e+02 
8
Step 4800
1 1 -3.871460235264e+02  -1.503162157210e+02  -3.132110612815e+02 
2 1  2.772774836486e+02   1.666493034979e+01   1.403798041401e+02 
3 1  1.932860947613e+01   2.411006675352e+02   3.069887373413e+01 
4 1 -5.540436957453e+01   7.611502186904e+01   4.569304966594e+01 
5 1  1.291974861085e+01  -1.748084957446e+02  -5.388296134150e+01 
6 1 -8.045208115326e+01   8.060335017028e+01   2.921828101543e+02 
7 1  2.162641566884e+02   3.856591287762e+02  -2.932191895264e+01 
8 1  2.694700831296e+02  -3.775946396782e+02   2.148786052472e+02 
8
Step 4900
1 1 -4.044212377448e+02   2.452780782464e+02  -2.155057306060e+02 
2 1  6.545614038741e+01  -3.202963648059e+01  -2.984861090095e+02 
3 1 -2.692652785584e+02  -7.762188680503e+01  -2.653494328235e+02 
4 1  1.204677261214e+01   2.423311155407e+02  -2.361336804796e+01 
5 1  2.276942856892e+02   5.838622215195e+01  -9.961176819285e+01 
6 1  3.071461798238e+01  -3.007354381222e+01   4.238339331291e+02 
7 1  1.300836428916e+02  -3.361745258240e+01  -2.211126198854e+02 
8 1 -1.473168527117e+02  -2.597194017615e+02   1.128700672778e+02 
8
Step 5000
1 1  3.500456381314e+02  -4.642714130559e+00   4.125375761938e+01 
2 1 -1.229565537525e+02  -8.807853685874e+01  -1.841886442680e+02 
3 1 -9.849561867657e+01  -3.212657115063e+02  -1.950332000120e+02 
4 1 -3.101198455356e+02  -1.190210765210e+02   1.084234291854e+02 
5 1  1.455037398592e+01  -3.554843652168e+00   1.209667460163e+02 
6 1  2.122143114781e+01   2.880904559532e+01   7.394730672071e+01 
7 1 -9.415064570553e+01  -2.795242785062e+02  -1.842368388778e+02 
8 1  1.312720392202e+02  -2.408564348265e+01  -2.319661587290e+02 
8
Step 5100
1 1 -1.938317933397e+01  -3.516897169984e+02   2.814104506738e+02 
2 1 -3.596658988911e+02   2.117940148605e+02  -2.792447005177e+02 
3 1  1.309953914373e+02  -1.523307839474e+02  -2.518412609871e+01 
4 1 -7.422449906409e+01  -3.547435509086e+01  -1.832712291024e+02 
5 1  2.702921369865e+00   3.109872773428e+01   3.426579263889e+02 
6 1  7.933668487194e+01   1.914403126383e+02  -8.879647836476e+01 
7 1 -1.976285685330e+02  -4.564282597317e+02  -8.734467849083e+01 
8 1  3.078400539646e+02   1.891030155115e+02  -4.281022869986e+02 
8
Step 5200
1 1  1.228348017910e+02  -7.638266955236e+01   2.153614033106e+02 
2 1  8.168275218614e+00   3.291092328047e+02  -1.307625245896e+02 
3 1  1.037799500261e+02  -1.863343122138e+02   9.208541916186e+01 
4 1 -8.342477490264e+01   6.589104583836e+01  -1.727704695388e+02 
5 1 -1.194503100912e+01  -1.325036383452e+02   1.843998216424e+02 
6 1 -3.485203455531e+01  -1.195841737695e+02   2.506621999150e+02 
7 1  1.260759652046e+02  -1.214170152316e+02   4.453996263950e+01 
8 1  4.873556413334e+02  -2.435409061059e+02  -3.633855083646e+02 
8
Step 5300
1 1 -4.991868403093e+01   7.011136654194e+01  -2.713353266797e+01 
2 1 -2.077365763628e+02   3.586407483210e+01   1.088741368753e+02 
3 1  8.657944965923e+01   1.016560298383e+02   6.927674488986e+01 
4 1 -6.804405030031e+01  -1.099207764228e+02  -4.027266298100e+01 
5 1 -1.271899751489e+02  -5.377897607779e+01  -1.361467592416e+02 
6 1  1.677667274705e+02  -2.344589406872e+02   1.322612661001e+02 
7 1  2.280261962218e+01   4.963214803138e+01   1.659053650142e+02 
8 1 -2.305331105716e+02   3.627653648081e+01   3.056044840685e+00 
8
Step 5400
1 1  2.248197376582e+02   1.884896786104e+02  -1.265777225792e+02 
2 1 -8.768896509117e+01  -8.961955939933e+01   1.413706207293e+02 
3 1 -2.189948719128e+00   6.844118572240e+01  -1.934207804630e+02 
4 1  1.469261211071e+02  -2.813115872746e+02  -2.608677230941e+02 
5 1 -1.384961323703e+02   3.220081456497e+02   2.530569675151e+01 
6 1 -1.268296260862e+02  -7.501728028383e+01   3.332429186998e+02 