8
Step 0
1 1 -3.452146408952e+02   6.724366382181e+01  -4.106204836740e+01 
2 1  2.784662863797e+02   2.241177216591e+02   4.505611862686e+01 
3 1  8.747040539653e+01   1.380884544994e+02   2.508621091907e+01 
4 1 -1.141852140715e+02   7.609098694556e+01   2.213810047373e+02 
5 1 -7.044238955515e+01  -2.383838440786e+02   1.362026135186e+02 
6 1  3.828105029755e+02   7.870197521143e+01   1.752849417561e+02 
7 1 -3.828756704762e+02  -1.602396604255e+02  -1.452343288163e+02 
8 1  1.416228667610e+02  -1.956120243919e+02  -2.767155549383e+02 
8
Step 100
1 1  5.451356843276e+02  -4.486209066661e+01  -1.270047399808e+03 
2 1  3.956717513103e+02  -1.799061084551e+03   7.673646284424e+02 
3 1  1.931272869819e+03  -2.191501743376e+02  -8.344386089083e+02 
4 1 -9.729574744401e+02  -1.231741156180e+03   1.179513539446e+03 
5 1  1.704873696923e+02  -8.036178628705e+02  -1.407860872166e+03 
6 1 -9.269616303871e+02  -1.413131398305e+03   5.387309213741e+02 
7 1 -6.470471585665e+02  -7.347413231528e+02   5.841207821063e+02 
8 1 -6.415874518553e+02   8.232087901930e+02  -1.236193382144e+03 
8
Step 200
1 1  8.487597501236e+02   3.383522026981e+02  -1.622957900007e+03 
2 1  5.121097717902e+02  -2.386651659650e+03   1.124472649638e+03 
3 1  2.017024564341e+03  -3.905684793785e+02  -1.055547588603e+03 
4 1 -1.250740663118e+03  -1.378760771222e+03   1.006396633752e+03 
5 1  2.170676847273e+02  -7.213737551508e+02  -1.111420657564e+03 
6 1 -1.110898758716e+03  -1.521047295048e+03   4.299131412753e+02 
7 1 -3.159181519959e+02  -1.061116562767e+03   6.690860307890e+02 
8 1 -5.379439915642e+02   8.785827794724e+02  -1.792378329587e+03 
8
Step 300
1 1  3.403513173148e+02  -1.147434963660e+02  -1.484570981870e+03 
2 1  1.337158817185e+02  -1.528210474083e+03   4.611342645535e+02 
3 1  1.184059850079e+03  -3.598400117665e+02  -7.223637838099e+02 
4 1 -8.126769752202e+02  -1.091153001272e+03   8.905222011866e+02 
5 1 -1.891541929538e+02  -8.364446050269e+02  -1.106146554295e+03 
6 1 -8.921080208914e+02  -1.041638029097e+03   1.789327531890e+02 
7 1 -7.829240639383e+02  -4.884710681491e+02   9.764745121388e+02 
8 1 -3.249384003895e+02   9.146270381744e+02  -1.325582394650e+03 
8
Step 400
1 1  6.330460391770e+02   2.185453935235e+01  -8.387482956125e+02 
2 1  7.693968776033e+01  -3.519460766228e+02  -1.473547869230e+02 
3 1  7.300601763209e+02   2.802812432115e+02  -5.318338614792e+02 
4 1 -6.596763891875e+02  -5.652541509038e+02   5.123951275934e+02 
5 1  5.394394784548e+01  -4.410756690904e+02  -3.997278555553e+02 
6 1 -6.913972836133e+02  -3.240595272695e+02   3.233469115723e+01 
7 1 -8.841391276341e+01  -4.962661571161e+02   7.439235412771e+02 
8 1 -5.782382173804e+02   8.792381193686e+02  -8.411596405179e+02 
8
Step 500
1 1 -8.256720177044e+01   4.181271751952e+01   5.422758084413e+01 
2 1 -1.121364018346e+01   1.821087171696e+02  -8.652885843880e+01 
3 1  4.864785829515e+02   2.798073726533e+02  -1.654263427741e+02 
4 1 -1.576586184924e+02  -4.052448310929e+02   6.253102781486e+02 
5 1  2.534231116069e+02  -3.268812586446e+02  -9.109293456519e+01 
6 1 -3.355611836114e+02  -1.899996164320e+02   2.458099367450e+02 
7 1  2.874386501962e+02   2.704654332618e+02   8.292643114897e+02 
8 1 -3.468229943216e+02   6.442485310200e+02  -5.026912559402e+02 
8
Step 600
1 1  8.804729702467e+01   1.523482477060e+02  -4.142850835854e+02 
2 1  1.895654364527e+02   1.711738704895e+02  -1.758851869142e+02 
3 1 -1.913201393975e+02   2.492232605144e+02  -2.149536951825e+02 
4 1 -2.481966539663e+02  -5.304706669620e+01   1.673762246841e+02 
5 1 -9.099079893160e+01   1.650180140381e+02  -3.528116582433e+02 
6 1 -3.440158412333e+02   6.202072061404e+01   4.068253498417e+02 
7 1  4.154923861378e+02   7.412325986549e+01   4.962055732961e+02 
8 1 -5.993860710103e+02   1.829133540334e+02  -3.649566809224e+02 
8
Step 700
1 1 -6.792332588055e+01  -5.439556339528e+01  -1.358175312554e+02 
2 1 -8.742092545222e+01  -3.612363554750e+00  -2.224808908600e+02 
3 1 -3.231950700114e+02   2.571749467196e+02   3.461640953445e+02 
4 1 -1.354887759923e+02   1.724447969142e+02   9.970934149264e+01 
5 1  3.080846743558e+02   3.515463861411e+01  -1.506700683395e+02 
6 1 -1.833524411480e+02  -2.278163365272e+00   2.961626258295e+02 
7 1  5.223421096545e+02  -1.660869061578e+02  -8.543616586950e+01 
8 1  9.490918034913e+01   6.613701359192e+01  -3.206204867315e+02 
8
Step 800
1 1  3.055369202709e+02   4.240922600758e+01  -5.160730090790e+01 
2 1 -2.429116573377e+02   2.140063886166e+02   1.036384124315e+02 
3 1 -3.278716539489e+02  -2.148287207254e+01   3.382839303086e+02 
4 1 -1.554345160223e+01   3.870162633000e+00   4.550546888278e+02 
5 1 -4.478932023619e+00  -6.925159147750e+01   1.749047909662e+02 
6 1  3.012778867697e+02   9.121383463363e+01  -2.165176958076e+02 
7 1  4.656667363446e+02   7.658030066247e+01  -2.778751718801e+02 
8 1 -1.968260842339e+02  -6.700013354485e+01  -4.306251265700e+02 
8
Step 900
1 1  2.631976155130e+02   2.147958469421e+02   2.275215978762e+01 
2 1  1.265740991482e+02   4.976534085100e+02   1.432460753245e+02 
3 1  1.421153413053e+02   1.407970734953e+02   2.077401286214e+02 
4 1 -1.208368385219e+02  -5.629917962007e+01   4.102223445644e+02 
5 1 -9.926338612749e+01   1.046915504110e+02  -6.999765386111e+01 
6 1  4.463541719791e+02   1.700837348085e+02   1.523097919723e+02 
7 1  2.845400086477e+02   2.516825878845e+02   7.055243923435e+01 
8 1 -4.228708976089e+02   2.959876239328e+02  -1.121127237630e+02 
8
Step 1000
1 1  3.197591194519e+02   1.811929194449e+02  -1.525340400852e+01 
2 1  8.103409196936e+01   1.291247426374e+02  -3.003052320237e+02 
3 1 -3.862173045229e+01  -1.003767292069e+01   3.038589600612e+02 
4 1 -9.893344794395e-01  -2.221129291498e+02  -5.701781202302e+01 
5 1 -3.571175445130e+02  -2.512530346795e+02  -1.610660177498e+02 
6 1  1.997379377864e+02   1.624012012350e+02   2.491542213820e+02 
7 1  2.698724151203e+01   3.640503276584e+02   1.236784939652e+02 
8 1  1.234196277846e+01   2.680711618559e+02  -1.576493912176e+00 
8
Step 1100
1 1 -7.902486147185e+00   2.523067969500e+02   6.619180604386e+01 
2 1 -2.282489136320e+02   8.795581419981e+01  -9.858547377294e+01 
3 1 -1.100736272537e+01  -8.022046490374e+01   1.926164890285e+02 
4 1  2.963782820350e+02  -2.143337511851e+01   1.341459813341e+02 
5 1 -4.076663547746e+02   5.976576730775e+01   2.077334408023e+02 
6 1  1.392716522859e+02  -1.331508660484e+02   1.522978996422e+02 
7 1  1.024428359696e+02   3.225119403401e+02  -1.864497490868e+02 
8 1  6.170715059650e+01   2.777085861998e+00   2.426901106775e+02 
8
Step 1200
1 1 -1.795161127531e+02  -1.378466006204e+02  -1.524629473557e+02 
2 1 -2.206587971175e+02   1.025616190157e+02   4.967374177922e+01 
3 1  2.079728854512e+02   2.649753750037e+02  -2.182539988922e+02 
4 1  2.936167091055e+02   3.098706898045e+02   3.072564158685e+01 
5 1 -5.197294898903e+01  -7.431052849320e+01   1.192489156817e+02 
6 1  8.423406322418e+01  -7.516597844232e+01  -4.945537282556e+01 
7 1  1.535816170963e+01  -1.975941798214e+02  -2.331544742866e+02 
8 1  4.677679580860e+01  -6.425441864510e+01   2.070870045529e+02 
8
Step 1300
1 1 -5.304066489291e+02  -1.511740309385e+02   1.497103303580e+02 
2 1 -2.562141596901e+02  -9.231030326240e+01   1.048519928814e+02 
3 1  2.813454233403e+02   2.932603855810e+02  -2.038643639910e+02 
4 1 -1.492754533903e+02   4.185276532552e+02  -3.606328893133e+01 
5 1 -2.168992231868e+02  -2.194894591250e+02   9.614696066462e+01 
6 1 -2.147690577630e+02  -1.292762402200e+02  -2.456874755624e+02 
7 1 -2.189618973875e+02  -1.706585951677e+02   1.310300039872e+02 
8 1 -4.901560675626e+01   6.550561462046e+01   7.635396827206e+01 
8
Step 1400
1 1 -7.001936445901e+01   1.372854503787e+02   2.280884036830e+01 
2 1  2.309926823533e+02  -1.578524549051e+02   2.054160426823e+01 
3 1 -7.817910532115e+01   7.975555286004e+01  -3.542036132562e+02 
4 1 -2.164502226450e+02   4.301453872845e+02  -6.008115511531e+01 
5 1 -3.230743020231e+02  -2.461764324171e+02   1.540706573140e+02 
6 1  3.700732217141e+01   4.460028290375e+02  -8.089372915555e+01 
7 1 -1.879942936138e+02  -2.141042536125e+02   2.473090622965e+02 
8 1  9.734150842444e+01   1.532339561252e+02  -6.524921763723e+00 
8
Step 1500
1 1  1.492882133040e+02   1.587188002433e+01   1.011506155354e+00 
2 1  2.247427340769e+01  -3.183482050274e+02   2.296107786542e+02 
3 1 -2.243976443554e+02  -1.072042792131e+02  -2.780519497333e+02 
4 1  6.497326684092e+01  -2.061182143568e+02   7.130874485061e+01 
5 1 -2.629293623239e+02  -1.005257459327e+02  -1.718554704985e+01 
6 1 -2.201521483422e+02  -2.866671956905e+02   1.228051110003e+02 
7 1 -1.517484019173e+02  -5.342310856970e+01   2.097690115173e+02 
8 1 -2.285023501643e+02   9.760392693866e+01   1.608397181383e+02 
8
Step 1600
1 1 -9.270048882882e+01  -9.658806317208e+01   4.748539268644e+01 
2 1 -9.381710629298e+01  -2.110579998552e+01   1.422856416311e+02 
3 1 -3.022849305951e+02  -3.744685668114e+02  -7.061521249862e+01 
4 1  1.081954722690e+02   6.111844012143e+01   9.994372576895e+00 
5 1  2.387188690046e+02   1.057106559501e+02   4.700594380059e+01 
6 1  8.943998003965e+01  -2.113763552198e+00   1.328436201014e+00 
7 1  1.100941028639e+02  -7.125654740799e+00   2.994176027098e+02 
8 1 -1.086286432816e+02   1.728443373128e+02   1.100508254181e+02 
8
Step 1700
1 1 -1.313566866624e+02   2.049086211876e+02  -2.493483455842e+02 
2 1  1.695389353547e+02  -1.506048604943e+02  -3.303789787486e+01 
3 1 -5.466686702706e+01  -4.446575204333e+02  -2.093889014025e+02 
4 1  3.672420144194e+02  -2.043975600631e+01  -2.940352884589e+02 
5 1  2.000211891493e+02   1.474294200400e+02   2.216899088388e+02 
6 1 -3.908488492173e+01   1.204998523191e+02   1.054083138312e+02 
7 1  2.546621730095e+02   2.473573761597e+02   3.220393977505e+02 
8 1 -1.933306488541e+01   1.235533685384e+02  -3.900117995509e+02 
8
Step 1800
1 1  1.586581448991e+02   4.317094198332e+02  -5.976612334029e+01 
2 1 -2.971042288780e+02  -2.816560859206e+02  -1.629371881918e+02 
3 1  8.288791179483e+01  -2.238391149704e+02   8.210501070035e+01 
4 1  1.342727511964e+02  -2.673054064444e+02  -4.010072859014e+02 
5 1  2.656479486745e+02   2.742593075543e+01  -1.033489863340e+02 
6 1 -2.482467245185e+02  -6.893389043020e+01  -8.864774894975e+01 
7 1 -2.068494834354e+02   3.962856598930e+00   4.235969548998e+02 
8 1  5.684425834805e+01   1.486698638480e+02  -3.555184084371e+02 
8
Step 1900
1 1 -6.838554690334e+01   7.636384666153e+00  -2.051580261108e+02 
2 1 -1.682155235084e+02   9.401346723566e+01  -2.283132873441e+02 
3 1 -1.597373386601e+02  -1.116088789422e+02   8.418216193139e+01 
4 1  1.124540508163e+02  -1.174407821077e+02  -7.410636941431e+00 
5 1  1.185835256905e+02   2.061081999905e+02   3.621247295341e+01 
6 1 -1.643748925618e+02  -7.014636641042e+02  -1.008190427780e+02 
7 1  1.954372183363e+02  -1.688183552249e+02  -3.465898847812e+01 
8 1  1.213012876690e+02  -3.501556064046e+02   1.133178858000e+02 
8
Step 2000
1 1  9.054429735034e+01  -1.487796304489e+00  -8.337604690112e+01 
2 1  3.044449368460e+00  -2.331261281989e+02  -1.223243528924e+00 
3 1  2.901427627184e+02  -3.571263260689e+01   2.502506290678e+02 
4 1  1.739942911358e+02   4.307313599773e+02   3.741826599926e+02 
5 1  1.619096325339e+01   1.059376021730e+02   8.128735887161e+01 
6 1 -3.313434095558e+01  -2.047895083186e+02   3.149172790217e+02 
7 1  1.144039076623e+02  -2.072996896096e+02   1.999481405062e+01 
8 1  9.670715291204e+01  -3.787796576391e+01   1.114668235063e+02 
8
Step 2100
1 1  7.257380619695e+01  -1.421939428436e+02  -1.038416215390e+02 
2 1  2.595411788687e+02  -2.784719476297e+02  -1.653733902515e+02 
3 1 -2.363709191055e+02   2.462002631218e+02  -2.623284022963e+02 
4 1 -2.239518941474e+02   1.102621797827e+01   9.303241450190e+01 
5 1  5.058872778438e+02   2.354685125254e+02   1.131304061114e+02 
6 1 -1.618448631502e+02   1.296511149647e+02   1.178221670036e+02 
7 1 -1.097998054190e+02  -1.034444394680e+02  -2.763014217266e+02 
8 1 -9.356771733420e+01  -2.131026645817e+02  -8.778073073568e+01 
8
Step 2200
1 1 -2.558889809132e+01  -2.624349301470e+02   2.483752780410e+02 
2 1  4.755249733294e+01  -2.076723642879e+02  -1.870320230530e+02 
3 1  1.081633524034e+02   1.346833328194e+02  -1.669276599861e+01 
4 1 -4.655147796923e+01   2.038927490866e+02   9.051953482109e+01 
5 1  7.692758436914e+01   3.098544889183e+01  -2.027333511776e+02 
6 1 -2.242092894888e+02   2.300165831715e+02  -1.944017610457e+02 
7 1 -9.945207646884e+01   2.667110287847e+01  -4.829463507452e+01 
8 1 -9.471897416037e+01  -6.669949186906e+00   1.923826897722e+02 
8
Step 2300
1 1  5.980816088639e+01  -5.243072842509e+01   3.794451674334e+02 
2 1 -3.979252603186e+02   2.757541405650e+01   1.433472727880e+02 
3 1  1.101629929378e+02   2.437117818670e+02   2.249750564182e+02 
4 1 -3.049456133744e+02   2.526117970212e+02   1.324963320150e+02 
5 1 -2.082578366062e+02  -4.921626965967e+02   1.939501592114e+02 
6 1  1.352857472740e+02   5.411171767854e+02   8.694828645051e+01 
7 1  1.610340321155e+02  -1.979387319967e+00  -8.368504719723e+01 
8 1  1.062936730662e+02   1.468794542030e+02   1.486192281207e+02 
8
Step 2400
1 1  2.588535381361e+02  -1.258805656598e+02  -2.696660711926e+01 
2 1 -1.364480366991e+02  -6.852450631145e+01   3.008208290239e+02 
3 1  1.487848641310e+01   5.660337456734e+01   2.402090398473e+02 
4 1 -1.707887400751e+02  -2.127210512652e+01   2.479572049542e+02 
5 1 -3.276551999436e+02  -3.013033186551e+02  -2.217198131490e+02 
6 1  8.645217633687e+01   2.638181891826e+02   3.081169783029e+01 
7 1  1.515835261739e+02  -3.543119289747e+01  -1.157505641591e+02 
8 1  2.035258704056e+02  -2.867162801622e+01  -1.257523149808e+02 
8
Step 2500
1 1 -7.357564910396e+01  -1.118173794140e+02  -2.425054876598e+02 
2 1  9.406568608607e+00   1.225277236741e+02   9.807365453953e+01 
3 1  1.752931488985e+02  -5.613197020652e+01   4.587449965327e+01 
4 1 -2.436494762886e+02  -1.097289205970e+02   5.203815785763e+01 
5 1 -2.279415902891e+02   8.517649124095e+01  -3.421386262307e+02 
6 1  1.681584284361e+02  -2.118423672038e+02  -1.555246695301e+02 
7 1 -3.270586471463e+02  -8.639860609972e+01  -4.188053153225e+01 
8 1  1.325680966457e+02   9.878585392951e+01   7.655924894794e+00 
8
Step 2600
1 1 -3.582648742970e+01   2.456242495324e+02  -2.458983354144e+02 
2 1 -1.308090224802e+02   2.559389951590e+02   4.223166952434e+01 
3 1 -1.143446494295e+02  -3.046091933508e+02  -4.802272319777e+01 
4 1 -1.209155953118e+02  -1.965855846897e+02   8.124031687447e+01 
5 1  1.203971606673e+02  -1.972768050235e+02  -7.876416224917e+01 
6 1 -1.385893580259e+02   1.295811078133e+02   1.134847476349e+02 
7 1 -7.603316466753e+01  -7.753408064930e+01  -1.273531190789e+02 
8 1 -4.087612940305e+01   2.157776002826e+01  -6.399673961180e+01 
8
Step 2700
1 1  1.844591256697e+02  -2.030299824850e+02   9.025158628904e+01 
2 1  4.196885349728e+02   4.140702720214e+02   2.236452422196e+02 
3 1 -5.340332369944e+02   3.602960634280e+01  -6.987773971092e+01 
4 1  1.003709934464e+02  -9.923322310068e+01  -8.441900227345e+01 
5 1  2.562425626994e+02  -1.492450066305e+02   1.912659205734e+02 
6 1 -2.311560087574e+02   9.858222406960e+01   1.705746828989e+02 
7 1  8.004575385084e+01  -2.999562554643e+02  -6.933914118326e+01 
8 1 -6.616913078332e+00   1.528015654235e+02  -3.632443048574e+02 
8
Step 2800
1 1  1.866652908413e+02  -1.041400339958e+02  -6.894835247878e+01 
2 1  1.844017336004e+02   2.578827403773e+02  -1.831244642613e+02 
3 1 -1.080208145249e+02   8.338382004832e+01  -1.771687212330e+02 
4 1 -6.470673874933e+01   1.096310505189e+02  -2.372456386777e+02 
5 1  1.625045332501e+02  -1.064540414359e+02  -2.597433605189e+00 
6 1  8.076621611421e+01   2.055466375376e+01   1.544097074212e+02 
7 1 -3.061122068435e+02  -5.539271261818e+02   7.862828378207e+01 
8 1  5.037127214860e+01   2.156002012964e+02  -1.912876850275e+02 
8
Step 2900
1 1 -4.808967077969e+00  -2.141055568323e+02   1.946205327956e+02 
2 1  6.704243107655e+01   1.690219563109e+02   1.748127101920e+02 
3 1 -6.069526134573e+01  -3.810560274375e+01  -2.174337817631e+02 
4 1  4.164677737638e+00  -3.237787725660e+02   3.972321471813e+01 
5 1 -5.325723587354e+00   2.154908466953e+01  -2.279174436948e+02 
6 1 -2.707110916333e+02   1.304353083407e+01   3.413894918875e+01 
7 1 -3.293641799418e+02  -5.276187557560e+01  -1.803789573967e+02 
8 1 -2.451287578497e+02   9.280912119772e+01   1.471147936915e+02 
8
Step 3000
1 1 -4.554870302066e+01   1.926088644904e+02   1.338685349223e+02 
2 1  1.197248184600e+02  -5.358693195142e+01   6.885777595170e+01 
3 1  2.818267235644e+02  -3.127363082243e+01   1.219668286998e+02 
4 1  6.931689804758e+01   1.955765773761e+01   1.359842219193e+02 
5 1 -6.630902107149e+01   1.640870602951e+02  -4.366243761722e+01 
6 1 -4.071655621147e+01   8.207086438434e+01  -8.372002363428e+01 
7 1 -2.123409491679e+02  -1.637196301719e+02  -9.896337719143e+01 
8 1 -3.120966694814e+02  -6.727156782520e+01  -8.170452674225e+01 
8
Step 3100
1 1 -9.889801595147e+01   9.985621324879e+01   2.888273299603e+02 
2 1  3.293648604097e+02  -1.769130827617e+02  -2.571410551345e+02 
3 1  3.377896610889e+02   1.282254321929e+02   2.821127893328e+01 
4 1 -4.548317471316e+01   2.819062075046e+02  -1.524078406262e+01 
5 1 -1.662190932798e+02   5.789254963160e+02   1.170558502476e+02 
6 1  3.041027401848e+01   6.110970316611e+01   2.097531680241e+01 
7 1 -6.685440358541e+00   2.451059884479e+02   3.084765238373e+02 
8 1 -3.719336652471e+02   2.111887695070e+02   3.045011797955e+01 
8
Step 3200
1 1  8.209921832859e+01   1.091232526559e+02   8.434366730667e+01 
2 1  1.113142739935e+02  -3.501609160121e+02  -3.676272613644e+02 
3 1  5.389268568044e+02   1.197383286098e+02  -9.915897210663e+01 
4 1  3.282904854071e+02   2.902570583683e+02  -1.452643399549e+02 
5 1 -1.522616272462e+02  -4.413728870275e+01   2.405074506651e+02 
6 1  4.688318895097e+01   1.989804451476e+02   7.622739988018e+01 
7 1  4.605923598434e+02   2.070599908812e+02   1.072734252574e+02 
8 1 -2.113957397912e+02   1.281471422275e+02  -4.406988853065e+01 
8
Step 3300
1 1  6.968054883725e+01  -1.463071089128e+02  -3.657402803388e+02 
2 1  3.671036254398e+01   2.161594293294e+01   2.260130113693e+02 
3 1  8.534615649258e+01   3.141501380928e+02   1.016885881260e+02 
4 1 -1.237910939401e+02  -8.028120748611e+01  -2.002779509868e+02 
5 1 -1.695336211997e+01  -3.987545864203e+02   5.792642376506e+02 
6 1  2.915104939921e+02  -2.166142010431e+02  -5.184449905627e+01 
7 1  4.247929273771e+02  -2.576916615848e+01  -1.028548462572e+02 
8 1 -3.774991043889e+02  -5.883326700534e+01   3.578384519354e+02 
8
Step 3400
1 1 -2.345935559436e+02  -4.454663394170e+02   1.118524515163e+02 
2 1 -9.962618716026e+01  -2.104483084941e+02   1.547347073147e+02 
3 1 -2.122591026001e+02   5.758685256633e+00   1.224463485918e+02 
4 1  1.834654577120e+02  -5.102544073719e+02   1.223357741953e+02 
5 1  1.908637245562e+02   9.455308653842e+01   3.307263850412e+02 
6 1  2.160109669386e+02  -1.033725905122e+02  -7.921722853857e+00 
7 1 -3.649871101931e+02  -5.683409310401e+01   1.703261345924e+02 
8 1  9.648056587835e+01  -6.734084409413e+01   2.065961327416e+02 
8
Step 3500
1 1 -1.580542765012e+02   3.943014141414e+01   8.816522239880e+01 
2 1 -1.868549992190e+02  -1.150200436391e+02   6.945760135027e+01 
3 1 -3.088230304076e+02   1.030746753282e+02   2.274412141387e+02 
4 1 -1.117032494114e+02  -4.375146952827e+02   1.249078367541e+02 
5 1  3.398670367878e+02  -1.682646250255e+01   1.317703563443e+02 
6 1  1.762832037857e+02   3.409199729493e+01  -2.781018913734e+02 
7 1 -2.959748810800e+02   1.139624096562e+02  -3.714920865779e+02 
8 1  1.345583948685e+02  -4.743757736539e+01  -1.594480082004e+02 
8
Step 3600
1 1  5.637242569930e+00   3.579311819489e+02  -4.817912935220e+01 
2 1 -2.181057094340e+02   2.480723436526e+02  -1.012061261138e+02 
3 1 -8.557338882717e+01   1.296793592236e+02   8.737734959822e+01 
4 1 -2.475758308668e+02  -2.235607542247e+01   1.293512841655e+02 
5 1 -9.914315005232e+01  -4.089309002326e+02   7.904349604197e+00 
6 1 -8.151676463260e+01   1.605413006689e+01   9.681971331586e+01 
7 1 -1.137558009134e+02   3.348679158577e+02   6.212904206015e+01 
8 1  3.307713357470e+02  -6.696171359991e+01  -1.811654794044e+02 
8
Step 3700
1 1  3.453544513441e+02   2.274773519500e+02  -1.372994706197e+02 
2 1 -1.647809987227e+02   2.219226863487e+02  -1.258440432276e+02 
3 1 -5.906548369379e+01  -1.333561519552e+02  -4.905300641234e+00 
4 1 -7.456874525567e+01  -2.387882837230e+02  -4.030546966436e+01 
5 1 -1.245532866580e+02  -1.476380386521e+02  -2.405570939980e+02 
6 1 -1.259175590995e+02  -4.657599835350e+01  -1.242054462391e+01 
7 1 -6.719120363156e+01   1.679121087346e+02   1.261243541611e+02 
8 1  2.336913746709e+02  -7.518001890030e+01   4.875305869682e+01 
8
Step 3800
1 1  2.777158111196e+01  -1.139027283728e+02   1.196347299382e+02 
2 1 -2.027369582197e+01   3.304895709379e+02   2.476620648100e+02 
3 1  8.518600613050e+01  -5.918172833738e+01   8.255900006624e+01 
4 1  1.235372241759e+02   1.160258297328e+02  -5.054994736820e+01 
5 1 -3.709581174971e+01  -1.044493456533e+02  -4.621899809352e+02 
6 1 -2.183120567853e+02  -3.710020451465e+02  -2.106904878995e+01 
7 1  3.428047189618e+01   1.369318133307e+02  -2.501194462612e+02 
8 1  1.516846953397e+02   1.995941282650e+02  -3.488372446326e+02 
8
Step 3900
1 1  6.934947791796e+01   1.013365723492e+02  -5.201042078649e+01 
2 1  2.438029346230e+02  -2.982657829912e+02  -7.050423722594e+01 
3 1 -3.452107029769e+02   2.596597615599e+02  -3.224579040707e+01 
4 1  3.305521583772e+02   2.379154154809e+02  -5.703953846651e+02 
5 1  1.800573746910e+02   2.081317723744e+02  -3.335209988858e+02 
6 1 -2.481147749040e+02   2.495581427767e+00   1.543174363400e+02 
7 1 -4.949068478181e+00   1.988476623852e+02  -2.756120872633e+01 
8 1  1.321997151995e+02   2.536395688935e+02  -3.704947627120e+02 
8
Step 4000
1 1  1.244779076290e+02   1.376249423820e+02   1.863085149651e+02 
2 1  5.419567556232e+01  -6.104052050352e+01  -5.776707037027e+01 
3 1 -7.200432679837e+01   1.536426947241e+02   1.152246566842e+01 
4 1  4.916810188799e+02   7.892450515913e+01  -1.490515313466e+02 
5 1 -5.119969992686e+02   3.004744943063e+02  -1.091980922572e+02 
6 1  2.074742765693e+02  -4.781774337139e+01  -2.716142401411e+02 
7 1  2.010839755508e+02   7.047261996827e+00  -3.460919371965e+02 
8 1  8.882895954977e+00  -2.238040038447e+02   1.143009948726e+02 
8
Step 4100
1 1 -2.735687703083e+02   6.293061566301e+00   1.903060967144e+02 
2 1  1.982631746079e+02  -4.026821698729e+01  -1.616714832676e+02 
3 1 -2.368099996551e+02  -9.468711531714e+01  -1.090786051266e+02 
4 1  2.073857270137e+02  -1.036804196783e+02   1.979415619827e+02 
5 1 -1.302139843938e+02   3.707604038400e+02   3.685823352500e+01 
6 1  2.849241695402e+02   1.074434750991e+02  -2.021655777811e+02 
7 1 -1.611614741085e+01  -7.626758657673e+00  -5.436008465304e+01 
8 1 -3.149969116858e+02  -3.655783515295e+02   1.537817255902e+02 
8
Step 4200
1 1 -1.093648853484e+02  -4.889179436779e+02  -1.057189440725e+02 
2 1  3.844755777415e+01  -6.693695305559e+01   1.136378217359e+02 
3 1 -1.207994302298e+02  -6.008628520080e+00   2.452265657948e+02 
4 1  9.222028057589e+01  -1.045229072952e+02   2.823628162195e+02 
5 1  7.766546115473e+01   1.382839437621e+02   2.362729802663e+01 
6 1  3.676899213441e+02   2.857459064709e+02  -3.054387099959e+02 
7 1 -2.808015258815e+01  -1.069627260439e+02   2.811935028902e+01 
8 1 -2.778960404068e+02  -1.914345116411e+02  -4.263017518906e+02 
8
Step 4300
1 1 -2.755061600971e+02  -2.937925801037e+02  -2.214209585208e+02 
2 1  2.354573722367e+02   1.126283115912e+02   1.740913484179e+02 
3 1  2.023309724562e+02   1.099585939787e+01  -1.081613890069e+02 
4 1 -1.695309332830e+01   3.207850603352e+02  -3.772398180945e+01 
5 1  8.677393103289e+00   1.167970958018e+02   6.773034147330e+01 
6 1  1.993149337766e+02  -3.815341698537e+00  -2.348913732590e+02 
7 1  1.343675770405e+02  -4.135819382641e+02   2.418630758855e+01 
8 1 -1.186236337953e+02   9.544891704558e+00  -3.784462502478e+01 
8
Step 4400
1 1  6.615027922863e+01   2.325902775432e+02  -7.622767770609e+01 
2 1  1.384777541760e+02  -1.751067794315e+02  -7.037894242315e+01 
3 1 -1.220890579956e+01  -1.260747740478e+02  -2.570827237326e+02 
4 1 -1.173259708860e+02  -5.869479702412e+01  -1.725214939509e+02 
5 1 -8.075128998953e+01  -1.733893605899e+01  -9.752756009620e+01 
6 1 -2.210780478730e+02  -2.905271214299e+02   3.362874689002e+02 
7 1  4.179267065150e+02   2.670698548796e+01   1.427250290453e+02 
8 1 -2.718834928147e+02   1.099042567986e+02   2.013254414652e+02 
8
Step 4500
1 1 -3.983632064411e+00   1.357965611301e+02  -1.955101487430e+02 
2 1  1.354783308887e+02  -2.579226365407e+02  -1.344742083471e+02 
3 1 -5.547316017715e+01  -6.759380117569e+01  -1.885890383837e+02 
4 1 -1.991560593412e+02  -4.319769777106e+01   2.065089447181e+02 
5 1  2.500627535621e+02  -1.049849396979e+02  -1.185096626389e+02 
6 1 -3.177030878324e+02  -4.773852616864e+01   3.084691280938e+02 
7 1  9.472114464523e+00   9.385340259525e+01   1.690798938604e+02 
8 1  4.449973692137e+01  -3.001099324469e+02   1.673510911546e+02 
8
Step 4600
1 1  2.749974482602e+02   1.655493075855e+02   3.052530808223e+01 
2 1 -1.348378169149e+02  -2.591156471724e+02  -1.830914137087e+01 
3 1  1.640972046145e+02   3.864269317083e+01  -3.898675332136e+01 
4 1 -1.608451734803e+02   1.373372112144e+01   6.894861676804e+01 
5 1  3.591293685526e+02   3.507095790057e+01   5.672916072247e+01 
6 1 -6.895864338898e+01  -4.922874104886e+01   1.454164918382e+02 
7 1 -1.160153539304e+01   3.039423996763e+01  -2.766102725271e+01 
8 1  1.791810477823e+02  -2.837901348178e+02   1.902189204810e+02 
8
Step 4700
1 1  1.945578529763e+02  -1.197194829451e+02  -1.694071340049e+02 
2 1 -3.389349958146e+02  -5.472371762534e+01   2.404399656839e+02 
3 1  3.236475922943e+01  -4.985122337667e+01   1.796222557920e+02 
4 1 -2.982413697348e+02   6.270557200611e+01  -5.755270071072e+01 
5 1  2.948808830766e+02  -9.889021202489e+01   2.878139884715e+02 
6 1 -2.513606909678e+02  -1.838568867390e+01   3.434872135562e+01 
7 1  2.218210682069e+02  -2.942700132877e+02  -3.195788343115e+02 
8 1  6.105465667530e+01   4.128721688301e+01  -1.117661678925e+02 
8
Step 4800
1 1 -1.153415778571e+02  -2.239144242143e+02   2.652606247562e+02 
2 1 -1.928648096039e+02   1.974284962211e+01   1.910980352295e+02 
3 1 -1.081377882032e+02  -6.133213566684e+01   8.559310450419e+01 
4 1 -2.521545473027e+02   1.611791838332e+02   2.315172525486e+01 
5 1  3.990580126041e+02   3.402674502710e+02  -1.737087004155e+02 
6 1  5.537617373614e+01  -1.943394490955e+02  -6.275375649657e+01 
7 1 -1.788794287041e+02  -1.272683653190e+02  -1.851510401491e+02 
8 1  5.090726437883e+01   2.249720314713e+02   5.274373426034e+01 
8
Step 4900
1 1  1.886532107381e+02  -1.625609066047e+02  -9.857317583822e+00 
2 1 -1.912825645527e+02   3.985451933488e+00   3.101638309804e+02 
3 1  1.340574334054e+02   5.349702701049e+01   1.497911767319e+02 
4 1 -2.059895338367e+01   1.119197440730e+02   5.205091037057e+01 
5 1 -3.974232922039e+02  -1.504661578465e+02  -9.628409043206e+01 
6 1  3.506340203752e+01   1.605091657934e+02  -7.142131838056e+01 
7 1 -2.362344102654e+02  -2.012762899565e+02   1.157693155621e+02 
8 1 -6.522307064735e+01   1.886237930154e+02   3.445539934827e+01 
8
Step 5000
1 1  3.744816626537e+02  -6.077756460745e+01  -1.050288130609e+02 
2 1 -2.511868790662e+02  -1.918137618164e+00   1.724812174887e+02 
3 1 -1.923609201081e+02  -1.156032780018e+02   1.432909456783e+02 
4 1 -1.087338890376e+01   6.218115788819e+01   1.482009527051e+02 
5 1 -2.032153510364e+02  -4.816696565617e+02   3.236888821413e+01 
6 1  3.445501244395e+02   1.728750661720e+01  -6.024542089947e+02 
7 1  1.272232069860e+02   2.021526720658e+02   3.490483636735e+00 
8 1 -1.590138755893e+02  -4.519874767356e+01  -6.121554340298e+01 
8
Step 5100
1 1  1.745126514498e+02   4.058146390618e+02  -1.311606732341e+02 
2 1 -2.491866719776e+01   3.375047045650e+02  -2.367372567799e+02 
3 1  3.853543465885e+02  -1.892800317220e+02  -3.319927088210e+02 
4 1  1.730424151887e+02  -1.130195206350e+02   1.059706739460e+02 
5 1 -9.739026067855e+00  -3.310104472847e+02   3.652794562051e+02 
6 1  2.265343449966e+02   1.060352999146e+02  -3.110764106842e+02 
7 1  9.328968796517e+01   2.339809405993e+02  -2.567529080530e+02 
8 1  5.907178217748e+01  -6.767748302942e+01   2.265240422464e+02 
8
Step 5200
1 1  9.367603082388e+00   3.537140137935e+01  -5.398853653603e+01 
2 1  1.978694810099e+02   2.622308951865e+02  -8.456800698673e+01 
3 1  1.125104468954e+02  -8.400963949264e+01  -1.564909087949e+02 
4 1  1.069141517879e+02   1.332324729881e+02   5.575000893340e+00 
5 1 -4.774717384234e+01  -2.727387867286e+01   1.696792942097e+02 
6 1  4.850290831414e+01  -1.844177836818e+02   1.001800679383e+02 
7 1 -5.584377562748e+01  -1.279965681033e+01  -2.349259421700e+02 
8 1  2.455657497707e+02  -2.656025585033e+02   3.054389562441e+02 
8
Step 5300
1 1 -1.814674295850e+02  -2.640531338587e+01   8.243437450921e+01 
2 1  2.028689107559e+01   1.443275433475e+02  -7.738352804400e+01 
3 1  6.971757321087e+01  -2.310102419417e+01  -2.427223599503e+02 
4 1  3.209446762425e+02  -1.783093480628e+02   1.795027953435e+02 
5 1 -4.070723950732e+01  -6.939541525149e+01  -9.474394954115e+01 
6 1  4.015044558676e+02  -1.361286593524e+02   5.591259814015e+02 
7 1 -1.408492996322e+02   4.542421373167e+01   1.003168974751e+01 
8 1  1.630320731780e+02  -6.470934739820e+01   1.059475102491e+02 
8
Step 5400
1 1 -2.731834254545e+01  -1.661574176423e+02  -2.448614467445e+02 
2 1  1.784388520650e+02   2.370002832647e+01  -8.493281167633e+01 
3 1  2.112392131338e+02   4.079920731316e+01  -8.323737748038e+01 
4 1  2.390741863894e+02  -1.937402990555e+02  -1.823323653588e+02 
5 1 -2.070880560007e+02   1.294033445685e+02   1.683204337712e+02 
6 1 -6.178418011844e+01   1.178699842151e+02   3.199859901553e+02 