8
Step 0
1 1  1.675826018803e+02   2.395592776818e+02  -4.872162835033e+01 
2 1  1.285005020881e+02  -1.751286826392e+02   2.239200405021e+01 
3 1 -6.588122157651e+01  -2.461454349730e+02   1.421107073989e+02 
4 1 -1.434042432326e+02  -3.349021721115e+02   5.079425608207e+02 
5 1  2.919621586773e+02   1.206841660512e+02  -4.981777900357e+02 
6 1 -7.191868585819e+01   6.637462015227e+02  -3.155194293624e+02 
7 1 -3.402471221161e+02  -4.343482047274e+01  -4.648078395401e+02 
8 1 -3.310538529834e+01   2.001547164974e+01  -1.051695616936e+02 
8
Step 100
1 1  1.911639025815e+02   8.138162561720e+02  -9.632449736223e+02 
2 1  9.474499922719e+02   3.222213726408e+01  -1.499865184652e+02 
3 1 -3.068691887343e+02   6.883962938970e+02  -3.456181643249e+03 
4 1  1.773704397122e+03   1.860743804431e+03   4.045308355112e+02 
5 1 -3.161910665697e+03  -1.218085012673e+03   4.743440015473e+02 
6 1  3.285884596903e+02   6.278540285171e+02  -6.854085231737e+02 
7 1  1.323114026210e+03   1.250770134775e+03   1.959163671417e+03 
8 1  4.423803264077e+02  -3.840331394099e+03   3.132612906906e+03 
8
Step 200
1 1 -2.415386241638e+02   9.666830660353e+02  -4.013250194618e+02 
2 1  1.243232465417e+03  -9.390489869414e+01  -6.210486335710e+02 
3 1 -5.335068390896e+02   3.724074212172e+02  -1.687186293339e+03 
4 1  1.309309111090e+03   1.008475396679e+03   1.840909471292e+02 
5 1 -2.162154332847e+03  -9.211307624007e+02   3.551934832120e+02 
6 1  4.357611546624e+02   5.018479399760e+02  -8.435370076687e+02 
7 1  1.320413304683e+03   6.891253169442e+02   1.064319167564e+03 
8 1  5.231952138635e+02  -3.048644275696e+03   1.716266473197e+03 
8
Step 300
1 1 -5.713509019109e+02   6.550115172477e+02  -3.733850822789e+02 
2 1  1.536884410210e+03   1.874150110604e+01  -9.649629861133e+02 
3 1 -8.089901946494e+02   4.358408859653e+02   7.605525930119e+02 
4 1 -7.576280308605e+02  -2.915889427747e+02  -1.007734113936e+01 
5 1 -3.627669909050e+02  -1.227686989397e+02   1.305665557451e+03 
6 1  8.693964281204e+02  -3.255263636587e+02  -3.630648552696e+02 
7 1  1.459467631435e+03  -6.742120509136e+02   5.689078745414e+01 
8 1  6.551948522325e+02  -5.006053482119e+02  -3.682681330938e+02 
8
Step 400
1 1 -5.870389257864e+02   8.432456904398e+01  -3.779462329199e+02 
2 1  1.129732010687e+03   2.750727676238e+01  -4.653282009721e+02 
3 1 -8.828405649500e+02  -5.353168863969e+02   1.064389424808e+03 
4 1 -8.636056691328e+02  -7.906952859718e+02   8.451205904585e+01 
5 1  1.387781788462e+02  -2.577583060793e+02  -4.462636319222e+02 
6 1  2.883977378712e+02  -5.066484089162e+02  -1.819944930360e+02 
7 1  9.993574276716e+02  -3.268508859864e+02  -8.449388100245e+02 
8 1  9.542958601054e+02   7.504395191353e+02  -3.735334270265e+02 
8
Step 500
1 1  7.424626714780e+01  -1.058929471526e+02  -4.460721745240e+02 
2 1  3.990578067181e+02  -3.726806995704e+02   9.473959948687e+01 
3 1 -1.115031637032e+03  -2.768648361636e+02   8.994687344939e+02 
4 1 -3.237020659869e+02  -4.090471494387e+02   8.367888329095e+02 
5 1  6.636003719385e+02   3.525703248332e+02   4.345909377265e+01 
6 1  3.202023807185e+02  -1.007379163181e+02  -2.515420427177e+02 
7 1  3.062248619644e+02  -1.709588399809e+02  -4.397505155784e+02 
8 1  6.066946675912e+02   3.649693775655e+02   1.918719553034e+02 
8
Step 600
1 1  1.109863047031e+01   8.646965630183e+01  -5.497118580890e+02 
2 1  8.250762945291e+01  -7.353483854097e+01   5.704931147176e+02 
3 1  2.553438740125e+02  -1.365705172543e+02   4.955808309083e+02 
4 1 -1.639765883601e+02   3.779558708366e+02   4.797237445125e+02 
5 1 -1.371577674834e+02   6.561977716645e+01   1.000787600447e+02 
6 1 -5.916404284151e+02   3.047878156618e+02  -1.569964566887e+02 
7 1  4.840073339032e+01   4.429321779599e+02  -1.865476038156e+01 
8 1 -9.558058185779e+01  -7.602169627204e+01   2.611372282261e+02 
8
Step 700
1 1 -3.607872038958e+02   2.795746146801e+02   5.633256987542e+01 
2 1 -3.499874918457e+02  -3.288779329522e+02   4.279755472901e+01 
3 1  2.514849980323e+02   5.222429745410e+02  -1.247672068432e+02 
4 1  2.873547218088e+02   3.379879168415e+00   3.627937537760e+00 
5 1 -3.232563534872e+02  -3.283385669365e+01  -4.104058248944e+01 
6 1 -8.623390874966e+01  -3.139488448978e+01  -6.969036770267e+01 
7 1  2.233776561173e+01   1.169870591509e+02   1.976123759967e+02 
8 1  1.660477003036e+01   3.741467730180e+02   9.833317200616e+00 
8
Step 800
1 1 -2.741440176718e+02   1.581781727303e+02  -4.084766729380e+00 
2 1 -2.645204539014e+02   5.831782414034e+01   1.393756048221e+02 
3 1  4.218355345206e+02   3.123428405407e+02   2.338092346819e+01 
4 1  1.628676472524e+02  -5.494939405845e+02  -1.890452037349e+02 
5 1 -8.377692766999e+01   2.064426784775e+00   2.898426764671e+02 
6 1  6.473010214547e+01   3.827517986669e+02  -3.965928315557e+01 
7 1 -3.222062863854e+02  -4.781012082768e+02   4.939335182482e+01 
8 1  4.686711074745e+01   1.812957187027e+02   9.720584117825e+01 
8
Step 900
1 1 -1.552310467612e+02  -1.358519638994e+02  -1.537584374778e+02 
2 1  2.260236066431e+02  -2.178901118223e+02  -3.447968585290e+02 
3 1  4.134194564723e+02  -2.476132882979e+02   3.238514916314e+02 
4 1  1.419404069292e+02   3.264195629587e+02  -2.052877183126e+02 
5 1  1.927186655033e+02   2.338955908447e+02  -6.609217486255e+01 
6 1 -7.005100833207e+01  -1.021768251905e+02   6.157428461065e+02 
7 1 -5.898791478198e+02   2.039284009247e+02  -3.232385577328e+02 
8 1 -3.424921330535e+02   1.122952555433e+02  -5.505136717986e+01 
8
Step 1000
1 1  3.593083107072e+02  -3.669331153030e+02   2.723265634694e+02 
2 1  1.212399284085e+01   1.940989266722e+02  -2.387555444610e+02 
3 1 -2.775591480950e+01  -7.554570258827e+01   1.336943427043e+02 
4 1  1.678764237795e+02  -8.479166978940e+01   4.700115601461e+02 
5 1 -1.088000793344e+02  -4.687135609182e+01   1.430484149263e+02 
6 1  4.854140284044e+01  -4.667106121380e+02   3.828756933554e+02 
7 1  3.821196715771e+02  -1.608902974959e+02   1.189312669332e+02 
8 1  3.460499200472e+01  -2.483111587447e+02   3.920858412971e+02 
8
Step 1100
1 1 -1.776881715953e+02  -2.840238459585e+02  -2.739846132466e+02 
2 1 -3.024229000879e+02   2.042514433834e+02  -1.045537666849e+02 
3 1 -2.499106495097e+02  -8.381034144678e+01  -2.343925920814e+01 
4 1 -4.985576970617e+02  -2.040933653674e+02   1.862340231408e+02 
5 1 -4.035467619204e+02   2.361448878381e+02   2.290611461826e+01 
6 1  1.344500501731e+02  -7.653771231938e+01   1.652153618626e+02 
7 1  1.106034023414e+02   5.068262566202e+01  -2.551360262305e+01 
8 1  1.202673627186e+02  -1.958329941493e+02  -2.138225906366e+02 
8
Step 1200
1 1 -2.734014957737e+01   1.296370766698e+02  -7.037214253142e+02 
2 1  1.760471291071e+02   2.434877617305e+02  -1.990452616137e+02 
3 1 -8.484318332480e+01   2.110008517816e+01   9.029860865879e+00 
4 1  2.205525180465e+02  -1.736248639828e+02   5.585734687278e+02 
5 1 -1.734378386878e+02  -7.737532470720e+02   1.213688152132e+02 
6 1 -1.831269635913e+02   1.509764100203e+02   2.774317352029e+01 
7 1  5.055474454941e+01   2.133936411380e+02   4.230252788560e+02 
8 1  2.445199912122e+02  -4.797076174418e+02   4.957481243006e+01 
8
Step 1300
1 1  3.696041015253e+02   8.114513388429e+01   2.070670157540e+01 
2 1  3.449698085851e+02   5.093680305116e+01  -4.898535900557e+01 
3 1  3.194049839714e+02   6.007400722387e+01   1.755454959937e+00 
4 1 -8.397274915457e+01  -5.645419703190e+01   5.796770962468e+02 
5 1  2.927468589037e+02  -3.628324023264e+02   1.745335551345e+02 
6 1 -2.797924971153e+01  -1.375698075493e+02   1.917974302394e+02 
7 1  8.726568973568e+01  -2.583478078684e+01  -4.714045867851e+01 
8 1  8.144513685725e+01   9.265387144472e+01   6.431196153585e+01 
8
Step 1400
1 1  4.764359766797e+02   1.969348432099e+01   4.430135041824e+02 
2 1  1.387699989878e+02  -2.278141591642e+02   2.634704837506e+02 
3 1  1.993941642236e+02  -1.273126222411e+02  -1.899183010971e+02 
4 1 -3.530985069574e+02  -5.309552250092e+01  -1.083147310077e+02 
5 1  3.630716672255e+02  -3.294198456888e+02   6.119277618673e+01 
6 1  3.435003227527e+02   1.420048315172e+02  -2.047385297073e+02 
7 1  1.930105645773e+02   9.489273426346e+01  -3.648190958996e+02 
8 1  3.850764632846e+02   1.085447653672e+02  -1.003905024191e+02 
8
Step 1500
1 1  3.415888982019e+02   3.699922049557e+01   4.732801232612e+02 
2 1 -3.154617274319e+02  -2.231461683576e+01   4.295848384486e+02 
3 1  2.872774454522e+02   1.187815965436e+02   1.356515314382e+02 
4 1  3.148052280061e+02  -3.782464344144e+01  -1.387635766338e+02 
5 1 -6.522197969339e+01   5.668036214304e+02  -2.619873073089e+02 
6 1  1.892997153400e+02   2.919548334158e+02  -2.806694281132e+02 
7 1  2.571640890867e+02   2.126065497517e+02   2.199312802751e+02 
8 1  6.851704783705e+01   5.108326091720e+02   2.725191703125e+02 
8
Step 1600
1 1  1.748507549580e+02  -1.822246251353e+02   4.771351669557e+02 
2 1 -3.088265947536e+02  -2.204981818961e+02   5.907750430012e+01 
3 1 -2.311498525246e+02  -9.347742001672e+01   6.131437811654e+01 
4 1  2.652324238309e+01  -2.585871970626e+02  -1.464873132171e+01 
5 1 -7.644924399649e+01   4.183359317468e+02  -2.474126381759e+02 
6 1 -4.777812333841e+02  -2.081104426427e+02  -2.716187499906e+02 
7 1  1.465550127923e+02  -2.449416011769e+02   3.681064013678e+02 
8 1 -6.753542273683e+01   2.429594494700e+02   3.622714453458e+02 
8
Step 1700
1 1 -4.924649141296e+02  -6.890631120434e+01   1.081803113738e+02 
2 1 -1.325808394032e+02  -2.785385273580e+02  -4.312686644001e+01 
3 1  2.492829017274e+02  -7.216812727437e+01   3.025393891121e+02 
4 1  9.757177763471e+01  -1.418090167974e+02  -2.744636242644e+02 
5 1 -1.813395774359e+02   1.914071778157e+02  -2.883340529373e+01 
6 1 -2.839731090067e+02  -6.686358623250e+02   1.724888093364e+02 
7 1  2.346046588387e+02  -1.555004372118e+02  -8.604939538216e+01 
8 1 -2.988514145226e+02  -3.833695858139e+02   2.743077542803e+01 
8
Step 1800
1 1  1.964756602780e+02   2.219533986118e+02  -4.361677797538e+02 
2 1 -2.539127284862e+02  -4.918423661653e+02  -4.117858419999e+02 
3 1 -2.963889654212e+02   1.478378129102e+02  -1.426311132404e+02 
4 1  2.332264127494e+02   1.694433860553e+02   4.199730258894e+01 
5 1  4.066701033380e+02  -2.920333612474e+02  -2.109586451397e+01 
6 1  2.706422946683e+02   1.778755785511e+02  -1.116130571097e+02 
7 1 -2.776638928937e+02   3.260822722343e+02   2.417855809132e+02 
8 1 -3.727628446532e+02  -2.701791019153e+02  -3.264919253183e+02 
8
Step 1900
1 1 -2.583064399604e+02   3.435578788769e+02  -5.834085665433e+02 
2 1  6.237897053516e+01  -3.712838783957e+01  -1.040618948144e+01 
3 1  2.649884522603e+01   1.113230221911e+02   1.255335743408e+02 
4 1  1.324260967880e+02   1.979737591414e+02  -7.809160944854e+01 
5 1 -1.012027131943e+02  -2.640505641651e+02  -6.706639538352e+01 
6 1  5.041111541534e+02   4.945505243736e+02   1.566085231240e+02 
7 1 -3.026415354776e+02  -2.163955854330e+02   8.760082130426e+01 
8 1 -1.227540164024e+02   1.552413887904e+02  -3.389351708928e+02 
8
Step 2000
1 1  7.581030875402e+01  -1.164573908218e+02  -3.825865920951e+02 
2 1  1.545665372817e+02   2.559245627683e+02   7.165936579584e+01 
3 1 -1.258614896232e+02   2.195588452847e+02  -8.972616959337e+01 
4 1 -8.518862084415e+01  -3.395124517292e+02  -1.092729335054e+02 
5 1 -1.447593946650e+02  -1.523138238410e+02  -2.927547620089e+02 
6 1  4.866920657103e+02  -3.558052318892e+02   5.502600388120e+01 
7 1 -2.206590471489e+02  -2.807069022487e+01   2.765748806306e+02 
8 1 -2.769721586481e+02   2.750724726100e+01  -4.788668601504e+01 
8
Step 2100
1 1  1.484019475437e+02   7.057793867645e+01   2.922142284334e+02 
2 1  1.455060095526e+02   9.651005456064e+01   3.928117496225e+02 
3 1 -4.053763855374e+02  -1.609241974533e+02  -2.370100592823e+02 
4 1 -9.697818890210e+01  -1.767988412963e+02  -6.888764860152e+01 
5 1  1.653122619918e+02   1.326023408022e+02  -7.640406519962e+01 
6 1 -4.041467475277e+02  -6.052393176237e+01  -1.465178882335e+02 
7 1 -1.331353480847e+02  -8.239674962806e+01  -4.348538461248e+02 
8 1  1.671528201332e+02   4.548796400238e+02   3.033785751641e+02 
8
Step 2200
1 1 -7.487892810607e+01   2.437930759464e+02   3.541163185699e+02 
2 1  8.514254986852e+01   4.294021864564e+02   1.132761299725e+02 
3 1  4.248136479210e+01  -2.696198810660e+02   2.861142718536e+02 
4 1 -4.137111335932e+02  -1.604723184661e+02  -5.026311856783e+02 
5 1  4.436693520941e+02   7.077665557326e+01  -1.037261697446e+02 
6 1 -1.819577554314e+01  -2.759919058778e+02  -4.209685054834e+01 
7 1  3.511867337545e+02   2.415865143915e+02  -3.228576189875e+02 
8 1  2.119977752289e+02   4.061946578943e+01   7.272744559905e+02 
8
Step 2300
1 1  1.259860397039e+02   6.760322340994e+01   2.351298596292e+02 
2 1  1.741077082629e+02   1.056328190016e+00  -2.076169247662e+02 
3 1 -2.724141934094e+01   2.032915822913e+02   9.260776212680e+01 
4 1 -3.202540265617e+02   1.164073116685e+02  -1.287455176896e+02 
5 1 -3.269631419964e+01  -7.645526679933e+01   3.849134783173e+02 
6 1  5.626725111833e+01   2.740178975020e+02   2.588184025854e+02 
7 1  2.847703239945e+02   1.989606753865e+02  -4.460971403024e+02 
8 1  7.588133275568e+01   1.566696448660e+02  -1.572717096635e+02 
8
Step 2400
1 1 -5.516224744318e+02  -1.054238812593e+02   2.260422763016e+02 
2 1  1.137198744593e+02  -2.371590037263e+02  -2.771524589397e+02 
3 1  1.680648313268e+02  -3.477833243538e+02  -1.260536608682e+02 
4 1 -7.935366119648e+01   2.803303097707e+02   6.157104415771e+02 
5 1  3.493814463291e+02  -5.883564337424e+02   7.558988483906e+01 
6 1  7.489985529389e+01   5.909691339436e+02  -2.372036053094e+02 
7 1  3.617775424884e+02  -5.345393441930e+02   4.277730786978e+02 
8 1 -3.841219528889e+02  -4.248340802785e+02  -1.376495781931e+02 
8
Step 2500
1 1  1.138980756868e+02  -6.261700662214e+02   4.536564285114e+01 
2 1  4.415504257624e+02   1.439093346190e+02  -4.636285543537e+01 
3 1  1.779013425342e+02   2.131733546284e+02  -4.092739013080e+02 
4 1 -1.103856807730e+02  -2.847039433071e+02   2.790756435234e+02 
5 1 -1.153050014567e+02  -1.977068671290e+02   2.985192922704e+02 
6 1 -8.276042379380e+01   3.296403905330e+02  -6.290000611565e+01 
7 1 -3.357401377433e+02  -1.533466107038e+02   8.360686230010e+01 
8 1 -4.041364151534e+02  -5.303314197925e+00  -4.431695314714e+02 
8
Step 2600
1 1 -9.202965792813e+00   3.110011910697e+02  -3.083057258435e+02 
2 1  9.479760507598e+01  -2.700465965964e+02   3.451257645440e+00 
3 1  4.077004287659e+02   3.041311076648e+02   5.420617231368e+01 
4 1 -8.906535486142e+01  -2.606273096051e+01   1.076137670638e+02 
5 1 -3.960201430683e+02   3.821075909669e+01  -1.447901498253e+02 
6 1  6.398932824803e+01  -3.463146184977e+02   5.617638646873e+01 
7 1 -4.336223074524e+01   9.730171377776e+01   6.950253550528e+01 
8 1  2.209705903060e+01  -1.915834756534e+02  -2.262936814075e+02 
8
Step 2700
1 1  1.376813854573e+02   3.391667626800e+02   7.805523844407e+01 
2 1  6.190040737332e+01   1.348700147505e+02  -3.883015328787e+02 
3 1  2.347829555238e+02   3.096730313475e+02   2.053269375199e+02 
4 1  5.470751451262e+01  -9.477640257292e+01   2.330323084339e+02 
5 1 -1.682034885253e+02   6.186320308430e+02  -4.964841452186e+02 
6 1  4.431189448166e+02  -3.451002424156e+02   1.338590494659e+02 
7 1 -2.849544399233e+02  -3.107636772384e+00  -1.928767369198e+02 
8 1 -1.741657713491e+02   2.969180197589e+01   2.297799780411e+02 
8
Step 2800
1 1 -4.151851241827e+01  -1.572123203758e+02   2.906461798355e+01 
2 1 -1.792381816968e+02  -7.066704955627e+01   1.280078431006e+02 
3 1  2.579431764769e+02  -7.460444937400e+01  -2.087512580894e+01 
4 1 -6.117703682198e+00   3.982536852281e+02  -3.033142123495e+02 
5 1 -2.132355635230e+02  -1.512749058382e+01  -2.714019156752e+02 
6 1 -3.836876492975e+02   1.075204762418e+02   8.358026679532e+01 
7 1 -1.600737747282e+02   6.285826570891e+01  -3.296382496347e+02 
8 1  3.033447248281e+01  -8.128665873421e+01   4.739781933422e+02 
8
Step 2900
1 1 -1.912493622708e+02  -2.712063586623e+02   2.885970520101e+02 
2 1 -3.818660519985e+02   1.731446703264e+02  -1.136509660630e+02 
3 1 -3.724619830423e+02  -3.684351719378e+02  -4.799279389314e+02 
4 1  2.062188861568e+02   8.005024067357e+01  -4.741243562693e+01 
5 1  4.315454220575e+01  -1.661734175041e+02   1.924278827617e+02 
6 1 -4.281275579341e+02  -2.830534935226e+02   9.279676311668e+01 
7 1  7.234817672866e+01  -2.029694577709e+02   2.950689082324e+02 
8 1 -1.553112686716e+02   1.141134008668e+02   1.627958890588e+02 
8
Step 3000
1 1 -5.036451087909e+01   1.134369265977e+02   2.130672528769e+01 
2 1 -3.431884483188e+02  -2.211165841088e+02   4.712816690902e+02 
3 1 -1.656415490079e+01   1.566205654579e+02  -2.950613784583e+02 
4 1 -1.360948978028e+02  -3.179588353653e+02  -2.611010037924e+01 
5 1  5.427149814319e+02  -5.716310820561e+01   2.399105144975e+02 
6 1 -2.134224257061e+02  -1.227904156757e+02  -1.908868945550e+02 
7 1  6.889830869537e+01  -5.487462644581e+01   4.459116811511e+02 
8 1  5.653220574661e+02   2.758740129868e+02  -3.453253192444e+02 
8
Step 3100
1 1 -1.956388515589e+02  -2.487244394909e+01  -6.678622879877e+02 
2 1 -8.276692419314e+01  -3.288846413998e+02   3.320601870189e+02 
3 1 -3.046806696744e+02  -3.599644998850e+02   3.415525269057e+02 
4 1  4.137954350546e+02   3.767766732548e+01  -2.431026387940e+02 
5 1  5.203925226629e+01  -5.677248026218e-01  -8.891051637259e+01 
6 1 -1.608587582868e+02  -2.024026368535e+02   2.727304298553e+02 
7 1 -2.078870876605e+02  -4.273285656117e+01   6.955064376315e+01 
8 1  1.626918617123e+02  -6.960690676613e+01  -4.271792544241e+02 
8
Step 3200
1 1 -4.392549605088e+01  -2.325320958029e+02  -4.106301671781e+02 
2 1  3.797427415285e+02   1.225902073982e+02   1.920594567645e-01 
3 1 -1.557851088875e+01   3.511731484771e+02   3.946127565814e+02 
4 1  6.746869782363e+02  -3.148845677507e+01  -4.890801803665e+02 
5 1  8.989067938137e+01   1.173983746011e+02   4.175645584129e+02 
6 1  1.978491704975e+02   1.645130447209e+02   2.213186906400e+02 
7 1 -1.378174427176e+02   7.182524725807e+01   3.700669989626e+01 
8 1 -6.461133345697e+02   3.876950901714e+02  -3.784904570281e+02 
8
Step 3300
1 1 -1.274834257198e+02  -2.331550719780e+02   2.466298838315e+02 
2 1  2.338498376908e+02  -7.706535347923e+01   2.993033729990e+02 
3 1  4.734093738045e+02   2.136057210149e+02   1.896612540248e+02 
4 1 -5.876354714458e+02  -5.146648671646e+00  -6.831071635608e+01 
5 1 -2.352794302484e+02  -4.091976744887e+02  -9.425212810007e+00 
6 1  5.285226669016e+02  -3.775453193184e+02  -3.426322748057e+02 
7 1  2.611397992593e+02   2.562492757677e+02   3.294734607244e+02 
8 1 -3.488421306234e+02   2.648430728280e+02   3.252974583434e+01 
8
Step 3400
1 1 -1.861582312297e+02  -2.589841938579e+02  -5.626455573298e+01 
2 1 -4.767928799082e+02   1.823531378606e+02   1.918826687674e+02 
3 1  2.770753526904e+02   3.421951149276e+02  -1.086844818049e+02 
4 1  1.073749060836e+01   5.197220789097e+01  -2.119285333948e+02 
5 1 -2.286066230435e+02  -1.263145307085e+02  -2.335586633691e+02 
6 1 -1.552190644258e+01  -1.507791627474e+01  -9.276686378034e+01 
7 1  1.284715827631e+02   4.521294635140e+02  -3.263652136387e+02 
8 1  1.233077165345e+02   4.287228346080e+02   8.812793074396e+01 
8
Step 3500
1 1  7.226294441453e+02   2.323870034206e+01  -6.405851654235e+01 
2 1 -5.063771383318e+02   5.177970193363e+02  -2.318426538184e+02 
3 1 -2.929265095990e+02  -1.477993579614e+02  -5.526636327639e+02 
4 1 -2.335404125327e+02  -4.958663601202e+02   3.569412548190e+02 
5 1  8.620837511706e+01   1.474578700994e+02   4.985469167312e+01 
6 1 -3.977650638277e+02   4.859403581766e+01  -1.678780839212e+02 
7 1 -2.435040003461e+02  -4.971496940627e+01  -9.118487384608e+01 
8 1  1.537699391534e+02   1.438640583682e+02  -2.001290899792e+02 
8
Step 3600
1 1  6.394754355484e+01   2.561406410416e+02   3.285177625877e+02 
2 1 -4.871567017056e+02   1.523973297502e+01   2.792031259192e+01 
3 1  6.939837460473e+01  -1.619411419299e+02  -4.684214137618e+02 
4 1 -1.001790279510e+02  -7.861614789342e+01   5.072464413361e+02 
5 1  1.041269066569e+02  -1.790002263438e+02  -9.739900618623e+01 
6 1  1.304415885526e+02   2.093794431422e+02   3.041641549743e+02 
7 1 -4.375994566248e+02  -6.200141173622e+01  -8.757005169974e+01 
8 1 -3.454287494228e+01   1.425657852460e+02   2.270033692655e+02 
8
Step 3700
1 1 -1.475485335887e+02   1.098073910459e+02   4.525389439627e+01 
2 1  7.029730907421e+01  -8.882109186582e+01  -8.482798233941e+00 
3 1  1.437486485337e+02  -1.819573263384e+02   1.289122680683e+01 
4 1  8.864691907776e+01   1.311857423567e+02  -1.061445610218e+02 
5 1  3.703347869829e+01   2.238144600931e+02   1.897728932804e+02 
6 1  1.403037481145e+02   7.042949804061e+01   2.807083119179e+02 
7 1  1.861291437428e+02   7.906529983709e+01   2.588571909358e+02 
8 1 -3.376583868229e+02  -9.762563701324e+01   3.891209442494e+02 
8
Step 3800
1 1 -2.826854787267e+02   2.357948077345e+00  -4.400594671921e+01 
2 1  2.432842487956e+02   3.944758970110e+02  -4.386844223267e+01 
3 1 -9.041204682472e+01  -3.601344921154e+02   3.211543592440e+01 
4 1  2.584861720039e+02   5.051513402019e+02  -6.093520418884e+02 
5 1  5.507321003032e+01   2.134364323875e+02   3.861918463140e+02 
6 1  1.434625793112e+02  -3.803424278099e+02   3.953803225615e+01 
7 1  1.258523826107e+01   3.956136152000e+02   1.372654298712e+02 
8 1 -1.718487782786e+02   6.573385797285e+02   3.558752752097e+02 
8
Step 3900
1 1  3.434755425414e+01  -2.384259094740e+02   2.843545632798e+02 
2 1 -6.282825067534e+01  -1.086490082868e+02  -2.029972369772e+02 
3 1 -5.116769164651e+02  -3.721921010685e+01  -2.876810967843e+02 
4 1 -1.225525001445e+02  -2.095746315788e+02  -1.750907353113e+02 
5 1 -6.661934319947e+01  -4.607167886864e+02   2.045687018783e+02 
6 1  5.626535058929e+02   1.828760349193e+01   3.350094095435e+02 
7 1 -1.493058239431e+02  -8.471508203329e+01  -2.756160646476e+02 
8 1  3.285119289852e+02   2.150958067728e+02   7.556106600487e+01 
8
Step 4000
1 1 -1.812784597880e+01   5.560215560417e+01   2.050616332824e+02 
2 1  5.989929539860e+01   1.448481442686e+02  -8.730209022564e+01 
3 1  2.972784359208e+01   3.369935826398e+02  -1.831909247607e+02 
4 1 -2.686288038286e+02  -1.984532680859e+02  -2.954556577264e+02 
5 1 -7.033295177868e+01  -2.660781793529e+02  -5.789187555366e+01 
6 1 -6.815258230835e+01   3.088568996640e+01  -1.952852381099e+02 
7 1  1.711474501170e+02  -4.742554329356e+02  -2.544524085983e+02 
8 1  4.227302498792e+02  -4.917750659353e+02   3.082490898907e+02 
8
Step 4100
1 1 -4.367241740871e+01  -3.433901932219e+02  -5.302440635813e+02 
2 1  3.968949192650e+01   2.475685868631e+00   8.219315023325e+01 
3 1 -2.650264316268e+02   3.427605901891e+01   3.746269541540e+02 
4 1 -3.937798966704e+02  -1.876134091454e+01   3.809586788671e+02 
5 1 -2.321927810369e+02   5.157231023862e+02  -1.345805586494e+02 
6 1 -1.203843576786e+02   5.299090217426e+02  -2.099577333829e-01 
7 1  8.144385108018e+01  -8.168625645490e+01  -2.946993175612e+02 
8 1  1.709099087500e+01  -2.351020999101e+02  -2.884524817960e+02 
8
Step 4200
1 1 -2.817799010969e+01  -1.831465547784e+02  -3.091519812603e+02 
2 1 -5.409545918864e+02   2.160297984746e+02  -1.309290557003e+02 
3 1 -2.733074180564e+02  -5.924493791711e+02   1.739488172015e+02 
4 1 -1.573676223030e+02  -9.058669055785e+01   4.117801811309e+02 
5 1 -1.349865614116e+02   3.240833321747e+02  -2.901720097604e+02 
6 1  1.478679899305e+02  -1.050653465408e+02   3.537998202691e+01 
7 1 -5.404253865783e+02   3.827146144061e+01  -3.916480848836e+01 
8 1 -4.026987015677e+02  -2.334304408620e+02  -6.114368027632e+02 
8
Step 4300
1 1 -5.143810798204e+02   3.052770090762e+02   2.379345436226e+02 
2 1  1.559761563758e+02  -1.710161187150e+02  -4.408661633990e+01 
3 1  1.510410363915e+02   2.617002772691e+02   2.464647593709e+02 
4 1 -1.537955105890e+02  -3.100782133249e+02  -8.292480258122e+01 
5 1  8.116256860104e+01   2.549527272136e+00  -1.585057795113e+02 
6 1 -1.254647752881e+02   6.563213846015e+01   9.717635232368e+01 
7 1 -3.757738855010e+02  -1.109811733716e+02  -1.449697611614e+02 
8 1 -5.407689838690e+02   4.039245307301e+02   9.470321826047e+01 
8
Step 4400
1 1  4.620099532666e+02   4.584263685157e+02   5.348838718477e+01 
2 1  2.142944141883e+02  -6.132241857411e+02  -1.203958864997e+02 
3 1 -4.401160378614e+02  -1.282148310286e+02   4.703680044842e+02 
4 1  3.156855485612e+02   6.022578757815e+02  -1.657840084914e+02 
5 1  2.209930745034e+02  -2.317568322912e+02   8.247639326544e+01 
6 1 -1.587321474920e+02   3.227949479919e+02  -2.937749914597e+02 
7 1  2.890948944300e+02   3.938941337975e+02  -1.388369200234e+02 
8 1  1.589842018173e+02   2.750015865091e+02   9.163919896163e+01 
8
Step 4500
1 1  2.819061825601e+02   7.855224248589e+00   4.796613576918e+02 
2 1 -2.727965453094e+01  -5.399901753112e+02  -2.024875629375e+02 
3 1  1.602213758348e+02  -3.130217739114e+00  -1.927612934506e+02 
4 1  1.917283444445e+02   2.153218868416e+02  -3.224538012365e+02 
5 1 -7.106015014424e+02  -4.061515138835e+02   1.086686385424e+02 
6 1 -1.498296863384e+02   1.475825349050e+01  -3.567576711992e+02 
7 1  2.468705928840e+02   3.548527949021e+02   2.359288828095e+02 
8 1  4.122744933506e+02   3.967019489009e+01  -1.163364397407e+02 
8
Step 4600
1 1  4.329208706584e+01  -5.067960042933e+00   2.418105058232e+02 
2 1  2.793421770937e+02  -2.043490278767e+02   6.027821349565e+01 
3 1  5.354943745905e+01   3.172371985939e+02  -1.285628039978e+02 
4 1 -2.846729760210e+02   3.862025736824e+01  -3.471051951035e+02 
5 1 -2.069442839438e+02   2.113908928439e+02  -2.353282462578e+02 
6 1  2.700038427455e+02  -6.344969223608e+01   4.499740490905e+01 
7 1  9.716012311081e+01  -1.213115232484e+02  -1.125171372633e+01 
8 1  2.761341367849e+02  -1.919841489149e+02   1.638618950267e+02 
8
Step 4700
1 1  2.854535865843e+02  -1.495521870196e+02  -4.542192595199e+02 
2 1 -1.056145550726e+02   2.487889993447e+02   3.676479949416e+02 
3 1  1.326501715138e+02   1.189656128859e+01   4.134755659456e+01 
4 1  2.208176524789e+02   1.897182063025e+02   1.698814712194e+01 
5 1 -3.610964841576e+02   2.901006908221e+02   3.328911370826e+01 
6 1 -3.334009607382e+02  -5.970861988809e+01   1.102803493450e+02 
7 1 -3.185067559019e+01  -1.037706535739e+01   7.437695458252e+02 
8 1 -5.143380002638e+01  -1.016077896866e+02  -6.614220610514e+00 
8
Step 4800
1 1  2.871382384689e+02  -1.339608281750e+02  -1.066239875495e+02 
2 1 -4.368881694779e+01   2.110784744486e+02   3.732271120429e+02 
3 1 -1.704041269003e+02   2.228790249265e+02  -6.745571597325e+01 
4 1  5.724210206292e+02  -3.452498151589e+02   4.054445189785e+02 
5 1  4.300561757018e+01  -1.032871907077e+02  -2.915859659671e+02 
6 1  8.592221339971e+01  -4.055576575957e+02  -7.856594704780e+01 
7 1 -2.262440886895e+02   1.897189993892e+02  -1.839894925718e+02 
8 1 -5.363599238665e+02   2.479699206476e+02   2.026871374886e+02 
8
Step 4900
1 1 -4.173357167118e+02   4.061192376030e+02   2.902315392172e+02 
2 1  4.167289211726e+01  -9.831969618798e+01  -3.197964249295e+02 
3 1  3.670538000621e+02   8.101257165783e+02   1.284389051698e+02 
4 1 -2.198046415170e+01  -3.673930607183e+02  -1.373930116004e+02 
5 1  7.392382325356e+01  -2.138814001906e+02   1.637692653001e+02 
6 1 -7.098444790806e-01   9.922428700827e+00  -3.041155452588e+02 
7 1  1.542522184913e+02  -4.089974643762e+02  -5.296038234926e+02 
8 1  1.908170076352e+02  -5.999379687744e+02   3.777056426856e+02 
8
Step 5000
1 1 -2.965421833102e+02   2.641218666246e+02  -4.776901507768e+02 
2 1  1.429393748917e+02  -3.365352082200e+02   6.481112650952e+01 
3 1  9.658636925680e+01   2.656301101438e+02   3.553055840195e+01 
4 1  1.199123735884e+02  -2.102518449594e+02  -3.389570231164e+01 
5 1 -1.842094644649e+02   1.911720314825e+02   2.656921564038e+02 
6 1  4.835107885474e+01   4.130496746020e+02   1.556784751645e+02 
7 1  9.621730220961e+01  -1.590131111349e+02   1.845632189096e+02 
8 1 -2.069946892739e+01  -3.858030373786e+02   2.512086093638e+02 
8
Step 5100
1 1  1.494547158323e+02  -3.279835843909e+01  -4.505495519030e+02 
2 1 -9.954618126685e+00   1.752686174590e+02   1.853699765325e+02 
3 1 -3.333688256527e+02  -8.759748611785e+01  -5.379970464120e+02 
4 1  8.038977829521e+01  -4.027624127934e+02  -7.173232684988e+01 
5 1  1.550136028083e+02  -2.319216041897e+02   8.249695409817e+01 
6 1 -1.385507421721e+02  -2.740219422560e+02   7.417701582637e+01 
7 1 -2.146934254682e+02  -2.488736833331e+02  -2.221220603989e+01 
8 1  2.511193809088e+02   2.098035942485e+02  -2.184891506374e+02 
8
Step 5200
1 1  8.525797017302e+01  -3.675073400886e+02   3.072426701498e+02 
2 1  1.540199509785e+02   9.500558935224e+01   8.775043034980e+01 
3 1 -2.033346505307e+02  -5.874784973891e+02  -4.137397730309e+02 
4 1 -1.432836267649e+02   1.593693488106e+02   1.715005660222e+02 
5 1  2.888950203600e+02   2.346646735604e+02  -2.533197947288e+02 
6 1 -1.832382649303e+02   2.559902087675e+01   5.793772423363e+02 
7 1 -7.766441380735e+01  -1.301524798276e+02  -1.685658681531e+02 
8 1 -2.142257510423e+02   2.426347986657e+02  -3.793794916922e+02 
8
Step 5300
1 1 -1.395250176588e+01  -2.778626678837e+01   6.174188994219e+02 
2 1 -2.114206592672e+02   3.499980063655e+02  -2.498290891298e+02 
3 1 -1.825949863755e+02  -7.027724795069e+02   1.716865884251e+02 
4 1  4.541305989254e+01   8.726640170863e+01  -4.990100235910e+01 
5 1 -4.007856206213e+01  -1.741914445026e+02  -3.321629944601e+02 
6 1  1.095883796293e+02   1.614990269329e+02   5.261288371272e+02 
7 1 -1.122973966176e+02   2.752969600440e+01   7.716082640329e+01 
8 1  1.045206616352e+02  -5.043778510685e+01  -1.413555729431e+02 
8
Step 5400
1 1 -5.104656878142e+01   3.972258606393e+02   1.135150676021e+02 
2 1 -1.817623579305e+02   4.898677093160e+00   2.619437460457e+02 
3 1  4.834463290996e+02   1.868402411843e+02   9.631901108190e+01 
4 1 -8.879790274328e+01   8.742722871966e+01   1.021516065474e+02 
5 1 -2.919816142352e+02  -2.038146645289e+02   2.446869366858e+02 
6 1 -3.212096395985e+01   1.464474366149e+02  -1.315345180868e+02 