8
Step 0
1 1 -4.056280126003e+01   1.371449901251e+02   1.470598043154e+01 
2 1  2.107064351758e+02  -1.422930152425e+02   3.573847818657e+02 
3 1  1.728894614324e+01   1.616061682560e+02   7.171819774615e+01 
4 1 -2.215106457595e+02  -8.152548699606e+01   1.534420046062e+02 
5 1 -2.211490956104e+01   2.753994767903e+01  -6.917218018508e+01 
6 1  2.526194619112e+02   4.566550928053e+01   6.289639186301e+01 
7 1 -6.646355944841e+01  -3.811521897182e+02   2.681196536707e+02 
8 1 -8.566791962942e+01   7.859889221480e+01   3.953139915609e+01 
8
Step 100
1 1  3.741563297787e+02   6.550731288621e+02  -1.681139084180e+01 
2 1 -8.998363866776e+02   1.713817360160e+03  -7.945342192706e+02 
3 1  5.198519810467e+01   1.185267673401e+03   1.483577260425e+02 
4 1  6.491348496436e+02   1.183970642174e+03   6.632535287764e+02 
5 1 -1.370215703349e+03  -4.581524623805e+02   2.131597171766e+03 
6 1 -7.958547200627e+02   1.392666469810e+03  -1.231112292681e+03 
7 1 -3.891414827457e+02  -2.558250584118e+02   5.300711114774e+02 
8 1 -5.356378737309e+02  -1.086392313092e+03  -1.418079809037e+03 
8
Step 200
1 1  3.224091696003e+02   8.013149238326e+02   9.232192547028e+01 
2 1 -1.001788792801e+03   2.003615967675e+03  -1.151969648193e+03 
3 1  3.908735047427e+02   1.279863686240e+03  -1.051059374514e+02 
4 1 -7.238514992662e+01   1.353632645703e+03   9.378185940369e+02 
5 1 -1.684831554807e+03  -1.043400546165e+03   1.891140762286e+03 
6 1 -9.428882105381e+02   1.477446856978e+03  -5.873617168725e+02 
7 1 -7.351954071137e+02  -2.067851380058e+02   6.446179205166e+02 
8 1 -3.294692792025e+02  -1.072499330105e+03  -1.877831412686e+03 
8
Step 300
1 1  2.061777381047e+02   6.548459752515e+02  -9.975903610307e+01 
2 1 -7.368155335020e+02   1.383959579136e+03  -6.406330408745e+02 
3 1  2.957649246178e+02   1.010847650051e+03   3.793112743254e+02 
4 1  1.195141066203e+01   7.537496216133e+02   6.110566493960e+02 
5 1 -1.075466497405e+03  -6.782908165516e+02   1.056597690537e+03 
6 1 -8.833973075664e+02   8.248130987319e+02  -4.628345507672e+02 
7 1 -4.308618169851e+02   7.030980863707e+01   5.406044881883e+02 
8 1 -3.954249462590e+02  -6.748071370760e+02  -1.233672882073e+03 
8
Step 400
1 1  1.359639277935e+02   4.689055835773e+02   5.760935622602e+01 
2 1 -6.966831149624e+02   5.659904988313e+02  -2.713076597714e+01 
3 1  3.870470488101e+02   4.825856145205e+02  -1.981164585527e+02 
4 1  2.665512146100e+02   5.103918722801e+02   7.627390604275e+02 
5 1 -7.152403034612e+02  -7.994717042574e+02   5.987487111420e+02 
6 1 -4.457262467586e+02   3.225838641602e+02  -2.131690059383e+02 
7 1 -3.381690343573e+01   1.232253685635e+02   6.971262513726e+02 
8 1 -6.227719172918e+02  -1.212804425327e+02  -7.630484523688e+02 
8
Step 500
1 1  3.177809511721e+02   1.123067202232e+02  -2.193217650642e+02 
2 1 -2.160862180167e+02   1.517619406462e+02   1.294454126201e+02 
3 1  7.069506728087e+02   1.013015532328e+02  -1.836667338662e+02 
4 1  8.417671824613e+01   2.866905576287e+02   4.760747753099e+02 
5 1 -5.659445614012e+02  -3.754327316558e+02   3.634661670476e+02 
6 1 -7.553134532030e+01   6.942201399048e+01  -1.290781972522e+01 
7 1  3.489697086396e+02   5.121509233371e+01   2.840173229689e+02 
8 1 -6.331890062314e+02   2.327929700404e+02  -5.676109554754e+02 
8
Step 600
1 1  1.646586928936e+02   1.563486926733e+02  -3.333585519246e+02 
2 1  1.851635007459e+02   3.112448130946e+01   1.033612112797e+02 
3 1  2.391210520448e+02  -2.634628426455e+01  -2.571529719939e+01 
4 1 -1.309526467777e+02  -2.305628977185e+02   2.958944733562e+02 
5 1 -7.463808475287e+02  -4.993978565377e+02  -2.304492512487e+02 
6 1 -4.496234649586e+02  -6.865518058267e+01   2.301876505420e+01 
7 1  2.414313768959e+01  -5.397806566143e+01   1.933996224279e+02 
8 1 -5.316644990916e+02   4.170656227852e+02  -1.212131356079e+02 
8
Step 700
1 1  1.453682506213e+02   4.191248558264e+01  -2.034327843266e+02 
2 1  3.622462345721e+02   8.674135032007e+01   2.506506508780e+02 
3 1  2.533840073805e+02   1.780180352890e+02   1.473557589411e+02 
4 1  9.165549334052e+01  -3.134578552958e+02   3.197180617618e+02 
5 1 -4.545802191739e+01  -3.389330474074e+02  -2.686148318290e+02 
6 1 -2.610058734967e+01  -6.047157874504e+01   1.631264682130e+02 
7 1  1.913859027191e+02   7.699402185338e+01  -1.246209612662e+02 
8 1 -3.913756096502e+02   1.661723041332e+02  -1.199506492048e+02 
8
Step 800
1 1  4.704003310845e+01  -2.291749959623e+02  -2.000779640010e+02 
2 1  2.571527370397e+02  -7.957780955970e+00  -2.800261622908e+01 
3 1  1.311788116534e+01   1.204722245591e+02   2.460877311893e+02 
4 1 -2.844575050678e+02  -8.542914137600e+00   3.946917709288e+02 
5 1  1.429564522480e+02   5.823109234953e+01  -4.081635719397e+02 
6 1  9.876111802127e+01   9.155010395650e+01   9.356495177417e+01 
7 1  7.802341795129e+01  -4.783713705375e+01  -1.858373624463e+02 
8 1 -4.696536773030e+02   2.222921856613e+02  -7.998931472843e+01 
8
Step 900
1 1 -7.150069109505e+01  -8.868242234122e+01   1.124452108939e+02 
2 1  1.734081858211e+01  -1.209591960486e+02   1.942874944909e+01 
3 1 -7.409739878120e+01  -1.890006283440e+02   1.840547688704e+02 
4 1  1.447865906717e+01  -1.984922054872e+02   2.328329261542e+02 
5 1 -1.700073508972e+02  -4.684465845546e+01   5.898435261801e+01 
6 1  3.814709521603e+02   1.396351390398e+02   1.061757395764e+02 
7 1  1.654590110245e+02  -7.207397880234e+01  -7.226355854451e+00 
8 1  3.194706074075e+01   1.564701018786e+02  -5.060607216400e+01 
8
Step 1000
1 1  2.261765916641e+02   4.136108027740e+01   9.279429177592e+01 
2 1 -1.670522698436e+02   3.086738239362e+01   1.152072882771e+02 
3 1  2.955439109893e+02  -2.697174083847e+02  -4.402223153928e+01 
4 1 -2.499483398063e+02   2.971851607719e+02   6.299959872714e+01 
5 1 -5.881578706366e+01   6.517493578188e+01  -2.749802554213e+02 
6 1  2.038768332895e+02  -1.332315708008e+02   1.536263537452e+02 
7 1 -8.001834117615e+01  -4.731107383363e+01  -1.024722716275e+02 
8 1 -4.468803181347e+01   1.725251620572e+02   5.654758013890e+01 
8
Step 1100
1 1  2.271324092461e+02   1.695217216699e+02   9.363528842374e-01 
2 1 -2.744649364717e+02  -1.832022608723e+01  -1.107767038690e+02 
3 1  2.236499008122e+02   2.351126897604e+02   5.596501198853e+01 
4 1 -2.432438397962e+01   1.451096566429e+02  -2.574441640408e+01 
5 1 -4.497949788259e+01  -8.549852418497e+01   1.025627153229e+02 
6 1  2.336279536656e+01  -3.276520591053e+02  -2.442205769605e+02 
7 1 -9.962251395870e+00  -2.195486250783e+01  -2.636870032472e+02 
8 1 -3.019965384910e+02  -5.780371973679e+01  -2.211056106000e+02 
8
Step 1200
1 1  4.470545533217e+01   4.118669765819e+01   1.281143904295e+02 
2 1 -1.113190758246e+02  -6.147605965567e+01  -9.865969553003e+01 
3 1  1.249677426514e+02   8.778563182978e+00   2.624944472589e+01 
4 1 -9.641738484620e+01  -2.483104044501e+02   3.478062863594e+01 
5 1 -1.746292628630e+02  -6.675680650220e+01   1.583721702271e+02 
6 1 -3.486055370563e+02  -2.349576951262e+02   3.680272095187e+01 
7 1  2.279196447776e+02   2.800556299657e+02   2.747276236648e+02 
8 1 -1.615221984721e+02   1.479067817687e+02   3.788814028021e+02 
8
Step 1300
1 1 -9.186924776394e+01   2.170840578318e+02   2.689718517406e+02 
2 1 -1.008516393544e+02  -1.139378879984e+02  -2.028612806792e+02 
3 1 -1.193836204320e+02   2.687506427632e+02   1.046949925630e+02 
4 1  1.489547091447e+01  -6.458914334087e+01  -1.323408546831e+02 
5 1  1.358621494938e+02   1.337510781899e+02   7.044747279727e+01 
6 1 -1.261325047016e+02   1.574528470826e+02  -2.333527504704e+01 
7 1  2.201567437371e+02   3.257598094914e+02   4.510821448299e+02 
8 1  1.858744239758e+02  -6.076215488246e+00   8.179823014289e+01 
8
Step 1400
1 1 -6.423751494620e+01  -7.148395169942e+01  -2.836321792848e+02 
2 1 -2.615863901076e+02   1.218114562339e+01  -6.367695381823e+01 
3 1  4.519177484095e+01   2.660888482866e+01   2.943718992171e+02 
4 1 -2.731846130154e+02   2.278219430627e+02  -2.340331364506e+02 
5 1 -1.093329535392e+01   2.121732493301e+02   5.699507781506e+02 
6 1 -6.406211016074e+01   2.607924489074e+01  -1.834296383428e+02 
7 1  1.451406206333e+02   1.439737230117e+02   3.088723492663e+02 
8 1  3.784825415738e+02  -1.416864160004e+02   2.218700405728e+01 
8
Step 1500
1 1  5.383224658155e+01  -4.016175990646e+02  -2.740051138538e+02 
2 1 -1.024872132016e+02  -2.058024695775e+02  -2.639287300682e+02 
3 1 -2.178474038722e+02  -2.471220992149e+02  -1.085679941718e+02 
4 1  1.954765980908e+02   8.767873888048e+01  -4.957764149212e+01 
5 1 -2.060195141137e+02   5.487585807465e+01   5.649508982199e+01 
6 1  1.125910235600e+02  -1.586333105658e+02   3.073017008923e+01 
7 1  2.718120861783e+02  -1.271543415825e+02   2.334325101011e+02 
8 1  2.068595890785e+02   1.685106074835e+02  -5.205465956349e+01 
8
Step 1600
1 1 -2.605836499727e+02  -3.437005819611e+02  -1.292569917476e+02 
2 1  2.192576816656e+02  -2.173639918075e+02  -5.205883122540e+01 
3 1  1.683678797651e+02  -1.284537528246e+02   2.339919423915e+01 
4 1 -1.258435963483e+02   4.303381680459e+01  -1.272044917873e+02 
5 1 -2.748149709795e+02  -7.455650167132e+00   6.075420329328e+00 
6 1 -2.402909710280e+02   7.524274351029e+01   2.314259671398e+02 
7 1  1.922094438842e+02  -2.056486227535e+02  -1.618637796754e+01 
8 1 -3.430264042147e+02  -3.170552106072e+02  -1.428891136632e+02 
8
Step 1700
1 1  1.803853340004e+02   2.183539535957e+02   2.939833842644e+02 
2 1  3.993973402738e+02  -3.115849577811e+02  -3.236239934467e+01 
3 1  1.733717195455e+02  -6.241414826656e+01  -8.732377406389e+01 
4 1  1.738780671220e+02   4.017103284294e+01  -1.314795138803e+01 
5 1  2.258684906764e+02  -3.324829375162e+02  -1.922988874260e+02 
6 1 -1.645319522876e+02  -2.140629850129e+02   2.131628354588e+02 
7 1 -3.418196522555e+01  -2.653740932202e+02  -6.348429951541e+01 
8 1 -1.591480117811e+02  -2.041560348611e+02   5.883568782894e+01 
8
Step 1800
1 1  1.674574412688e+02   3.194927396032e+02   1.286137222657e+02 
2 1  1.310123475058e+02  -1.008614781581e+02   2.359454123256e+02 
3 1 -1.193737322435e+01   1.293840791575e+02  -7.636895936695e+01 
4 1  4.196037822764e+02   1.404881868602e+02   3.543106986870e+01 
5 1  3.190938387317e+02  -1.531308258546e+02  -5.452006142505e+01 
6 1  1.182651257107e+02   1.139787060900e+02  -1.052907452643e+02 
7 1 -1.531387160566e+02   4.372354616666e+01  -2.956510779431e+02 
8 1 -5.692572555575e+01   3.454990151837e+02  -4.980143975232e+01 
8
Step 1900
1 1 -1.798950879908e+02   2.633299670779e+02  -1.265865491131e+02 
2 1 -1.714142804033e+02   2.173970031267e+01  -2.002596915823e+02 
3 1 -1.028920781942e+02   3.048208690103e+02   9.994227701846e+01 
4 1 -1.993744088316e+01  -3.699562616498e+00  -2.237876246136e+02 
5 1  1.367527801517e+02   2.898512170906e+02   2.707608062705e+02 
6 1  1.510904403926e+02   3.344580494477e+01  -1.655435471363e+01 
7 1 -6.119300519939e+01   1.300416766159e+02  -3.109601331124e+02 
8 1  1.290794914847e+02   2.794585166665e+02  -8.745164376180e+01 
8
Step 2000
1 1 -2.582587333781e+02   2.285342137961e+02  -4.295104654128e+02 
2 1 -1.605268394399e+02   1.928956257890e+02  -4.127046160701e+02 
3 1 -1.281785597824e+02   4.667393698987e+02   1.789785316206e+02 
4 1  7.867401249659e+01   1.749286121499e+02   8.406418577831e+01 
5 1 -1.984195867359e+02   6.342151846944e+01  -1.585847981457e+02 
6 1  1.275206479215e+02  -1.167475369715e+02  -9.409417177287e+01 
7 1 -4.974696313027e+02   3.816806400214e+00   6.164083984776e+01 
8 1  2.531272195853e+02   1.782663135720e+02   1.284910037008e+02 
8
Step 2100
1 1  7.371885180336e+01  -1.309905650092e+02  -1.243744764041e+02 
2 1 -7.520548890217e+01  -1.348992904885e+02  -1.337845591552e+02 
3 1 -1.883840946452e+02  -1.906733877674e+00  -2.973328053635e+00 
4 1 -2.112838285051e+01   3.518665479244e+02   2.287054600758e+02 
5 1 -6.758840664791e+01  -1.623753005448e+02   2.141908926322e+02 
6 1  3.064599821001e+02   1.452749296885e+02  -1.512143842853e+02 
7 1  9.292394303288e+01  -3.402521849526e+01   1.708833578394e+02 
8 1  1.900536798178e+01   2.533479443776e+02  -1.368391547274e+02 
8
Step 2200
1 1  2.199565317012e+02  -2.965799608232e+02   2.746370400296e+02 
2 1  1.943307492725e+01  -2.436299786450e+02  -3.023805003577e+02 
3 1  1.688594429384e+02   5.852830290415e+01  -1.030688035711e+02 
4 1  1.067601725566e+02   2.433449483742e+01  -1.137479428173e+02 
5 1 -1.701580018049e+02   1.048574808089e+02   1.047155695463e+02 
6 1  9.094915500704e+01   2.701085909921e+02   1.629888169496e+02 
7 1  9.383537954758e+00   1.031796410055e+02  -5.362408744264e+01 
8 1  6.073938979122e+01  -2.107851869659e+02  -1.687095874661e+02 
8
Step 2300
1 1 -3.408527834311e+01   6.170028784093e+01  -3.111738992522e+02 
2 1  1.312210497509e+02   2.401319775983e+02   5.303205965990e+01 
3 1  1.292722425350e+02  -1.252093679376e+02   7.131907568018e+01 
4 1  5.661022785912e+01  -1.410976715309e+02  -1.092794268773e+01 
5 1  2.767280291410e+02  -2.590694933006e+01  -2.870618863403e+02 
6 1  1.742423773298e+02   2.587895875714e+02   8.654243334577e+01 
7 1 -3.224800422003e+01   2.263872196899e+02  -1.893335606755e+02 
8 1 -1.303144949635e+02  -2.221924078718e+02   1.946560410441e+02 
8
Step 2400
1 1  3.805317470293e+01  -1.023486665652e+02  -9.121514384971e+01 
2 1 -7.136715923021e+01  -9.166891550422e+01   8.085438046729e+01 
3 1 -2.122231613335e+02  -2.026606212443e+02   4.268628280370e+01 
4 1  3.074151508989e+02  -2.023161141728e+01   7.327645381576e+01 
5 1  3.871454645105e+02  -6.655525023474e+01  -2.593100973526e+02 
6 1 -1.524655109351e+02   6.859307631077e+01  -2.485621010318e+02 
7 1  1.776737521800e+02   9.640113884469e+01  -9.626091834163e+01 
8 1  2.046908916154e+02   5.045262148316e+00   4.439882003017e+01 
8
Step 2500
1 1 -4.756733359463e+01   7.196676945648e+01   8.880416363446e+01 
2 1 -1.038355083169e+02  -6.080891596084e+01   2.294105531200e+02 
3 1  6.723033823077e+01   8.101556256726e+01   1.658286455436e+02 
4 1  8.135899970740e+01  -2.913740625893e+01  -5.487888391603e+01 
5 1  4.298794912131e+02   2.086502774484e+01  -2.575539959230e+01 
6 1 -1.464072892919e+02  -4.191060858077e+01  -2.652942582630e+02 
7 1  1.515690732334e+02  -4.414973648388e+01  -5.509546112314e+01 
8 1  1.225943883539e+02  -1.677207684851e+02   4.597425526060e+01 
8
Step 2600
1 1 -1.041523775990e+02  -2.036026695631e+02   2.089545077966e+02 
2 1  1.737768515979e+02   2.157530412739e+01   3.942157254275e+02 
3 1 -3.848791179374e+02   1.597218946610e+01   1.088070752676e+02 
4 1 -1.939429742891e+02  -1.011662214971e+01  -5.207823912213e+00 
5 1  1.253165421165e+02  -1.335685685508e+02  -7.346056951745e+01 
6 1 -9.492244866166e+01  -5.188348631001e+02  -1.882076631547e+02 
7 1  2.920084254778e+02  -1.041863238150e+02  -1.081223769664e+02 
8 1 -2.196072213092e+02  -3.351791317177e+01   4.955299554152e+01 
8
Step 2700
1 1 -2.039025251306e+02   2.990357236655e+01   1.704271916335e+02 
2 1  3.915581200823e+01   3.733911601421e+00   1.985194567968e+02 
3 1  9.924389626245e+01   1.062030601132e+02   5.356943828991e+01 
4 1 -1.530773580044e-01  -2.847516749243e+02   4.319278086111e+01 
5 1 -2.311220759325e+02   9.453050688597e+01   1.014468890094e+02 
6 1 -1.349175230412e+02  -5.181192470239e+01   6.165447860128e+01 
7 1  9.519375680258e+01   3.530893972680e+02   3.881028594919e+00 
8 1  8.304618688441e+01   6.954941444054e+01   1.033900814197e+00 
8
Step 2800
1 1 -7.781356645271e+01  -6.182215918243e+01   7.018019820302e+01 
2 1  4.525742202420e+01   1.146595954683e+02  -1.693218947574e+01 
3 1  1.704950346363e+02   1.252058023619e+02  -2.993946464836e+02 
4 1 -5.442513875539e+01   5.986947471198e+01  -1.130286058193e+02 
5 1 -2.655796329523e+01  -6.152288317186e+01   1.175950108862e+02 
6 1 -1.674003927386e+02   4.429079015027e+02   3.365710086729e+02 
7 1 -4.865630922335e+02   1.280718208679e+02   1.438593560207e+02 
8 1  1.580527217900e+02  -2.643524623810e+02   1.944774749387e+02 
8
Step 2900
1 1 -2.058148543427e+01   7.966629461861e+01   6.930995556865e+01 
2 1  2.003843918323e+02  -3.677980354320e+01   4.806619636655e+02 
3 1  5.183818023240e+02   2.305777147249e+01  -1.046386377622e+02 
4 1 -4.484542865924e+02   7.269092881678e+01  -1.165980788213e+02 
5 1 -2.860475105193e+02  -1.879786917189e+02   2.275352162677e+02 
6 1  3.734199649364e+02   1.883344206171e+02   1.169084507754e+02 
7 1 -1.418411754052e+02  -4.581041109607e+02   2.733167089463e+00 
8 1 -3.572969187930e+01  -1.182330800771e+01  -8.006888003802e+01 
8
Step 3000
1 1 -1.467962433418e+01  -4.386388683330e+01  -1.061457649295e+02 
2 1 -2.739680637777e+02  -5.996933070176e+01   1.054177076316e+01 
3 1 -1.232151824778e+02   1.974118038446e+02   1.174121413157e+02 
4 1 -4.697280626712e+02   1.088816469867e+01  -3.963877369591e+01 
5 1  1.315805656585e+02  -2.027958199643e+02   3.856009051281e+01 
6 1 -6.778654597621e+00   1.291950448548e+02  -5.172943991847e+01 
7 1  6.162924724496e+01  -3.526213584850e+01   3.010835680130e+02 
8 1  5.507957553375e+01   9.590691232561e+00   4.801184471086e+00 
8
Step 3100
1 1  3.335866418205e+02   3.100924923166e+02  -1.377669743645e+02 
2 1 -4.427504389239e+01  -1.507576704195e+02  -1.100364281568e+02 
3 1 -2.318456056992e+02  -2.009259355900e+02   2.243915478961e+01 
4 1  1.863800494998e+02   1.344420638793e+02   1.167513475551e+02 
5 1  8.448993352038e+01  -1.565246081657e+02   5.211648295487e+01 
6 1  8.751669283056e+01  -1.237096300392e+02   1.595775261412e+02 
7 1 -1.748665717665e+02  -2.051819028574e+02   4.265019037172e+01 
8 1  1.091767439198e+02   1.004770518402e+02   1.657808266409e+02 
8
Step 3200
1 1  3.817417924415e+02   1.941380802041e+02  -3.830678614327e+01 
2 1 -3.232959021098e+02   2.197219696890e+02   1.746926425209e+02 
3 1 -5.542853340433e+01  -1.507546159308e+02  -1.371144589389e+02 
4 1  6.774656755105e+01   7.246816683523e+01  -1.396677311070e+02 
5 1  2.017379330931e+02  -4.214473860041e+01   9.508291328897e+01 
6 1 -9.878777406168e+01  -7.064033106437e+01  -6.372774484455e+01 
7 1 -6.950131835735e+01   1.863485195261e+01   3.430804717197e+01 
8 1  9.190847146559e+01   2.372012374637e+02  -8.697815238909e+01 
8
Step 3300
1 1  1.015107330583e+02   1.324829174476e+02  -1.671665864697e+02 
2 1 -2.900041432717e+01  -2.136825688252e+02  -2.559335161219e+02 
3 1  1.651711224478e+01  -9.551039577552e+01  -1.631175032428e+02 
4 1 -5.597903745891e+01  -6.220786143307e+01   6.885978325012e+00 
5 1 -4.502714684244e+01  -9.952319676834e+01   1.614084897536e+02 
6 1  6.517558991668e+01  -5.617589835440e+01  -2.100491251233e+02 
7 1 -1.509977219465e+02  -8.121898663133e+01  -4.101922080908e+01 
8 1  1.187647665530e+02   1.591159522380e+02  -2.440554458571e+02 
8
Step 3400
1 1 -1.564250355146e+02   1.882518782128e+02   8.333770487544e+01 
2 1 -1.101163935009e+02   2.070578610350e+02  -9.806968839507e+01 
3 1  2.315222258691e+02  -2.914192147772e+00   7.792797191122e+01 
4 1  1.890447865435e+02  -4.935547098292e+02  -1.504267711842e+02 
5 1 -8.507189523961e+00   1.074275627490e+02  -2.039282375373e+01 
6 1 -1.852520943379e+02   2.624243783436e+02   5.887914916489e+01 
7 1  6.727350219370e+01  -2.031231824201e+02  -8.576933851006e+01 
8 1  3.215486684869e+02   1.308252220319e+02  -2.021293616542e+02 
8
Step 3500
1 1 -6.119557310613e+01  -1.412509509153e+02  -2.827157651068e+02 
2 1  4.593680765419e+02   5.159424651706e+01  -3.230055605712e+02 
3 1 -2.824922351182e+01  -7.804744139633e+01   2.876578151159e+02 
4 1  4.318909718902e+02  -5.386992230853e+02  -3.038698481050e+02 
5 1 -4.370818370027e+01   1.308166166663e+02  -2.504037762981e+02 
6 1  2.865179551601e+01   3.318426824147e+01  -7.627192398764e+01 
7 1 -1.438173280459e+02  -1.171820199349e+02   4.419144868624e+01 
8 1  4.437041367411e+00  -3.008421668383e+01   1.806755293924e+02 
8
Step 3600
1 1 -9.038557545741e+01   7.226645761809e+01   7.650151597536e+00 
2 1  3.908190886643e+02  -5.537587738399e+01   1.727583145536e+01 
3 1 -2.420073594080e+02   1.930354484245e+02   2.015642512970e+02 
4 1 -7.036435375347e+01  -8.672788474725e+01   1.097771563942e+02 
5 1  3.957714975525e+02   1.958221844522e+02  -2.121471947168e+02 
6 1  3.186242623937e+02  -6.152732838808e+01  -2.888536420128e+02 
7 1  3.828649781921e+02   9.063839251274e+01  -1.067880613125e+02 
8 1  7.891544040312e+01  -2.263838009878e+02   2.062968720686e+02 
8
Step 3700
1 1  3.152407363401e+01   1.295020863812e+02   4.619984881991e+00 
2 1  6.505630214275e+00   3.197877830343e+02  -4.813729804234e+01 
3 1 -1.727637506380e+01   1.632460614874e+02  -2.221972901545e+02 
4 1 -2.882000722672e+02  -6.454880850077e+01  -2.148448758266e+01 
5 1  7.965859053048e+01   2.771532925126e+02   1.480965276096e+02 
6 1  2.060890987750e+02   1.132269172450e+01  -1.279469146604e+02 
7 1  2.273334407767e+02   2.092425508366e+02   7.299894353704e+01 
8 1  6.773143542668e+01  -5.468507439975e+01  -3.716839681663e+01 
8
Step 3800
1 1 -1.585428972889e+02   2.987284540319e+02  -1.175425024694e+01 
2 1  1.217578014248e+02   6.950110950137e+01  -6.907618394044e+01 
3 1 -2.940952158406e+02   4.543743987222e+01  -1.172814553881e+01 
4 1 -4.323240519044e+01  -6.410408970013e+01   7.037940015040e+01 
5 1  7.643554332561e+01   1.045543017550e+02   5.932455811417e+01 
6 1  2.364792242943e+02  -6.363388820031e+01   2.440440041473e+02 
7 1 -2.259155442160e+02   5.506854095408e+02  -3.148219796226e+02 
8 1 -3.780891768395e+02  -7.100978586994e+01   2.606258652876e+02 
8
Step 3900
1 1 -1.413484420555e+02   8.641887516569e+01  -6.178691548631e+01 
2 1  1.550893537653e+02  -1.517044962372e+02  -4.089135372658e+01 
3 1 -1.230471953276e+01  -1.409002199757e+02   1.119830214258e+02 
4 1 -1.964230582979e+02   5.940143398883e+01   1.628898181530e+02 
5 1 -1.392156180391e+02  -6.567886437559e+01   1.776826657320e+02 
6 1 -1.283276794270e+02  -1.894487251054e+02  -9.125741095372e+00 
7 1  1.546510168627e+02   1.841645093156e+02  -2.619424570574e+02 
8 1 -5.441059029464e+02   1.744389013220e+02   1.960224418183e+02 
8
Step 4000
1 1 -2.735531746750e+01  -1.652766600134e+02   1.357704654017e+02 
2 1  1.167773766577e+02  -2.754181216836e+02   1.734899480261e+02 
3 1 -6.327416362821e+01  -1.116409284632e+02   1.702962107023e+02 
4 1 -3.637016238046e+02   1.514953992991e+02   1.621736371422e+02 
5 1 -1.543062300676e+02   6.330137185890e+01   1.556104355114e+02 
6 1  1.301339737639e+02  -2.375882413465e+02  -4.623027885892e+01 
7 1  2.880342899391e+02   2.218717874376e+02  -1.778465925105e+02 
8 1 -2.164917261067e+02  -2.910101077732e+02  -1.963228827126e+02 
8
Step 4100
1 1 -2.614399559782e+01  -2.475936111972e+02   1.958200728109e+02 
2 1 -6.633929831231e+02  -2.378393308544e+02   1.813863961405e+02 
3 1  2.875014568506e+02   1.078774568206e+02  -1.937471207733e+02 
4 1 -2.823118595685e+02   1.213370197112e+02   7.174563058975e+01 
5 1 -2.196352016486e+02  -5.910616262442e+01  -5.786392551096e+01 
6 1 -6.811936408428e+00  -3.440746486516e+01  -5.302498348918e+01 
7 1  2.308404524877e+02   5.397702862067e+01   1.727639270898e+02 
8 1  1.586978408278e+02  -2.587326466325e+01   1.994746308037e+01 
8
Step 4200
1 1 -9.634155162834e+01  -1.720340625815e+02   3.342598842852e+02 
2 1  8.269777618794e+01  -1.372793424970e+02   1.935270956096e+02 
3 1  6.136142374301e+01  -2.606317024941e+01   5.671780004172e+00 
4 1 -4.978663476054e+01   1.974294813174e+02   1.043617098635e+02 
5 1  1.674431499087e+02  -1.104377606382e+02  -2.393699042304e+02 
6 1  4.088686520936e+01   3.535979474497e+02  -8.887536792931e+01 
7 1 -1.786001733354e+02  -3.224743986978e+01   9.918280975282e+01 
8 1  8.531726088676e+01  -4.816888226149e+01   1.619967866876e+02 
8
Step 4300
1 1 -1.449189323573e+02   2.159771651057e+02   5.177792037879e+01 
2 1  4.444291262599e+00   2.322208911411e+02   1.290734165272e+02 
3 1  9.657436548268e+01   2.228573683615e+02  -3.339961265292e+02 
4 1  1.191905271056e+02  -3.683662116868e+01  -4.035624466959e+00 
5 1  2.376973099041e+02  -1.884336469311e+01  -7.054023414543e+01 
6 1  2.829112426702e+02   2.423339666891e+02  -1.221954271576e+02 
7 1 -1.067347326934e+02  -6.225847912248e+01  -5.909297783947e+01 
8 1 -4.124188414522e+01  -6.093001281543e+01  -1.156673968098e+02 
8
Step 4400
1 1  5.621780446776e+01  -7.647519745545e+01   3.757828671290e+00 
2 1 -2.599371799383e+01   1.627838960055e+02   1.870773804433e+01 
3 1  1.711185595982e+01  -9.952612342398e+01  -3.937215703568e+02 
4 1 -1.977317522322e+00  -2.751918239958e+01  -5.001382148717e+01 
5 1  1.722183112527e+02   6.602590777500e+01  -1.181329977695e+02 
6 1 -1.117217133792e+02   3.143397741678e+02   2.000745617542e+02 
7 1  1.176281205853e+02  -1.408473312105e+02  -5.468449530150e+01 
8 1 -7.995224572473e+01  -1.712355265073e+02  -1.941736583744e+02 
8
Step 4500
1 1  3.735623332912e+02  -2.663919662081e+02  -2.895569866506e+02 
2 1 -6.271027020155e+01   9.565164590566e+01   1.416757541969e+02 
3 1 -2.020178657450e+02  -8.856764937244e+01  -1.167401342290e+02 
4 1  2.978815057988e+02   3.335819764359e+02   1.561119620774e+02 
5 1  2.754669767766e+02   2.585654884141e+02  -9.246920154456e+01 
6 1 -2.863008741010e+02   3.472461652177e+01   2.983923338817e+02 
7 1 -2.253974237598e+02   5.220103785375e+01   8.684318837987e-01 
8 1  2.528146261408e+02  -8.869077306155e+01  -2.658471520554e+02 
8
Step 4600
1 1  1.996608921572e+02  -1.723847672818e+02  -3.819359468429e+02 
2 1 -4.872921940104e+01   4.118560183966e+00   1.957924345779e+02 
3 1 -1.821141510278e+01   1.368360393926e+01   1.315873409014e+01 
4 1  1.605622986940e+02  -6.885567829218e+01  -2.235390320092e+01 
5 1 -1.035912245706e+02   2.189077545335e+02  -1.184887213038e+02 
6 1 -2.403090443018e+02  -1.797704537813e+02   1.558332384446e+02 
7 1 -2.412307193802e+02  -3.393019529614e+01  -9.131557101801e+01 
8 1  1.105918805658e+02  -2.580894756772e+02  -1.417601163438e+02 
8
Step 4700
1 1  1.477299639159e+02   1.465683471502e+02  -2.517519811663e+02 
2 1  2.140821533371e+02   1.906770291581e+02   9.130484787543e+01 
3 1 -5.040433304143e+01   2.412571487437e+01   2.474560809689e+02 
4 1  5.324156850197e+01   1.778713657094e+02  -2.703450109037e+02 
5 1 -2.424694244340e+01   2.150449895843e+02  -1.307930419602e+02 
6 1  9.891338488257e+01   5.685869925623e+01   1.058962527313e+02 
7 1 -2.470771380769e+02  -9.115664758066e+01  -2.121626686336e+02 
8 1 -1.958748448971e+02  -7.525581244137e+01   2.434770476314e+02 
8
Step 4800
1 1 -4.171604585404e+00   3.640340161504e+00  -2.093273157529e+02 
2 1  1.686076221847e+02  -4.037727778148e+02   1.674567091272e+02 
3 1  2.810572572869e+01   4.349450122438e+02   5.077910354067e+00 
4 1 -8.368139603320e+01   1.984641215888e+02  -3.944666710019e+01 
5 1 -1.173014787934e+02  -1.121616822973e+02   1.577516114871e+02 
6 1  1.963474118646e+02  -5.394605676222e+01  -1.783787114310e+01 
7 1  1.085855436809e+02   9.386786597736e+00  -1.050692398789e+02 
8 1 -2.172822212144e+02   1.327993602000e+01   4.872048171956e+01 
8
Step 4900
1 1 -5.982804398790e+00  -1.130172506666e+02   1.368058211065e+02 
2 1 -4.242580880322e+01  -1.155475015152e+02  -7.471316921765e+01 
3 1  4.788585482379e+01   4.040207530718e+02   9.514526774037e+01 
4 1  3.354019303265e+02   8.146200936845e+01   1.649451773846e+02 
5 1 -2.142182182919e+02  -2.005258239429e+02   1.683460618938e+02 
6 1  1.630867812396e+02  -2.639109108091e+02  -2.846611217476e+02 
7 1 -1.076269575854e+02  -2.297396909489e+01  -2.295323519830e+01 
8 1 -7.890899362713e+01   3.940929461595e+02  -1.045849505414e+01 
8
Step 5000
1 1 -1.971092806229e+02   3.243549469943e+01   6.691173118580e+01 
2 1  7.803978868289e+01   1.838342026832e+02  -3.422462174671e+01 
3 1  2.818069563069e+01   1.336436964732e+02   1.084658090946e+02 
4 1  2.073222453528e+02   1.112009833404e+02   9.076001387179e+01 
5 1  9.010538269829e+01  -5.071607890428e+01   9.443394167500e+01 
6 1  2.546082960755e+02  -5.691315943122e+02  -1.037067712501e+02 
7 1 -2.515817037007e+02  -1.397921987991e+02   1.786257577786e+02 
8 1  3.378416654392e+02   2.535125368224e+02  -6.024755865439e+01 
8
Step 5100
1 1 -6.757361154768e+01   1.143748828416e+02   1.338102898274e+01 
2 1 -1.908737824789e+02   4.152960465008e+02  -1.737695636636e+02 
3 1  1.021825855017e+02  -1.961175760048e+00   5.754828019011e+01 
4 1 -2.333956922163e+02   1.579257723929e+02  -6.706665556510e+01 
5 1  1.153919123907e+00   1.132743584528e+02   1.037070443260e+02 
6 1  7.885118064820e+01  -5.374427636247e+00   2.142333580363e+02 
7 1  1.687828950734e+02  -3.390023159779e+02   1.009725793221e+02 
8 1  2.168417196875e+02   1.345634469177e+02  -7.967880066583e+01 
8
Step 5200
1 1  1.891222779243e+02  -1.715886338384e+02   1.002330871420e+02 
2 1 -2.929168272961e+02   2.194964213164e+02   3.012160060458e+01 
3 1 -5.579204476708e+01  -5.924658334752e+02   1.540755538613e+02 
4 1  1.809447942705e+01   1.639841528613e+02   1.260169611432e+02 
5 1 -1.354311462106e+02  -1.217298401613e+02   1.363705905082e+02 
6 1 -2.066308490079e+02   2.018270723231e+02  -9.252735416983e+01 
7 1  3.460638054425e+02  -4.882093292411e+01  -2.870361647355e+02 
8 1  1.553140498726e+02   4.250180789791e+01  -2.368115300785e+02 
8
Step 5300
1 1  4.869500671171e+02   3.569803052359e+01  -7.140456982550e+01 
2 1  4.914346352755e+01   6.546207897958e+01   5.761060970280e+01 
3 1 -4.476520300243e+01  -2.960695825694e+02   7.681047748328e+01 
4 1  1.518153328064e+02  -3.458582765151e+02  -9.880980078465e+01 
5 1 -4.064871800757e+01  -1.988375661644e+02  -2.730549247093e+01 
6 1 -2.759435435562e+02  -3.273582546957e+01  -1.071163831061e+02 
7 1  2.634892477232e+02  -5.969102831245e+01   8.103066454860e+00 
8 1 -7.345694713860e+01   8.335817620033e+01  -1.646141119727e+02 
8
Step 5400
1 1 -1.677066562258e+02  -2.239201725400e+02   6.174002061905e+01 
2 1  1.901418126016e+02   4.782755213465e+01   2.204941098271e+01 
3 1 -1.613700264756e+02   1.255973374080e+02   6.351702443287e+01 
4 1  2.405280828888e+01  -1.439091578820e+02   3.159731924352e+02 
5 1 -6.736754696962e+01  -1.721947325255e+02   7.950196016557e+01 
6 1  6.937446750910e+01   1.583623906084e+02  -1.845101995180e+02 