8
Step 0
1 1  1.519342487476e+02   4.700563026408e+02  -4.224587774190e+02 
2 1  1.159550722698e+02  -1.500817179083e+02  -5.305913387260e+02 
3 1 -4.239706107843e+02  -6.406994377646e+02  -2.701282450396e+02 
4 1  2.628212611285e+00   2.678364357616e+02  -1.588474963704e+02 
5 1  6.514540683736e+02   1.037833948433e+02  -3.447279968596e+02 
6 1 -2.798826898926e+00  -4.652652760502e+00  -5.343475400123e+02 
7 1  3.113910148336e+01   1.390855894842e+02   6.008123262551e+02 
8 1 -5.045781131975e+02  -5.265410217043e+01  -5.682266063532e+02 
8
Step 100
1 1  2.652184561291e+03  -8.643365378641e+02   2.082523794682e+02 
2 1 -1.441386515864e+03  -2.412876101486e+03   3.617805861495e+03 
3 1  3.323734569171e+03  -3.018216873189e+03   1.241899199784e+03 
4 1 -2.307172414611e+03  -4.950075418457e+02  -8.244003143301e+02 
5 1  2.077320162850e+03  -1.976749322550e+03  -3.875825638591e+03 
6 1  1.969237732259e+03  -2.436952636012e+03   1.507648720484e+02 
7 1  1.652877454255e+03   2.388374979000e+03  -1.348175926709e+03 
8 1 -2.857874600115e+03   2.123403338196e+03   3.693751243245e+03 
8
Step 200
1 1  1.393841032531e+03  -4.989016782212e+02   1.924045342330e+02 
2 1 -1.274903939800e+03  -5.357036675341e+02   2.398863349657e+03 
3 1  1.990927210728e+03  -1.391773993637e+03   1.541365707277e+03 
4 1 -1.407597106477e+03   7.576496790897e+01  -2.804122444616e+02 
5 1  7.923226803633e+02  -1.619754892990e+03  -1.590492592265e+03 
6 1  1.909680328136e+03  -1.227979718305e+03  -6.088836182477e-02 
7 1  1.329408815847e+03   1.546153048684e+03  -7.586442769968e+02 
8 1 -1.710975114436e+03   2.092985287110e+03   2.577793020890e+03 
8
Step 300
1 1 -2.438497595160e+02  -3.943945795253e+01  -6.673884139650e+02 
2 1 -6.948551372165e+02   7.858576158415e+02  -2.582847297016e+02 
3 1  9.584960497844e+01   9.522061778127e+02   9.934944848887e+02 
4 1 -1.708839847926e+02   5.083674984293e+02   2.341028917212e+02 
5 1 -7.267895261568e+02  -2.019679017993e+02   9.915356427568e+02 
6 1  4.503462715027e+02   4.000391200381e+02   1.592333181827e+02 
7 1  6.029290885229e+02   8.402987170308e+02   3.809462624918e+02 
8 1  3.786750981197e+01   1.011132701598e+03   3.777472400352e+02 
8
Step 400
1 1 -7.517194373814e+02  -4.964884519636e+01  -2.611612157797e+02 
2 1  1.334836586549e+02   7.837903556448e+02  -1.534757486161e+03 
3 1 -7.721126015075e+02   1.186445868878e+03   3.526786285678e+02 
4 1  5.274663597186e+01   9.596719495158e+02   6.860182128891e+02 
5 1 -8.380280513854e+02  -1.079157006032e+01   1.097116899737e+03 
6 1 -3.660731511990e+02   5.156996792545e+02   2.536542845543e+02 
7 1  9.329763196084e+02   2.165506178728e+02   5.255646504664e+02 
8 1  4.589144822513e+02   7.208695906690e+02  -3.744120455733e+02 
8
Step 500
1 1  2.401258670135e+02   1.306135697092e+02  -3.026637627741e+02 
2 1  2.445536644210e+02  -2.963560006550e+02  -5.684854693278e+02 
3 1 -8.665643335144e+01   6.237532674072e+02   1.949168847469e+02 
4 1 -2.784927425884e+02   3.110936881190e+01  -1.034516895934e+02 
5 1 -5.650973301311e+02  -2.416309488546e+02   2.767990590813e+02 
6 1 -9.128598115358e+00   2.170259514886e+02   3.439986149053e+02 
7 1  6.944549262332e+02  -4.698218585422e+02   9.123411526277e+02 
8 1 -3.159897111332e+02   8.165455045345e+01  -2.151212979303e+02 
8
Step 600
1 1 -7.118229591440e+01   3.313557359042e+02   1.166539083013e+02 
2 1  1.947431003392e+01  -3.527276623541e+02   2.469574926839e+02 
3 1  1.505426537024e+02  -1.618078823527e+02  -1.919219669577e+01 
4 1 -4.249141499127e+02  -1.515097029898e+02   1.081935396304e+02 
5 1 -2.391074998990e+02  -6.571167457819e+02  -5.441718814347e+01 
6 1  7.076005407918e+01  -3.317939347065e+02   8.256786814606e+00 
7 1  1.805750848031e+02  -4.052807299327e+02   6.198758697141e+02 
8 1 -3.023050786425e+02   1.253879734062e+02   2.848417245174e+02 
8
Step 700
1 1 -4.274621758034e+02  -1.068198556095e+02  -5.287218028605e+02 
2 1 -1.358311062123e+02  -2.096592547124e+02   5.432467068850e+02 
3 1  2.751349828476e+02   1.630190594429e+02  -8.594159922825e+01 
4 1  1.163660829505e+02  -9.293990508160e+01   8.110502748433e+02 
5 1 -9.153165628978e+01   1.030158574691e+02  -2.737023220209e+02 
6 1  3.044242231039e+02  -4.621749856360e+02  -4.584985595663e+01 
7 1  1.190957131816e+02   3.483981904998e+02  -1.772310085419e+02 
8 1 -2.855575044845e+02  -3.102632557622e+02  -4.837365880700e+01 
8
Step 800
1 1 -7.606458889346e+01  -2.700245706999e+02  -1.380372956346e+02 
2 1 -2.804287501508e+02   2.992977735367e+02   1.161918760208e+02 
3 1  1.651742596484e+02  -2.592715616524e+02   3.204675349301e+02 
4 1  1.540132534446e+02   4.708959606745e+02   4.601838135869e+02 
5 1 -8.303118845487e+01  -1.284292438279e+02   1.418225261574e+02 
6 1 -2.561395017723e+02   1.691754627833e+02  -3.381896504790e+02 
7 1 -3.032505798963e+02   4.871063595537e+02  -4.248998671860e+02 
8 1 -2.823416885454e+02  -2.275117798437e+02  -6.005983855492e+01 
8
Step 900
1 1  3.068455176300e+02   2.910781282259e+02   2.444662805449e+02 
2 1  2.141124210983e+02   6.548229101955e+02  -5.651521330413e+01 
3 1  1.864217940504e+02   8.318360598273e+01   2.980446653789e+02 
4 1  5.230127624238e+02  -1.436370798469e+02  -1.965541665530e+01 
5 1  3.081565392080e+02  -1.246706438672e+02  -2.852609564175e+01 
6 1  4.815217418197e+01   4.400239325636e+02  -2.509238860114e+02 
7 1 -1.421125078434e+02   1.397435934216e+02  -4.921107542035e+01 
8 1 -3.990031350026e+02   3.065279925276e+01  -2.499231762875e+02 
8
Step 1000
1 1  1.227916098423e+02  -3.917630655711e+02  -2.128901521553e+02 
2 1  1.176811665599e+02  -1.814230954886e+02   1.997157328979e+02 
3 1  5.024266660719e+01  -1.493104708078e+02  -2.639082463004e+02 
4 1  5.636545504053e+02  -4.257043058191e+01  -2.501850670100e+02 
5 1 -1.654457686491e+02  -5.265692676643e+02  -1.995924671404e+02 
6 1  8.189698369477e+02   5.192044494201e+02  -9.778564982697e+01 
7 1 -2.278197218266e+01   1.312656207384e+01   4.015702450575e+02 
8 1 -4.966444564137e+01   2.120342620389e+01  -3.830046638765e+02 
8
Step 1100
1 1 -2.267082258971e+02  -2.483121491202e+02  -2.460947191371e+02 
2 1 -1.015605060360e+02  -1.798025219648e+02   1.686013106623e+02 
3 1  2.947389138061e+02   4.783194065870e+01  -2.594337721180e+02 
4 1 -1.214769965197e+02  -3.861916792822e+02   1.177124923258e+02 
5 1  2.299412728131e+02   9.798213007985e+01   1.930307577245e+02 
6 1 -1.111719405694e+02   1.305371291566e+02   6.040539194763e+01 
7 1  5.827474209864e+01   1.323068248762e+02   2.749847472611e+02 
8 1  1.052415825096e+02   6.154330189135e+02   1.316644429867e+01 
8
Step 1200
1 1  1.966280565871e+02   3.478212373667e+02  -1.583769558069e+02 
2 1 -4.588392327007e+02   1.749730507577e+02  -7.310506395246e+01 
3 1  3.243272253191e+02   8.723175294153e+01  -2.122812990407e+02 
4 1  8.188719479348e+01  -3.413779099614e+01   5.333130537628e+00 
5 1  2.191334992909e+01  -1.996087439116e+01  -6.124113858113e+01 
6 1 -1.201226228950e+02  -4.302802985736e+02  -8.409843893091e+00 
7 1 -1.703609643079e+01  -5.224865331100e+02  -4.702408250133e+02 
8 1  3.592266401819e+02  -2.425910249781e+02  -1.675342357184e+02 
8
Step 1300
1 1  4.815394162522e+02  -1.400003585492e+02  -2.579099820174e+02 
2 1  1.569817269570e+02   5.190957945018e+01  -1.969190990049e+02 
3 1 -1.733250846804e+02  -1.271996618586e+02   1.577759270234e+02 
4 1 -2.079127073647e+02   4.013828991673e+01  -8.114748469035e+01 
5 1  3.429749963366e+02  -2.465340086427e+01   2.252424410980e+02 
6 1  1.564001249109e+01  -6.717138836880e+02   2.962420779629e+02 
7 1  1.854326168743e+02   2.554320079047e+01  -2.582612599864e+02 
8 1  2.260838434498e+02   1.316488267316e+02   3.723623013454e+02 
8
Step 1400
1 1 -2.672960045905e+02   4.824141231692e+01   9.427276542254e+01 
2 1 -1.952513593740e+02   4.186166792032e+01   8.405139834978e+01 
3 1 -1.945276552047e+02   4.875539092255e+02   1.078270373362e+02 
4 1  9.624864734777e+01  -4.642402920219e+01  -2.423567748870e+02 
5 1  1.185454719032e+02   1.912199807836e+02  -6.265742454978e+01 
6 1  6.789240418245e+01   8.319234999726e+01  -1.026279136890e+02 
7 1  5.539604133957e+02   4.092847667007e+02   4.604184359226e+02 
8 1 -2.965507258417e+02  -3.161809454366e+02   3.402529294298e+02 
8
Step 1500
1 1 -2.177381157402e+02   1.253340757278e+02   4.557964236438e+02 
2 1 -3.925341161528e+02   3.037429617193e+02  -1.064939707871e+02 
3 1 -5.066569776985e+02   7.088674508031e+01   5.056755057464e+01 
4 1 -1.026650389527e+01   7.678602226343e+01  -4.840868174357e+01 
5 1  5.153985994191e+01   4.845934022438e+01  -2.346949495619e+02 
6 1 -2.177435494822e+02  -6.695661139946e+01  -4.671895226073e+01 
7 1  1.541390100636e+02  -3.236397406677e+02   2.223232505318e+02 
8 1  7.613228272033e+01  -1.167941608540e+02   4.021717306742e+02 
8
Step 1600
1 1 -2.188752895893e+02   3.269463153937e+02   2.931912568492e+02 
2 1 -1.234187915722e+02  -5.639172035575e+02   2.178461214015e+01 
3 1  5.045880626790e+02  -2.659736565671e+02   8.984521708045e+01 
4 1  1.069371957955e+02   3.870075608991e+02   4.873263148073e+02 
5 1 -1.181155690514e+02  -1.047387141684e+02   7.241579647740e+01 
6 1 -3.195284115256e+02  -1.404671072479e+02  -5.657181043021e+01 
7 1  9.845374800828e+01  -2.494139268121e+02  -3.847891337027e+01 
8 1 -2.994377732616e+01   2.600688175834e+02  -3.978611979611e+02 
8
Step 1700
1 1  5.724330327105e+02  -3.295452913640e+02  -5.566350820053e+02 
2 1  4.836116172683e+02  -1.824885601786e+02   3.789832923832e+01 
3 1  5.222388843842e+01  -4.236008762583e+02  -8.043355272270e+01 
4 1 -1.815523499043e+02   2.243823093185e+02   2.918005086047e+02 
5 1 -5.242955583355e+02   7.901548010783e+01   2.459967342577e+02 
6 1  5.652132274613e+01  -2.058063689744e+02   2.108136536636e+02 
7 1 -5.531740044241e+01  -3.425462491537e+02   3.568858352529e+02 
8 1  4.002387616162e+02   2.723750975556e+02  -3.194314763454e+02 
8
Step 1800
1 1 -3.824274615281e+02  -5.482942998832e+02  -4.669275082917e+01 
2 1  6.281302712125e+02   3.395643170657e+01  -4.164421556129e+02 
3 1 -1.036012126469e+02   1.436466075775e+01  -5.080586793617e+02 
4 1  3.961180412294e+02   5.297315164889e+01   2.315437789797e+02 
5 1 -2.376481229994e+02  -4.655359099796e+02  -9.962409819909e+01 
6 1 -3.128914715810e+02   2.753551536496e+01   2.225585673008e+02 
7 1 -5.321415288392e+02   3.059053931499e+02  -3.070243010556e+02 
8 1 -8.456730309445e+01  -1.619193205591e+02   1.544731849111e+02 
8
Step 1900
1 1  9.373291168579e+01   2.890885049176e+02   2.076356292096e+01 
2 1  4.122235284843e+01  -7.405307465672e+02   3.457556039941e+02 
3 1 -1.960088420626e+02   1.259184038937e+02   2.771451102825e+02 
4 1  1.841979038584e+02   6.537951305246e+00  -4.378479961795e+02 
5 1  3.724365598065e+02  -3.430096373115e+02  -2.568384068151e+01 
6 1  5.197030471071e+01   3.259035794114e+02  -9.013864520097e+01 
7 1  5.399497227589e+01   1.830956555517e+02  -3.432545578600e+02 
8 1  3.150985279163e+01  -1.284781744283e+00   3.496374159751e+02 
8
Step 2000
1 1 -1.427945363364e+02   2.065259404745e+02   1.475010598056e+02 
2 1 -1.606185697571e+02   3.721133136665e+01   7.324912635743e+02 
3 1 -2.377309711805e+02   4.045023135264e+02   4.236274739948e+02 
4 1  2.068983669403e+02   1.424575401533e+01  -2.703041043328e+02 
5 1  2.170953823549e+02  -1.743896074154e+01   3.034395547574e+02 
6 1 -1.070852629469e+02   5.836418870486e+01  -4.841579537017e+02 
7 1  6.341367087026e+01   6.194514985375e+01  -3.220910813754e+02 
8 1  4.450100717296e+02   1.179262286316e+02   1.488764677829e+02 
8
Step 2100
1 1  1.114681615610e+02   2.709998687791e+01  -7.937706926439e+01 
2 1  2.534586971590e+02   4.407722308508e+02  -4.825561589756e+02 
3 1 -3.801198871594e+01   8.041802959497e+01   1.826247110623e+01 
4 1  2.616776027492e+02  -1.146152997909e+02  -2.761747313374e+02 
5 1 -5.223977876709e+01   2.650915978110e+02   7.560790277370e+01 
6 1  7.109431501370e+01   4.259622855762e+02   3.533994297964e+01 
7 1  4.856340975682e+02   2.156654291657e+01   4.625906306853e+02 
8 1  2.249490167422e+02   3.505156560567e+02   1.394740060037e+02 
8
Step 2200
1 1 -4.788145172404e+01   1.997030549845e+01  -3.519073930238e+02 
2 1  4.756390755648e+00  -1.136995815904e+02  -6.758499819227e+02 
3 1  2.499354612341e+02  -4.456776631525e+01  -1.770872108941e+01 
4 1 -8.248382402102e+01   1.233858579238e+02  -3.071859091154e+02 
5 1 -2.331956983234e+01  -1.352988452301e+01  -2.200312152042e+02 
6 1  2.001541067677e+02   3.952628218809e+02  -2.319035549331e+02 
7 1  2.169369237225e+02  -5.037272014670e+02   2.783186859434e+02 
8 1 -3.098751805759e+02   1.626938553188e+02  -6.966352487346e+02 
8
Step 2300
1 1 -1.044554419054e+02   6.258702214645e+01  -3.471910027106e+02 
2 1 -3.776669569380e+02  -5.468657501766e+01  -3.448481215383e+02 
3 1 -3.044506940226e+02   6.642982175792e+02  -5.201595950996e+02 
4 1 -1.661397942164e+02  -2.497422724006e+02   3.681959630848e+02 
5 1  2.035996344113e+02  -1.675263778312e+01   1.545426329461e+02 
6 1  2.175739203678e+02  -1.978055403759e+02   1.974232180397e+02 
7 1  4.144597800905e+02  -6.623619604847e+02   1.949858988577e+02 
8 1 -2.684726330923e+02   9.351300222539e+01  -1.700612867845e+02 
8
Step 2400
1 1  1.582430335374e+02  -2.435504054444e+02  -3.025771104803e+02 
2 1  2.349220735049e+02   5.024532286991e+01  -1.245058594254e+02 
3 1 -2.540204743407e+02   1.373357464030e+02   1.405703150798e+01 
4 1  2.873023947228e+01  -1.548950087321e+02  -3.759717243420e+01 
5 1  1.748460915453e+02  -1.216250126106e+02  -1.435885255911e+02 
6 1  2.369840491509e+02  -1.873451029220e+02  -6.128872747263e+01 
7 1 -6.159765716490e+02  -1.779145134340e+02  -3.075324712280e+02 
8 1 -2.284605390696e+02  -4.132801801952e+02   3.894381775867e+02 
8
Step 2500
1 1  2.922100411224e+02   2.635437992117e+02   3.021875784393e+02 
2 1 -1.970579051063e+02  -2.916379089042e+02   3.554564047253e+01 
3 1  3.629565314982e+02  -7.982757438582e+02  -1.869011410774e+02 
4 1 -2.017828377444e+02   1.372973304403e+02  -2.748893935633e+02 
5 1 -1.629121104366e+02   1.093562449196e+02  -1.202731000600e+01 
6 1 -2.376896209936e+02  -2.214797700995e+02  -1.755137757672e+01 
7 1 -3.728659347672e+02   3.949767961681e+02  -4.791173643075e+02 
8 1  5.214544757939e+01  -4.124547095320e+02   6.814464787877e+02 
8
Step 2600
1 1 -5.963662939371e+02   3.072149756403e+02   3.593039991972e+02 
2 1  1.711728138764e+02   2.444484205540e+02   9.353657956926e+01 
3 1  3.303628007898e+02   1.718723410806e+02   8.993410730505e+00 
4 1 -4.742718441176e+02  -2.072661071539e+02  -1.630802633581e+02 
5 1  3.862965649095e+02   5.188644802634e+02   1.993289649204e+02 
6 1 -5.132314404576e+01  -2.102203906521e+01  -2.918814318855e+02 
7 1  7.577515463656e+01   4.272272707509e+02  -2.500454106984e+02 
8 1  1.360727698911e+02  -4.232459105935e+02   3.776905327522e+02 
8
Step 2700
1 1 -2.640934705114e+02  -3.250970520466e+02   4.373257523782e+02 
2 1  3.843757611470e+02  -1.959015813177e+01  -8.559517253040e+01 
3 1 -1.317276504132e+02   2.359951879280e+01   1.212584161237e+02 
4 1  1.349438137092e+01  -7.829478101888e+01   4.187669183427e+02 
5 1  2.506129002245e+01  -9.012980996158e+01   1.638452423466e+01 
6 1 -1.172283617262e+02  -2.815020204462e+02   2.155428616940e+02 
7 1  5.891400804318e+01   3.600559395070e+01   1.037119340977e+02 
8 1  1.661368085488e+02   1.699371811108e+02  -4.819659192255e+02 
8
Step 2800
1 1  1.013595835196e+02  -1.692368941742e+02  -7.594325926112e+01 
2 1 -8.349349669171e+01   5.160110014591e+02   4.065122679421e+02 
3 1  1.440370118120e+02  -9.288003187661e+00  -2.632555023021e+02 
4 1 -1.082857353382e+02   4.416827638407e+02  -1.073346967048e+02 
5 1 -2.338564755305e+02  -2.187139848123e+02   1.165583916099e+01 
6 1 -2.728406753594e+01  -2.979892369169e+02   6.762132925840e+01 
7 1  6.886436241286e+01   7.196578286456e+01   5.084167479943e+02 
8 1 -3.686232954483e+02   4.211529817950e+02  -1.591670303147e+02 
8
Step 2900
1 1 -1.042333895956e+02  -2.399293735981e+02   1.477939445436e+02 
2 1  1.821466321172e+02   7.514326936463e+01  -2.799993684288e+00 
3 1 -1.695180698757e+02  -5.694848938627e+01  -4.044279581740e+02 
4 1  1.540304437203e+02   6.181444133416e+02  -6.162298304373e+01 
5 1  8.990902657459e+01  -1.887765766016e+02   2.019191936437e+02 
6 1  2.628575262629e+02   3.288107982784e+02   2.674476197524e+02 
7 1  9.728234631925e+01   1.863989983337e+02   1.007366124054e+02 
8 1 -2.909184110055e+02  -2.435409708230e+02  -8.535120813824e+00 
8
Step 3000
1 1  1.961282407094e+02   6.917545514202e+01   2.335569806831e+02 
2 1  5.644376544722e+01   3.492655941954e+02   5.258854178088e+02 
3 1 -2.097812491205e+02   1.572218810583e+02   9.300665886857e+01 
4 1  3.663171913448e+02  -2.813879518477e+02   1.885536883343e+02 
5 1 -2.153599533648e+02   1.564920759206e+02  -3.500084955510e+01 
6 1  3.645706423150e+01   2.757515214829e+02   3.093631648532e+02 
7 1 -3.241639984759e+02  -7.870052864850e+01  -1.602195835761e+02 
8 1  5.627668163599e+02   3.085590592418e+02   3.340370236344e+02 
8
Step 3100
1 1 -1.697249546462e+02   1.530309731144e+02   3.906387331631e+02 
2 1 -2.847755849971e+02   8.022434646089e+01   2.148523320702e+02 
3 1  2.843061335823e+02   3.741156910030e+02   3.843635136256e+02 
4 1 -2.207204902926e+02  -1.964100515817e+02   3.499138870660e+02 
5 1 -6.456045689665e+01   2.606697843057e+02  -3.434130548975e+02 
6 1 -1.759130300862e+02   9.570322900744e+01  -2.281044940787e+02 
7 1 -2.553178225274e+02   4.838156800469e+01   4.027083482732e+02 
8 1  2.137725059898e+01   2.494139430224e+02  -9.737658811772e+01 
8
Step 3200
1 1  7.351417709358e+01   3.285860082878e+01  -2.784979147644e+02 
2 1 -4.583364306287e+02  -2.347841697913e+02  -2.075630399286e+02 
3 1 -3.440711516254e+02   3.779856566263e+01  -1.194590192110e+02 
4 1  5.286738095171e+02  -3.782901776929e+02  -5.085635484548e+01 
5 1  8.428441522729e+01  -7.312392735482e+01  -1.482041474950e+02 
6 1 -4.973175920537e+02  -2.646038138305e+01   2.515364586460e+02 
7 1  2.505564093753e+01   1.023629667952e+02  -7.130292265639e+01 
8 1 -3.343940164003e+02   1.156018868666e+02   1.459667635928e+01 
8
Step 3300
1 1  3.090300376888e+02   5.892884544225e+01  -1.441736583939e+02 
2 1 -1.718794833793e+02   3.349795489156e+01  -1.065529311141e+02 
3 1 -1.748556121080e+02  -2.202213026067e+02   8.218645199679e+01 
4 1  2.400801096655e+02   2.364606212101e+02  -2.943546630490e+02 
5 1 -2.680517712606e+02   1.270334334713e+00  -7.470582389476e+01 
6 1 -1.228056053064e+02   3.244815881580e+02   5.035622113873e+01 
7 1  2.640834282069e+01  -1.196205427796e+02   3.007858758252e+02 
8 1  1.065238223035e+02   9.854781656086e+01  -2.612881126782e+02 
8
Step 3400
1 1  2.717032692978e+02   5.011360739745e+02  -7.947248580589e+02 
2 1 -3.622592071817e+01   3.142685055986e+01  -1.427427017839e+02 
3 1 -5.980422878320e+01  -3.338881289629e+02   2.237212198854e+02 
4 1 -6.401649225891e+01   3.785875176294e+01  -2.834128383051e+01 
5 1 -1.059951435188e+02   1.627608352864e+02  -6.728391608898e+01 
6 1 -2.409806471110e+02   1.139530820302e+02  -1.795688285014e+01 
7 1 -1.090785446467e+02   3.321136769745e+02   2.333926695316e+02 
8 1  1.954203935020e+02  -6.522284321674e+01   2.249854594627e+02 
8
Step 3500
1 1 -5.730618313066e+02   3.412703728084e+02  -1.120190706729e+02 
2 1 -1.705326481018e+02   1.176404344373e+01  -4.355335609257e+02 
3 1  1.071573754916e+02  -1.982806072973e+02   1.202632119386e+02 
4 1 -8.124822672120e+01  -3.766066595419e+01   2.200605732626e+01 
5 1 -1.236089796609e+02   2.947153120371e+02  -3.565850472700e+02 
6 1 -8.336557408115e+02  -3.475344655571e+02   2.228875447637e+02 
7 1 -6.755017349995e+01   3.574515768865e+02  -1.038341735671e+02 
8 1  1.020754125003e+02   4.635755999397e+02  -2.962327343219e+02 
8
Step 3600
1 1 -1.670707555850e+02   8.726720603568e+00   1.118381150770e+02 
2 1  2.212135907518e+02  -3.100504548037e+02  -2.512204298522e+02 
3 1 -3.115829832590e+02   3.159361291499e+02   5.885051786904e+01 
4 1 -1.076341829755e+02  -4.452026999314e+02  -5.219244687115e+02 
5 1  3.779147119716e+02   2.303925581453e+02   5.323443535010e+02 
6 1  3.511074887058e+02  -2.892054418667e+02   3.249635160962e+01 
7 1 -2.543020211345e+02   6.659318158750e+01  -3.538336034444e+02 
8 1 -2.664403392701e+01   3.650116145597e+02  -3.535996375300e+02 
8
Step 3700
1 1  2.286400113277e+02  -2.173269247611e+02  -3.931951482623e+00 
2 1  6.653957855655e+00   1.206232352756e+02  -2.718393705442e+02 
3 1 -1.744508785363e+02   4.803038327072e+02   7.136734456331e+01 
4 1 -2.782031575884e+02  -3.444690612262e+02   2.911320805697e+02 
5 1  1.329455637913e+02  -3.891548935174e+02   5.468129775759e+02 
6 1  3.044495097912e+02   1.458979771981e+02  -2.955436733127e+02 
7 1 -1.848075047463e+02   2.918323070751e+02  -5.954646041969e+01 
8 1 -4.710862467133e+02  -8.237075206944e+01   1.797602455762e+02 
8
Step 3800
1 1 -1.367775556561e+02  -1.407713444110e+02   1.111444547220e+02 
2 1 -6.598683702890e+01   3.062808475567e+02  -1.747898801029e+02 
3 1  8.865024829938e+01  -7.558650798123e+01  -2.238200032512e+02 
4 1 -3.932163913157e+01   2.019243424730e+02   2.445722841466e+02 
5 1  2.146463090014e+02  -2.238473402757e+02  -2.501231262076e+02 
6 1  9.324501663736e+00   5.007092949539e+02  -1.185864103569e+02 
7 1 -1.017366214146e+02  -1.417218682356e+00  -5.160081392014e+02 
8 1 -2.456558573204e+02  -3.514883059273e+02  -1.336293177120e+02 
8
Step 3900
1 1 -7.793110866799e+01  -3.069528432658e+02   1.400104233239e+02 
2 1  1.830854883190e+02  -7.441659103323e+01   1.302551231774e+02 
3 1 -2.336493481307e+02  -2.455068021466e+02   3.067848143429e+02 
4 1  3.320315842535e+02   2.384876109362e+02  -4.108361636649e+01 
5 1  1.077986222736e+01   1.494139371543e+02  -3.635069344775e+02 
6 1 -4.908189458113e+02  -4.364963889969e+02  -3.973811116646e+02 
7 1 -4.451592633904e+01   3.296650801709e+02  -2.973024489553e+02 
8 1 -1.003915149338e+02   3.221324424195e+00   7.548397169346e+01 
8
Step 4000
1 1 -2.555292520161e+02  -1.468920095394e+02   2.550502653323e+02 
2 1 -3.101810278603e-01  -5.598912865853e+00   2.588322778015e+02 
3 1  3.092109081975e+02  -2.256091836072e+01  -1.158625108121e+02 
4 1  1.287558968752e+02  -3.070763033851e+02  -1.589943976418e+02 
5 1 -3.415857377678e+02   5.392766637430e+02  -7.597394208486e+01 
6 1 -1.588728568862e+02  -3.803401258087e+02  -4.690088109179e+02 
7 1  2.524173888666e+02  -8.648337207047e+01  -3.098063571741e+02 
8 1 -4.227629965551e+02   6.334954438783e+02   1.096192788230e+02 
8
Step 4100
1 1  9.351829121280e+01   1.465220724023e+02  -1.867048560611e+02 
2 1  1.288572969558e+01  -2.197464760993e+02  -2.703558641408e+01 
3 1  1.191985946121e+02  -2.359643494161e+01   2.025589950717e+02 
4 1 -2.065713107475e+02  -1.392545834193e+02  -2.047233388798e+02 
5 1 -6.322944251948e+01   6.308895056881e+02  -2.548369012270e+02 
6 1  6.500355404782e+02   1.959439130476e+02   3.855451693339e+02 
7 1  4.440991088887e+01  -2.687803684691e+02   1.626578100631e+02 
8 1  1.009191981910e+02   5.028670449702e+01  -2.779824437427e+02 
8
Step 4200
1 1  3.733815412713e+02  -1.635570270265e+02   5.290329427297e+01 
2 1 -2.359694721425e+02  -1.102708862631e+02  -2.067641506890e+02 
3 1  2.378354850207e+02  -6.886597595165e+01   1.208242517631e+01 
4 1 -1.515489066883e+02   1.550112326198e+01  -2.101898037699e+02 
5 1  1.779254437206e+02   2.525699413430e+02   2.984490283090e+02 
6 1  4.749098948838e+02  -3.441669507132e+01   4.133566328723e+02 
7 1 -1.116858306426e+02   4.376279601260e+02   2.170157392820e+02 
8 1  3.819047455178e+02  -6.604130101724e+02  -1.593848628489e+02 
8
Step 4300
1 1 -6.562476661014e+01  -3.795999508844e+02  -1.314602325411e+01 
2 1 -2.341141110783e+02  -1.510730330079e+02   4.061001113513e+02 
3 1 -1.881774928106e+02   1.821967888063e+02  -5.345399070286e+02 
4 1  4.227369418001e+01   2.773933884700e+02   6.429103579608e+02 
5 1 -2.390413700907e+02  -4.973794432209e+01  -6.982372353130e+00 
6 1  4.220909633917e+02   5.315354499261e+02  -2.470360691839e+02 
7 1 -3.094741067645e+02   5.364742759524e+01  -4.937551480496e+02 
8 1  2.075302029422e+02  -5.660710098343e+02   2.228056322155e+02 
8
Step 4400
1 1 -3.329250823466e+02  -8.582462848334e+01  -1.662902281260e+01 
2 1  4.220520314748e+02   2.954832293620e+01   2.979047581919e+02 
3 1 -1.409036883692e+00  -4.439839163345e+01  -5.468734531313e+01 
4 1 -4.353944137490e-01  -6.072700047170e+01   3.769320965292e+02 
5 1  1.884945726059e+02  -6.689685446523e+02  -1.451022780079e+02 
6 1 -2.058280937393e+02  -7.601351461631e+01   3.665685675825e+01 
7 1  1.804722848060e+02  -4.168094754118e+00  -1.561559779997e+02 
8 1  8.699745459495e+01   8.587803802678e+01   2.268280838976e+02 
8
Step 4500
1 1 -4.342132348174e+02  -1.198986620272e+02  -2.598464529038e+01 
2 1  9.056165400421e+01   1.618824055929e+02  -9.442575232673e+01 
3 1  6.430867656736e+01  -2.261582875068e+02   3.135622644939e+02 
4 1 -3.979518261800e+02   7.007431587317e+01   3.068288122496e+02 
5 1  1.559832956398e+02  -1.296562880247e+01   1.673219615562e+02 
6 1 -1.870936709447e+02  -1.691626290355e+02  -5.693376409516e+02 
7 1  2.678510972373e+02  -2.669932894684e+02  -5.171899031103e+01 
8 1  1.635822000708e+02   6.076193428872e+01   4.614022836167e+02 
8
Step 4600
1 1  5.912245038273e+02   1.280561981085e+02  -1.298935994352e+02 
2 1 -6.705177976822e+01  -8.743461454611e+01  -2.293128118957e+02 
3 1 -2.373922076792e+02   6.364204684849e+02   1.716122407413e+02 
4 1  1.577693877479e+02   2.037173527310e+02  -1.839653381096e+02 
5 1  1.960948932623e+01   5.283063859318e+02   5.311235482250e+01 
6 1 -2.875508155810e+01   2.610184876166e+02  -4.501489271238e+02 
7 1 -3.080722072560e+01   1.259533810275e+02  -4.097852887686e+02 
8 1  2.986326598950e+02  -1.640536351441e+02  -4.340614422502e+01 
8
Step 4700
1 1  3.970546170549e+02   9.697913558030e+01   1.428962216248e+02 
2 1 -4.320931888395e+02   3.352180376025e+02  -7.747021256497e+01 
3 1 -1.840713938632e+02   4.080116610706e+02  -2.056705820776e+02 
4 1 -9.801380222700e+01   3.414040903073e+02   1.763332108778e+02 
5 1  2.293378059230e+02  -2.109977266742e+02  -1.564094676761e+01 
6 1 -4.024395924483e+02  -3.560228025843e+01   5.758123290243e+02 
7 1 -1.658793317338e+02  -7.476997148230e+01  -2.578702576065e+02 
8 1 -2.645499974464e+02  -2.704853093073e+02  -4.328100669342e+02 
8
Step 4800
1 1  2.099716758684e+02  -5.473926948980e+01   3.888744995688e+02 
2 1  2.689982087115e+02   6.102343421378e+02   2.263687662507e+02 
3 1  6.230110237892e+01  -2.166691009747e+02  -2.379275220945e+02 
4 1  2.597222013135e+02   5.642342572757e+02   2.500897967267e+02 
5 1 -9.055038893877e+01   1.643902549700e+02  -1.855966875374e+02 
6 1 -1.315841288420e+02  -3.379722548867e+02   3.816373522710e+02 
7 1  3.691042887900e+02   1.328383827626e+02   6.094498985903e+01 
8 1 -5.572292635300e+01   1.865941996346e+02   1.267101913875e+02 
8
Step 4900
1 1 -6.396157376213e+02  -3.460490996069e+02  -2.806505831599e+02 
2 1  3.492806193019e+02  -2.006403430903e+02   1.359892022189e+02 
3 1  2.487563337350e+02  -3.413327686565e+02   9.169487825193e+01 
4 1  7.062340243032e+02  -1.579247972908e+02   8.928586941377e+00 
5 1 -3.138977484234e+02   2.270240697941e+01   3.664099899511e+02 
6 1  1.031077272620e+03   1.833839576876e+02   2.577832522087e+02 
7 1  2.284986875258e+02   2.481264849126e+02   3.541717801173e+02 
8 1  1.403035773582e+02   3.009619139372e+02  -3.061520960315e+01 
8
Step 5000
1 1  1.221228909078e+02  -2.193147189886e+02  -1.313469376595e+02 
2 1 -1.973616531492e+02   7.003362016226e+01   4.448067993667e+02 
3 1 -1.434247748315e+02   5.435829037430e+02  -2.212235217698e+02 
4 1  1.565614885712e+02  -1.131236882062e+02   2.529174321161e+02 
5 1 -3.552814181158e+02  -4.738489823190e+02   7.663021241620e+01 
6 1 -5.329912939598e+01   2.588921538104e+02  -1.641667750724e+02 
7 1 -3.052429446325e+02  -1.274479437985e+02   6.834500848232e+01 
8 1  2.720804899261e+02   5.251013818619e+02   3.697991705167e+02 
8
Step 5100
1 1  2.225236967828e+02  -2.609129339253e+02   6.923324575402e+02 
2 1 -2.604648249391e+02  -5.965606493403e+02  -1.826509922318e+02 
3 1 -4.874272398721e+01   2.743437496330e+01  -1.940803779506e+01 
4 1 -7.314148563376e+02   2.752439626069e+02   9.811876975898e+01 
5 1  9.279706583106e+01  -7.448953032242e+01  -3.864363761209e+02 
6 1 -4.460049623849e+02   1.428415215595e+01  -3.151165218526e+01 
7 1  2.833570825537e+02  -5.621925092304e+02   1.635127187581e+01 
8 1 -6.528780608147e+01  -4.988345249735e+01  -1.448356882326e+02 
8
Step 5200
1 1  3.334922583738e+02   7.617751152934e+02   1.576707576372e+02 
2 1  5.307680099838e+01   9.694362913350e+01  -2.716062301150e+02 
3 1  1.936747781267e+02   4.663648748516e+00   1.340880969955e+02 
4 1 -1.950955662338e+01   1.241042467716e+02  -2.703990269827e+02 
5 1  3.774602977908e+01  -9.996997578370e+01  -5.243886642203e+02 
6 1 -1.428425634648e+02  -2.755463561387e+01  -1.355521455337e+02 
7 1 -2.947500052462e+02  -3.487115514715e+02   5.886642089295e+01 
8 1 -3.703517415704e+02  -3.011679950901e+02  -2.710852348376e+02 
8
Step 5300
1 1  4.108590599455e+01  -8.574741012594e+01   1.170095791887e+02 
2 1  3.157959080762e+02   5.876588782406e+02   2.122222011508e+02 
3 1 -1.463152007560e+02  -2.321402267205e+02   2.571861485140e+02 
4 1  1.770280256898e+02  -1.095693386907e+02  -1.422686653273e+02 
5 1 -6.031141091101e+01   1.033463524917e+02  -7.985069850486e+01 
6 1  2.050250044190e+02   3.372004122849e+02  -1.309684785287e+02 
7 1 -2.799586459066e+02  -2.143489511320e+01  -1.867225574746e+02 
8 1  3.386518423842e+00  -2.281739499645e+01  -5.334854708766e+02 
8
Step 5400
1 1 -1.127488327420e+02  -1.405127811698e+02  -1.893050356518e+02 
2 1  2.668440424247e+02  -4.768387837379e+01  -3.111806599965e+01 
3 1  1.763938413686e+01   2.363476441347e+02  -2.068902878627e+02 
4 1 -2.442887185717e+01  -6.409130007315e+02   2.577102950216e+02 
5 1  8.760979644925e+01   1.329069668867e+02   2.711093639362e+02 
6 1  1.707164095779e+02   1.097906677976e+02  -1.262917519713e+02 