8
Step 0
1 1  1.414214591207e+02   4.382168257190e+02  -7.337098646168e+01 
2 1 -2.097188646526e+01   7.203593062209e+01  -3.729356646920e+01 
3 1 -1.328310645375e+02  -4.952109052323e+02  -7.699048910037e+01 
4 1 -5.401253636679e+01   2.820051651796e+02   3.926369111393e+02 
5 1  1.718542790675e+01  -9.028041952120e+01   2.646597500956e+02 
6 1  2.718892967377e+02   7.341255426078e+01   5.144130774319e+01 
7 1  1.877372278583e+02   4.066387049949e+02  -1.952234604485e+02 
8 1 -4.859671743062e+02  -1.587968630511e+02   2.518745438436e+01 
8
Step 100
1 1 -2.928671888017e+03   2.633579637699e+03   2.041113871257e+03 
2 1 -1.125537412659e+03   2.429165564990e+03   1.706845963150e+03 
3 1  8.333921792235e+02   2.883906301462e+03   2.008140327572e+02 
4 1 -1.405401341012e+03  -1.002012242674e+03  -3.407611524273e+03 
5 1 -2.615417229487e+03   1.519407696133e+03   4.680299890739e+03 
6 1 -1.397929238995e+03  -1.855971558256e+03   1.211718313247e+02 
7 1 -3.283319523706e+03   2.650151894707e+03  -3.132389033642e+03 
8 1 -3.201244228051e+03  -3.950995601136e+03  -2.200937252790e+03 
8
Step 200
1 1 -2.328525730927e+03   9.925699894650e+02   3.289759116499e+02 
2 1 -7.412570274059e+02   1.448118688136e+03   1.416010791901e+03 
3 1  7.166634246813e+02   1.252650077099e+03  -1.876272822156e+02 
4 1 -4.729153077948e+02  -1.186418623188e+03  -1.819904340226e+03 
5 1 -1.605413916228e+03   8.634087142412e+02   2.436210933539e+03 
6 1 -1.460725050559e+03  -1.367429772845e+03   1.042401433508e+03 
7 1 -2.352890020500e+03   1.384522328221e+03  -1.408800558972e+03 
8 1 -1.912017847315e+03  -1.720727123776e+03  -1.463598343705e+03 
8
Step 300
1 1 -4.109193294170e+02  -4.916349888166e+02  -1.092058199057e+03 
2 1 -4.649532993890e+02  -6.554413349046e+02   1.010095660720e+03 
3 1  9.107286638711e+02  -1.224603488800e+02   5.185714247891e+02 
4 1 -3.579980765238e+02  -7.735314184406e+02   1.119590090628e+02 
5 1  4.492048610909e+01  -1.079719957851e+02  -7.868397727468e+02 
6 1 -7.563813914983e+02  -6.904697604283e+02   8.246130353200e+02 
7 1 -8.433393611427e+02   1.597209555065e+02   1.474325396515e+02 
8 1 -1.003333314073e+02   5.438724758958e+02  -1.317455048491e+02 
8
Step 400
1 1  2.433886205531e+02  -8.226196284584e+02  -9.690728679266e+02 
2 1  2.032607659147e+02  -6.750635289709e+02   1.090563404078e+03 
3 1  3.033078898372e+02  -5.230455241512e+02  -3.166661286932e+01 
4 1  8.986856726057e+01  -8.416006789528e+02   6.285524153352e+02 
5 1  3.257800364502e+02  -1.836988362469e+02  -1.343382591705e+03 
6 1 -2.344413107772e+02  -1.068162919822e+02   2.619567494861e+02 
7 1 -4.197080640133e+02  -5.425151846636e+02   6.845661381585e+02 
8 1  6.235102737011e+02   8.040156025024e+02  -2.948054326400e+02 
8
Step 500
1 1  1.879889440221e+02   4.052132408345e+02  -5.054601870945e+02 
2 1  3.710916661991e+02   2.051027865393e+02  -6.082785360960e+01 
3 1  2.149964201902e+02  -3.722563297444e+02   5.024934719600e+00 
4 1 -3.108510947398e+02  -3.596006633082e+02   7.763388485162e+02 
5 1  2.671883981143e+02  -7.600605288458e+02  -5.566500975246e+02 
6 1 -6.672977185098e+02   1.483390707962e+02  -8.618012782385e+00 
7 1  9.529425026268e+01   2.658215194777e+01   5.416553295973e+02 
8 1 -1.028205373899e+02   8.115432513001e+02  -4.881878548943e+02 
8
Step 600
1 1  1.191551033670e+02   3.842488252910e+02   1.373057162681e+02 
2 1  1.896338014751e+02   4.090002719706e+02  -3.001332074740e+02 
3 1 -9.321739117446e+01   6.152820517686e+01  -3.094698598198e+02 
4 1 -4.137379383407e+02  -5.535692922815e+02   2.515190416653e+02 
5 1  1.284117178699e+02  -6.668939899968e-01   2.448155162389e+02 
6 1 -6.544480015951e+02  -2.342299004358e+02  -6.355445693649e+01 
7 1  1.246602427934e+02  -1.520005968840e+02  -2.271781940901e+01 
8 1 -9.682253390425e+02  -5.571101710167e+02  -4.934464101735e+02 
8
Step 700
1 1 -1.373909512184e+02   2.165211141594e+02  -2.096507270844e+02 
2 1  1.155306355749e+02  -2.642312090580e+02  -2.029617368689e+02 
3 1 -9.343961620037e+01   6.263639815736e+02   4.464703083047e+02 
4 1 -2.148508718103e+02  -3.856858175259e+02  -1.676058411259e+02 
5 1 -3.242607714392e+02   3.019762720958e+02   6.930220849952e+01 
6 1 -5.653506580138e+02  -3.667404972437e+02  -9.732665791539e+01 
7 1  9.086717846466e+01   2.851579811895e+02   1.264533439993e+02 
8 1 -2.695736800702e+02  -7.217578916729e+02  -3.418196079422e+02 
8
Step 800
1 1  2.973730867013e+02   1.219946363320e+02   2.174418606265e+02 
2 1 -1.332341917784e+02   2.545336068176e+02   2.891897620646e+02 
3 1 -2.983727035184e+02   1.881727591566e+02  -1.910074025172e+02 
4 1  3.275986652646e+00   7.427195159029e+00  -9.807279169030e+01 
5 1 -1.524206124232e+02   7.515662477507e+01  -1.788521514039e+02 
6 1 -2.931745408548e+02  -1.230863852194e+02   1.398441751537e+02 
7 1  3.273219282749e+02  -2.703875239896e+02  -9.550530831638e+01 
8 1 -1.066501292951e+02  -9.075485227838e+01   1.546273478863e+02 
8
Step 900
1 1  4.714834281934e+02   6.721710684164e+01  -2.299564660129e+02 
2 1  1.376632502896e+01   2.828571242707e+02   9.186300239413e+01 
3 1  1.030236406093e+02  -3.513224425045e+02   2.561507473096e+01 
4 1  1.207750905771e+02   1.619260895622e+02   3.896497356983e+02 
5 1 -2.618678945075e+02   3.596990437092e+00  -3.713485143433e+02 
6 1 -1.380123776004e+02   3.048088538977e+02   5.464831809224e+01 
7 1  9.034043794745e+02  -5.927142062723e+01   1.083346627027e+02 
8 1 -7.415266287918e+01   1.298558616870e+02   2.407966593963e+02 
8
Step 1000
1 1  1.409933784642e+02   2.481297711967e+02  -2.676995287230e+02 
2 1 -2.557878787360e+02   6.317272544328e+01  -3.616035502679e+02 
3 1 -1.194783839889e+02   8.788174123292e+01   1.322683422919e+02 
4 1 -1.839316156293e+02   7.296416610941e+01   2.676394683319e+02 
5 1 -1.316535717391e+02  -6.176755541694e+02   1.294485797641e+02 
6 1  1.264601598619e+02   4.139711106881e+02   1.574989416917e+02 
7 1 -2.340374137934e+01  -3.636509401262e+01  -2.758676288263e+02 
8 1  1.920264351336e+02   1.147649900178e+02   1.776472045858e+02 
8
Step 1100
1 1  2.974199301063e+01   5.106372251519e+02   2.254959697932e+02 
2 1  1.025971380135e+02   7.320599343522e+01  -8.568498814405e+01 
3 1 -2.189267623304e+02  -4.202958451399e+02   1.931516267216e+02 
4 1 -5.479071170270e+02   8.989240466282e+01   4.108073953170e+02 
5 1  2.465410280471e+02  -1.111798124020e+02   5.445330295885e+01 
6 1  5.114707902132e+02   1.392578364677e+02   2.534080068587e+02 
7 1 -5.013178008474e+02   6.280705823188e+01   2.752742072111e+01 
8 1  7.107365322614e+01   9.988492779895e+01   2.401785929199e+01 
8
Step 1200
1 1 -1.452736482978e+02   2.758935503012e+02   1.893231731838e+02 
2 1 -2.789892752227e+02   3.757634006238e+01   8.165663736138e+01 
3 1  6.881052020347e+01   8.883651184200e+00   8.074819754510e+01 
4 1 -2.347672243378e+02  -1.555151671239e+01   2.698158952110e+02 
5 1  1.017836360479e+02   1.358432004934e+02   6.809879668736e+02 
6 1  3.274491721877e+02  -1.160444555956e+02  -2.239125695562e+02 
7 1 -3.685455717039e+02   2.835026515434e+02   4.095835041043e+02 
8 1  4.539519003687e+01   1.278370132448e+02   5.857053609065e+02 
8
Step 1300
1 1 -2.362464026622e+02   1.131682072673e+02  -2.984423935352e+02 
2 1 -3.685924692856e+02  -2.210158692460e+02   1.317852107563e+01 
3 1  4.568399404679e+02   2.254784202713e+02  -9.345402313700e+01 
4 1  6.582964999127e+02  -7.212658525632e+01  -6.702036191865e+01 
5 1 -4.995568323934e+01   3.869063256030e+02   7.320875179068e+02 
6 1 -3.470297275064e+02  -1.161155697330e+02   5.414142824038e+01 
7 1  2.243120379999e+02   1.931394685695e+02   6.061484426368e+01 
8 1  5.347146033074e+02   1.273625543014e+02  -3.566573785469e+02 
8
Step 1400
1 1 -2.348157774476e+02   3.885326560229e+02  -2.139711251415e+02 
2 1  4.061215113915e+02   2.915460530686e+01   6.232401947090e+01 
3 1 -8.934098170490e+01   3.161807082375e+01  -1.292658550979e+01 
4 1  7.721714353860e+01   5.000977685052e+01  -2.618327733934e+02 
5 1 -5.577107910728e+02   1.924256828163e+02  -5.553177215169e+02 
6 1 -3.358691162176e+02  -8.186340673634e+00  -1.079876534385e+02 
7 1 -4.380436062017e+02  -4.708533611808e+02  -5.807671729257e+02 
8 1  5.508062167576e+01  -1.203291371766e+02   1.036348059618e+02 
8
Step 1500
1 1 -5.256223204684e+00   1.416674454807e+02  -6.335377173877e+01 
2 1  2.022283822370e+02  -3.456239637288e+02  -1.491360266588e+02 
3 1 -3.119586604774e+02   3.014433447430e+02   2.890348793962e+02 
4 1 -4.748033869805e+02  -1.492964459735e+02  -1.286114434049e+01 
5 1 -5.953942747626e+02  -1.452982589704e+02   2.738164898039e+01 
6 1  2.802031847608e+02   1.392477165872e+02   2.880486037405e+02 
7 1 -7.215124511172e+01  -5.283457735029e+02  -3.007756064117e+02 
8 1 -6.742288126793e+02  -2.168707420340e+02   1.252540499073e+02 
8
Step 1600
1 1  1.498848357113e+02   2.131269465787e+02  -4.842441873311e+01 
2 1  4.934407386495e+02   1.068219352798e+02  -7.394367730333e+01 
3 1  2.329325835583e+02   2.184337611618e+02  -9.259084956025e+01 
4 1 -2.362586341704e+01  -2.095185204092e+02  -8.715518961889e+01 
5 1  2.711516265994e+02   2.410063727192e+02   3.394360007863e+02 
6 1  4.107038453964e+01  -6.583093241169e+00  -9.250517163492e+01 
7 1  1.330211420708e+02   3.610519788083e+02   1.607435106685e+01 
8 1 -1.784124300627e+02   1.123492343107e+02   9.709395560140e+00 
8
Step 1700
1 1  3.821738098236e+02  -1.785329685176e+02   1.637932128057e+00 
2 1 -1.929267836132e+01   1.336065342866e+02  -3.655474260620e+02 
3 1  1.134069749896e+02  -3.806975209003e+02   1.846421393055e+02 
4 1 -3.955271757549e+01   4.823741856867e+02  -1.405651442819e+02 
5 1  5.010779220812e+02   6.689315392554e+02   2.776263546978e+02 
6 1 -2.041603712852e+02  -4.041116104351e+02   8.960170630275e+01 
7 1  2.288583712838e+02   2.097900298080e+02   8.119326131742e+02 
8 1  3.735880341982e+00   2.253637592455e+02  -3.098356645519e+02 
8
Step 1800
1 1 -2.995162398856e+02  -3.356421061546e+01  -6.338567183203e+00 
2 1 -2.866480515576e+02   3.430933867682e+02   3.437337365090e+02 
3 1  9.358707986118e+01   1.543254620946e+02  -1.414996432200e+02 
4 1  3.148031778906e+02   2.200091913321e+02  -1.648684603268e+02 
5 1 -3.517160119221e+02  -9.926247329248e+01  -2.786804403653e+02 
6 1 -1.672420469718e+02  -4.461307157300e+02   2.431309207439e+02 
7 1  3.261511944530e+02   2.924123807632e+02   6.006497084005e+02 
8 1  4.620389038448e+02  -7.677233287090e+01  -2.456865762078e+02 
8
Step 1900
1 1  7.453701134563e+01  -5.894997630629e+01   5.394414406675e+01 
2 1  2.429369268953e+02   2.994634778478e+02   1.026780014624e+02 
3 1 -3.095769526671e+00   1.456979573087e+02  -3.070656933542e+02 
4 1  5.191453847229e+01  -6.411535253765e+02  -1.521536667454e+01 
5 1  2.941577442995e+02  -3.510685955365e+02  -1.283893659355e+02 
6 1 -1.518676893014e+02   3.636074630833e+02   3.044897918891e+01 
7 1  4.513440591781e+01   5.549650073637e+02  -4.520719725552e+02 
8 1  3.922945250418e+02  -1.360229800926e+02   2.889866621817e+02 
8
Step 2000
1 1 -2.076435035243e+00   3.767508226166e+01  -1.121242929038e+02 
2 1  1.058054362717e+02  -1.385129175915e+02   3.863616996876e+02 
3 1  2.825598962872e+00  -6.771136946291e+01   6.023982321990e+01 
4 1 -1.623500940597e+02  -3.951101343538e+02  -1.430478836551e+02 
5 1 -6.523894804255e+01  -5.969228766108e+01  -4.790389824718e+02 
6 1 -3.872801811800e+02  -6.168597125411e+01  -2.236524796084e+02 
7 1 -2.841717283784e+02  -2.423808762563e+02  -1.977333522048e+02 
8 1 -3.514247220319e+02  -2.181263419470e+02   3.274884684707e+02 
8
Step 2100
1 1 -2.203514715969e+01  -1.090884341252e+02  -3.290021229678e+01 
2 1 -2.966867264749e+01   1.281473344508e+02   2.023612259309e+02 
3 1  9.686504068445e+01   1.256434179527e+02  -1.528477858943e+02 
4 1  2.843946823365e+02  -2.137882742175e+02   1.195351048975e+02 
5 1  1.176669769766e+02  -4.968988686731e+02  -1.092585520025e+02 
6 1 -2.177469277690e+02   7.779035092360e+01   8.165962141560e+00 
7 1  3.275066657543e+00  -4.754457341611e+02  -3.359789510521e+02 
8 1 -4.107494131079e+02   1.182826176590e+02  -9.007136373029e+01 
8
Step 2200
1 1  1.653579062306e+02  -4.729185206638e+02  -2.450845483146e+02 
2 1 -2.281292660555e+02  -1.782829110665e+02  -6.478731820134e+02 
3 1  1.635345193231e+02   2.204836248979e+02   3.116262898423e+02 
4 1  1.649528924131e+02  -9.665325614476e+01   1.336571906696e+02 
5 1  3.818891375556e+01  -1.494221933595e+02   3.879776960707e+02 
6 1  6.096705109926e+01  -4.132399284702e+02   2.562657740425e+02 
7 1  1.749283706300e+02   4.123311496188e+02  -2.977055395712e+02 
8 1 -1.388466216131e+02  -1.527658760105e+02  -1.220223289753e+02 
8
Step 2300
1 1 -3.535657888570e+02   1.720555838070e+02   3.026482064747e+02 
2 1 -3.992405713024e+01  -1.234739582715e+02  -1.781957461724e+02 
3 1 -9.088627602666e+01   2.266843341125e+02  -3.209735769328e+02 
4 1  2.395581872843e+02   2.373204680315e+02   9.827009340619e+01 
5 1  5.933579584333e+01  -2.537099628814e+02  -2.719681107802e+01 
6 1  1.458324095044e+02   4.196597365360e+00  -2.955837765017e+01 
7 1  2.583389734006e+02   4.872355562703e+02  -7.518506881403e+01 
8 1 -3.365926794581e+01   1.184684069146e+01   3.044427985450e+02 
8
Step 2400
1 1  1.200241598841e+02   2.830967151761e+02  -1.837839490405e+01 
2 1  1.270820239669e+01  -2.429827709100e+02   2.253457854453e+02 
3 1 -2.180279597581e+01  -2.680570631881e+02  -6.191842809913e+02 
4 1  7.410814577660e+01   2.038375941246e+02   6.577489213896e+01 
5 1 -5.335820340288e+02   3.167259678872e+01   1.235035499201e+02 
6 1 -1.622963586016e+02   1.698868677514e+02  -1.125101816820e+02 
7 1 -4.061586302588e+02  -4.227813521673e+02   1.014359219949e+02 
8 1  1.583810892509e+02   3.097856347917e+02   3.935932360767e+02 
8
Step 2500
1 1  2.720176243595e+02   1.487949124603e+01  -1.779720956293e+02 
2 1  1.845570277766e+02  -2.822770331622e+02  -1.135549257869e+02 
3 1  1.680606979328e+02   3.527994353346e+01  -4.199953399271e+02 
4 1 -2.326833348402e+02  -9.824217236218e+00   1.478309676469e+02 
5 1 -6.743352059459e+01   1.322346599945e+02   2.204348296198e+02 
6 1 -1.072884973081e+02   4.832257439171e+02   3.533658779807e+02 
7 1  1.225216221239e+01  -4.458991397349e+02   2.194416082788e+01 
8 1  3.053262521007e+02   9.060416608358e+01  -8.532450132713e+01 
8
Step 2600
1 1 -6.381611579458e+01   6.773386344203e+01  -5.458735611732e+02 
2 1  9.694844150960e+01  -2.495693032278e+02  -1.715357632859e+01 
3 1  3.359187391592e+02   1.689795812724e+02   1.453729391432e+02 
4 1 -5.569757333506e+02  -1.450868547096e+02   9.233606996596e+01 
5 1  1.624421218086e+02   2.460745767949e+02  -2.837793499665e+02 
6 1  1.217247059621e+02   3.407657146345e+02  -5.324689558605e+02 
7 1  2.418968472349e+01  -2.332745307304e+02  -5.089434665629e+02 
8 1 -1.178852571092e+02  -1.601939811238e+01  -6.451347996216e+01 
8
Step 2700
1 1 -1.548013661388e+02  -5.807133890117e+01  -3.798660174058e+02 
2 1 -1.109204029382e+02   2.513121409869e+02   2.189563202017e+02 
3 1  2.115674611723e+02  -5.121357164993e+01   7.308099189748e+02 
4 1  1.433176999147e+01   1.661537274486e+02  -1.141486038169e+02 
5 1  1.875170341333e+02   2.875374901063e+01  -2.164267341650e+02 
6 1  2.057784633232e+02   5.256651657513e+01  -1.319218718992e+02 
7 1  1.147725114296e+02   2.540347491901e+02   1.013814679130e+02 
8 1  9.078940850778e+00  -5.248141342274e+02  -3.245472454626e+02 
8
Step 2800
1 1  2.955034557563e+02   3.403120976020e+01   4.120598197431e+02 
2 1 -3.961016007273e+02   9.543135115863e+02  -7.219259143377e+01 
3 1 -3.842462223018e+02   3.203155150893e+01   1.530859672862e+02 
4 1 -2.534148133304e+02  -1.164105970722e+02  -7.486055743708e+01 
5 1 -1.323902523113e+02   2.878226828195e+01   9.014915843313e+00 
6 1 -4.253852121563e+02   3.026552626147e+01  -1.215377535475e+02 
7 1 -2.716396087682e+02  -2.905394553550e+02  -2.697535621162e+02 
8 1  1.790875310537e+02   1.694509455060e+02  -4.381444112416e+01 
8
Step 2900
1 1  4.588107798105e+02  -5.967453512223e+01   4.215172025170e+01 
2 1 -1.424056484590e+02   2.356559252229e+02   2.180339036164e+02 
3 1 -4.995216644694e+02  -6.958469925350e+01  -4.388631412594e+02 
4 1 -3.978261392028e+02  -1.447899687866e+02  -1.510353626908e+02 
5 1 -3.339317803085e+02  -1.783836710253e+02  -1.204871198878e+00 
6 1 -1.747696602776e+02  -2.261189513588e+02   3.948756747304e+02 
7 1 -7.713981111162e+01  -1.151633106109e+02  -6.808550049458e+01 
8 1  6.265869630954e+02   2.960425342536e+02   5.437629294382e+01 
8
Step 3000
1 1  1.852167655278e+02  -5.754214935415e+00  -1.473117347410e+02 
2 1  1.036274907563e+02   3.358489334235e+02  -1.347350152648e+02 
3 1  1.517757112389e+02   2.932360501285e-01  -1.894637890669e+02 
4 1  6.532738417231e+01   1.861784541300e+02   1.662914646441e+02 
5 1 -3.439587405972e+02  -9.898354655159e+01   4.146395797297e+02 
6 1 -1.351055285152e+02  -1.383037734965e+02   6.282613612776e+02 
7 1 -2.692787310810e+02  -1.599818001020e+02   2.622877408096e+02 
8 1 -3.947522466929e+02   3.431788349346e+02   1.698167285930e+02 
8
Step 3100
1 1 -3.206205894665e+02  -3.721781962656e+02  -1.114877756043e+01 
2 1 -1.973587091347e+02  -4.287656743949e+02   2.822111294065e+02 
3 1  3.771677827572e+02  -2.954163165012e+02   6.868024469058e+02 
4 1  4.270779287095e+02  -5.272680570478e+01   4.029320822610e+02 
5 1 -3.602300764112e+01   1.569866020698e+02  -1.682201632896e+01 
6 1 -4.646684815064e+00  -1.495659022062e+02  -2.000278805558e+02 
7 1 -3.521273087939e+02  -2.343472917700e+02   2.303500138393e+02 
8 1 -7.010913602218e+02  -2.811461364416e+02  -2.011757044620e+02 
8
Step 3200
1 1 -1.864794025097e+02   3.254457938304e+02   1.073488564106e+02 
2 1  3.831930753963e+02   6.884928595094e+01   2.073277945760e+02 
3 1 -4.238010236897e+01  -3.917717868383e+00  -3.461812481737e+02 
4 1  1.052829564630e+02  -3.489277874757e+02  -4.255002153319e+02 
5 1  3.475847693660e+02   1.907001464419e+02   1.114278946830e+02 
6 1  1.966431231979e+02  -2.374118676018e+02  -1.387692657174e+02 
7 1  2.537175884240e+02   1.475296993021e+02  -7.543985720659e+01 
8 1 -2.195839790011e+02  -1.201630346675e+02  -1.307395199206e+01 
8
Step 3300
1 1 -1.751454243282e+02   3.211085654613e+02   2.233215084947e+02 
2 1 -2.036195217404e+02   2.998139259863e+01  -1.744892406261e+02 
3 1 -2.717646821486e+01  -2.716273494361e+02  -4.922145600028e+02 
4 1 -8.327210773028e+01   4.787113155338e+02  -3.242845562951e+02 
5 1  5.171918627314e+01   1.259230336502e+02   2.237493147000e+02 
6 1  2.832328490551e+02   1.781489257306e+02   2.025690954540e+02 
7 1  1.566524215086e+02   2.910639514512e+02  -1.111671149815e+01 
8 1 -3.359788598523e+02   5.800571999990e+02   1.976976844629e+02 
8
Step 3400
1 1  1.713509565823e+02   3.301626478148e+01  -2.669721376799e+02 
2 1 -4.291905470456e+02  -3.826660646981e+02  -2.428371191739e+02 
3 1 -2.969219495483e+02   4.754394545078e+02  -6.645786112473e+01 
4 1  5.650135928555e+00  -6.598327105711e+01  -2.638714698553e+01 
5 1 -4.507607511082e+00  -3.505688218710e+01  -1.600166227854e+02 
6 1 -2.556318452179e+02  -1.227395789068e+02   4.107389344317e+01 
7 1  1.054294180322e+02   3.574532399001e+01   1.644957719388e+02 
8 1 -2.970346859624e+01   4.453385602665e+02  -2.751807295887e+02 
8
Step 3500
1 1  3.346669660294e+01   9.204450407867e+01   1.987312972489e+02 
2 1 -2.574104334441e+02  -2.556486661181e+02  -9.252868050636e+00 
3 1  3.143325480938e+02   4.486342290697e+01   4.861360430131e+02 
4 1  2.562114927429e+02  -2.005295822600e+02   3.356448032931e+01 
5 1 -1.311374714027e+01  -1.114991491482e+02   1.077098807452e+02 
6 1  1.212370791376e+01  -3.399994448882e+02   1.050053805136e+02 
7 1  2.158024299796e+02   9.161044717168e+01   7.604419722618e+01 
8 1 -1.874071164859e+01   1.274036534953e+02  -2.775417074237e+01 
8
Step 3600
1 1 -2.931529717139e+02  -2.035128243507e+02   2.415552099027e+01 
2 1  1.291034023557e+02   2.742161998568e+02  -6.031650238365e+01 
3 1  2.401773183378e+02  -1.133542545326e+02  -3.063692435837e+01 
4 1  1.306746940532e+02  -5.570333932024e+01   9.120240839923e+01 
5 1  1.503309769157e+02   2.118754623647e+02   2.831057525067e+02 
6 1  1.105911090077e+02   5.227203657192e+02   2.479308268315e+01 
7 1 -6.030867913696e+02   6.802916578428e+00  -1.377977688524e+02 
8 1  5.046165202206e+02  -5.322958686366e+02   1.981522059009e+02 
8
Step 3700
1 1 -3.464069162026e+02  -2.534693814297e+02   4.744800841416e+01 
2 1  1.042998551213e+02   1.488617055459e+01   2.598705640852e+02 
3 1  9.664481982233e+01  -1.409306891913e+02   2.178475657415e+00 
4 1 -5.947500753027e+01  -4.198451862505e+02  -3.820176488684e+01 
5 1  5.829381563357e+01  -3.526208634504e+02   1.037445941081e+02 
6 1  4.148628588793e+02  -2.313037568633e+02  -3.351511406254e+02 
7 1 -2.278571039036e+02  -1.462813841262e+01   1.777682736294e+02 
8 1  4.018245890379e+02  -4.774729271802e+02   4.679683188278e+02 
8
Step 3800
1 1  1.368973661266e+02  -6.121653660940e+01   4.571033527718e+01 
2 1  1.470279731886e+02   3.506467316073e+02  -9.589680106961e+01 
3 1 -9.647216245194e+01  -2.952980571653e+02   2.498262206950e+02 
4 1 -3.070501749189e+02  -2.171490546226e+02  -3.026044302355e+02 
5 1 -1.512756224200e+02  -8.936150351699e+01  -4.647376320611e+01 
6 1  1.676900940820e+02   2.328089805905e+02   5.131934448892e+01 
7 1  5.729213695874e+01  -1.247258857225e+02   2.624501076633e+01 
8 1 -2.841368240910e+01  -3.156197062307e+02   7.423185034543e+02 
8
Step 3900
1 1  7.577901745729e+01  -1.233291234871e+02   2.771260002036e+02 
2 1 -1.057423428971e+02   7.682548114413e+01  -2.868239035365e+02 
3 1 -3.249143954649e+01   2.356880614686e+01  -3.171524772690e+01 
4 1 -4.266848247902e+02   2.097138478214e+02  -5.365950855513e+02 
5 1 -6.881367939134e+01   2.670621990237e+02  -4.068852289858e+02 
6 1  1.429732890225e+02  -6.343543808986e+02  -2.523042229666e+02 
7 1  1.551382334916e+02  -1.543505586487e+01  -3.943046051279e+02 
8 1  1.961030516256e+00   1.655846033259e+02  -3.129359077028e+02 
8
Step 4000
1 1 -7.147453658156e+02   1.117692469351e+02  -4.184413506188e+02 
2 1  1.826995435376e+02  -3.472798317986e+02   7.803805118491e+01 
3 1  1.025986835186e+02   1.243224139274e+02  -4.488207168407e+02 
4 1 -1.518746593900e+02   3.318095595782e+02  -4.954237098945e+02 
5 1  3.637297142198e+02  -1.029220714462e+02   2.644068977361e+01 
6 1 -7.673000370792e+02  -2.221913315867e+02  -3.487785056157e+02 
7 1 -4.496130975326e+02  -7.474503888341e+01   1.358730280686e+02 
8 1  1.959789169837e+02   2.988270822538e+02  -5.482628596689e+02 
8
Step 4100
1 1  1.186839427477e+02  -9.753791764713e+01   1.250467527861e+02 
2 1  1.818781532381e+02   1.261596006751e+02  -3.961137515869e+02 
3 1 -1.276622329986e+02   5.076211409328e+02  -2.095412739514e+02 
4 1  3.763954933036e+02   5.399981026008e+02   1.196627765172e+02 
5 1 -2.104378386725e+02   4.705730726996e+02  -2.671283278765e+02 
6 1 -2.603289828516e+02  -6.341024301174e+01  -4.143895384430e+01 
7 1  6.229517765977e+01  -1.843471520925e+01   3.718691637471e+01 
8 1  1.414786243192e+01  -3.321540710774e+01   1.738767869851e+02 
8
Step 4200
1 1 -6.298872075751e+02   4.697528477399e+02   2.470965628233e+02 
2 1  1.546492524068e+02   4.570833224136e+02  -3.801046312143e+00 
3 1 -2.217595122155e+02   9.266080101674e+01   8.484811976575e+01 
4 1 -1.530323848869e+02  -1.374135399605e+02   4.179921052480e+02 
5 1  4.773114368695e+02  -8.514371287984e+01   1.735618468741e+02 
6 1  1.556145641742e+02   3.080596158029e+02   2.925934569546e+02 
7 1  1.910503090128e+02   3.361797283260e+00  -2.149043348843e+02 
8 1  2.232469858802e+02  -2.910711930429e+02  -2.400290980445e+02 
8
Step 4300
1 1  1.961948908889e+02   2.902057850935e+02   2.513212786401e+02 
2 1 -7.999690847480e+02   1.299122735506e+02   1.082183247351e+02 
3 1 -4.430641308318e+02   2.499703653198e+01   3.589767335104e+02 
4 1  2.600649493761e+02  -3.103647796868e+02   4.127207240908e+02 
5 1 -6.815885255849e+01   3.303285051412e+02  -5.453690377191e+01 
6 1  2.940206909804e+02   2.488380425801e+02  -1.694834618290e+02 
7 1  2.405880990114e+02   3.212400864376e+02  -3.907475223948e+02 
8 1 -1.465453718194e+02  -3.488230359005e+02  -1.329823787529e+01 
8
Step 4400
1 1  3.585222737515e+02  -4.957913099430e+02  -6.594699504907e+01 
2 1 -4.107700049107e+02  -3.244801528989e+02   1.068320819443e+02 
3 1  5.521378759673e+02  -8.711403894037e+00   6.398911734082e+02 
4 1  1.235330209299e+01  -1.228066678779e+02   8.155285197934e+01 
5 1 -3.731391058955e+02   1.206495712120e+02   1.590068173084e+02 
6 1  4.022793497423e+02   9.056087079075e+01  -1.035176497031e+02 
7 1  5.088404894703e+02  -5.595607872937e+02  -1.909680950942e+01 
8 1 -6.837954724515e+02   8.919316676146e+01   1.026831803846e+02 
8
Step 4500
1 1  7.677676725165e+01   9.029790698138e+01   1.827483893335e+02 
2 1  2.214938872634e+02  -9.527539994470e+02   3.010498758769e+02 
3 1 -6.018500661367e+01   5.128928379747e+01  -1.767193288213e+02 
4 1 -1.548570986639e+02  -4.741392756469e+01   1.562010665488e+02 
5 1 -2.505190568052e+02   2.638679573293e+01   4.161061491097e+01 
6 1 -1.286745157683e+02   2.915670774345e+02   1.777125898583e+02 
7 1  1.333429811283e+02  -3.764295471037e+02   1.542080306655e+02 
8 1  1.245726351701e+02   1.284294091409e+02   1.016559835682e+02 
8
Step 4600
1 1  9.947787918239e+01   7.035175839294e+01  -3.687082874888e+02 
2 1  2.950855776349e+02   1.632267895919e+01   4.089722068031e+01 
3 1  1.007477558926e+01  -2.222839219826e+02  -3.953760580092e+02 
4 1 -2.318628439772e+02  -2.925448119826e+02  -4.223659233885e+01 
5 1  4.204886271988e+02   4.735448442379e+01  -2.698360385180e+02 
6 1 -5.914428267476e+01   1.624312271520e+02   5.187175219981e+01 
7 1  2.240969436573e+02   1.987213219814e+02   4.282152402885e+01 
8 1  1.877701017404e+02   6.299514250184e+01  -1.713480611047e+02 
8
Step 4700
1 1  3.055556460295e+02   1.570074454458e+02  -4.835265635975e+02 
2 1 -5.270661520388e+02  -4.114991222784e+01   1.494139455721e+02 
3 1  2.792400456893e+01  -1.336345871599e+01  -5.506806765822e+02 
4 1 -6.403570083186e+01  -2.770127852468e+02   2.176309335804e+02 
5 1  3.445571365360e+02   2.485824672303e+02  -2.408121538403e+02 
6 1 -1.918941733734e+02  -1.764862132321e+02   1.263391143003e+02 
7 1 -1.559936776540e+02   3.645182152525e+02   7.297174772537e+02 
8 1  1.099408752447e+00  -1.082615778714e+02  -1.755108617888e+01 
8
Step 4800
1 1 -2.580454379472e+02  -9.608493393762e+01  -2.614069010889e+02 
2 1  1.210822116502e+02   2.553674184099e+02  -4.060114175883e+01 
3 1  1.028717445753e+02  -4.636270887419e+02   5.228655066249e+02 
4 1 -5.990294953009e+02   8.350052862159e+02  -2.060132563259e+02 
5 1  5.955541006145e+01  -2.708534105638e+02   8.139531332780e+01 
6 1 -4.892340860060e+02  -3.871427127963e+02  -3.192016834022e+02 
7 1 -4.391076222708e+02   3.060562716598e+02   3.432420138344e+02 
8 1 -8.777428501217e+01  -5.290211820089e+01  -4.268878891260e+02 
8
Step 4900
1 1 -2.691355369509e+02  -4.690979034002e+02   5.317013122284e+02 
2 1 -1.276110245744e+02   2.760558066641e+02   1.699292667254e+02 
3 1  2.086174389288e+01   7.095272832778e+01  -4.618583156382e+02 
4 1  8.327629039969e+01   5.671529585590e+02  -1.027778035699e+02 
5 1  3.488353113930e+02  -1.585001018164e+02   2.389799536345e+02 
6 1 -1.319961430746e+01   3.515900989102e+02  -2.019536349980e+02 
7 1 -5.826987841641e+01   3.722521095158e+01  -1.547007203152e+02 
8 1 -2.154460621023e+02   1.250348803564e+02  -2.396913836670e+02 
8
Step 5000
1 1 -6.450705900263e+01  -1.921006913163e+02   2.390704108523e+02 
2 1  1.583030790771e+02  -1.453492818803e+02  -1.493292866706e+02 
3 1 -1.698908717340e+02  -1.837726675971e+00   2.605281970060e-01 
4 1  6.451340703460e+00  -5.151625514172e+02  -1.041271377426e+02 
5 1 -2.485783675250e+02  -2.303241845669e+01   3.075862669029e+02 
6 1  3.468486757038e+02  -4.167613535877e+02   3.114543583997e+02 
7 1  4.746068328571e+01  -1.473389098404e+02  -3.598371429775e+02 
8 1 -3.510826203158e+02  -7.618267592928e+01   3.780278845275e-01 
8
Step 5100
1 1  1.538300348851e+02   1.638320026956e+01   2.340215947132e+02 
2 1 -1.393098199259e+02   1.843095341850e+02   1.495894257842e+02 
3 1 -1.463803718192e+02   1.824049747156e+02   1.775289976248e+02 
4 1  1.409628727020e+02  -5.149731958529e+02  -1.938921120514e+01 
5 1  3.317101449819e+02   2.001975850875e+02  -3.719444892172e+02 
6 1  3.226618017262e+02  -2.975870720661e+02   2.104709411956e+02 
7 1  5.265871935755e+01  -1.837963766681e+02  -5.062728739313e+02 
8 1  2.617132709055e+02   1.307068912949e+02   3.243100189753e+02 
8
Step 5200
1 1  5.974663968307e+02   4.263274540317e+01  -3.479472701584e+01 
2 1 -5.022095654681e+02   5.627190591015e+01  -3.261869605878e+02 
3 1  6.636821756897e+01   9.483909330933e+01  -1.428993802811e+01 
4 1  3.920530584380e+02   1.875677186051e+02   2.128901693662e+02 
5 1 -1.826617584106e+02  -2.285305904195e+02  -1.430723599774e+02 
6 1  2.571848135687e+02   3.038497953628e+02  -1.488836540526e+02 
7 1 -7.416749445468e+00  -3.792231460964e+01   2.656029280678e+02 
8 1 -2.278607841115e+02   2.454546993728e+02   2.041591612690e+02 
8
Step 5300
1 1  3.963051088154e+01  -1.591594338285e+02   3.253529262269e+02 
2 1  4.784582829214e+02   7.483486488896e+01  -1.990910963639e+02 
3 1  2.671935232677e+02   5.184493011735e+02  -4.584017269070e+02 
4 1 -1.188315662035e+02   1.196729334255e+02   1.285425451884e+02 
5 1  5.675578311093e+01  -6.033440056459e+02   6.997010137531e+00 
6 1 -3.147960207575e+02   4.448195825983e+02  -5.135043044891e+02 
7 1  8.104936969120e+01  -1.709064304258e+02   1.808422107238e+02 
8 1  3.608090576841e+02  -2.381045969000e+02   6.297400759006e+01 
8
Step 5400
1 1 -4.984777195960e+02  -3.333301105734e+02  -1.625902870706e+02 
2 1  1.365090486036e+02  -3.204213032503e+02  -1.236872398038e+02 
3 1  6.439924256830e+01  -6.354242191703e+01  -1.774770774348e+02 
4 1  1.833389159726e+01  -3.925676356922e+02  -3.839229069421e+02 
5 1  1.309203373978e+02  -1.999923979392e+02   1.922883829019e+02 
6 1  2.150235309083e+02   8.774549331522e+01   4.301138323736e+02 