8
Step 0
1 1 0.00000000000000000e+00 0.00000000000000000e+00 0.00000000000000000e+00
2 1 0.00000000000000000e+00 0.00000000000000000e+00 0.00000000000000000e+00
3 1 0.00000000000000000e+00 0.00000000000000000e+00 0.00000000000000000e+00
4 1 0.00000000000000000e+00 0.00000000000000000e+00 0.00000000000000000e+00
5 1 0.00000000000000000e+00 0.00000000000000000e+00 0.00000000000000000e+00
6 1 0.00000000000000000e+00 0.00000000000000000e+00 0.00000000000000000e+00
7 1 0.00000000000000000e+00 0.00000000000000000e+00 0.00000000000000000e+00
8 1 0.00000000000000000e+00 0.00000000000000000e+00 0.00000000000000000e+00
8
Step 1000
1 1 1.41818667540710487e-06 8.49414149256220104e-07 -2.24668537518511822e-06
2 1 3.91513433535920713e-07 -2.45075380876886159e-06 1.70207166936334750e-06
3 1 1.66179826518726424e-06 -2.89166477875836142e-06 1.19852467281377480e-06
4 1 2.46644377436494158e-06 -1.84301745111077355e-06 -2.20463667860002320e-06
5 1 2.22235365890727893e-06 -3.02081019688409326e-06 1.24660034745706125e-07
6 1 -1.85927721139988421e-06 3.25616122573698611e-06 1.68547624896040155e-06
7 1 2.48408092746671772e-07 -3.11763149390402663e-06 -1.70321777527069082e-06
8 1 -3.12604610848860861e-06 8.92348851823739628e-07 6.46332952771096820e-07
8
Step 2000
1 1 -1.40025723517760941e-06 -7.30255746640757558e-07 1.90308131476831036e-06
2 1 4.89893319989270926e-07 2.02431560710547996e-06 -2.52781046612633520e-06
3 1 -7.34544008757999083e-07 1.58518566190393244e-06 -3.93459470246742352e-07
4 1 -1.29771103071724407e-06 1.30882728884166526e-06 1.70488459214872203e-06
5 1 -8.58264250282926602e-07 2.35296164823986868e-06 4.46274384238113356e-07
6 1 1.41996456799823665e-06 -2.48583870652581010e-06 -7.28122004515576516e-07
7 1 4.98753807596915588e-07 1.71005666895946459e-06 9.34129878147870295e-07
8 1 2.18665694950944984e-06 -1.59789974466715079e-06 -1.42514395730496005e-06
8
Step 3000
1 1 1.00801170418830244e-06 7.31347888293066897e-07 -1.35410815023406443e-06
2 1 -1.30040594585258540e-06 -1.44675813213546473e-06 2.74616348993758169e-06
3 1 1.86840849372555378e-07 -8.53419664629888349e-07 1.35836881352482774e-07
4 1 4.42771616836935599e-07 -1.02207051478675798e-06 -6.84522631866077748e-07
5 1 -3.13765623922043208e-07 -1.70835166238717094e-06 -3.89374625110726788e-07
6 1 -1.45888530091132207e-06 1.98121994861552669e-06 -1.55772174580544731e-07
7 1 -1.08249549098760607e-06 -7.40148714259752620e-07 -5.36007929788045995e-07
8 1 -1.00652580302479808e-06 1.02914200368737362e-06 1.76359282387371200e-06
8
Step 4000
1 1 -3.58092993822460525e-07 -1.16691867924034464e-06 8.55829379051073630e-07
2 1 1.45706624537453366e-06 3.67324807496374492e-07 -1.89137553794267260e-06
3 1 1.68652953943862322e-07 6.62336734102126814e-07 -2.02528556823383818e-08
4 1 -5.68956326841378944e-08 1.22249243178574536e-06 -1.52544667461862956e-07
5 1 1.15711208187101329e-06 8.96937377298516008e-07 -4.22388012855869301e-08
6 1 1.52849410799606900e-06 -1.37016502771937058e-06 1.24429352961379165e-06
7 1 1.73712379961246972e-06 -4.04701148559752405e-08 6.89275511425802097e-07
8 1 6.30373911445310683e-07 -4.32703041142359686e-07 -2.57870244301306807e-06
8
Step 5000
1 1 -3.14421119231613445e-07 1.75019682445684141e-06 -5.06658296359671337e-07
2 1 -1.57367755752137872e-06 4.89645560328683758e-07 1.37354359058751794e-06
3 1 -9.13019265947749704e-08 -9.10989597915963536e-07 1.13123669264173368e-07
4 1 2.16915729616281219e-07 -1.84558072262550324e-06 9.59853510478613673e-07
5 1 -1.40402841735239544e-06 -9.14153043323030352e-08 8.34519473461063676e-07
6 1 -1.60115257386071468e-06 5.73079345877148251e-07 -2.29942868910771861e-06
7 1 -2.22326309551933625e-06 8.61413343300896952e-07 -1.34467565992700633e-06
8 1 -3.89744075035927332e-07 -4.75151803411114845e-07 3.02036777067568845e-06
8
Step 6000
1 1 9.64288700114354434e-07 -2.27834343846214126e-06 2.85579350186630758e-07
2 1 1.68690044533698202e-06 -7.36625553872622356e-07 -1.21250658978317123e-06
3 1 -2.97549679007999394e-07 1.44164974710087636e-06 -4.31794089214334581e-07
4 1 -9.18972161609267973e-07 2.61787584523528193e-06 -1.38935978413712850e-06
5 1 1.05546396322094805e-06 -7.70189743460822780e-07 -1.97524079071300788e-06
6 1 1.64507635485692769e-06 3.39339382207319891e-07 3.11446690134549807e-06
7 1 2.20497294763679966e-06 -1.37140432169654104e-06 1.97614189171872698e-06
8 1 2.16787669071315501e-07 1.27035130718633689e-06 -2.61193064062396228e-06
8
Step 7000
1 1 -1.17277280115054818e-06 1.77634313123184024e-06 -2.06492490329879282e-07
2 1 -1.68713932693923613e-06 3.14925340439746695e-07 1.27885682949734888e-06
3 1 8.47394067893828661e-07 -2.34397058264574672e-06 9.34348301132346440e-07
4 1 1.61000828040602208e-06 -2.78893021045768429e-06 8.77435240364974631e-07
5 1 7.27976666436502588e-08 1.65359304435893519e-06 2.84494915269219370e-06
6 1 -1.71735608363082218e-06 -1.35858740047403821e-06 -3.39226621974089683e-06
7 1 -1.91056290677640806e-06 1.24644522924671349e-06 -1.91465864365443763e-06
8 1 -2.19241332824427237e-07 -1.47945556569909996e-06 1.49118745841873036e-06
8
Step 8000
1 1 5.60264014876302136e-07 -2.62848467689550092e-07 4.93302905683117096e-07
2 1 1.58118923507706350e-06 7.04966167057617310e-07 -1.59625793881887774e-06
3 1 -1.50151826520297749e-06 3.41374610386480632e-06 -1.57500214992686201e-06
4 1 -1.37466141216845404e-06 1.87591156404106599e-06 4.02599518590372240e-07
5 1 -1.36377421619821464e-06 -2.01362509262482026e-06 -2.47351652517477321e-06
6 1 1.81508425140587504e-06 2.21864963006042909e-06 2.32548405969073154e-06
7 1 1.78570569957154790e-06 -7.73073681533287059e-07 1.15848846448549438e-06
8 1 3.81505513240897820e-07 1.07694537992151529e-06 -1.58207132565843431e-07
8
Step 9000
1 1 2.95355523838527338e-07 -7.11974339014675275e-07 -1.67095259613943026e-06
2 1 -1.44656011244439794e-06 -1.97784553207029054e-06 1.62996894370509750e-06
3 1 1.39542582628773508e-06 -2.81015687590230752e-06 2.25013896752623559e-06
4 1 6.41427533487293229e-07 -1.42568237970588580e-06 -1.12027545182888155e-06
5 1 2.14093856067779007e-06 1.92868695214328574e-06 1.22577977694822892e-06
6 1 -1.94979655298856552e-06 -2.23797947598397338e-06 -5.08252005338794474e-07
7 1 -1.81971597384646580e-06 3.35399204742204649e-07 -1.68784371219400122e-07
8 1 -4.11271109198300262e-07 -4.97983290238428750e-07 -7.07808381468886563e-07
8
Step 10000
1 1 -1.12456200342570025e-06 1.43624165510164154e-06 2.81851530020120782e-06
2 1 1.10226557077432010e-06 2.09800650095781336e-06 -5.09254318268231966e-07
3 1 -2.00771308592952495e-07 1.03927489532294871e-06 -2.25905190620919207e-06
4 1 1.76513014452710905e-07 1.41883538050188511e-06 1.44985120753961845e-06
5 1 -2.27062058441009104e-06 -1.55818823722491156e-06 -1.97695140172476187e-07
6 1 1.72162131091150017e-06 1.54924674448911544e-06 -7.45716044320618467e-07
7 1 2.13253527907035083e-06 -1.03139618956671330e-07 -6.01147313996273959e-07
8 1 1.41778330507874675e-07 -2.40091765787915737e-07 1.04809028193014083e-06
8
Step 11000
1 1 1.32636227901053940e-06 -1.41664630996245249e-06 -2.55335999378921704e-06
2 1 -1.99665086070479073e-07 -1.52717759522684252e-06 -6.13873872985387779e-07
3 1 -9.25591640425719856e-07 -3.06852941307988749e-09 1.95685656545584999e-06
4 1 -1.18102788363050701e-06 -1.49371333914100514e-06 -8.95425596514288366e-07
5 1 2.02133863725969596e-06 1.20211291664063362e-06 -4.49787211572512640e-07
6 1 -1.39849855803047825e-06 -8.61330196708464571e-07 1.24950402400354467e-06
7 1 -2.49645095367193557e-06 1.20971738577590425e-08 1.17869771811553849e-06
8 1 1.55304169639995175e-07 1.65072483090917721e-06 -1.94714780186393086e-06
8
Step 12000
1 1 -8.99563237742362312e-07 6.40137106454432062e-07 1.22271673146876093e-06
2 1 -1.56389692860065668e-07 1.14482395707661393e-06 9.86218127157017655e-07
3 1 1.50758590813470947e-06 -1.42096897014120597e-07 -1.72965980084037972e-06
4 1 1.85348317548185648e-06 1.62498804682891422e-06 -3.96518344611047220e-07
5 1 -1.67559544519673567e-06 -8.85941078424997508e-07 1.06722354056065616e-06
6 1 9.52206635563540335e-07 1.48629143783275496e-07 -1.11637097196099515e-06
7 1 2.44286813268361314e-06 1.02238354069003273e-08 -1.35202297597078123e-06
8 1 -3.34065158356405244e-07 -1.98346403931299036e-06 2.45666988457546502e-06
8
Step 13000
1 1 1.46194527502888329e-07 2.85594754548317665e-07 8.47354285232825965e-08
2 1 -8.09334898458948009e-08 -1.28103750101527209e-06 -1.23377400514192692e-06
3 1 -1.67162286862670036e-06 -1.50725728416180283e-07 1.34661026636380205e-06
4 1 -1.25772049592892977e-06 -1.06511586437670957e-06 1.11345539618218408e-06
5 1 1.16978546084294770e-06 1.64319101134900664e-07 -1.54205518995352172e-06
6 1 -7.42226250120123220e-08 6.80523600133325677e-07 5.27263062146268681e-07
7 1 -2.09672754911545447e-06 -6.54836944633397220e-08 1.13625364098079956e-06
8 1 -1.17088978732278853e-07 1.41114840965166319e-06 -1.93795171407732213e-06
8
Step 14000
1 1 6.94497522897518218e-07 -8.94200043991728512e-07 -1.02036997965817684e-06
2 1 7.24719589661983603e-07 1.93183930215295036e-06 1.48761560710641521e-06
3 1 1.57222722680867658e-06 4.87978244503595063e-07 -7.39972257439455473e-07
4 1 6.12670584337436109e-07 -9.38109120850960968e-09 -1.40347241871022176e-06
5 1 1.80789596428593175e-07 6.74503274785538332e-07 9.33731969671077185e-07
6 1 -1.59195960287896012e-06 -1.64546322553389595e-06 3.16584085741924300e-07
7 1 2.08712326308477370e-06 2.98432850830313809e-07 -4.10737278987463079e-07
8 1 9.16941331682773315e-07 -8.01840696824258053e-07 1.23054265034077304e-06
8
Step 15000
1 1 -1.48286550962821104e-06 9.67216181009002655e-07 1.62496781329069126e-06
2 1 -1.29876495075291856e-06 -2.71148872747254748e-06 -1.31302332184089997e-06
3 1 -1.05720529693537336e-06 -9.50653710356532014e-07 4.26519450115920588e-08
4 1 -3.54892016836122029e-09 7.94493634088709300e-07 1.55709838363642249e-06
5 1 -1.18574357267983925e-06 -9.74554171750712428e-07 -7.28902040966062369e-08
6 1 4.17760605674278985e-06 3.06403244945452898e-06 -1.40837519545106755e-06
7 1 -2.17809166752596331e-06 -5.83176414226043527e-07 -3.37152831227758501e-07
8 1 -1.96370003993453587e-06 3.66572413495330254e-08 -5.95989208184176426e-07
8
Step 16000
1 1 2.54085991804843183e-06 -6.96243354353739418e-07 -1.76324056169478595e-06
2 1 9.56912178771658896e-07 2.89585053407092632e-06 5.20389234553320081e-07
3 1 3.91945301005493869e-07 1.64044827351912583e-06 7.51145277225710477e-07
4 1 -4.79505277619882537e-07 -1.47298282278709760e-06 -1.54473490350087799e-06
5 1 1.61213547133065267e-06 9.24488500643543870e-07 -6.14144520237096278e-07
6 1 -4.38079695234161814e-06 -2.25754575094491621e-06 8.26300952969896234e-07
7 1 2.45611088776392745e-06 7.40245748778632558e-07 8.38543725293159376e-07
8 1 2.58713328247355706e-06 4.98677672840157013e-08 8.74318004825998415e-08
8
Step 17000
1 1 -2.91930566978590117e-06 -2.34611525343157460e-07 5.81934854637392825e-07
2 1 1.33050015226912204e-07 -2.53133703737621371e-06 4.61113772222566327e-07
3 1 8.24946088111187033e-08 -1.80403675092324740e-06 -1.64673364827780259e-06
4 1 7.18904639783296370e-07 2.58369973606746472e-06 1.53488271607985562e-06
5 1 -1.25254306089553215e-06 -4.52811557351041290e-07 6.77696897918287007e-07
6 1 3.42119539500824489e-06 7.40290456297407383e-07 2.07956448354865403e-07
7 1 -2.50335766561262981e-06 -7.91177552159175949e-07 -1.30404277265588076e-06
8 1 -1.98868132964499785e-06 3.17714081238947715e-07 4.50130098670584344e-08
8
Step 18000
1 1 2.35074156089641601e-06 1.23391622547142322e-06 7.03031600544386431e-07
2 1 -1.09889056259040763e-06 1.86603357800727522e-06 -8.09133060440177376e-07
3 1 -2.92594056320634896e-07 1.12376573851553025e-06 1.96659688663158999e-06
4 1 -6.94149930896751574e-07 -3.61363291631324124e-06 -1.33865662074261514e-06
5 1 6.81713424062748479e-07 -1.84438315544354199e-08 -3.01820886336542995e-07
6 1 -2.60749965695474467e-06 1.53735637612108784e-07 -7.94506990266918106e-07
7 1 1.95092195994948832e-06 5.73951105718014489e-07 1.75436700329906694e-06
8 1 6.77386968079369759e-07 -4.18450997292859744e-07 3.54046383935453002e-08
8
Step 19000
1 1 -1.75193194042008889e-06 -1.62342302790639152e-06 -9.01415303756936266e-07
2 1 1.78844739550806601e-06 -1.38268899563781508e-06 3.48437700642946695e-07
3 1 2.45078120662263276e-07 -3.23898547590244009e-07 -2.08128298244217426e-06
4 1 4.35656675736870523e-07 3.50112031026362885e-06 1.02147717137504985e-06
5 1 1.03863647579774041e-07 5.02411906010186249e-07 -2.99843287409809762e-07
6 1 1.72786892269564691e-06 -5.40951358215077692e-07 8.58504908481231533e-07
7 1 -1.15291529675435570e-06 -1.44241041162484257e-07 -2.06298702697595108e-06
8 1 2.68633581215525585e-08 5.11138150358724987e-07 -2.48403737829831645e-07
8
Step 20000
1 1 1.42621557833061175e-06 1.39612050897874395e-06 4.06988013991717304e-07
2 1 -2.00717503556838981e-06 9.89308671891014927e-07 2.34434723774220138e-07
3 1 3.47285862030924080e-08 -2.17248078816768175e-07 2.35393335750816282e-06
4 1 1.93827904867006993e-09 -2.68331962103345963e-06 -1.01506391093328650e-06
5 1 -1.27060137640747290e-06 -1.19332135323440062e-06 1.21710595556663928e-06
6 1 -9.57598537137172366e-07 6.02689493456172207e-07 -5.11506986544241675e-07
7 1 3.12530801829793974e-07 -4.17144805436763065e-07 2.07852492319419202e-06
8 1 -5.64263135105970481e-08 -5.64223344719846516e-07 5.20081084534739414e-07
8
Step 21000
1 1 -1.36803995840371366e-06 -7.72235469122856637e-07 1.23690257858306503e-07
2 1 1.76797831045196486e-06 -8.49708149985882306e-07 -7.60774705921503472e-07
3 1 -4.43208848286233674e-07 3.01371760084232645e-07 -2.60403279792548835e-06
4 1 -3.41624348205986721e-07 1.90550280879691552e-06 1.18274620222973441e-06
5 1 2.26076038132117688e-06 1.84525157371577982e-06 -2.04834385020648585e-06
6 1 2.49327937947416732e-07 -4.32587959415970514e-07 -5.95972487895931237e-07
7 1 3.35524034031376587e-07 8.13685382075509552e-07 -1.60686545886145059e-06
8 1 -9.92637260700835577e-07 3.27258167786024024e-07 -8.96007135483315436e-07
8
Step 22000
1 1 1.57164049972050017e-06 3.20822003252197969e-07 -5.75394831094698304e-07
2 1 -1.32225790932220193e-06 1.23668861065931258e-06 1.34840882665662218e-06
3 1 8.66082998406203550e-07 -1.23310619945465434e-08 2.60508782961107715e-06
4 1 6.12920999939217273e-07 -1.08130875783801441e-06 -9.88807902300801766e-07
5 1 -2.03688678286149524e-06 -1.56173467426677494e-06 1.89658028486382710e-06
6 1 4.13672140818014345e-07 2.54491465463904399e-07 1.90564437010749635e-06
7 1 -9.53507543587451972e-07 -1.07551402634670029e-06 7.56475034787374452e-07
8 1 2.56638924844208605e-06 3.41256382049458761e-08 1.01999136082070523e-06
8
Step 23000
1 1 -1.93734499824497594e-06 -2.37279867333085448e-07 1.17866841535748001e-06
2 1 8.83799835854291646e-07 -2.41708051935006884e-06 -2.11472102572870899e-06
3 1 -1.08251997382685338e-06 -2.63258497012242052e-07 -2.14559173642460823e-06
4 1 -7.11241047534093655e-07 3.95307256950409410e-07 1.10072097853852147e-07
5 1 1.43467992996679529e-06 7.57928774097054687e-07 -8.60439166740402338e-07
6 1 -8.32662080588902165e-07 -9.74181181547782349e-08 -1.53106810470504435e-06
7 1 1.90653350674774213e-06 1.27206281749424116e-06 -1.89018981494480143e-07
8 1 -3.29823498755178564e-06 -1.29773115080868856e-07 -8.74740960259834660e-07
8
Step 24000
1 1 2.50157496364023221e-06 4.31775354168584333e-07 -1.94346949956179641e-06
2 1 3.09658544075847718e-07 2.85419479151313974e-06 1.78568675553040084e-06
3 1 7.91313247697653111e-07 3.27939645556511810e-07 1.24373482541270713e-06
4 1 6.29369267956018524e-07 -2.19754506063912957e-07 8.54236890612288141e-07
5 1 -9.25456206880568495e-07 -3.32877224488724447e-07 -2.63043918710482266e-07
6 1 8.92983204497795144e-07 -2.66851548006310198e-08 4.57470119812029404e-07
7 1 -2.86352776317586077e-06 -1.18604186912656377e-06 -1.57364320586986475e-07
8 1 2.69000044668880444e-06 1.58999867637629900e-08 7.15702256390828428e-07
8
Step 25000
1 1 -2.83625376338109489e-06 -9.82985577953320374e-07 2.37287008618533281e-06
2 1 -1.46073686651453520e-06 -2.67975450733665704e-06 -7.03773721290405252e-07
3 1 1.39598700277766934e-07 -2.19112589131127029e-07 9.01581522663687815e-08
4 1 -3.46307530444710689e-07 4.72238910079163132e-07 -1.82177833365948814e-06
5 1 3.60279910565490563e-07 8.66467705842885625e-08 1.08307605801390492e-06
6 1 -8.13993414187364530e-07 2.83432590482292794e-08 2.06862808451235160e-07
7 1 2.95807666254741531e-06 5.78242562919933418e-07 8.32068143846093375e-09
8 1 -1.41359469533064845e-06 -4.37890956821183288e-08 -6.82452742880084722e-07
8
Step 26000
1 1 2.48699728460364562e-06 1.91543708884790431e-06 -1.89771894213197192e-06
2 1 1.96826371136913276e-06 2.35606460565732596e-06 -1.50904419556449901e-07
3 1 -1.57275025362415175e-06 -6.94826205475920688e-08 -1.17548484995870302e-06
4 1 -3.27687623122646094e-08 -1.10294963503972099e-06 2.70054116998836248e-06
5 1 1.27863863191870557e-07 2.37088182253825953e-08 -1.18017414316703326e-06
6 1 6.26094688858599528e-07 -9.81228897901121005e-08 -3.66907688579433877e-07
7 1 -2.02035853358240333e-06 2.18097277424930830e-07 2.83543680549552771e-07
8 1 3.68786579618665970e-07 2.77909418961393603e-07 7.48589025935762102e-07
8
Step 27000
1 1 -1.84616009344291562e-06 -2.50191173491481944e-06 1.09646493539833669e-06
2 1 -1.92500871565109702e-06 -1.93720926717698977e-06 2.43359383134455908e-07
3 1 2.86417453623107863e-06 5.80957953572847715e-07 1.39426167039552586e-06
4 1 2.23422832002339030e-07 1.46683843819963420e-06 -2.98227256320776227e-06
5 1 -4.94741187703620330e-07 1.54772644409442662e-07 6.74679090737357677e-07
6 1 -2.99309594630763368e-07 3.47775063873401075e-07 1.87329408986071758e-08
7 1 1.43234005894323267e-06 -7.56943736729206800e-07 -4.71275374869272085e-07
8 1 1.61966411259423948e-07 -6.70841433852425848e-07 -6.18815472934614372e-07
8
Step 28000
1 1 8.69991782625025164e-07 1.75848295113069260e-06 -1.13514034427001469e-07
2 1 1.70526805658829568e-06 1.42841849560134407e-06 9.08572366307657291e-08
3 1 -3.45538053011344681e-06 -8.56036901172211290e-07 -1.10405495872111158e-06
4 1 -2.00268085906779231e-07 -1.17439936641864620e-06 2.76691008610499067e-06
5 1 8.04324595958160743e-07 -6.42892233956451296e-07 1.50625024430639142e-07
6 1 -2.56689159711782668e-07 -1.22875530150798678e-06 8.23787383844862031e-07
7 1 -8.23949473594435398e-07 8.09659284794419451e-07 4.95957375000681182e-07
8 1 -5.31129999587566389e-07 1.04226455104384540e-06 8.38513846526222220e-07
8
Step 29000
1 1 -6.13582556959485862e-07 -1.43522444462913434e-06 -2.74251277238627588e-07
2 1 -1.57862871093336400e-06 -9.61083766976990648e-07 -4.94773971745044921e-07
3 1 3.11267057737429387e-06 6.59252493102212969e-07 2.64082862158314454e-07
4 1 -1.27304645038487321e-08 6.40300104558148750e-07 -2.64181930898698651e-06
5 1 -1.08326253641937609e-06 1.13169640436912339e-06 -1.08007886306860556e-06
6 1 7.24986728001869479e-07 1.92324066599987336e-06 -1.24870226386889789e-06
7 1 1.05045244301958812e-07 -4.22869997347456531e-07 -5.85403661783878098e-08
8 1 7.38444457471933309e-07 -1.52901853076436103e-06 -1.07956738662816627e-06
8
Step 30000
1 1 7.25643463618456971e-07 1.38019580128326926e-06 3.59039656780830639e-07
2 1 1.75966973341999628e-06 5.50568396970100261e-07 8.64651962320870877e-07
3 1 -1.85832434182042145e-06 -2.86363893678431587e-07 6.44972145604680870e-07
4 1 2.65819004666545440e-07 5.58072117767782927e-07 2.05892476799946547e-06
5 1 1.46243147340910368e-06 -1.56915103671109940e-06 2.19129197816671472e-06
6 1 -7.05108183847668611e-07 -1.76946090421612111e-06 6.90374113669145121e-07
7 1 8.12957880699621561e-07 -2.67186630122037122e-07 -7.76130785296410754e-07
8 1 -9.34322726781377895e-07 1.96217281361862754e-06 1.26903624141229256e-06
8
Step 31000
1 1 -1.06670403960469749e-06 -1.57333106755148851e-06 -2.44527360292628428e-07
2 1 -2.39033609245555154e-06 -2.92349492108540924e-07 -1.08708133663323801e-06
3 1 3.19591295958172250e-07 -1.96235041447625546e-08 -1.26915692230258798e-06
4 1 -4.40272993218080771e-07 -1.87155439322676729e-06 -8.58920785034981673e-07
5 1 -1.76565576660611999e-06 1.77339985567779983e-06 -3.04312492976774541e-06
6 1 4.60636676716842170e-07 1.54271198621335927e-06 -6.91023622290044185e-08
7 1 -1.57665343023845579e-06 1.16481582979706730e-06 1.72200814331245710e-06
8 1 1.21257619311562717e-06 -2.22321167638419949e-06 -1.51527073776663572e-06
8
Step 32000
1 1 1.43681314812334642e-06 1.90752917133780393e-06 -3.00056456407769241e-08
2 1 3.49160741223291537e-06 1.06651922178106891e-07 8.91109794061861024e-07
3 1 9.90591684119161865e-07 2.11229600923651390e-07 1.61875701134404624e-06
4 1 3.78441201208371066e-07 2.50281907165024160e-06 -3.33673618696927054e-07
5 1 1.73673565694208676e-06 -9.68665104962266465e-07 2.51733219349752917e-06
6 1 -1.01990727466331189e-07 -1.16428068729713275e-06 -3.52199469074949098e-07
7 1 1.42467738963039848e-06 -1.52771250986294865e-06 -2.20304286570240109e-06
8 1 -1.32528083904756926e-06 2.05504391342482659e-06 1.57128345081287380e-06
8
Step 33000
1 1 -1.05283587507380867e-06 -2.05771408875035607e-06 3.36879788873218026e-07
2 1 -4.20430866569722004e-06 1.33037252785661615e-07 3.39555570017112026e-08
3 1 -1.95885004714338929e-06 -2.02017135532928211e-07 -1.80693586063161687e-06
4 1 -4.76938157227388502e-08 -2.51740396784132386e-06 9.83540089195669517e-07
5 1 -1.17263741932286895e-06 -1.25000237682220645e-07 -1.22677083869861450e-06
6 1 -4.74343992781309834e-07 6.81675521512051115e-07 6.18772780193039604e-07
7 1 -6.37178268526464920e-07 1.11416269739385439e-06 2.00373832820807967e-06
8 1 1.06914513858173302e-06 -1.28490959437030189e-06 -1.50217007064755441e-06
8
Step 34000
1 1 2.52251368970649397e-07 2.29144796082056159e-06 -2.84752559122003208e-07
2 1 2.81951721625386260e-06 -2.90849970675412674e-07 -9.34295665044082287e-07
3 1 2.31370685567967571e-06 1.85980729806682361e-07 1.33289677321856099e-06
4 1 -5.79325726460038040e-07 2.02104826383411618e-06 -1.11826777228650353e-06
5 1 3.05213651812682188e-07 5.72792123315128610e-07 2.96630861706830654e-07
6 1 1.15724159243286624e-06 -4.98938440787044696e-07 -4.70013746909814971e-07
7 1 -9.33028663971285803e-08 -7.66454172940313487e-07 -1.70761733172198150e-06
8 1 -4.77752698465746194e-07 1.85939603113893187e-07 1.21647702767977709e-06
8
Step 35000
1 1 2.08280388493204509e-07 -2.39083741513250299e-06 9.77938947457379924e-09
2 1 -1.52524826311411363e-06 1.52374798997741570e-07 1.13706785362333181e-06
3 1 -1.97836049385942433e-06 -2.89568380089657079e-07 -9.61675164890365617e-07
4 1 1.33906347458961400e-06 -9.36091109929671876e-07 8.48379618699008508e-07
5 1 3.84668579113872406e-07 -5.91263991193314293e-07 7.95698999737056340e-08
6 1 -2.27640325392163174e-06 5.60216440742238851e-07 -2.70145756396860271e-07
7 1 8.03983740653735520e-07 1.19701371968395352e-06 2.43623707401435433e-06
8 1 -5.66630405516913872e-08 8.90309656967151913e-07 -8.07349425581835844e-07
8
Step 36000
1 1 -1.12921792163780514e-07 2.47511955009644339e-06 2.53637202850017099e-07
2 1 1.23864933695328891e-06 7.03298619253976236e-08 -1.20089407994843087e-06
3 1 1.47813874948176517e-06 5.45029601446883981e-07 9.91848511450612928e-07
4 1 -2.05180553446757187e-06 -5.96751086421331938e-07 -1.58748840245023751e-07
5 1 -9.16403396658045137e-07 4.19189441669040164e-07 -1.54391324813776349e-07
6 1 3.30998597839555489e-06 -8.47126796896602917e-07 1.69029512667248809e-06
7 1 -4.53958052428016863e-07 -1.08262873831664493e-06 -1.33501587808165983e-06
8 1 4.76065297009706085e-07 -1.94401960001632348e-06 3.26377597148064860e-07
8
Step 37000
1 1 -3.53091629016178409e-07 -2.56496118553417045e-06 -5.29163430500474138e-07
2 1 -1.33682753902996094e-06 -3.22019131623006171e-07 1.21702388583236560e-06
3 1 -6.39890919638162874e-07 -1.13128878230761890e-06 -1.11633189770821419e-06
4 1 2.18948416904971789e-06 1.78227450919678400e-06 -6.40695651174253060e-07
5 1 1.25699718359156129e-06 -1.54228788377159654e-07 1.00577950018003308e-07
6 1 -2.62288520327494660e-06 1.15953515031841567e-06 -2.02455540469889120e-06
7 1 6.04084066269373497e-08 6.61612580281025675e-07 -1.81638423153829310e-07
8 1 -8.47568806785017081e-07 2.87198305897209053e-06 2.84925335095962708e-07
8
Step 38000
1 1 9.49475881620583390e-07 2.38901266020636527e-06 8.42699113340439119e-07
2 1 1.73936937633126919e-06 7.69609311939941883e-07 -1.06554140788618574e-06
3 1 5.65532575251766759e-08 1.76928347908271959e-06 1.10263567201774942e-06
4 1 -1.72834872384636238e-06 -1.94436704161782514e-06 1.02047826971363591e-06
5 1 -1.24401282752531365e-06 -1.34142581466359083e-08 -5.24749819461793008e-08
6 1 1.13531977309263576e-06 -9.19803401425904491e-07 1.18570436144580273e-06
7 1 1.00060367426031121e-07 -4.37072851148955192e-07 9.71429535986061777e-07
8 1 9.69856681039949364e-07 -3.11136876787206306e-06 -1.12168050222559620e-06
8
Step 39000
1 1 -1.16343961699478543e-06 -1.53072042557256536e-06 -1.10377100231665053e-06
2 1 -2.11195916832855007e-06 -1.45482299716732746e-06 3.25944774166116421e-07
3 1 -7.02637525390002708e-08 -2.05255403162805402e-06 -9.12310851729621910e-07
4 1 8.70142669648590415e-07 1.32089027598855109e-06 -1.21209365710329988e-06
5 1 6.26170291220540749e-07 2.70819976288765342e-08 3.41741141503091617e-08
6 1 -1.53387526561173249e-07 5.18113109495474332e-07 -4.54927115892155373e-07
7 1 -2.24362747223649194e-07 4.04512546995064645e-07 -1.30291893675630548e-06
8 1 -7.06758274374797464e-07 2.38193026368085842e-06 1.64840551787772113e-06
8
Step 40000
1 1 8.79969252240721361e-07 7.86966214695556658e-07 1.40187738676529299e-06
2 1 1.81514309831372941e-06 1.70924620165530648e-06 2.58460042391900750e-07
3 1 4.64932600607345417e-07 2.01064118002546028e-06 5.28685266320868506e-07
4 1 -9.20114810941936110e-08 -7.13044461194584346e-07 1.45422325967334310e-06
5 1 1.06770264879673998e-06 2.24436415373792181e-07 -3.88383480581621644e-08
6 1 -4.65593024418446598e-07 -3.09201304677704346e-08 -1.93579098558057044e-07
7 1 2.89363127838471621e-07 -5.60009090279846852e-07 1.48858664964298142e-06
8 1 3.22064244169447726e-07 -1.28218647241057787e-06 -1.43329821481225672e-06
8
Step 41000
1 1 -4.10183668527420208e-07 -3.96565250318197441e-07 -1.88767480635751104e-06
2 1 -1.16051932364884995e-06 -1.49060990956146025e-06 -5.79141041990352617e-07
3 1 -1.09754609885774369e-06 -1.53940376574424934e-06 6.42372347685858874e-08
4 1 -4.87891003052676763e-07 3.34320989540442734e-07 -1.62264437172325883e-06
5 1 -2.93587032103884106e-06 -3.21807288866765324e-07 -5.15180537156187688e-08
6 1 8.73238926360431072e-07 -6.68332811262680517e-07 7.31494176864046929e-07
7 1 -4.85022222222358694e-07 1.05393120308761199e-06 -1.94257450524264444e-06
8 1 -1.31188853735785778e-07 4.35443671563851214e-07 5.66199009163423869e-07
8
Step 42000
1 1 -1.80046727928374355e-07 2.03270045692201992e-07 2.68172894940623358e-06
2 1 7.28023136481830587e-07 1.09296706612939754e-06 2.25021957005036290e-07
3 1 1.75347772672575108e-06 1.00385758565189606e-06 -8.26808734849284986e-07
4 1 7.51639812813483063e-07 -6.07807462737685645e-07 2.27190965213442336e-06
5 1 3.69064816456071261e-06 8.43615417838869857e-09 2.36725030022189855e-07
6 1 -1.04801929459542548e-06 1.48560273741366409e-06 -9.23582144559815044e-07
7 1 4.16101467546390992e-07 -1.55377233043037496e-06 2.21676654022956908e-06
8 1 2.74062218869837462e-07 -1.36597380005227243e-07 3.00558655593188691e-07
8
Step 43000
1 1 6.87140514353104698e-07 -1.32824511164785733e-07 -2.94594656019975785e-06
2 1 -3.60081465924323697e-07 -7.21596122734961400e-07 4.47905888052952005e-07
3 1 -2.52759460636597866e-06 -3.03183757768333967e-07 1.86791042144689368e-06
4 1 -9.22168529331579639e-07 7.95379600923152672e-07 -1.90750343448184773e-06
5 1 -2.63993935343029850e-06 5.85007309029295959e-07 -4.81340519346851175e-07
6 1 9.01975889322699539e-07 -1.93742457525634411e-06 4.20811891997596440e-07
7 1 -7.87623980867903991e-07 1.77735139758866535e-06 -1.52770841901015629e-06
8 1 -5.96566899080686799e-07 1.92837908639947109e-07 -8.32655248452138948e-07
8
Step 44000
1 1 -6.03348000324825023e-07 3.45211922936400154e-07 2.43631835854868991e-06
2 1 1.72612639753297845e-07 5.59409087528978456e-07 -1.00591511881091543e-06
3 1 2.59690068228333359e-06 -5.61032311159385350e-07 -2.42363629562985033e-06
4 1 1.23034454868954721e-06 -8.64366123389367674e-07 1.46192571580274110e-06
5 1 3.87955073023268851e-07 -1.00122240183643094e-06 6.92955305511481422e-07
6 1 -5.88948190945356626e-07 1.82481647848426561e-06 6.29879838319117354e-07
7 1 1.21079878004661830e-06 -1.82837194791570501e-06 1.02681503096311982e-06
8 1 1.14685767389789565e-06 -3.41929526141758554e-07 1.33456213392432265e-06
8
Step 45000
1 1 -2.20630969601397792e-07 -9.93396589632995242e-07 -1.72051019055656290e-06
2 1 6.09486576741610916e-08 -7.21320196506925263e-07 1.50824167004550810e-06
3 1 -2.02352478941839384e-06 8.03730445842527510e-07 1.94992202746863975e-06
4 1 -1.61816904409919980e-06 8.46798658491806058e-07 -1.25029791378734896e-06
5 1 1.69842894116937479e-06 1.17302318402915494e-06 -9.20387667049014361e-07
6 1 5.79912212729311448e-07 -1.35055769783925676e-06 -1.55907230527386105e-06
7 1 -1.34240464226365061e-06 1.87052603966847696e-06 -7.56612563453225337e-07
8 1 -1.93332243246560494e-06 4.21609303304526755e-07 -1.84025226362915525e-06
8
Step 46000
1 1 1.32865777790628557e-06 2.13053736945323643e-06 1.90257467375339042e-06
2 1 -4.95664854680432748e-07 1.23337439221104142e-06 -2.26938553886442347e-06
3 1 1.82238979029929711e-06 -1.91017647358999443e-07 -9.88315474755177245e-07
4 1 2.18311996252840170e-06 -5.89832886783915673e-07 1.01617375666533548e-06
5 1 -2.79361835168909899e-06 -1.04616178342061094e-06 9.31247063959939704e-07
6 1 -1.06285545346408649e-06 7.74143802201328823e-07 1.90711603445715496e-06
7 1 1.48710249217554531e-06 -1.78017849691239874e-06 6.66201556251650739e-07
8 1 2.11137661584773366e-06 7.64308562298754626e-08 1.77212608403568519e-06
8
Step 47000
1 1 -1.95421317921246500e-06 -3.10940806659221290e-06 -1.43130497247207369e-06
2 1 8.22752932957313911e-07 -9.36339341528743824e-07 2.21865525518858218e-06
3 1 -2.13364297239180083e-06 -1.29459553271423571e-06 -3.74351007026261953e-07