8
Step 0
1 1 0.00000000000000000e+00 0.00000000000000000e+00 0.00000000000000000e+00
2 1 0.00000000000000000e+00 0.00000000000000000e+00 0.00000000000000000e+00
3 1 0.00000000000000000e+00 0.00000000000000000e+00 0.00000000000000000e+00
4 1 0.00000000000000000e+00 0.00000000000000000e+00 0.00000000000000000e+00
5 1 0.00000000000000000e+00 0.00000000000000000e+00 0.00000000000000000e+00
6 1 0.00000000000000000e+00 0.00000000000000000e+00 0.00000000000000000e+00
7 1 0.00000000000000000e+00 0.00000000000000000e+00 0.00000000000000000e+00
8 1 0.00000000000000000e+00 0.00000000000000000e+00 0.00000000000000000e+00
8
Step 1000
1 1 -2.08493346674407715e-06 -3.38110697930241482e-07 2.23760751347446001e-06
2 1 -2.19973636732486528e-06 2.90029604518980224e-06 1.55960420845297573e-06
3 1 2.70354868453916530e-06 1.88034972024492166e-06 1.04554247720846880e-06
4 1 -3.04350571227804421e-06 1.22272262434715441e-06 -1.40454410850167472e-06
5 1 -2.50850691600345663e-06 1.34682003512967853e-06 2.26296590877964870e-06
6 1 -1.07730471246683796e-06 -3.64664857128455909e-06 -1.85835084763784923e-06
7 1 9.27787697509442654e-07 -7.11314821406721980e-07 2.70005542276765925e-06
8 1 1.38652033310810739e-06 -8.73079845132953256e-07 1.19936036522361692e-07
8
Step 2000
1 1 1.33232615568476922e-06 1.62041483240682378e-06 -1.24998147641960173e-06
2 1 1.09562558352731559e-06 -1.48183414628041865e-06 -6.93485567600013852e-07
3 1 -1.84865438460549017e-06 -1.21794191728287060e-06 -8.48774018314406467e-07
4 1 2.13290952151064616e-06 -1.33173760648838536e-06 1.39949976395930610e-06
5 1 1.18082875596320055e-06 -9.79928197350615986e-07 -1.30370647157193250e-06
6 1 9.28775688915034457e-07 2.51897209222829817e-06 2.94989660688653675e-07
7 1 2.94503990280049545e-08 5.46945531778744409e-07 -2.49090889598976385e-06
8 1 -9.44931077982462313e-07 1.55676604026267393e-06 -5.40983970733484864e-07
8
Step 3000
1 1 -4.34437692597761484e-08 -2.04409138571792652e-06 2.33598356584468688e-07
2 1 1.07639963692294561e-07 2.32324105168399222e-07 -3.70406519766596758e-07
3 1 4.53990663834099046e-07 3.69159257338655640e-07 4.75686443414290387e-07
4 1 -1.73975187200413030e-06 1.35464790147347822e-06 -1.35416380126013268e-06
5 1 -4.33541071953754675e-07 9.09973168815900085e-07 7.12958841589503569e-07
6 1 -6.94911935159415516e-07 -1.66160050038223083e-06 1.00812290715197879e-06
7 1 -3.49720235619254343e-07 -3.31954966508325931e-07 1.44039082783107620e-06
8 1 3.34691428129283360e-07 -1.74432500972264442e-06 5.21657472761259759e-07
8
Step 4000
1 1 -1.09021650093400617e-06 2.41126043227097191e-06 4.18911538036199863e-07
2 1 -1.01865534970496372e-06 6.09176918203451328e-07 1.07888178322734369e-06
3 1 7.37973537019921582e-07 -4.33137316100769264e-08 -3.19606914663748269e-07
4 1 1.35662974584128633e-06 -1.10094292138478829e-06 8.56328601867670746e-07
5 1 1.24826980515992874e-07 -8.95062064541751942e-07 -1.17461468263676167e-07
6 1 6.13229277564289820e-08 6.44424721326611585e-07 -2.05084932204064181e-06
7 1 2.05497813057409340e-07 6.16317950542616219e-07 -8.33854159956483704e-07
8 1 -7.32953323484664780e-08 1.98856727295654772e-06 -3.53368266176460525e-07
8
Step 5000
1 1 1.79677497477777271e-06 -2.09413550914445887e-06 -6.74093253264500243e-07
2 1 1.71464851593601289e-06 -1.04168022155314391e-06 -1.38964634106484553e-06
3 1 -1.88023754061654176e-06 -1.14212973599841151e-07 5.34368101196934876e-08
4 1 -1.01467420933170841e-06 7.26717719574713518e-07 -3.32383310642145953e-07
5 1 -3.87999435846833308e-07 9.02545428870941700e-07 -5.22144576908037284e-07
6 1 6.61904756691484093e-07 3.45354546174336406e-07 2.20352265712471849e-06
7 1 3.33627975742631124e-07 -1.21065008534328636e-06 2.54390401418344030e-07
8 1 4.40186324237521941e-08 -2.24497333001307493e-06 2.56682124402105302e-07
8
Step 6000
1 1 -1.77460586195204714e-06 7.15167948419188174e-07 6.24582272570704841e-07
2 1 -2.14484192911723290e-06 1.01198930597845357e-06 1.20940216885211688e-06
3 1 2.36119223221843554e-06 3.04297324897332860e-07 4.32728750283764405e-07
4 1 8.16970232519013811e-07 -3.87298953202812399e-07 -6.02956476148213159e-08
5 1 8.93586589396104857e-07 -7.78446902245875054e-07 1.04562712447095087e-06
6 1 -9.35339583642422483e-07 -9.05147746437508404e-07 -1.93361058263133014e-06
7 1 -1.28527408478525101e-06 2.16684846074497668e-06 4.95086050565600043e-07
8 1 -1.58387066872566254e-07 2.14313150141891972e-06 -2.10217257727278623e-07
8
Step 7000
1 1 1.25080381276942717e-06 1.22876594131794504e-06 -2.21430026325626815e-07
2 1 2.00431880820060245e-06 -5.34480509417143979e-07 -4.10909754554425177e-07
3 1 -2.15198865647248285e-06 -2.65231906203934966e-07 -1.06863046186661559e-06
4 1 -8.66223735801170752e-07 7.59447726754175767e-08 5.19207011017475307e-07
5 1 -1.30016439452796206e-06 2.75624336023059713e-07 -1.31097705036368058e-06
6 1 8.09396681051829482e-07 1.14016267214283074e-06 1.65514673318594496e-06
7 1 2.17462893654538232e-06 -2.91755216004346118e-06 -1.11425522834328517e-06
8 1 2.79389435874170696e-07 -1.52214601625985092e-06 2.17351675657046540e-07
8
Step 8000
1 1 -5.39956880810684524e-07 -2.98701265519468397e-06 -7.41942798914741979e-07
2 1 -1.11388954610660230e-06 -2.18463103511387611e-07 -7.04992987672241767e-07
3 1 1.66582942864217869e-06 -1.07343317698981616e-07 1.89987774444486759e-06
4 1 9.08842904707568102e-07 4.03159948215708257e-07 -7.12955384604006844e-07
5 1 1.46633841209117997e-06 2.69336988473649000e-07 1.15208555941284298e-06
6 1 -3.15717274760653886e-07 -9.40009546639520892e-07 -1.28001972837726320e-06
7 1 -2.00613122424801752e-06 2.59553477999242067e-06 8.92128085867518886e-07
8 1 -3.19764839137628378e-07 6.27172678097311271e-07 -3.34336425726817283e-07
8
Step 9000
1 1 -2.18159033838720353e-07 2.80500655442061040e-06 1.51590967183782718e-06
2 1 -2.72341221703756210e-07 9.54124143410172863e-07 1.46490153327849289e-06
3 1 -1.17953384311672426e-06 6.92588608034506974e-07 -4.03339704278452813e-06
4 1 -1.32836456984037058e-06 -2.53149300165352864e-07 1.05281105353184931e-06
5 1 -1.35685473767783272e-06 -4.31302236977776945e-07 -8.22368197469465677e-07
6 1 -4.93195312652282745e-07 1.98727254619178806e-07 8.51222900980207762e-07
7 1 1.12626863945489182e-06 -1.65221623322838629e-06 -9.79072546444468591e-08
8 1 3.68359984296028955e-07 3.35089415405077903e-07 6.93027288386328619e-07
8
Step 10000
1 1 7.49557820584632599e-07 -1.20352176820071989e-06 -1.58692041218682956e-06
2 1 1.16503491480574230e-06 -1.26652200549028888e-06 -1.31611200964570489e-06
3 1 8.31317140730985738e-07 -1.19606210740876343e-06 3.83362254993201277e-06
4 1 2.15688113057659947e-06 -3.05550372572227301e-07 -1.59834182198539895e-06
5 1 1.28345369204126471e-06 5.26874453693528514e-07 4.08329758789597046e-07
6 1 1.18562578832698064e-06 6.37762551478829370e-07 -3.60213177480159159e-07
7 1 -1.99005757291141550e-07 6.90690261423483697e-07 -7.06442296482090531e-07
8 1 -4.59902008038376324e-07 -7.51566294503384960e-07 -1.15746770301732646e-06
8
Step 11000
1 1 -8.73351267990436167e-07 -5.45359092441127502e-07 1.07853398945740444e-06
2 1 -1.20950651110977127e-06 1.38155787848379041e-06 7.39275136297784462e-07
3 1 -2.38477937308475777e-07 5.17322921137218845e-07 -1.89775611215760858e-06
4 1 -2.56847804898883224e-06 5.47838666623429635e-07 1.76386672475384255e-06
5 1 -1.39018382162783047e-06 -6.01215982894517418e-07 -3.77583656160514223e-07
6 1 -1.46958059723053071e-06 -1.15599805629636663e-06 -1.63083169651388781e-07
7 1 -5.19078050682037527e-07 1.71821731943827312e-07 1.31106326382741108e-06
8 1 6.31705684440710710e-07 2.05128601172938550e-07 1.51310745474549964e-06
8
Step 12000
1 1 6.19256233490574584e-07 1.67141029311654555e-06 -4.08805048762340666e-07
2 1 5.13301100668550284e-07 -1.47832461674690797e-06 1.47444902289963409e-07
3 1 -1.54842157938779763e-07 6.43642700000460110e-08 7.30290371079857875e-07
4 1 1.72502837594709307e-06 -3.23906956273975522e-07 -1.26702950758950158e-06
5 1 1.34159829887196427e-06 6.56858895244462902e-07 4.87032598182126207e-07
6 1 1.46522052261555565e-06 1.38173711062844380e-06 6.49010767809697153e-07
7 1 9.86794582484218093e-07 -1.02476069265996259e-06 -1.79891760114408247e-06
8 1 -8.97411626982341387e-07 1.28255932966435586e-06 -1.57484731546201470e-06
8
Step 13000
1 1 -1.38522026036847485e-07 -1.68240649264638526e-06 -1.36837275921794207e-07
2 1 3.04888904022229288e-07 1.53836268978536199e-06 -1.21593839371278195e-06
3 1 2.95674023147983520e-07 -5.30613410841941214e-07 2.97994736279417969e-08
4 1 -3.43595747299266068e-07 9.56937414030983705e-08 3.42672730886066436e-07
5 1 -9.32920194463167337e-07 -7.63463298672879196e-07 -5.81835277296707324e-07
6 1 -1.57283306560890613e-06 -1.52291978004541222e-06 -1.07030441511669125e-06
7 1 -7.62925036497997890e-07 1.71796063065599443e-06 1.74387389824038574e-06
8 1 1.47143723745372282e-06 -3.21264031601517680e-06 1.60793473679788481e-06
8
Step 14000
1 1 -3.67940962277709857e-07 9.91957235126802922e-07 5.79720458302775447e-07
2 1 -5.54553082344404664e-07 -1.44060725865030625e-06 2.02558756552605598e-06
3 1 -1.77597569305410962e-07 9.32499111650606030e-07 -6.44038352708975781e-07
4 1 -5.86377422537549190e-07 -1.57450922831164374e-07 4.05273026291677113e-07
5 1 5.53455540174997591e-07 1.14376445688426448e-06 8.26392797401728945e-07
6 1 1.39559862444179895e-06 1.22815651931680883e-06 1.52614654215076969e-06
7 1 -8.30234243464134909e-08 -1.62309400919271391e-06 -8.78869838065944297e-07
8 1 -1.84067161995572620e-06 5.06762937406386673e-06 -1.23016082516837234e-06
8
Step 15000
1 1 8.29537634357983436e-07 -4.48523011225910423e-08 -8.65426607669251493e-07
2 1 1.77095808867232226e-07 1.11316986822064462e-06 -2.38956979770935323e-06
3 1 -3.68231314872062253e-07 -7.93031776707570175e-07 1.01681481809008737e-06
4 1 6.89093643662100474e-07 4.06598267797329651e-07 -9.72851532225812821e-07
5 1 -9.19314897915241725e-07 -1.97730417315932171e-06 -9.94478659247885411e-07
6 1 -1.15271321726830422e-06 -6.57959553447525427e-07 -9.46082418116785616e-07
7 1 5.33077482715725242e-07 1.55303976665365304e-06 1.73774258890923932e-07
8 1 9.02617220097838915e-07 -2.79951218434043883e-06 3.24298261360227393e-07
8
Step 16000
1 1 -1.06207917305764198e-06 -8.88296803580436292e-07 1.02922770013384596e-06
2 1 6.49266614078594059e-07 -5.33391555958556815e-07 2.25482338017193763e-06
3 1 1.17715215296589539e-06 -2.98077923261393113e-07 -9.36453274964483769e-07
4 1 -1.44461070960517232e-07 -2.60191224104509144e-07 1.24031373094739476e-06
5 1 6.55595881401323477e-07 2.23179749004973562e-06 2.99274559776259347e-07
6 1 1.03970740413448717e-06 2.90360382173976620e-07 1.43187945255055872e-07
7 1 -1.02268132172700867e-06 -1.46466802275335573e-06 2.76594754391102803e-07
8 1 -3.73657464445062223e-07 8.21039755334770459e-07 -1.62643341502393640e-07
8
Step 17000
1 1 7.65926663957328067e-07 1.17408973196467124e-06 -1.03853093445012291e-06
2 1 -1.47454785383804241e-06 -1.76450212252161361e-07 -1.29667377838048759e-06
3 1 -1.46689889474019954e-06 1.46262736403787691e-06 4.18094069514125226e-07
4 1 -6.01589589674989247e-07 3.37606672164968469e-08 -1.57848030293820029e-06
5 1 -3.21822621627141537e-07 -2.30250742630024906e-06 4.17405515614317964e-07
6 1 -8.92155376502966918e-07 -1.70801347441444333e-07 4.71558084339293189e-07
7 1 1.28207880778634416e-06 9.38884513764275777e-07 -3.91929133499256804e-07
8 1 2.21753954111596148e-08 5.14993186373674723e-07 3.74621361255670082e-07
8
Step 18000
1 1 -1.45678887091044558e-07 -7.27954201720397018e-07 5.83757166961768295e-07
2 1 1.76006690511421583e-06 6.84687073988497609e-07 1.60875938929334881e-08
3 1 1.27425564383854245e-06 -1.97194701357204020e-06 2.91424946542986441e-07
4 1 1.68009508909017692e-06 5.24281427444215598e-07 1.87731588886418689e-06
5 1 8.78195428652750801e-08 2.31998004513619798e-06 -8.76730909601893359e-07
6 1 8.17431709269584051e-07 1.40833405656340381e-07 -5.65352577799039790e-07
7 1 -1.03605736044425590e-06 -2.16372362523469633e-08 1.91540859084766212e-07
8 1 1.73778123456434125e-08 -1.18594891758330399e-06 -7.89264748118546846e-07
8
Step 19000
1 1 -3.58040744056445529e-07 1.05439024953071020e-07 1.12943192921297291e-07
2 1 -1.49609870454850711e-06 -8.62793330759079767e-07 7.87476528455807976e-07
3 1 -8.72674063229745577e-07 1.99290165018167233e-06 -9.62435016578315193e-07
4 1 -2.65167973662159654e-06 -1.43802360300264677e-06 -1.68285060914005086e-06
5 1 8.62521063205006949e-08 -2.09820522292746441e-06 9.69679036516431100e-07
6 1 -7.94703401326032555e-07 -8.99434507530044994e-09 1.41056691382946224e-07
7 1 3.25010409126785398e-07 -9.05559496978287573e-07 6.97052859261021520e-08
8 1 2.24854501355497743e-07 8.98218797948568516e-07 1.16428938239384220e-06
8
Step 20000
1 1 4.93966843341792993e-07 2.58750873348361730e-07 -5.88307496043379126e-07
2 1 1.14752265359504481e-06 9.10632263536306374e-07 -1.11021691887857321e-06
3 1 2.09411375926738303e-07 -1.37769213759716344e-06 1.38926753182518145e-06
4 1 1.75890970724503939e-06 1.74427856911809910e-06 6.82562413128369812e-07
5 1 -1.45488376740270082e-07 1.27380400040922119e-06 -5.99319494673618635e-07
6 1 7.81644840155720321e-07 -3.50127921522276070e-07 9.09312504672737666e-07
7 1 5.93211013788885748e-07 1.62986533496827649e-06 -2.26210096782572035e-07
8 1 -3.77576982217209087e-07 1.08380421264041730e-07 -1.25570960121153705e-06
8
Step 21000
1 1 -4.86259017192499668e-07 -2.61633423279394159e-07 3.83359078310477601e-07
2 1 -8.15227744687110053e-07 -9.44030643417503248e-07 1.26801769411005202e-06
3 1 5.65032062761576574e-07 3.29051372522979634e-07 -1.39131256385109454e-06
4 1 -1.37855689492357671e-06 -1.74902210985153572e-06 -2.67343859563909994e-07
5 1 1.42718190145224483e-08 1.80746110179772947e-07 -1.48587943573109412e-07
6 1 -7.31804511950426957e-07 6.42525158359945680e-07 -2.37388914401913559e-06
7 1 -1.42594415667613713e-06 -2.07715637037065750e-06 3.88106973493277767e-07
8 1 3.68296004119930223e-07 -1.18749552928345645e-06 1.37764386435245235e-06
8
Step 22000
1 1 5.72005674881745021e-07 2.04669205877132627e-07 -1.41285601976393348e-09
2 1 4.61494147419536365e-07 8.63282059054823244e-07 -1.34392896887561312e-06
3 1 -1.11652039964218990e-06 4.63251875371685834e-07 1.07722631218974870e-06
4 1 8.44309925513162643e-07 1.64404704678338905e-06 1.06611989403377949e-07
5 1 2.13577287098211025e-07 -1.79075443138289177e-06 9.33409231442922271e-07
6 1 2.55533059660734289e-07 -4.37632679994373017e-07 3.45591772279734593e-06
7 1 1.96452221847297421e-06 2.17721157677282412e-06 -8.10080847809277473e-07
8 1 -7.27217578531982244e-07 2.18742792936960664e-06 -1.69038337009603318e-06
8
Step 23000
1 1 -7.08572004749897182e-07 -4.19749484310338384e-08 -5.09386301076172627e-07
2 1 1.13389130347468842e-07 -4.95752496713499610e-07 1.47661466329392076e-06
3 1 1.27346550669065646e-06 -9.71481169137861514e-07 -7.06691110062319907e-07
4 1 -3.56375131386972811e-07 -1.38346191320329149e-06 -7.49825846764716966e-08
5 1 -6.03217512717828658e-07 3.21365311956104383e-06 -1.65140696841903107e-06
6 1 5.28127170043946567e-07 -2.58249326966096521e-07 -3.11722510336398540e-06
7 1 -1.94901907808440499e-06 -1.74595393477729108e-06 1.53048167432839490e-06
8 1 9.50928121927852721e-07 -2.45378202885493041e-06 1.64770630465751432e-06
8
Step 24000
1 1 8.39571580858114369e-07 -1.07075670203275089e-07 1.12441523977849241e-06
2 1 -7.39960528614526294e-07 -2.07603564527147081e-08 -1.84596541831451298e-06
3 1 -1.22871567275995106e-06 1.45150228999477660e-06 5.07652683338966824e-07
4 1 1.88195422716539469e-07 1.48965186532856206e-06 8.52669513798847471e-08
5 1 1.11834116267585370e-06 -3.01553322304241104e-06 1.36796111647682137e-06
6 1 -9.07214453603021590e-07 8.80863657568811733e-07 1.86221341425582861e-06
7 1 1.34377963257303893e-06 9.35904624669110766e-07 -1.96203260658459581e-06
8 1 -9.53029285310224498e-07 1.83307939971561514e-06 -9.01016622263995268e-07
8
Step 25000
1 1 -9.85674559697193751e-07 3.16887731886185512e-08 -1.64159318598182324e-06
2 1 8.80781699276740697e-07 9.21161639406827424e-07 1.87208683848665785e-06
3 1 6.21611376435076231e-07 -1.21285209055905204e-06 1.79009788961963630e-08
4 1 -1.09385285943652101e-07 -1.41249150995548200e-06 -3.06294716471207902e-07
5 1 -1.23629313555086799e-06 1.67214325948975652e-06 -7.08592247261814938e-07
6 1 8.73768192072948305e-07 -1.29827059430368225e-06 -5.32923481643832666e-07
7 1 -6.13969441843557752e-07 -4.30138803986131703e-07 2.42461458985190839e-06
8 1 7.76318033812225363e-07 -8.91840686073560442e-07 -3.46799536986681912e-07
8
Step 26000
1 1 1.19599318826592697e-06 3.52173578267921834e-07 1.57529245784349302e-06
2 1 -6.93643006330765262e-07 -1.44932933563340239e-06 -1.30182922957055124e-06
3 1 6.87174140888037774e-07 4.56131080350067913e-07 -5.16317551566356157e-07
4 1 2.28899148012133083e-07 4.63017560836951048e-07 5.08879082049746821e-07
5 1 1.13144039392007659e-06 -3.45742688093893901e-07 3.10309965766045225e-07
6 1 -6.92668800729487071e-07 1.85137644220044194e-06 -9.00939027911302456e-07
7 1 -3.65295536427973430e-07 3.48816625790718818e-07 -2.58280489834595478e-06
8 1 -4.39568637537667706e-07 1.74694613030252618e-07 1.26844819103604105e-06
8
Step 27000
1 1 -1.30082278871694602e-06 -8.52311681749620873e-07 -7.17380417823816528e-07
2 1 4.54300079425792193e-07 1.42890142780582520e-06 5.13637311670597439e-07
3 1 -2.10985618764486768e-06 1.38738312145860372e-07 8.35949492267215047e-07
4 1 -3.89812203365362810e-07 6.21508766828055632e-07 -5.89459313565439314e-07
5 1 -1.31172916907316725e-06 -1.15967221048705144e-06 -2.82101146022936428e-07
6 1 2.49176947036024207e-07 -2.17508071205747548e-06 2.20526200572682628e-06
7 1 4.98317631072803290e-07 -7.32506548306329900e-07 1.62620628092808903e-06
8 1 4.37431170280526833e-08 1.57409044852359412e-07 -1.35135816730160839e-06
8
Step 28000
1 1 1.29966770936827499e-06 1.06986747850317473e-06 -3.20037583060727941e-07
2 1 -2.37188938321989232e-07 -9.10115896512693732e-07 3.99148426905521345e-07
3 1 3.30411133219231573e-06 -3.23136644874758264e-07 -9.74759288552152918e-07
4 1 3.94558732225295107e-07 -1.38653897440658355e-06 5.67464233872022884e-07
5 1 7.21930177359793351e-07 1.99410699848672363e-06 8.24394488261430380e-07
6 1 7.20701184955412290e-07 1.10011038780145108e-06 -2.60837896371423122e-06
7 1 -3.53679625785770010e-07 1.42936771061069275e-06 -4.97238867242521776e-07
8 1 3.74183055549589384e-07 -2.79666150070620445e-07 7.59367498507374356e-07
8
Step 29000
1 1 -1.14564983722245577e-06 -8.16241553081463583e-07 8.85644210051588972e-07
2 1 -3.12620551573665653e-08 1.60460658802025878e-07 -1.07253503901392061e-06
3 1 -3.94297799763187800e-06 -3.61495944642557664e-08 7.54025793132708538e-07
4 1 -2.76281793155888502e-07 1.92708915903407942e-06 -5.05368798480063505e-07
5 1 2.83780228853971574e-07 -1.98210138693747806e-06 -1.54731700519306523e-06
6 1 -1.53079645480948723e-06 4.76140618365959836e-07 2.16133590954769202e-06
7 1 1.45324741790190816e-07 -2.25929927653656153e-06 -8.33759269521008819e-07
8 1 -8.21370190105464446e-07 3.70259524146819505e-07 4.00962185133083325e-07
8
Step 30000
1 1 1.02403642449925419e-06 4.76597016256177063e-07 -1.14851651467458135e-06
2 1 3.62392266819563158e-07 5.72754381076329898e-07 1.44302886391272139e-06
3 1 3.38654234733212636e-06 8.14202300416519509e-07 -1.98054964256678681e-08
4 1 1.49693036574302275e-07 -2.58701941088539069e-06 5.26493322180668400e-07
5 1 -1.33763882374033223e-06 1.56576090039830787e-06 1.85461097154182166e-06
6 1 1.48303686394741866e-06 -1.07250461912168944e-06 -1.38728512825713431e-06
7 1 -1.75498312230748154e-07 2.56822043807831588e-06 2.20028107239119526e-06
8 1 1.39836599547873352e-06 -5.58835024421813774e-07 -2.35132038525533002e-06
8
Step 31000
1 1 -9.15703186855160537e-07 -9.54987303488245528e-08 1.24996620646272554e-06
2 1 -7.61255591941417163e-07 -1.28055810052338707e-06 -1.47190125217697306e-06
3 1 -1.60854098140076182e-06 -1.18186004297463504e-06 -7.31474942388009546e-07
4 1 -1.00518214938562265e-07 2.24618431487206726e-06 -1.52191406135405026e-07
5 1 2.07331035792742686e-06 -1.20715526907561411e-06 -1.29002647148317547e-06
6 1 -6.93985018180234863e-07 2.65679378497077263e-07 7.29297676216042939e-07
7 1 8.69711790369376992e-07 -2.07040381817632620e-06 -3.03887508214920725e-06
8 1 -1.59757568953481191e-06 3.68664481478612442e-07 4.84842683887292863e-06
8
Step 32000
1 1 8.75865051246877084e-07 -4.42499782265633557e-07 -1.18047735336552804e-06
2 1 1.13316893672804386e-06 1.82246812673392029e-06 1.13438190175829945e-06
3 1 -3.60878824038957436e-07 5.80257666309482479e-07 8.95147564181076873e-07
4 1 2.56364370239183229e-07 -1.02238564501116756e-06 -2.73808271779376577e-07
5 1 -2.30976452735439315e-06 1.05079238850222540e-06 2.00431235847977133e-07
6 1 1.83070231194143024e-07 6.35671372876150897e-07 -4.73865226324340868e-07
7 1 -1.91990417089083230e-06 1.10544642986556836e-06 3.01088377663544016e-06
8 1 8.24306871138791357e-07 -1.82956903387237927e-07 -4.30016999526150240e-06
8
Step 33000
1 1 -7.11588060165762427e-07 1.34288791606657625e-06 9.00546889225167660e-07
2 1 -1.56433270734786304e-06 -1.94104918204063178e-06 -4.44912847331406600e-07
3 1 1.49393618047097801e-06 2.81377213234204607e-07 -8.17721134878836312e-07
4 1 -6.89183760834128151e-07 3.83028180009597649e-08 2.20671691103549112e-07
5 1 2.27618098901907463e-06 -1.26353081588922782e-06 1.48319225266612100e-06
6 1 4.32828892276037605e-07 -1.99769248943478595e-06 3.53676894495505205e-07
7 1 2.51169041740915449e-06 -2.49280203771675829e-07 -2.07025091145499923e-06
8 1 -2.28554127470557091e-07 5.50662241298183244e-08 2.35611947679782765e-06
8
Step 34000
1 1 3.65863948312037034e-07 -1.52310580334310621e-06 2.60407463183221269e-07
2 1 1.71879802559408169e-06 1.38727864951345802e-06 -3.41840314359968750e-07
3 1 -1.82855237924279511e-06 -1.21658068841959467e-06 7.42891107832997131e-07
4 1 1.34225969397711227e-06 4.71292694587364262e-07 1.82072024942137726e-07
5 1 -9.95522014736813695e-07 8.90346397023466871e-07 -2.14808024362802944e-06
6 1 -1.15355810154376424e-06 3.72256351087625953e-06 -2.05191776962729637e-07
7 1 -1.55520843641061198e-06 -4.67088772185357995e-08 5.39938951947514516e-07
8 1 3.17356072481486161e-08 3.22869761680319458e-07 -5.52742001017009498e-07
8
Step 35000
1 1 -2.91624777002489037e-07 1.11303063555410697e-06 -1.34570019356172054e-06
2 1 -1.15450010842787519e-06 -5.24360568038827369e-07 6.05524041479556206e-07
3 1 1.63340730538800168e-06 2.10375040249773218e-06 -6.95436240673402103e-07
4 1 -2.27899538025244703e-06 -8.47054679891376324e-07 -6.87517132926297738e-07
5 1 -2.11372511925749521e-08 -2.53094177809296369e-07 1.75810162961344967e-06
6 1 1.44463277608152480e-06 -4.17950958381226574e-06 -3.16471712515182635e-07
7 1 3.68060098591648874e-07 1.46721118404302364e-07 3.87263642328130682e-07
8 1 -1.73331378937813015e-07 -8.83072597484298476e-07 -8.79706627257042551e-07
8
Step 36000
1 1 4.80509614745824298e-07 -5.55131315614854838e-07 1.93735193714155096e-06
2 1 5.43488334490627949e-07 -8.46493128011916162e-08 -3.60227776799465188e-07
3 1 -1.10788716942623985e-06 -2.89434238457190350e-06 5.82379139887944484e-07
4 1 2.46635116878951402e-06 4.59067927824693715e-07 1.01392374362313926e-06
5 1 5.41405321054948241e-07 -3.41748325868691274e-07 -1.23263927084066009e-06
6 1 -1.09458395940329357e-06 2.45564180797311928e-06 8.18031627369751057e-07
7 1 1.11482400442456059e-06 7.56950040200820975e-09 -8.62686478737657581e-07
8 1 3.58682509416047577e-07 1.48556748067703894e-06 1.48360998762224839e-06
8
Step 37000
1 1 -9.98213310559616701e-07 9.23565545321407277e-08 -2.04735669129426454e-06
2 1 -1.35172348760653910e-07 5.02924797262768192e-07 -6.50227616811932591e-08
3 1 -3.08290167746798867e-07 1.99450446426614772e-06 -9.38949765100808986e-08
4 1 -1.58807787957553475e-06 -9.35877148717643494e-08 -5.00036467734805229e-07
5 1 -7.21712290157549310e-07 8.40980093568462628e-07 7.83528101653037596e-07
6 1 5.20372045771221222e-07 -9.99093126338340474e-07 -1.07259612101525582e-06
7 1 -2.06266428794425699e-06 -2.39422898382539283e-07 8.75930674430098283e-07
8 1 -1.85577260903115778e-07 -1.84188911196440428e-06 -9.54653068264697744e-07
8
Step 38000
1 1 1.77363096712730021e-06 2.95336042756733026e-08 1.48684896867580658e-06
2 1 -2.64311772747397452e-07 -9.42496038128419198e-07 7.84714796330101204e-07
3 1 1.93243134490976982e-06 -1.13980309912357374e-08 -4.08426738209679920e-07
4 1 5.92336666133729083e-07 1.17707481949374678e-07 -3.75285182517835829e-07
5 1 5.71991125728239839e-07 -1.08531529031686888e-06 -5.08119725656478097e-07
6 1 2.90426531445701170e-07 -3.30595645958495959e-07 9.99564176509438642e-07
7 1 1.91485997995183873e-06 4.05327508028089522e-07 -4.89307579495896694e-07
8 1 -2.26062328614579209e-07 1.86659484352738694e-06 1.81474352601482656e-07
8
Step 39000
1 1 -1.86595264123849912e-06 4.01762320963083149e-07 -4.42813905836793030e-08
2 1 8.11771806837354970e-07 1.60684278478027129e-06 -2.21953214788382375e-06
3 1 -2.46755865469408594e-06 -1.47368503027518923e-06 5.56045200138704833e-07
4 1 1.80924845456120261e-07 -4.06517065515069999e-07 1.24810646899125018e-06
5 1 -1.55667731753085180e-07 6.29132759359352430e-07 5.13137918505579692e-07
6 1 -9.66840923775836765e-07 1.41602727698570338e-06 -4.09066816142657541e-07
7 1 -8.79055553504214573e-07 -3.55977291561024817e-07 -6.74694173515291129e-08
8 1 4.54104616768144202e-07 -1.86109831626431800e-06 3.38688907054883265e-07
8
Step 40000
1 1 1.28849714541494275e-06 -8.76571091015654711e-07 -1.15755579653394532e-06
2 1 -1.18053933915619673e-06 -1.72561162488095394e-06 3.27367319920588446e-06
3 1 1.92307035566097072e-06 1.69970125492982079e-06 -4.15674955987624102e-07
4 1 -8.61468968903340216e-07 6.06055858076359780e-07 -1.95535851498058211e-06
5 1 -1.89749053721822493e-07 5.73323821021375503e-07 -9.30972703009734886e-07
6 1 1.33888409027908687e-06 -2.03463679630464730e-06 -6.71090968695290251e-07
7 1 2.77431694753111837e-07 5.22039272414708483e-07 6.71107512413689151e-07
8 1 -4.08271042485603787e-07 1.56201094923110791e-06 -6.27660746564233266e-07
8
Step 41000
1 1 -4.29779475666330938e-07 9.60726424951496779e-07 1.46771651779241630e-06
2 1 4.98489045289658311e-07 8.85251293432533293e-07 -2.03058379167714128e-06
3 1 -1.04568227441137645e-06 -1.06568638759023128e-06 8.28982651731623474e-08
4 1 1.50158586728759567e-06 -6.14794374976154067e-07 2.70273051376904495e-06
5 1 1.57986506509910901e-07 -1.63788477057096293e-06 1.46795664799602047e-06
6 1 -1.42632644620133085e-06 2.02990713051119589e-06 1.83751591510353179e-06
7 1 3.02887352712694274e-07 -1.05793016436068125e-06 -1.22120257432178366e-06
8 1 2.59413032841872775e-08 -7.52078651533895056e-07 7.63873446173772439e-07
8
Step 42000
1 1 -3.50097476665961332e-07 -7.51810669912758255e-07 -1.17548147563158550e-06
2 1 3.82888323552886953e-07 4.97450193015821658e-08 8.45153971594714405e-07
3 1 1.71818131773476642e-07 1.79115103286640981e-07 4.28133994561321950e-07
4 1 -2.03106522529281112e-06 2.13301164600551255e-07 -3.04682058856799904e-06
5 1 6.11987337485761687e-08 1.56006978859779498e-06 -1.59005013656473909e-06
6 1 1.38715727423746532e-06 -1.63892175991242637e-06 -2.48405386402669255e-06
7 1 -1.17466334215625424e-06 1.68409912928541052e-06 1.55982445427812312e-06
8 1 3.12308643416799472e-07 -1.48735570336290891e-07 -7.82282376422709599e-07
8
Step 43000
1 1 9.48246787254782192e-07 6.20785092980049810e-07 3.88272340806523319e-07
2 1 -1.08168720788123595e-06 -8.38477197384853308e-07 -1.03670838442464849e-07
3 1 8.05904647037767299e-07 8.85572105443024881e-07 -1.20236978054709835e-06
4 1 1.86394592511504221e-06 4.12594780337083212e-07 2.26173168704403740e-06
5 1 -2.08071003752333944e-07 -4.77571844097350158e-07 1.15821597110065483e-06
6 1 -1.24539501274349300e-06 1.20447552552563870e-06 2.13536985381973280e-06
7 1 1.62248721739005934e-06 -1.75608716915152270e-06 -1.37967160298623964e-06
8 1 -4.59614455138785063e-07 8.24673824220198219e-07 6.26695013610088803e-07
8
Step 44000
1 1 -1.73337429445613013e-06 -9.84427625535921341e-07 1.05799666011680291e-06
2 1 1.57993452427988529e-06 1.36625150135626046e-06 -3.07316948269040714e-07
3 1 -1.50244009616373695e-06 -1.55520601331324851e-06 1.87108272985235030e-06
4 1 -1.07726993693055446e-06 -6.23422437297146258e-07 -1.47112797637866336e-06
5 1 2.58459995917445507e-07 -7.56524000371935031e-07 -4.58371691916835067e-07
6 1 9.71861505896399273e-07 -9.74401193896128807e-07 -8.62868751487138672e-07
7 1 -1.10289397458128188e-06 1.03446220530012158e-06 6.70212191928224256e-07
8 1 6.65294178210853459e-07 -1.73213674676237454e-06 -2.28066223816404620e-07
8
Step 45000
1 1 1.80144309683787808e-06 1.43090062757719682e-06 -2.50808041486813599e-06
2 1 -1.76665020965620074e-06 -1.36242345111274720e-06 1.59520922640473849e-07
3 1 1.31583531294306737e-06 9.92225118443842363e-07 -1.93745581095576750e-06
4 1 -8.84562298022819384e-08 4.32804361780921974e-07 1.08783362780567179e-06
5 1 -6.33221488406907375e-07 1.47324464379497429e-06 1.35665489355153997e-07
6 1 -6.73086101657730022e-07 9.32057365461966866e-07 -3.03591385643414620e-07
7 1 3.96058087234826977e-07 -1.86178612812226866e-07 1.01073860641665300e-07
8 1 -4.41557245637367626e-07 1.99948260391762994e-06 -3.40080261315952083e-07
8
Step 46000
1 1 -1.25379041028446279e-06 -1.83517129278668827e-06 2.60146416508663021e-06
2 1 1.71385808687220127e-06 7.51579933098142934e-07 6.20201013146475902e-07
3 1 -2.64640355093975642e-07 3.68924418160192283e-07 1.16725489966673861e-06
4 1 1.36246505066040336e-06 1.82127085959704546e-07 -8.85343893894648374e-07
5 1 8.59713589964321556e-07 -1.89254345196312924e-06 -1.55661247948390633e-07
6 1 5.35498257343074100e-07 -8.88941249467593205e-07 6.52879184799043460e-07
7 1 -1.39899808895154471e-07 -3.25140097585847631e-07 -4.76889306917093585e-07
8 1 -3.16668345032729586e-07 -1.40639544320640402e-06 9.19565985287305332e-07
8
Step 47000
1 1 9.45209502260495373e-07 2.21213356083009032e-06 -1.57692822691184261e-06
2 1 -1.44428709817892500e-06 3.31531208950480597e-07 -1.74687957991493586e-06
3 1 -6.57551839784341771e-07 -1.50277530357126477e-06 -3.27995397886377949e-07