8
Step 0
1 1  0.000000000000e+00   0.000000000000e+00   0.000000000000e+00 
2 1  0.000000000000e+00   0.000000000000e+00   0.000000000000e+00 
3 1  0.000000000000e+00   0.000000000000e+00   0.000000000000e+00 
4 1  0.000000000000e+00   0.000000000000e+00   0.000000000000e+00 
5 1  0.000000000000e+00   0.000000000000e+00   0.000000000000e+00 
6 1  0.000000000000e+00   0.000000000000e+00   0.000000000000e+00 
7 1  0.000000000000e+00   0.000000000000e+00   0.000000000000e+00 
8 1  0.000000000000e+00   0.000000000000e+00   0.000000000000e+00 
8
Step 1000
1 1 -6.308269012635e-05  -3.943806787528e-05   4.871907931987e-05 
2 1 -5.586429056915e-05   1.223782893983e-04  -5.666276211888e-05 
3 1 -1.076011757987e-04   1.310390754618e-04  -1.117235118405e-04 
4 1 -1.341252372379e-04   1.046589056123e-04   4.971417100570e-05 
5 1 -7.652741553012e-05   1.061687896281e-04  -2.603108327406e-05 
6 1  3.840601758587e-05  -2.240591368989e-04  -3.122347473088e-05 
7 1 -4.538323942526e-05   1.220984014204e-04   1.217307629278e-04 
8 1  1.317169463696e-04  -3.425931121416e-05  -5.805167048841e-06 
8
Step 2000
1 1 -4.926118584263e-05  -3.805529414062e-05  -2.735019337306e-05 
2 1 -3.779381270833e-05   6.270216084874e-05  -5.124780558488e-05 
3 1 -7.007890863449e-05   5.561577958532e-06  -8.784218035152e-05 
4 1 -6.630353050060e-05   8.104531917746e-05   2.153720189114e-05 
5 1  1.960964769236e-05   2.374214052639e-05  -7.663603034479e-06 
6 1 -3.288312251829e-05  -1.600314868706e-04   5.832829930337e-05 
7 1 -2.762589627596e-05   2.045319103086e-05   9.101387833310e-05 
8 1  1.659262231377e-05  -8.841940915358e-05   9.380503253131e-06 
8
Step 3000
1 1 -1.620929431616e-05  -2.661274737309e-05  -1.029212532492e-04 
2 1  7.364828778040e-06  -2.829085333724e-05  -2.217999323953e-05 
3 1 -4.527272816783e-06  -1.197853499549e-04  -4.548029092072e-05 
4 1  2.973055675060e-05   1.896981700155e-05  -3.529942726768e-05 
5 1  1.070472267633e-04  -7.586202490626e-05  -6.296149155858e-06 
6 1 -9.271529025683e-05  -2.144389018778e-05   1.366065696328e-04 
7 1 -7.501425045401e-06  -9.114887300754e-05   2.361385701263e-05 
8 1 -1.016783272901e-04  -8.796276053215e-05   2.764899025142e-05 
8
Step 4000
1 1  4.061128791545e-05   6.130546443045e-06  -1.476199012113e-04 
2 1  3.098520608164e-05  -1.077380473023e-04   3.893413798855e-05 
3 1  5.336127661815e-05  -1.740522930399e-04   1.232491449190e-05 
4 1  1.046885458656e-04  -4.815334030436e-05  -8.821467968905e-05 
5 1  1.428230855663e-04  -1.446763682175e-04  -6.022419471589e-06 
6 1 -1.184338826642e-04   1.018639374959e-04   1.421901243568e-04 
7 1  7.228309971551e-06  -1.599436141661e-04  -4.602617544918e-05 
8 1 -1.697692173029e-04  -3.351856356199e-05   3.693659355512e-05 
8
Step 5000
1 1  7.287086893936e-05   4.373343421937e-05  -1.154680733337e-04 
2 1  2.003238492154e-05  -1.259195607281e-04   8.757751285747e-05 
3 1  8.545845761798e-05  -1.486106275648e-04   6.164855030330e-05 
4 1  1.267677593773e-04  -9.477875123822e-05  -1.133756725988e-04 
5 1  1.141879453439e-04  -1.552809469494e-04   6.481854481233e-06 
6 1 -9.558897981855e-05   1.673906208447e-04   8.661764343501e-05 
7 1  1.277988633149e-05  -1.602521511908e-04  -8.755600423151e-05 
8 1 -1.606617913680e-04   4.591302497616e-05   3.320307784243e-05 
8
Step 6000
1 1  5.057316186368e-05   6.376031553327e-05  -2.557648439958e-05 
2 1 -7.183845077337e-06  -7.034814374127e-05   1.116138801843e-04 
3 1  9.387713969963e-05  -6.645243179782e-05   8.856391887239e-05 
4 1  9.496733868087e-05  -1.029894417030e-04  -1.013297606721e-04 
5 1  4.051203666036e-05  -1.030548816926e-04   3.055999586903e-05 
6 1 -4.838351056874e-05   1.552684615177e-04   8.372670749208e-06 
7 1  1.358422373352e-05  -9.916236504872e-05  -8.922859348505e-05 
8 1 -8.331518049338e-05   1.056461269419e-04   1.523086219637e-05 
8
Step 7000
1 1 -5.247102607871e-06   6.551669271896e-05   7.009314640293e-05 
2 1 -3.881227235149e-05   1.820397533599e-05   1.121208562860e-04 
3 1  7.936022430097e-05   4.117694547545e-05   9.489079867736e-05 
4 1  3.274187051077e-05  -7.403315201145e-05  -5.305700399474e-05 
5 1 -3.741624073731e-05  -1.022071282567e-05   5.833796674493e-05 
6 1  1.739942007390e-06   6.982751979063e-05  -6.904311732122e-05 
7 1  1.486498397823e-05  -9.579392808243e-06  -5.616426921300e-05 
8 1  2.339021821156e-05   1.115317537387e-04  -1.783035299783e-05 
8
Step 8000
1 1 -5.368164024902e-05   4.865731697879e-05   1.344750061376e-04 
2 1 -5.529880033519e-05   8.891363658721e-05   6.375553628890e-05 
3 1  4.267188693994e-05   1.173768335372e-04   7.526341810502e-05 
4 1 -3.164400113918e-05  -2.023519654649e-05   1.208631224141e-05 
5 1 -8.375099739278e-05   7.853770124396e-05   7.223915154926e-05 
6 1  4.643891955241e-05  -3.316307798736e-05  -1.052205955333e-04 
7 1  1.873871601291e-05   6.696721327001e-05  -6.708534270061e-06 
8 1  1.095736756478e-04   6.126260572492e-05  -5.420895681545e-05 
8
Step 9000
1 1 -7.978948066179e-05   6.237087666936e-06   1.508770986946e-04 
2 1 -3.118784696083e-05   1.226172940531e-04  -3.686135541667e-05 
3 1 -3.632902521875e-07   1.304328303485e-04   3.298079662778e-05 
4 1 -6.893220430131e-05   3.459692113069e-05   6.526044231518e-05 
5 1 -8.296381157645e-05   1.266946712942e-04   5.982008070322e-05 
6 1  7.251790063852e-05  -1.065537174770e-04  -8.857451706643e-05 
7 1  2.281648519746e-05   1.007739780430e-04   3.418714747543e-05 
8 1  1.407278627536e-04  -1.663831180131e-05  -7.597108163555e-05 
8
Step 10000
1 1 -7.193289394419e-05  -3.760910980821e-05   9.775184190613e-05 
2 1  2.534894621980e-05   1.039508127084e-04  -1.301037074010e-04 
3 1 -3.779517264992e-05   8.140141969726e-05  -2.027609281460e-05 
4 1 -6.666766748264e-05   6.733587289006e-05   8.769072816907e-05 
5 1 -4.404731502025e-05   1.209583122988e-04   2.283473508432e-05 
6 1  7.299124020581e-05  -1.277477669042e-04  -3.736149528905e-05 
7 1  2.564618288374e-05   8.787467886577e-05   4.799625730487e-05 
8 1  1.123158950708e-04  -8.217281842929e-05  -7.321051266540e-05 
8
Step 11000
1 1 -2.219363875131e-05  -5.916222074833e-05  -3.199296754585e-06 
2 1  7.554078488912e-05   3.141244541399e-05  -1.733241293252e-04 
3 1 -6.237213985797e-05   1.796952847490e-06  -6.945569553226e-05 
4 1 -3.717930753743e-05   6.769363311111e-05   7.798374789222e-05 
5 1  6.016060084020e-06   6.725240486489e-05  -2.725632370533e-05 
6 1  5.441415290609e-05  -8.552796706833e-05   2.796735092596e-05 
7 1  2.355429322832e-05   4.339903961954e-05   3.416122908422e-05 
8 1  4.604719590679e-05  -1.061809682835e-04  -4.861899414183e-05 
8
Step 12000
1 1  4.303722488157e-05  -5.213707384366e-05  -9.390297538650e-05 
2 1  9.723572225456e-05  -5.381128936232e-05  -1.608679540669e-04 
3 1 -7.227109471670e-05  -7.329057799242e-05  -9.593403264358e-05 
4 1 -3.956147755177e-10   4.166855458602e-05   4.694562048509e-05 
5 1  4.110430350442e-05  -9.323226058572e-06  -7.073169491004e-05 
6 1  1.757021545777e-05  -4.985430870274e-06   7.570012455153e-05 
7 1  1.231106115641e-05  -8.397029671961e-06   4.962159981420e-06 
8 1 -2.141165282028e-05  -8.405135843156e-05  -5.482022899720e-06 
8
Step 13000
1 1  8.491941929344e-05  -2.801038051819e-05  -1.393991897978e-04 
2 1  7.395848013529e-05  -1.028177288893e-04  -8.422805317848e-05 
3 1 -6.038720278582e-05  -1.132085854681e-04  -8.776740815192e-05 
4 1  2.833104497707e-05   3.063819011112e-06   1.055089541354e-05 
5 1  4.617497875590e-05  -7.440224638484e-05  -8.742286381893e-05 
6 1 -2.734004804386e-05   7.014927924813e-05   7.922602767450e-05 
7 1 -9.372686999114e-06  -4.530213144017e-05  -2.314822378437e-05 
8 1 -6.265604879597e-05  -3.388202392152e-05   4.309785322338e-05 
8
Step 14000
1 1  8.613507712215e-05   8.701490255617e-06  -1.326556356498e-04 
2 1  7.007974511296e-06  -1.079309232847e-04   3.805482281408e-05 
3 1 -3.069492277239e-05  -1.033168958373e-04  -4.964033042860e-05 
4 1  3.675330152542e-05  -3.261456977354e-05  -1.827354931483e-05 
5 1  2.203073871667e-05  -1.040612570211e-04  -6.864684075391e-05 
6 1 -6.057826085756e-05   1.126699146055e-04   4.445874184706e-05 
7 1 -3.532341356068e-05  -5.526324824101e-05  -3.622018854537e-05 
8 1 -7.008853751293e-05   1.839733193734e-05   8.030064551008e-05 
8
Step 15000
1 1  5.173382750773e-05   3.761650164108e-05  -6.944663612325e-05 
2 1 -6.705454587408e-05  -7.428931285262e-05   1.413921746789e-04 
3 1  9.639912500058e-06  -4.377163861372e-05   7.017432443077e-06 
4 1  2.269571873688e-05  -5.258524443554e-05  -3.521631033042e-05 
5 1 -1.619106472805e-05  -8.784229960382e-05  -1.990792646898e-05 
6 1 -7.498039758361e-05   1.017696743369e-04  -8.091277974235e-06 
7 1 -5.568130155798e-05  -3.799751591169e-05  -2.750704109206e-05 
8 1 -5.169889310220e-05   5.296582235008e-05   9.063418900060e-05 
8
Step 16000
1 1 -3.450045580506e-06   3.877419078920e-05   2.159446466345e-05 
2 1 -1.091068949645e-04  -1.168958534771e-05   1.817045037372e-04 
3 1  4.365111087205e-05   2.891313359019e-05   6.319859910033e-05 
4 1 -3.551822922896e-06  -4.708220530146e-05  -4.076287920150e-05 
5 1 -3.731375753461e-05  -3.368938587295e-05   4.004677692729e-05 
6 1 -6.692304482512e-05   3.926453484646e-05  -5.612458984296e-05 
7 1 -6.004270255836e-05  -4.755688969193e-06  -9.622225615299e-07 
8 1 -1.943727715964e-05   6.027534478223e-05   6.778492005020e-05 
8
Step 17000
1 1 -5.141210459823e-05   1.052411044298e-05   9.374377172661e-05 
2 1 -1.057866530115e-04   4.531209428973e-05   1.526977901888e-04 
3 1  6.170163651664e-05   8.068171104113e-05   9.721176657592e-05 
4 1 -2.631372293630e-05  -1.808415087390e-05  -3.744180006208e-05 
5 1 -2.727419646072e-05   2.772737571022e-05   8.369139328882e-05 
6 1 -3.196974030290e-05  -3.740366594706e-05  -7.136971908733e-05 
7 1 -4.048354991259e-05   2.658383294550e-05   3.207971163073e-05 
8 1  1.068809507991e-05   4.383600301937e-05   1.292913703198e-05 
8
Step 18000
1 1 -7.065517264440e-05  -2.732397546013e-05   1.225584617925e-04 
2 1 -5.524972149226e-05   6.197524699033e-05   6.970487358100e-05 
3 1  6.195963928396e-05   1.021290625629e-04   9.382238218458e-05 
4 1 -3.624650660548e-05   2.067819536663e-05  -2.905774458776e-05 
5 1  6.367880537039e-06   6.463041552567e-05   8.976873809883e-05 
6 1  1.731066765689e-05  -9.025104773331e-05  -4.093368806204e-05 
7 1  1.476311139545e-06   3.869092355215e-05   5.740600703757e-05 
8 1  2.701432081262e-05   1.674098256822e-05  -5.970768156788e-05 
8
Step 19000
1 1 -5.435424349827e-05  -5.886991630913e-05   1.047478511805e-04 
2 1  1.997474542868e-05   4.536615584168e-05  -2.968825920178e-05 
3 1  4.396248725490e-05   8.925767229996e-05   5.603496338302e-05 
4 1 -2.858377002889e-05   5.271374305730e-05  -1.927655491979e-05 
5 1  4.110765964694e-05   6.990373809641e-05   5.678870081751e-05 
6 1  5.796705894721e-05  -1.065869488334e-04   1.457878553947e-05 
7 1  5.193128698178e-05   2.762504362813e-05   6.062805396808e-05 
8 1  3.147423209891e-05  -7.735725602351e-06  -1.191939690551e-04 
8
Step 20000
1 1 -1.831296679866e-05  -5.992664476276e-05   4.377874968022e-05 
2 1  7.502220969297e-05   1.884766339995e-05  -9.734323140873e-05 
3 1  8.638220214077e-06   3.396270620704e-05  -1.048951225048e-06 
4 1 -2.837142025361e-06   6.288920980840e-05  -7.806476315668e-06 
5 1  5.949018174518e-05   4.612895697484e-05  -2.301410901113e-06 
6 1  7.853773694170e-05  -7.033618382045e-05   6.405800520587e-05 
7 1  8.936126006381e-05  -2.164852183610e-06   3.536640361630e-05 
8 1  3.239420689915e-05  -2.229853117639e-05  -1.325296351346e-04 
8
Step 21000
1 1  1.714596398501e-05  -1.808300281034e-05  -3.146523185579e-05 
2 1  8.978484590441e-05  -9.606064195824e-06  -1.155920451827e-04 
3 1 -2.442857948928e-05  -2.819654782723e-05  -5.535969513028e-05 
4 1  2.937299482446e-05   4.425281105881e-05   9.142717031339e-06 
5 1  4.135787106983e-05   9.552771666267e-07  -6.170787604248e-05 
6 1  7.030185374473e-05   1.421637054350e-06   8.254205856580e-05 
7 1  9.672648776922e-05  -3.545518432618e-05  -1.244829793524e-05 
8 1  2.703007850127e-05  -2.278608313596e-05  -9.121748627564e-05 
8
Step 22000
1 1  3.173733799981e-05   5.142080270813e-05  -8.594692092290e-05 
2 1  6.645659280534e-05  -2.655915868886e-05  -8.546650166289e-05 
3 1 -4.033226752307e-05  -6.937550507747e-05  -8.893320868756e-05 
4 1  5.076656760158e-05   1.411049135497e-06   2.798922820409e-05 
5 1 -7.425133149082e-06  -3.696787317258e-05  -9.227111876436e-05 
6 1  3.220287935265e-05   6.690246351239e-05   5.550096189437e-05 
7 1  6.491546613163e-05  -5.303519546602e-05  -6.583346198090e-05 
8 1  1.859272627568e-05  -1.527095954503e-05  -7.284823937342e-06 
8
Step 23000
1 1  2.274898906683e-05   1.134924844472e-04  -1.013049533926e-04 
2 1  1.055057359250e-05  -1.441366983103e-05  -2.311421351411e-05 
3 1 -4.116072188262e-05  -9.045309831097e-05  -8.697932878267e-05 
4 1  5.746666190502e-05  -5.088377971847e-05   4.196231622462e-05 
5 1 -5.924088843971e-05  -4.825820067936e-05  -7.832604342386e-05 
6 1 -2.133507927067e-05   9.587994047198e-05  -9.353154148945e-06 
7 1  1.738685462034e-06  -3.944101954831e-05  -1.055839399302e-04 
8 1  1.174476135455e-05  -1.146986519381e-05   8.896650828556e-05 
8
Step 24000
1 1  1.261113701926e-06   1.342449088760e-04  -7.847884399596e-05 
2 1 -5.069132631293e-05   1.167573652674e-05   3.859190439123e-05 
3 1 -2.761351399807e-05  -8.628750422021e-05  -4.905631515155e-05 
4 1  4.526455303597e-05  -8.997123906008e-05   4.997174732013e-05 
5 1 -8.544648457727e-05  -3.547503857125e-05  -2.564366788821e-05 
6 1 -6.612716194357e-05   8.320637326095e-05  -8.028594030377e-05 
7 1 -6.863996611219e-05  -9.647303897864e-07  -1.089489118092e-04 
8 1  6.502023201944e-08  -1.563068535932e-05   1.534125839586e-04 
8
Step 25000
1 1 -1.620963253868e-05   8.978708652308e-05  -2.583358661620e-05 
2 1 -8.092054935726e-05   2.518445377356e-05   7.061906130430e-05 
3 1 -4.688690001980e-06  -4.676012874447e-05   5.796587722347e-06 
4 1  1.102919650739e-05  -9.491919155020e-05   4.929036578338e-05 
5 1 -7.207796480970e-05  -4.679577470553e-06   4.308896551817e-05 
6 1 -8.223865317393e-05   2.934755179517e-05  -1.183285430505e-04 
7 1 -1.143616392440e-04   4.439416146860e-05  -6.905244123518e-05 
8 1 -2.005664393191e-05  -2.441158087200e-05   1.552312667084e-04 
8
Step 26000
1 1 -1.557333132588e-05  -1.126894891877e-05   3.611728398816e-05 
2 1 -6.681672335904e-05   1.989865001247e-05   6.754891588404e-05 
3 1  1.171340103539e-05   4.917500381103e-06   5.270857865406e-05 
4 1 -3.595301682268e-05  -5.749639250543e-05   3.244551964555e-05 
5 1 -2.033344186774e-05   3.162381755344e-05   9.552249529764e-05 
6 1 -6.130141546269e-05  -3.862088420539e-05  -1.013105739359e-04 
7 1 -1.134631932492e-04   7.446199851952e-05   3.133175125634e-06 
8 1 -3.930606585284e-05  -3.126049037516e-05   9.231621254296e-05 
8
Step 27000
1 1  9.570011778173e-06  -1.300045133630e-04   7.847113448379e-05 
2 1 -2.027715996897e-05   1.487687730293e-06   3.421805627258e-05 
3 1  1.240137177646e-05   4.874792474344e-05   7.761115653312e-05 
4 1 -7.548707173396e-05   1.103583217178e-05   2.329874497413e-06 
5 1  4.511729699202e-05   5.078292319560e-05   1.046831160162e-04 
6 1 -1.095718967112e-05  -8.387470166217e-05  -3.207043313299e-05 
7 1 -6.344179273634e-05   7.323927376981e-05   8.009117336557e-05 
8 1 -4.931114031160e-05  -2.610569865128e-05  -9.808194986119e-06 
8
Step 28000
1 1  4.382447358846e-05  -2.122144543050e-04   8.549425589346e-05 
2 1  3.922938134810e-05  -2.557884251501e-05  -1.619913457708e-05 
3 1  2.263607054502e-06   8.143381084141e-05   6.936181015318e-05 
4 1 -9.579047942508e-05   8.582405783370e-05  -2.956061959289e-05 
5 1  9.228795977727e-05   4.206542112342e-05   6.015582006319e-05 
6 1  4.680798162448e-05  -8.510121801783e-05   6.147547615241e-05 
7 1  1.443433722344e-05   3.555327784253e-05   1.359169926788e-04 
8 1 -4.453911417463e-05  -3.334714990886e-06  -1.058234806484e-04 
8
Step 29000
1 1  6.283582209349e-05  -2.120551376603e-04   5.998031484946e-05 
2 1  8.301030649099e-05  -4.380023846697e-05  -5.507167924392e-05 
3 1 -1.060793143511e-05   9.474516985729e-05   2.946330809108e-05 
4 1 -8.747516476483e-05   1.350948438043e-04  -5.618871157862e-05 
5 1  9.735300976939e-05   7.715840844219e-06  -2.168232850934e-05 
6 1  8.558194636873e-05  -4.549331214169e-05   1.385291723312e-04 
7 1  8.333502408277e-05  -2.306591718316e-05   1.453768165314e-04 
8 1 -2.215304782411e-05   3.164724551381e-05  -1.534193323359e-04 
8
Step 30000
1 1  4.956054102913e-05  -1.168830583072e-04   1.451461586156e-05 
2 1  8.669357636950e-05  -3.788558590826e-05  -6.229131311950e-05 
3 1 -1.524526658735e-05   7.405802338915e-05  -2.216172404057e-05 
4 1 -4.708816891956e-05   1.345987902668e-04  -7.135887664394e-05 
5 1  5.404453062180e-05  -3.970168954387e-05  -1.018214084890e-04 
6 1  8.448305616624e-05   1.756225273045e-05   1.603695677157e-04 
7 1  1.133915706757e-04  -7.057372884689e-05   1.015096695465e-04 
8 1  1.118200090470e-05   6.536753932951e-05  -1.342481610738e-04 
8
Step 31000
1 1  4.533391229192e-06   3.297147561903e-05  -3.231795572661e-05 
2 1  4.057396398745e-05  -9.631351493244e-06  -3.848846961132e-05 
3 1 -1.200037499239e-06   2.851582088445e-05  -5.853014185326e-05 
4 1  1.655266008510e-05   7.876684706124e-05  -6.927342201916e-05 
5 1 -1.705945661809e-05  -7.586554175230e-05  -1.403186275829e-04 
6 1  4.051864752871e-05   7.403544765935e-05   1.126387298011e-04 
7 1  8.995542816077e-05  -8.440097405893e-05   2.300712575801e-05 
8 1  4.331789908706e-05   8.111948814294e-05  -6.104626381526e-05 
8
Step 32000
1 1 -5.190552405234e-05   1.638556610715e-04  -5.875378777723e-05 
2 1 -3.220358494102e-05   2.701560198936e-05   3.101612773731e-06 
3 1  2.447997152341e-05  -2.691718683806e-05  -6.407829511033e-05 
4 1  8.078629900056e-05  -1.231381625868e-05  -4.829854807374e-05 
5 1 -7.664825233650e-05  -7.764733712964e-05  -1.158335217593e-04 
6 1 -3.019437985420e-05   9.301577625900e-05   1.067189996817e-05 
7 1  2.204457109056e-05  -6.083201801263e-05  -5.599380378021e-05 
8 1  6.176217295156e-05   6.735015092827e-05   2.883742081320e-05 
8
Step 33000
1 1 -9.091491467916e-05   2.214719677831e-04  -5.901906172529e-05 
2 1 -9.502356393775e-05   5.312521080136e-05   4.940966349444e-05 
3 1  4.687307372146e-05  -8.318512115731e-05  -4.176768382018e-05 
4 1  1.205064834660e-04  -9.977508104983e-05  -1.583032782058e-05 
5 1 -9.398223844562e-05  -3.914469414317e-05  -3.258665351216e-05 
6 1 -9.156905072890e-05   6.011795718498e-05  -1.009174954430e-04 
7 1 -5.622305512176e-05  -1.217869548812e-05  -1.121033343164e-04 
8 1  5.591644293471e-05   2.526612518446e-05   9.702311430738e-05 
8
Step 34000
1 1 -9.387907058691e-05   1.895265644246e-04  -4.054229755092e-05 
2 1 -1.190136319791e-04   5.201644330737e-05   7.759563560078e-05 
3 1  5.826055059610e-05  -1.234986790065e-04  -4.575416511555e-07 
4 1  1.207968270513e-04  -1.494690906292e-04   1.859233938056e-05 
5 1 -6.250469217666e-05   2.501676840800e-05   7.272841129237e-05 
6 1 -1.131427513393e-04  -5.100643957855e-06  -1.734028644819e-04 
7 1 -1.037934412223e-04   3.778933531491e-05  -1.275408094184e-04 
8 1  2.610915083339e-05  -3.023576660737e-05   1.158988796421e-04 
8
Step 35000
1 1 -6.035658626115e-05   9.131127649761e-05  -1.056275497947e-05 
2 1 -8.660536980849e-05   1.616065482912e-05   6.567345520216e-05 
3 1  4.345942423791e-05  -1.204298603058e-04   4.797525892453e-05 
4 1  8.264135631579e-05  -1.433614694764e-04   4.507446883382e-05 
5 1  3.966558236841e-06   8.517556059756e-05   1.465565002946e-04 
6 1 -8.817401844604e-05  -6.995994236698e-05  -1.746774301525e-04 
7 1 -9.820236511693e-05   6.406431980699e-05  -9.834658694167e-05 
8 1 -1.130713179160e-05  -7.617425059045e-05   7.662766520216e-05 
8
Step 36000
1 1 -3.625601015828e-06  -2.030982890958e-05   1.415476356719e-05 
2 1 -2.175821898766e-07  -2.765848057554e-05   2.175064851657e-05 
3 1 -1.198710783175e-05  -7.241415877851e-05   7.335529174320e-05 
4 1  2.057851143268e-05  -8.514447485525e-05   5.996870326757e-05 
5 1  6.844376229141e-05   1.112375174400e-04   1.541299927480e-04 
6 1 -1.926174302806e-05  -1.041409123369e-04  -1.073902963385e-04 
7 1 -4.447927535781e-05   5.447136174783e-05  -4.175362087706e-05 
8 1 -4.042521071918e-05  -9.369414734151e-05   1.030114558107e-05 
8
Step 37000
1 1  4.970818035796e-05  -8.742827050072e-05   2.101635360754e-05 
2 1  9.724676996535e-05  -5.417080937561e-05  -2.612409553070e-05 
3 1 -8.186557431582e-05   5.013473750008e-06   5.462008604353e-05 
4 1 -4.253669356525e-05  -3.572899665393e-06   6.223136478342e-05 
5 1  9.130195057122e-05   8.736203993237e-05   9.515884494113e-05 
6 1  7.195815073941e-05  -8.768155847490e-05   1.460138379855e-06 
7 1  3.242539926459e-05   1.957746981697e-05   1.117228938577e-05 
8 1 -5.082005576455e-05  -7.623652824539e-05  -4.255453375606e-05 
8
Step 38000
1 1  7.571348147660e-05  -9.761225054025e-05   2.623363665791e-05 
2 1  1.582586513163e-04  -5.223803830659e-05  -7.281269593450e-05 
3 1 -1.203583951081e-04   9.135203282308e-05   4.219646198777e-06 
4 1 -8.274968536586e-05   6.556270122923e-05   5.427592926046e-05 
5 1  5.805106471977e-05   2.177315431772e-05   3.967973193761e-06 
6 1  1.320688691544e-04  -1.675780515802e-05   9.741836278831e-05 
7 1  9.950907055583e-05  -2.040839637781e-05   4.980914826242e-05 
8 1 -4.005218273886e-05  -3.094077661353e-05  -6.745803445281e-05 
8
Step 39000
1 1  6.495488075609e-05  -6.323553683064e-05   3.391146528106e-05 
2 1  1.545570022021e-04  -2.332559917904e-05  -1.012326066306e-04 
3 1 -1.138947290116e-04   1.634407839146e-04  -4.769251889406e-05 
4 1 -9.095526828732e-05   9.979550277100e-05   4.023905492640e-05 
5 1 -7.222669064507e-06  -5.400097829160e-05  -8.277714955372e-05 
6 1  1.341826561648e-04   6.606883077540e-05   1.412979894433e-04 
7 1  1.228220082049e-04  -4.397220361776e-05   6.736182942479e-05 
8 1 -1.160772372906e-05   2.133111633616e-05  -5.734024418145e-05 
8
Step 40000
1 1  2.878133886246e-05  -1.344555935374e-05   2.541706052757e-05 
2 1  8.093536380038e-05   3.629873175016e-05  -8.196168077456e-05 
3 1 -7.705127597584e-05   1.754623187362e-04  -8.089649908210e-05 
4 1 -7.064751101918e-05   9.639942525892e-05   2.067929443111e-05 
5 1 -7.018652717273e-05  -1.036320588468e-04  -1.273482889207e-04 
6 1  9.312253984123e-05   1.140959680009e-04   1.195864817004e-04 
7 1  9.173325756160e-05  -3.966501130196e-05   5.949509871163e-05 
8 1  1.964117451195e-05   5.545456249181e-05  -8.073357630426e-06 
8
Step 41000
1 1 -2.055978627446e-05   3.192279317568e-05   1.098818762894e-05 
2 1 -4.723569047246e-05   7.916058558077e-05  -2.148248896842e-05 
3 1  1.557707869059e-05   1.173640768306e-04  -7.873587322304e-05 
4 1 -3.281194579161e-05   6.028415547200e-05  -4.214627120774e-06 
5 1 -1.038270078787e-04  -1.102196360882e-04  -1.102885643562e-04 
6 1  1.622930228025e-05   1.114304372902e-04   5.633682004303e-05 
7 1  2.354626011161e-05  -1.357304965383e-05   3.893245628473e-05 
8 1  3.129297467042e-05   6.116314528092e-05   2.672457824533e-05 
8
Step 42000
1 1 -6.461567085634e-05   3.769509830624e-05   4.590367839690e-06 
2 1 -1.629067348675e-04   7.201026706395e-05   2.456888888548e-05 
3 1  1.221483218866e-04   2.039849644356e-05  -3.296092891665e-05 
4 1  9.117590397343e-06   6.500795655244e-06  -3.045073876103e-05 
5 1 -8.620210123875e-05  -6.835764053276e-05  -4.947886303730e-05 
6 1 -7.952141928390e-05   6.194906729801e-05  -2.079848734585e-05 
7 1 -5.327358788916e-05   1.893036447492e-05   1.973617137376e-05 
8 1  2.932763335557e-05   3.910538237904e-05   3.946705023388e-05 
8
Step 43000
1 1 -6.791647601402e-05   6.192848687593e-06  -3.456003592129e-05 
2 1 -2.232633126699e-04   2.637244673990e-05   5.576972028853e-05 
3 1  1.739369597497e-04  -7.413298666810e-05   4.152713320250e-05 
4 1  3.818974591394e-05  -4.843608260856e-05  -5.508367575831e-05 
5 1 -1.843483833093e-05   5.365563527429e-06   1.234779826334e-05 
6 1 -1.414395471576e-04  -2.076506565992e-05  -7.020605544285e-05 
7 1 -1.108027758611e-04   4.083947889925e-05   4.582527424320e-06 
8 1  2.133121699147e-05   1.692205907643e-06   4.918877687650e-05 
8
Step 44000
1 1 -2.856180031434e-05  -3.070779743613e-05  -8.405703433484e-05 
2 1 -1.877456941464e-04  -3.384771418911e-05   8.896674001625e-05 
3 1  1.378664933018e-04  -1.400543667376e-04   1.036894112137e-04 
4 1  4.505869860642e-05  -7.646424613535e-05  -6.777550529638e-05 
5 1  6.240395602006e-05   7.004373164270e-05   5.191411548524e-05 
6 1 -1.366994661833e-04  -9.533573122865e-05  -6.416925964738e-05 
7 1 -1.258275120481e-04   3.901335857026e-05  -5.198049437667e-06 
8 1 -1.495624776996e-06  -2.420340506036e-05   1.256160304807e-05 
8
Step 45000
1 1  1.525796625813e-05  -3.653574344593e-05  -8.596242501173e-05 
2 1 -7.386420185587e-05  -1.016837282732e-04   8.387967763938e-05 
3 1  7.171163023567e-05  -1.445340112190e-04   1.156412193180e-04 
4 1  3.301738398183e-05  -7.321217191511e-05  -5.750461283848e-05 
5 1  1.099510250534e-04   9.916705135344e-05   6.309012062308e-05 
6 1 -9.998016989156e-05  -1.146180487899e-04  -2.575261839884e-05 
7 1 -9.345026824409e-05   1.714844067085e-05  -8.599850092443e-06 
8 1 -2.116402318736e-05  -2.564131788637e-05  -3.655025025382e-05 
8
Step 46000
1 1  4.584609401955e-05  -2.089441462933e-05  -3.761858756022e-05 
2 1  7.155526594423e-05  -1.170096417489e-04   3.680062764826e-05 
3 1 -3.692973600028e-05  -8.400847836872e-05   7.182624666334e-05 
4 1  9.209318017691e-06  -3.765279440045e-05  -2.015238572301e-05 
5 1  1.108725248588e-04   8.890297819685e-05   4.751234745951e-05 
6 1 -2.745397974853e-05  -8.975666291445e-05   2.256913105994e-05 
7 1 -3.215268306329e-05  -1.193992962500e-05  -1.395582451271e-05 
8 1 -2.069260626035e-05  -6.982922625742e-06  -4.922171905458e-05 
8
Step 47000
1 1  7.316002235342e-05   2.716584113883e-05   1.516114541836e-06 
2 1  1.420075263506e-04  -5.954781780868e-05   2.138589141669e-05 
3 1 -1.352431148132e-04  -4.623849794107e-06  -6.508274698245e-06 
4 1  1.922728757049e-06   1.181119989779e-05   3.539199198796e-05 
5 1  6.165351673070e-05   3.911589314327e-05   1.873162358268e-05 
6 1  5.822539697241e-05  -3.613071809533e-05   5.847769195759e-05 
7 1  4.022557382779e-05  -3.937992029188e-05  -2.223702323382e-05 
8 1 -1.154186087077e-05   1.831280942688e-05  -3.003272809021e-05 
8
Step 48000
1 1  4.506284252599e-05   7.525547763859e-05   8.092750049581e-05 
2 1  1.865942851516e-04   2.230976081362e-05   1.100137688695e-05 
3 1 -1.651566177310e-04   5.427075958710e-05  -8.757375262780e-05 
4 1 -9.736577306954e-06   6.334696827531e-05   8.236023357190e-05 
5 1 -1.886742789445e-05  -2.186447153849e-05  -2.005794592076e-07 
6 1  1.154427555791e-04   2.414791526737e-05   5.872947333472e-05 
7 1  1.016488886001e-04  -5.024775511134e-05  -3.017032550104e-05 
8 1 -1.138923970796e-05   3.546509876177e-05  -1.621050439268e-05 
8
Step 49000
1 1 -1.744624854151e-05   9.072507899383e-05   1.491954107100e-04 
2 1  1.559800909282e-04   8.069572300926e-05  -1.149292812340e-05 
3 1 -1.106876686869e-04   7.605785035096e-05  -1.339068641247e-04 
4 1 -5.190698767518e-06   9.394190503412e-05   9.914888484392e-05 
5 1 -8.896733435967e-05  -6.366200316605e-05  -6.509676585030e-06 
6 1  1.204960347208e-04   6.821320002721e-05   1.706252469824e-05 
7 1  1.278039592094e-04  -3.661843485260e-05  -3.477148472025e-05 
8 1 -2.129617560419e-06   2.449927852754e-05   2.113060946698e-05 
8
Step 50000
1 1 -5.808477064784e-05   7.350810578684e-05   1.451384414433e-04 
2 1  5.671262776952e-05   1.073012195624e-04  -2.641177687338e-05 
3 1 -1.042719218657e-05   5.344809175242e-05  -1.160255677321e-04 
4 1  8.847022193941e-06   7.296827193718e-05   7.432786644203e-05 
5 1 -1.165064970313e-04  -8.006882517434e-05  -1.019388329973e-05 
6 1  8.737670981076e-05   7.844274330710e-05  -3.853898005063e-05 
7 1  1.094838640336e-04  -5.173037746587e-06  -3.096338931239e-05 
8 1  7.289181276396e-06  -1.235262011441e-05   5.411618933188e-05 
8
Step 51000
1 1 -6.203112065774e-05   1.418855778482e-05   6.127060009440e-05 
2 1 -4.905597087298e-05   8.539639595447e-05  -2.503754726799e-05 
3 1  9.251878979761e-05   8.512904035545e-06  -5.022459687958e-05 
4 1  1.894852319707e-05   1.807888342290e-05   1.061375016904e-05 
5 1 -9.043060542998e-05  -6.407443413160e-05  -7.605594646691e-06 
6 1  2.435417919133e-05   5.984576458567e-05  -8.041215305644e-05 
7 1  5.577462201756e-05   2.874360209663e-05  -1.401653132917e-05 
8 1  1.015062861090e-05  -5.716680821958e-05   5.354616711918e-05 
8
Step 52000
1 1 -5.582848849569e-05  -6.878222257496e-05  -4.291681083212e-05 
2 1 -9.685199959357e-05   3.216131278339e-05  -3.921529043576e-05 
3 1  1.496402559083e-04  -2.805369022036e-05   3.209484066596e-05 
4 1  2.345752955728e-05  -5.327640884102e-05  -6.249188428609e-05 
5 1 -2.077039218714e-05  -2.091492679521e-05  -5.677677948036e-06 
6 1 -4.578400617731e-05   2.545488091641e-05  -9.007974719994e-05 
7 1 -1.599895886837e-05   5.429269598196e-05   1.366729938606e-05 
8 1  1.061734974934e-05  -8.600443138453e-05   1.966443121891e-05 
8
Step 53000
1 1 -2.176342425125e-05  -1.174565965942e-04  -1.253536522493e-04 
2 1 -8.825876766900e-05  -2.539918123400e-05  -5.887637147147e-05 
3 1  1.363208918446e-04  -4.697772682171e-05   1.003072358326e-04 
4 1  4.637194998578e-06  -1.054178224474e-04  -1.100928111821e-04 
5 1  5.698430054631e-05   2.110278186682e-05  -1.245646769724e-05 
6 1 -9.150378217332e-05  -1.037198241963e-05  -5.914808727201e-05 
7 1 -8.582734430882e-05   5.925733302434e-05   4.227858735938e-05 
8 1  1.277913994743e-05  -7.576272831717e-05  -3.142832224330e-05 
8
Step 54000
1 1  3.390657536602e-05  -1.137262382642e-04  -1.630218161447e-04 
2 1 -5.551190860184e-05  -6.777669388696e-05  -5.324989985047e-05 
3 1  5.831803694381e-05  -3.346853501020e-05   1.238706458758e-04 
4 1 -2.737096368157e-05  -1.155057738710e-04  -1.051993987354e-04 
5 1  1.037066911243e-04   4.982575554707e-05  -2.144718214672e-05 