8
Step 0
1 1 0.00000000000000000e+00 0.00000000000000000e+00 0.00000000000000000e+00
2 1 0.00000000000000000e+00 0.00000000000000000e+00 0.00000000000000000e+00
3 1 0.00000000000000000e+00 0.00000000000000000e+00 0.00000000000000000e+00
4 1 0.00000000000000000e+00 0.00000000000000000e+00 0.00000000000000000e+00
5 1 0.00000000000000000e+00 0.00000000000000000e+00 0.00000000000000000e+00
6 1 0.00000000000000000e+00 0.00000000000000000e+00 0.00000000000000000e+00
7 1 0.00000000000000000e+00 0.00000000000000000e+00 0.00000000000000000e+00
8 1 0.00000000000000000e+00 0.00000000000000000e+00 0.00000000000000000e+00
8
Step 1000
1 1 1.29932126442207148e-06 2.00417828377542437e-07 -1.06473141986816016e-06
2 1 2.46890112668111682e-06 -2.40797296410379736e-06 -1.41924852722282436e-06
3 1 -1.18505828608483625e-06 7.00305871407069323e-07 -6.13607550209264367e-07
4 1 7.49244015157838406e-07 6.84559522871979229e-07 -2.47228623363375340e-06
5 1 1.87000787639091807e-06 1.70743192479189992e-06 -8.92862385766032442e-07
6 1 6.52715404232577024e-07 -1.06228247876646947e-06 2.12587481605024469e-06
7 1 1.94361219790493866e-06 6.89444013791168911e-07 -2.36697624993617055e-06
8 1 2.16938532408305375e-06 6.41002319060272671e-07 -2.49977040045430227e-06
8
Step 2000
1 1 -1.13527671027568759e-06 4.75782909026675510e-08 4.53693358669710133e-07
2 1 -1.67237123788138651e-06 8.23511552277151098e-07 1.13757314275547472e-06
3 1 1.23453275711704124e-06 -1.25599057776718986e-06 9.13867373079183991e-07
4 1 1.92383796616452750e-07 -4.65307735010825205e-07 2.10754228258462680e-06
5 1 -1.41450631188409666e-07 -5.59466394302345514e-07 1.39159381893292501e-06
6 1 -2.64471191229991221e-07 1.38009998933470781e-06 -2.43808725612768931e-06
7 1 -1.52167545456599639e-06 -1.54589290596780363e-06 1.21162386438780189e-06
8 1 -1.62625193094207672e-06 -1.36849315992495296e-06 1.73292206638779007e-06
8
Step 3000
1 1 9.41017868296225620e-07 -6.89723433339818313e-07 2.96975372648705156e-07
2 1 7.81215178983137730e-07 5.71355037547735971e-07 -9.93680080413603290e-07
3 1 -1.76677515361287677e-06 2.52823933164442462e-06 -1.17599841203650247e-06
4 1 -1.10504014088872828e-06 7.07265387519060098e-07 -8.25867794721169636e-07
5 1 -1.35153031166435764e-06 -3.57311690236110650e-07 -1.71341728913055860e-06
6 1 1.34196031151654552e-07 -1.51805192707853279e-06 2.67381739745826645e-06
7 1 1.05771944871090235e-06 1.25264584614249948e-06 2.16549530592865365e-07
8 1 1.33287195254704997e-06 1.55739740052561740e-06 -1.40536690406029576e-06
8
Step 4000
1 1 -3.55119571005050432e-07 6.90264959653920054e-07 -1.00634716556611097e-06
2 1 -1.72695968726444986e-07 -1.77770835907906023e-06 1.05026877117493542e-06
3 1 1.87121933006989631e-06 -2.78072320665660302e-06 8.70523622229379591e-07
4 1 1.87987939766702479e-06 -1.48936651135673920e-06 -1.61976510926053542e-07
5 1 2.23311283908963508e-06 1.12464977296275196e-06 1.42946700117781030e-06
6 1 -4.15264430623653422e-07 1.05611813667739138e-06 -1.98561539877901350e-06
7 1 -1.22071636765786888e-06 -1.02243988070272434e-06 -1.32267096670692394e-06
8 1 -1.00862649023623593e-06 -1.38745322965195376e-06 1.33642703274185331e-06
8
Step 5000
1 1 -5.47541217821626788e-07 -1.94322739796073743e-07 1.50983519927411323e-06
2 1 -8.34860707094803815e-08 2.87030344842583912e-06 -1.30952343603449649e-06
3 1 -7.96831920340060116e-07 1.71114644835078085e-06 -4.91984166888874747e-07
4 1 -2.10477514353651394e-06 2.16918570859083148e-06 9.14491428548773929e-07
5 1 -2.02149543031843588e-06 -1.50117719021213027e-06 -4.91136807671683310e-07
6 1 8.00089091262696996e-07 -3.62829771991701295e-07 4.82570570108385716e-07
7 1 1.57300826471970646e-06 6.09130292578483907e-07 2.06060561017104225e-06
8 1 6.13205675270634389e-07 9.60596058789119458e-07 -1.44584460368810871e-06
8
Step 6000
1 1 1.29952210660986239e-06 -4.37484009850667706e-08 -1.86974680957127368e-06
2 1 1.14851163461965400e-07 -3.32581705107995960e-06 1.17330174880034644e-06
3 1 -4.87474565663882454e-07 -6.91243892755912237e-07 3.04638139958310133e-07
4 1 1.64622942793606853e-06 -2.26330944430611681e-06 -1.14228357703434855e-06
5 1 1.37852354636004627e-06 1.74607910652713054e-06 -5.64321364266496297e-07
6 1 -1.33134312054813789e-06 -2.62518329182750771e-07 6.97185074642694649e-07
7 1 -2.02176771335845158e-06 -1.75041936101203542e-08 -2.15576851839038744e-06
8 1 -1.35178953400818807e-07 -3.00991191667556013e-07 1.80564540973299732e-06
8
Step 7000
1 1 -1.68472749346064599e-06 -1.27955031839172498e-07 1.86772180526410480e-06
2 1 5.10694401507056110e-08 2.72348069707422128e-06 -5.26254811501348980e-07
3 1 1.67553023749942395e-06 1.33263316956765988e-07 -2.91097660984146394e-07
4 1 -7.50246059194241313e-07 1.93029447866627024e-06 6.22370077230880901e-07
5 1 -3.43337299593008983e-07 -1.89495383445612777e-06 1.64690145352251338e-06
6 1 2.41012038293734068e-06 8.68023340367981135e-07 -1.47774914020846138e-06
7 1 2.27942511029396826e-06 -5.85861599877576859e-07 1.55153734315215838e-06
8 1 -4.35456034389446502e-07 -3.72232031880015617e-07 -1.97647171994268505e-06
8
Step 8000
1 1 1.34566870089248267e-06 9.36116251241120422e-07 -1.05638661957319018e-06
2 1 -4.61123326227067865e-07 -1.64459110254738701e-06 1.30663860807439113e-07
3 1 -3.02369921783530744e-06 -2.97132053953308739e-07 7.06640756468732121e-07
4 1 -2.67041126609013667e-07 -1.37281110473922879e-06 6.55653264949365863e-07
5 1 -6.49405134217704905e-07 2.04179816079357731e-06 -2.39237948925313472e-06
6 1 -2.82025637550542939e-06 -9.01101106373165901e-07 1.08076468029709223e-06
7 1 -2.04727366509335017e-06 1.06413309734196033e-06 -3.86448327333279925e-07
8 1 5.94127232518108618e-07 6.18984467303027313e-07 1.23784887311841878e-06
8
Step 9000
1 1 -2.28959496514097308e-07 -1.89616194993184094e-06 -5.63444659127144179e-07
2 1 1.12103485558574600e-06 9.36102575620187725e-07 -1.21724513608239080e-07
3 1 2.24999242426168712e-06 1.24273329889483383e-06 -9.53970462977478873e-07
4 1 1.32056403632596590e-06 8.36318526649591593e-07 -3.04185339588562215e-06
5 1 9.21682686317384391e-07 -1.95885920520336851e-06 2.37993675931955283e-06
6 1 2.18095255296330410e-06 7.06206094620228005e-07 4.35252247466318459e-07
7 1 1.30593293001605073e-06 -1.22658267228332836e-06 -9.98208869794648529e-07
8 1 -1.97381598668248232e-07 -4.16094527771675046e-07 -2.53425295456482142e-07
8
Step 10000
1 1 -9.48414359714375931e-07 2.07617569919809280e-06 1.75253517100397020e-06
2 1 -1.71955969113405124e-06 -8.62245435456936522e-07 3.16555911697372351e-07
3 1 2.34449055800762024e-07 -2.31746349684870158e-06 8.25219699445108237e-07
4 1 -1.65230801785584591e-06 -2.67834956488789079e-08 4.24293520244800935e-06
5 1 -2.86245472981652051e-07 1.13675193646691420e-06 -1.22604290922864077e-06
6 1 -1.20030740173336857e-06 -6.54890819988313506e-07 -2.06453421020092225e-06
7 1 -6.61994700947871177e-07 1.12552698433736021e-06 1.80868902743944180e-06
8 1 -5.36092426259418230e-07 -1.03816882549728781e-07 -6.27826361950502852e-07
8
Step 11000
1 1 1.42849998020865142e-06 -1.09383049012671684e-06 -1.40555413838841205e-06
2 1 2.05253736227726993e-06 1.32632404096851258e-06 -6.19701387213775260e-07
3 1 -2.15105456445349590e-06 2.77182362216683691e-06 -5.20490839027993536e-07
4 1 1.25626042326703884e-06 -9.33926370253941126e-07 -2.67468948643475593e-06
5 1 -1.47349275690504458e-07 -6.82272418589774024e-07 5.04953847120850225e-07
6 1 1.86770435871972311e-07 6.56384746649640299e-07 3.04629141420247215e-06
7 1 3.59234905834784083e-07 -1.03334993487022513e-06 -2.19287722848901646e-06
8 1 1.58535971846542839e-06 7.47470188013711984e-07 1.64462868721727632e-06
8
Step 12000
1 1 -1.36318834187018647e-06 -2.13274036463734054e-07 4.50704490425252641e-07
2 1 -1.81880337048209135e-06 -1.69450756574750663e-06 9.51121668150528897e-07
3 1 2.35507741461160578e-06 -1.86550004134398983e-06 6.46503381451741102e-08
4 1 -7.56421914782690790e-07 1.79538047098688389e-06 8.94381299184404889e-07
5 1 6.84751543529941372e-07 2.42159575764142077e-07 2.41056434075950160e-07
6 1 4.64914115058004231e-07 -6.94438070714401355e-07 -2.83099493609420354e-06
7 1 -4.15789146773415215e-07 1.03027843200934893e-06 2.46868108911196725e-06
8 1 -2.38698985895664709e-06 -8.14536346111882167e-07 -2.36691763232902376e-06
8
Step 13000
1 1 1.13967845962317502e-06 1.32708368172028099e-06 6.67922573957561672e-07
2 1 6.74534010026408138e-07 1.41390870695053143e-06 -1.02318695732267616e-06
3 1 -1.66074611896877132e-06 1.04843078353513081e-06 -2.17790707960234074e-08
4 1 2.40616146969913329e-07 -2.33540864874331603e-06 9.24327696627591141e-07
5 1 -1.42599836482323935e-06 4.10642747295872832e-07 -1.21416981831557457e-06
6 1 -5.73472930115455408e-07 7.30103986229366318e-07 1.29873018081113162e-06
7 1 8.13086940612455379e-07 -8.91899995114305370e-07 -1.94307448009160814e-06
8 1 2.18846650700481288e-06 2.18737697320372500e-07 2.19551463680284973e-06
8
Step 14000
1 1 -7.65737838375799474e-07 -2.26552475372155524e-06 -1.68304300377660518e-06
2 1 8.71497531284118652e-07 -7.06645371691221430e-07 3.32507305977570064e-07
3 1 5.10607888372504291e-07 -3.86988845330788593e-07 3.40749910196664608e-07
4 1 2.35714765432426927e-07 2.08382217488990725e-06 -2.06205383371412739e-06
5 1 2.02977496355767755e-06 -1.09544639560766438e-06 1.79273717218805525e-06
6 1 2.48737099347450851e-07 -5.52186582373463297e-07 1.01237707946811531e-06
7 1 -1.02083554070777649e-06 6.68364473230998389e-07 5.47766164237129993e-07
8 1 -1.37839123587912605e-06 7.77151875519578658e-07 -1.55951265464128421e-06
8
Step 15000
1 1 3.26906805899378324e-07 2.47162556183618675e-06 2.01913109048360265e-06
2 1 -1.46281240496453706e-06 5.81757888625539977e-07 2.68120138598667554e-07
3 1 1.40871801740810152e-06 -3.91181572040310534e-07 -1.03791312482489215e-06
4 1 -4.56076240977470050e-07 -1.25475406074250997e-06 2.09374489016351289e-06
5 1 -1.97387281429850470e-06 1.22613831767920605e-06 -1.10086057576989889e-06
6 1 3.58159620265026521e-07 2.04658907935984946e-07 -2.10866953657124226e-06
7 1 9.10577801219416959e-07 -4.44529560337800249e-07 1.39797247697825053e-06
8 1 1.93888061822881793e-07 -2.06113637886797847e-06 6.83121979766748065e-07
8
Step 16000
1 1 -1.03789866178547817e-07 -1.38002203998607227e-06 -1.17788194141125822e-06
2 1 1.44599618630135837e-06 -6.79185927252618978e-07 -1.10314601120495933e-06
3 1 -3.69554555239354642e-06 9.71527705581995654e-07 1.77681966596306391e-06
4 1 5.17710550267821103e-07 6.01576903723235224e-07 -1.56767424027994353e-06
5 1 1.64816051726557975e-06 -7.38254417697639753e-07 -2.36367706730926947e-07
6 1 -4.27064870636914882e-07 2.94299864613702599e-07 1.94783662474855487e-06
7 1 -1.11850235288642403e-06 5.13449789778061924e-08 -3.27048268916389374e-06
8 1 6.53684352321933161e-07 2.19917304710431233e-06 1.57006126510806425e-07
8
Step 17000
1 1 3.32633099214398491e-07 -1.88832118503489974e-07 -3.31650561070867917e-07
2 1 -9.61528767838736348e-07 1.24320458258207015e-06 2.25364743905741289e-06
3 1 2.96664043301577485e-06 -1.46859674694466420e-07 -9.24973721632879515e-07
4 1 -4.79144197568184320e-07 -1.80518340381798769e-07 7.69301500100471900e-07
5 1 -1.20273072234322600e-06 6.00864478562430075e-08 1.47215221726133810e-06
6 1 4.53742874647806650e-08 -8.25073190130768010e-07 -1.48183840982539532e-06
7 1 1.73466718931447599e-06 3.46110363749595531e-07 3.83447561356117863e-06
8 1 -3.93165070362637016e-07 -1.50699121358229526e-06 -5.61928833300679708e-07
8
Step 18000
1 1 -1.16375997332250837e-06 1.08165668615057785e-06 1.69857781887897618e-06
2 1 5.19020699469104891e-08 -2.10056676363190826e-06 -2.97838133127258990e-06
3 1 -2.15317115374923098e-06 -2.16101559442074648e-07 -1.03746020790518566e-07
4 1 3.66753604540424089e-07 -1.32504429004916524e-07 5.20118054894499148e-07
5 1 8.41205096190074351e-07 3.14865617376966874e-07 -2.25126238881000986e-06
6 1 5.29110578866027856e-07 1.19544470737403841e-06 9.78506908020405764e-07
7 1 -1.85556579574094671e-06 -4.23346327451419069e-07 -2.78859009282867343e-06
8 1 -4.10718748483865426e-07 8.67730718074844161e-07 7.35148597060361217e-07
8
Step 19000
1 1 2.05545737318566402e-06 -1.31044634380420025e-06 -2.25818175870814150e-06
2 1 7.35592050350303773e-07 2.61853402270994147e-06 2.33309751116673306e-06
3 1 1.45037394562685769e-06 5.93690548660935409e-07 1.37504097108575005e-06
4 1 -4.08506655761441736e-07 -3.56671011514072811e-07 -2.20084782469637460e-06
5 1 -4.67487945722135156e-07 -4.67100838547028716e-07 2.72974152529773045e-06
6 1 -1.21160095671908316e-06 -1.46484040492934207e-06 -3.61363787130989755e-07
7 1 1.43100963133354446e-06 3.63613236058374967e-07 1.39352576694939111e-06
8 1 1.29380675998744418e-06 -3.50024635313869473e-07 -7.47125899666010512e-07
8
Step 20000
1 1 -2.16232451141541429e-06 5.55179692488927660e-07 1.65991691499139206e-06
2 1 -9.65806551847704723e-07 -2.66666142563251758e-06 -9.12203686177174364e-07
3 1 -4.76713520287869066e-07 -6.85218796217704320e-07 -2.91497517855593864e-06
4 1 8.83399447304255917e-08 1.01138370879132015e-06 2.47579387158380007e-06
5 1 -1.16729948990387897e-07 2.14849444088601409e-07 -2.18841536047496177e-06
6 1 2.20322226293282045e-06 1.47069394817786530e-06 -5.68009936978376253e-07
7 1 -1.07249516467545068e-06 -2.76648810480003357e-07 -4.54566083482404486e-07
8 1 -2.06808144772106039e-06 -1.08436147687280611e-07 6.40946964354707094e-07
8
Step 21000
1 1 1.36292202273794374e-06 4.96956608829825475e-07 -7.78462540887948132e-07
2 1 7.23719816185906625e-07 2.40732055309085162e-06 -3.85763341203621140e-07
3 1 -5.57208294558214356e-07 2.49138793629114010e-07 4.08800929315092710e-06
4 1 3.96018631382080713e-07 -1.28271267136744112e-06 -1.69064676092130902e-06
5 1 6.94155075117862562e-07 1.60206857309217064e-07 3.05167589401157412e-07
6 1 -2.16753398183831562e-06 -4.65211497510735296e-07 1.23013676673868393e-06
7 1 4.47762278210781858e-07 2.22924553128463597e-09 -3.27769888403465397e-07
8 1 2.29348175321743709e-06 1.35173034485249829e-07 -1.45710600959348515e-07
8
Step 22000
1 1 -1.10934830248765614e-06 -1.22303652880751349e-06 2.80620329355862744e-07
2 1 -1.44401189118109633e-07 -1.91123013117777585e-06 1.22664590975841046e-06
3 1 1.14355877908249764e-06 3.91220186634801131e-07 -3.47059712049204101e-06
4 1 -6.66944613030624972e-07 1.72743236807996167e-06 7.54288528765780485e-07
5 1 -9.29470659359555883e-07 -4.04313587052432121e-07 2.08456522329273805e-06
6 1 1.40145598869366647e-06 -5.10278661199268101e-07 -1.70011069894081102e-06
7 1 2.68845252895898871e-07 3.45709828774117706e-07 8.77449538354169652e-07
8 1 -8.21635675825797644e-07 -2.73715353812411345e-07 -6.28450539001330731e-07
8
Step 23000
1 1 1.12285273454711398e-06 1.85470133101240190e-06 1.81876073847047645e-07
2 1 -7.33397714392909582e-07 1.34733313736918527e-06 -1.55809665383047704e-06
3 1 -1.24936087178965313e-06 -4.83232349726626384e-07 1.52408492236038424e-06
4 1 6.97133693920350847e-07 -2.19925890280112720e-06 4.69217080190441605e-07
5 1 7.28618468250790756e-07 2.03218121284352775e-07 -3.47586880580454012e-06
6 1 -8.34240098611252826e-07 1.16585217093694259e-06 2.11345882692147878e-06
7 1 -2.97558678502573918e-07 -4.34706387195151814e-07 -9.05367268768904643e-07
8 1 -3.94828836386585846e-07 5.57241237469661260e-07 1.25343982519776216e-06
8
Step 24000
1 1 -1.37154185289912643e-06 -2.34018536377637008e-06 -5.98816301959607795e-07
2 1 2.49445646807454701e-06 -8.28219475678816534e-07 1.30015230480633307e-06
3 1 1.18859771132988841e-06 5.45431541993358166e-07 -5.79607170853637996e-07
4 1 -6.08783627765984604e-07 2.27718775648178899e-06 -1.55115493842033193e-06
5 1 -2.08178943535621528e-07 6.02635860336972595e-07 2.58281264600606179e-06
6 1 2.71190877035315332e-07 -1.36639655570250038e-06 -2.44849403514771408e-06
7 1 -3.17409241793190273e-07 3.65126585328718122e-07 5.51810728117182783e-07
8 1 8.44134723943677669e-07 -8.99342394873550750e-07 -1.92159906807200750e-06
8
Step 25000
1 1 1.80012642316641927e-06 2.44006365069035960e-06 7.54225864900810146e-07
2 1 -3.40133420811530273e-06 6.54021376028587194e-08 6.76142264353152466e-07
3 1 -6.21167499535928787e-07 -2.85450617014697841e-07 1.05697339087099401e-07
4 1 6.92105017978698288e-07 -1.87053283038763489e-06 1.97245080390447503e-06
5 1 -1.16638082985185829e-07 -1.01098257986058267e-06 -9.20352509823509891e-07
6 1 1.49470632750339627e-07 9.47899901505188472e-07 2.33986775885144765e-06
7 1 9.34653360622091629e-07 -3.12691532455235715e-07 -1.76587196580238812e-07
8 1 -7.95762724944347459e-07 1.53095266895591085e-06 2.76233620402261858e-06
8
Step 26000
1 1 -2.06651503576474671e-06 -1.98898011229796353e-06 -4.02330137984328303e-07
2 1 2.21564913274602209e-06 3.59193418401159714e-07 -2.12957558778555738e-06
3 1 -2.51424455052174290e-07 -2.04427849799348715e-07 -6.75188330488342688e-09
4 1 -1.11091871466938043e-06 1.45746804008072639e-06 -2.34457647288020843e-06
5 1 2.88652388820033998e-07 1.30479309617210961e-06 1.15579874820392702e-07
6 1 -2.98664925371571993e-07 -1.36736362277490565e-07 -1.42163763352727177e-06
7 1 -1.08465436364887013e-06 2.88417633520769065e-07 -1.16196204989700655e-07
8 1 4.10538525063953071e-07 -1.83277376424024371e-06 -2.49637179533690207e-06
8
Step 27000
1 1 1.89744629088972365e-06 1.34765701487271240e-06 -3.76055528465228265e-07
2 1 -4.39658838976315561e-07 -3.44023235534579449e-07 2.28863009295151265e-06
3 1 9.76837607690584115e-07 6.00023494210963790e-07 1.45338143631308257e-07
4 1 1.44572262472756921e-06 -2.01591036130152085e-07 2.15263163601619943e-06
5 1 -2.94179762048176840e-07 -1.54142304590812057e-06 3.52424631714662019e-07
6 1 4.34727274856282746e-07 -6.63792436798838876e-07 -2.54637790743791952e-07
7 1 7.18881167070709451e-07 -1.53853374416653205e-07 5.22037336329588943e-07
8 1 -1.91238160169371920e-07 1.45103905947786812e-06 1.61207128046619232e-06
8
Step 28000
1 1 -1.28589420373762158e-06 -8.39790167028303184e-07 8.40178138999377453e-07
2 1 -9.54011927815136499e-07 7.22330822956711856e-08 -1.76991813698241922e-06
3 1 -1.37544922080819291e-06 -8.03161349580358782e-07 -4.35451937400138930e-07
4 1 -1.27676985002539712e-06 -1.28888150844800727e-06 -1.14744109764865309e-06
5 1 1.04256447221419373e-07 1.63699616847747250e-06 -5.06023327286589918e-07
6 1 -5.16122422333277861e-07 1.55063775003836589e-06 2.22296964834321410e-06
7 1 -2.43666865192520286e-07 -1.95562313265479910e-07 -1.09698220451712893e-06
8 1 3.05674789729241970e-08 -9.95978479580307821e-07 -7.71570853285998547e-07
8
Step 29000
1 1 7.55901361909996717e-07 6.74653093350395156e-07 -8.48088342634774895e-07
2 1 1.89115363453199761e-06 2.37523697676171621e-07 9.46972884496847605e-07
3 1 1.34540702947950646e-06 8.81233703395076597e-07 8.94175870200095100e-07
4 1 7.76108150044917196e-07 2.17152001073110107e-06 6.71307215934834691e-08
5 1 3.43962616615982401e-07 -1.34748927400482710e-06 4.90561041269092876e-07
6 1 4.35407731355694632e-07 -1.53444758279563043e-06 -3.06546246378568110e-06
7 1 -4.75390794822081361e-07 8.43253267606221721e-07 1.85558877660626681e-06
8 1 1.31833685749333159e-07 7.88596261407866742e-07 3.73321438919307819e-07
8
Step 30000
1 1 -5.55428254360336508e-07 -8.89061808164570920e-07 7.60591684014149769e-07
2 1 -2.93482663920680057e-06 -6.27031901225191423e-07 -9.34107564290931037e-08
3 1 -6.68543772453357869e-07 -3.41618836000053122e-07 -1.27945950664225686e-06
4 1 -1.20881986846774720e-07 -2.15567735973691792e-06 5.97639883860902949e-07
5 1 -8.55167042188459925e-07 7.48263899367402354e-07 -6.33297716630026189e-07
6 1 -3.97718073884255269e-07 1.19372995577422436e-06 2.50568673605831457e-06
7 1 1.29344561389242708e-06 -1.77497566167135457e-06 -2.60917136920920120e-06
8 1 -2.84996193349452262e-07 -4.52332580032388439e-08 -7.73044659604219205e-08
8
Step 31000
1 1 5.23745193657501273e-07 1.42442927447902568e-06 -4.63381616693329022e-07
2 1 3.82931042749189547e-06 9.34617594281798433e-07 -8.39325972969703474e-07
3 1 -3.80544999327071046e-07 -3.46758220133713645e-07 1.54662274987879984e-06
4 1 -5.84169883489740337e-07 1.62066062677301445e-06 -7.14586943359726287e-07
5 1 1.29276378681813860e-06 -2.58680061465957053e-07 1.05035207480222992e-06
6 1 3.46529149819631382e-07 -9.89499736838694869e-07 -1.43925545233229876e-06
7 1 -1.65707925523971118e-06 2.55782150299799218e-06 2.76492943710631570e-06
8 1 4.69089638033691884e-07 -8.40341378478523417e-07 -2.63367673139530504e-07
8
Step 32000
1 1 -7.69164250835320068e-07 -2.26086618732279079e-06 -1.24225431376404333e-07
2 1 -3.02604410710771668e-06 -1.10924432458811802e-06 9.57675351902132024e-07
3 1 1.05273318273540923e-06 5.63839316806169966e-07 -1.70963212535689360e-06
4 1 1.48137940887328373e-06 -2.63912995661700495e-07 1.00681706524530572e-07
5 1 -1.61788698852255349e-06 2.98717763604853101e-07 -1.80941247181536876e-06
6 1 -3.88621605455287297e-07 1.04086945105701940e-06 3.75418398585413502e-07
7 1 1.21909847464821068e-06 -2.51814980112110305e-06 -1.97913653946755829e-06
8 1 -4.51103129375236473e-07 1.66902109506174955e-06 7.70002129275471241e-08
8
Step 33000
1 1 1.49535466619358874e-06 2.80524054493117249e-06 8.18377625220831773e-07
2 1 1.54392953667237745e-06 1.11722393803437227e-06 -4.51772302211660736e-07
3 1 -1.11927915751349944e-06 -1.28816929238406729e-07 1.66326373932011566e-06
4 1 -1.36946629841252126e-06 -1.36132208627911966e-06 8.82503953491881099e-07
5 1 1.43845570841187075e-06 -7.57304390981365889e-07 2.51967556637915384e-06
6 1 5.39117291568053216e-07 -1.41845844975489820e-06 6.09721124354325248e-07
7 1 -5.13851661847910529e-07 1.74499025181034765e-06 6.37694697065607340e-07
8 1 2.14958513936399760e-07 -2.37314902448764804e-06 2.57535472877278907e-07
8
Step 34000
1 1 -2.33721832991430530e-06 -2.50086561931765553e-06 -1.17189036535737871e-06
2 1 -5.41785817204557877e-07 -9.02951941773967378e-07 -2.05354003376377487e-07
3 1 7.80791195285432249e-07 -5.49845038311328565e-07 -1.36543160245622630e-06
4 1 5.32863097693536581e-07 1.87284534291168976e-06 -1.27341999650186434e-06
5 1 -8.76714132974621547e-07 9.28205475590443290e-07 -2.11396920163133514e-06
6 1 -8.33508947946758261e-07 1.92469381064362366e-06 -1.51575442948665656e-06
7 1 9.00284240513219315e-08 -1.03463851998507293e-06 6.40065558143665172e-07
8 1 3.57052929505293185e-07 2.01779545938996901e-06 -2.86968685638939904e-07
8
Step 35000
1 1 2.40344971137830456e-06 1.48637282291732647e-06 1.12386992281066633e-06
2 1 3.54563827270791383e-07 6.20488504647379492e-07 6.25579014786188656e-07
3 1 -2.90089946684691289e-07 1.17773423879938445e-06 9.70165785432349460e-07
4 1 5.82304630966869984e-07 -9.70850255627088944e-07 9.86519793008527834e-07
5 1 7.02006264696299594e-07 -8.17891298586887553e-07 1.36264899528282943e-06
6 1 7.16402719461167670e-07 -1.64525911487678336e-06 1.56300730900136102e-06
7 1 -1.18457758960415292e-07 3.45373711966167592e-07 -1.53768972154939001e-06
8 1 -7.78037949374435913e-07 -8.13282458048276441e-07 5.04807746823485810e-07
8
Step 36000
1 1 -1.66618438571331464e-06 -5.97211927676578195e-07 -1.00758773472965395e-06
2 1 -5.21528971926344412e-07 -2.94045859632806486e-07 -6.43955311162913117e-07
3 1 -4.64283378872569400e-07 -1.78103271058134798e-06 -5.59182645101268210e-07
4 1 -1.33624012119007988e-06 -4.85967377245304147e-07 -4.48222179730817263e-07
5 1 -6.99736212312808647e-07 6.27723874824612550e-07 -8.36844731620556590e-07
6 1 -6.19833233539114382e-07 1.17138146111796618e-06 -1.07985625108892304e-06
7 1 3.36105081556598644e-07 4.79175393841410552e-07 2.00213575968064061e-06
8 1 8.80831498941532616e-07 -3.57313674078346843e-07 -8.56728902025141007e-07
8
Step 37000
1 1 7.18483913257914722e-07 2.98735677720392868e-07 9.21542331835277312e-07
2 1 1.00520330660480212e-06 -1.49900616745084958e-08 4.80512533351764560e-07
3 1 1.39950597108688320e-06 2.11886872997023189e-06 9.60118300543483521e-08
4 1 1.36042089882915497e-06 1.42839303295498124e-06 -5.81003385451921007e-08
5 1 1.08862577245416100e-06 -3.95599906999406285e-07 6.38751520397080185e-07
6 1 8.85197961404967009e-07 -9.13913271673598732e-07 5.65372678052978853e-07
7 1 -5.02022328102327422e-07 -1.32197632934053880e-06 -1.99821885439734843e-06
8 1 -7.51035045915885350e-07 1.02909228073922426e-06 1.14978922178000274e-06
8
Step 38000
1 1 5.75730922310077471e-08 -6.48036710999220152e-07 -7.49712474877829407e-07
2 1 -1.76350829385992441e-06 2.66737200577048050e-07 2.27468575713576796e-07
3 1 -1.66949490749971483e-06 -9.40281417447520386e-07 4.33754070199274424e-07
4 1 -5.78826736445947462e-07 -1.07210719953854359e-06 7.96891818784046004e-08
5 1 -1.73714367836623175e-06 1.83486531922601044e-07 -7.18546074820528477e-07
6 1 -9.43708303259797085e-07 1.86253682846483467e-07 -1.48436195692060897e-07
7 1 5.46144589191058885e-07 2.08155679294904078e-06 1.55171470796558219e-06
8 1 3.50952005053784233e-07 -8.96382680730457355e-07 -1.20544308094327889e-06
8
Step 39000
1 1 -2.50615225203796597e-07 1.39679271444821357e-06 4.68937744061315482e-07
2 1 1.85297705208585617e-06 -3.80185356902971381e-07 -1.23812379009138316e-06
3 1 1.22949181978601366e-06 -3.38626655462739867e-07 -6.79133672172959628e-07
4 1 -4.03727320714506644e-07 4.37754708414351780e-07 9.95905834394953309e-08
5 1 1.73968931742723171e-06 -8.78727216847244435e-08 8.98093823531299260e-07
6 1 1.23728890562004578e-06 1.40850364710338973e-07 2.47529959989777008e-07
7 1 -4.22223783493044210e-07 -2.52683071302888469e-06 -8.04179309054435287e-07
8 1 2.92910795029046314e-07 1.28494626955314125e-07 8.77381237098624148e-07
8
Step 40000
1 1 -2.91734845208845640e-07 -1.61464110882226338e-06 -2.14321072740097870e-07
2 1 -1.51823468867190314e-06 -3.36737219594095840e-08 1.99694755645331470e-06
3 1 -8.44732913703658751e-07 8.33867201620686050e-07 4.98131406783022078e-07
4 1 1.46014701414966932e-06 4.59149274806285361e-07 -4.08927237811289671e-07
5 1 -6.11996228829262622e-07 -2.37853284835192780e-08 -9.33927091899353942e-07
6 1 -1.61371492661700298e-06 -1.12798579616511486e-07 -7.17218914705560966e-07
7 1 1.27065464160571449e-07 1.90878834885296548e-06 1.93899111004104921e-07
8 1 -1.21230168551529386e-06 1.09592715677913712e-06 -9.82134759500960483e-08
8
Step 41000
1 1 6.87715194336332805e-07 1.42816146379378169e-06 -1.60817139635481153e-07
2 1 1.02411518395223506e-06 8.35462449557002018e-07 -2.00470830742607727e-06
3 1 7.16291158908217455e-07 -7.35172764775159190e-07 -1.35330416675558547e-07
4 1 -2.07723273787388543e-06 -1.31425538365548904e-06 7.60773645447976445e-07
5 1 -8.56527685281724350e-07 2.82932432790146837e-07 6.62087751265849141e-07
6 1 1.94028808692651096e-06 -6.30886832500365076e-08 1.43167930368407882e-06
7 1 6.86903110583657100e-08 -1.19425186244519948e-06 4.82594247075470671e-07
8 1 2.15991456708217053e-06 -2.29428817449033878e-06 -9.93768640848499453e-07
8
Step 42000
1 1 -1.16377863106396144e-06 -1.74952279293496664e-06 -3.55793981960179741e-08
2 1 -2.62066593762068706e-07 -1.29196336795940486e-06 8.86628513404137734e-07
3 1 -6.95718268304061167e-07 4.68408297346165491e-07 -4.03467315799321011e-07
4 1 1.79369392650800723e-06 1.77153267571305727e-06 -1.13902250647901230e-06
5 1 2.02729401318026581e-06 -5.09210591811043276e-07 -2.85496235762437924e-07
6 1 -1.97012310276483448e-06 3.78094036524750882e-07 -2.26784080616966252e-06
7 1 -3.39775175136095176e-07 9.09029035257330808e-07 -1.21636810122343091e-06
8 1 -2.10523250874083699e-06 1.74063105397170349e-06 1.38761444472625489e-06
8
Step 43000
1 1 1.28078191213704984e-06 1.80834736611551813e-06 5.92992438492356821e-07
2 1 1.22773076063348107e-07 1.18541530530666939e-06 4.04907408774496075e-08
3 1 7.65346452695319978e-07 2.40459929497460575e-07 9.92241630089616119e-07
4 1 -5.81566786348014683e-07 -1.83752575326868596e-06 1.47649473067528570e-06
5 1 -3.22260658573267622e-06 1.04411179727210701e-06 -3.54282347715751109e-07
6 1 9.64004427659034482e-07 -6.51902276403533648e-07 2.07696933476352875e-06
7 1 6.77909349855275777e-07 -6.58657601028088330e-07 2.18831867098913844e-06
8 1 1.54752499745316532e-06 -7.32085869815978108e-07 -1.44237817585877714e-06
8
Step 44000
1 1 -5.56735895529396948e-07 -1.34003747206742516e-06 -1.42676619000455683e-06
2 1 -3.29434253959432659e-07 -1.41026816034487919e-06 -4.46012952939282058e-07
3 1 -7.62256881947795205e-07 -7.85661426128903797e-07 -1.30288515106562798e-06
4 1 -1.59458444296682061e-06 1.82106770016174683e-06 -1.72282590803152806e-06
5 1 2.29060205665665422e-06 -1.37731905005038130e-06 8.91432601526188561e-07
6 1 7.65515599754856134e-07 5.07560104687653991e-07 -9.83049875889614486e-07
7 1 -8.74875914489797183e-07 4.55927745806849234e-07 -2.96098722619418711e-06
8 1 -1.40538257724562974e-06 2.17775700433994537e-08 1.48411423484148454e-06
8
Step 45000
1 1 -9.87751743018788525e-07 3.80070626684014133e-07 1.90999802719743964e-06
2 1 7.66317117499515254e-07 1.60361095611539291e-06 4.42530815080416221e-07
3 1 1.27459250085812606e-06 1.14048747741333378e-06 1.17606869507444753e-06
4 1 3.95801504345034083e-06 -1.78774792923021801e-06 1.86553131568721261e-06
5 1 -7.29574749580026413e-07 9.80552542866824916e-07 -7.16896932552303024e-07
6 1 -2.06729987180161816e-06 -1.22700013656851182e-07 -9.00557299099390325e-09
7 1 7.50817452183936663e-07 -3.47655972588847012e-07 2.46372247947134306e-06
8 1 1.25407604503945545e-06 7.31444055724444975e-07 -1.09816122017470379e-06
8
Step 46000
1 1 1.69986528297102679e-06 1.89042192719907610e-07 -2.08025395167847990e-06
2 1 -1.35994262539078186e-06 -1.61363209904473326e-06 2.63764275369394321e-07
3 1 -1.91914685423027173e-06 -9.30799924060548019e-07 -9.80322749562706221e-07
4 1 -3.57766245052349983e-06 1.00358816103891455e-06 -1.05316193033908307e-06
5 1 -4.45099886291581237e-07 -3.68067131468064856e-07 1.27603128187902158e-07
6 1 2.58306737960638096e-06 -2.28383427703887583e-07 4.56205046553709523e-07
7 1 -9.58022933948516862e-07 5.06183805556327463e-07 -1.30355596613980706e-06
8 1 -1.30019726663537560e-06 -1.51009122844113910e-06 1.37805379354270399e-07
8
Step 47000
1 1 -1.92490583233033900e-06 -1.37613875397792269e-07 2.19939660157292241e-06
2 1 1.58316578309494817e-06 7.96595466817470641e-07 -1.88129680383712228e-06
3 1 2.22836439370435197e-06 1.19096736136140078e-07 7.38912605684393427e-07