8
Step 0
1 1  0.000000000000e+00   0.000000000000e+00   0.000000000000e+00 
2 1  0.000000000000e+00   0.000000000000e+00   0.000000000000e+00 
3 1  0.000000000000e+00   0.000000000000e+00   0.000000000000e+00 
4 1  0.000000000000e+00   0.000000000000e+00   0.000000000000e+00 
5 1  0.000000000000e+00   0.000000000000e+00   0.000000000000e+00 
6 1  0.000000000000e+00   0.000000000000e+00   0.000000000000e+00 
7 1  0.000000000000e+00   0.000000000000e+00   0.000000000000e+00 
8 1  0.000000000000e+00   0.000000000000e+00   0.000000000000e+00 
8
Step 1000
1 1 -1.142593592365e-04   2.511189049661e-04   9.629098655491e-05 
2 1 -7.976283082569e-05   9.789040096886e-05  -3.181755970487e-06 
3 1 -2.628949113478e-05  -7.782476812771e-05   1.132388323554e-04 
4 1 -1.488834928475e-04   2.814056696209e-05   4.679024266302e-05 
5 1 -5.731371595137e-05  -2.578135161227e-05   2.284224449928e-04 
6 1  9.014569936263e-05   1.367355104810e-04  -3.101753003106e-04 
7 1 -1.585131719366e-04   8.764220578743e-05  -6.910347981862e-05 
8 1 -1.654893206509e-04   1.433394653680e-04  -1.936111138101e-05 
8
Step 2000
1 1 -5.962718145518e-05   7.077429528743e-05   1.556607759627e-05 
2 1 -9.815445882969e-05   3.414452416306e-04   9.697881472860e-05 
3 1 -4.320327551868e-05  -1.766052759865e-04  -1.470166533490e-05 
4 1 -2.420455560867e-04   2.476580676676e-04   1.113443339422e-04 
5 1 -1.964257525337e-05  -2.078150713024e-04   1.542587590643e-04 
6 1  4.834082714113e-05   3.111476016966e-04  -9.024267122382e-05 
7 1  1.984858286695e-04   4.455221190358e-05   1.375176406690e-04 
8 1  6.912320355191e-05   1.422967530940e-04   1.077232265967e-04 
8
Step 3000
1 1 -7.921999411743e-05   2.482745629967e-04  -8.161788282339e-05 
2 1 -2.875689650799e-04  -2.262010827165e-04   4.408683011048e-04 
3 1 -3.799263067211e-05  -1.233812289258e-04   1.289673024471e-04 
4 1 -1.934014746106e-04  -4.469563902090e-05   2.125054756626e-04 
5 1  3.210543726246e-04   2.071645772770e-04   8.567017190360e-06 
6 1  7.990119362680e-06   1.767549649463e-04  -1.670411704585e-04 
7 1  7.204542553708e-05   3.264547133687e-05   5.627055787306e-05 
8 1 -1.104006630926e-04   2.868375751748e-05   8.085073561078e-06 
8
Step 4000
1 1 -1.360812370549e-04   1.458970653350e-04  -3.344143408586e-05 
2 1  2.213012458953e-06  -7.079828464622e-05  -1.145954043123e-04 
3 1  6.860490004638e-05  -5.389843962402e-05   2.387408604556e-04 
4 1 -9.307119279007e-05  -2.471648238117e-04  -8.694150035513e-05 
5 1 -1.397929614501e-05  -6.520588845463e-06   8.422541746898e-05 
6 1  2.525043087786e-04   2.047858704146e-04  -1.436329588303e-04 
7 1  2.136034795004e-04   2.214671528160e-04   1.088637662124e-04 
8 1 -1.078250725151e-04  -2.089130300458e-06  -5.043389435711e-05 
8
Step 5000
1 1  1.287738429133e-04  -4.858716096429e-06  -8.888401650841e-05 
2 1  1.144921849047e-05  -5.007615041886e-05   1.951420997134e-04 
3 1  1.087229668217e-05  -2.034250275406e-04   1.598354111879e-04 
4 1  2.723288406661e-04   8.284929433518e-05   1.444189159834e-04 
5 1 -1.316420394377e-04   1.159873911906e-04  -6.017748585263e-05 
6 1  1.613762778510e-04   2.040839551628e-04  -8.327605406613e-05 
7 1  5.616025849859e-05   7.685465210412e-06  -1.956929327014e-05 
8 1  1.505706174073e-04  -7.075329759760e-05  -8.575864053698e-06 
8
Step 6000
1 1 -8.009089713213e-05   1.780940578827e-04  -7.778760761781e-05 
2 1  9.226516880066e-05  -1.532515805477e-04  -1.977269369829e-05 
3 1  3.295008962899e-04  -2.347956660382e-04   1.959116582078e-05 
4 1 -3.294578040899e-05   9.081468944821e-05   6.548694486579e-05 
5 1  4.163729546350e-05  -3.077349516391e-04   8.342542916684e-06 
6 1 -1.384914282889e-04   1.681059665292e-04  -6.124666753291e-05 
7 1 -2.015563206688e-04  -1.351968841451e-04   1.373289769733e-04 
8 1 -5.208747512878e-05   1.476664618308e-05  -9.128842132254e-05 
8
Step 7000
1 1  1.595895678187e-04  -2.150697796514e-04  -4.386262756852e-05 
2 1  6.086558875829e-05   7.987496414279e-05  -8.822594545540e-05 
3 1  4.620753736853e-04  -4.685227971912e-05   7.080151626974e-05 
4 1 -2.819715668661e-04   1.278783344488e-04   1.342566962558e-05 
5 1  1.307627604980e-04  -1.635205192108e-04   3.006104883408e-05 
6 1  2.541719104460e-04   1.867569495675e-04  -3.317044502999e-05 
7 1  2.773884123313e-04  -2.060613709219e-04   2.875158769278e-04 
8 1 -1.481360900593e-04   5.565581108721e-05   4.918739412400e-05 
8
Step 8000
1 1  8.812451142339e-05   1.867322786043e-05  -1.554615890844e-04 
2 1  1.665186765335e-04  -1.337583134261e-04   1.174175749043e-04 
3 1 -8.429982131700e-05  -4.991076398813e-05  -1.815652698245e-04 
4 1  1.031899667660e-04  -5.647998847623e-05   1.888048079237e-04 
5 1  2.913884332528e-05  -2.001665879056e-04   1.269817754031e-04 
6 1 -7.397448232930e-05  -5.723224989722e-05   2.488654166933e-05 
7 1 -2.708526387966e-04  -3.381059819473e-04   4.922583093369e-05 
8 1 -2.024570771878e-04  -1.616249945834e-07   2.192867360803e-05 
8
Step 9000
1 1  1.177206256868e-04  -9.052385792018e-06  -7.829202199603e-05 
2 1 -6.687289926639e-05  -1.139116391238e-04  -2.309725674009e-04 
3 1 -9.262933600841e-05   8.369341475791e-05   2.178206349124e-05 
4 1  4.975702476269e-04  -6.161378239602e-05   7.237243417638e-05 
5 1 -1.127682036145e-05  -2.477198860170e-04  -5.638111785262e-06 
6 1  1.123069671062e-04   2.792357428374e-04   1.008573645090e-05 
7 1  7.105063694550e-05  -1.030124871649e-04   1.546863115106e-04 
8 1 -9.152210842076e-06   2.393495148318e-05   3.530594919202e-05 
8
Step 10000
1 1  2.471097620950e-04   4.654997814534e-05  -6.496600705234e-05 
2 1 -3.420211869442e-04   1.858032052516e-05   1.395451802061e-04 
3 1  1.608850641714e-04  -2.461221134725e-04   2.573367878345e-04 
4 1  2.015796229782e-04  -4.988038140360e-05  -5.020044658465e-05 
5 1 -5.554822865786e-06   5.654710850027e-05   1.990715960708e-04 
6 1 -9.406901855670e-05   8.889661274556e-05  -8.351775798513e-05 
7 1 -1.514500870183e-04   1.890638630578e-05   1.209077211913e-04 
8 1 -4.759730311228e-05  -1.055401606534e-04   4.126835682136e-05 
8
Step 11000
1 1  2.059931746636e-04  -3.477787757036e-05  -1.656781121875e-04 
2 1 -1.210303939971e-04  -8.337995614195e-05   1.029746979404e-04 
3 1 -7.846331813360e-06   9.537825233124e-05  -1.286621653406e-04 
4 1  2.287082015317e-04  -7.567152388920e-05  -6.051605718002e-05 
5 1  1.107433910413e-04  -2.220312056564e-04   1.388526005874e-04 
6 1 -1.759451325224e-04  -7.144828536065e-05  -2.162733753151e-05 
7 1 -2.423140912166e-05   1.428060008195e-04   3.325746031991e-05 
8 1  7.682277623103e-05  -1.108468847914e-04  -1.974360051874e-05 
8
Step 12000
1 1  7.752822047379e-05  -7.316945913705e-05   9.333301287396e-05 
2 1  8.291101109389e-05   4.644464430660e-05   1.545806904318e-04 
3 1 -2.150394613814e-04  -1.035558151556e-05   9.230743012501e-05 
4 1  2.575619441524e-04   6.942328694342e-05   1.131175451945e-04 
5 1 -8.143411463672e-05  -9.827578527851e-05  -1.621000430656e-04 
6 1  3.524264928203e-05   2.047710809654e-04   8.588943452452e-05 
7 1  4.714780017195e-05  -1.058646556270e-04   1.213401448513e-04 
8 1 -8.332928584707e-05   4.186213739925e-05  -8.874564693370e-05 
8
Step 13000
1 1  9.186310713282e-05  -1.728324425601e-04  -1.864734706652e-05 
2 1  1.746063260276e-04  -1.779690208303e-04   1.033212724002e-04 
3 1 -1.940480785661e-05   1.480594839333e-06  -1.656669116151e-04 
4 1 -1.152191241871e-04  -6.234578300953e-06  -2.205031691997e-05 
5 1 -2.360956649314e-05  -6.958373843184e-05   2.892613610773e-04 
6 1 -2.252460115583e-04   1.060696111342e-04  -9.934481033970e-05 
7 1  1.583998365180e-04   1.111052207279e-04   3.604366284367e-05 
8 1 -1.388323799914e-05   1.928445740133e-06  -9.938287021795e-05 
8
Step 14000
1 1  1.389503988607e-05  -1.599215431438e-04   2.037061580227e-04 
2 1  1.236528104029e-04  -2.379543075404e-04  -6.696046888446e-05 
3 1  1.069765398901e-04   3.256532054470e-04   1.760120357566e-05 
4 1 -1.651467835650e-04   1.885176034989e-04  -1.409584018047e-04 
5 1  1.008075548265e-04   1.624445108370e-05   3.801639106134e-04 
6 1 -3.114954370224e-05  -8.910534965416e-05   7.162994317207e-05 
7 1 -4.229940335386e-05   2.792392640859e-04   6.259585845160e-05 
8 1 -1.188459769005e-04  -2.227885217787e-04  -2.048111839911e-04 
8
Step 15000
1 1 -3.282132589042e-05   6.870338804065e-05   1.306098180005e-04 
2 1 -1.353943892043e-05  -2.829095110888e-04  -1.872551782152e-06 
3 1 -1.837100440100e-04  -1.131441600830e-04  -4.343920022474e-05 
4 1  7.832753832158e-05   2.013626972794e-05   2.036879693260e-04 
5 1 -1.890340576897e-04  -1.682049342210e-04   1.493702191013e-04 
6 1  1.773288313424e-04   1.826847141476e-04   1.619100737981e-04 
7 1 -8.864797503834e-05  -5.715323057075e-05   1.239488401609e-04 
8 1 -1.881194914018e-04  -7.388115460479e-05  -2.147216974714e-04 
8
Step 16000
1 1 -1.006453422204e-04   2.929423060685e-04   2.564123011589e-04 
2 1 -7.431342124840e-05  -1.289820505602e-04   3.057361160213e-04 
3 1 -1.657853759588e-04   2.699922392102e-05  -4.382709734661e-04 
4 1  2.988297596477e-04   3.578254757566e-04   1.274542282490e-04 
5 1  1.791880861906e-04  -1.380560940761e-04   3.638511904656e-05 
6 1  3.299848595356e-05   1.180538976746e-04   1.031623061652e-05 
7 1 -1.941753684073e-04   6.010816115580e-05   1.221333207959e-04 
8 1  1.754805979278e-05  -1.390986028929e-04  -2.094783669619e-04 
8
Step 17000
1 1  2.324882450074e-05   2.112448006893e-04   1.883543153342e-04 
2 1 -1.885407665366e-04   1.807412868847e-04   2.501400154448e-04 
3 1 -1.573770912246e-04  -2.508752133447e-04  -5.152373868825e-06 
4 1  2.020689688697e-04  -1.400151260556e-04   2.995994125652e-04 
5 1  1.249531967730e-04   5.992742920323e-05   3.382874983551e-06 
6 1 -1.048575375365e-04  -1.510532088297e-04   1.181287093725e-04 
7 1 -6.645681478687e-05   1.192204748060e-05   1.511907116058e-04 
8 1 -1.522308587334e-04  -2.706554427085e-04  -1.465953835669e-04 
8
Step 18000
1 1  3.493868526797e-05  -1.757837617171e-06   2.311488245701e-05 
2 1  3.709072395189e-04   2.019320450494e-04   2.763022174337e-05 
3 1 -2.618562382448e-04  -1.164197529073e-04   8.788452006684e-05 
4 1  1.037684958955e-04  -1.444718887856e-05  -5.201601154761e-05 
5 1 -3.348832896446e-04   1.319776089708e-04  -2.516517042805e-04 
6 1  1.985516192488e-05  -2.188772173356e-04  -2.326880938270e-04 
7 1  1.861418564011e-04   6.035195121869e-05   2.800649185881e-04 
8 1 -1.528901557933e-04   5.577575080302e-06   3.993496922069e-05 
8
Step 19000
1 1  8.145259905445e-05   8.125119226063e-05   1.570652615457e-04 
2 1  1.470688224131e-04   2.581078524811e-04   1.858596905655e-04 
3 1  2.906903645957e-06   1.413828178116e-04  -1.374110465819e-07 
4 1 -1.070511560865e-04   1.706991688240e-04   6.608638121976e-05 
5 1 -2.036916388322e-04  -1.958505123109e-04   1.683854580585e-04 
6 1  3.177269398383e-05  -9.157949566296e-05   5.609922606588e-05 
7 1 -1.606329220625e-06   5.315269553718e-05   1.079133884984e-04 
8 1 -4.983356365785e-05  -3.352188256089e-04   1.356772291383e-04 
8
Step 20000
1 1  2.527260758697e-05   1.149278769054e-04  -7.418573466548e-05 
2 1  2.860636448289e-05   1.172719062052e-04   6.269240243149e-05 
3 1  1.382603382256e-04  -5.668622337570e-05  -7.726209174136e-05 
4 1 -3.200454387319e-04   2.544738788008e-04   1.059003677276e-04 
5 1 -7.328118761830e-05   3.694333833310e-05  -1.235407386857e-04 
6 1 -7.319761167158e-05  -2.079472053314e-04   1.566606438575e-04 
7 1  3.061447769838e-04   1.891347925272e-04   5.244415083981e-05 
8 1  7.070454290340e-05  -9.787908728979e-05  -7.583895125761e-05 
8
Step 21000
1 1 -1.038989315375e-04   3.225408271292e-04   5.692403064802e-05 
2 1  3.089861939047e-04   1.503143384829e-04  -2.347681292235e-05 
3 1 -2.319905263238e-04  -1.554274478388e-04  -1.829981763120e-04 
4 1 -8.545373820872e-05   1.062310117131e-05  -4.616506915071e-05 
5 1  5.214259362549e-06   4.406720679219e-05   1.086923948247e-04 
6 1  1.120175459707e-04  -1.362351033498e-04   7.974394242831e-05 
7 1  1.441188360683e-04   1.327845715408e-04   2.824753823265e-04 
8 1 -4.160128794633e-05  -9.520115668723e-05  -1.004067923972e-04 
8
Step 22000
1 1 -1.163075532290e-04   1.756720455752e-04  -2.671608384777e-04 
2 1 -4.933615510265e-05  -3.143241187448e-05   9.762848014431e-06 
3 1 -3.707925932956e-06  -1.935462264458e-04  -2.615284055025e-04 
4 1  1.142503106034e-04   1.060052834624e-04   1.289471837922e-04 
5 1 -1.336892828040e-05   5.122448999053e-05   2.860489304483e-04 
6 1 -3.540756043909e-05   2.046010515674e-04  -2.903893327103e-05 
7 1 -1.540466842448e-04   8.648090912227e-05   4.930538118979e-05 
8 1  7.289190069699e-05  -2.441997133873e-04  -3.092505323505e-04 
8
Step 23000
1 1  1.895208462997e-04   2.829805859609e-04  -2.611408454661e-04 
2 1 -1.096319117241e-04   1.861397324211e-04   5.461180362560e-05 
3 1  7.753256130766e-05  -7.877680529364e-05  -1.044829659942e-04 
4 1 -2.329461611674e-04  -1.041250579911e-05  -1.663252949260e-04 
5 1  1.345825771403e-04   9.541257418906e-07   5.024332690878e-06 
6 1 -1.013224934473e-05   5.367874762168e-05   5.904711783411e-05 
7 1  1.502993574868e-04   7.762893692316e-05   1.335397473383e-04 
8 1 -2.122617302229e-04  -6.743385193920e-05  -2.009404978499e-04 
8
Step 24000
1 1 -1.304702284028e-04  -6.933105784888e-05  -3.392807971685e-04 
2 1 -2.233347374907e-04  -9.206600086038e-05  -2.722075535737e-04 
3 1 -8.997891151542e-05   2.176192068036e-05  -6.706010312247e-05 
4 1  1.315840211409e-04   3.138739381408e-05   8.711438383143e-05 
5 1  7.529306276366e-05   3.229065646313e-04   2.941651659592e-04 
6 1  4.379500955590e-05  -2.790745249100e-05  -1.549115464781e-04 
7 1 -6.563909875671e-05  -2.161657006098e-05  -1.423770791607e-04 
8 1 -3.990285159065e-05   1.946383305144e-04  -1.472867709783e-04 
8
Step 25000
1 1  3.125491936455e-04   1.330939659586e-05  -1.253060483613e-04 
2 1 -1.183953954596e-04   4.568353937768e-05  -4.123374977511e-05 
3 1 -6.819578760978e-05  -1.357321158742e-05  -4.307375125182e-04 
4 1  8.544290051694e-06   7.871105124517e-05  -1.298511737000e-04 
5 1 -1.743400651820e-04  -7.795565365956e-07   1.122904336255e-04 
6 1 -1.660682334211e-04  -1.404640536364e-04  -9.381437785147e-05 
7 1  2.245252553988e-04   1.166758811080e-04   1.578547419441e-05 
8 1  8.615858536075e-05   1.411929814033e-04  -6.643629628413e-05 
8
Step 26000
1 1 -2.795847624564e-05  -1.237396174278e-04  -1.443355536540e-04 
2 1  1.171962615873e-05  -8.139482833308e-05   4.744821561833e-06 
3 1  1.385855289632e-04   5.710866843833e-05  -1.144756201848e-04 
4 1 -2.350810507117e-04   1.634103707061e-04   1.158355526733e-04 
5 1  5.736587193506e-05   3.656848137485e-05   9.711896903785e-05 
6 1 -5.891260431940e-06  -1.458309414061e-04  -1.148698638844e-04 
7 1  2.244466387439e-06   2.951242870972e-04   3.394929492626e-05 
8 1 -3.003451432596e-04   1.390213328854e-04   9.240311151370e-06 
8
Step 27000
1 1  9.909863910719e-05  -9.466390501260e-05   1.874781563581e-04 
2 1 -1.580197853219e-05  -1.647212180603e-05  -5.695880832581e-05 
3 1 -1.227418189117e-04   3.915241778157e-05   1.210102819165e-04 
4 1 -3.507297879449e-05   5.628709374182e-05  -5.948374056779e-05 
5 1 -1.476210137167e-04  -2.771483042215e-05   1.298818650316e-04 
6 1  1.468628714708e-04  -3.281555528812e-04  -4.719398885931e-05 
7 1  1.048556803143e-04   1.424828375206e-04   1.509343632984e-04 
8 1  1.320840295661e-04   1.289497726294e-04  -9.665676255322e-05 
8
Step 28000
1 1  5.864844581358e-05  -1.684304665903e-05   1.089610717498e-04 
2 1 -3.774022818742e-05  -4.414911240942e-05   6.347237327550e-05 
3 1 -1.360073798319e-04  -6.787728363273e-05   1.248510892991e-04 
4 1 -5.806091687532e-05  -3.952423477847e-05  -2.038826603865e-04 
5 1 -2.596893597040e-04   1.401256707706e-04  -1.248773570449e-04 
6 1  2.117031187277e-04   1.414144015066e-04   4.091185716901e-05 
7 1  1.538196363079e-04   5.020646854191e-05   2.907613283002e-05 
8 1 -2.503108091388e-04   2.271115915185e-04  -1.312548009967e-04 
8
Step 29000
1 1  2.525686001594e-04   9.768770870231e-05   2.728086881711e-04 
2 1 -2.274983374032e-04  -3.903837728586e-05   6.434530341058e-05 
3 1 -2.145067392520e-04  -8.587269513481e-05  -6.976589208485e-05 
4 1 -8.666383330455e-05   5.226190357580e-05  -9.082099018688e-05 
5 1  1.598393984940e-04  -1.234806675315e-04   3.168472521785e-05 
6 1  9.871810542952e-05  -1.490806746977e-04   4.658289297607e-05 
7 1  9.186946304393e-05  -3.007368425162e-04   1.268900606207e-04 
8 1 -1.007064305887e-04   2.887422591513e-04  -1.323151648440e-04 
8
Step 30000
1 1  1.351837724848e-04   8.618187934179e-05   1.525642088004e-04 
2 1 -1.844517397235e-04  -2.270659561939e-04   3.238597968561e-05 
3 1 -3.943282776116e-05  -1.161551275388e-04   1.803926182894e-04 
4 1  7.692622740778e-06   6.323127066525e-05  -2.732848823989e-07 
5 1 -3.299416753817e-05  -2.049007468799e-04   2.553839847198e-04 
6 1 -2.197825469495e-04  -1.632222846968e-04  -1.664723471486e-04 
7 1 -1.638107605918e-04   3.500375528066e-04   2.601621711799e-05 
8 1  2.630132871557e-05   3.438759979187e-04  -1.237059793221e-04 
8
Step 31000
1 1  2.265066811056e-04  -5.352403462949e-05   1.565085896488e-04 
2 1  1.829134382224e-04   4.092358238847e-04   1.289893769489e-04 
3 1 -1.457495167286e-06  -6.171884190499e-06   2.637628643376e-05 
4 1  2.513807451815e-04   1.189453713934e-04   1.019242023039e-04 
5 1  9.535579408780e-05   3.637505962435e-05   4.184488381843e-05 
6 1  1.685474765845e-04  -3.254306447019e-04  -3.792495143007e-05 
7 1 -6.861264732101e-05   1.306453893362e-04  -3.243679224033e-05 
8 1 -4.639336858687e-05  -3.898026249283e-05  -3.526950881648e-06 
8
Step 32000
1 1 -9.315556571596e-05  -1.214615295729e-04   4.002091090950e-05 
2 1  7.409642409870e-05  -4.933633711293e-05   9.409644301349e-05 
3 1 -4.922846704054e-05  -1.223707792863e-04  -9.226466988892e-05 
4 1 -3.004161660876e-06   8.574667567921e-05   3.276856164234e-04 
5 1 -4.375826268621e-05   9.214698603469e-06  -6.789266619311e-05 
6 1  3.730825923145e-04  -2.327389320576e-04  -4.383449576003e-04 
7 1 -1.180771931781e-04   5.538253928586e-05  -6.720484384803e-05 
8 1 -2.132618597764e-04   4.985074763109e-05   3.618773472373e-06 
8
Step 33000
1 1 -1.382660958635e-05   1.542629689193e-04  -8.116378868112e-05 
2 1 -2.728570311684e-05  -1.097187426300e-04  -8.359980501359e-05 
3 1  4.663828131005e-04   1.695100595276e-05   8.098731206809e-05 
4 1  3.562606390600e-04   1.864530063404e-04  -3.296587772275e-06 
5 1  9.332206458965e-05  -5.387639160467e-05  -4.288367689017e-05 
6 1 -1.234344344257e-04  -8.576464142441e-05  -1.840464356620e-04 
7 1  4.031575942996e-05   3.424780931539e-06   1.621858633098e-04 
8 1  3.021517607290e-05  -9.966010118477e-05  -9.236254199378e-05 
8
Step 34000
1 1 -1.589600182971e-04  -1.009448992872e-04   2.702294708562e-04 
2 1 -1.031479329847e-04   9.331331084506e-05   1.809712645208e-04 
3 1  1.819262162543e-04  -1.855077663736e-04  -1.016628455890e-05 
4 1  3.273233980740e-05  -4.522029937126e-05  -1.588779878174e-04 
5 1 -2.362967341108e-06   1.317287122984e-04   2.035967775964e-04 
6 1  4.025275820792e-04  -1.770644517817e-04   3.631398015566e-05 
7 1  1.386510784465e-04   9.607263540398e-05  -1.882555205168e-04 
8 1 -1.995883666999e-04  -9.571789668621e-05  -3.050625605185e-05 
8
Step 35000
1 1 -4.020496196471e-05   5.795465007142e-06   8.484360298358e-06 
2 1 -7.296115883416e-06  -4.740536632090e-05   3.797465248882e-05 
3 1  1.726288802388e-04  -9.215961782722e-06  -1.530263198894e-04 
4 1  2.043829854905e-04  -1.965542345093e-05  -4.158616345415e-05 
5 1  3.433763876435e-05   2.030259621052e-04  -1.099104378590e-04 
6 1  1.584287276735e-04  -2.216636282558e-04  -2.422564479095e-05 
7 1 -2.360529403175e-05   9.924593155385e-05  -2.923054182382e-05 
8 1 -1.990851051450e-06  -1.419143545138e-05  -9.220544560535e-05 
8
Step 36000
1 1  1.108806517885e-05  -6.428386800141e-05   3.702860976174e-04 
2 1  8.528309830738e-05  -3.486739097424e-05   7.135164614324e-05 
3 1  1.058851395087e-05  -7.162578313621e-05  -6.514520906276e-05 
4 1  1.759465891296e-04   2.681294780026e-05  -1.111815025395e-04 
5 1 -1.756153305850e-04  -7.313639305316e-05  -1.271401862043e-04 
6 1  1.647799443218e-04   1.633806136183e-04  -3.620612867769e-05 
7 1  1.474868062424e-05   2.169190982173e-04   2.400367086900e-04 
8 1  1.367767657903e-04  -1.971074130299e-04   7.068781941587e-05 
8
Step 37000
1 1  2.237907231894e-04  -7.159387339426e-05  -6.640625897442e-05 
2 1 -6.279857848705e-05   2.160199718775e-04  -9.702688350145e-05 
3 1 -1.839659078133e-05  -8.222592826680e-05  -4.035074526949e-05 
4 1 -5.006375974821e-05  -9.189204273659e-05  -2.035533755119e-04 
5 1 -2.886986345000e-04  -4.470816842121e-05   1.117487273676e-04 
6 1  2.601004029301e-04  -7.302180310292e-05  -2.776994380274e-05 
7 1  1.211732388988e-04   5.254670771117e-05  -1.288491334991e-04 
8 1 -1.477478220374e-05  -7.178864376529e-05  -8.150466245793e-05 
8
Step 38000
1 1  1.929847213879e-04   3.908675236097e-05   1.093734488565e-04 
2 1  1.345766550008e-05   4.521044743646e-06   9.459981425520e-06 
3 1  3.000297985217e-04   7.674329964783e-05   1.192032652870e-04 
4 1  1.702099836345e-04  -1.447214794276e-04  -4.245464666827e-06 
5 1 -3.722335889226e-05   1.057436600482e-04  -8.282138172899e-05 
6 1  8.306003586006e-06  -1.625610207010e-04  -1.515531053547e-04 
7 1  6.942316881222e-05   1.350098666748e-04  -4.426316054102e-05 
8 1  1.254891190500e-04  -6.577014002775e-05   2.698649147760e-04 
8
Step 39000
1 1  1.278821277069e-04   1.181928345128e-04  -2.348821948338e-04 
2 1 -1.916948542384e-04   2.981167231648e-04  -1.661724872917e-04 
3 1 -1.467439512323e-05   3.097050991337e-05   6.954255321952e-05 
4 1 -1.275801319821e-04   1.877177552122e-05   2.528793409786e-04 
5 1 -2.877952817647e-04  -1.227757161813e-04   7.237097535293e-05 
6 1  1.254528125073e-04  -2.026695103885e-04  -1.396742201531e-04 
7 1  1.429237256475e-04   1.445157973584e-04  -1.954301526941e-04 
8 1 -5.559549893460e-05  -4.625986969055e-04  -1.867889722893e-04 
8
Step 40000
1 1  9.546084432664e-05  -1.666026857473e-04   2.747633176042e-06 
2 1  1.007252618935e-04   1.233455143720e-04   1.562883043144e-04 
3 1  1.913627440655e-04  -8.458407971045e-05  -9.085399744751e-05 
4 1 -1.008302409572e-05   2.260286365894e-04  -1.964462324022e-04 
5 1 -1.013062256289e-04  -1.226810470272e-04  -3.800940999539e-05 
6 1  2.550565923159e-04   6.192019062506e-05   1.044392434508e-05 
7 1  1.149335369220e-04  -8.165692746742e-05  -1.542752400944e-04 
8 1 -1.060222754081e-05  -4.572272389439e-05   1.861398204517e-04 
8
Step 41000
1 1  8.922912852554e-05   7.385697987174e-05  -1.430741427221e-04 
2 1  5.751088168825e-05   2.965426377161e-04  -9.002420429650e-05 
3 1 -5.326101320140e-05   1.217031811673e-05  -1.992047737023e-04 
4 1 -3.503837283538e-04  -1.627573445058e-04   2.016961893743e-04 
5 1 -3.945416790543e-06  -6.274041687658e-05  -1.747112761364e-04 
6 1  2.085193216567e-04  -1.676451970567e-04  -6.367536867034e-05 
7 1 -1.257467710186e-04  -9.002216449925e-05  -5.209719740276e-05 
8 1  2.658321915420e-04  -2.362944267712e-04   3.153960131261e-05 
8
Step 42000
1 1  1.883213490665e-05   1.574210546115e-05   3.858009294120e-05 
2 1 -5.136610210997e-05  -5.010961485471e-05   8.884294916846e-05 
3 1  3.451400973832e-04   1.143609458512e-04  -1.570799742321e-04 
4 1 -2.382348636336e-05  -1.173186812633e-04  -3.569316597978e-05 
5 1  1.230457559085e-04  -1.692600262015e-05  -5.778589401885e-05 
6 1  3.426385961811e-04  -1.320342158002e-04  -1.898802362968e-04 
7 1 -9.225945042295e-05   1.775658725526e-04   6.759538738212e-06 
8 1  8.719259807280e-06  -2.141712336669e-04   1.821511211006e-04 
8
Step 43000
1 1  2.982623578666e-05   3.045142514905e-05   9.168622270171e-05 
2 1  2.022306510948e-04   4.897326308590e-05  -2.039951664175e-04 
3 1 -1.837273378016e-04  -3.934512175916e-05  -6.270880032545e-05 
4 1 -7.334313768279e-05   6.899013612370e-05  -1.887587477470e-04 
5 1  6.239854013739e-05  -2.055160071799e-04  -1.273395095301e-04 
6 1 -1.298849439096e-05  -1.639221783970e-04  -3.155979126953e-05 
7 1 -5.161143639332e-05   2.735917776360e-05  -1.093673811393e-04 
8 1 -1.464770218072e-06  -1.122801965647e-04   1.618273641539e-04 
8
Step 44000
1 1  2.353406402281e-04  -1.212230396443e-04   4.649083454130e-05 
2 1  9.644258206857e-05  -1.295143475622e-04   6.590902300058e-05 
3 1  1.984932867304e-04  -2.987570433500e-04   1.516681153632e-05 
4 1  1.721572356177e-04  -8.384822550622e-05  -2.803359941855e-04 
5 1  2.205703698254e-05  -1.169494121025e-04  -2.251448048074e-04 
6 1  1.435575540530e-04  -1.192623854781e-04   9.244192816086e-05 
7 1 -2.116573985506e-04   1.548834088663e-05  -6.935091753296e-05 
8 1  9.250683070715e-05   6.039059395944e-05   8.406210479785e-05 
8
Step 45000
1 1 -7.039426100823e-05  -1.181698165416e-04  -7.629080339347e-05 
2 1 -5.852420110336e-05  -2.505640091914e-05   7.425429160380e-05 
3 1 -8.235930129278e-05   2.001321637641e-05   1.394411790819e-04 
4 1 -2.922422182351e-05   9.682003913878e-05  -5.479868290475e-05 
5 1  7.913171604474e-05   4.254390998957e-05   7.682411589387e-05 
6 1  2.247166453502e-04  -2.199288630631e-04  -4.701858953143e-05 
7 1  7.008951806650e-05   3.299056668084e-04   7.513401453236e-05 
8 1 -9.749845044881e-05  -1.582009160019e-05  -4.435701851378e-05 
8
Step 46000
1 1 -1.426338482754e-04  -2.844835210463e-04  -1.947765353290e-04 
2 1  1.962568895952e-04  -3.491533475412e-05  -3.160175966289e-05 
3 1  1.626377701931e-05  -2.182023922351e-04   1.191313521411e-04 
4 1 -3.585112605784e-05   3.926402738093e-05   1.078152694838e-04 
5 1  3.611979351873e-04  -2.104665312548e-04   4.461521045974e-05 
6 1  7.866820998638e-05  -7.453544435707e-05  -1.674831737655e-04 
7 1 -1.687855580308e-04   1.044903466622e-04  -2.176763612245e-05 
8 1 -6.980251621426e-05  -4.441791096935e-05   5.666609187221e-05 
8
Step 47000
1 1 -4.893223163225e-05   5.881409121655e-05   1.952114135507e-04 
2 1 -1.017983269306e-04   2.872373519593e-04  -9.674123882470e-06 
3 1  6.112957667632e-05  -4.267715174702e-05   1.853860284456e-04 
4 1 -2.677322085540e-04   2.833264341773e-05   2.876010514441e-04 
5 1 -1.920299059061e-04  -1.935813065934e-04   2.218914759015e-04 
6 1  2.996803632120e-04   2.599353694647e-04  -2.151427933758e-05 
7 1 -7.957922382263e-05  -7.576303690811e-05  -2.778312726091e-04 
8 1  2.578203544394e-04   5.936883909321e-05  -1.295081137068e-04 
8
Step 48000
1 1 -1.172453902455e-04   5.723621003751e-05   3.597945355561e-05 
2 1  7.748935616985e-05  -2.105647223712e-05  -4.730925260960e-05 
3 1 -1.582506548367e-04  -2.215145742933e-04  -1.553867420651e-04 
4 1  1.688657140331e-04   1.666716750509e-04   1.605017102466e-04 
5 1 -1.805805993282e-04  -9.281788113400e-05   1.756624123301e-04 
6 1  2.244125964668e-04  -2.466361780289e-04  -8.724881017379e-05 
7 1  1.623710079614e-05   2.154609793258e-05   5.916701889319e-05 
8 1 -1.369314685455e-04  -1.144636154245e-04  -1.364655874343e-04 
8
Step 49000
1 1 -2.876012510834e-05   2.318830204621e-04   1.451814382090e-04 
2 1  3.472977479796e-06   8.136765744518e-05   6.896231899702e-06 
3 1 -2.452905168482e-04  -1.747922119419e-05  -5.255904669581e-05 
4 1 -1.463503692811e-04  -8.777816165436e-06  -4.422000865391e-05 
5 1 -3.490109865680e-04   3.533072805294e-05   1.980762423980e-04 
6 1  1.470234185272e-04  -7.529257649674e-05   8.682195702617e-05 
7 1  3.294474710502e-05  -7.317765351223e-05   4.995110064875e-05 
8 1  2.406987761617e-07   2.687056422880e-06   7.918521397485e-05 
8
Step 50000
1 1 -1.024836016657e-04  -1.504950219297e-04  -3.007917844234e-05 
2 1 -2.702674992656e-04  -2.937992554346e-05  -2.179205571584e-04 
3 1  9.922623913718e-05   6.892103632387e-06  -7.914463302194e-05 
4 1 -2.793773072686e-04   4.007074815066e-05  -1.345400337436e-04 
5 1 -1.114430443266e-04  -9.102818021874e-06  -3.931631102919e-05 
6 1 -2.546993695116e-06  -1.651056129240e-04   1.707490154216e-05 
7 1 -1.038369579811e-04  -8.941747919262e-05  -6.911786091531e-05 
8 1  4.522865277344e-05   7.569180059520e-05   2.048242612650e-04 
8
Step 51000
1 1  1.822481550761e-06   5.687758061522e-05   8.075585646993e-05 
2 1  3.565582113966e-05   1.415314433540e-05  -4.341512820725e-05 
3 1 -2.337264250523e-04  -2.919906604349e-04  -1.342258922376e-04 
4 1 -1.380907334420e-04   1.504877906035e-04  -1.073738703725e-04 
5 1  7.475866952290e-06   7.589606246740e-05  -2.769103292722e-04 
6 1 -1.477618661655e-06  -1.276805132952e-04   5.503263260676e-06 
7 1 -3.786403788345e-05   2.220333670862e-04   2.235753035646e-04 
8 1  2.988053250537e-05  -7.754175870687e-05   2.260200847481e-04 
8
Step 52000
1 1 -2.384248796087e-04  -1.285149440473e-04   2.565004669973e-05 
2 1  1.202313412314e-04  -6.124780140948e-05  -4.401956462084e-04 
3 1 -1.727538388973e-04  -1.103854771162e-04   1.243490803260e-05 
4 1  1.720304696613e-04   1.171269778904e-04  -2.221477273172e-04 
5 1 -1.980910932231e-04   4.720190463569e-05  -1.076891330951e-04 
6 1 -4.981636775083e-05  -1.318250366955e-04   1.339250801873e-04 
7 1 -3.159596645345e-05   1.715536140813e-04   5.206235866379e-05 
8 1 -4.270552664294e-05  -6.287732524822e-05   1.654253856743e-04 
8
Step 53000
1 1  3.347434337783e-05   2.278106330547e-05  -4.150257972576e-05 
2 1 -1.219400378417e-04  -1.778497156339e-04  -4.080624606609e-04 
3 1  3.563656796360e-05  -2.146165508387e-05  -2.390717578204e-04 
4 1  5.874508232346e-05  -2.320542802083e-04  -3.380041708076e-04 
5 1  1.882559386894e-04  -2.299503154167e-04   1.445461336044e-05 
6 1  1.222269109509e-04  -1.623107184093e-05  -2.195915775053e-04 
7 1 -1.875460844384e-04  -1.667331592810e-05  -7.974808412031e-05 
8 1 -4.322072368636e-05   2.078364744247e-04   2.003022082360e-04 
8
Step 54000
1 1 -1.470441077121e-04   1.309209852922e-04   3.768902525580e-05 
2 1  1.293940675872e-05  -1.947670083253e-04   8.925160772374e-05 
3 1  2.167885116344e-04   2.704743662087e-05  -9.893266414916e-05 
4 1  5.533897703535e-05   3.528024223171e-05   7.639231535160e-05 
5 1 -7.971323991476e-05  -2.630199382764e-04  -9.595774785771e-05 