8
Step 0
1 1 0.00000000000000000e+00 0.00000000000000000e+00 0.00000000000000000e+00
2 1 0.00000000000000000e+00 0.00000000000000000e+00 0.00000000000000000e+00
3 1 0.00000000000000000e+00 0.00000000000000000e+00 0.00000000000000000e+00
4 1 0.00000000000000000e+00 0.00000000000000000e+00 0.00000000000000000e+00
5 1 0.00000000000000000e+00 0.00000000000000000e+00 0.00000000000000000e+00
6 1 0.00000000000000000e+00 0.00000000000000000e+00 0.00000000000000000e+00
7 1 0.00000000000000000e+00 0.00000000000000000e+00 0.00000000000000000e+00
8 1 0.00000000000000000e+00 0.00000000000000000e+00 0.00000000000000000e+00
8
Step 1000
1 1 -1.22676301894880877e-06 -7.66948319916048727e-07 9.47435258501802458e-07
2 1 -1.08638749572639422e-06 2.37987884561392450e-06 -1.10191529530071373e-06
3 1 -2.09250973604513207e-06 2.54830432075503185e-06 -2.17267640930498760e-06
4 1 -2.60832061254315045e-06 2.03529169018842878e-06 9.66786710987359275e-07
5 1 -1.48822130318230932e-06 2.06465425969420162e-06 -5.06223977446683953e-07
6 1 7.46878137014680980e-07 -4.35725652559481145e-06 -6.07199915637870119e-07
7 1 -8.82563500312018642e-07 2.37443589097541947e-06 2.36728646050443204e-06
8 1 2.56148681122355621e-06 -6.66237536287952951e-07 -1.12892526302777967e-07
8
Step 2000
1 1 -9.57977552007720778e-07 -7.40057651844427077e-07 -5.31876584907282419e-07
2 1 -7.34972647532935279e-07 1.21936290261796985e-06 -9.96611155419885914e-07
3 1 -1.36281780863979142e-06 1.08155472648086795e-07 -1.70825844844673307e-06
4 1 -1.28939839250621864e-06 1.57608054169345959e-06 4.18831897605682554e-07
5 1 3.81346936147126512e-07 4.61711127571149640e-07 -1.49033352505619524e-07
6 1 -6.39474926833358629e-07 -3.11211696214911733e-06 1.13430483703585380e-06
7 1 -5.37238152792645417e-07 3.97751242470734832e-07 1.76993815461154414e-06
8 1 3.22675133244162649e-07 -1.71948376154635602e-06 1.82421746235331477e-07
8
Step 3000
1 1 -3.15220590474014469e-07 -5.17535543340638951e-07 -2.00149973149640514e-06
2 1 1.43223118222984616e-07 -5.50169508927371135e-07 -4.31332199249825613e-07
3 1 -8.80414398497907989e-08 -2.32945420117860461e-06 -8.84450851427331588e-07
4 1 5.78167282995390909e-07 3.68904210126658213e-07 -6.86464573329510149e-07
5 1 2.08173714233188674e-06 -1.47528151559768598e-06 -1.22440608203652302e-07
6 1 -1.80302534895672856e-06 -4.17017273868214984e-07 2.65657484541750616e-06
7 1 -1.45879492721108626e-07 -1.77256338308579070e-06 4.59216410394263508e-07
8 1 -1.97732866969185506e-06 -1.71060335964373444e-06 5.37687259116347495e-07
8
Step 4000
1 1 7.89763817408123743e-07 1.19220148145443590e-07 -2.87075004734632156e-06
2 1 6.02566328089954895e-07 -2.09517146303500978e-06 7.57148443786051542e-07
3 1 1.03771162371054243e-06 -3.38477823372703834e-06 2.39681428932208388e-07
4 1 2.03586810134888702e-06 -9.36433386178217667e-07 -1.71550240730363301e-06
5 1 2.77746683399082140e-06 -2.81350744379399327e-06 -1.17117413311713622e-07
6 1 -2.30317234651846769e-06 1.98093821354411658e-06 2.76515769811490836e-06
7 1 1.40568250099004598e-07 -3.11040811010144902e-06 -8.95066615447297913e-07
8 1 -3.30148567104496715e-06 -6.51832287807938637e-07 7.18302388953439503e-07
8
Step 5000
1 1 1.41711279266038646e-06 8.50479896854487654e-07 -2.24549653718540405e-06
2 1 3.89567866460248006e-07 -2.44874560920194251e-06 1.70311148509801600e-06
3 1 1.66190242128500744e-06 -2.89001660763203826e-06 1.19887343948748628e-06
4 1 2.46524044690548383e-06 -1.84315327656963231e-06 -2.20480582096455918e-06
5 1 2.22060201106045545e-06 -3.01973366835481302e-06 1.26052001838509519e-07
6 1 -1.85890971398932038e-06 3.25522933406752174e-06 1.68444499658688931e-06
7 1 2.48529222619389454e-07 -3.11640820000116131e-06 -1.70269320891369545e-06
8 1 -3.12437443320132745e-06 8.92866189061043673e-07 6.45697067306199518e-07
8
Step 6000
1 1 9.83491423739521703e-07 1.23994073518519808e-06 -4.97383436776123526e-07
2 1 -1.39703545569852938e-07 -1.36805359791458954e-06 2.17054441301191381e-06
3 1 1.82561972353327417e-06 -1.29229406173870236e-06 1.72229402817515344e-06
4 1 1.84682071846230087e-06 -2.00282578581111404e-06 -1.97055012813403678e-06
5 1 7.87833687778526949e-07 -2.00409839100764044e-06 5.94297305905336487e-07
6 1 -9.40909485213267925e-07 3.01949086536160160e-06 1.62822524283463886e-07
7 1 2.64171094860293262e-07 -1.92840099351534600e-06 -1.73521989155873530e-06
8 1 -1.62022231679746884e-06 2.05449008861136765e-06 2.96193114970097280e-07
8
Step 7000
1 1 -1.02039900693411572e-07 1.27409683370308823e-06 1.36309468915568659e-06
2 1 -7.54778534441339439e-07 3.54010960777273080e-07 2.18040352859153351e-06
3 1 1.54331066339936200e-06 8.00764105674348387e-07 1.84533225236198994e-06
4 1 6.36728012603354644e-07 -1.43971559998408870e-06 -1.03179446321340693e-06
5 1 -7.27630041659397839e-07 -1.98761221132339207e-07 1.13449283884384108e-06
6 1 3.38364851832785391e-08 1.35792907392653086e-06 -1.34267487440642376e-06
7 1 2.89077916386152847e-07 -1.86289532320190265e-07 -1.09222115161545760e-06
8 1 4.54867328099187761e-07 2.16894730790740255e-06 -3.46745163034890486e-07
8
Step 8000
1 1 -1.04394170448519313e-06 9.46234172184044712e-07 2.61512253475652447e-06
2 1 -1.07539046143365072e-06 1.72909495500236164e-06 1.23984779367884292e-06
3 1 8.29836088819883551e-07 2.28261601362155143e-06 1.46364046660024301e-06
4 1 -6.15377852329440957e-07 -3.93511924660689060e-07 2.35041353872672532e-07
5 1 -1.62869760620158894e-06 1.52731513647197420e-06 1.40482784521990731e-06
6 1 9.03093210399441911e-07 -6.44919193964693359e-07 -2.04621482015911637e-06
7 1 3.64410011386379590e-07 1.30230496760934632e-06 -1.30460221930593885e-07
8 1 2.13086875125050369e-06 1.19136801232238089e-06 -1.05419637913018504e-06
8
Step 9000
1 1 -1.55165837063962282e-06 1.21292045098485477e-07 2.93409245411266930e-06
2 1 -6.06507065813889015e-07 2.38452674618950333e-06 -7.16839240097827754e-07
3 1 -7.06487065842664444e-09 2.53651473023535790e-06 6.41374385863888747e-07
4 1 -1.34051795955588840e-06 6.72803003924030708e-07 1.26911355670085888e-06
5 1 -1.61338927920133957e-06 2.46381910996940612e-06 1.16331536670778580e-06
6 1 1.41024865199888822e-06 -2.07213991461860021e-06 -1.72250013023731838e-06
7 1 4.43709997252509769e-07 1.95974187670014126e-06 6.64834174988544894e-07
8 1 2.73672123709366220e-06 -3.23563652322229259e-07 -1.47740233134275836e-06
8
Step 10000
1 1 -1.39887208297480153e-06 -7.31380747965731630e-07 1.90097068537168754e-06
2 1 4.92958523637640027e-07 2.02152147546266815e-06 -2.53011430787176720e-06
3 1 -7.34999094186351960e-07 1.58300559431632540e-06 -3.94307230460637427e-07
4 1 -1.29647972943889504e-06 1.30947425584924160e-06 1.70531317239391175e-06
5 1 -8.56583906656609610e-07 2.35226468727662723e-06 4.44064901050107357e-07
6 1 1.41945364112325345e-06 -2.48429855920124660e-06 -7.26565412182593258e-07
7 1 4.98738856506586911e-07 1.70889044393342948e-06 9.33378608167156596e-07
8 1 2.18419642911602218e-06 -1.59800691140378099e-06 -1.42371781159486229e-06
8
Step 11000
1 1 -4.31597562207392759e-07 -1.15052202731954593e-06 -6.22164168539262929e-08
2 1 1.46903439182332170e-06 6.10874810371056065e-07 -3.37061770387118177e-06
3 1 -1.21294501609251939e-06 3.49451695176565662e-08 -1.35069824326917259e-06
4 1 -7.23022424466945259e-07 1.31643158452307018e-06 1.51654245882012236e-06
5 1 1.16993742912170084e-07 1.30785106117660937e-06 -5.30051110490523359e-07
6 1 1.05818680780614454e-06 -1.66325416489288304e-06 5.43878388591427996e-07
7 1 4.58058079198916774e-07 8.43976957173380700e-07 6.64330142522919608e-07
8 1 8.95475398268585946e-07 -2.06489109683718642e-06 -9.45488911652664401e-07
8
Step 12000
1 1 8.36940780698273738e-07 -1.01390466987858497e-06 -1.82612214765569133e-06
2 1 1.89093375605511519e-06 -1.04646297834531545e-06 -3.12838365941624014e-06
3 1 -1.40544904093066341e-06 -1.42527483432310042e-06 -1.86561992315247645e-06
4 1 -7.69348256047409404e-12 8.10324380853168244e-07 9.12946974794058674e-07
5 1 7.99351444237342514e-07 -1.81307882131348943e-07 -1.37551248067276202e-06
6 1 3.41686293266545582e-07 -9.69511955328566464e-08 1.47213305494168094e-06
7 1 2.39412024446861318e-07 -1.63296229915768710e-07 9.64986487913135613e-08
8 1 -4.16390356877409778e-07 -1.63453869848819820e-06 -1.06608373056654117e-07
8
Step 13000
1 1 1.65141979473518033e-06 -5.44715180940726711e-07 -2.71088266167559290e-06
2 1 1.43826346317684055e-06 -1.99948650320870038e-06 -1.63797486426884393e-06
3 1 -1.17434413540429458e-06 -2.20155649357418824e-06 -1.70680436065919539e-06
4 1 5.50951111888784049e-07 5.95817941824614758e-08 2.05182250221182164e-07
5 1 8.97960379067995014e-07 -1.44689334283037060e-06 -1.70010404009176276e-06
6 1 -5.31679289664374179e-07 1.36418629920753404e-06 1.54070095448730546e-06
7 1 -1.82269744293814978e-07 -8.80986201112281138e-07 -4.50161285705250225e-07
8 1 -1.21846616595452782e-06 -6.58900466527565736e-07 8.38119814241094115e-07
8
Step 14000
1 1 1.67506057582703015e-06 1.69217045657909552e-07 -2.57974141154149676e-06
2 1 1.36283407555617347e-07 -2.09892230374913293e-06 7.40048486002373836e-07
3 1 -5.96921216442023129e-07 -2.00919375492552809e-06 -9.65350740373351089e-07
4 1 7.14737926447975239e-07 -6.34252407387372891e-07 -3.55363959264832198e-07
5 1 4.28429660872222029e-07 -2.02366927540918238e-06 -1.33496852204466625e-06
6 1 -1.17805962338400446e-06 2.19108101302198911e-06 8.64584884660560085e-07
7 1 -6.86931032466816330e-07 -1.07469908327107597e-06 -7.04370529503645486e-07
8 1 -1.36300506051429686e-06 3.57771148041626735e-07 1.56159894437250284e-06
8
Step 15000
1 1 1.00606277709547984e-06 7.31524496229851210e-07 -1.35052206581177554e-06
2 1 -1.30400331637690117e-06 -1.44469713527078478e-06 2.74964004733237065e-06
3 1 1.87466452957024481e-07 -8.51222854043643053e-07 1.36467335047012656e-07
4 1 4.41361463487056428e-07 -1.02262020035442587e-06 -6.84848206229863512e-07
5 1 -3.14866081424232519e-07 -1.70826076753468140e-06 -3.87147534881223879e-07
6 1 -1.45813659369033199e-06 1.97910508694092428e-06 -1.57350306002257251e-07
7 1 -1.08282892599302779e-06 -7.38934044173056208e-07 -5.34926787441282491e-07
8 1 -1.00538341106466822e-06 1.03002126252306988e-06 1.76255437261242721e-06
8
Step 16000
1 1 -6.70927051997246574e-08 7.54037965955248895e-07 4.19945481241572437e-07
2 1 -2.12179131211335079e-06 -2.27326244056754455e-07 3.53359004054401518e-06
3 1 8.48878962622134009e-07 5.62270933267570734e-07 1.22901708963854919e-06
4 1 -6.90719594065604174e-08 -9.15603126605758342e-07 -7.92711798595116316e-07
5 1 -7.25637060654872678e-07 -6.55154252890255932e-07 7.78785826414345013e-07
6 1 -1.30144602810174500e-06 7.63573639763835855e-07 -1.09144951071540092e-06
7 1 -1.16764467255302453e-06 -9.24834268377463743e-08 -1.87122497807052306e-08
8 1 -3.77994862944987828e-07 1.17216884354698077e-06 1.31820683286385729e-06
8
Step 17000
1 1 -9.99806262559697134e-07 2.04661365470052817e-07 1.82302612936526811e-06
2 1 -2.05722288559523491e-06 8.81179947691307236e-07 2.96949926681291255e-06
3 1 1.19990580198195907e-06 1.56900948917268285e-06 1.89046789227233797e-06
4 1 -5.11720443824740997e-07 -3.51680745966312589e-07 -7.28127091394451364e-07
5 1 -5.30398680248728804e-07 5.39211613608633986e-07 1.62753849091398386e-06
6 1 -6.21712470575388038e-07 -7.27385500920568469e-07 -1.38792007559829236e-06
7 1 -7.87279708729423633e-07 5.16973247243108226e-07 6.23851072430583947e-07
8 1 2.07850358961888153e-07 8.52474542461486070e-07 2.51431686663727973e-07
8
Step 18000
1 1 -1.37402435951914845e-06 -5.31366727671450229e-07 2.38338264086638473e-06
2 1 -1.07443602988678756e-06 1.20522667859730722e-06 1.35554398486175319e-06
3 1 1.20492315702982311e-06 1.98609407527123237e-06 1.82455485939488857e-06
4 1 -7.04882334292079717e-07 4.02126880188068340e-07 -5.65083169454616595e-07
5 1 1.23835561487260964e-07 1.25686148620783397e-06 1.74572403200904378e-06
6 1 3.36638892099371185e-07 -1.75510346116916147e-06 -7.96033502108348921e-07
7 1 2.87096810048616560e-08 7.52418675989915833e-07 1.11636910788296289e-06
8 1 5.25344903468308438e-07 3.25560280869807990e-07 -1.16112955151305054e-06
8
Step 19000
1 1 -1.05702175530348072e-06 -1.14483761095167528e-06 2.03702140611258940e-06
2 1 3.88446956775928221e-07 8.82231277502218493e-07 -5.77344726624207588e-07
3 1 8.54934269247352435e-07 1.73578538448070421e-06 1.08970655355304059e-06
4 1 -5.55865831709847787e-07 1.02511910071593001e-06 -3.74869312975938987e-07
5 1 7.99416710818689502e-07 1.35941128400212173e-06 1.10436441308282790e-06
6 1 1.12727983050875857e-06 -2.07278616161664249e-06 2.83512242822593462e-07
7 1 1.00990275253119055e-06 5.37221571432081694e-07 1.17902794522410088e-06
8 1 6.12076370101265303e-07 -1.50435913159253722e-07 -2.31795367359432962e-06
8
Step 20000
1 1 -3.56130507288688826e-07 -1.16538770774352010e-06 8.51361142271277000e-07
2 1 1.45894970976707635e-06 3.66528700763212720e-07 -1.89302447625542636e-06
3 1 1.67986639234007114e-07 6.60469487188442202e-07 -2.03988537741833152e-08
4 1 -5.51736286015547677e-08 1.22300042577971875e-06 -1.51811795489061081e-07
5 1 1.15689985334104076e-06 8.97065397909761246e-07 -4.47553168585003978e-08
6 1 1.52731583068243900e-06 -1.36782101448268136e-06 1.24572987767000015e-06
7 1 1.73779984577993320e-06 -4.20996725888486901e-08 6.87767055951375794e-07
8 1 6.29967031723898443e-07 -4.33637395128291383e-07 -2.57729109161742080e-06
8
Step 21000
1 1 3.33435915603977589e-07 -3.51658419684358519e-07 -6.11901343237335053e-07
2 1 1.74603727895776854e-06 -1.86808208234030863e-07 -2.24790740583190597e-06
3 1 -4.75060240184413675e-07 -5.48335558727606522e-07 -1.07657467666772987e-06
4 1 5.71213810543711132e-07 8.60580168390860939e-07 1.77797540407609129e-07
5 1 8.04282548339371987e-07 1.85771833527823109e-08 -1.20002714144194668e-06
6 1 1.36715340079584818e-06 2.76464393187928000e-08 1.60518748889149967e-06
7 1 1.88103072190528449e-06 -6.89493565893433177e-07 -2.42080854909983359e-07
8 1 5.25651341726711486e-07 -4.43118771281075021e-07 -1.77389769872374665e-06
8
Step 22000
1 1 6.17192965297836470e-07 9.99975413867912119e-07 -1.67140152028320018e-06
2 1 1.29237498045251675e-06 -5.16493409343090026e-07 -1.66205885305413712e-06
3 1 -7.84337734623370860e-07 -1.34913878719302919e-06 -1.72947557175901873e-06
4 1 9.87252566557448840e-07 2.74405370772915467e-08 5.44303833918944620e-07
5 1 -1.44395851537410410e-07 -7.18910680671275942e-07 -1.79438758858311358e-06
6 1 6.26246303294608616e-07 1.30104578528897405e-06 1.07932187786746850e-06
7 1 1.26240483797699030e-06 -1.03137035484899702e-06 -1.28025701513021912e-06
8 1 3.61570962981392778e-07 -2.96972884260175141e-07 -1.41667271766398188e-07
8
Step 23000
1 1 4.42397406479681698e-07 2.20707744976569264e-06 -1.97006770334998114e-06
2 1 2.05175991798225113e-07 -2.80301253491783975e-07 -4.49499891244369664e-07
3 1 -8.00448607022075399e-07 -1.75903271935599547e-06 -1.69147865682099568e-06
4 1 1.11754865726736224e-06 -9.89531979342307692e-07 8.16037135237880022e-07
5 1 -1.15205187036167720e-06 -9.38472595824307267e-07 -1.52319904716362360e-06
6 1 -4.14901238409136905e-07 1.86456799788430278e-06 -1.81889890831743600e-07
7 1 3.38120492663783534e-08 -7.67005720818131041e-07 -2.05328074376433672e-06
8 1 2.28399246564932831e-07 -2.23053367317034440e-07 1.73012314584446788e-06
8
Step 24000
1 1 2.45247570944352350e-08 2.61064785540049380e-06 -1.52617054522034004e-06
2 1 -9.85789356440210098e-07 2.27056927364813854e-07 7.50493059873443194e-07
3 1 -5.36997355823160427e-07 -1.67802481097009611e-06 -9.53993451345847741e-07
4 1 8.80255417493459922e-07 -1.74966204876245070e-06 9.71795772846823805e-07
5 1 -1.66166958271166151e-06 -6.89879669491367516e-07 -4.98689947629920238e-07
6 1 -1.28596857010915414e-06 1.61810635299384915e-06 -1.56131297363705574e-06
7 1 -1.33483483154698735e-06 -1.87610192760592155e-08 -2.11871902885776287e-06
8 1 1.26444221013973474e-09 -3.03968437636900308e-07 2.98339979263483614e-06
8
Step 25000
1 1 -3.15227167854931574e-07 1.74608085205404504e-06 -5.02383278900976726e-07
2 1 -1.57365415497787179e-06 4.89759654826940189e-07 1.37332210575486166e-06
3 1 -9.11805043542570000e-08 -9.09339734721265975e-07 1.12725684964052632e-07
4 1 2.14483725676260794e-07 -1.84588440583443720e-06 9.58545011514346700e-07
5 1 -1.40169326216964987e-06 -9.10032938304057849e-08 8.37946975891084267e-07
6 1 -1.59928719336272461e-06 5.70719022395665994e-07 -2.30112381716342376e-06
7 1 -2.22397981966160427e-06 8.63328996240339246e-07 -1.34285619566616718e-06
8 1 -3.90039629106004315e-07 -4.74729669706113062e-07 3.01876754147628461e-06
8
Step 26000
1 1 -3.02853079254625344e-07 -2.19146167804213916e-07 7.02369354458532016e-07
2 1 -1.29937840475779846e-06 3.86967136522113984e-07 1.31361728250097109e-06
3 1 2.27789385448759507e-07 9.56301578312698134e-08 1.02501866906204939e-06
4 1 -6.99174866661039232e-07 -1.11812682539937936e-06 6.30964905777202742e-07
5 1 -3.95422491991497500e-07 6.14985344075269281e-07 1.85761679589358276e-06
6 1 -1.19212274156711291e-06 -7.51056627537280407e-07 -1.97017700551664575e-06
7 1 -2.20650782665056469e-06 1.44805533685723454e-06 6.09305558833884536e-08
8 1 -7.64381289257786679e-07 -6.07919755318639731e-07 1.79526452296653515e-06
8
Step 27000
1 1 1.86107100328992023e-07 -2.52818529093757187e-06 1.52602061907737924e-06
2 1 -3.94327983309252312e-07 2.89309204729814082e-08 6.65435255399435010e-07
3 1 2.41168286405194474e-07 9.47996212684870808e-07 1.50929671042853559e-06
4 1 -1.46798983725133675e-06 2.14612768804637806e-07 4.53088456832392142e-08
5 1 8.77391743343306973e-07 9.87570632224144887e-07 2.03576250758719765e-06
6 1 -2.13083415644152304e-07 -1.63110327125284086e-06 -6.23670634375665514e-07
7 1 -1.23374645293158853e-06 1.42427712603125075e-06 1.55752535968754882e-06
8 1 -9.58949011770165402e-07 -5.07675015524386583e-07 -1.90739026308337979e-07
8
Step 28000
1 1 8.52250330725337399e-07 -4.12691412028232350e-06 1.66259858691148382e-06
2 1 7.62890013055976190e-07 -4.97429294820500125e-07 -3.15023015003590046e-07
3 1 4.40201490826226353e-08 1.58363550178700382e-06 1.34887246331513148e-06
4 1 -1.86282825749350267e-06 1.66901221358237557e-06 -5.74862531403434722e-07
5 1 1.79471509414436582e-06 8.18042206306725076e-07 1.16984445781010911e-06
6 1 9.10270325085047003e-07 -1.65495521707578182e-06 1.19550768309018937e-06
7 1 2.80703170287822408e-07 6.91401181088927772e-07 2.64316470859288012e-06
8 1 -8.66147877599031638e-07 -6.48498822951167580e-08 -2.05793906911596937e-06
8
Step 29000
1 1 1.22196220001323934e-06 -4.12381590478671436e-06 1.16643142476730430e-06
2 1 1.61429346134090264e-06 -8.51779032644328438e-07 -1.07097365937532226e-06
3 1 -2.06291424257261754e-07 1.84250022267848430e-06 5.72970123969615977e-07
4 1 -1.70112113156578773e-06 2.62717645835719291e-06 -1.09269647995314857e-06
5 1 1.89321463509641287e-06 1.50049216176800193e-07 -4.21654161017609471e-07
6 1 1.66430389516586868e-06 -8.84704073861564359e-07 2.69396351552369195e-06
7 1 1.62060821317535343e-06 -4.48560677132950459e-07 2.82712899491097074e-06
8 1 -4.30808194342930809e-07 6.15440945371466244e-07 -2.98353102768060146e-06
8
Step 30000
1 1 9.63799083581612788e-07 -2.27301361412572778e-06 2.82264341256640671e-07
2 1 1.68592165707431182e-06 -7.36757352141735681e-07 -1.21137318626884581e-06
3 1 -2.96473235778548258e-07 1.44019927127863847e-06 -4.30976919891427167e-07
4 1 -9.15719100514505932e-07 2.61752975283471483e-06 -1.38770922364256191e-06
5 1 1.05099879872716324e-06 -7.72074945197534591e-07 -1.98011115603097358e-06
6 1 1.64293388289151579e-06 3.41531442872729814e-07 3.11869158788876919e-06
7 1 2.20511498934030599e-06 -1.37244052980754039e-06 1.97404879874264318e-06
8 1 2.17455298121554714e-07 1.27119626205727657e-06 -2.61071110057851956e-06
8
Step 31000
1 1 8.81604240285395239e-08 6.41193121101562882e-07 -6.28484182491539787e-07
2 1 7.89037982563302654e-07 -1.87299967879369094e-07 -7.48481573638208387e-07
3 1 -2.33370140440967638e-08 5.54544431221164717e-07 -1.13823004972665560e-06
4 1 3.21897991619516783e-07 1.53177131318270364e-06 -1.34715358775816890e-06
5 1 -3.31753615144244497e-07 -1.47534990736500213e-06 -2.72876288001724819e-06
6 1 7.87962248700589604e-07 1.43976024322832732e-06 2.19047456512335679e-06
7 1 1.74935457572140124e-06 -1.64133764003045636e-06 4.47417365931971548e-07
8 1 8.42399025027781340e-07 1.57752289844483374e-06 -1.18716083197404188e-06
8
Step 32000
1 1 -1.00940174331559568e-06 3.18648531071469779e-06 -1.14257927054009770e-06
2 1 -6.26260024803949230e-07 5.25369818389322786e-07 6.03167658559198362e-08
3 1 4.76059656138519863e-07 -5.23455948389841430e-07 -1.24612445349426183e-06
4 1 1.57104340117919879e-06 -2.39465602656226223e-07 -9.39257227729373302e-07
5 1 -1.49057120495575080e-06 -1.51000031101573397e-06 -2.25260337763471451e-06
6 1 -5.87187206364176557e-07 1.80886887139420279e-06 2.07535414178584805e-07
7 1 4.28698657719318927e-07 -1.18299441441781404e-06 -1.08890612670851728e-06
8 1 1.20108304822036594e-06 1.30975191948750591e-06 5.60798554161983763e-07
8
Step 33000
1 1 -1.76801361793390063e-06 4.30694409616808022e-06 -1.14773802754175171e-06
2 1 -1.84791412563534545e-06 1.03312087443372769e-06 9.60864982648661440e-07
3 1 9.11536164846178056e-07 -1.61769306537457865e-06 -8.12252137553428412e-07
4 1 2.34347801534018375e-06 -1.94031642276822494e-06 -3.07850865415263734e-07
5 1 -1.82766356875702878e-06 -7.61243109111570764e-07 -6.33709522532219588e-07
6 1 -1.78073453889606883e-06 1.16910814205232022e-06 -1.96253284580025119e-06
7 1 -1.09336435553964740e-06 -2.36837922002666514e-07 -2.18006278053106613e-06
8 1 1.08740169777282828e-06 4.91347910914093927e-07 1.88679918971659390e-06
8
Step 34000
1 1 -1.82565727331287667e-06 3.68570490381593268e-06 -7.88422168412106931e-07
2 1 -2.31444667578840412e-06 1.01155877941978493e-06 1.50899487634731519e-06
3 1 1.13298733442943639e-06 -2.40166695476535991e-06 -8.89776856602224644e-09
4 1 2.34912429917171797e-06 -2.90671105643365115e-06 3.61563439069174690e-07
5 1 -1.21552274830913482e-06 4.86498693620580534e-07 1.41434243247520997e-06
6 1 -2.20027622359114235e-06 -9.91917333865840273e-08 -3.37214885890405887e-06
7 1 -2.01846108727930764e-06 7.34885576092850829e-07 -2.48027387684275405e-06
8 1 5.07742149778442898e-07 -5.87992050579973820e-07 2.25387438610796978e-06
8
Step 35000
1 1 -1.17374873878825549e-06 1.77572162816649311e-06 -2.05412882061287423e-07
2 1 -1.68420631255012665e-06 3.14274703039109081e-07 1.27714537866468146e-06
3 1 8.45151251050001896e-07 -2.34198793210102354e-06 9.32970254680540459e-07
4 1 1.60711852270305333e-06 -2.78793673420645885e-06 8.76558868262328412e-07
5 1 7.71372772422651707e-08 1.65640095008699599e-06 2.85007019180560373e-06
6 1 -1.71471167201434266e-06 -1.36050428305623908e-06 -3.39693521514192459e-06
7 1 -1.90973196700187801e-06 1.24585267711183183e-06 -1.91253663498231090e-06
8 1 -2.19888706466506079e-07 -1.48135333850435121e-06 1.49017084893060446e-06
8
Step 36000
1 1 -7.05067148971009378e-08 -3.94963293060956056e-07 2.75266328233821562e-07
2 1 -4.23129995864055543e-09 -5.37871816538429630e-07 4.22982773639556244e-07
3 1 -2.33112135241689221e-07 -1.40823119400645100e-06 1.42653331642204514e-06
4 1 4.00188336294326940e-07 -1.65579642864040461e-06 1.16620561544898875e-06
5 1 1.33101927467989056e-06 2.16322532285341920e-06 2.99735117249021333e-06
6 1 -3.74581267539315354e-07 -2.02521832468736563e-06 -2.08840878342728490e-06
7 1 -8.64984197872868443e-07 1.05929934265928249e-06 -8.11978656848510905e-07
8 1 -7.86145192035732731e-07 -1.82206108871227189e-06 2.00325389205149948e-07
8
Step 37000
1 1 9.66670211435996271e-07 -1.70020918331356948e-06 4.08703011035817652e-07
2 1 1.89114859982632531e-06 -1.05345452952972601e-06 -5.08032777872282621e-07
3 1 -1.59203196462470467e-06 9.74965427229286667e-08 1.06219156976021248e-06
4 1 -8.27206996240912756e-07 -6.94818367945306163e-08 1.21020737673222414e-06
5 1 1.77554026777117124e-06 1.69892120380891677e-06 1.85054492232096028e-06
6 1 1.39936324944679472e-06 -1.70513485023183756e-06 2.83951708997551020e-08
7 1 6.30573626660181594e-07 3.80721176093518911e-07 2.17266439145272860e-07
8 1 -9.88292745727799053e-07 -1.48256444608135242e-06 -8.27553932718898983e-07
8
Step 38000
1 1 1.47239280578119787e-06 -1.89825606548012228e-06 5.10163013657184258e-07
2 1 3.07764079931755631e-06 -1.01586811609648748e-06 -1.41598150781942393e-06
3 1 -2.34059815526075556e-06 1.77651421251527147e-06 8.20590545415816080e-08
4 1 -1.60922518734013262e-06 1.27499155678546418e-06 1.05549878583892095e-06
5 1 1.12891348270317594e-06 4.23420441793904474e-07 7.71647937736373901e-08
6 1 2.56833061983510486e-06 -3.25887428158639956e-07 1.89448554898137736e-06
7 1 1.93514334222848481e-06 -3.96880125153170312e-07 9.68633724580970655e-07
8 1 -7.78890952713010915e-07 -6.01702312488715581e-07 -1.31184992003247833e-06
8
Step 39000
1 1 1.26317133039518111e-06 -1.22973541413386846e-06 6.59473009820132476e-07
2 1 3.00565518435211237e-06 -4.53610687977177443e-07 -1.96866078281562214e-06
3 1 -2.21489986119447197e-06 3.17841723447282096e-06 -9.27471836451014256e-07
4 1 -1.76879837067785180e-06 1.94071356201936971e-06 7.82525038204423044e-07
5 1 -1.40458551921229182e-07 -1.05015184074281986e-06 -1.60975928076478363e-06
6 1 2.60943723290099521e-06 1.28483420948148261e-06 2.74780843609717319e-06
7 1 2.38850780264736591e-06 -8.55123222423047679e-07 1.30997903008817646e-06
8 1 -2.25734289017561181e-07 4.14824171602148093e-07 -1.11509022393318798e-06
8
Step 40000
1 1 5.59707933849743446e-07 -2.61474501978530730e-07 4.94283136041824472e-07
2 1 1.57394225003115687e-06 7.05897951667186008e-07 -1.59390093770157749e-06
3 1 -1.49840876697961367e-06 3.41219886808013423e-06 -1.57318645158577147e-06
4 1 -1.37387536462901946e-06 1.87467036866545820e-06 4.02148253589583848e-07
5 1 -1.36491065602150676e-06 -2.01532269971585324e-06 -2.47652994920520732e-06
6 1 1.81094509252857268e-06 2.21881333650051805e-06 2.32558682932610577e-06
7 1 1.78392785340773340e-06 -7.71361666948061321e-07 1.15699547311565969e-06
8 1 3.81960035181103567e-07 1.07841955314013399e-06 -1.57001810796557610e-07
8
Step 41000
1 1 -3.99824189939887284e-07 6.20799494299294663e-07 2.13686229954005488e-07
2 1 -9.18587937991634127e-07 1.53942830837305090e-06 -4.17767900649979381e-07
3 1 3.02925953896427896e-07 2.28236793517286184e-06 -1.53116896792455873e-06
4 1 -6.38090759862668665e-07 1.17234018418499460e-06 -8.19614490134966124e-08
5 1 -2.01911385482458142e-06 -2.14343068192135448e-06 -2.14477112333196212e-06
6 1 3.15609683430918344e-07 2.16697701666114164e-06 1.09557673104204176e-06
7 1 4.57901859949446918e-07 -2.63953793605202420e-07 7.57115739853400565e-07
8 1 6.08551474290037455e-07 1.18943381461615468e-06 5.19710307577379679e-07
8
Step 42000
1 1 -1.25657474803875753e-06 7.33052958032065967e-07 8.92684427031321785e-08
2 1 -3.16803163392198083e-06 1.40037675060698329e-06 4.77788823542687773e-07
3 1 2.37540668949012478e-06 3.96687602082275881e-07 -6.40988020392862181e-07
4 1 1.77308905168445752e-07 1.26420349031147240e-07 -5.92172593414905878e-07
5 1 -1.67636398738820883e-06 -1.32934447310704780e-06 -9.62210699515533719e-07
6 1 -1.54644540675783878e-06 1.20471756463386785e-06 -4.04466186759879613e-07
7 1 -1.03600634941601363e-06 3.68136980628686452e-07 3.83807430033044226e-07
8 1 5.70331670412903649e-07 7.60478617008447463e-07 7.67511937061471570e-07
8
Step 43000
1 1 -1.32076518906288813e-06 1.20431733914152540e-07 -6.72085700797837906e-07
2 1 -4.34178020821383842e-06 5.12862439995970887e-07 1.08454839655781224e-06
3 1 3.38253535830503642e-06 -1.44165707496777837e-06 8.07574172784182485e-07
4 1 7.42672322572868471e-07 -9.41931848624785211e-07 -1.07120695443898735e-06
5 1 -3.58500531277157023e-07 1.04343598823817133e-07 2.40126447438633414e-07
6 1 -2.75056129537648483e-06 -4.03816238442164206e-07 -1.36529042041572468e-06
7 1 -2.15477094510400596e-06 7.94201425563745887e-07 8.91159708981088610e-08
8 1 4.14826129036218655e-07 3.29081658341675844e-08 9.56569421794665783e-07
8
Step 44000
1 1 -5.55438588780164476e-07 -5.97171588791808235e-07 -1.63464907723436388e-06
2 1 -3.65107249047866554e-06 -6.58233248455085830e-07 1.73012765228888069e-06
3 1 2.68107646005709912e-06 -2.72362382472701990e-06 2.01643802568936375e-06
4 1 8.76252186163941497e-07 -1.48699285402649141e-06 -1.31802374505017058e-06
5 1 1.21356374194232456e-06 1.36213372505735969e-06 1.00956882008638467e-06
6 1 -2.65838139571829854e-06 -1.85398481297343686e-06 -1.24789343211361618e-06
7 1 -2.44695554735794917e-06 7.58689038833429152e-07 -1.01085968401566448e-07
8 1 -2.90852714582531053e-08 -4.70681294682022577e-07 2.44284288561952367e-07
8
Step 45000
1 1 2.96720205057013763e-07 -7.10507095361723751e-07 -1.67170302681033205e-06
2 1 -1.43643004252776871e-06 -1.97743370209105009e-06 1.63120003860398052e-06
3 1 1.39456918887657575e-06 -2.81073904091059705e-06 2.24886369052011674e-06
4 1 6.42085896625704763e-07 -1.42375007886463492e-06 -1.11828668542717802e-06
5 1 2.13820702891449467e-06 1.92849212763339066e-06 1.22690751910539389e-06
6 1 -1.94430476578477093e-06 -2.22896619148355759e-06 -5.00808697750911576e-07
7 1 -1.81731839531708813e-06 3.33484079475660952e-07 -1.67240459162130343e-07
8 1 -4.11574727178304108e-07 -4.98644247369638585e-07 -7.10789207861928402e-07
8
Step 46000
1 1 8.91564589173136758e-07 -4.06331675432806202e-07 -7.31565060899162113e-07
2 1 1.39152838751183966e-06 -2.27547527016529757e-06 7.15658273015471824e-07
3 1 -7.18169030742745887e-07 -1.63370481402250166e-06 1.39679812354231304e-06
4 1 1.79092723395503217e-07 -7.32230278037234075e-07 -3.91901510526332807e-07
5 1 2.15612734716696394e-06 1.72888768230820318e-06 9.23968059859776380e-07
6 1 -5.33894908587623642e-07 -1.74548920705763803e-06 4.38899725085974428e-07
7 1 -6.25270140874232940e-07 -2.32194665184105468e-07 -2.71397579539467410e-07
8 1 -4.02407127454862750e-07 -1.35796225942224498e-07 -9.57210045169393921e-07
8
Step 47000
1 1 1.42273593134471885e-06 5.28291504706101889e-07 2.94837339480856839e-08
2 1 2.76160673221783847e-06 -1.15802069633489298e-06 4.15889377334863111e-07
3 1 -2.63005987043296887e-06 -8.99195630564276444e-08 -1.26565793262402112e-07