8
Step 0
1 1  0.000000000000e+00   0.000000000000e+00   0.000000000000e+00 
2 1  0.000000000000e+00   0.000000000000e+00   0.000000000000e+00 
3 1  0.000000000000e+00   0.000000000000e+00   0.000000000000e+00 
4 1  0.000000000000e+00   0.000000000000e+00   0.000000000000e+00 
5 1  0.000000000000e+00   0.000000000000e+00   0.000000000000e+00 
6 1  0.000000000000e+00   0.000000000000e+00   0.000000000000e+00 
7 1  0.000000000000e+00   0.000000000000e+00   0.000000000000e+00 
8 1  0.000000000000e+00   0.000000000000e+00   0.000000000000e+00 
8
Step 1000
1 1 -8.778033994121e-05  -5.686115558525e-05   6.685904967953e-05 
2 1 -1.418880790354e-04   1.526580863926e-04   1.564836352313e-04 
3 1  1.309784188169e-04  -1.884750313805e-06   8.005210559164e-05 
4 1 -6.343628723155e-05  -1.153982334650e-05   1.565370719698e-05 
5 1 -1.334681131674e-04  -5.545822647370e-05   5.913361797311e-05 
6 1 -7.915453654152e-05  -3.776172761894e-06  -6.950110686986e-05 
7 1 -1.086828433010e-04   2.229242122719e-05   1.093877308355e-04 
8 1 -2.415502290248e-05  -1.245538674116e-05   1.697632075520e-04 
8
Step 2000
1 1 -7.034068150420e-05  -8.627135619569e-05   3.638583828995e-05 
2 1 -8.624515206211e-05   5.972806884107e-05   1.499514916071e-04 
3 1  1.204155395059e-04   2.386229181388e-05   1.087211080866e-04 
4 1 -3.702851303073e-05   4.181545998305e-05  -6.328839455439e-05 
5 1 -4.564441140045e-05   4.466952535985e-05   7.356117298336e-05 
6 1 -6.832052206313e-05  -3.846970549768e-05  -1.155549183268e-05 
7 1 -1.022565654214e-04   2.205155287451e-05   5.201790590868e-05 
8 1  5.558917644128e-05  -6.778522858978e-05   1.272070702127e-04 
8
Step 3000
1 1 -1.761892587348e-05  -8.550105265846e-05  -1.234738248608e-05 
2 1  7.186711643165e-06  -4.862519037038e-05   8.597389806978e-05 
3 1  6.235431713513e-05   3.996636405341e-05   8.843583162099e-05 
4 1 -3.278506995471e-06   6.319970915673e-05  -1.244720484806e-04 
5 1  3.598406620091e-05   9.979121909054e-05   5.046222084815e-05 
6 1 -3.521386171438e-05  -6.097005774881e-05   6.598374465007e-05 
7 1 -5.022839601715e-05   2.550740625533e-05  -3.356675434657e-05 
8 1  1.028658016555e-04  -7.500359157038e-05   4.103230364971e-05 
8
Step 4000
1 1  4.475962142534e-05  -4.249606724950e-05  -5.846121419861e-05 
2 1  7.871211108830e-05  -1.070986012299e-04   9.073465381416e-06 
3 1 -7.708195090907e-06   4.263057696005e-05   3.298769161658e-05 
4 1  2.053006818588e-05   5.411313023376e-05  -1.415594976444e-04 
5 1  6.993942846005e-05   1.000241842090e-04   9.600036023130e-06 
6 1  7.730020312637e-06  -6.997061394164e-05   1.167113546461e-04 
7 1  2.637293213363e-05   3.194675139687e-05  -1.011493638939e-04 
8 1  1.085486425546e-04  -3.473088435900e-05  -3.787722539315e-05 
8
Step 5000
1 1  8.371813059761e-05   3.862089437590e-05  -7.975950372607e-05 
2 1  9.603497077084e-05  -9.588889665034e-05  -4.260125865718e-05 
3 1 -5.778842356419e-05   2.994836662002e-05  -3.225921008801e-05 
4 1  2.791946583987e-05   2.642957745967e-05  -1.063941206566e-04 
5 1  5.404824131669e-05   6.355876056818e-05  -2.919301870508e-05 
6 1  4.847992913483e-05  -6.286245083278e-05   1.076555991883e-04 
7 1  8.676584915866e-05   3.587956845560e-05  -1.162150886086e-04 
8 1  8.295361703259e-05   2.351332041767e-05  -8.041379919102e-05 
8
Step 6000
1 1  7.696381492788e-05   1.283212905023e-04  -6.569761525012e-05 
2 1  6.522523018627e-05  -3.811578926570e-05  -5.740868994707e-05 
3 1 -7.159173056400e-05   3.936090398843e-06  -8.086285676198e-05 
4 1  2.028061918375e-05  -3.716222202546e-06  -3.607944181822e-05 
5 1  8.809826743667e-06   8.638812936466e-06  -5.347369083723e-05 
6 1  8.117767619265e-05  -2.920753597964e-05   2.712356996248e-05 
7 1  1.081041515246e-04   3.200367280799e-05  -8.577268537697e-05 
8 1  3.760046290555e-05   6.634850645053e-05  -8.151441414956e-05 
8
Step 7000
1 1  2.949825443437e-05   1.858177795671e-04  -2.472779929729e-05 
2 1  1.037490799399e-05   2.729898592444e-05  -4.184792411331e-05 
3 1 -5.045401073743e-05  -2.942035376504e-05  -9.639120246753e-05 
4 1  7.243695099153e-06  -2.104514624279e-05   3.083664534204e-05 
5 1 -3.560720545355e-05  -4.512289216652e-05  -5.246206210231e-05 
6 1  9.272281557099e-05   2.833527889696e-05  -1.015853583870e-04 
7 1  9.215172291873e-05   1.819920725036e-05  -3.870545781934e-05 
8 1 -1.614848633135e-05   7.387920088911e-05  -4.769882450507e-05 
8
Step 8000
1 1 -3.737734880372e-05   1.805745505601e-04   2.843515364770e-05 
2 1 -4.115695090585e-05   6.518390198515e-05  -9.643347551272e-06 
3 1 -6.703137869971e-06  -6.242570459982e-05  -7.337524893464e-05 
4 1  7.211592017336e-07  -2.222566375278e-05   6.663986516850e-05 
5 1 -5.074511391268e-05  -7.732999164571e-05  -2.271814907398e-05 
6 1  7.150603638950e-05   7.779908034803e-05  -1.998223215819e-04 
7 1  5.132576406370e-05  -3.668273207497e-06   8.056363925620e-07 
8 1 -6.151145800330e-05   4.358089927303e-05   4.935545322206e-06 
8
Step 9000
1 1 -1.011065507989e-04   9.226989004914e-05   8.342532268271e-05 
2 1 -6.745021038560e-05   5.730269202618e-05   2.415030557454e-05 
3 1  4.291129136099e-05  -8.276306436689e-05  -1.321434198118e-05 
4 1  4.399069817577e-06  -1.483582931112e-05   7.105243657608e-05 
5 1 -2.239958284356e-05  -7.499019290709e-05   2.659581934226e-05 
6 1  3.041943606029e-05   9.558412558414e-05  -2.122335849577e-04 
7 1  1.141452922870e-08  -2.866742110254e-05   2.247487688769e-05 
8 1 -8.289450205394e-05  -1.107159211010e-05   5.254584839957e-05 
8
Step 10000
1 1 -1.286408090511e-04  -5.554560146121e-05   1.165906153498e-04 
2 1 -5.702961571338e-05   7.771462680596e-06   4.587720693122e-05 
3 1  7.673377915439e-05  -7.433119369432e-05   6.789248464518e-05 
4 1  1.310253562564e-05  -5.943408121454e-06   5.032846635179e-05 
5 1  3.866965352344e-05  -3.747292153193e-05   7.594190608950e-05 
6 1 -7.670486908943e-06   8.205595223079e-05  -1.416295563672e-04 
7 1 -4.693312428708e-05  -4.865389160448e-05   2.735860875872e-05 
8 1 -7.461983035295e-05  -6.581850106324e-05   7.381793627384e-05 
8
Step 11000
1 1 -9.951463642679e-05  -1.657173046737e-04   1.042402177480e-04 
2 1 -1.381587736010e-05  -5.639318253664e-05   4.569727487922e-05 
3 1  7.450918801914e-05  -3.130531897688e-05   1.336487383728e-04 
4 1  1.735369557645e-05   7.726729753172e-07   1.275646416414e-05 
5 1  9.028627064406e-05   1.986584793462e-05   9.710184434018e-05 
6 1 -2.339892292091e-05   4.996210637637e-05  -3.382269817910e-05 
7 1 -7.508168078897e-05  -5.308188817086e-05   2.244487197523e-05 
8 1 -4.104515198650e-05  -9.580118988850e-05   5.920419027314e-05 
8
Step 12000
1 1 -3.635423286295e-05  -1.818624754688e-04   6.083720917324e-05 
2 1  4.146567536818e-05  -9.524763547357e-05   2.121767915052e-05 
3 1  3.305113345844e-05   3.260559191949e-05   1.493756112720e-04 
4 1  7.772111404566e-06   5.173278957606e-06  -2.856753134482e-05 
5 1  9.099763512477e-05   7.045149482998e-05   6.952567835124e-05 
6 1 -1.136789210061e-05   2.371399645797e-05   4.097052884261e-05 
7 1 -7.459074720934e-05  -3.390376841526e-05   1.657652397209e-05 
8 1  6.556204492582e-06  -8.415085494752e-05   1.356590287604e-05 
8
Step 13000
1 1  2.520673054026e-05  -1.221377755548e-04   1.488977918160e-05 
2 1  8.094854230358e-05  -7.844281992725e-05  -2.033157849565e-05 
3 1 -2.906801645313e-05   9.151181857596e-05   1.059516525473e-04 
4 1 -1.876464004591e-05   1.091911565466e-05  -5.959047745898e-05 
5 1  3.172198206421e-05   9.014699448478e-05  -6.724108694822e-09 
6 1  1.182690602989e-05   1.325171456659e-05   6.157228624872e-05 
7 1 -4.386120110796e-05   8.408523981544e-06   1.686187694938e-05 
8 1  5.109653045922e-05  -3.015524933014e-05  -4.388831847315e-05 
8
Step 14000
1 1  5.882956237465e-05  -3.261736629394e-05  -1.558114833374e-05 
2 1  8.279993738143e-05  -3.924331680079e-06  -6.282935373486e-05 
3 1 -8.046994505786e-05   1.196968029427e-04   2.461063144610e-05 
4 1 -5.141025957256e-05   2.109696878249e-05  -6.971879058797e-05 
5 1 -6.086925667331e-05   6.826614895433e-05  -7.725017537378e-05 
6 1  2.507934520821e-05   8.286230727572e-06   4.693417627953e-05 
7 1  7.187556521266e-06   6.177111523598e-05   2.392123114941e-05 
8 1  7.488562599912e-05   4.430860957486e-05  -8.440688482794e-05 
8
Step 15000
1 1  5.594964616912e-05   4.011611219985e-05  -2.670206336549e-05 
2 1  4.144557874802e-05   9.635562198051e-05  -8.626006690922e-05 
3 1 -9.359941776662e-05   1.039476768374e-04  -5.480876316943e-05 
4 1 -6.656202876217e-05   3.069882597899e-05  -5.408682596085e-05 
5 1 -1.374557838839e-04   1.730580336905e-05  -1.204151109038e-04 
6 1  1.481351005864e-05   2.059675542165e-07   1.774923650904e-05 
7 1  5.792669959217e-05   1.048757874330e-04   2.796360232469e-05 
8 1  7.043213699611e-05   1.046864892389e-04  -8.459005219039e-05 
8
Step 16000
1 1  2.626166149888e-05   6.935585462500e-05  -2.642099123800e-05 
2 1 -2.616361424703e-05   1.671788807921e-04  -7.582076110612e-05 
3 1 -5.998626845221e-05   5.047413548148e-05  -9.527024522104e-05 
4 1 -4.293439751488e-05   2.791954436989e-05  -1.547343220746e-05 
5 1 -1.592044141051e-04  -3.501713657056e-05  -1.093208370745e-04 
6 1 -1.767313797573e-05  -1.276546417453e-05  -8.525587991052e-06 
7 1  8.659028517977e-05   1.144501625985e-04   1.587021423780e-05 
8 1  4.267251936875e-05   1.218325378149e-04  -3.801829347398e-05 
8
Step 17000
1 1 -1.046477358836e-05   5.660768575507e-05  -2.616399200055e-05 
2 1 -8.751529360797e-05   1.605533413820e-04  -3.008973378956e-05 
3 1  3.363240951728e-06  -1.712048192475e-05  -8.303296102227e-05 
4 1  2.187283692592e-05   3.517094106036e-06   3.329097666913e-05 
5 1 -1.123738743007e-04  -6.325574798250e-05  -5.194327604432e-05 
6 1 -5.463094933289e-05  -3.015629561239e-05  -2.137107798477e-05 
7 1  7.884018343244e-05   7.404327271711e-05  -1.843300258059e-05 
8 1  1.762976692091e-06   8.095278757131e-05   4.306636882166e-05 
8
Step 18000
1 1 -3.530624326881e-05   2.280067822294e-05  -2.975581356050e-05 
2 1 -1.108350155392e-04   6.719696511817e-05   3.425394259613e-05 
3 1  6.089509607288e-05  -6.884250297109e-05  -3.816678969751e-05 
4 1  9.950171763352e-05  -3.851915283215e-05   7.020839079534e-05 
5 1 -1.686931535851e-05  -5.478960051922e-05   1.939360611614e-05 
6 1 -7.201925441827e-05  -4.830788708742e-05  -1.953355572210e-05 
7 1  3.332631356256e-05  -1.180468056239e-05  -6.703631613431e-05 
8 1 -3.993415924261e-05  -8.954022213272e-06   1.259392231064e-04 
8
Step 19000
1 1 -3.881097592982e-05  -8.416762066367e-06  -3.078460808258e-05 
2 1 -8.394663487261e-05  -6.597924886445e-05   8.482264895104e-05 
3 1  8.305162072240e-05  -8.571155138909e-05   2.917631485011e-06 
4 1  1.448924498256e-04  -7.891539472082e-05   7.880605525087e-05 
5 1  7.113375913086e-05  -1.945721219938e-05   6.130035132862e-05 
6 1 -5.185067805284e-05  -5.797798775507e-05  -9.303111996164e-06 
7 1 -2.853275362575e-05  -1.049463733552e-04  -1.053791770761e-04 
8 1 -6.880667124489e-05  -1.101998284375e-04   1.648576999164e-04 
8
Step 20000
1 1 -2.226763346679e-05  -2.196902450257e-05  -1.947196329530e-05 
2 1 -2.698672873088e-05  -1.657629101268e-04   1.001982225707e-04 
3 1  6.417741294280e-05  -6.852499564303e-05   1.529767713688e-05 
4 1  1.276131587038e-04  -9.418530084114e-05   5.855285088825e-05 
5 1  1.101892093509e-04   1.683916264368e-05   5.829862622234e-05 
6 1  1.013564481997e-05  -4.863770081575e-05   1.573172549233e-07 
7 1 -7.250836674485e-05  -1.594004385471e-04  -1.096367649851e-04 
8 1 -7.987080789410e-05  -1.790939080244e-04   1.248334952103e-04 
8
Step 21000
1 1  5.412737666006e-06  -1.488081822679e-05   9.581473812957e-06 
2 1  2.704265039525e-05  -1.893735796212e-04   8.570071213816e-05 
3 1  1.968890094158e-05  -3.243824319727e-05  -3.417015038460e-06 
4 1  4.465574386008e-05  -6.780627045455e-05   1.890794450077e-05 
5 1  1.010828999424e-04   3.592711615044e-05   2.872653142529e-05 
6 1  9.185681563931e-05  -1.458685663461e-05   1.489230076143e-06 
7 1 -7.737942910658e-05  -1.528832782644e-04  -7.363852299200e-05 
8 1 -7.584976815018e-05  -1.851812425591e-04  -1.059444405230e-05 
8
Step 22000
1 1  3.088146245062e-05   4.706128689319e-06   5.116176788816e-05 
2 1  5.549729325768e-05  -1.329449055860e-04   5.524064938542e-05 
3 1 -2.461794110207e-05   4.326521697990e-06  -3.319823927623e-05 
4 1 -6.727678852780e-05  -5.665398226814e-06  -2.187893776118e-05 
5 1  5.205840144563e-05   3.089541929469e-05  -5.607861723574e-06 
6 1  1.489515032888e-04   3.827162058922e-05  -6.224577015672e-06 
7 1 -4.189966590758e-05  -8.933476228241e-05  -1.057224095613e-05 
8 1 -5.508519645617e-05  -1.152854516304e-04  -1.985544175714e-04 
8
Step 23000
1 1  4.170215149543e-05   2.191867594293e-05   8.828276338895e-05 
2 1  5.033492192354e-05  -2.268255590086e-05   2.061429355006e-05 
3 1 -4.783746367062e-05   2.886028930608e-05  -4.753816094968e-05 
4 1 -1.432739199078e-04   5.753600068358e-05  -4.149742205998e-05 
5 1 -2.041146989941e-05   9.632566346162e-07  -2.641358723175e-05 
6 1  1.500451733995e-04   9.103425727079e-05  -1.664673712326e-05 
7 1  1.176886102498e-05  -8.278690232131e-06   4.470490160498e-05 
8 1 -2.780698236649e-05  -1.694728345958e-05  -3.033861309156e-04 
8
Step 24000
1 1  3.288208287292e-05   2.293723210865e-05   9.970731428437e-05 
2 1  1.883761518491e-05   9.441092747461e-05  -1.352022152783e-05 
3 1 -4.342290542425e-05   3.493022130577e-05  -3.336642024775e-05 
4 1 -1.518869950847e-04   9.322381043886e-05  -3.520977729130e-05 
5 1 -8.227553235827e-05  -4.122647943390e-05  -2.247812491275e-05 
6 1  9.184859699640e-05   1.223704379819e-04  -2.169822851502e-05 
7 1  5.207094652928e-05   4.391093015778e-05   6.724449516487e-05 
8 1 -1.079794804598e-05   4.959777033758e-05  -2.731491664533e-04 
8
Step 25000
1 1  9.570733783820e-06   3.237914389189e-06   7.076525261836e-05 
2 1 -1.897965345181e-05   1.680472552817e-04  -4.807594308166e-05 
3 1 -1.654487028929e-05   2.291900960745e-05   6.661887229447e-06 
4 1 -1.017652408038e-04   9.350528509610e-05  -1.522673023220e-05 
5 1 -1.045656271371e-04  -7.123047359536e-05   1.092914837934e-06 
6 1 -2.515415505182e-06   1.162198975925e-04  -1.723690177592e-05 
7 1  6.547620745262e-05   6.114414805828e-05   6.443121833105e-05 
8 1 -4.758493443168e-06   6.593284627756e-05  -1.528082482988e-04 
8
Step 26000
1 1 -1.542113354384e-05  -2.833879278740e-05   4.034450250956e-06 
2 1 -4.154750705661e-05   1.619130437616e-04  -7.591634286810e-05 
3 1  1.934862978334e-05   5.364655889586e-10   5.694251539373e-05 
4 1 -2.022291076421e-05   6.132180760947e-05   2.748878862807e-06 
5 1 -7.787407854812e-05  -6.586797327307e-05   2.555677985680e-05 
6 1 -8.664827199734e-05   7.180896376755e-05  -5.821893781836e-06 
7 1  4.960467984765e-05   4.987714906232e-05   4.602359865316e-05 
8 1 -7.615464922661e-07   4.243274116297e-05  -1.593218523951e-05 
8
Step 27000
1 1 -2.805520604725e-05  -5.410885599888e-05  -7.660632518706e-05 
2 1 -3.786468425232e-05   7.254417056515e-05  -8.255434532073e-05 
3 1  4.636152297643e-05  -2.205730763690e-05   9.309477752066e-05 
4 1  5.340727818236e-05   1.113526905923e-05   7.653450681478e-06 
5 1 -1.417187763918e-05  -1.559249520453e-05   3.041655877555e-05 
6 1 -1.226188227029e-04   8.466316583210e-06   6.156261541390e-06 
7 1  9.584934532938e-06   1.857825675930e-05   1.911121846896e-05 
8 1  8.218350181565e-06   5.588669383470e-06   8.308275953642e-05 
8
Step 28000
1 1 -2.160201316980e-05  -5.688298746506e-05  -1.365120640236e-04 
2 1 -1.272805157041e-05  -5.377315458867e-05  -5.898618700323e-05 
3 1  4.948045843333e-05  -3.181734364675e-05   9.243962953105e-05 
4 1  8.767205066802e-05  -3.647340865157e-05  -1.470987310749e-06 
5 1  5.473034034271e-05   6.283227024723e-05   6.062114036453e-06 
6 1 -1.074271434597e-04  -5.008021642978e-05   1.409482708770e-05 
7 1 -4.079805752762e-05  -1.737869531427e-05  -1.049617744124e-05 
8 1  2.222598062974e-05  -2.068554066414e-05   1.228573286552e-04 
8
Step 29000
1 1 -4.617835232963e-06  -2.612650762905e-05  -1.435497159959e-04 
2 1  1.484697521450e-05  -1.458015805392e-04  -1.163752159527e-05 
3 1  2.401386701724e-05  -2.267350052096e-05   4.560028450704e-05 
4 1  7.655710622718e-05  -6.718268863514e-05  -1.581380135926e-05 
5 1  9.311815561024e-05   1.288483574377e-04  -3.771100415475e-05 
6 1 -5.961669231292e-05  -8.676801027982e-05   1.640353227518e-05 
7 1 -8.117524673707e-05  -4.003974592224e-05  -3.799067374832e-05 
8 1  3.488288124737e-05  -2.468597834726e-05   1.052798578890e-04 
8
Step 30000
1 1  4.521527959386e-06   3.191287954625e-05  -7.975156033206e-05 
2 1  2.706760274347e-05  -1.673025875193e-04   4.188113811082e-05 
3 1 -1.879898384227e-05   2.149099144047e-06  -3.307048894478e-05 
4 1  3.377709914624e-05  -7.385457596081e-05  -2.294569742643e-05 
5 1  8.575697058241e-05   1.448385813075e-04  -7.562836030160e-05 
6 1 -2.497385543142e-06  -9.207549034689e-05   1.356032489019e-05 
7 1 -9.231612578985e-05  -4.011603730962e-05  -5.709062460267e-05 
8 1  3.558349296284e-05  -8.064896617669e-06   4.888765267932e-05 
8
Step 31000
1 1 -5.797419252962e-06   8.822323519818e-05   3.831201363021e-05 
2 1  1.865849253055e-05  -1.197621412573e-04   8.190231658139e-05 
3 1 -5.470107131894e-05   2.798231775309e-05  -1.078362346810e-04 
4 1 -1.718846218018e-05  -5.393299612562e-05  -1.419321608751e-05 
5 1  4.073956597019e-05   9.183026444841e-05  -7.951239736790e-05 
6 1  4.337258300553e-05  -6.635451564445e-05   7.616934114713e-06 
7 1 -6.302796793109e-05  -2.015969099543e-05  -6.071894567452e-05 
8 1  1.688010451309e-05   1.739136432540e-05  -1.877644197312e-05 
8
Step 32000
1 1 -3.021685176730e-05   1.063372399123e-04   1.508402843798e-04 
2 1 -3.128713697746e-06  -2.745063441266e-05   9.242894418941e-05 
3 1 -6.315950038732e-05   4.021661513304e-05  -1.446969109807e-04 
4 1 -5.056706862304e-05  -1.141543333682e-05   9.582987077070e-06 
5 1 -1.866242053484e-05  -2.114765632004e-05  -3.386494121285e-05 
6 1  6.547348452754e-05  -2.084621223274e-05   1.218896590389e-06 
7 1  5.323392819427e-06   8.825617922939e-06  -4.321470231619e-05 
8 1 -1.657919209683e-05   3.615715564139e-05  -7.090653452417e-05 
8
Step 33000
1 1 -4.952030240143e-05   7.111828948861e-05   1.979772079600e-04 
2 1 -2.264834679304e-05   6.564169609100e-05   6.877881228228e-05 
3 1 -3.742819213224e-05   3.369116320528e-05  -1.265419192894e-04 
4 1 -4.999069630023e-05   4.196516617298e-05   3.743778147562e-05 
5 1 -5.642181091564e-05  -1.334948317086e-04   4.139271260576e-05 
6 1  6.217687107471e-05   2.582449008416e-05  -4.025820035344e-06 
7 1  9.078585697527e-05   3.242876100420e-05  -6.331416763713e-06 
8 1 -5.006841373924e-05   3.662718506403e-05  -9.094063662117e-05 
8
Step 34000
1 1 -4.287789739884e-05  -3.815761489454e-06   1.546534879063e-04 
2 1 -2.633213051607e-05   1.196233073755e-04   2.060839797055e-05 
3 1  1.381116944889e-05   1.173313525352e-05  -5.628705813440e-05 
4 1 -1.886864667626e-05   8.980121685686e-05   5.410445724843e-05 
5 1 -5.133793474617e-05  -1.770852709038e-04   1.014429523445e-04 
6 1  4.231408953427e-05   5.483150347801e-05  -7.579303371837e-06 
7 1  1.547690037645e-04   3.991271873591e-05   3.625589296702e-05 
8 1 -6.741954900293e-05   1.507416829338e-05  -7.563352245282e-05 
8
Step 35000
1 1 -4.511660983169e-06  -7.987993285236e-05   3.978868232266e-05 
2 1 -1.015751698177e-05   1.188325443125e-04  -3.751356997761e-05 
3 1  6.431102082869e-05  -1.363382904819e-05   3.537118141446e-05 
4 1  2.515781226590e-05   1.133436056691e-04   4.453537718701e-05 
5 1 -1.844614275692e-05  -1.414269756085e-04   1.167467913536e-04 
6 1  1.941407999663e-05   6.182170420385e-05  -8.583816225088e-06 
7 1  1.649764368301e-04   2.912364508592e-05   6.866852595470e-05 
8 1 -5.676567135636e-05  -2.518416712815e-05  -3.038446402397e-05 
8
Step 36000
1 1  4.446109857086e-05  -1.115572965413e-04  -7.600402317763e-05 
2 1  2.092795182757e-05   6.868499025513e-05  -8.928195302034e-05 
3 1  8.504147819274e-05  -2.979052718067e-05   1.019061359732e-04 
4 1  5.996549966145e-05   8.799728584375e-05  -3.291635607060e-06 
5 1  1.202320303964e-05  -5.934360132445e-05   8.305679941442e-05 
6 1 -6.523308687734e-07   5.863599203928e-05  -7.953865142638e-06 
7 1  1.026315678834e-04   4.007061069498e-06   8.363772224985e-05 
8 1 -1.503331316230e-05  -7.249442314967e-05   3.145221815995e-05 
8
Step 37000
1 1  7.825655691885e-05  -8.747186515507e-05  -1.311921440884e-04 
2 1  4.912892462990e-05  -7.506280699763e-06  -1.131532573632e-04 
3 1  6.644398019529e-05  -3.413421970935e-05   1.186864392385e-04 
4 1  6.182497222184e-05   2.951931823775e-06  -7.727730186411e-05 
5 1  1.985346747331e-05   1.838872067489e-05   2.349610290645e-05 
6 1 -2.107951797805e-05   5.302049469148e-05  -8.410033925066e-06 
7 1 -3.294220704536e-05  -2.749429193728e-05   7.742271255731e-05 
8 1  4.265622831084e-05  -1.050108059757e-04   8.385632123591e-05 
8
Step 38000
1 1  8.466260568256e-05  -2.666602767025e-05  -1.177019081465e-04 
2 1  4.900984878912e-05  -7.403803169482e-05  -9.337373981808e-05 
3 1  1.989788019752e-05  -3.101835367540e-05   9.131583590140e-05 
4 1  2.657015436492e-05  -1.017620633483e-04  -1.322637389184e-04 
5 1  5.307144163934e-06   5.603631964538e-05  -2.959682588118e-05 
6 1 -4.666449653743e-05   4.011607697015e-05  -1.100687904058e-05 
7 1 -1.695931836299e-04  -4.637720486965e-05   4.997884199762e-05 
8 1  8.559188413224e-05  -1.019255923124e-04   9.994069196969e-05 
8
Step 39000
1 1  5.831588367963e-05   4.135763573506e-05  -5.331070712747e-05 
2 1  1.373843939048e-05  -1.004948127320e-04  -3.364069703438e-05 
3 1 -3.207821252740e-05  -2.646696682466e-05   3.995570729235e-05 
4 1 -2.190829743939e-05  -1.678467072861e-04  -1.336705314230e-04 
5 1 -1.705300681437e-05   5.173033365728e-05  -5.809574963049e-05 
6 1 -7.520321955508e-05   6.253521638334e-06  -1.298063865717e-05 
7 1 -2.192140632283e-04  -3.910674063481e-05   1.819612585091e-05 
8 1  8.877931558929e-05  -5.640401594227e-05   7.194632555769e-05 
8
Step 40000
1 1  6.413364565941e-06   8.271030172796e-05   2.823173523539e-05 
2 1 -3.816855744522e-05  -7.856522788373e-05   4.439078023480e-05 
3 1 -6.833195595190e-05  -2.121478339792e-05  -1.185355375205e-05 
4 1 -5.692946355899e-05  -1.657275329372e-04  -8.008285650425e-05 
5 1 -3.060051010123e-05   2.125231957847e-05  -5.670862788955e-05 
6 1 -9.144164040373e-05  -5.055844400300e-05  -8.862763773717e-06 
7 1 -1.713114612556e-04  -1.231588658595e-05  -2.480442322705e-06 
8 1  4.934875117187e-05   1.845505308605e-05   1.537592136973e-05 
8
Step 41000
1 1 -4.966619424989e-05   7.595522538360e-05   8.824770359043e-05 
2 1 -7.525939099043e-05  -2.706568939203e-05   1.080450157021e-04 
3 1 -7.692986937634e-05  -9.104391277192e-06  -4.489945849529e-05 
4 1 -6.158873983359e-05  -9.687366614859e-05   4.218859605307e-06 
5 1 -2.469614984844e-05  -1.466752306732e-05  -2.971716217163e-05 
6 1 -8.026005097219e-05  -1.071992359449e-04   4.562981160182e-06 
7 1 -6.400003715557e-05   1.777023241082e-05  -1.192739807294e-05 
8 1 -8.326898262560e-06   8.921381147399e-05  -3.758431861012e-05 
8
Step 42000
1 1 -8.704126805974e-05   2.247634614344e-05   1.025280439238e-04 
2 1 -7.284962526067e-05   2.471576923624e-05   1.329829269640e-04 
3 1 -5.655321256972e-05   1.282841535468e-05  -5.282310170549e-05 
4 1 -3.518683125829e-05   1.516947099677e-06   7.354518232440e-05 
5 1  5.899273752023e-07  -3.623699617347e-05   9.812060683795e-06 
6 1 -4.119999907860e-05  -1.366206895002e-04   2.528492450191e-05 
7 1  4.247104654367e-05   3.558101828056e-05  -1.534277672241e-05 
8 1 -5.038183409831e-05   1.224608767227e-04  -5.827469898463e-05 
8
Step 43000
1 1 -8.916568950785e-05  -5.429819369873e-05   6.805394949959e-05 
2 1 -2.899130348842e-05   5.467665753543e-05   1.122633759318e-04 
3 1 -1.525707565926e-05   3.912097402084e-05  -4.152775652985e-05 
4 1  1.909731030922e-06   7.471731024747e-05   9.247224051007e-05 
5 1  3.408416547385e-05  -3.123215818943e-05   4.412696255131e-05 
6 1  1.316234905747e-05  -1.253339746309e-04   4.614923510142e-05 
7 1  1.002818544636e-04   3.052922797556e-05  -1.295185648175e-05 
8 1 -5.799829133600e-05   1.065039295191e-04  -3.948395299750e-05 
8
Step 44000
1 1 -4.901355102279e-05  -1.088769117192e-04   1.569259527683e-06 
2 1  3.434972330194e-05   5.216696809145e-05   5.159035427474e-05 
3 1  3.154801419512e-05   5.970062659241e-05  -2.259046664065e-05 
4 1  2.796118606454e-05   9.638324468545e-05   6.331895393009e-05 
5 1  5.906630631007e-05  -2.637774474984e-08   5.806170503995e-05 
6 1  6.256446683522e-05  -7.585306874448e-05   5.549740853711e-05 
7 1  9.712186884149e-05   5.589034928697e-07  -9.302852267756e-06 
8 1 -3.177390376666e-05   5.232121300407e-05   2.877904299615e-06 
8
Step 45000
1 1  1.679132809702e-05  -1.025960289513e-04  -6.548173544405e-05 
2 1  8.143729932892e-05   2.339985811502e-05  -2.703360080884e-05 
3 1  6.819140309165e-05   6.244598884152e-05  -6.011803287521e-06 
4 1  3.474293254298e-05   7.043653574794e-05   9.490374555299e-06 
5 1  5.980424294772e-05   4.295124069032e-05   4.579327963601e-05 
6 1  8.621361485393e-05  -7.519914806093e-06   4.345570210126e-05 
7 1  5.240161479510e-05  -3.955187085148e-05  -1.519413474764e-05 
8 1  1.164259509124e-05  -1.637407892438e-05   3.994104072465e-05 
8
Step 46000
1 1  7.345832282918e-05  -3.565939132928e-05  -1.017305421403e-04 
2 1  8.794518212792e-05  -9.801762691227e-06  -8.850703188577e-05 
3 1  8.392514986429e-05   3.658512368912e-05   4.678338331776e-06 
4 1  2.381393910190e-05   1.658330633874e-05  -3.795733543158e-05 
5 1  2.668502946343e-05   7.130420177689e-05   1.295322881579e-05 
6 1  7.529732379866e-05   5.112109406886e-05   1.151140981496e-05 
7 1 -1.578505727747e-06  -6.159943002664e-05  -3.056640050197e-05 
8 1  4.499682151010e-05  -7.370835387810e-05   4.766313754435e-05 
8
Step 47000
1 1  9.169155925978e-05   5.649515999339e-05  -9.315091013306e-05 
2 1  5.889573628504e-05  -2.698945813070e-05  -1.065714902182e-04 
3 1  7.117727350349e-05  -2.091044009710e-05   1.222016730569e-05 
4 1  3.002863704397e-06  -3.711201852160e-05  -5.259853499498e-05 
5 1 -3.507253313805e-05   5.802921230718e-05  -2.552934511014e-05 
6 1  3.915020138657e-05   8.185129914563e-05  -2.742851211521e-05 
7 1 -4.157027731701e-05  -4.778027438243e-05  -4.033451924990e-05 
8 1  4.806649075449e-05  -1.013739556086e-04   2.060422817564e-05 
8
Step 48000
1 1  6.368102608207e-05   1.226681806639e-04  -4.718060272766e-05 
2 1  1.777283523697e-05  -2.279093271343e-05  -8.486734800518e-05 
3 1  2.903084324497e-05  -9.508462553365e-05   2.048419231522e-05 
4 1 -1.555539745520e-05  -6.684344314750e-05  -2.963549555929e-05 
5 1 -9.894346547531e-05  -5.578265832690e-06  -4.927342700875e-05 
6 1 -4.011317734270e-06   8.517748269102e-05  -5.636248369899e-05 
7 1 -5.447231508303e-05  -3.383889157557e-07  -3.032768273067e-05 
8 1  2.046687401973e-05  -9.731270171445e-05  -2.524964204914e-05 
8
Step 49000
1 1  7.553220823274e-06   1.264619598515e-04   1.359143426217e-05 
2 1 -1.790367751700e-05  -5.090958904151e-06  -4.580515027025e-05 
3 1 -2.621738183953e-05  -1.515385815248e-04   3.025356388527e-05 
4 1 -2.241499043317e-05  -6.093989083210e-05   1.459348279123e-05 
5 1 -1.273120977514e-04  -9.813459481836e-05  -4.244661102776e-05 
6 1 -3.877079966472e-05   6.937713440929e-05  -5.970364832534e-05 
7 1 -3.655071413169e-05   6.155641748007e-05   4.171086406741e-06 
8 1 -2.484145065766e-05  -6.689090790207e-05  -6.594338497136e-05 
8
Step 50000
1 1 -4.346573716478e-05   6.918302453744e-05   6.123788416659e-05 
2 1 -3.965588946418e-05   1.432865702994e-05  -6.841434408402e-06 
3 1 -6.950286790658e-05  -1.594304324191e-04   4.064056928306e-05 
4 1 -1.551795650281e-05  -2.165564586716e-05   5.367866222584e-05 
5 1 -9.469836651354e-05  -1.706012463294e-04  -9.957239741637e-06 
6 1 -5.152898874661e-05   4.139544453623e-05  -3.538976282234e-05 
7 1  2.191245020677e-06   1.068935099279e-04   5.377808441021e-05 
8 1 -7.042529426509e-05  -8.884870516882e-06  -8.477671972259e-05 
8
Step 51000
1 1 -6.171062165548e-05  -1.477600635190e-05   7.661634532023e-05 
2 1 -4.152930515160e-05   2.457562384350e-05   2.061139284409e-05 
3 1 -8.429287716741e-05  -1.092510378673e-04   4.989969654472e-05 
4 1 -9.492400246897e-08   3.559166301861e-05   6.348836362468e-05 
5 1 -6.115271764027e-06  -1.682496999633e-04   2.367632619431e-05 
6 1 -3.206510139009e-05   4.878046814061e-06  -2.523246678116e-07 
7 1  3.900022374360e-05   1.092594900208e-04   9.471375934977e-05 
8 1 -9.235282468102e-05   6.896320769994e-05  -6.915248475510e-05 
8
Step 52000
1 1 -4.003194274487e-05  -8.209603071234e-05   5.944493558867e-05 
2 1 -2.321480759074e-05   2.006876674373e-05   3.194032400013e-05 
3 1 -6.858126062267e-05  -1.615824083514e-05   5.288118547359e-05 
4 1  1.254002438942e-05   8.470360709423e-05   3.294001812644e-05 
5 1  9.639082143650e-05  -7.441262101644e-05   3.556960922430e-05 
6 1  1.177289894581e-05  -3.469308084688e-05   2.872332869840e-05 
7 1  5.114333883171e-05   6.176163757002e-05   1.023495784154e-04 
8 1 -7.311677126114e-05   1.317764829674e-04  -2.100154524677e-05 
8
Step 53000
1 1  6.807572813056e-06  -1.039710077908e-04   2.363727536981e-05 
2 1  8.036529515892e-06   3.215649179484e-06   3.056379969621e-05 
3 1 -3.890760919708e-05   8.005298370853e-05   4.384997962913e-05 
4 1  1.076286655488e-05   9.691011490626e-05  -2.907342158416e-05 
5 1  1.506886038440e-04   5.746571514507e-05   1.949863307933e-05 
6 1  5.402131827857e-05  -6.988035906567e-05   4.463965931517e-05 
7 1  2.906909970032e-05  -1.792043927107e-05   6.681182917441e-05 
8 1 -2.090000137721e-05   1.464476366149e-04   3.596780496538e-05 
8
Step 54000
1 1  4.965459202476e-05  -7.521545573072e-05  -1.246128402261e-05 
2 1  3.967291112168e-05  -1.702283846945e-05   2.565880455069e-05 
3 1 -1.846947579234e-05   1.379078163435e-04   2.369398096291e-05 
4 1 -8.584788978593e-06   5.615076917573e-05  -9.461091128386e-05 
5 1  1.299274521661e-04   1.520482622292e-04  -1.185246737105e-05 