8
Step 0
1 1  0.000000000000e+00   0.000000000000e+00   0.000000000000e+00 
2 1  0.000000000000e+00   0.000000000000e+00   0.000000000000e+00 
3 1  0.000000000000e+00   0.000000000000e+00   0.000000000000e+00 
4 1  0.000000000000e+00   0.000000000000e+00   0.000000000000e+00 
5 1  0.000000000000e+00   0.000000000000e+00   0.000000000000e+00 
6 1  0.000000000000e+00   0.000000000000e+00   0.000000000000e+00 
7 1  0.000000000000e+00   0.000000000000e+00   0.000000000000e+00 
8 1  0.000000000000e+00   0.000000000000e+00   0.000000000000e+00 
8
Step 1000
1 1  1.537546079028e-04  -4.444493848755e-05  -1.256171679981e-04 
2 1  1.033614814050e-04  -1.744091577387e-04  -1.622809338624e-06 
3 1 -1.148705088677e-04  -1.189566160707e-04  -1.439096964128e-05 
4 1  1.257409784150e-04  -1.225021273890e-04  -2.366991744844e-05 
5 1  1.325456513124e-04  -1.548613960240e-04  -1.272554207289e-04 
6 1  7.330988212507e-05   1.977812348234e-04   1.490307438556e-04 
7 1 -1.529786339706e-05   6.412394742553e-05  -1.516094056727e-04 
8 1 -2.140009548225e-05   1.122881421972e-04   2.504977069960e-05 
8
Step 2000
1 1  1.540777521245e-04  -4.906844342305e-05  -5.873300932546e-05 
2 1  4.490988081082e-05  -9.944940586712e-05   5.693814295105e-05 
3 1 -6.219617750252e-05  -6.864023000627e-05   1.331257330464e-05 
4 1  2.055269322653e-05  -1.374448079445e-04  -5.908381154403e-05 
5 1  2.915314990275e-05  -1.717927351519e-04  -8.592093451512e-05 
6 1  9.675962961986e-05   1.372612142839e-04   7.719924430525e-05 
7 1  4.574660356621e-05   7.968557075106e-05  -1.032482725448e-04 
8 1  2.428766659746e-05   1.744121978520e-04   2.573485351964e-05 
8
Step 3000
1 1  8.294713488552e-05  -4.557705239337e-05   3.602086699651e-05 
2 1 -3.305003552817e-05   1.487494314628e-05   9.436736071061e-05 
3 1  1.976715786752e-05   6.462520757866e-06   3.954100033776e-05 
4 1 -7.572535684155e-05  -9.337338606197e-05  -6.453671787951e-05 
5 1 -7.392312941036e-05  -1.203505542203e-04  -1.162789884849e-05 
6 1  7.165975999239e-05   1.279666977129e-05  -1.796725705409e-05 
7 1  7.500773129144e-05   6.676040743183e-05  -6.292324135239e-06 
8 1  6.383318132795e-05   1.544393505141e-04   2.703299874162e-05 
8
Step 4000
1 1 -2.453570871410e-05  -3.615635189457e-05   1.097687782249e-04 
2 1 -8.293628103106e-05   9.732910674226e-05   9.379118747361e-05 
3 1  9.093790085416e-05   6.066655200932e-05   5.515209193172e-05 
4 1 -1.225749972102e-04  -2.235856857428e-05  -5.838295258548e-05 
5 1 -1.187919150942e-04  -3.948248948360e-05   5.195268907875e-05 
6 1  1.648532625656e-05  -9.529121876614e-05  -7.659163380579e-05 
7 1  6.943195052979e-05   2.426282065619e-05   8.051842517168e-05 
8 1  7.739447365059e-05   6.888150545834e-05   2.122484482689e-05 
8
Step 5000
1 1 -1.067989069036e-04  -2.584657481173e-05   1.217399732588e-04 
2 1 -8.543966617999e-05   1.130876433311e-04   6.314545555477e-05 
3 1  1.201536030378e-04   7.465938557172e-05   5.471043316891e-05 
4 1 -1.086565313073e-04   4.493182583250e-05  -5.131847002617e-05 
5 1 -9.954962290964e-05   2.672529108564e-05   7.752878314854e-05 
6 1 -3.588173100307e-05  -1.391467065308e-04  -7.385721143871e-05 
7 1  4.413673788536e-05  -2.680215860018e-05   1.127948529370e-04 
8 1  5.852044723325e-05  -3.301544311304e-05   7.147433897040e-06 
8
Step 6000
1 1 -1.244168932351e-04  -1.563719758519e-05   7.275561300136e-05 
2 1 -4.969407395649e-05   6.892553402009e-05   1.992536690660e-05 
3 1  1.041917072276e-04   5.509070581482e-05   3.895768583470e-05 
4 1 -4.553116175298e-05   8.533540636739e-05  -4.080132481334e-05 
5 1 -4.073314548453e-05   6.286880992063e-05   6.702472186922e-05 
6 1 -7.082599204080e-05  -1.251316792810e-04  -2.548347061506e-05 
7 1  1.754343512602e-05  -6.347497337584e-05   8.779968344608e-05 
8 1  2.259692583241e-05  -9.547561890150e-05  -8.802195329028e-06 
8
Step 7000
1 1 -8.466674974348e-05   2.033722336888e-07  -1.602740188872e-06 
2 1  2.512807964210e-06  -8.067354172390e-06  -1.593174386758e-05 
3 1  5.830500067147e-05   2.003684340092e-05   1.420368769822e-05 
4 1  3.671080159002e-05   8.484703507980e-05  -2.016066248258e-05 
5 1  2.844959209876e-05   6.715852551942e-05   3.064946294301e-05 
6 1 -7.671530130827e-05  -6.714486662660e-05   3.733659511556e-05 
7 1  6.824953493979e-07  -7.471215502343e-05   3.185394389466e-05 
8 1 -7.519008733720e-06  -9.775770279122e-05  -2.154568840021e-05 
8
Step 8000
1 1 -1.965956469040e-05   2.720978813361e-05  -6.110738449307e-05 
2 1  4.612816821517e-05  -7.986490638625e-05  -2.934252950312e-05 
3 1  4.527421072561e-06  -1.052076392107e-05  -1.104751407757e-05 
4 1  1.005582444225e-04   4.750899079526e-05   1.075818664222e-05 
5 1  7.749412796594e-05   4.354327406334e-05  -1.583317668085e-05 
6 1 -4.677281622275e-05   1.494821343228e-05   7.052621170161e-05 
7 1 -4.465482739152e-06  -6.057725341114e-05  -2.447890199424e-05 
8 1 -2.301731656078e-05  -5.558506485646e-05  -2.942093903541e-05 
8
Step 9000
1 1  3.983686209147e-05   6.398539133087e-05  -8.078929263421e-05 
2 1  6.363345708243e-05  -1.048955570173e-04  -2.812320334795e-05 
3 1 -3.899751789901e-05  -2.548693197167e-05  -3.097496246747e-05 
4 1  1.199755218357e-04  -6.293919178707e-06   4.332938655786e-05 
5 1  8.594523058944e-05   3.250549587267e-06  -5.274679439381e-05 
6 1  6.534962091389e-06   8.801682234236e-05   5.044183312854e-05 
7 1 -1.752909332453e-06  -2.693628515110e-05  -6.074740088604e-05 
8 1 -2.633164924343e-05   6.042187306218e-06  -2.921709202945e-05 
8
Step 10000
1 1  6.835454995785e-05   9.216318065939e-05  -4.983363779043e-05 
2 1  5.048318026663e-05  -6.668518664479e-05  -2.717739583837e-05 
3 1 -6.122702506694e-05  -2.576776577087e-05  -4.091871472491e-05 
4 1  8.978449905249e-05  -5.258476221605e-05   6.788518556634e-05 
5 1  5.260262145620e-05  -3.753329400915e-05  -6.361135925791e-05 
6 1  5.982793465073e-05   1.224294243098e-04  -9.624565650564e-06 
7 1  3.111417813501e-06   1.647361246336e-05  -6.701316919648e-05 
8 1 -2.060846882591e-05   6.031985925796e-05  -1.820471978717e-05 
8
Step 11000
1 1  5.406509946027e-05   7.626366879547e-05   2.116703345890e-05 
2 1  1.382993460885e-05   1.491709939389e-05  -2.801674248579e-05 
3 1 -5.692738938618e-05  -1.833207127288e-05  -3.472921228092e-05 
4 1  2.400485613304e-05  -7.292239196738e-05   7.646395120602e-05 
5 1 -5.163056788394e-06  -6.218841509862e-05  -4.194613921261e-05 
6 1  9.270048503603e-05   1.072480161664e-04  -7.276384129474e-05 
7 1  5.219340251965e-06   5.552846350621e-05  -4.219665347027e-05 
8 1 -8.673057350494e-06   8.212645461012e-05   2.202831644069e-06 
8
Step 12000
1 1  1.154067649312e-05   7.413720051832e-06   8.961626821896e-05 
2 1 -2.840893578361e-05   9.551198400126e-05  -2.544270982450e-05 
3 1 -2.863601271147e-05  -9.545975560824e-06  -9.808674559847e-06 
4 1 -4.957827397202e-05  -6.000363399904e-05   6.426298044295e-05 
5 1 -5.954426488818e-05  -5.986937239313e-05   4.128136660102e-06 
6 1  9.230741607864e-05   4.842586790707e-05  -9.691420479166e-05 
7 1  2.244924574076e-06   7.423397048846e-05   4.377817170044e-06 
8 1  5.214241612341e-06   5.773939189282e-05   2.620514118865e-05 
8
Step 13000
1 1 -3.082064047366e-05  -8.064918983656e-05   1.133596926122e-04 
2 1 -5.572980208545e-05   1.296619852597e-04  -1.369133259350e-05 
3 1  1.145559589073e-05  -1.657821998430e-06   2.693887821187e-05 
4 1 -1.002032163120e-04  -2.163566922032e-05   3.287866921344e-05 
5 1 -8.606093329071e-05  -2.953140009092e-05   5.351809984270e-05 
6 1  5.714542236944e-05  -2.805763876216e-05  -6.648044143064e-05 
7 1 -5.440181302742e-06   6.153373709315e-05   5.405534636760e-05 
8 1  1.642715240165e-05  -6.318455619178e-06   4.530696812105e-05 
8
Step 14000
1 1 -5.113297694886e-05  -1.429574445181e-04   8.131451933253e-05 
2 1 -5.529720442361e-05   9.777738635381e-05   7.794974502730e-06 
3 1  4.447744957032e-05   6.180583845130e-06   5.893649778211e-05 
4 1 -1.094229248667e-04   2.261612442280e-05  -9.508805671711e-06 
5 1 -7.625768215262e-05   2.019100541815e-05   7.928265260482e-05 
6 1  2.529417744247e-06  -8.230902412139e-05  -2.152314119961e-06 
7 1 -1.537271294946e-05   1.835568957184e-05   8.556132017845e-05 
8 1  2.180374285504e-05  -8.136029799907e-05   5.076618298355e-05 
8
Step 15000
1 1 -4.236029283425e-05  -1.484100580828e-04   9.278997476490e-06 
2 1 -2.628512440838e-05   1.234940152339e-05   3.178808934012e-05 
3 1  5.467435878076e-05   1.543667517656e-05   6.784166408161e-05 
4 1 -7.932904262919e-05   5.260834183319e-05  -5.133572824612e-05 
5 1 -3.803337859657e-05   7.066906441411e-05   6.036646304576e-05 
6 1 -4.604305083220e-05  -8.966835372781e-05   5.794063567831e-05 
7 1 -2.338406099908e-05  -3.987010182279e-05   8.356659124253e-05 
8 1  1.968890200093e-05  -1.277275524718e-04   3.755988014364e-05 
8
Step 16000
1 1 -1.251603540212e-05  -9.218364039975e-05  -6.799830860990e-05 
2 1  1.699750968519e-05  -8.474139232202e-05   4.668220810001e-05 
3 1  3.903504461935e-05   2.754337603262e-05   4.526411629590e-05 
4 1 -2.806962109125e-05   5.734185184369e-05  -8.091632542994e-05 
5 1  1.149274165170e-05   9.744111664596e-05  -1.856831502110e-06 
6 1 -7.344508303944e-05  -5.684212848093e-05   8.654527921749e-05 
7 1 -2.585133719941e-05  -8.798419547459e-05   4.468697551751e-05 
8 1  1.002809279625e-05  -1.116459744219e-04   6.205143019866e-06 
8
Step 17000
1 1  1.944073451869e-05  -3.621823673512e-06  -1.115622001181e-04 
2 1  5.013357788986e-05  -1.419517306309e-04   4.463212262450e-05 
3 1  7.741535019364e-06   3.994925133291e-05  -2.330639018981e-06 
4 1  2.203960365486e-05   3.770084719088e-05  -8.907091078833e-05 
5 1  5.007734145836e-05   8.369060188123e-05  -7.636548663715e-05 
6 1 -7.714364391634e-05  -7.432103396866e-06   7.599121512553e-05 
7 1 -2.165789678706e-05  -1.002660233409e-04  -1.951008578004e-05 
8 1 -2.921266139732e-06  -2.213744219431e-05  -3.590932951229e-05 
8
Step 18000
1 1  3.590488221502e-05   7.256192182443e-05  -1.049410822317e-04 
2 1  5.364214308248e-05  -1.316685312241e-04   2.733774996882e-05 
3 1 -2.150382930696e-05   4.328434930637e-05  -5.504800396519e-05 
4 1  5.608661444447e-05   4.165047219095e-06  -7.088178877782e-05 
5 1  6.368474526604e-05   3.272545759261e-05  -1.190845829615e-04 
6 1 -5.982045512692e-05   3.350876125224e-05   3.438740824798e-05 
7 1 -1.057514267818e-05  -6.355447340333e-05  -8.408901692751e-05 
8 1 -1.048432192363e-05   1.048612689720e-04  -7.234390941943e-05 
8
Step 19000
1 1  3.111918754617e-05   1.074940978681e-04  -5.893557339435e-05 
2 1  2.364627303590e-05  -6.089610250205e-05   2.958575557509e-06 
3 1 -3.267289868495e-05   2.941889465480e-05  -8.760333778080e-05 
4 1  6.929166738570e-05  -2.720558512331e-05  -2.936728150210e-05 
5 1  5.743529292116e-05  -3.268993698734e-05  -9.989775935791e-05 
6 1 -2.927172888318e-05   4.826974188877e-05  -1.778856736753e-05 
7 1  7.956713449470e-06   8.426396199859e-06  -1.215147292688e-04 
8 1 -8.073696863135e-06   2.000490599785e-04  -8.480001596145e-05 
8
Step 20000
1 1  1.040892530668e-05   9.420494284093e-05   3.094159867846e-06 
2 1 -2.413983856335e-05   3.932314025848e-05  -2.129835749603e-05 
3 1 -2.231601661307e-05  -2.600951170026e-06  -8.543397153764e-05 
4 1  6.459565214513e-05  -4.296262069333e-05   2.226498203192e-05 
5 1  4.201550572036e-05  -8.142191156847e-05  -2.398110496978e-05 
6 1  3.022318914589e-06   3.245642420752e-05  -5.672567359558e-05 
7 1  3.201334024943e-05   7.984191048683e-05  -1.156630573664e-04 
8 1  8.157163988125e-07   2.127976759550e-04  -6.388847804717e-05 
8
Step 21000
1 1 -1.406740836810e-05   4.373980453053e-05   5.459504858351e-05 
2 1 -6.114508455301e-05   1.247741941092e-04  -4.040582420963e-05 
3 1 -7.196544929980e-07  -4.534220639194e-05  -5.172630859282e-05 
4 1  4.926999066231e-05  -3.978447188534e-05   6.615341111577e-05 
5 1  2.260580673042e-05  -9.203158429136e-05   6.758521391804e-05 
6 1  2.921274713705e-05  -2.958802633790e-06  -6.725367043748e-05 
7 1  5.525657516742e-05   1.145706500155e-04  -6.694929560002e-05 
8 1  9.083923388450e-06   1.265176826290e-04  -8.587485284388e-06 
8
Step 22000
1 1 -2.864582985865e-05  -1.943627422671e-05   7.533276664016e-05 
2 1 -6.350126104167e-05   1.563849780762e-04  -5.066261365133e-05 
3 1  1.740558668052e-05  -8.154716308163e-05  -1.475491799374e-06 
4 1  2.608715713244e-05  -2.192803724748e-05   8.657909148849e-05 
5 1  3.631790950578e-06  -6.326007342359e-05   1.266080141779e-04 
6 1  4.785796698061e-05  -3.658502125381e-05  -4.933044164503e-05 
7 1  6.887820242835e-05   9.263723642662e-05   1.089151679910e-05 
8 1  8.656935814625e-06  -2.040818706437e-05   5.666856388702e-05 
8
Step 23000
1 1 -2.414234766718e-05  -6.717918632321e-05   5.984883500499e-05 
2 1 -2.468325033351e-05   1.220494237263e-04  -5.103341363811e-05 
3 1  2.133602501981e-05  -9.210952278303e-05   4.551180927824e-05 
4 1 -7.625041416674e-06   4.037201210834e-06   7.428571376523e-05 
5 1 -1.342348031518e-05  -9.961522108651e-06   1.244254048726e-04 
6 1  5.864638313462e-05  -4.926075923544e-05  -1.629069044392e-05 
7 1  6.521924631884e-05   2.337273787570e-05   9.346549731906e-05 
8 1  4.699813812776e-07  -1.348402704550e-04   8.063818401559e-05 
8
Step 24000
1 1  4.855152294821e-08  -7.681907331705e-05   1.576825461419e-05 
2 1  3.958032890311e-05   3.495815243259e-05  -3.675084242772e-05 
3 1  7.571932824151e-06  -6.698676755857e-05   7.242444872494e-05 
4 1 -4.509070055459e-05   2.731898258900e-05   3.373719799033e-05 
5 1 -3.046463423105e-05   4.423732724834e-05   6.022111146044e-05 
6 1  6.035281380020e-05  -3.451926519733e-05   1.417154134219e-05 
7 1  4.018917942532e-05  -5.625197529309e-05   1.465821917299e-04 
8 1 -8.000241230724e-06  -1.720113625970e-04   5.313301238820e-05 
8
Step 25000
1 1  3.056958680703e-05  -4.196268899855e-05  -3.563771170906e-05 
2 1  9.189659986804e-05  -6.840756938486e-05  -2.206010126768e-06 
3 1 -1.831789134816e-05  -9.120768681314e-06   7.213983629717e-05 
4 1 -7.113786294412e-05   3.686067173465e-05  -1.728819952758e-05 
5 1 -4.648850880418e-05   7.415694933944e-05  -3.600150383685e-05 
6 1  5.025239230766e-05   9.549453998757e-07   2.988431288068e-05 
7 1 -5.237598927450e-06  -1.082600606076e-04   1.447008746556e-04 
8 1 -1.285991182619e-05  -1.371940081444e-04  -1.189691368144e-06 
8
Step 26000
1 1  4.489595094263e-05   1.762872121896e-05  -6.490396135288e-05 
2 1  9.608399945488e-05  -1.338882664263e-04   4.156436902398e-05 
3 1 -4.249055071344e-05   6.352760452787e-05   4.870058992881e-05 
4 1 -7.263084199492e-05   2.763536633730e-05  -5.746820733198e-05 
5 1 -5.604094971792e-05   6.602916464862e-05  -1.153666331760e-04 
6 1  2.371805152537e-05   4.054397186182e-05   2.792900213230e-05 
7 1 -6.060180981288e-05  -1.099369595405e-04   8.860358242297e-05 
8 1 -1.347975856206e-05  -5.330796172992e-05  -4.852504471076e-05 
8
Step 27000
1 1  2.866622315539e-05   7.204655994631e-05  -5.816196502493e-05 
2 1  4.525131130311e-05  -1.294158161328e-04   7.413135694929e-05 
3 1 -4.911908338031e-05   1.215367278011e-04   1.483825597353e-05 
4 1 -4.392833515447e-05   2.713442384530e-06  -7.195220689968e-05 
5 1 -5.252492530053e-05   2.519772235064e-05  -1.403258122312e-04 
6 1 -1.683195290083e-05   6.297739119990e-05   1.279225208291e-05 
7 1 -1.062012998506e-04  -5.906056372090e-05  -1.387863380263e-06 
8 1 -1.146523199783e-05   3.825966011095e-05  -6.414603219878e-05 
8
Step 28000
1 1 -1.967408613618e-05   9.523924820257e-05  -1.960179728784e-05 
2 1 -3.417535729531e-05  -6.961931126147e-05   8.021362222591e-05 
3 1 -2.862657212920e-05   1.377714792203e-04  -1.455563943118e-05 
4 1  7.896115661515e-06  -2.484975090559e-05  -5.799031632708e-05 
5 1 -2.861740158820e-05  -2.819391583757e-05  -9.932844931159e-05 
6 1 -5.540324273243e-05   5.404353142535e-05  -6.874924789641e-06 
7 1 -1.194630684898e-04   2.036462683945e-05  -8.693366029343e-05 
8 1 -8.414502459882e-06   9.827305070323e-05  -4.573262860244e-05 
8
Step 29000
1 1 -8.175137166448e-05   6.815419286402e-05   3.231816358371e-05 
2 1 -9.866911265008e-05   3.626296705519e-06   5.416733219086e-05 
3 1  1.746778170471e-05   9.830204388406e-05  -2.975959821631e-05 
4 1  6.364360097098e-05  -3.880686694635e-05  -2.329276126648e-05 
5 1  1.809335506995e-05  -6.605491164014e-05  -7.683908155099e-06 
6 1 -7.196612095065e-05   1.488521022258e-05  -2.160247200112e-05 
7 1 -9.341985894038e-05   8.551860802684e-05  -1.278939764246e-04 
8 1 -3.753052392089e-06   1.110529765982e-04  -8.255605497958e-06 
8
Step 30000
1 1 -1.195081451500e-04  -1.458792246199e-06   6.525196137097e-05 
2 1 -1.147889533382e-04   5.470650998496e-05   4.298339430661e-06 
3 1  7.255094004537e-05   1.100415132933e-05  -2.877139045478e-05 
4 1  9.992707034838e-05  -3.031251875593e-05   1.890013285488e-05 
5 1  7.228011200074e-05  -6.502505608577e-05   9.057176806588e-05 
6 1 -5.462469230130e-05  -3.882770411750e-05  -2.420162009303e-05 
7 1 -4.246126696831e-05   1.051660764223e-04  -1.127757737927e-04 
8 1  4.479076404196e-06   8.231040096817e-05   2.881194976028e-05 
8
Step 31000
1 1 -1.059084174640e-04  -7.556094313457e-05   5.924844346308e-05 
2 1 -7.234838595319e-05   6.523003837687e-05  -4.983274768693e-05 
3 1  1.077058708612e-04  -8.457338991750e-05  -1.823013965302e-05 
4 1  9.731784758325e-05  -7.905879596304e-07   5.466609611419e-05 
5 1  1.077845608153e-04  -2.220221233538e-05   1.437682815034e-04 
6 1 -7.451936739420e-06  -8.263590519903e-05  -1.245961295365e-05 
7 1  9.761707071533e-06   7.529639845569e-05  -6.016868840949e-05 
8 1  1.661311820216e-05   2.980646861318e-05   4.915756513509e-05 
8
Step 32000
1 1 -4.250313484043e-05  -1.127492816426e-04   2.419739689445e-05 
2 1  1.123787370442e-05   3.814946058200e-05  -8.499827322994e-05 
3 1  9.915983472234e-05  -1.396854160996e-04  -1.514621286677e-05 
4 1  4.818101149289e-05   3.659767782532e-05   7.436293387343e-05 
5 1  1.061542241436e-04   4.258836456676e-05   1.270000235727e-04 
6 1  5.048238182794e-05  -9.330806828245e-05   9.500536530885e-06 
7 1  4.117544425503e-05   1.747843422978e-05  -4.191472905530e-06 
8 1  2.928674568518e-05  -2.361386795484e-05   4.457859964507e-05 
8
Step 33000
1 1  4.374124571807e-05  -9.114142901428e-05  -1.502694705792e-05 
2 1  9.597852039328e-05  -2.339729157212e-06  -8.493438280017e-05 
3 1  4.260770118523e-05  -1.331685443201e-04  -3.307951252637e-05 
4 1 -3.438405760681e-05   5.810291544356e-05   7.523850814984e-05 
5 1  5.781005962856e-05   9.152208503176e-05   5.008889182371e-05 
6 1  9.708511350755e-05  -5.529993480135e-05   3.380444366860e-05 
7 1  4.551863742429e-05  -3.611815240968e-05   2.756811177574e-05 
8 1  3.560685476651e-05  -6.002836461892e-05   2.007739880639e-05 
8
Step 34000
1 1  1.112318983582e-04  -2.011248038755e-05  -3.553738944008e-05 
2 1  1.417433609972e-04  -2.785808486541e-05  -4.833492898427e-05 
3 1 -4.308658232307e-05  -7.335419503708e-05  -6.601300430920e-05 
4 1 -1.165290152311e-04   4.868616253127e-05   5.774672404945e-05 
5 1 -2.873800082321e-05   8.832726790835e-05  -5.002687535301e-05 
6 1  1.117623065904e-04   3.816701071883e-05   5.015545392708e-05 
7 1  3.408146957293e-05  -6.333402674698e-05   2.980697192963e-05 
8 1  2.667769447184e-05  -7.448769482965e-05  -1.041012018486e-05 
8
Step 35000
1 1  1.284462491602e-04   6.239669365384e-05  -2.920322716431e-05 
2 1  1.244866408071e-04  -2.195035762183e-05   1.562650669327e-05 
3 1 -1.181726277045e-04   8.129194004161e-06  -8.812337633570e-05 
4 1 -1.594153491595e-04   1.472785758088e-05   2.659483279113e-05 
5 1 -1.114581753894e-04   3.059336329937e-05  -1.204240787037e-04 
6 1  7.784904081428e-05   1.536065898744e-04   4.537537525204e-05 
7 1  2.079129549667e-05  -5.648414332658e-05   1.227260418275e-05 
8 1 -4.690904869810e-06  -7.031742226104e-05  -3.653918261656e-05 
8
Step 36000
1 1  9.265844490134e-05   1.126611105261e-04  -9.522639272814e-06 
2 1  3.595611215720e-05   1.638325191883e-05   9.043644403065e-05 
3 1 -1.430625978423e-04   7.047829397824e-05  -7.274851964457e-05 
4 1 -1.398662654906e-04  -2.157931945604e-05  -7.828881261033e-06 
5 1 -1.434133919046e-04  -4.647114861027e-05  -1.247922556411e-04 
6 1  1.152233064834e-05   2.194297162395e-04   1.727359376373e-05 
7 1  1.525076694189e-05  -1.924289133915e-05  -1.093111238753e-05 
8 1 -5.779288112838e-05  -5.013181391526e-05  -5.417078620272e-05 
8
Step 37000
1 1  2.105278803260e-05   1.063969992430e-04   6.248411068887e-06 
2 1 -9.150772747217e-05   6.583503923485e-05   1.393096488483e-04 
3 1 -1.069721738818e-04   8.860693816981e-05  -1.853487763165e-05 
4 1 -5.994318231016e-05  -3.779759591972e-05  -3.703965533989e-05 
5 1 -1.121029992118e-04  -9.943668486908e-05  -7.136758817968e-05 
6 1 -4.902192394545e-05   1.984186904260e-04  -2.129163309146e-05 
7 1  2.033596009340e-05   3.416697765419e-05  -2.477717709882e-05 
8 1 -1.143479804450e-04  -1.500588296356e-05  -5.688464892163e-05 
8
Step 38000
1 1 -5.959275553492e-05   4.390530294337e-05   1.191366649449e-05 
2 1 -1.826203508346e-04   9.067475300580e-05   1.275555259123e-04 
3 1 -3.527906163012e-05   6.488148222909e-05   4.691562857467e-05 
4 1  4.574365414315e-05  -3.088022952050e-05  -5.786068131366e-05 
5 1 -4.005954957909e-05  -1.030514927243e-04   1.633825244992e-06 
6 1 -7.667493926318e-05   1.032771784187e-04  -5.296385810081e-05 
7 1  1.911706406679e-05   7.910997065282e-05  -1.723397255198e-05 
8 1 -1.384675064152e-04   2.784175319625e-05  -3.635433379852e-05 
8
Step 39000
1 1 -1.143964012729e-04  -4.963100458852e-05   8.499402956356e-06 
2 1 -1.899372069367e-04   6.936216480424e-05   5.984868963899e-05 
3 1  3.119770371117e-05   2.280075938632e-05   9.236776853294e-05 
4 1  1.252542135905e-04  -1.420056022209e-05  -6.861366036039e-05 
5 1  3.146283360310e-05  -6.201849710184e-05   5.322053896685e-05 
6 1 -6.420400257967e-05  -1.337867627141e-05  -6.339070378613e-05 
7 1 -7.614177529357e-06   8.975516398009e-05   1.345421256267e-05 
8 1 -1.030400492673e-04   6.260366976242e-05   4.419583097354e-06 
8
Step 40000
1 1 -1.155674853698e-04  -1.308943503961e-04   2.703769308277e-06 
2 1 -1.147463979862e-04   5.950112286265e-06  -2.877012832479e-05 
3 1  6.763790023598e-05  -1.424859360785e-05   1.036788201028e-04 
4 1  1.454264412513e-04  -2.215865082802e-06  -6.796267267307e-05 
5 1  6.808972421471e-05  -2.777762141491e-06   6.191799685369e-05 
6 1 -2.843160693360e-05  -9.074672695462e-05  -5.082177706442e-05 
7 1 -5.518674561794e-05   5.064995587115e-05   5.798458010371e-05 
8 1 -1.581754863116e-05   7.526028087306e-05   4.688620963803e-05 
8
Step 41000
1 1 -6.212305715609e-05  -1.578855854031e-04   3.082053128992e-07 
2 1 -3.864960995324e-06  -6.628947453962e-05  -8.979217021532e-05 
3 1  6.739402524599e-05  -3.353243963341e-05   7.823296172228e-05 
4 1  9.998755373498e-05  -3.144782441872e-06  -5.238145087504e-05 
5 1  5.968195085756e-05   4.689293914628e-05   3.261190131556e-05 
6 1  4.049559427508e-06  -1.099598878964e-04  -2.469184164079e-05 
7 1 -1.035722576467e-04  -3.518878742554e-05   9.347741880676e-05 
8 1  8.108282771386e-05   6.536183969002e-05   6.884283242515e-05 
8
Step 42000
1 1  2.214810651760e-05  -1.026267457723e-04   1.105741179506e-06 
2 1  7.976799671896e-05  -1.092009528884e-04  -9.489686877087e-05 
3 1  3.639404230936e-05  -3.098469136996e-05   2.434912395458e-05 
4 1  9.967817240475e-06  -1.320640792286e-05  -1.828908550262e-05 
5 1  1.951574913505e-05   6.905052051006e-05  -1.141955072449e-05 
6 1  1.714946431174e-05  -8.577476092579e-05   5.134959117527e-06 
7 1 -1.255797384319e-04  -1.364324606770e-04   8.743535439362e-05 
8 1  1.419884859961e-04   4.412589708253e-05   6.077672690288e-05 
8
Step 43000
1 1  1.006035784254e-04   3.016128738671e-05   2.391732471887e-06 
2 1  1.064701690329e-04  -1.062857029700e-04  -5.039986116221e-05 
3 1 -7.980136361569e-06  -1.124069555067e-05  -3.684114994995e-05 
4 1 -7.833218926982e-05  -2.007101067203e-05   2.715943477596e-05 
5 1 -2.459330451894e-05   5.834363797269e-05  -4.221197626355e-05 
6 1  8.763003971323e-06  -4.052158277094e-05   3.068753935842e-05 
7 1 -9.857055569699e-05  -2.006567055741e-04   2.299116125127e-05 
8 1  1.432247733338e-04   2.145742633388e-05   2.875511428705e-05 
8
Step 44000
1 1  1.253660227840e-04   1.671796835130e-04   1.668612003765e-06 
2 1  7.993013405411e-05  -5.900266168950e-05   1.838279155724e-05 
3 1 -4.381792606914e-05   1.377138453877e-05  -8.030018394516e-05 
4 1 -1.217023055157e-04  -1.726282738437e-05   6.603487911150e-05 
5 1 -4.757503335315e-05   2.194430133885e-05  -4.333441576524e-05 
6 1 -1.170737444718e-05   4.361487254233e-06   4.539375480728e-05 
7 1 -2.564408392456e-05  -1.853161309281e-04  -7.600302002424e-05 
8 1  8.529044919420e-05   1.638922572956e-06  -1.078324963574e-05 
8
Step 45000
1 1  8.394456409139e-05   2.249845464698e-04  -2.934819250703e-06 
2 1  2.406920209381e-05   1.332865441285e-05   7.630627622646e-05 
3 1 -5.580474258242e-05   3.129467958477e-05  -9.020387035740e-05 
4 1 -1.041801548764e-04  -5.159172613889e-06   8.383503081706e-05 
5 1 -3.812745915352e-05  -2.456260817701e-05  -1.554193930461e-05 
6 1 -2.773845620815e-05   3.461999905943e-05   4.490154323485e-05 
7 1  4.984513523968e-05  -9.932654493084e-05  -1.499323765163e-04 
8 1 -5.500605319211e-06  -1.271418818678e-05  -3.647463566538e-05 
8
Step 46000
1 1  9.713077246995e-06   1.788882514740e-04  -1.102560387140e-05 
2 1 -2.936782660067e-05   7.822227883750e-05   9.296102786069e-05 
3 1 -3.926425285130e-05   3.315951531718e-05  -6.390073158715e-05 
4 1 -3.601462519008e-05   1.368401386760e-05   7.383077088864e-05 
5 1  1.128870097502e-06  -6.236071158074e-05   2.760635650169e-05 
6 1 -2.415841736006e-05   4.737501863309e-05   2.756892012963e-05 
7 1  8.294096049418e-05  -4.666013364574e-06  -1.604826038956e-04 
8 1 -8.359124047122e-05  -2.081667074556e-05  -3.463115046264e-05 
8
Step 47000
1 1 -5.323813911125e-05   5.644732746372e-05  -1.955559288204e-05 
2 1 -5.851356170208e-05   1.092013033050e-04   5.942641020822e-05 
3 1  8.289045104430e-07   1.614204577181e-05  -9.878713945109e-06 
4 1  5.055308796999e-05   3.413900683922e-05   3.762541055960e-05 
5 1  5.456872127065e-05  -7.481774727835e-05   6.613494958059e-05 
6 1  4.202246788446e-06   4.704691582731e-05  -4.618341734870e-06 
7 1  7.478566566222e-05   5.421747916125e-05  -1.201254062755e-04 
8 1 -1.144871784176e-04  -2.585430825602e-05  -1.119477573789e-05 
8
Step 48000
1 1 -7.386834976131e-05  -7.120857650680e-05  -2.397660259156e-05 
2 1 -5.753513640955e-05   9.652126208978e-05  -8.393370658750e-06 
3 1  4.839518047742e-05  -1.822866030590e-05   5.283721264179e-05 
4 1  1.113511360562e-04   4.909801158763e-05  -1.236687481702e-05 
5 1  9.475464061928e-05  -5.244961407263e-05   7.901222704276e-05 
6 1  5.133190025641e-05   3.924743528141e-05  -4.658978636941e-05 
7 1  4.581253147845e-05   6.946856472108e-05  -5.305355267014e-05 
8 1 -9.342295479618e-05  -3.112870556283e-05   1.301558257955e-05 
8
Step 49000
1 1 -5.017913989682e-05  -1.386212047654e-04  -2.064781133153e-05 
2 1 -3.127990056345e-05   4.685077376375e-05  -7.767765409421e-05 
3 1  7.808425478938e-05  -5.829850928253e-05   9.926442566741e-05 
4 1  1.120954186116e-04   5.348066772461e-05  -5.634597436619e-05 
5 1  8.901041100006e-05   5.404725529788e-07   4.954394794343e-05 
6 1  1.081663115748e-04   2.634264131293e-05  -9.792842789301e-05 
7 1  1.176254011357e-05   4.932563667391e-05   1.645471347872e-05 
8 1 -3.920064748055e-05  -3.665261931875e-05   1.716992299377e-05 
8
Step 50000
1 1 -3.823777291091e-06  -1.301262730821e-04  -7.524946724605e-06 
2 1  6.915983498209e-06  -1.894218556756e-05  -1.147244662131e-04 
3 1  6.925277540880e-05  -8.212115840475e-05   1.120152844811e-04 
4 1  4.836400014596e-05   4.036196450945e-05  -8.188720521302e-05 
5 1  2.437898568542e-05   5.722971846097e-05  -1.574701570168e-05 
6 1  1.479270469946e-04   5.708597405347e-06  -1.437954931265e-04 
7 1 -1.512209223724e-05   1.405739782396e-05   6.660303277341e-05 
8 1  1.625112813271e-05  -4.179467512593e-05  -8.026663342991e-06 
8
Step 51000
1 1  3.799018027148e-05  -6.581588392846e-05   1.288032565645e-05 
2 1  3.877106682348e-05  -7.361277528080e-05  -1.003327914103e-04 
3 1  1.558469009322e-05  -6.758715289276e-05   8.602437884996e-05 
4 1 -4.403503464955e-05  -3.414914011287e-06  -8.665168191658e-05 
5 1 -6.999950280637e-05   8.030269468816e-05  -8.040601957215e-05 
6 1  1.282994887203e-04  -1.589933348141e-05  -1.420272174415e-04 
7 1 -2.883457287177e-05  -1.344341507090e-05   8.781677764974e-05 
8 1  4.408584941066e-05  -4.321951288917e-05  -4.932434149498e-05 
8
Step 52000
1 1  5.494146158428e-05   1.678440000939e-05   3.149143852339e-05 
2 1  4.975609732240e-05  -9.601115700639e-05  -3.766496181362e-05 
3 1 -6.083028747558e-05  -1.343559834932e-05   3.140403625667e-05 
4 1 -1.204237595812e-04  -6.972879329324e-05  -6.324626657779e-05 
5 1 -1.434876194612e-04   5.497836262608e-05  -1.076414764263e-04 
6 1  4.392990483663e-05  -2.993528745915e-05  -8.161228863000e-05 
7 1 -2.898516557464e-05  -2.056761585110e-05   8.210548702418e-05 
8 1  3.840112342611e-05  -3.211777931298e-05  -7.398699569426e-05 
8
Step 53000
1 1  4.153928455468e-05   7.870746455711e-05   3.785277545048e-05 
2 1  3.479789964894e-05  -7.901412693364e-05   4.934770123884e-05 
3 1 -1.143882437099e-04   5.064680075921e-05  -2.338373857951e-05 
4 1 -1.467623882459e-04  -1.271343266229e-04  -1.074929804635e-05 
5 1 -1.543801968746e-04   1.424645950478e-06  -8.250596478267e-05 
6 1 -6.280612692017e-05  -3.068399092699e-05   5.530494965244e-06 
7 1 -1.670408683408e-05  -9.125913131553e-06   5.483801314738e-05 
8 1  1.249310816282e-05  -4.729173975938e-06  -6.206222530028e-05 
8
Step 54000
1 1  6.467069569356e-06   9.562176597533e-05   2.637208921020e-05 
2 1  9.409276981740e-08  -3.204892080966e-05   1.230758213965e-04 
3 1 -1.178002070469e-04   9.758856945933e-05  -5.564753059871e-05 
4 1 -1.058985186466e-04  -1.425996958808e-04   5.713400536248e-05 
5 1 -8.897811941846e-05  -4.585200165392e-05  -1.369570308846e-05 