8
Step 0
1 1  0.000000000000e+00   0.000000000000e+00   0.000000000000e+00 
2 1  0.000000000000e+00   0.000000000000e+00   0.000000000000e+00 
3 1  0.000000000000e+00   0.000000000000e+00   0.000000000000e+00 
4 1  0.000000000000e+00   0.000000000000e+00   0.000000000000e+00 
5 1  0.000000000000e+00   0.000000000000e+00   0.000000000000e+00 
6 1  0.000000000000e+00   0.000000000000e+00   0.000000000000e+00 
7 1  0.000000000000e+00   0.000000000000e+00   0.000000000000e+00 
8 1  0.000000000000e+00   0.000000000000e+00   0.000000000000e+00 
8
Step 1000
1 1  3.608075143111e-05  -6.436554804578e-05   4.261846397482e-05 
2 1  1.592884641356e-04  -8.576745923329e-05  -1.621494622840e-04 
3 1 -2.409704555734e-05   1.285056656793e-04  -5.752223606026e-05 
4 1 -1.333146038815e-06   1.042990869279e-05  -1.515156097224e-04 
5 1 -6.015230767156e-05   6.043564069873e-05   2.484411776904e-05 
6 1 -6.393739575303e-05  -1.837928437929e-04   1.435435004826e-04 
7 1 -5.805662503967e-05   1.330202720469e-06   8.545545027051e-05 
8 1  2.138682092539e-06  -7.094608764713e-05  -1.817489804787e-04 
8
Step 2000
1 1 -4.990494058484e-05  -9.873523726770e-06   6.733825765580e-05 
2 1  1.101430648569e-04   5.431972892050e-05  -1.360597096592e-04 
3 1  2.645945092483e-05   8.855721165836e-05  -8.948396810311e-05 
4 1  2.159952551561e-05   1.329387292636e-05  -9.460145984402e-05 
5 1 -9.649477546895e-05   5.027454655556e-05  -5.703469597760e-05 
6 1 -1.270733514901e-04  -1.523191422910e-04   1.006828043585e-04 
7 1 -1.154017126928e-05   6.007365902848e-05   5.610814694779e-05 
8 1  1.419989066208e-06   2.499160891491e-05  -1.442157482263e-04 
8
Step 3000
1 1 -1.144084689397e-04   4.036650445786e-05   5.382808164751e-05 
2 1  2.018511820249e-05   1.537224567663e-04  -6.289313830147e-05 
3 1  6.699844312406e-05   2.850814525459e-05  -7.347714676098e-05 
4 1  4.001292386761e-05   1.361334833727e-05  -3.158327659458e-06 
5 1 -9.246470959481e-05   1.026360780463e-06  -1.015767651354e-04 
6 1 -1.433280019034e-04  -7.335165800677e-05   3.681889744477e-05 
7 1  3.071220989092e-05   9.184390057112e-05   1.068281996348e-05 
8 1 -4.871282551380e-06   1.058956600975e-04  -5.396308252514e-05 
8
Step 4000
1 1 -1.332243161401e-04   6.242192698897e-05   2.317124757313e-05 
2 1 -4.985240086359e-05   1.639022643797e-04   1.130232316725e-05 
3 1  8.505017623801e-05  -2.978282725446e-05  -3.089582498463e-05 
4 1  5.464119995343e-05   6.328427807681e-06   7.857567927087e-05 
5 1 -5.517955835165e-05  -3.464786403476e-05  -9.238518604801e-05 
6 1 -1.144539968921e-04   3.520349710686e-06  -2.137991922396e-05 
7 1  4.607006265794e-05   8.513783741895e-05  -3.947705074976e-05 
8 1  5.449892830819e-06   1.183104732143e-04   2.562904148517e-05 
8
Step 5000
1 1 -1.039768583232e-04   3.350663186973e-05   3.238050057856e-07 
2 1 -7.583586259932e-05   1.071902216822e-04   5.172598474384e-05 
3 1  7.990962844924e-05  -6.382459983626e-05   1.078143431117e-05 
4 1  6.031360304637e-05  -8.229439468226e-06   1.148385540126e-04 
5 1  1.808188576899e-05  -4.366547079154e-05  -4.585139635391e-05 
6 1 -5.837062430838e-05   4.544541008171e-05  -5.213172714850e-05 
7 1  3.974615313527e-05   4.692747040864e-05  -8.405669786064e-05 
8 1  1.692571586994e-05   8.289283150353e-05   7.277207875253e-05 
8
Step 6000
1 1 -3.614863126878e-05  -1.142010303394e-05  -3.342317246736e-05 
2 1 -5.976444756861e-05   6.829070115538e-06   6.715086236925e-05 
3 1  5.549279847334e-05  -6.958691824005e-05   3.365947929799e-05 
4 1  5.083824519755e-05  -2.571322709327e-05   1.002587767653e-04 
5 1  1.074510571156e-04  -2.941256987329e-05   2.749013858119e-05 
6 1  4.635134258633e-06   4.575945408193e-05  -4.839513775671e-05 
7 1  2.231601998180e-05  -4.290686556795e-06  -1.053581768371e-04 
8 1  2.286975341916e-05   2.810351994035e-05   8.197084175899e-05 
8
Step 7000
1 1  4.137976541399e-05  -3.166004285509e-05  -6.747323242825e-05 
2 1 -1.861888633616e-05  -9.685221215247e-05   6.253360625857e-05 
3 1  2.067812293951e-05  -5.478976554320e-05   3.096884004958e-05 
4 1  2.536348815326e-05  -3.985149678739e-05   5.337554303874e-05 
5 1  1.693630078359e-04   4.791173134058e-06   9.904108663367e-05 
6 1  6.106012293896e-05   1.643579355232e-05  -1.960189205371e-05 
7 1  1.982089799918e-06  -4.851624865308e-05  -9.043283378463e-05 
8 1  2.753219418143e-05  -3.361066206389e-05   5.667822080665e-05 
8
Step 8000
1 1  8.904212072575e-05  -3.500663047940e-05  -5.185406859820e-05 
2 1  3.001947771999e-05  -1.471449220084e-04   3.060482828665e-05 
3 1 -1.511416936587e-05  -2.826645063605e-05   7.180017129804e-06 
4 1 -1.305298502332e-05  -3.900144823732e-05  -4.314837914617e-06 
5 1  1.742514874705e-04   4.061760830237e-05   1.304162858680e-04 
6 1  9.894922015271e-05  -1.635513657720e-05   8.336104499114e-06 
7 1 -1.115803237222e-05  -7.305098069763e-05  -4.050921224012e-05 
8 1  2.096777873174e-05  -7.119017963359e-05   7.459701435519e-06 
8
Step 9000
1 1  9.524329374830e-05  -1.146784043430e-05  -1.341075695766e-05 
2 1  6.237324830118e-05  -1.224422052615e-04  -5.806577495691e-06 
3 1 -4.381381623576e-05   2.713249445394e-06  -2.213676092586e-05 
4 1 -5.481667075303e-05  -1.803456450881e-05  -4.884704363510e-05 
5 1  1.034886603081e-04   6.060119698693e-05   1.097723556659e-04 
6 1  1.058777625305e-04  -3.017839313575e-05   1.523122323415e-05 
7 1 -1.284520496491e-05  -7.244625866375e-05   2.957236746527e-05 
8 1 -8.118539516412e-07  -7.181130191806e-05  -4.473832755331e-05 
8
Step 10000
1 1  6.580069276235e-05   5.063202054579e-05   6.307338733546e-06 
2 1  6.112766691293e-05  -4.399272111185e-05  -2.386484053156e-05 
3 1 -5.683582997057e-05   2.614892775500e-05  -4.107442439820e-05 
4 1 -8.393995821620e-05   1.821085378605e-05  -6.463397038110e-05 
5 1 -3.562160549193e-05   4.926234984874e-05   4.375368761417e-05 
6 1  7.411649640436e-05  -1.593055760586e-05   9.731878350382e-07 
7 1 -7.055375843206e-06  -4.742101008823e-05   9.731014926983e-05 
8 1 -2.855491788097e-05  -4.701584172803e-05  -7.499118191320e-05 
8
Step 11000
1 1  8.207132985122e-06   9.864215317364e-05   2.325997972892e-05 
2 1  2.611020008861e-05   5.122207119381e-05  -2.871753718732e-05 
3 1 -4.605084649998e-05   3.507228327693e-05  -4.012350205959e-05 
4 1 -8.429917568154e-05   5.969050619990e-05  -5.248236061036e-05 
5 1 -1.556475338653e-04   9.245526648059e-06  -3.489882390919e-05 
6 1  6.772529710788e-06   2.111973140785e-05  -1.881808813801e-05 
7 1 -2.073794142185e-06  -8.066544531058e-06   1.378888692338e-04 
8 1 -5.236243974167e-05  -7.825671762584e-06  -6.852404957021e-05 
8
Step 12000
1 1 -5.715507932514e-05   7.912225662036e-05   4.954553133381e-05 
2 1 -1.715032860232e-05   1.244633626555e-04  -3.353679494615e-05 
3 1 -1.228547966832e-05   3.095239096805e-05  -9.821360608751e-06 
4 1 -4.556700751467e-05   8.820297317237e-05  -2.338832977203e-05 
5 1 -1.847825637123e-04  -3.095289863769e-05  -7.564819187695e-05 
6 1 -7.341762012837e-05   5.869454442149e-05  -2.295249929708e-05 
7 1  4.376587128461e-08   3.042425852528e-05   1.261109819041e-04 
8 1 -6.404308449002e-05   3.419494767063e-05  -3.341112282832e-05 
8
Step 13000
1 1 -9.326563719545e-05   1.359566930679e-05   4.780035846619e-05 
2 1 -4.827066216726e-05   1.345275532364e-04  -2.705095176020e-05 
3 1  3.303958261654e-05   1.949547743910e-05   4.495164416174e-05 
4 1  3.167473472152e-05   8.129054913720e-05   1.042836243888e-05 
5 1 -1.339861379423e-04  -4.915734758614e-05  -6.898818045862e-05 
6 1 -1.301547128576e-04   7.239846904012e-05  -7.380391895303e-06 
7 1 -7.911375173811e-06   5.885971930431e-05   6.125725137380e-05 
8 1 -4.831013938811e-05   5.826642129028e-05   1.903786336878e-05 
8
Step 14000
1 1 -8.495777329798e-05  -6.025252859235e-05   2.165922899047e-05 
2 1 -5.737429188198e-05   7.501906639518e-05  -1.666345506162e-05 
3 1  7.091313747978e-05   5.283845751941e-06   9.563540830520e-05 
4 1  1.218193048612e-04   2.883521251290e-05   3.352153472469e-05 
5 1 -3.787640933875e-05  -4.140804215945e-05  -3.570070945558e-05 
6 1 -1.382545208996e-04   5.345998748206e-05   1.786560218865e-05 
7 1 -2.598519877823e-05   7.324629242154e-05  -3.791867158905e-05 
8 1 -3.225773801645e-06   6.036713927541e-05   7.015727019665e-05 
8
Step 15000
1 1 -4.152704787994e-05  -1.103807427514e-04  -9.770115718891e-06 
2 1 -3.851116703777e-05  -2.312016195342e-05  -1.073189226791e-05 
3 1  8.059734972346e-05  -9.675269702636e-06   1.078243554970e-04 
4 1  1.753382749544e-04  -4.990872881810e-05   3.362038030726e-05 
5 1  5.542932239095e-05  -1.009525619772e-05   3.576693130437e-06 
6 1 -9.251594115893e-05   1.693198635802e-06   3.921458683267e-05 
7 1 -4.161006797899e-05   7.099035989841e-05  -1.300457048663e-04 
8 1  5.541662931234e-05   4.304773164831e-05   9.317299617417e-05 
8
Step 16000
1 1  1.517221194082e-05  -1.134885684946e-04  -3.450862027392e-05 
2 1  5.092477619108e-06  -1.056693115775e-04  -5.151643993376e-06 
3 1  5.084188082217e-05  -2.167631123388e-05   6.616014717829e-05 
4 1  1.573721171751e-04  -1.191411046210e-04   1.313084701696e-05 
5 1  9.951928273976e-05   2.921664758622e-05   2.743959629133e-05 
6 1 -7.680938457834e-06  -6.953473563023e-05   4.468658211386e-05 
7 1 -4.173471074299e-05   5.163184638909e-05  -1.725867294111e-04 
8 1  1.041077407064e-04   1.250960020100e-05   7.322875647782e-05 
8
Step 17000
1 1  5.949905199729e-05  -7.028203420083e-05  -4.351140821912e-05 
2 1  4.534639613532e-05  -1.333510236430e-04   3.450280030685e-06 
3 1 -6.893935808457e-06  -2.986133693890e-05  -2.423044576153e-05 
4 1  6.888305542634e-05  -1.445832390665e-04  -1.148244370339e-05 
5 1  8.126727677893e-05   5.498536170714e-05   2.476776730182e-05 
6 1  7.760999575626e-05  -1.274455218105e-04   3.060695943565e-05 
7 1 -2.150681023337e-05   2.744999799142e-05  -1.390957386350e-04 
8 1  1.288456833897e-04  -1.852426365854e-05   1.625790596997e-05 
8
Step 18000
1 1  7.131805829280e-05  -6.978789238225e-06  -3.142306407043e-05 
2 1  5.810133296608e-05  -9.768295773978e-05   1.464885043565e-05 
3 1 -6.409091688549e-05  -3.627343252553e-05  -1.266654420601e-04 
4 1 -5.155580086655e-05  -1.099535632095e-04  -1.852755408836e-05 
5 1  2.254682248598e-05   4.904650247724e-05   3.132164134190e-06 
6 1  1.230568705688e-04  -1.394022465843e-04   7.194425052472e-06 
7 1  2.332157646986e-05   2.720964273314e-06  -4.709279194858e-05 
8 1  1.132274070606e-04  -2.840203295958e-05  -4.262945268060e-05 
8
Step 19000
1 1  5.088756989913e-05   4.534212039789e-05  -8.487848094902e-06 
2 1  4.779258600112e-05  -3.963185932709e-06   3.879442520820e-05 
3 1 -9.276071960095e-05  -3.331161848061e-05  -1.829422496422e-04 
4 1 -1.395785681593e-04  -3.748067135030e-05  -3.483981163772e-06 
5 1 -3.895605362133e-05   1.609388895867e-05  -1.185348738417e-05 
6 1  1.154560567403e-04  -9.555976457622e-05  -1.475167307784e-05 
7 1  7.659046103032e-05  -2.931486126418e-05   5.454621668052e-05 
8 1  4.025648290280e-05  -2.841258641101e-05  -7.820515769244e-05 
8
Step 20000
1 1  1.455405404209e-05   6.747285662816e-05   1.134970011803e-05 
2 1  1.707759273094e-05   1.062998027725e-04   6.831766844193e-05 
3 1 -8.297163299156e-05  -1.562725378711e-05  -1.619138390011e-04 
4 1 -1.520127613692e-04   3.367448198610e-05   2.431287117729e-05 
5 1 -7.511596689208e-05  -3.142258946051e-05  -1.370845763048e-05 
6 1  6.130661809477e-05  -3.369573748862e-06  -2.747778294896e-05 
7 1  1.042347391001e-04  -6.521715536774e-05   1.193886065832e-04 
8 1 -5.182734486837e-05  -2.739582784988e-05  -7.554055935255e-05 
8
Step 21000
1 1 -2.001958940395e-05   5.783600064103e-05   1.970929779378e-05 
2 1 -2.951510369566e-05   1.692952488014e-04   7.781285975372e-05 
3 1 -3.511058891758e-05   9.647419005713e-06  -7.255362662846e-05 
4 1 -9.619915089254e-05   7.409272622102e-05   4.495856015740e-05 
5 1 -7.074247457037e-05  -7.945611013546e-05  -2.267169593925e-06 
6 1 -1.166927405162e-05   1.040504415720e-04  -2.826404394397e-05 
7 1  9.006869891727e-05  -9.129478813491e-05   1.228148501182e-04 
8 1 -1.207300075350e-04  -2.192241140091e-05  -3.049252177219e-05 
8
Step 22000
1 1 -3.710799381728e-05   2.552329406997e-05   1.231443734975e-05 
2 1 -6.818750085092e-05   1.532859605716e-04   5.031652256370e-05 
3 1  2.194053652298e-05   3.352951840893e-05   3.187401292957e-05 
4 1 -1.161863183378e-05   7.411406643508e-05   4.808129699132e-05 
5 1 -1.831315462121e-05  -1.136438724977e-04   2.176055168806e-05 
6 1 -6.095002704471e-05   1.697169500121e-04  -1.985201845956e-05 
7 1  3.804027908682e-05  -9.586558287054e-05   6.785296203417e-05 
8 1 -1.463366823276e-04  -1.937369884588e-05   3.768967662847e-05 
8
Step 23000
1 1 -2.928548660287e-05  -1.557972178756e-05  -5.977265552168e-06 
2 1 -7.389764366532e-05   7.152252759319e-05  -1.560531288872e-05 
3 1  5.760633170822e-05   4.837504272818e-05   1.054105074139e-04 
4 1  5.709734454501e-05   4.351839597039e-05   2.361411796764e-05 
5 1  6.816627299500e-05  -1.079553163452e-04   4.654603248539e-05 
6 1 -6.090032401739e-05   1.667127893203e-04  -1.294108293102e-05 
7 1 -3.254316133183e-05  -6.808631987150e-05  -7.120651415980e-06 
8 1 -1.236440327912e-04  -2.531893030873e-05   6.776715390075e-05 
8
Step 24000
1 1 -1.767962870415e-06  -4.382558035204e-05  -2.428673351969e-05 
2 1 -5.039627405306e-05  -3.765442199868e-05  -9.276842090875e-05 
3 1  6.631387751663e-05   4.152374033498e-05   1.251743371806e-04 
4 1  8.329529965524e-05   5.970272829645e-06  -1.885043551122e-05 
5 1  1.391466584386e-04  -5.332492780939e-05   5.305020732034e-05 
6 1 -2.144508450943e-05   1.064714385785e-04  -1.537238565371e-05 
7 1 -8.506592857387e-05  -1.290091486421e-05  -6.228908413788e-05 
8 1 -4.865388788011e-05  -2.366944487369e-05   3.760587011052e-05 
8
Step 25000
1 1  2.776220097399e-05  -4.449239053902e-05  -2.764120618719e-05 
2 1 -1.747069762421e-05  -1.240511917036e-04  -1.382493341568e-04 
3 1  5.233479368540e-05   1.389477855989e-05   9.278496930290e-05 
4 1  6.257740969676e-05  -2.676532831136e-05  -5.691059884950e-05 
5 1  1.519133691810e-04   2.740504773655e-05   3.500017808620e-05 
6 1  2.799675639596e-05   1.802540183760e-05  -2.197684271018e-05 
7 1 -9.537718933728e-05   4.377622708674e-05  -7.686899890036e-05 
8 1  4.910317042301e-05   4.522438244616e-06  -2.687398457924e-05 
8
Step 26000
1 1  3.881582868018e-05  -1.992665985818e-05  -4.055854052795e-06 
2 1  1.489392630463e-05  -1.452629996035e-04  -1.336151354304e-04 
3 1  1.881684792051e-05  -2.070948766646e-05   2.719993954646e-05 
4 1  9.674473231031e-06  -4.667189268519e-05  -6.704270538566e-05 
5 1  9.263376489435e-05   9.671218185457e-05  -5.323744761305e-07 
6 1  5.461890482803e-05  -6.165494547535e-05  -2.235577886829e-05 
7 1 -6.856144823047e-05   8.069086788628e-05  -5.058238512246e-05 
8 1  1.174853951020e-04   3.633601188634e-05  -7.563805588891e-05 
8
Step 27000
1 1  2.024233759138e-05   1.605632721654e-05   4.445929817175e-05 
2 1  3.397407861387e-05  -9.512559427820e-05  -8.216775785315e-05 
3 1 -2.440593266221e-05  -4.908110637858e-05  -3.514866421488e-05 
4 1 -4.938822000600e-05  -4.544551887998e-05  -4.092590579552e-05 
5 1 -1.257105183179e-05   1.194774037308e-04  -3.412292857272e-05 
6 1  4.500623503303e-05  -1.027797462839e-04  -1.274752063222e-05 
7 1 -2.143420838628e-05   8.368502691449e-05   9.974329096263e-07 
8 1  1.329481263755e-04   4.938323968694e-05  -8.542448807844e-05 
8
Step 28000
1 1 -2.460822120066e-05   4.655028699400e-05   9.622814978000e-05 
2 1  3.029915824557e-05  -1.304072442963e-05  -7.858484278570e-06 
3 1 -5.486759480704e-05  -6.257325782945e-05  -7.070180762657e-05 
4 1 -8.691597415481e-05  -2.522949945626e-05   1.240590683706e-05 
5 1 -1.057059848344e-04   8.586483411378e-05  -4.657708196164e-05 
6 1  5.520572082150e-06  -9.730673651243e-05   5.828950870492e-06 
7 1  2.533140396559e-05   5.266405200030e-05   4.987023902950e-05 
8 1  9.763732128767e-05   4.409554225361e-05  -5.330775873960e-05 
8
Step 29000
1 1 -7.126074525843e-05   4.879424410294e-05   1.129369089389e-04 
2 1  1.717100092975e-05   4.320706096788e-05   4.850070022339e-05 
3 1 -6.055444891710e-05  -5.346672246234e-05  -6.907584711445e-05 
4 1 -8.349688251498e-05   4.814857146326e-06   6.903765701143e-05 
5 1 -1.482155211239e-04   2.768732504902e-05  -4.070384141951e-05 
6 1 -4.095661496005e-05  -6.288514608351e-05   2.931962770082e-05 
7 1  5.247680879732e-05   3.374674606863e-06   7.096456261611e-05 
8 1  3.320961823433e-05   2.207652994027e-05   9.560924558637e-06 
8
Step 30000
1 1 -8.929392103734e-05   2.088451471545e-05   6.809578470230e-05 
2 1  8.907135646036e-06   5.428034006944e-05   7.318054698844e-05 
3 1 -4.440956796330e-05  -1.417214209342e-05  -4.178814850533e-05 
4 1 -3.869969909871e-05   3.417760417056e-05   9.898906768440e-05 
5 1 -1.196787613193e-04  -2.577048313129e-05  -2.398850850563e-05 
6 1 -7.079751022269e-05  -2.363527629881e-05   4.850805596178e-05 
7 1  5.124995873609e-05  -4.327015407198e-05   5.417091005155e-05 
8 1 -3.040773724218e-05  -9.292762178847e-06   7.594637269184e-05 
8
Step 31000
1 1 -6.343870586215e-05  -1.888245196099e-05  -2.683384864089e-05 
2 1  7.476002517859e-06   3.369827931541e-05   7.286799580953e-05 
3 1 -1.825989051992e-05   5.062512356389e-05  -6.023509204200e-06 
4 1  2.987289307747e-05   4.961907573221e-05   8.300123281089e-05 
5 1 -3.298332013912e-05  -5.051502402342e-05  -1.360084726253e-06 
6 1 -6.949768436998e-05   4.363368269714e-06   5.210859898089e-05 
7 1  2.508640177557e-05  -6.640312240754e-05   5.233600813711e-06 
8 1 -6.350521690535e-05  -3.546783313107e-05   1.096392822139e-04 
8
Step 32000
1 1 -4.935759923346e-06  -4.504192062291e-05  -1.215480864577e-04 
2 1  9.360270402968e-06  -3.442919312299e-06   5.039810629396e-05 
3 1  1.775806100166e-05   1.048823091473e-04   2.386604529533e-05 
4 1  9.052884496213e-05   4.446328496919e-05   2.186083364292e-05 
5 1  5.827809750927e-05  -3.250105179464e-05   1.119188307011e-05 
6 1 -3.914421321613e-05   1.814546550614e-05   3.499073689516e-05 
7 1 -1.171691636316e-05  -5.526388839102e-05  -5.214431052201e-05 
8 1 -6.274634568186e-05  -3.882184119122e-05   9.477882224193e-05 
8
Step 33000
1 1  5.457301936230e-05  -4.203733839453e-05  -1.620702285806e-04 
2 1  5.629700636798e-06  -2.853891015626e-05   1.217745729115e-05 
3 1  5.134369367135e-05   1.172007864692e-04   2.750158790897e-05 
4 1  1.154404084667e-04   1.837055720313e-05  -5.580213395557e-05 
5 1  1.056435991778e-04   5.166533324645e-06   7.930688015897e-06 
6 1  6.272138115548e-06   1.805165599479e-05   2.606328177670e-06 
7 1 -4.037112673021e-05  -1.844915182736e-05  -9.067735192504e-05 
8 1 -3.885823297236e-05  -1.930851679826e-05   4.870829515187e-05 
8
Step 34000
1 1  8.511183995700e-05  -9.824750044872e-06  -1.251988518223e-04 
2 1 -8.871892615302e-06  -3.220072026168e-05  -4.274115396331e-05 
3 1  6.254669008922e-05   8.593884861452e-05   9.055796251259e-06 
4 1  9.600808699826e-05  -1.918562378548e-05  -1.094668544249e-04 
5 1  1.062384742814e-04   2.348866189150e-05   8.092527849099e-06 
6 1  4.735211033134e-05   1.196122008768e-05  -3.372231508437e-05 
7 1 -4.854041561852e-05   2.744657848065e-05  -9.115412481682e-05 
8 1 -1.410157501864e-05   6.429902474028e-06  -3.503122152329e-06 
8
Step 35000
1 1  7.292901512287e-05   3.408306004813e-05  -2.395673535158e-05 
2 1 -2.704046533087e-05  -2.280607568332e-05  -9.198244114173e-05 
3 1  6.201974341983e-05   3.758785941642e-06  -9.004811958799e-06 
4 1  3.858391397208e-05  -4.710413550067e-05  -1.116116668500e-04 
5 1  5.121471053672e-05   1.901808986203e-05   1.454050008362e-05 
6 1  6.851808044688e-05   9.264999634906e-06  -6.050536954849e-05 
7 1 -2.614442596873e-05   6.284358116815e-05  -4.224350878736e-05 
8 1  1.517943570499e-06   2.670058784992e-05  -5.338850468310e-05 
8
Step 36000
1 1  2.784566265520e-05   6.173057043948e-05   8.921917305447e-05 
2 1 -3.956813318135e-05  -5.891272445755e-06  -1.090505402512e-04 
3 1  5.216130952685e-05  -9.504251948866e-05  -1.066481248572e-05 
4 1 -3.361457006067e-05  -4.727503948188e-05  -5.662133855823e-05 
5 1 -2.175776338480e-05  -1.024850129983e-05   1.968554325401e-05 
6 1  6.386900966461e-05   1.341807023518e-05  -6.696001830286e-05 
7 1  2.237644728179e-05   6.815705396389e-05   4.140792739545e-05 
8 1  5.997206331021e-06   3.838182506546e-05  -8.615681353052e-05 
8
Step 37000
1 1 -2.235593763036e-05   5.467874459445e-05   1.557847805500e-04 
2 1 -3.518297705674e-05   2.348034193246e-05  -8.411662558987e-05 
3 1  2.300530701224e-05  -1.599696171902e-04   8.195461560817e-07 
4 1 -8.442802899525e-05  -1.788121096948e-05   3.235090555781e-05 
5 1 -6.463015964745e-05  -4.514930744289e-05   2.100760869719e-05 
6 1  3.782553126580e-05   2.220973330300e-05  -4.830347209116e-05 
7 1  7.732102521205e-05   4.053196695635e-05   1.185080248544e-04 
8 1  9.396663961519e-06   2.788947381636e-05  -8.016400633997e-05 
8
Step 38000
1 1 -5.126552880290e-05   1.965013668182e-05   1.494745718320e-04 
2 1 -1.972043837198e-06   4.523635815272e-05  -2.087994758756e-05 
3 1 -1.258203761724e-05  -1.663849084063e-04   2.551487848317e-05 
4 1 -9.504251336586e-05   2.508747355960e-05   1.056473901560e-04 
5 1 -6.750648394063e-05  -5.798322966707e-05   1.647774906250e-05 
6 1  1.391669222938e-06   3.017760692727e-05  -6.635393928789e-06 
7 1  1.040734284860e-04  -6.785597298951e-06   1.535130372247e-04 
8 1  1.096094921443e-05  -4.522907418194e-06  -3.740259016048e-05 
8
Step 39000
1 1 -4.499847247596e-05  -2.688377079373e-05   7.951349978442e-05 
2 1  4.436550108485e-05   4.227349958457e-05   6.533617976975e-05 
3 1 -3.961583085315e-05  -1.064787404685e-04   5.097571121510e-05 
4 1 -7.243976209268e-05   5.350072017400e-05   1.204400961529e-04 
5 1 -4.052870766870e-05  -4.133588766872e-05   2.765950451174e-06 
6 1 -3.320183681304e-05   3.303578302881e-05   4.149476787547e-05 
7 1  7.576545737539e-05  -6.206359009436e-05   1.368044775430e-04 
8 1  1.182321398768e-05  -4.410727081371e-05   2.141232318233e-05 
8
Step 40000
1 1 -8.871147613191e-06  -6.757205676210e-05  -1.400345280350e-05 
2 1  7.907028444738e-05   2.028207428474e-05   1.333737492002e-04 
3 1 -6.364287127742e-05  -3.441957647215e-06   5.666695588612e-05 
4 1 -3.216801945723e-05   4.731943168386e-05   6.522835940249e-05 
5 1  5.558653698979e-06  -1.664876864382e-06  -1.483234562190e-05 
6 1 -5.397067252001e-05   2.455413052025e-05   8.110923609252e-05 
7 1 -1.170953924405e-05  -1.041395901847e-04   5.457818067218e-05 
8 1  2.458673106635e-05  -7.139867687391e-05   8.567064078023e-05 
8
Step 41000
1 1  3.710737154801e-05  -7.484987823628e-05  -8.935345591962e-05 
2 1  8.042249976516e-05  -7.733306305292e-06   1.568149322373e-04 
3 1 -7.145999787508e-05   8.525283130564e-05   3.559376739857e-05 
4 1  8.587627939586e-06   5.381466611822e-06  -3.445438538012e-05 
5 1  4.491925295108e-05   4.687613377757e-05  -2.947790863933e-05 
6 1 -5.694210567126e-05  -2.879871976038e-06   9.726156969153e-05 
7 1 -1.085159954129e-04  -1.010549909610e-04  -5.325196425162e-05 
8 1  3.335072685123e-05  -7.443255331327e-05   1.310544963911e-04 
8
Step 42000
1 1  5.972846360447e-05  -3.666346272091e-05  -1.228645668659e-04 
2 1  3.914674159635e-05  -3.296234687704e-05   1.320880086578e-04 
3 1 -5.070815604133e-05   1.233225191311e-04   5.311930903080e-06 
4 1  3.694244267039e-05  -4.759177782107e-05  -1.210716192952e-04 
5 1  5.507403411222e-05   8.241838450564e-05  -3.660184811865e-05 
6 1 -4.761098012403e-05  -5.005224999852e-05   7.567574510723e-05 
7 1 -1.512818680297e-04  -5.981967584025e-05  -1.160770565447e-04 
8 1  1.386522947450e-05  -3.468134783231e-05   1.152633855392e-04 
8
Step 43000
1 1  4.079755206978e-05   1.437513350355e-05  -9.781379560172e-05 
2 1 -2.778749060195e-05  -4.094494148858e-05   6.228919224327e-05 
3 1 -3.362196063164e-05   1.179934657888e-04  -2.685987614277e-05 
4 1  5.422278575307e-05  -8.206256748844e-05  -1.507933335482e-04 
5 1  3.568509610260e-05   8.279443604813e-05  -3.113569075034e-05 
6 1 -2.930283754309e-05  -9.234399696714e-05   1.203212850022e-05 
7 1 -1.330138304333e-04  -8.400169419210e-06  -1.209961727854e-04 
8 1 -1.651886486908e-05   4.724812322164e-05   4.179349977513e-05 
8
Step 44000
1 1 -1.195656126760e-05   5.374059045669e-05  -3.573981886569e-05 
2 1 -8.520268986300e-05  -3.073818367513e-05  -2.680830883871e-05 
3 1 -1.615037706883e-05   6.981457779804e-05  -5.244233199047e-05 
4 1  6.056962123387e-05  -7.641588228019e-05  -1.052008254257e-04 
5 1 -1.201606405185e-06   4.224338694417e-05  -6.598153522424e-06 
6 1 -2.680089667186e-06  -1.057862382331e-04  -6.853929609756e-05 
7 1 -8.753352393188e-05   3.747445394891e-05  -9.638431107309e-05 
8 1 -3.764417010693e-05   1.321380188148e-04  -4.190900436423e-05 
8
Step 45000
1 1 -6.847736710846e-05   6.144161902579e-05   2.954791184823e-05 
2 1 -1.125340988377e-04  -7.843986617033e-06  -9.393724497753e-05 
3 1  1.877799012497e-05   2.779626470944e-06  -5.653692040517e-05 
4 1  5.550591346482e-05  -2.965119640600e-05  -1.179637485177e-06 
5 1 -4.534437631106e-05  -3.220549095203e-05   2.964225185589e-05 
6 1  2.701259691695e-05  -8.062465274732e-05  -1.274296866187e-04 
7 1 -8.078661400792e-06   6.471020699182e-05  -3.079840023466e-05 
8 1 -6.217244428118e-05   1.663858636999e-04  -1.157271436429e-04 
8
Step 46000
1 1 -9.924347335114e-05   3.268432320942e-05   7.100857680365e-05 
2 1 -8.624731257831e-05   7.988408581476e-06  -1.082787023843e-04 
3 1  4.705367901202e-05  -4.442394265563e-05  -3.617326988779e-05 
4 1  4.160683960162e-05   3.468763709934e-05   1.050439108005e-04 
5 1 -7.289574588928e-05  -1.126435534317e-04   6.278066389521e-05 
6 1  4.998276166441e-05  -2.268105303148e-05  -1.368342723222e-04 
7 1  6.932008536563e-05   6.069494589815e-05   4.338844675592e-05 
8 1 -6.360281050944e-05   1.350621424062e-04  -1.462982258463e-04 
8
Step 47000
1 1 -7.815317560062e-05  -1.533796305907e-05   7.859798599677e-05 
2 1 -3.019653113925e-05   4.209774519944e-06  -8.474225528224e-05 
3 1  5.213822622540e-05  -5.835617947595e-05  -8.395517755321e-06 
4 1  2.644199090900e-05   7.667002154228e-05   1.527355443590e-04 
5 1 -6.228803336640e-05  -1.585490733692e-04   7.863156478278e-05 
6 1  5.803288256906e-05   5.106699136282e-05  -9.651447093123e-05 
7 1  1.115957420938e-04   2.451199046562e-05   8.501790208980e-05 
8 1 -2.987714046670e-05   6.164216597945e-05  -1.018470566662e-04 
8
Step 48000
1 1 -1.118488910350e-05  -4.917321545137e-05   4.733897774383e-05 
2 1  2.044043962635e-05  -1.610599495288e-05  -4.873561321792e-05 
3 1  5.362888585361e-05  -4.716286138527e-05   1.816712917471e-05 
4 1  1.366639091952e-06   8.897579742527e-05   1.388035507861e-04 
5 1 -1.552950341025e-05  -1.392103270221e-04   6.651652600764e-05 
6 1  5.563947811313e-05   1.023913456867e-04  -2.759540321843e-05 
7 1  1.070931044631e-04  -2.573782805695e-05   8.242374930104e-05 
8 1  1.082997122657e-05  -2.230885703360e-05  -2.662576327997e-05 
8
Step 49000
1 1  7.037735174046e-05  -5.068444395420e-05  -1.924543873806e-06 
2 1  4.266877384873e-05  -3.179768218086e-05  -1.939282979136e-05 
3 1  3.898724877817e-05  -1.379613434969e-05   4.546841847984e-05 
4 1 -2.529478037278e-05   7.190632552958e-05   7.976173351158e-05 
5 1  4.389392569215e-05  -5.165417014080e-05   2.094919529798e-05 
6 1  4.312140782352e-05   1.122955706261e-04   3.472330465776e-05 
7 1  6.964271124861e-05  -6.633052056841e-05   5.237806084103e-05 
8 1  3.303865456117e-05  -8.559855446342e-05   1.279902338169e-05 
8
Step 50000
1 1  1.293165468883e-04  -1.944290770764e-05  -4.222382873834e-05 
2 1  3.870807482446e-05  -2.329342298394e-05   1.360340106225e-06 
3 1 -1.459302759945e-05   2.461077244897e-05   5.731805143278e-05 
4 1 -3.616456659146e-05   3.056509164227e-05   5.964551282079e-06 
5 1  8.517131373431e-05   6.224569840479e-05  -3.548203449183e-05 
6 1  2.352843080936e-05   8.783937316942e-05   6.468356172801e-05 
7 1 -4.417150938223e-06  -8.170983539636e-05  -2.250502502598e-05 
8 1  4.384719073210e-05  -1.070858793253e-04   3.620361193276e-05 
8
Step 51000
1 1  1.355190905513e-04   2.683174597505e-05  -5.740208768681e-05 
2 1  1.514222146684e-05   6.110891399800e-06   1.668691668523e-05 
3 1 -6.398334815688e-05   3.504794472234e-05   3.837272900795e-05 
4 1 -3.595015716754e-05  -1.148660923568e-05  -4.530075721006e-05 
5 1  8.262585978334e-05   1.372673251434e-04  -6.927402727172e-05 
6 1  2.459138221606e-06   4.802200673274e-05   5.936005369667e-05 
7 1 -8.494375890524e-05  -5.839680206636e-05  -1.035910088553e-04 
8 1  3.252134060331e-05  -8.714610610298e-05   4.498306391053e-05 
8
Step 52000
1 1  7.736181839590e-05   6.225925634979e-05  -4.289342554033e-05 
2 1 -1.473122268320e-05   4.642124736688e-05   2.823714240940e-05 
3 1 -8.924086229458e-05   2.067118119018e-05   9.027215397883e-06 
4 1 -2.637310188952e-05  -4.229802939080e-05  -5.861495739699e-05 
5 1  4.402107748438e-05   1.425784823701e-04  -6.721119566008e-05 
6 1 -1.549754424726e-05   6.885778672593e-06   3.306452281352e-05 
7 1 -1.277111248143e-04  -1.893097190489e-06  -1.268741368979e-04 
8 1  4.208246728885e-06  -4.134595878132e-05   1.757250780855e-05 
8
Step 53000
1 1 -2.778980973371e-05   6.522005390892e-05  -5.026576584061e-06 
2 1 -3.059175875871e-05   7.380121183314e-05   4.275269332283e-05 
3 1 -8.463328646976e-05  -1.067265740649e-05  -3.447961582473e-05 
4 1 -4.270986119709e-06  -5.189853278694e-05  -4.104131879161e-05 
5 1 -4.933777615378e-06   9.288201037856e-05  -4.236419847144e-05 
6 1 -2.644516379296e-05  -2.470326205504e-05   2.874823166486e-06 
7 1 -1.148406128102e-04   5.984296166008e-05  -8.150485298267e-05 
8 1 -2.934992522482e-05   2.691875111393e-05  -1.265065485696e-05 
8
Step 54000
1 1 -1.300370241275e-04   2.853286221594e-05   2.993259959105e-05 
2 1 -2.611380295495e-05   6.625742057595e-05   5.585203676144e-05 
3 1 -3.030657215987e-05  -3.863744160596e-05  -8.681517359541e-05 
4 1  2.122880705473e-05  -3.515208518724e-05  -3.324882249013e-06 
5 1 -3.999334058621e-05   2.350219368298e-05  -1.456783439881e-05 