8
Step 0
1 1  0.000000000000e+00   0.000000000000e+00   0.000000000000e+00 
2 1  0.000000000000e+00   0.000000000000e+00   0.000000000000e+00 
3 1  0.000000000000e+00   0.000000000000e+00   0.000000000000e+00 
4 1  0.000000000000e+00   0.000000000000e+00   0.000000000000e+00 
5 1  0.000000000000e+00   0.000000000000e+00   0.000000000000e+00 
6 1  0.000000000000e+00   0.000000000000e+00   0.000000000000e+00 
7 1  0.000000000000e+00   0.000000000000e+00   0.000000000000e+00 
8 1  0.000000000000e+00   0.000000000000e+00   0.000000000000e+00 
8
Step 1000
1 1  3.572534345219e-05  -6.420703201220e-05   4.264199816954e-05 
2 1  1.594769668357e-04  -8.521286567813e-05  -1.625309320605e-04 
3 1 -2.412527924180e-05   1.284205363062e-04  -5.806505057928e-05 
4 1 -1.551966731077e-06   1.031916174428e-05  -1.512716292963e-04 
5 1 -6.017598951666e-05   6.055756333331e-05   2.463179785241e-05 
6 1 -6.735107069298e-05  -1.865535325152e-04   1.439329250662e-04 
7 1 -5.813303460794e-05   9.875642312991e-07   8.544797147002e-05 
8 1  2.127275613828e-06  -7.063288013110e-05  -1.820901169928e-04 
8
Step 2000
1 1 -5.471628317993e-05  -7.054177133813e-06   6.787546771148e-05 
2 1  1.091408239167e-04   6.142889653561e-05  -1.357117237528e-04 
3 1  2.805086499387e-05   8.716203967897e-05  -9.233354565380e-05 
4 1  1.887208916865e-05   1.306415875242e-05  -9.421506169072e-05 
5 1 -9.602684652923e-05   4.850911347846e-05  -5.914584426127e-05 
6 1 -1.426024063784e-04  -1.614052184425e-04   9.844956771895e-05 
7 1 -1.222896646897e-05   5.827562330256e-05   5.626269704167e-05 
8 1  4.819601119562e-07   3.020133181548e-05  -1.439045944929e-04 
8
Step 3000
1 1 -1.297989217909e-04   5.028495101988e-05   5.483031718516e-05 
2 1  7.590235114455e-06   1.807054376732e-04  -5.234891807371e-05 
3 1  7.389702064603e-05   2.263037848767e-05  -7.792343402410e-05 
4 1  3.079481268543e-05   1.569296157480e-05  -5.999122657698e-06 
5 1 -9.255589624963e-05  -7.079021489928e-06  -1.053758535391e-04 
6 1 -1.689496254800e-04  -7.955133144355e-05   2.620718050644e-05 
7 1  3.053861225544e-05   8.839823347554e-05   1.110614398951e-05 
8 1 -6.306640222492e-06   1.256830458139e-04  -4.430258858897e-05 
8
Step 4000
1 1 -1.559571030609e-04   8.119171746944e-05   2.107874818785e-05 
2 1 -8.194229867187e-05   2.065225987449e-04   4.349463363932e-05 
3 1  9.684138135065e-05  -4.440762272979e-05  -3.153562121127e-05 
4 1  4.152823484681e-05   1.167112774689e-05   7.113620438260e-05 
5 1 -6.555584818071e-05  -3.999359724981e-05  -8.945488242435e-05 
6 1 -1.366542043017e-04   1.404519267056e-05  -4.206122491805e-05 
7 1  4.673031870189e-05   8.074034063259e-05  -3.828823393515e-05 
8 1  1.135183612862e-05   1.468932174672e-04   5.211214746436e-05 
8
Step 5000
1 1 -1.209439779334e-04   5.906331801522e-05  -1.057810204784e-05 
2 1 -1.157982253490e-04   1.454827856698e-04   9.821625370547e-05 
3 1  9.147922817583e-05  -9.163706464003e-05   2.199650336774e-05 
4 1  5.216332904066e-05  -4.696635226179e-06   1.071822334316e-04 
5 1 -2.250214291542e-06  -3.933212222295e-05  -4.425664178079e-05 
6 1 -6.056093975590e-05   7.319916159918e-05  -8.046233198134e-05 
7 1  3.776782113389e-05   4.198488206755e-05  -8.009997504631e-05 
8 1  2.574984060436e-05   1.090685574662e-04   1.199798301594e-04 
8
Step 6000
1 1 -3.246306872021e-05   1.665188787256e-05  -5.564575077239e-05 
2 1 -9.197241475824e-05   2.450190617310e-05   1.131663384250e-04 
3 1  5.937213527080e-05  -1.060546328925e-04   5.861958890156e-05 
4 1  5.441383453757e-05  -2.882274381694e-05   9.462419608867e-05 
5 1  7.955756622108e-05  -2.242106129486e-05   1.813571625095e-05 
6 1  2.626055252204e-05   7.892327966424e-05  -8.060809794329e-05 
7 1  1.308391435689e-05  -7.516731980276e-06  -9.997887271382e-05 
8 1  2.900764090785e-05   4.965779083727e-05   1.291087107021e-04 
8
Step 7000
1 1  7.051078259912e-05  -1.453100585174e-05  -8.971918113544e-05 
2 1 -3.334932638551e-05  -9.941580944141e-05   8.979894110047e-05 
3 1  1.043606831727e-05  -8.790915726990e-05   5.418996858729e-05 
4 1  3.936427538142e-05  -4.871369329344e-05   4.874092109143e-05 
5 1  1.255708641490e-04   2.141859792642e-05   7.352404768756e-05 
6 1  9.275139101710e-05   4.293713697455e-05  -5.271266370422e-05 
7 1 -1.174993032941e-05  -4.434510771796e-05  -8.848789884739e-05 
8 1  3.906606355715e-05  -2.525916617595e-05   8.723000678970e-05 
8
Step 8000
1 1  1.342049025470e-04  -2.983142497861e-05  -7.178406402152e-05 
2 1  3.587698194392e-05  -1.634466331111e-04   3.591574927762e-05 
3 1 -4.026948538291e-05  -4.670214963034e-05   1.848065726387e-05 
4 1  2.930447435109e-06  -4.966547252102e-05  -5.881383478620e-06 
5 1  1.244966519054e-04   5.606179813503e-05   8.740602594699e-05 
6 1  1.202403380032e-04  -5.465399410141e-06  -1.526757228726e-05 
7 1 -1.846765104858e-05  -5.680704991928e-05  -4.697687056759e-05 
8 1  3.286426644029e-05  -6.917737321122e-05   1.950512314750e-05 
8
Step 9000
1 1  1.330760782525e-04  -2.216086931659e-05  -1.509449173895e-05 
2 1  8.153475718503e-05  -1.428705998636e-04  -1.979792268632e-05 
3 1 -7.528199858102e-05   6.466955462078e-06  -2.155131805081e-05 
4 1 -4.670641598500e-05  -2.543713994523e-05  -4.373401202276e-05 
5 1  7.595035084169e-05   5.875575405384e-05   6.330735867766e-05 
6 1  1.038162609906e-04  -4.014053914565e-05   1.375729179956e-05 
7 1 -2.520917133428e-06  -4.976026454705e-05   1.306137704038e-05 
8 1  6.112762068652e-06  -7.052951975177e-05  -4.811267607998e-05 
8
Step 10000
1 1  7.905219002020e-05   1.600219491784e-05   3.278887376907e-05 
2 1  7.929380781000e-05  -5.818332002991e-05  -4.907127664158e-05 
3 1 -8.059949725369e-05   4.907019975169e-05  -4.450314614960e-05 
4 1 -8.970380480751e-05   1.816722646654e-05  -5.000033597035e-05 
5 1 -1.359443707869e-05   3.325199584085e-05   1.963602507695e-05 
6 1  5.177414644013e-05  -4.637943989678e-05   2.403894283820e-05 
7 1  2.143062785755e-05  -3.338151227705e-05   7.436704242807e-05 
8 1 -2.288896189353e-05  -5.142088065287e-05  -8.505586121666e-05 
8
Step 11000
1 1 -5.751979760056e-06   5.304411705444e-05   6.721737186598e-05 
2 1  3.396597301951e-05   5.039307353888e-05  -5.548479770192e-05 
3 1 -5.465780810730e-05   6.647629427725e-05  -4.509467480048e-05 
4 1 -1.028092687650e-04   6.758010078102e-05  -3.063331068618e-05 
5 1 -9.925513270384e-05  -1.789193871661e-05  -3.375220625391e-05 
6 1 -1.651170050555e-05  -2.216699081805e-05   1.600178206073e-05 
7 1  3.356927580456e-05  -1.468167230863e-05   1.149921433827e-04 
8 1 -4.400263682591e-05  -1.976511643555e-05  -7.701034684355e-05 
8
Step 12000
1 1 -8.541020120428e-05   5.936801143462e-05   8.389283116396e-05 
2 1 -1.605677492983e-05   1.338357868121e-04  -5.369282562572e-05 
3 1 -1.217175109342e-05   5.690577885967e-05  -2.005820525907e-05 
4 1 -7.223157896964e-05   1.002487461227e-04  -2.652258264349e-06 
5 1 -1.406947201608e-04  -7.149908011879e-05  -6.899694989509e-05 
6 1 -7.532626264738e-05   1.935223767067e-05  -1.209855318865e-06 
7 1  2.377544601212e-05   7.915021710539e-07   1.143450499112e-04 
8 1 -5.670453914308e-05   1.264867753199e-05  -4.389905614595e-05 
8
Step 13000
1 1 -1.127881948865e-04   3.751075963580e-05   5.332154069100e-05 
2 1 -5.291327538553e-05   1.481733576436e-04  -3.602007068751e-05 
3 1  2.829138568577e-05   2.972942799110e-05   1.963679284796e-05 
4 1  1.402742889255e-06   9.326372862712e-05   1.651780904828e-05 
5 1 -1.281503735211e-04  -9.240765244498e-05  -7.153582637420e-05 
6 1 -1.025222849754e-04   5.510756523362e-05  -1.295965998040e-05 
7 1 -1.023066756320e-05   1.634952708467e-05   6.786637244359e-05 
8 1 -4.774426399006e-05   2.385393855889e-05  -1.447132214979e-06 
8
Step 14000
1 1 -7.865255984730e-05  -9.903482667365e-06  -7.647090699479e-06 
2 1 -6.470712054575e-05   9.167299978658e-05  -1.252716971991e-05 
3 1  4.980701182187e-05   5.880954917601e-08   5.276613287159e-05 
4 1  9.626068170355e-05   3.679686555655e-05   1.687193943931e-05 
5 1 -6.252434336402e-05  -7.563016753012e-05  -5.281908142010e-05 
6 1 -8.916320933537e-05   6.784171814389e-05  -6.397272966388e-06 
7 1 -5.611485559816e-05   3.677600042086e-05  -1.306490965982e-05 
8 1 -1.719754944587e-05   2.318027073383e-05   4.079365684658e-05 
8
Step 15000
1 1 -1.258366199732e-05  -6.916357708099e-05  -5.152302380571e-05 
2 1 -4.758605428530e-05  -5.666764219005e-06   1.931242909382e-06 
3 1  4.441473601784e-05  -1.868655115888e-05   6.047005111537e-05 
4 1  1.700967021996e-04  -5.107023558773e-05  -1.750652477362e-06 
5 1  3.899739061288e-05  -2.146887858718e-05  -1.415238468780e-05 
6 1 -4.210576898572e-05   4.917648997776e-05   1.712173893308e-05 
7 1 -8.959466101351e-05   5.872258696045e-05  -1.002333633527e-04 
8 1  2.331225883576e-05   1.943039513228e-05   5.853233165240e-05 
8
Step 16000
1 1  5.761277260838e-05  -1.042979167730e-04  -6.963021282605e-05 
2 1 -6.447954188607e-06  -9.636815020140e-05   1.164477758579e-05 
3 1  1.342503187787e-05  -2.006771784831e-05   4.558072492778e-05 
4 1  1.789067224827e-04  -1.354781291109e-04  -2.530477191668e-05 
5 1  1.245378880441e-04   5.823235810057e-05   3.076665136765e-05 
6 1  1.897652431495e-05   9.522035352151e-07   4.600029598165e-05 
7 1 -8.850285680020e-05   7.164519649644e-05  -1.558917574628e-04 
8 1  5.759167026046e-05   1.062073955074e-05   4.728545553479e-05 
8
Step 17000
1 1  1.017217303724e-04  -9.398130555879e-05  -6.236647667771e-05 
2 1  3.175935107759e-05  -1.389728638817e-04   2.766690489324e-05 
3 1 -2.430728387995e-05  -5.972032835273e-06   1.302151017947e-05 
4 1  1.102378783030e-04  -1.748999616627e-04  -3.707245993523e-05 
5 1  1.520610585033e-04   1.202155611504e-04   5.500582269436e-05 
6 1  6.735876355034e-05  -5.701637372847e-05   6.351790637357e-05 
7 1 -4.636991072957e-05   6.628842235831e-05  -1.505133473374e-04 
8 1  7.298905567422e-05   5.912275010791e-06   2.008470143585e-05 
8
Step 18000
1 1  8.840499175344e-05  -4.254781764769e-05  -1.897796227638e-05 
2 1  4.877192057777e-05  -1.164893417185e-04   3.800899675939e-05 
3 1 -4.687222219285e-05   9.084426370179e-06  -3.203239650254e-05 
4 1 -1.055494269353e-05  -1.433675416752e-04  -2.638212621042e-05 
5 1  1.173079718702e-04   1.307940120772e-04   5.594835447862e-05 
6 1  8.273556712831e-05  -9.744946536888e-05   5.208928637853e-05 
7 1  2.509155733569e-05   3.792280655173e-05  -8.267603538770e-05 
8 1  6.251127772821e-05   1.120887993342e-05  -1.022312461264e-05 
8
Step 19000
1 1  2.619441620228e-05   3.554142614569e-05   3.572791157313e-05 
2 1  4.159799526717e-05  -4.582092168161e-05   3.990942240812e-05 
3 1 -4.247918287970e-05   1.259183185033e-05  -7.124553472989e-05 
4 1 -1.298084219025e-04  -4.970856107023e-05   4.246994976500e-06 
5 1  3.703665734634e-05   9.349107968118e-05   4.489302060895e-05 
6 1  6.040863984108e-05  -1.035043576089e-04   8.080048122405e-06 
7 1  9.610220622080e-05  -9.512865041441e-06   1.615582067880e-05 
8 1  2.652019021959e-05   8.910273943248e-06  -2.997384513672e-05 
8
Step 20000
1 1 -4.721264252274e-05   1.053969792952e-04   6.665735723787e-05 
2 1  2.221688237083e-05   4.688441160882e-05   3.580935834126e-05 
3 1 -1.264788351776e-05   2.156296690310e-06  -8.216965809457e-05 
4 1 -1.923353613695e-04   5.990729748926e-05   3.850772985827e-05 
5 1 -5.890599818280e-05   9.695380242280e-06   1.900901667725e-05 
6 1  1.289263985847e-05  -6.742829857803e-05  -5.006410519177e-05 
7 1  1.318544271843e-04  -6.079055046600e-05   1.003777147682e-04 
8 1 -2.328042918613e-05  -1.280408886443e-06  -2.700157236638e-05 
8
Step 21000
1 1 -1.010175880575e-04   1.306161566362e-04   6.793096590595e-05 
2 1 -4.613881888229e-06   1.141385834616e-04   2.152618476176e-05 
3 1  3.108465912271e-05  -1.628845378739e-05  -5.954657455727e-05 
4 1 -1.669158124286e-04   1.394533529907e-04   5.602343970542e-05 
5 1 -1.215503908112e-04  -8.758003941301e-05  -6.882349425928e-06 
6 1 -3.587423965779e-05   2.048347321725e-06  -9.733508188604e-05 
7 1  1.154192097275e-04  -9.584108642114e-05   1.351593787714e-04 
8 1 -6.811558591219e-05  -1.441839634210e-05  -1.394761722362e-05 
8
Step 22000
1 1 -1.104755353613e-04   1.033618551082e-04   3.998990038058e-05 
2 1 -2.784777478458e-05   1.201917363032e-04  -3.372084092545e-06 
3 1  6.446550850950e-05  -3.095276515837e-05  -1.406130956081e-05 
4 1 -7.137817918048e-05   1.563744277951e-04   4.742756185779e-05 
5 1 -1.220832646718e-04  -1.475282866238e-04  -1.866112915754e-05 
6 1 -6.145848365212e-05   7.600519418387e-05  -1.103742404452e-04 
7 1  5.390715633920e-05  -1.002492396432e-04   1.041453176929e-04 
8 1 -8.738596326851e-05  -2.813113304629e-05   5.826199738616e-06 
8
Step 23000
1 1 -6.471016447116e-05   3.729260763432e-05  -1.082141998609e-05 
2 1 -3.559519558618e-05   7.276678096031e-05  -2.735058605806e-05 
3 1  6.867522223625e-05  -3.006486211245e-05   4.377103948174e-05 
4 1  4.371360779718e-05   1.071158078797e-04   1.609242619336e-05 
5 1 -6.894451100893e-05  -1.445044271763e-04  -2.113426117449e-05 
6 1 -5.168111352392e-05   1.220358604493e-04  -8.042605063850e-05 
7 1 -2.702185289380e-05  -7.117553526847e-05   2.841806509183e-05 
8 1 -7.541017341172e-05  -3.874227421911e-05   1.984872889346e-05 
8
Step 24000
1 1  1.321537462845e-05  -4.374284183032e-05  -5.560275678606e-05 
2 1 -2.746973192432e-05   4.076040986593e-06  -4.464578981716e-05 
3 1  4.223866417756e-05  -1.300212393652e-05   9.309007556909e-05 
4 1  1.236484463024e-04   2.274363756140e-05  -2.245035777109e-05 
5 1  8.162228008118e-06  -8.750188661333e-05  -2.061228793798e-05 
6 1 -1.387878246421e-05   1.244060632372e-04  -1.800385118194e-05 
7 1 -9.148876652460e-05  -1.804447697281e-05  -4.666797941669e-05 
8 1 -3.565978433514e-05  -3.358617355613e-05   1.086428175512e-05 
8
Step 25000
1 1  8.128858234243e-05  -1.018594140956e-04  -6.919833856009e-05 
2 1 -1.112747639461e-05  -6.644141326990e-05  -5.218636313505e-05 
3 1 -4.589258230345e-06   1.202813634298e-05   1.109725008559e-04 
4 1  1.370639556380e-04  -5.464745432649e-05  -4.891196855900e-05 
5 1  7.444514725068e-05   1.004079409881e-05  -1.817353944722e-05 
6 1  3.204883306170e-05   8.123738262906e-05   4.945895424043e-05 
7 1 -1.126592788147e-04   4.013842010599e-05  -8.452763458746e-05 
8 1  1.922503808222e-05  -7.916963597547e-06  -1.553494717446e-05 
8
Step 26000
1 1  1.092522751225e-04  -1.099766171120e-04  -4.979030898030e-05 
2 1  7.072809719785e-06  -1.053363174170e-04  -4.456949458774e-05 
3 1 -5.390564426275e-05   3.451998868630e-05   8.671306085613e-05 
4 1  8.403896399155e-05  -9.695724636399e-05  -4.821315782686e-05 
5 1  9.865099494395e-05   1.052137810028e-04  -2.064013400922e-05 
6 1  6.135984554279e-05   6.953063016356e-06   9.692784948556e-05 
7 1 -8.562553064133e-05   8.292454584639e-05  -7.198599453757e-05 
8 1  7.165411854567e-05   2.740992963244e-05  -3.825942425544e-05 
8
Step 27000
1 1  8.908535616311e-05  -7.386789085729e-05  -8.856216656611e-06 
2 1  2.021142183465e-05  -8.626386450866e-05  -2.140692890965e-05 
3 1 -8.248706809654e-05   4.009428341696e-05   3.011651603907e-05 
4 1 -3.355449362539e-06  -8.974220892252e-05  -2.136580071496e-05 
5 1  7.189409140561e-05   1.519042325538e-04  -2.587290942555e-05 
6 1  5.855980261600e-05  -6.699751662774e-05   1.062657429649e-04 
7 1 -2.713682335656e-05   9.355251699384e-05  -1.609142828577e-05 
8 1  9.746394796475e-05   5.408427291924e-05  -4.612752028619e-05 
8
Step 28000
1 1  3.174590335998e-05  -2.081710045346e-05   3.661442007082e-05 
2 1  2.518490286439e-05  -2.693301411678e-05   8.535530474491e-06 
3 1 -7.988694483423e-05   2.645842383449e-05  -3.786628020663e-05 
4 1 -7.931273147345e-05  -4.266884875150e-05   1.684718135635e-05 
5 1  1.223841051434e-05   1.327153897704e-04  -2.267583972306e-05 
6 1  2.305685453146e-05  -1.082810809181e-04   7.838794233432e-05 
7 1  3.338149468675e-05   6.892195515136e-05   4.741575767091e-05 
8 1  8.863984714435e-05   6.152119260928e-05  -3.076575820556e-05 
8
Step 29000
1 1 -3.479636429948e-05   2.386080833541e-05   6.334934860440e-05 
2 1  2.456897558936e-05   3.205034839464e-05   3.689591029161e-05 
3 1 -5.130755731878e-05   3.883874301302e-06  -9.375754255855e-05 
4 1 -1.076246336137e-04   1.654592702598e-05   4.723401682303e-05 
5 1 -5.057403076376e-05   6.319583099153e-05  -7.030798521439e-06 
6 1 -2.619596498844e-05  -1.068480538022e-04   3.190631345362e-05 
7 1  6.839800812352e-05   2.061982801677e-05   7.997108765146e-05 
8 1  4.871516437279e-05   4.466255423364e-05   9.291437853890e-06 
8
Step 30000
1 1 -7.829300918661e-05   4.680877269541e-05   5.424384176492e-05 
2 1  1.536233959199e-05   7.557889351191e-05   5.967865615226e-05 
3 1 -9.019666163558e-06  -1.560015047006e-05  -1.177701386644e-04 
4 1 -7.751839306710e-05   5.884429545635e-05   5.356536649364e-05 
5 1 -8.506070372600e-05  -3.045644502728e-05   1.774050797063e-05 
6 1 -6.520695499889e-05  -7.302980633571e-05  -1.313438983768e-05 
7 1  6.508016695638e-05  -3.286716651788e-05   6.199299715170e-05 
8 1 -7.375052368386e-06   7.694983834854e-07   6.181444973555e-05 
8
Step 31000
1 1 -7.854235396150e-05   4.510220385598e-05   1.216814966791e-05 
2 1 -2.135832568207e-06   9.227957856007e-05   6.879711655381e-05 
3 1  3.181833670640e-05  -2.277762879226e-05  -1.017275378444e-04 
4 1 -7.421266797210e-06   6.466620582223e-05   2.764457388223e-05 
5 1 -7.429653404470e-05  -1.127541106390e-04   4.524411585445e-05 
6 1 -7.831868227391e-05  -1.821921145518e-05  -4.373084681384e-05 
7 1  2.859969582144e-05  -6.849041950285e-05  -5.510048547983e-07 
8 1 -5.931500589265e-05  -5.585502526060e-05   1.085639749509e-04 
8
Step 32000
1 1 -4.192830045259e-05   2.375282876903e-05  -3.629222805812e-05 
2 1 -1.780018548879e-05   6.090151922539e-05   5.567423145534e-05 
3 1  5.845643988363e-05  -1.363998152198e-05  -5.159919722258e-05 
4 1  6.297827135687e-05   3.594891411915e-05  -1.895077833173e-05 
5 1 -2.646085734961e-05  -1.420316616139e-04   6.483703476985e-05 
6 1 -6.081443170747e-05   3.696456845822e-05  -5.397074855683e-05 
7 1 -1.865073556913e-05  -7.045687199202e-05  -7.338714065979e-05 
8 1 -9.130938223862e-05  -8.587902965967e-05   1.150646448020e-04 
8
Step 33000
1 1  6.396152915278e-06   7.719358252236e-06  -6.630652242279e-05 
2 1 -3.098538668332e-05  -3.502565364927e-07   2.174716048706e-05 
3 1  6.724999896752e-05   3.784570409068e-06   1.332893224843e-05 
4 1  9.856365566077e-05  -1.008494677244e-05  -6.288181699148e-05 
5 1  3.105820674975e-05  -1.061367689627e-04   6.024045676896e-05 
6 1 -1.817352411241e-05   6.819683420998e-05  -4.411345250214e-05 
7 1 -4.991177590167e-05  -4.205066425284e-05  -1.140601302725e-04 
8 1 -9.229912389182e-05  -7.339727040417e-05   6.793077337853e-05 
8
Step 34000
1 1  4.062584967437e-05   1.242330850234e-05  -6.281143512808e-05 
2 1 -4.624759668449e-05  -5.127578405691e-05  -1.914695204387e-05 
3 1  6.084206950595e-05   1.516126265974e-05   6.945646370413e-05 
4 1  8.586468672522e-05  -5.458863561031e-05  -8.107808178169e-05 
5 1  7.706819677950e-05  -3.189249307981e-05   2.244217936751e-05 
6 1  3.050863820900e-05   6.986953563591e-05  -2.955624845057e-05 
7 1 -5.078172434486e-05   4.909337004102e-06  -9.959700563458e-05 
8 1 -6.182044363135e-05  -2.429873219933e-05  -8.715928520195e-06 
8
Step 35000
1 1  4.546849629550e-05   2.717837462556e-05  -2.151838493914e-05 
2 1 -4.577485289095e-05  -7.568301660862e-05  -5.924223367106e-05 
3 1  4.192125132894e-05   1.525110658880e-05   9.846392188787e-05 
4 1  2.858213636433e-05  -7.145875287219e-05  -5.844712692675e-05 
5 1  9.431448219899e-05   4.448871047348e-05  -2.399877039820e-05 
6 1  6.690779502729e-05   4.888926756381e-05  -2.261216103588e-05 
7 1 -1.771472465839e-05   4.981964420795e-05  -2.547026795633e-05 
8 1 -2.069087927566e-05   4.349443836233e-05  -9.783291286302e-05 
8
Step 36000
1 1  1.966171498729e-05   2.613844993971e-05   4.796633461943e-05 
2 1 -1.419982231431e-05  -8.419362943959e-05  -8.733620042549e-05 
3 1  2.010571613265e-05   5.897833470350e-07   9.302115969355e-05 
4 1 -4.555284637197e-05  -4.452593080651e-05  -4.871549680512e-07 
5 1  6.291342610462e-05   1.129971486781e-04  -6.167946656689e-05 
6 1  8.178674678662e-05   1.875145005186e-05  -1.871608244695e-05 
7 1  3.392968924582e-05   6.710371389555e-05   8.031324512362e-05 
8 1  1.686455510486e-05   9.752812224361e-05  -1.735257644393e-04 
8
Step 37000
1 1 -1.630669978850e-05   7.574053939614e-06   1.028108560308e-04 
2 1  2.086695465316e-05  -6.120917387699e-05  -8.613579173090e-05 
3 1 -2.504568873729e-06  -2.225565261602e-05   5.817627661925e-05 
4 1 -9.318435042239e-05   1.125121231995e-05   6.727059061369e-05 
5 1 -5.557523284846e-07   1.332989517852e-04  -8.795393021574e-05 
6 1  7.294487658114e-05  -1.050024090566e-05  -1.129182343849e-05 
7 1  7.612665893231e-05   4.601837722926e-05   1.636186779113e-04 
8 1  5.053761870356e-05   1.022098182211e-04  -1.854310063581e-04 
8
Step 38000
1 1 -3.659676221557e-05  -2.629214420946e-05   1.076842882029e-04 
2 1  3.917145903935e-05  -5.763935484699e-06  -5.404342127959e-05 
3 1 -2.651272477150e-05  -4.216087862159e-05   7.822776887964e-06 
4 1 -9.113185171698e-05   6.456584794954e-05   1.123569100788e-04 
5 1 -5.468218399852e-05   8.818601708849e-05  -8.736295750481e-05 
6 1  4.147689191045e-05  -2.738918105143e-05  -5.460808847069e-07 
7 1  8.272676784322e-05  -2.391923496716e-06   1.790665758892e-04 
8 1  6.892470008794e-05   4.968595130442e-05  -1.195124256877e-04 
8
Step 39000
1 1 -2.917088460940e-05  -6.666956365599e-05   5.641116982415e-05 
2 1  6.112369779148e-05   4.735180116415e-05  -1.227880743410e-05 
3 1 -5.442166442212e-05  -4.613752626132e-05  -3.874605231190e-05 
4 1 -4.909914547585e-05   8.843548621906e-05   1.088363937981e-04 
5 1 -9.629623181835e-05   1.458242172582e-05  -4.216910705461e-05 
6 1 -3.141265987454e-06  -3.007902339738e-05   1.936520512352e-05 
7 1  4.978995447021e-05  -5.815923149325e-05   1.101537004234e-04 
8 1  6.531497856081e-05  -3.299103510577e-05  -1.478704740522e-05 
8
Step 40000
1 1  7.710843713689e-06  -9.274543795393e-05  -3.746746594622e-05 
2 1  8.082103674377e-05   6.092138475779e-05   2.580669538496e-05 
3 1 -8.019827071086e-05  -2.718136930930e-05  -6.721769864043e-05 
4 1  8.758701034181e-06   7.336741612549e-05   5.344452424723e-05 
5 1 -1.230962787847e-04  -4.679934456519e-05   1.089696020826e-05 
6 1 -4.823533526786e-05  -2.215309618358e-05   4.653340819402e-05 
7 1 -1.924034164499e-05  -9.171199276807e-05  -2.200261872046e-05 
8 1  5.580331752461e-05  -9.951287448942e-05   1.025878048884e-04 
8
Step 41000
1 1  6.368737525331e-05  -7.343639049413e-05  -1.512705465838e-04 
2 1  3.861442948001e-05   6.888342864850e-05   5.969502309999e-05 
3 1 -8.996303383086e-05   7.502249229404e-06  -6.907556456885e-05 
4 1  6.802635711925e-05   1.975225835635e-05  -2.875117515031e-05 
5 1 -9.528439384397e-05  -1.032309582243e-04   5.230251761832e-05 
6 1 -8.382467593822e-05  -1.161580566161e-05   6.458290418564e-05 
7 1 -9.215335083246e-05  -7.786104191244e-05  -1.559801521128e-04 
8 1  3.542279568319e-05  -1.215478010702e-04   1.892245285430e-04 
8
Step 42000
1 1  8.974612131399e-05  -1.070529287685e-05  -2.125475333200e-04 
2 1 -2.431184618929e-05   6.795208531842e-05   7.300729036205e-05 
3 1 -7.243158981353e-05   4.878922170039e-05  -4.923600551495e-05 
4 1  8.970104444622e-05  -5.252013300203e-05  -1.010041002438e-04 
5 1 -1.948005284411e-05  -1.117286533882e-04   8.593748804252e-05 
6 1 -9.691055305422e-05  -6.080323279652e-06   5.923751031483e-05 
7 1 -1.345643478494e-04  -2.669940876989e-05  -2.306699774111e-04 
8 1 -1.864710182250e-06  -8.871589600631e-05   1.988008114558e-04 
8
Step 43000
1 1  6.697437827026e-05   6.126197041763e-05  -1.772939536610e-04 
2 1 -5.310512373909e-05   3.953699146111e-05   6.317385860246e-05 
3 1 -3.060548597274e-05   8.801637305123e-05  -1.293667220032e-05 
4 1  6.064948842641e-05  -1.091455571439e-04  -1.324224428406e-04 
5 1  4.877638250567e-05  -6.849270307623e-05   9.494805182056e-05 
6 1 -8.263230912296e-05  -4.898244156586e-06   2.922176159930e-05 
7 1 -1.317698458605e-04   4.398421291801e-05  -2.084450554006e-04 
8 1 -3.490629820203e-05  -6.039443381662e-06   1.292510816303e-04 
8
Step 44000
1 1  6.501374503733e-06   1.092768175623e-04  -6.320712081744e-05 
2 1 -7.564587485292e-05  -7.333076012637e-06   4.072039875823e-05 
3 1  4.981426649661e-05   1.036180137928e-04   2.126968835445e-05 
4 1  4.729525903914e-06  -1.124822039197e-04  -1.039327723169e-04 
5 1  9.455061784758e-05  -7.220552011808e-06   6.916103700928e-05 
6 1 -4.083494618156e-05  -4.413446726537e-06  -1.733514855130e-05 
7 1 -7.475905159419e-05   1.029832694403e-04  -9.334517450275e-05 
8 1 -5.969830772150e-05   7.906684281326e-05   2.390129245951e-05 
8
Step 45000
1 1 -6.137107648333e-05   1.147283613933e-04   6.241880807441e-05 
2 1 -1.088745448748e-04  -4.597210397780e-05   1.815973411718e-05 
3 1  1.510126053844e-04   7.564065022127e-05   4.556832064419e-05 
4 1 -4.422829606300e-05  -5.933391686219e-05  -2.745952030727e-05 
5 1  1.353116029937e-04   3.507404411709e-05   3.661610289998e-05 
6 1  2.069006727974e-05  -6.446959056876e-06  -6.409135304236e-05 
7 1  1.046981982222e-05   1.187493051202e-04   5.270669045168e-05 
8 1 -7.920415072240e-05   1.223775660139e-04  -7.853322531619e-05 
8
Step 46000
1 1 -1.307606160443e-04   5.951909469401e-05   1.832136443542e-04 
2 1 -5.612415804629e-05  -8.223270432475e-05  -1.261055036507e-05 
3 1  2.207414995043e-04   9.209332466341e-06   4.669011410560e-05 
4 1 -7.544123401226e-05   2.057914747178e-05   4.875322738606e-05 
5 1  1.140029532324e-04   6.201879309407e-05  -8.627520791670e-06 
6 1  8.705077026413e-05  -1.735433741548e-06  -8.778394576406e-05 
7 1  8.300467999289e-05   8.593601250719e-05   1.535571853548e-04 
8 1 -6.596951708177e-05   1.156789754282e-04  -1.442356930191e-04 
8
Step 47000
1 1 -1.316407330954e-04  -3.698989952489e-05   2.279153958835e-04 
2 1  2.755903598089e-05  -9.877956029606e-05  -4.161741791612e-05 
3 1  2.111536296303e-04  -6.989786952216e-05   2.775222783078e-05 
4 1 -6.144877397255e-05   1.015641589411e-04   9.305819706698e-05 
5 1  4.357392723606e-05   5.388056815604e-05  -5.223466792611e-05 
6 1  1.288195767477e-04   1.416422299367e-05  -7.592037846107e-05 
7 1  1.157573904427e-04   2.340872408792e-05   1.731459535103e-04 
8 1 -2.373273569852e-05   6.785685805866e-05  -1.539392266327e-04 
8
Step 48000
1 1 -6.775574237658e-05  -9.597567752403e-05   1.605107808374e-04 
2 1  8.727514071586e-05  -8.161362239217e-05  -6.667669954460e-05 
3 1  1.255228833100e-04  -1.411037644984e-04   9.471716055861e-06 
4 1 -9.910700485047e-06   1.389941647549e-04   8.775322980429e-05 
5 1 -3.591300242659e-05   2.411848884684e-05  -7.611825321966e-05 
6 1  1.292905907630e-04   3.105804407930e-05  -3.210391745868e-05 
7 1  1.145159016801e-04  -4.537341805639e-05   1.250121397286e-04 
8 1  1.896442629584e-05  -6.149660873884e-06  -1.063337651649e-04 
8
Step 49000
1 1  1.571960531081e-05  -9.170296518156e-05   4.328342145147e-05 
2 1  1.085282831211e-04  -3.222973865883e-05  -7.752438340340e-05 
3 1 -8.019865238283e-07  -1.641280776447e-04  -1.081708106871e-05 
4 1  4.394980834649e-05   1.048806140116e-04   4.311679536219e-05 
5 1 -9.267901642920e-05  -5.201818043548e-06  -7.517716333423e-05 
6 1  8.576453014613e-05   4.042830085479e-05   2.698650242767e-05 
7 1  7.524179497550e-05  -8.742934286843e-05   3.048985014175e-05 
8 1  5.261383395605e-05  -7.461765211449e-05  -2.637657485636e-05 
8
Step 50000
1 1  7.932919611335e-05  -3.707086235034e-05  -5.258812317270e-05 
2 1  9.084575204098e-05   3.821189066474e-05  -6.488361050477e-05 
3 1 -1.315106753245e-04  -1.261802647502e-04  -2.155422788934e-05 
4 1  7.883430128561e-05   2.329414195760e-05  -9.048126389941e-06 
5 1 -1.179423781899e-04  -2.471734481288e-05  -5.538041461785e-05 
6 1  8.058364405942e-06   3.711460948476e-05   7.147928185275e-05 
7 1  1.259751321447e-05  -9.187262491150e-05  -6.197723072247e-05 
8 1  7.419140227364e-05  -1.083280756275e-04   4.263519755172e-05 
8
Step 51000
1 1  1.209105266607e-04   3.882410452521e-05  -1.205757652995e-04 
2 1  2.111128248341e-05   9.976564360186e-05  -3.333279511765e-05 
3 1 -2.028205589374e-04  -4.829127587141e-05  -9.379097796904e-06 
4 1  6.913030479021e-05  -6.743372134422e-05  -3.388326499274e-05 
5 1 -9.417571350362e-05  -2.550309533862e-05  -1.803654829070e-05 
6 1 -8.435402219358e-05   1.624102185321e-05   8.394641963072e-05 
7 1 -4.757492720251e-05  -6.089900689882e-05  -1.097143993272e-04 
8 1  6.012007318599e-05  -9.836483563701e-05   8.849899046354e-05 
8
Step 52000
1 1  1.095833267830e-04   1.037607700121e-04  -1.379545401785e-04 
2 1 -5.587776944362e-05   1.248958595658e-04   1.852180880713e-05 
3 1 -1.936713588380e-04   2.960699240940e-05   1.634190816360e-05 
4 1  1.662829979781e-05  -1.358412567433e-04  -2.958297429403e-05 
5 1 -3.293823534988e-05  -7.056743509465e-06   1.976993739507e-05 
6 1 -1.496108980766e-04  -1.986932458924e-05   5.485649894847e-05 
7 1 -8.530386360211e-05  -8.096920508323e-06  -9.776364583761e-05 
8 1  1.779432693685e-05  -5.363233795039e-05   1.004011593626e-04 
8
Step 53000
1 1  4.411285399823e-05   1.174722164762e-04  -9.339879197399e-05 
2 1 -1.054437590424e-04   1.014874896476e-04   6.512379886511e-05 
3 1 -1.156433037580e-04   7.802796181773e-05   3.158303449172e-05 
4 1 -4.490150857775e-05  -1.424945028883e-04  -1.834331300971e-06 
5 1  3.495458218176e-05   1.559954143118e-05   4.742474862197e-05 
6 1 -1.603937967518e-04  -5.373580534591e-05  -4.311292846500e-07 
7 1 -9.259187554211e-05   4.230224826060e-05  -4.243957998580e-05 
8 1 -2.347010694126e-05   2.134731837256e-07   7.331476483608e-05 
8
Step 54000
1 1 -3.452940119295e-05   6.068694961679e-05  -2.194014582744e-05 
2 1 -9.747182234754e-05   3.962027698576e-05   9.198476149383e-05 
3 1 -1.292126204342e-05   8.921140802209e-05   2.913007193146e-05 
4 1 -8.294585340256e-05  -8.401794237169e-05   2.170795656310e-05 
5 1  8.351571826573e-05   2.646725446455e-05   6.015605791160e-05 