8
Step 0
1 1 0.00000000000000000e+00 0.00000000000000000e+00 0.00000000000000000e+00
2 1 0.00000000000000000e+00 0.00000000000000000e+00 0.00000000000000000e+00
3 1 0.00000000000000000e+00 0.00000000000000000e+00 0.00000000000000000e+00
4 1 0.00000000000000000e+00 0.00000000000000000e+00 0.00000000000000000e+00
5 1 0.00000000000000000e+00 0.00000000000000000e+00 0.00000000000000000e+00
6 1 0.00000000000000000e+00 0.00000000000000000e+00 0.00000000000000000e+00
7 1 0.00000000000000000e+00 0.00000000000000000e+00 0.00000000000000000e+00
8 1 0.00000000000000000e+00 0.00000000000000000e+00 0.00000000000000000e+00
8
Step 1000
1 1 -1.70399396805094188e-06 -1.10394825180332556e-06 1.29955951046471117e-06
2 1 -2.76425823895818809e-06 2.96708656119222544e-06 3.06072302646489114e-06
3 1 2.57271318706101902e-06 -2.89489697250554350e-08 1.58130264212108278e-06
4 1 -1.22779321533302919e-06 -2.09935581603406072e-07 2.99535781601301267e-07
5 1 -2.59285832839846909e-06 -1.06942367269508983e-06 1.15299213044929153e-06
6 1 -1.52192270772236165e-06 -5.81246986769675538e-08 -1.35367358793239403e-06
7 1 -2.11236165459975556e-06 4.31234197068792689e-07 2.13067566148976663e-06
8 1 -4.53333933248441669e-07 -2.58392365071415441e-07 3.30739239853729125e-06
8
Step 2000
1 1 -1.33746668493396623e-06 -1.67120316889750048e-06 7.15337483289625208e-07
2 1 -1.67093381000636587e-06 1.11326621521928873e-06 2.95972983099146415e-06
3 1 2.43761985958989439e-06 5.11491728624312362e-07 2.22166671491092761e-06
4 1 -6.47785560636929277e-07 9.13323063028528198e-07 -1.29993474744637300e-06
5 1 -8.12988259635008914e-07 9.95147624375848395e-07 1.45378618498696980e-06
6 1 -1.25408109057423858e-06 -6.94141733991600223e-07 -2.31400770230945341e-07
7 1 -2.00416504200976867e-06 4.16305539676152432e-07 1.06001797295635588e-06
8 1 1.22083521437140221e-06 -1.42008450883514832e-06 2.45629299619366826e-06
8
Step 3000
1 1 -3.04358639996648870e-07 -1.68538984135301420e-06 -1.50858039859299515e-07
2 1 2.65905458798850290e-07 -1.16274583244763227e-06 1.64186739289406465e-06
3 1 1.32163242987274588e-06 8.75989056785474895e-07 1.87603854563598990e-06
4 1 1.55193136174124426e-07 1.43902785675681604e-06 -2.64737137443684367e-06
5 1 1.05398552110267996e-06 2.36130017386057345e-06 9.75140733264363689e-07
6 1 -5.98271832249391326e-07 -1.11182218033871607e-06 1.26691994602814842e-06
7 1 -1.05986572325235321e-06 4.74859607104627424e-07 -5.10600947437605676e-07
8 1 2.39315274779978039e-06 -1.65291452321257302e-06 5.64138536331095495e-07
8
Step 4000
1 1 7.82608335111129545e-07 -1.00813543707918788e-06 -8.55593423053072943e-07
2 1 1.93652087403763338e-06 -2.55875153642198369e-06 -1.06496073909165570e-07
3 1 -1.23417960602645083e-07 9.50923221872657843e-07 7.53490478475438792e-07
4 1 7.02400723932145377e-07 1.28885695596756667e-06 -3.13433430034170211e-06
5 1 2.06957093758146184e-06 2.54630494492474845e-06 1.30931198933831742e-08
6 1 1.35433231418016646e-07 -1.23349101163691396e-06 2.26466704146795254e-06
7 1 4.59627426265346703e-07 6.10295682544544788e-07 -1.85908169296133686e-06
8 1 2.70033306186024049e-06 -7.90843737846971812e-07 -1.38647642563604097e-06
8
Step 5000
1 1 1.29780793352681655e-06 2.01684306999736728e-07 -1.06376442634772079e-06
2 1 2.46752241476377964e-06 -2.40582134162282854e-06 -1.41839272492119059e-06
3 1 -1.18362683427341834e-06 7.00212964981148862e-07 -6.13471786033004183e-07
4 1 7.47897614952836250e-07 6.84696295850166959e-07 -2.47099611880846609e-06
5 1 1.86816499743242826e-06 1.70672759976931890e-06 -8.92678844940145756e-07
6 1 6.52262292246853348e-07 -1.06255219881434979e-06 2.12346111207891260e-06
7 1 1.94482750016577940e-06 6.89661158417038433e-07 -2.36646191810715586e-06
8 1 2.16948406151454693e-06 6.42124841465115076e-07 -2.49860218324253187e-06
8
Step 6000
1 1 9.51726567272977596e-07 1.49553592871879153e-06 -7.17026861160238944e-07
2 1 1.68987864422877570e-06 -9.51699662329383979e-07 -1.81124533867712115e-06
3 1 -1.41026749983212032e-06 1.77364592199624254e-07 -1.61318248373704927e-06
4 1 3.68128857079119162e-07 -3.21190750522181704e-08 -8.55591855775624370e-07
5 1 7.74985038395694756e-07 3.85155746857021123e-07 -1.29443834902159398e-06
6 1 8.05374156186663409e-07 -6.34189338961314180e-07 7.96252645732141040e-07
7 1 2.76852005764230600e-06 5.31761137910855384e-07 -1.87102444784233532e-06
8 1 1.08523044052207775e-06 1.80508831535654576e-06 -2.38555066668822957e-06
8
Step 7000
1 1 -3.23905324482292803e-08 2.34598774383217956e-06 -7.84745299198502571e-08
2 1 1.17541120928236889e-07 8.87115291507677280e-07 -1.29966439791610461e-06
3 1 -8.01472542673399557e-07 -4.78214547988263802e-07 -1.83909124937316059e-06
4 1 -1.13964366729518169e-07 -5.56636261547724779e-07 1.04080471487957956e-06
5 1 -4.66067108394915329e-07 -8.04302327757998713e-07 -1.01444675675189015e-06
6 1 6.06459084878399588e-07 -4.18806816842315973e-08 -1.13869036764006775e-06
7 1 2.57174421552837520e-06 4.18796059635582093e-08 -6.94621809702038066e-07
8 1 -1.63427205937931759e-07 2.06034930531744679e-06 -1.26264415487156478e-06
8
Step 8000
1 1 -1.06762150791252949e-06 2.39265033650582163e-06 4.58672588189913927e-07
2 1 -1.37786261822011305e-06 2.06121123226028088e-06 -2.95280466709786112e-07
3 1 2.29069431342683775e-07 -1.07509319533283087e-06 -1.26094334252729788e-06
4 1 -3.48886601053649745e-07 -7.53774854823368049e-07 2.41322556158330364e-06
5 1 -1.15691194928995540e-06 -1.39650403433785488e-06 -2.01086933056219219e-07
6 1 2.08429020078594824e-07 5.79285500594050811e-07 -2.75997604268499423e-06
7 1 1.41732207013007735e-06 -6.72503829115743598e-07 5.50669916943831879e-07
8 1 -1.17325285058445646e-06 1.28310144635061404e-06 2.30329403953511636e-07
8
Step 9000
1 1 -1.54530727808929653e-06 1.55436404531354747e-06 6.38747115771922978e-07
2 1 -2.05724771106641197e-06 1.99036218776464606e-06 6.52846177553149177e-07
3 1 1.07073677807851400e-06 -1.39943833190431940e-06 -1.88019574691587183e-07
4 1 -2.00452129549453695e-07 -6.77732393132417157e-07 2.76877666350521303e-06
5 1 -9.87387994535883155e-07 -1.25087072585071263e-06 7.48344854502098653e-07
6 1 -1.47132978366488205e-07 1.09768382852600861e-06 -3.28943676198845786e-06
7 1 -1.85736744568903130e-07 -1.30876756679843311e-06 1.26812624269543447e-06
8 1 -1.67994708865269683e-06 -9.39569305092178210e-08 1.37770907240764693e-06
8
Step 10000
1 1 -1.13336748481772923e-06 4.55596100098280244e-08 4.52390840465445047e-07
2 1 -1.67130650886188428e-06 8.21201436275567653e-07 1.13693703475429380e-06
3 1 1.23207451208294687e-06 -1.25588210323497784e-06 9.13990063922942039e-07
4 1 1.93839891960653572e-07 -4.65437234566309701e-07 2.10540641676065271e-06
5 1 -1.39592681416092950e-07 -5.58276337961244587e-07 1.39170665676535330e-06
6 1 -2.63570573033960288e-07 1.38090838683640005e-06 -2.43451611189489099e-06
7 1 -1.52337452214316573e-06 -1.54632351428957609e-06 1.21114125436721893e-06
8 1 -1.62635103899328659e-06 -1.37000533303545784e-06 1.73174089830207841e-06
8
Step 11000
1 1 5.12092145177464282e-08 -1.63720346915873096e-06 8.20873931823888735e-08
2 1 -5.23074145496580410e-07 -7.26768367143468423e-07 1.03321457581482933e-06
3 1 5.77892259816747586e-07 -5.57361431847868028e-07 1.62125141500004922e-06
4 1 5.35357040472579064e-07 -2.33381850830802952e-07 8.38881134351102346e-07
5 1 8.29907786729666329e-07 2.87470058642772452e-07 1.43084830263764896e-06
6 1 -9.91820520567609725e-08 1.30311176782257855e-06 -4.52657328643479839e-07
7 1 -2.07489069884255655e-06 -1.24471707178889590e-06 5.97573587023663783e-07
8 1 -1.09740920695495597e-06 -1.96884787914418813e-06 1.25137122369054181e-06
8
Step 12000
1 1 1.44232792489184206e-06 -2.86599511868996301e-06 -1.98563860174367263e-07
2 1 7.32922262657268213e-07 -1.77383807972073994e-06 4.90619660541413050e-07
3 1 -6.19600295819438176e-07 5.84560191077655550e-07 1.67603281517779947e-06
4 1 5.43020535221446583e-07 -2.62846612764894620e-08 -4.17735234989321410e-07
5 1 1.30656839809070774e-06 8.59387525947771571e-07 8.20932148030993878e-07
6 1 2.23291762201060444e-07 8.18011376870001323e-07 1.89769963139055894e-06
7 1 -1.73577237793379477e-06 -5.14088991270743241e-07 -8.90329794477933946e-08
8 1 -2.74377516578411153e-07 -1.65913602604071195e-06 2.37756967317324604e-07
8
Step 13000
1 1 2.30889261318862939e-06 -3.16248838271107590e-06 -1.95991298606316130e-07
2 1 1.48422237243017665e-06 -1.77912789096609422e-06 -1.99357963481474652e-07
3 1 -1.79050737413517154e-06 1.81927629614044048e-06 1.05391532644916007e-06
4 1 1.19270820669625515e-07 1.87030403829832018e-07 -1.16683751550019670e-06
5 1 9.57657447849953375e-07 8.88932349535589101e-07 -1.93087798309777124e-07
6 1 4.87207037925117187e-07 3.04353134844700677e-08 3.60441074032699215e-06
7 1 -7.81757363563225449e-07 3.45285041599501969e-07 -4.18876849825804191e-07
8 1 5.73588107121465006e-07 -6.19790269190937680e-07 -8.24872802223156707e-07
8
Step 14000
1 1 2.15448877894861002e-06 -2.36824259474375228e-06 4.73327774369411810e-08
2 1 1.45752790327018182e-06 -8.06391284429632431e-07 -7.51073792778766862e-07
3 1 -2.30365339233525266e-06 2.62809808993527688e-06 -2.75400748497296595e-08
4 1 -5.61673391822056796e-07 4.49216479478572485e-07 -1.24618821771904008e-06
5 1 -1.02876608000611567e-07 3.91442308780197678e-07 -1.17647080426819504e-06
6 1 4.88866337110601602e-07 -8.35687086793823348e-07 3.91236775054960508e-06
7 1 3.06869012460069608e-07 1.00310749615289904e-06 -2.51520536334246828e-07
8 1 1.16816626015386851e-06 6.42625680428343162e-07 -1.46333580449482299e-06
8
Step 15000
1 1 9.38951842797787549e-07 -6.87469065493538779e-07 2.98459064553649725e-07
2 1 7.80057032723397628e-07 5.72835078925949762e-07 -9.93101824811353926e-07
3 1 -1.76373987498659535e-06 2.52926794217567595e-06 -1.17610020043963968e-06
4 1 -1.10620977392291680e-06 7.07677376632622761e-07 -8.24948205776046701e-07
5 1 -1.35346891045347298e-06 -3.59016845182412342e-07 -1.71528309366530191e-06
6 1 1.32410309202552592e-07 -1.51996332307562426e-06 2.67099344010142950e-06
7 1 1.05877103975084305e-06 1.25318144633786467e-06 2.16777328061476442e-07
8 1 1.33284929729572055e-06 1.55917201355930692e-06 -1.40428533837799312e-06
8
Step 16000
1 1 -8.34161618031970934e-07 1.25451162301709242e-06 3.16257213239749131e-07
2 1 -1.43978331132669795e-07 1.60592852116857477e-06 -8.99675865061540704e-07
3 1 -2.52933482211154415e-07 1.35031287975804180e-06 -1.94040175890505715e-06
4 1 -1.12094023440727820e-06 7.96028846560192556e-07 -2.48411420760850576e-07
5 1 -2.09881979778211873e-06 -9.52972930370914964e-07 -1.58731686462844954e-06
6 1 -4.95163614432578749e-07 -1.77526134360644110e-06 3.56055350751806797e-07
7 1 1.18541884727261373e-06 1.05812001101648510e-06 6.03352194177593405e-07
8 1 1.04858070400976089e-06 1.75773079964922930e-06 -6.84804984971215989e-07
8
Step 17000
1 1 -2.27491527644453725e-06 2.60617338881009612e-06 5.07711962071627338e-09
2 1 -8.59830938764507379e-07 1.74847068854665436e-06 -5.38689044242023347e-07
3 1 1.58827113756049770e-06 -5.37309218873477641e-07 -1.97522616827126676e-06
4 1 -4.68240452054921684e-07 5.42536762529774156e-07 1.55607792853427609e-07
5 1 -1.85159323386948324e-06 -1.03656359400037971e-06 -8.45016617592444796e-07
6 1 -1.11404879522496784e-06 -1.46616920289426617e-06 -2.04627408750030713e-06
7 1 6.74892365220734595e-07 5.22033246030324778e-07 5.77196927245665207e-07
8 1 4.43667724423306996e-07 1.18932102177492367e-06 3.73864803289425593e-07
8
Step 18000
1 1 -2.66720284789210475e-06 2.84455678238849418e-06 -5.19923879056298259e-07
2 1 -1.07973315357555200e-06 9.15031406692629032e-07 -7.84569390333660467e-09
3 1 2.85854579575536072e-06 -2.30511461791273151e-06 -1.26388588260002661e-06
4 1 6.14683515153315440e-07 -8.76889371770781884e-08 2.27443972825852557e-07
5 1 -6.38546588756429348e-07 -5.22356527084616184e-07 1.85645335483538118e-07
6 1 -1.39715137537543322e-06 -6.89261649996891835e-07 -3.46410673027442434e-06
7 1 -2.00767293491285374e-07 -1.48944254117697460e-07 5.31189261865559993e-08
8 1 -2.51191348637986838e-07 1.46560446096360758e-07 1.30269072043261725e-06
8
Step 19000
1 1 -1.88086072144079403e-06 2.03868689911277066e-06 -9.64837342399352525e-07
2 1 -7.80398203330772420e-07 -4.95778545984499062e-07 5.70934379452250472e-07
3 1 2.95632006853504395e-06 -3.16667175172964458e-06 -1.53297891258141128e-07
4 1 1.58659997533279289e-06 -8.96084374213138317e-07 4.01274323390698544e-08
5 1 9.85099207944316252e-07 3.44220051681121819e-07 1.05420118556064048e-06
6 1 -1.15628732558276536e-06 2.65651829133424965e-07 -3.36510956137891133e-06
7 1 -9.78280981642111068e-07 -7.20892208715396041e-07 -7.30561499576924341e-07
8 1 -7.88686787011126408e-07 -8.65219168038631757e-07 1.68380502935066127e-06
8
Step 20000
1 1 -3.53985949223474480e-07 6.88681758560152809e-07 -1.00624551498146060e-06
2 1 -1.72294933654274153e-07 -1.77941171891889163e-06 1.05153911270490845e-06
3 1 1.86656153455143249e-06 -2.77878928577287645e-06 8.70236832406521960e-07
4 1 1.87946212592325967e-06 -1.48931507709129642e-06 -1.62575161346849947e-07
5 1 2.23992906313051847e-06 1.12905639609047829e-06 1.43679111204958139e-06
6 1 -4.13208932752385508e-07 1.05749986661518031e-06 -1.98388485788945510e-06
7 1 -1.22130381821548554e-06 -1.02309622508961965e-06 -1.32222442474441268e-06
8 1 -1.00817471602497955e-06 -1.38914586104086446e-06 1.33529162317280695e-06
8
Step 21000
1 1 1.14479076222215322e-06 -5.51258342024637113e-07 -5.01061059727217217e-07
2 1 4.30019544089756027e-07 -2.24306829023420008e-06 1.28000618388204686e-06
3 1 1.10217329652735278e-07 -1.33697802467443556e-06 1.40841403931012770e-06
4 1 1.23942604176677707e-06 -1.49362180789614561e-06 -1.40366653234944242e-07
5 1 2.53671449072374946e-06 1.42170716789137992e-06 1.27091916961641018e-06
6 1 5.85963911207343223e-07 1.41701377848955132e-06 -9.54697876073745723e-08
7 1 -7.58408067096043321e-07 -9.87813772902807182e-07 -1.32092010883031550e-06
8 1 -8.84955950813021164e-07 -1.22262062386855130e-06 3.84957574209276869e-07
8
Step 22000
1 1 1.89986324700395225e-06 -1.18960656283671936e-06 4.06547200915243510e-07
2 1 7.55640403547308686e-07 -1.55551323121063211e-06 1.12280627930750989e-06
3 1 -1.47741484877707893e-06 4.87120086076512464e-07 1.30347290749473561e-06
4 1 -1.05245222961687220e-07 -7.82156330508340985e-07 1.79404003473603590e-07
5 1 1.75271723903007023e-06 1.03513096774600695e-06 7.26392192498357650e-07
6 1 1.44333680909070307e-06 1.26349041662125401e-06 1.39777830685564606e-06
7 1 2.26643978352594670e-07 -6.54450411001274833e-07 -6.08887588080476263e-07
8 1 -5.11186178634121812e-07 -4.92115675606098578e-07 -7.91933900371776244e-07
8
Step 23000
1 1 1.62933064184626436e-06 -1.13127695603191061e-06 1.33497276602392066e-06
2 1 6.92737963342613303e-07 4.23537293597951706e-08 5.33209305580055377e-07
3 1 -2.19109054424083272e-06 1.86859885368304267e-06 7.11687198604276629e-07
4 1 -1.52862364535825637e-06 4.12507248698591431e-07 6.49400188694227488e-07
5 1 2.80005938214204587e-07 1.27720696711937431e-07 1.01454925274453587e-07
6 1 1.81692006131140441e-06 7.39575229025350439e-07 1.91709419379997755e-06
7 1 1.26947403872491148e-06 -1.61374230153892189e-07 5.53081713935657680e-07
8 1 -4.20420191881113166e-08 4.03826183615778561e-07 -1.70999950259349251e-06
8
Step 24000
1 1 6.05200413505841150e-07 -6.59474134818631697e-07 1.81354997556729079e-06
2 1 3.35475000412601400e-07 1.80882200798601691e-06 -3.69797524436639615e-07
3 1 -1.84838456673714342e-06 2.28538342020936512e-06 -3.42350375381052782e-09
4 1 -2.32793156332656129e-06 1.57544664740698906e-06 9.81573344013764631e-07
5 1 -1.18637293268991368e-06 -8.73297551483026337e-07 -3.36615005842472355e-07
6 1 1.57350603837881509e-06 1.12244139076295471e-07 1.45575730866254180e-06
7 1 1.83198089967038492e-06 3.08837978282034048e-07 1.62411770008879794e-06
8 1 3.65674671982264161e-07 9.89935459405979319e-07 -1.97313913918831787e-06
8
Step 25000
1 1 -5.46377503064009004e-07 -1.94043377578982148e-07 1.50720897365020747e-06
2 1 -8.26324975583437086e-08 2.87267571466189678e-06 -1.31306782803170820e-06
3 1 -7.93176363303722405e-07 1.70791654572617593e-06 -4.92026496040758895e-07
4 1 -2.10270350903288703e-06 2.16860039128353085e-06 9.14519804849130667e-07
5 1 -2.02355141842012807e-06 -1.50387900149980859e-06 -4.94844219828164872e-07
6 1 7.98239432679565359e-07 -3.62954973584465695e-07 4.81106036979605269e-07
7 1 1.57299399269375157e-06 6.09504959231505898e-07 2.05948085393327894e-06
8 1 6.12364533806654931e-07 9.61989670947885846e-07 -1.44479987489760472e-06
8
Step 26000
1 1 -1.20437898422256644e-06 -1.33514368409171228e-08 4.23584114750656195e-07
2 1 -3.36283115324478590e-07 2.65929125369227879e-06 -1.96411729025006044e-06
3 1 3.55967664903426310e-07 5.19105223393283886e-07 -5.78180499023561191e-07
4 1 -9.32121385834247944e-07 1.88256170241549271e-06 3.70045338422851008e-07
5 1 -1.95284276709749263e-06 -1.45916539288401628e-06 -4.64149498503654488e-07
6 1 -2.44933187086067842e-07 -5.52324435058726812e-07 -3.87263749016794687e-07
7 1 5.21726090778944738e-07 6.73325451627522742e-07 1.58627057953488655e-06
8 1 6.76457385712027119e-07 3.40260987953227041e-07 -2.94020388049202780e-07
8
Step 27000
1 1 -1.05722178182411259e-06 -1.25199472982687841e-07 -1.04297909183584287e-06
2 1 -3.28399648292865979e-07 1.16267118249885748e-06 -2.02796564902035940e-06
3 1 1.02070503049910067e-06 -6.88896105654336804e-07 -3.13507273514649768e-07
4 1 6.57105548310227123e-07 7.82795157487268147e-07 -4.66742529199916317e-07
5 1 -1.10622344200881868e-06 -7.26660807108892742e-07 -4.12368028502448059e-07
6 1 -1.20403375725466743e-06 -4.90760478978418579e-07 -7.08707484301640533e-07
7 1 -9.16292226020993059e-07 5.24995088151806223e-07 3.51834265610023925e-07
8 1 5.91703561823793736e-07 -5.31262135078928088e-07 1.06272994876063496e-06
8
Step 28000
1 1 -2.41681024652476401e-07 -3.18356197768245511e-07 -2.26009937984654690e-06
2 1 -1.31152226780553760e-07 -9.80560097797841054e-07 -1.37402849920465908e-06
3 1 9.42142999028255925e-07 -1.39188762560686530e-06 7.80667109416988586e-08
4 1 1.91886603445511609e-06 -6.72572145254167898e-07 -1.21067448826678182e-06
5 1 6.45874259043854565e-08 3.78983226339186322e-07 -4.52166745219121974e-07
6 1 -1.78174918597417284e-06 -3.29348383784306113e-07 -4.16781743180185587e-07
7 1 -2.12160313493381685e-06 2.73378586914581161e-07 -1.09942437739867663e-06
8 1 4.06644277624979446e-07 -1.14604250302272381e-06 2.10218718502089796e-06
8
Step 29000
1 1 7.39283853545449024e-07 -3.32018100761585290e-07 -2.62969364465057321e-06
2 1 7.08736147100356971e-08 -2.75361899021556634e-06 -1.67373078138231956e-07
3 1 2.85108885171048955e-07 -1.35457164687493165e-06 3.36704213193308404e-07
4 1 2.28581861780274443e-06 -1.85143775144106023e-06 -1.48981159324679716e-06
5 1 1.01269930449693970e-06 1.35205907477174075e-06 -5.57350554937100656e-07
6 1 -1.82696792837938559e-06 -2.27457076981002465e-07 2.00082447925126591e-07
7 1 -2.56046789731476104e-06 6.09394299800648798e-08 -2.09047858876653049e-06
8 1 1.59426301161142216e-07 -1.09715583980729488e-06 2.40226395143280425e-06
8
Step 30000
1 1 1.29680467853196744e-06 -4.38287185450047658e-08 -1.86467688390110903e-06
2 1 1.13536261935475719e-07 -3.32728931114056615e-06 1.17657222725687379e-06
3 1 -4.88779801242855443e-07 -6.88448244527909827e-07 3.04775897285813427e-07
4 1 1.64348989113223591e-06 -2.26285995023540036e-06 -1.14176410783361652e-06
5 1 1.37412102738903148e-06 1.74463735210302987e-06 -5.63815368351893123e-07
6 1 -1.32933191239910271e-06 -2.62790986874971657e-07 6.97357507044039997e-07
7 1 -2.02121444410209892e-06 -1.68600201467535137e-08 -2.15423459595150756e-06
8 1 -1.33995186045036361e-07 -3.01750908334107723e-07 1.80508708324582286e-06
8
Step 31000
1 1 1.07467537035051862e-06 4.36722209878785276e-07 -1.68577219085078757e-07
2 1 -4.35474777555994424e-08 -2.45959870426102600e-06 2.18912550250017074e-06
3 1 -8.89997341207593844e-07 2.42135229363373403e-07 -4.63733868095641388e-09
4 1 3.30466116023777551e-07 -1.74049083560701325e-06 -2.87239666881437284e-07
5 1 1.12516802011319439e-06 1.36704983097627103e-06 -2.77491111282219982e-07
6 1 -3.89781846037956195e-07 -3.89796656967497128e-07 7.18609307458723902e-07
7 1 -6.75036827077860293e-07 3.58083888356112142e-08 -1.23668114862464483e-06
8 1 -4.55188443590581975e-07 9.07011698623635034e-07 4.88288227253247936e-07
8
Step 32000
1 1 1.52443491134613697e-07 8.25038708880120761e-07 1.76911273553389128e-06
2 1 -2.90279725789948364e-07 -5.53998993415744375e-07 2.50762784740927217e-06
3 1 -6.54023138816653029e-07 1.00105629013705425e-06 -4.25488872619017519e-07
4 1 -1.02215339382075264e-06 -5.10507502537563664e-07 6.94643144018507989e-07
5 1 5.25878305439468420e-07 3.62387894743472782e-07 3.49486284142898596e-07
6 1 7.78337170469468830e-07 -4.53949519569046330e-07 1.79864537775308094e-07
7 1 9.67946392823825326e-07 1.18929428714525386e-07 2.46966060083050517e-07
8 1 -7.39871880383918276e-07 1.89360849095592777e-06 -1.05280075142138891e-06
8
Step 33000
1 1 -9.88393103020395288e-07 8.51124177870358142e-07 3.07617579032330351e-06
2 1 -4.24143107282353542e-07 1.50094690011859455e-06 2.00140404616003976e-06
3 1 1.35734206205052246e-07 1.26387881324028651e-06 -7.20370057206761199e-07
4 1 -1.78526401202158196e-06 8.81320295454460458e-07 1.32990862365683107e-06
5 1 -5.83379141267202930e-08 -8.41229492712430233e-07 1.12682297946332489e-06
6 1 1.85388758561250807e-06 -2.81995911221076553e-07 -6.66274237680307443e-07
7 1 2.26041713933657872e-06 8.56735429393020293e-08 1.56894746972130918e-06
8 1 -8.85756688837023309e-07 2.06335707017912029e-06 -2.20781380978324996e-06
8
Step 34000
1 1 -1.74113090044453688e-06 4.62066746757075146e-07 3.13977511643219087e-06
2 1 -2.99861475355998091e-07 2.75945618175789181e-06 8.50482168747683241e-07
3 1 1.08601989225913555e-06 9.28903173236005278e-07 -6.94653310708452566e-07
4 1 -1.64972256045791930e-06 1.82761691100418955e-06 1.30339499622746195e-06
5 1 -3.58360473217359940e-07 -1.71646914074897922e-06 1.68722062641719865e-06
6 1 2.48509579483073680e-06 1.93577051873274094e-07 -1.35389609007920338e-06
7 1 2.73810834067798578e-06 -1.64849702214640453e-07 2.08225657716337898e-06
8 1 -7.98658160716349662e-07 1.20462207111857126e-06 -2.54510609609484321e-06
8
Step 35000
1 1 -1.68264842643308255e-06 -1.27795949969188163e-07 1.86215869839682332e-06
2 1 5.23930261263919135e-08 2.71951283408199505e-06 -5.26234043281982744e-07
3 1 1.67535153026719318e-06 1.30583958956535097e-07 -2.90975161097827169e-07
4 1 -7.47380461976592239e-07 1.93036565049113500e-06 6.21500127619945569e-07
5 1 -3.37498395491680443e-07 -1.89214972909745065e-06 1.64765143966850873e-06
6 1 2.40752745716908747e-06 8.68442575326834211e-07 -1.47523515385787138e-06
7 1 2.27823172238089477e-06 -5.87804222399297974e-07 1.54959331851936044e-06
8 1 -4.36840794343352648e-07 -3.72259592448093904e-07 -1.97609313600220621e-06
8
Step 36000
1 1 -7.78979178759320820e-07 -5.54722094893552797e-07 -2.67956251059381858e-07
2 1 4.52491703379471800e-07 1.52843454237844521e-06 -1.65156367459204526e-06
3 1 1.50093366415482961e-06 -8.22731505796010981e-07 3.79180570010440833e-07
4 1 4.35857513001826115e-07 1.16107005591941985e-06 -3.76465235128467166e-07
5 1 -1.64714239042225885e-07 -1.29886339684508579e-06 8.41907914360895384e-07
6 1 1.53710699193946639e-06 1.48062261783111005e-06 -9.08785034094191876e-07
7 1 1.08195939560731559e-06 -9.79376978931177645e-07 2.38619617239327137e-07
8 1 1.23760951437774156e-07 -1.94494637501826583e-06 -7.84929959401563218e-07
8
Step 37000
1 1 5.47968186955197453e-07 -5.27723286781282887e-07 -2.28929783662885127e-06
2 1 6.76635350084855783e-07 -1.73633616482886695e-07 -2.16207470989547441e-06
3 1 4.86407411289188064e-07 -1.55821159051843972e-06 1.06610605857487428e-06
4 1 1.29246221320794230e-06 -1.08421226504624260e-07 -1.15353161560350363e-06
5 1 -6.54617133017393131e-08 -1.54806929049413703e-07 -5.09903437416710412e-07
6 1 5.90207987291561280e-08 1.69854423837720292e-06 1.01500683669495918e-07
7 1 -4.00006360520620884e-07 -1.06959380605898068e-06 -1.17798746084724537e-06
8 1 6.80768775087767678e-07 -2.74778630625486317e-06 4.92394841215206047e-07
8
Step 38000
1 1 1.63119073037758165e-06 -2.84422533712991709e-08 -3.25478083311373618e-06
2 1 5.63615406751458592e-07 -1.59199591642910877e-06 -1.92096275037131011e-06
3 1 -1.03541655484048981e-06 -1.76198633334477492e-06 1.46685146858166707e-06
4 1 1.41002345607473119e-06 -1.26872278756338130e-06 -1.24800438886174547e-06
5 1 -1.69604299894675229e-07 1.08972525915731621e-06 -1.86569126273555414e-06
6 1 -1.53489482996543682e-06 1.29424271085099533e-06 1.04096906445636915e-06
7 1 -1.63500057967349252e-06 -6.75705820775722710e-07 -1.94058648207937587e-06
8 1 1.01274628410075566e-06 -2.39572063245173122e-06 1.35531448918255117e-06
8
Step 39000
1 1 1.94328216749610539e-06 6.29607984861918946e-07 -2.75402709645115542e-06
2 1 1.11173616154943631e-07 -2.12951617580957887e-06 -1.04509443212455734e-06
3 1 -2.42418697389519194e-06 -1.30189077214026650e-06 1.35582229539237985e-06
4 1 7.72918898171022716e-07 -1.77103312484557303e-06 -5.39759653027098247e-07
5 1 -4.25162886448727685e-07 1.92874285202836149e-06 -2.62504615132318339e-06
6 1 -2.63338431539919606e-06 3.18105780674329149e-07 1.41733153800383475e-06
7 1 -2.22580215987583528e-06 1.45506081991393813e-07 -1.62251299125613888e-06
8 1 9.83271559150451084e-07 -1.06526101667887470e-06 1.57689175458973487e-06
8
Step 40000
1 1 1.34737657438611314e-06 9.34948192909513006e-07 -1.05312885000628389e-06
2 1 -4.62890357928917008e-07 -1.63699124766869722e-06 1.29670896957161382e-07
3 1 -3.02133956844878701e-06 -2.93855972095249237e-07 7.05479311929933204e-07
4 1 -2.70284994702398438e-07 -1.37364276267294584e-06 6.57193632225805236e-07
5 1 -6.54074332557026519e-07 2.03937968837938385e-06 -2.39379235803487349e-06
6 1 -2.82227613658963901e-06 -9.03412311435045843e-07 1.07748395859915542e-06
7 1 -2.04474532298856534e-06 1.06636129173163969e-06 -3.83985542911583913e-07
8 1 5.95080927791286407e-07 6.19535313667188204e-07 1.23698033035130880e-06
8
Step 41000
1 1 1.64085735878886808e-07 4.96721601700503289e-07 1.02660294425661745e-06
2 1 -8.07605903240587246e-07 -4.70955955726223306e-07 1.15525023104355842e-06
3 1 -2.47872468020573185e-06 9.22771015941043943e-07 -2.69582282021369082e-07
4 1 -1.19036408487429874e-06 -2.37207139776135617e-07 1.71281101660911249e-06
5 1 -6.80823184786081132e-07 1.37988062811491267e-06 -1.17522273700058889e-06
6 1 -2.04652124980185191e-06 -1.91230225909724376e-06 2.88028424348416699e-07
7 1 -1.26820542920862304e-06 1.65477292953986214e-06 1.08639783608750705e-06
8 1 2.07381652352277990e-08 1.92339716057414683e-06 6.22190015061826354e-07
8
Step 42000
1 1 -9.63455783675039495e-07 -6.23991558360578066e-07 2.43722648467817108e-06
2 1 -6.95190686496222943e-07 7.64836754864879180e-07 1.66137590289433373e-06
3 1 -9.78771706114758687e-07 1.89307508596715542e-06 -1.17011173580862290e-06
4 1 -1.50522695613772794e-06 1.12870680337242969e-06 1.95967354367962611e-06
5 1 -4.11453022890707818e-07 1.74150325818051763e-07 5.70609429547130866e-07
6 1 -6.04884114549686156e-07 -2.28965609861569688e-06 -4.43468627049146316e-07
7 1 -2.51200315038700463e-07 1.61142177995532490e-06 1.96558120951391458e-06
8 1 -4.77043101647589313e-07 2.35346048107734989e-06 5.86985131108458767e-08
8
Step 43000
1 1 -1.44989837109870666e-06 -1.88244877681659046e-06 2.48665756603065525e-06
2 1 -1.46212659170169231e-07 1.53779445037389295e-06 1.50050465152181074e-06
3 1 7.90224342157907554e-07 2.26280111404972653e-06 -1.61372256586111118e-06
4 1 -1.00845187393234904e-06 2.05898235875148917e-06 1.02038319563006708e-06
5 1 9.52588037053844410e-08 -1.09402220555986316e-06 2.09494857219783731e-06
6 1 9.46648258126454929e-07 -1.83543474577642468e-06 -6.75303734870590427e-07
7 1 6.54132839642768222e-07 8.99890506717521321e-07 1.75768494300200306e-06
8 1 -6.92879603453700900e-07 1.84483657613236479e-06 -2.50934798748029326e-07
8
Step 44000
1 1 -1.11179300935703713e-06 -2.50573061960608236e-06 1.23688938699748400e-06
2 1 6.02679574131610375e-07 1.57007726505224078e-06 7.91367494221016188e-07
3 1 2.00997647344918826e-06 1.97783832375714723e-06 -1.47850468921884354e-06
4 1 1.14816414687821862e-07 2.00360831445765535e-06 -9.26086570237572097e-07
5 1 6.15348756748471030e-07 -1.89602693272188976e-06 2.75964049943656064e-06
6 1 2.00306223918673970e-06 -6.89810614407833140e-07 -2.88312114326627986e-07
7 1 1.19522596226502894e-06 -2.07798874305565243e-07 5.47744101739656017e-07
8 1 -5.63736759565626725e-07 7.43002937137580050e-07 -3.07476882821231069e-07
8
Step 45000
1 1 -2.44001616625868357e-07 -1.89552042944864073e-06 -5.63494653018445482e-07
2 1 1.12375711353819108e-06 9.28996578534190535e-07 -1.20260821512476804e-07
3 1 2.24848186823565010e-06 1.24044637260841708e-06 -9.51194386167455725e-07
4 1 1.32567702599185870e-06 8.39060973824453305e-07 -3.04716567545663834e-06
5 1 9.22331205397190535e-07 -1.95832831934809357e-06 2.38118448870037196e-06
6 1 2.18531080270582543e-06 7.08785838114284411e-07 4.39204462103147915e-07
7 1 1.30144921286123001e-06 -1.22729350023557915e-06 -9.99898675418596812e-07
8 1 -1.97729894753719507e-07 -4.16882870058278401e-07 -2.52616670742272216e-07
8
Step 46000
1 1 5.82054772958712706e-07 -9.35199614507668177e-08 -1.91540224490520759e-06
2 1 9.90779071115097908e-07 -2.98455128205250426e-08 -8.12714644845922210e-07
3 1 1.66613765141407726e-06 3.07919904591285473e-07 -3.44907365276990051e-07
4 1 1.97359673205745895e-06 -9.52275468142434651e-07 -4.18281777442752749e-06
5 1 9.51124680522577022e-07 -1.34771132513985248e-06 1.26216626460533949e-06
6 1 1.50661053356368930e-06 1.81136909355524126e-06 9.79732959408138312e-07
7 1 1.07826020103411283e-06 -1.73553707399798635e-06 -2.02475582342205663e-06
8 1 1.67980091430222392e-07 -1.19380793424120035e-06 -2.37889204210302338e-07
8
Step 47000
1 1 8.52696341858237361e-07 2.10054961613839209e-06 -2.09931288681207538e-06
2 1 1.72561479153349726e-07 -8.95085301995158103e-07 -1.01281981007178809e-06
3 1 8.25273452043495360e-07 -6.27149680623935168e-07 1.03166250054297584e-07