8
Step 0
1 1  0.000000000000e+00   0.000000000000e+00   0.000000000000e+00 
2 1  0.000000000000e+00   0.000000000000e+00   0.000000000000e+00 
3 1  0.000000000000e+00   0.000000000000e+00   0.000000000000e+00 
4 1  0.000000000000e+00   0.000000000000e+00   0.000000000000e+00 
5 1  0.000000000000e+00   0.000000000000e+00   0.000000000000e+00 
6 1  0.000000000000e+00   0.000000000000e+00   0.000000000000e+00 
7 1  0.000000000000e+00   0.000000000000e+00   0.000000000000e+00 
8 1  0.000000000000e+00   0.000000000000e+00   0.000000000000e+00 
8
Step 1000
1 1 -2.508510079295e-04  -8.271484540895e-05   3.937674070712e-04 
2 1 -5.475680404650e-05   3.240123933628e-04  -9.852470728152e-05 
3 1  6.538580824263e-06   9.130695869231e-05  -1.240880035287e-04 
4 1 -1.954433166826e-04   8.680008791834e-05   2.263819909357e-04 
5 1 -2.938362416465e-04   2.646382704618e-04  -7.255397002359e-05 
6 1  1.494422396290e-04  -3.983556591788e-04  -2.292550137237e-04 
7 1  2.319440593029e-05   3.262333475590e-04   2.363333716156e-04 
8 1  3.091681723181e-04  -1.380661292906e-04  -1.244780867274e-04 
8
Step 2000
1 1 -1.120491868574e-04   1.204123510638e-04  -2.712373759928e-05 
2 1 -3.202655313693e-04   1.384142508282e-04   2.565283724699e-04 
3 1  1.563020769689e-04  -4.630122847936e-05   1.295641915362e-04 
4 1 -4.293559494792e-06  -1.028514218279e-04   1.416896654397e-05 
5 1 -9.603502692700e-05  -1.274594141725e-04   1.234790447373e-04 
6 1  1.045649869214e-04   2.433287728899e-04  -2.186907643586e-04 
7 1 -6.015469523017e-05  -3.280866311498e-04   4.428887173149e-05 
8 1 -1.003314891484e-04   2.126740206047e-04   2.156737074221e-04 
8
Step 3000
1 1 -2.759899413968e-04  -5.236764039988e-05   2.999619943570e-04 
2 1  9.259131133819e-05   3.979683965771e-04  -2.210496996246e-04 
3 1  4.903484823231e-05  -1.108548031954e-04  -6.983259582386e-05 
4 1  5.489071049758e-05   1.306483423892e-04   1.337783800350e-04 
5 1 -3.307910072938e-04   1.303087830017e-04  -2.017098269647e-04 
6 1  8.024246254865e-05  -3.327160299051e-04  -6.486655663949e-05 
7 1 -2.719506069338e-05   1.916108727800e-04   1.428400437720e-04 
8 1  8.053580876526e-05  -1.369248787387e-04   2.351689046018e-05 
8
Step 4000
1 1  4.895244253248e-05  -1.402949830647e-04  -1.347743143454e-04 
2 1 -1.831163077988e-04   7.253582187067e-05   8.136840067501e-05 
3 1  2.123000587438e-04   1.223987259971e-04   1.219913704208e-06 
4 1 -2.023380347725e-04  -1.831839322133e-04  -1.306669663216e-04 
5 1 -6.942765570985e-05  -1.375499324769e-04   1.337679234134e-04 
6 1  6.126381304209e-05   1.463783407621e-05  -1.199172702416e-04 
7 1  1.127942881979e-04  -1.550767837966e-04   6.916640714377e-05 
8 1 -9.653421566687e-05   2.167057020297e-04  -8.408098291404e-06 
8
Step 5000
1 1 -1.629897726065e-04  -1.128319394201e-05   1.626640285410e-04 
2 1  1.749411255626e-04   2.004984801318e-04  -9.899481079435e-05 
3 1 -2.234567406339e-05  -3.778423882311e-04  -2.421757213649e-04 
4 1  1.324340488393e-04   2.132210203125e-04   3.808077235783e-04 
5 1 -1.038615896881e-04  -5.101608437711e-05  -2.966874105920e-04 
6 1  1.276873128591e-04   8.980744660326e-06   7.204921021800e-05 
7 1 -1.294391853332e-04   9.650949015271e-05  -1.270791482039e-04 
8 1  1.189100462751e-05  -3.461870113723e-05   9.710301587009e-05 
8
Step 6000
1 1  8.799767525400e-05  -2.493450510628e-04  -9.140638635521e-05 
2 1 -1.455492012201e-04   6.471064616299e-05  -2.764163099339e-05 
3 1  9.410191418134e-05   2.918871813383e-04   8.774282668354e-05 
4 1 -1.796671411174e-04  -2.074913302553e-04  -1.024073491157e-04 
5 1 -4.733842386680e-05   1.534467945334e-05   1.935854931014e-04 
6 1  1.542727384702e-04  -1.395594871895e-04  -1.051538384618e-04 
7 1  1.185725399158e-04   8.563862833762e-05   1.019857176191e-04 
8 1 -2.599307297026e-05  -1.127354434236e-04  -1.832803051492e-04 
8
Step 7000
1 1 -1.514667453788e-04   7.234890319970e-06   5.645560632197e-05 
2 1 -2.242444938899e-05   3.013546081447e-05   1.193892019850e-04 
3 1  3.065339949663e-05  -3.221929632548e-04  -2.804839123343e-04 
4 1  1.753163968587e-04   1.302876302173e-04   2.378250246495e-04 
5 1  2.238921387047e-04   1.836368456016e-05  -3.019314336211e-04 
6 1  3.491265954902e-05   2.085912293010e-04   6.566081728760e-05 
7 1 -1.555488673871e-04  -1.808912512578e-04  -1.903487301393e-04 
8 1 -7.978616662328e-05  -6.207254822438e-05   3.072254896979e-04 
8
Step 8000
1 1  8.620146781465e-06  -1.956182197133e-04  -1.359761264216e-05 
2 1  4.396062171853e-05   1.418317137226e-04  -3.053747526437e-04 
3 1  1.624505283238e-04   2.307986253670e-04   1.304696073442e-04 
4 1 -4.428818942728e-05  -2.388739886753e-04   9.786364570122e-06 
5 1 -1.938064373313e-04   1.754688888418e-04   1.095974251811e-04 
6 1  4.995452889038e-05  -4.203851602476e-04  -3.634556558944e-05 
7 1  1.427997684494e-07   1.881194351277e-04   2.302543549518e-04 
8 1  5.604302843990e-05   1.173402720600e-05  -2.018579553969e-04 
8
Step 9000
1 1 -7.812630683480e-05   2.052829422251e-05  -4.742227762731e-05 
2 1 -7.711779066269e-05  -7.782052063342e-05   3.321414382140e-04 
3 1  4.798332562630e-05  -1.902118543145e-04  -1.912520668640e-04 
4 1  8.395750059850e-05   4.183879430132e-05  -5.445409863383e-05 
5 1  4.336511765145e-05  -1.659558697987e-05  -1.083391314396e-04 
6 1 -8.508734244045e-05   2.809707088831e-04   7.965954634884e-05 
7 1  6.695792818309e-05  -2.380595737564e-04  -1.512201763218e-04 
8 1 -2.540807193446e-05   1.057914173326e-04   1.767648865405e-04 
8
Step 10000
1 1 -1.901629650161e-04  -9.388654344983e-06   1.509931126588e-04 
2 1  1.047025345120e-04  -4.908120589618e-07  -1.918771627337e-04 
3 1  1.280950127042e-04   5.259772848111e-05   1.821409784966e-05 
4 1 -1.298076175778e-04  -9.819359271676e-07   3.667219614022e-04 
5 1 -2.534348785132e-04   1.036682396372e-04  -1.336252826253e-04 
6 1  1.068205747246e-04  -2.850771371046e-04   2.684522101034e-08 
7 1  8.132868636812e-05   1.473802868050e-04   1.345556378496e-04 
8 1 -4.112472388687e-05  -3.572388950227e-05  -2.339835039636e-04 
8
Step 11000
1 1  2.115901968238e-04   3.118719818248e-06  -3.711181710153e-04 
2 1 -9.645165649140e-05  -1.275136737205e-05   2.772189796625e-04 
3 1  9.990154347744e-06   9.182142700167e-05  -7.135361481997e-05 
4 1 -1.438900107997e-04  -1.122686356232e-04  -2.992049845400e-04 
5 1  1.519310732623e-04   3.151776206271e-05   5.086339794958e-05 
6 1  2.121919881912e-04   1.480542326151e-04   1.132553055229e-04 
7 1 -2.102676029142e-04  -1.620004169089e-04  -1.604679705537e-04 
8 1 -4.213751644997e-05  -5.925654569395e-05   7.278496090806e-05 
8
Step 12000
1 1 -1.969263818046e-04   3.855641736437e-05   1.489715998398e-04 
2 1  1.404118585058e-04   4.318193127088e-05  -2.193790292828e-04 
3 1  3.631606653250e-05  -1.712617374372e-04  -1.137175570732e-04 
4 1  4.514170125856e-05   8.198455424199e-05   4.187543089837e-04 
5 1  8.600024842647e-05  -4.324788735821e-05  -2.641006171784e-04 
6 1  3.844950675086e-05   2.168877736514e-05   2.425918187401e-05 
7 1 -1.568753294056e-04  -8.609834897399e-05   6.192321762858e-05 
8 1  8.087158740793e-06  -3.041404460872e-05  -3.011690046284e-05 
8
Step 13000
1 1  2.078960638060e-04  -3.070137369557e-05  -2.139111113952e-04 
2 1 -6.509677995300e-05   1.141173497626e-05   1.756870458900e-04 
3 1  9.053193933940e-06   1.499360471058e-04   8.265211563064e-05 
4 1 -5.234647523230e-05  -1.052690785669e-04  -4.156692379916e-04 
5 1  7.881278413673e-05   1.191042943055e-04   2.740870748094e-04 
6 1 -5.770512462540e-05  -1.790328024514e-04   8.852632636121e-05 
7 1  2.025981026595e-06  -3.372693012648e-05  -2.253265691146e-05 
8 1  1.583458419509e-04   4.884887552307e-05  -1.037893489065e-04 
8
Step 14000
1 1 -1.777392530989e-04   1.716903437128e-04   1.270418637459e-04 
2 1  9.929212196868e-05   2.739358433746e-05  -3.571534926989e-05 
3 1  1.522114463002e-05  -2.760845026793e-04  -2.691132865290e-04 
4 1  1.145564369601e-04   3.282960214438e-05   3.274000497991e-04 
5 1 -1.818780091923e-04  -4.260843033472e-05  -2.435156435868e-04 
6 1  4.389896264785e-05   1.563154021738e-04  -4.943003322644e-05 
7 1  3.017987256948e-04   7.408173907923e-05   1.054448906032e-04 
8 1 -1.801100750929e-04   5.735361583129e-05   7.821041400906e-05 
8
Step 15000
1 1  1.119108493754e-04  -1.581227812475e-04  -1.220961132172e-04 
2 1 -1.795965069625e-05  -3.553233028799e-05  -1.463399964903e-04 
3 1  3.760980161876e-05   1.779779917090e-04   3.964040783550e-04 
4 1 -9.949087616699e-05   1.276051642119e-04  -2.410583364298e-04 
5 1 -4.951430235129e-06   2.278470670990e-05   2.567051905162e-04 
6 1  1.033193207779e-04  -2.489857412768e-04   6.019864489079e-05 
7 1 -1.120315549414e-04  -4.634010010356e-06   2.255996169676e-06 
8 1  5.928321506903e-05  -9.626335734399e-05  -7.983890146947e-05 
8
Step 16000
1 1 -6.314051395419e-05   2.277088362084e-04   5.513148962395e-05 
2 1 -7.915786795058e-06   2.318669713980e-05   2.272826389961e-04 
3 1  7.397089115561e-05  -1.171741982888e-04  -3.217432160645e-04 
4 1  7.584799444740e-05   1.350898534642e-05   1.412736003235e-04 
5 1 -2.217809481202e-05  -8.998489775136e-05  -1.534302594415e-04 
6 1  7.204159893055e-05   2.057751472151e-04   1.760768342063e-05 
7 1  5.358696698964e-05  -9.671008626176e-07  -1.089330727622e-04 
8 1 -8.901515020251e-05   1.281345145906e-04   3.245503272721e-04 
8
Step 17000
1 1  2.833155688212e-05  -1.382234765354e-04  -2.059695122614e-05 
2 1  1.713957001548e-04  -3.647371694265e-05  -3.505453914468e-04 
3 1 -2.047035395714e-05   7.530634761943e-05   2.606979504574e-04 
4 1 -1.753359355596e-04   1.232225408586e-04  -1.462171751885e-05 
5 1  7.535570740589e-05  -1.023734091733e-04   1.453136870706e-04 
6 1 -9.329187913477e-05  -7.398039838535e-05   7.347363444995e-05 
7 1 -3.864502317989e-05   9.096865803891e-05  -4.816204933960e-05 
8 1  1.731671767358e-04  -2.139202106076e-05  -7.034163670489e-05 
8
Step 18000
1 1  7.655668590384e-05   2.309389479794e-04  -3.587575358073e-05 
2 1 -1.171993683825e-04   4.730479304284e-05   3.175015348881e-04 
3 1 -6.136922341581e-05  -1.470061410285e-04  -1.591965469427e-04 
4 1  5.228525209107e-05  -1.001956506336e-04  -7.455077649450e-05 
5 1  5.984708886093e-05   9.349336699429e-05   2.728849361674e-05 
6 1  2.156170645479e-05   1.312556808481e-04   8.771494377312e-05 
7 1  1.857285105643e-04  -1.369121162165e-04  -5.812569553048e-05 
8 1 -1.258850525173e-04   1.177672226491e-04   1.822207577485e-04 
8
Step 19000
1 1 -1.683066320985e-04  -9.508817440309e-05   1.308865703386e-04 
2 1  1.881905209363e-04  -7.815459208655e-05  -3.024530722806e-04 
3 1 -5.112101943016e-05  -7.814681858214e-07  -9.287965318671e-06 
4 1 -1.127224875946e-04   1.399798037371e-04   2.298903830074e-04 
5 1  9.964722397797e-05  -2.321478345182e-05  -3.939940904417e-05 
6 1 -3.202524066536e-05  -1.452760647607e-04  -5.277311347397e-05 
7 1 -2.011320206082e-04   1.159904405309e-04   1.555929322327e-04 
8 1 -7.021245511073e-05  -1.649897070268e-04  -6.967311755638e-05 
8
Step 20000
1 1  2.281550136033e-04  -6.220177152850e-06  -1.621589597250e-04 
2 1 -1.707853552378e-04  -8.080200809780e-05   2.981846079867e-04 
3 1 -3.642626474618e-05  -8.094387424729e-06   7.640311921047e-05 
4 1  1.634128345451e-05  -1.355911619127e-04  -2.439480997282e-04 
5 1 -1.260939867543e-04   1.489187521669e-04   1.257654956982e-04 
6 1  1.158867653866e-04  -1.354813381063e-05   1.099892784396e-05 
7 1 -4.044837376880e-05  -1.012350702571e-04  -6.477185019134e-05 
8 1 -5.918195295962e-05   2.263186277847e-04   1.259489883163e-04 
8
Step 21000
1 1 -2.898544794596e-04   7.545702346875e-05   2.653926638851e-04 
2 1  1.794288347164e-04  -3.224385276322e-05  -1.909652286453e-04 
3 1 -2.068050692663e-05  -9.183939607987e-05  -1.223701487389e-04 
4 1  4.353562451288e-05   4.974693879725e-05   3.238808603440e-04 
5 1  4.467411472559e-05  -1.499417398678e-04  -1.469342306826e-04 
6 1 -4.068423619520e-04   1.180148058426e-04  -1.353591534814e-04 
7 1 -3.412597349656e-05   2.050415184054e-04   1.029896191735e-05 
8 1  7.069968566993e-05  -1.196178094081e-04  -1.421638946440e-05 
8
Step 22000
1 1  2.380423022561e-04  -5.925004971516e-05  -2.116806679832e-04 
2 1 -1.029878850659e-04  -2.523167345050e-05   4.171439311803e-05 
3 1 -2.395156035247e-05   5.940020022498e-05   2.714016087538e-04 
4 1 -6.449050221893e-05  -6.637820588003e-05  -3.601040453647e-04 
5 1 -1.734628099952e-04  -1.598625524631e-05   1.528522706573e-04 
6 1  1.377780677512e-04  -6.083588775840e-05   1.735189869610e-04 
7 1  6.113225304661e-05  -8.913537701293e-05  -1.052658925538e-04 
8 1 -1.771175221905e-04   3.213557957554e-05  -1.692759830757e-05 
8
Step 23000
1 1 -1.892525866128e-04   1.440559131611e-04   2.322944559150e-04 
2 1  1.578688158066e-04  -1.078777679891e-06  -8.072189401189e-05 
3 1 -2.027984814297e-06  -2.538883709083e-04  -3.560033404103e-04 
4 1  9.831558362634e-05   1.337575344672e-06   2.894100349758e-04 
5 1  4.500112723607e-05   6.341137934417e-05  -1.107024612399e-04 
6 1  1.525641582638e-05   1.705470865690e-04  -2.071978642797e-04 
7 1 -6.807950804345e-05   6.003060502235e-05   7.439437233183e-05 
8 1 -3.741645304694e-05  -2.526132839897e-05   1.162046086493e-04 
8
Step 24000
1 1  1.958261639440e-04  -1.985199338028e-04  -1.572705166150e-04 
2 1 -1.294262980545e-05  -4.621283862401e-05  -1.174227631297e-04 
3 1 -7.589642934219e-05   1.752981398191e-04   2.876137734369e-04 
4 1 -8.971118877777e-05   2.042838446498e-04  -2.740292945279e-04 
5 1 -6.170389210690e-05   5.028197657769e-05   2.100940307099e-04 
6 1  3.965330195518e-05  -1.718338004437e-04  -6.195184343329e-06 
7 1 -2.152032941532e-04  -1.181084518947e-05   5.950832295548e-05 
8 1 -1.161261900841e-04  -6.538057096721e-05  -2.504340952203e-04 
8
Step 25000
1 1 -4.080128739371e-05   1.097494508139e-04   1.002645514621e-04 
2 1 -1.488750568278e-05   1.410970991467e-04   2.218101112423e-04 
3 1 -2.691332577622e-05  -1.848820439279e-04  -2.813944889860e-04 
4 1  7.953113916611e-05  -6.280870955907e-05   8.229567665361e-05 
5 1  3.572103643701e-04  -1.027833289678e-04  -2.014306872480e-04 
6 1 -1.875539747030e-04   1.866111317605e-04  -1.350883193109e-04 
7 1  3.397026353534e-05   1.925560503898e-04   2.623583512715e-05 
8 1  1.413091042412e-04   4.367496022620e-05   1.120415377950e-04 
8
Step 26000
1 1  6.132313917618e-06  -1.419266108139e-04   2.217923824177e-05 
2 1  1.042561690981e-04  -1.151668717891e-04  -1.984354563232e-04 
3 1  1.300718026545e-07   2.038684055261e-04   1.603870151899e-04 
4 1 -5.637506949326e-05   1.765228573036e-04  -7.271399823381e-07 
5 1 -9.050940845307e-05  -1.136509988159e-04   2.677443604482e-04 
6 1 -1.545561008945e-04  -7.899144427499e-05   2.295492288850e-05 
7 1  1.114375012722e-04  -4.909679800094e-05  -1.443746887824e-05 
8 1 -1.467014018023e-05  -8.097802479748e-05  -1.738955319334e-04 
8
Step 27000
1 1  5.982111636138e-05   8.654101781250e-05  -4.408548947955e-05 
2 1 -8.538629532952e-05   1.536743438651e-04   3.094353509577e-04 
3 1 -2.761186852709e-05  -1.768395592519e-04  -1.196314666589e-04 
4 1  5.703876563001e-05  -1.682603900578e-04  -1.391341908600e-04 
5 1 -6.037160856898e-05   1.345398270973e-04  -1.377879331958e-04 
6 1  4.156718518225e-05   2.304747825850e-04  -3.074048481945e-05 
7 1 -1.363236898920e-05   7.082821540896e-05  -6.750570300720e-05 
8 1  4.755107499714e-05   8.895560757331e-05   4.255240682718e-04 
8
Step 28000
1 1 -1.636566525929e-04  -4.158186741763e-05   2.197964855470e-04 
2 1  1.139560994644e-04  -1.032138855331e-04  -1.759197199220e-04 
3 1 -1.916989245763e-05   9.347859431447e-05  -1.932300963764e-05 
4 1 -6.566811674726e-05   6.219229140285e-05   2.743791507117e-04 
5 1 -1.093970716410e-04  -2.203152631528e-05  -3.258113906513e-05 
6 1  1.756912381905e-04  -3.126803448023e-06  -9.100348862194e-07 
7 1 -2.422761160980e-05  -2.091881271561e-04   3.792505039572e-05 
8 1  4.659188112899e-05   6.858575500083e-05  -1.851345720051e-04 
8
Step 29000
1 1  1.750028422039e-04  -3.264815188984e-07  -2.036488071266e-04 
2 1 -8.188341148799e-05   1.361842672743e-04   2.617738248556e-04 
3 1 -8.170745062533e-05  -1.682938960811e-04   2.548987638213e-04 
4 1 -6.458887523716e-06   2.435818734847e-05  -2.946841961465e-04 
5 1 -2.702295708977e-05   1.088010975956e-05   1.096884567180e-04 
6 1 -3.992686619567e-05   9.074347281720e-05  -8.004596093333e-05 
7 1 -1.354361458133e-04   2.136895851001e-04  -3.943764153819e-05 
8 1  1.211960557727e-04  -8.677529779398e-06   4.506075698351e-05 
8
Step 30000
1 1 -1.663284948387e-04   1.669460003137e-05   2.113175345533e-04 
2 1  2.086276914591e-04   7.629903824789e-06  -2.474561693005e-04 
3 1 -3.181185297327e-05  -3.664371942961e-06  -1.479023180554e-04 
4 1 -6.614444344846e-05  -1.624020018810e-05   2.347701328727e-04 
5 1  9.595964082749e-05  -1.680918012489e-04   1.398115666390e-06 
6 1 -4.761721498033e-05   1.488603713644e-04  -6.225866262791e-05 
7 1  8.264910895269e-05  -8.284513514909e-05   2.072582033687e-05 
8 1  7.680867926542e-05  -1.168908400596e-04  -1.231084443499e-04 
8
Step 31000
1 1  2.098141336392e-04  -3.909246129241e-05  -2.687791533388e-04 
2 1 -9.649034927160e-05  -3.675868128293e-05   2.651891494777e-04 
3 1 -6.578251960665e-05  -1.162406261939e-04   2.787963849878e-04 
4 1  4.786562618216e-06   1.418306249556e-04  -1.277779219503e-04 
5 1 -2.203928701723e-04   1.627412645064e-05   1.592101877853e-04 
6 1  1.514774680284e-05   1.274339705642e-04   1.320655014189e-05 
7 1 -5.560794468213e-05  -1.631385166126e-04  -7.468767619318e-05 
8 1 -6.834149628297e-05   1.249999884589e-04   4.977123160210e-05 
8
Step 32000
1 1 -1.543697222421e-04   4.879113678956e-05   2.357293622423e-04 
2 1  9.588249135455e-05   1.637950111643e-04  -4.341082416269e-05 
3 1 -3.514744065451e-05  -6.450713930338e-05  -2.824673130679e-04 
4 1  1.028978176843e-04  -2.304063312053e-04   2.073289563389e-04 
5 1  5.985861606828e-05   6.096107922690e-05  -2.317402681783e-04 
6 1  8.941925385363e-05   2.280234546900e-04  -1.329229574799e-04 
7 1 -5.473182825614e-05  -1.692740495658e-04   2.162768160990e-05 
8 1 -6.824869632587e-06   5.965781793930e-06   2.600791798122e-05 
8
Step 33000
1 1  8.229715152255e-05  -9.278170550928e-05  -1.376305833231e-04 
2 1 -2.761578495976e-05  -1.979829381183e-04   6.392460842683e-05 
3 1  2.761827514689e-05   7.378561001922e-05   2.461710315795e-04 
4 1  2.274938069288e-06   1.899953782259e-04   2.229697263286e-05 
5 1 -9.649122341902e-05  -1.142585701640e-04   2.914041482279e-04 
6 1 -1.251703545094e-04  -6.333071674611e-05   4.612791747488e-05 
7 1  7.836588368135e-05  -1.002101190273e-05   1.916769205924e-05 
8 1  2.833081628069e-05  -8.606718069178e-05  -1.972967434448e-04 
8
Step 34000
1 1 -1.217883580994e-04   4.189174900057e-05   1.388342821674e-04 
2 1  1.063208742324e-04   2.007373772626e-04   3.318988325651e-05 
3 1  6.581436191719e-06  -2.031843221870e-04  -2.064920714474e-04 
4 1  9.272690265358e-05  -3.863495949950e-04  -7.504151178356e-06 
5 1 -1.083137257249e-05   2.177664915332e-04  -1.035794749455e-04 
6 1 -1.084679363127e-05   1.587146019012e-04   4.372286928686e-05 
7 1 -4.742472030355e-05   2.675363766154e-04   1.602935848215e-05 
8 1  1.529438654459e-04  -2.773505327626e-05   1.547920703892e-04 
8
Step 35000
1 1 -1.831221144039e-05  -4.231697410191e-05  -2.556157204807e-05 
2 1  1.002354071354e-04  -2.520447361829e-04  -1.452298425240e-04 
3 1  4.239695216253e-05   1.701369935699e-04   1.992151526180e-04 
4 1 -2.111236672319e-05   3.960730002169e-04   3.751692668793e-05 
5 1 -1.037878240055e-04  -3.005185115457e-04   6.945086106805e-05 
6 1 -1.494711609597e-04  -6.620563573432e-05   6.750001582877e-05 
7 1  1.945795953046e-04  -2.064749341911e-04   1.581878675819e-05 
8 1 -1.633916840408e-04  -8.692924320508e-05  -1.904666302039e-04 
8
Step 36000
1 1  8.919389069233e-05   1.253354237598e-05  -1.298937844892e-04 
2 1  1.051614725375e-04   2.103790711313e-04   1.226719026555e-04 
3 1 -9.712890323735e-05  -1.409042229430e-04  -6.435433556852e-05 
4 1  3.932188095040e-05  -3.726853508049e-04  -1.239704795946e-04 
5 1 -6.110042954234e-05   2.484211246564e-04   1.384344824318e-04 
6 1  1.333407899676e-04   2.001049506487e-04  -1.380944611294e-04 
7 1  2.065461779468e-04   7.112781115146e-05   6.479623008384e-05 
8 1 -2.970296724683e-05   8.429675551713e-05   3.335400880257e-04 
8
Step 37000
1 1 -1.136226003369e-04  -3.627610464966e-05   1.076205457460e-04 
2 1  3.619369030458e-05  -1.112394704418e-04  -1.577700155799e-04 
3 1  1.975665226274e-04   1.499448906573e-04   1.176856769985e-06 
4 1 -1.303498815339e-04   1.907586049512e-04   9.800686265542e-05 
5 1  1.067555067056e-04  -7.887333570312e-05  -8.457313396168e-05 
6 1  1.410957959818e-04  -2.300214124812e-04   1.691008378545e-04 
7 1 -1.523847036109e-04  -1.047968879983e-04  -1.334404612674e-05 
8 1  7.607198961378e-05  -2.618599182387e-05  -1.249079181443e-04 
8
Step 38000
1 1  1.791575860403e-04   2.401784943698e-05  -2.884011402930e-04 
2 1 -2.240654996443e-05   6.727484884237e-05   2.357370774608e-04 
3 1 -1.996898556206e-04  -1.522011268718e-04   2.141732020868e-05 
4 1 -3.143723405099e-05  -1.693952405701e-04  -1.705748457019e-04 
5 1 -7.167581667352e-05   1.173525751872e-08   2.438559740121e-04 
6 1  4.298082143353e-05   1.503190968782e-04  -3.789296307194e-04 
7 1  1.061692256086e-04   2.962440942591e-04   2.711225412222e-04 
8 1  2.502502592070e-04   1.381241899396e-05   1.092101142169e-04 
8
Step 39000
1 1 -2.216038531916e-04  -3.692197385940e-05   3.083511408828e-04 
2 1  1.009561368725e-04   7.387625763971e-05  -1.751052433302e-04 
3 1  1.351113579751e-04   1.072352948229e-05  -1.338829549417e-04 
4 1 -1.476196667418e-04  -2.888853631208e-05   1.604935637312e-04 
5 1  2.222968929534e-04   1.757679726671e-04  -2.820427342795e-04 
6 1 -5.450094156339e-06  -5.383186027395e-05   1.458681705625e-04 
7 1 -1.374361060715e-04   3.244700304232e-06   7.610776466550e-05 
8 1  5.166139217238e-05  -1.481858540424e-04  -1.839694255977e-04 
8
Step 40000
1 1  1.543699137492e-04   1.331281915898e-05  -3.457347661155e-04 
2 1 -7.753067735931e-05  -1.420125065522e-04   2.508691394374e-04 
3 1 -2.576560394191e-04   3.954073943160e-05   2.043175555730e-04 
4 1 -5.315681321140e-05   1.462510085127e-04  -9.581133218134e-05 
5 1 -2.046072149580e-05  -9.057802192009e-05   2.255645617828e-04 
6 1  8.968073382893e-06  -3.249656803007e-05  -1.611792162419e-04 
7 1  1.496999167266e-04   1.526260128640e-04   2.405221725368e-05 
8 1  8.802921295223e-06   4.116438945180e-05   1.735535773794e-04 
8
Step 41000
1 1 -1.538773305027e-04  -2.624181601145e-05   2.409486848741e-04 
2 1  6.137861143382e-05   1.868978516772e-04  -1.207325165392e-04 
3 1 -2.328637661671e-05  -1.086262829312e-04  -1.890541936281e-04 
4 1 -3.718931612014e-05  -2.518908867537e-04   7.247713147257e-05 
5 1  9.546222543926e-05   2.171928288295e-04  -2.260482400044e-04 
6 1  2.554417999566e-05   5.751089172256e-05   1.009261000916e-04 
7 1  7.796449874100e-05  -1.386866778833e-05   3.601811495564e-05 
8 1 -4.924580333124e-05   1.157651569435e-04  -1.735369657887e-05 
8
Step 42000
1 1  2.041846303196e-05   1.834759178312e-04  -4.594356575649e-04 
2 1 -5.185913590607e-07  -2.526304964892e-04   6.629885556395e-05 
3 1 -3.969251277075e-05   1.360795798366e-04   1.629987344819e-04 
4 1 -2.268472945432e-05   2.100304047698e-04  -1.722666500417e-05 
5 1 -1.474333654176e-04  -1.216628045417e-04   2.718004827742e-04 
6 1  6.263086184031e-05  -1.570139558442e-04  -1.713025455946e-04 
7 1 -1.672898538823e-04   1.007647972322e-04  -1.639234988648e-04 
8 1  5.033016145670e-05   6.436286537339e-05   2.904799643681e-05 
8
Step 43000
1 1 -6.060887046665e-05  -1.662669342850e-06   1.316525828686e-04 
2 1  1.150035706848e-06   2.145547306945e-04  -3.121086874448e-05 
3 1 -1.329601963846e-04  -3.946781499705e-04  -1.959352482246e-04 
4 1  3.843308680067e-05  -2.840936461374e-04  -7.796172643360e-05 
5 1  1.055059817903e-05   2.890616435486e-04  -1.434710638007e-04 
6 1  5.964656291106e-05   1.029124690598e-04   5.472621690093e-05 
7 1 -1.058188149989e-04   5.763905703170e-05   9.407772169735e-05 
8 1  7.054064791251e-05   5.000208236517e-06   6.734281499012e-06 
8
Step 44000
1 1 -6.589707401346e-05   6.884651279034e-05  -1.280340404407e-04 
2 1  1.329822071545e-04  -2.032444564209e-04  -7.086259260657e-05 
3 1 -9.031520151907e-05   2.647385956062e-05   1.535435953825e-04 
4 1  2.207481697934e-05   3.359702646550e-04   9.283723052744e-05 
5 1 -7.953813705896e-05   4.672832218434e-06   9.466008542226e-05 
6 1  2.205232030634e-05  -1.765734904363e-04   8.097127345867e-05 
7 1 -3.736895465281e-04  -7.871460730895e-05  -6.515934690990e-05 
8 1  2.408617314153e-04  -4.249445907216e-05  -9.054812714667e-05 
8
Step 45000
1 1  5.064261384519e-05   5.782415745632e-06  -2.797344401743e-05 
2 1 -8.375208317411e-05   2.055686983839e-04   1.353092594220e-04 
3 1 -1.647080310755e-04  -2.477236727672e-04   1.904579249224e-07 
4 1 -3.275250582436e-05  -1.238632001695e-04  -1.970904794933e-04 
5 1  1.567020284971e-05   4.488066177533e-05  -1.205118995248e-04 
6 1 -6.458338203906e-06   2.259448565997e-05  -3.009481314750e-04 
7 1  1.264801638840e-04   1.120280075413e-04   3.782808210447e-04 
8 1  3.302136209344e-05   1.035845675438e-05   3.631936886501e-05 
8
Step 46000
1 1 -1.680053681174e-04  -7.333962629060e-05   3.946138754621e-05 
2 1  1.308636764728e-04  -1.051739804131e-04  -1.551441730679e-04 
3 1  2.639342015674e-05   9.125908379521e-05   1.343548082057e-04 
4 1  1.211512118843e-04   8.267974202963e-05   7.324312561144e-06 
5 1  6.510340226222e-06  -1.117993649408e-04  -1.360575254325e-05 
6 1 -8.189053372743e-05  -8.780924760135e-05   9.554487165507e-05 
7 1 -2.429625871304e-04  -7.142624650731e-05   6.861160694611e-05 
8 1 -1.709801275336e-06   2.628141447797e-05  -4.602197895599e-04 
8
Step 47000
1 1  1.382894569182e-04   9.261264534427e-05  -2.138089013055e-04 
2 1 -1.480038142953e-04   1.408294131669e-04   2.809583348336e-04 
3 1 -7.357573850410e-05  -1.458286108818e-04   7.073659113611e-05 
4 1 -9.558821591047e-05  -1.276859527029e-04  -1.761949838178e-04 
5 1  1.991427100517e-04  -1.147288372670e-04  -2.470934119526e-05 
6 1  6.200018557944e-06   3.283106830547e-05  -1.189268306582e-04 
7 1 -6.388840959809e-05   9.998542713108e-05   5.067939909891e-05 
8 1  1.863091262317e-04   4.548317762616e-06   1.784385002720e-04 
8
Step 48000
1 1 -2.886177358929e-04  -2.050312882597e-04   2.837362617418e-04 
2 1  1.208479386624e-04   4.281264904782e-05  -1.208050540819e-04 
3 1  2.306244880826e-04   1.066872620706e-06   1.027853130706e-04 
4 1  1.030643324020e-04   5.832140292219e-06   5.480002424069e-05 
5 1 -2.543594421322e-04   3.129791276418e-05  -1.071579502663e-04 
6 1 -1.941976125497e-04  -2.544733124946e-05   1.617864331522e-04 
7 1  2.115613751021e-05   6.687845163850e-05   1.525901280107e-04 
8 1  9.277528984738e-05  -1.325416952217e-04  -2.897459793746e-04 
8
Step 49000
1 1  7.839456418730e-05   6.989723380254e-05  -8.935442480760e-05 
2 1 -1.813684901298e-04  -8.835494890168e-05   1.244374735172e-04 
3 1  5.798204006746e-06  -4.519423866310e-05   2.186587458818e-04 
4 1 -2.541208180193e-04   1.658672363928e-04  -1.762861207041e-04 
5 1  1.916924071999e-04   1.512578455838e-04   3.797006003798e-05 
6 1  4.521881370992e-05  -1.277380124388e-04   1.047716579444e-04 
7 1  8.537045699364e-06   4.202759038015e-05  -1.904218703645e-04 
8 1  9.289211992589e-06   6.959056815057e-05   1.563073779426e-04 
8
Step 50000
1 1 -1.500505541554e-04  -1.942775091577e-04   2.019890170530e-04 
2 1  1.129991999139e-04   1.745011668861e-04  -9.937024208881e-05 
3 1  1.326848518351e-04  -1.527208632005e-05  -3.595590508463e-05 
4 1 -4.347268522971e-05  -5.841202404974e-05  -8.550518391451e-05 
5 1 -9.296000881424e-05  -2.351338361885e-04  -5.667315247560e-05 
6 1  2.486206278105e-05  -2.091978130787e-04   1.923170147819e-05 
7 1 -5.095198898143e-06   2.081677643569e-04   2.160900835999e-05 
8 1  2.053615658840e-05  -8.356609737794e-06  -3.178221560259e-05 
8
Step 51000
1 1  2.883836587622e-05   2.115523914338e-04  -1.371098564287e-04 
2 1 -7.400049579332e-05  -1.184263071227e-04  -7.181200763488e-06 
3 1  5.975599305717e-05   1.402894995884e-04   4.493610803555e-04 
4 1 -1.091116917627e-04   8.336195612170e-05  -3.854591400751e-05 
5 1  1.374023519194e-04  -8.136719410094e-05  -1.381989244836e-04 
6 1  6.061417602791e-05  -4.851127734511e-05   2.644521245579e-04 
7 1 -2.509586497425e-04   8.346708472764e-05  -2.235274979205e-05 
8 1  3.879620674274e-05   3.115959476526e-05  -1.337840436081e-04 
8
Step 52000
1 1 -2.692491718549e-05  -1.880433935187e-04   4.512599284613e-05 
2 1  3.891618441735e-06   2.510635595463e-04  -2.683101017939e-05 
3 1 -3.035978003363e-05   5.410443888873e-05   2.613120711404e-05 
4 1 -7.782910304467e-05  -5.329066475528e-05  -1.913511674706e-04 
5 1  5.128217564770e-06  -4.295999757435e-05  -7.073813831717e-05 
6 1 -1.306305207553e-04  -3.338407771072e-05   1.856493557826e-05 
7 1  2.204555593964e-04   1.093280007225e-04  -1.535137548193e-04 
8 1  8.477504270680e-05  -8.868542353829e-05   1.609091882633e-04 
8
Step 53000
1 1 -4.236944209969e-05   7.753276081227e-05  -1.086705375765e-04 
2 1 -4.119132421535e-05  -1.865608879416e-04  -5.806479906755e-05 
3 1 -3.134782393353e-05   2.318640921735e-06   2.187790300227e-04 
4 1 -3.285012423667e-05   3.315354531652e-04   1.967476577015e-04 
5 1 -3.776473051278e-05   8.391322725545e-05  -3.578676963775e-05 
6 1  5.378372714057e-05  -1.358386397504e-05   1.676430002732e-04 
7 1  2.913652096989e-05  -1.412000140805e-04  -5.575130052579e-05 
8 1 -7.579146739746e-05   3.057493681494e-05  -2.114717364100e-04 
8
Step 54000
1 1  9.655712087969e-05  -9.550743376201e-05  -4.061908551521e-05 
2 1  5.642747331956e-05   1.187828881747e-04   1.398438645979e-04 
3 1 -1.726292477690e-04   1.076221243501e-04   2.992394224762e-05 
4 1 -1.837985531862e-04  -1.115818045206e-04  -3.310663651400e-04 
5 1 -2.007564996164e-04  -1.198354828095e-04   1.312646937579e-04 