8
Step 0
1 1  0.000000000000e+00   0.000000000000e+00   0.000000000000e+00 
2 1  0.000000000000e+00   0.000000000000e+00   0.000000000000e+00 
3 1  0.000000000000e+00   0.000000000000e+00   0.000000000000e+00 
4 1  0.000000000000e+00   0.000000000000e+00   0.000000000000e+00 
5 1  0.000000000000e+00   0.000000000000e+00   0.000000000000e+00 
6 1  0.000000000000e+00   0.000000000000e+00   0.000000000000e+00 
7 1  0.000000000000e+00   0.000000000000e+00   0.000000000000e+00 
8 1  0.000000000000e+00   0.000000000000e+00   0.000000000000e+00 
8
Step 1000
1 1  1.998480679704e-04  -3.029173695183e-05  -1.034356317292e-04 
2 1  1.927211813490e-04  -2.267386199602e-04  -1.980279934785e-04 
3 1 -1.110938826490e-04   7.150951314630e-05   4.795389114688e-05 
4 1  7.063476832763e-05   5.935353610434e-05  -1.773125411966e-04 
5 1  7.956654785276e-05   5.519563088888e-05   1.270803627791e-05 
6 1 -7.069003257886e-05  -3.285085711302e-05   2.171386075173e-04 
7 1 -5.677991204472e-06  -9.572069159140e-05  -2.634001798404e-05 
8 1 -2.749999158027e-05  -2.231110236366e-04  -1.325078577159e-04 
8
Step 2000
1 1  2.152526411905e-04   5.843237021043e-05  -2.400578286466e-04 
2 1  1.253224493902e-04  -2.926509758389e-04  -1.387617393698e-06 
3 1 -1.455910710672e-04  -1.008487318322e-04   1.053852407053e-04 
4 1  6.897829335408e-05  -1.169390682785e-04  -9.634682526163e-05 
5 1  3.236571068428e-04  -6.699102340194e-05  -2.932503888307e-05 
6 1  1.132147367416e-04   2.286872731877e-04   7.715797381837e-05 
7 1 -1.972025861794e-06   8.844422436090e-05  -2.160937752797e-04 
8 1 -4.010672392329e-05   1.441556457798e-05   1.831642218515e-06 
8
Step 3000
1 1  4.804109139776e-05   3.636737947502e-05  -7.875764079182e-05 
2 1  1.883406712167e-04  -1.375722828817e-04  -1.856972944301e-04 
3 1  3.749324421386e-05   1.895711782458e-04   6.234229522261e-05 
4 1  1.292829105859e-04   1.883679395951e-04  -4.017428679855e-05 
5 1 -5.726386807831e-06   2.145136960800e-04   1.519530677669e-05 
6 1 -2.445283531295e-04  -1.903768734780e-04   1.112835017028e-04 
7 1 -5.550844284368e-05  -1.923371745311e-04   1.528369439879e-04 
8 1 -3.228618536623e-05  -1.486848921559e-04  -2.369637081849e-04 
8
Step 4000
1 1  2.635914745169e-04  -1.307716164371e-04  -1.815432005409e-04 
2 1  5.418124881210e-05  -2.895170897616e-04   2.171641618747e-04 
3 1 -1.028123688348e-04  -5.052470220878e-05   1.810466589550e-04 
4 1 -2.607777618843e-05  -1.253780821294e-04  -3.090637624761e-04 
5 1  1.739059090410e-04  -5.812893726389e-05   1.006254144604e-04 
6 1  4.269416575590e-05   1.025122524666e-04   1.293507391984e-04 
7 1  4.222400701715e-05   9.624798514458e-05  -2.690797519943e-05 
8 1  3.458378525901e-05   1.689099029187e-04   6.237979465113e-05 
8
Step 5000
1 1 -4.804226591658e-05   1.788958682554e-04   2.333252562255e-05 
2 1  1.256337591420e-04   1.042612934980e-04  -2.177616500849e-04 
3 1 -2.043695685658e-05   1.122029145823e-04  -5.156284963388e-05 
4 1 -4.117647167008e-05   1.270126759363e-04   7.950071752046e-05 
5 1 -2.668758650873e-05   2.935654656024e-05  -8.699966808712e-06 
6 1 -1.179275298370e-04  -3.388407961497e-05  -1.205923520897e-05 
7 1 -9.711343844401e-05   2.607449222558e-05   3.206063840127e-06 
8 1 -3.465356025715e-05  -8.263900515973e-05  -7.375378356873e-05 
8
Step 6000
1 1  1.810753700706e-04  -6.052810137952e-05  -5.813141764054e-05 
2 1  3.854559239794e-05  -2.351643498687e-04   8.677172706079e-05 
3 1 -1.288627311566e-04   1.317825093643e-05   2.209983481388e-04 
4 1 -9.989489871933e-05  -1.541304184670e-05  -1.450674281944e-04 
5 1  5.857722069678e-05  -5.615799681093e-05   1.603305191862e-04 
6 1  7.095023685407e-05  -6.448369864430e-06   1.568616992935e-04 
7 1  8.127187088360e-05   3.428726449212e-05   7.236346161626e-05 
8 1  6.775473893758e-05   9.019086560534e-05  -7.696964392429e-05 
8
Step 7000
1 1 -1.237855377699e-04   3.479735877991e-04   5.795456213926e-05 
2 1 -3.414494567453e-05   9.699408599374e-05  -1.054411085598e-04 
3 1 -1.472573165980e-04  -5.912545708666e-05  -1.052342170108e-04 
4 1  9.053264515479e-06   5.414519685864e-05   4.063779731160e-05 
5 1  1.640066815854e-04  -3.277383918424e-05  -2.884175891156e-05 
6 1  3.177863890737e-05   2.215548662022e-04  -2.090381100276e-04 
7 1 -2.181468673585e-04   1.423991197982e-04  -1.177072928996e-04 
8 1 -5.748910799027e-05  -9.246430383123e-05   1.154739566295e-04 
8
Step 8000
1 1  1.841259173762e-04  -1.870921894832e-04  -4.714107516851e-05 
2 1  3.459749352337e-05  -1.551274119526e-04  -1.578406747066e-06 
3 1  4.057306757747e-05   1.777041697747e-04   2.586848281417e-04 
4 1  3.414060638623e-05   1.424993897018e-04  -7.664879182295e-05 
5 1 -2.042438983122e-05   1.273058761088e-04   1.491483694094e-04 
6 1 -1.734365594443e-04  -1.761255953121e-04   6.332557403430e-05 
7 1 -7.963958439488e-05  -1.702796861409e-04   1.333048530717e-04 
8 1  2.126574480220e-04  -1.738771240319e-05  -1.214472168103e-04 
8
Step 9000
1 1 -9.214209616139e-05   3.152761405347e-04   9.785942890387e-05 
2 1 -8.063405161937e-05   1.262133487231e-04   5.836811937509e-05 
3 1 -1.226811629553e-04  -1.972277529444e-04  -1.294147844346e-04 
4 1 -1.821251113333e-05  -1.370664690808e-04  -1.061098900022e-04 
5 1  5.783041348294e-05  -1.173591080213e-04  -2.067549299404e-05 
6 1 -3.880859924596e-07   1.888515635478e-04  -1.902265935151e-04 
7 1  7.902676762976e-06   1.644358957901e-04  -6.570846285181e-05 
8 1  5.258253524698e-05   1.529836683492e-04   2.174818531313e-04 
8
Step 10000
1 1  1.733363536943e-04  -1.526315028633e-04  -2.871032102239e-05 
2 1  1.220601627809e-04  -5.154433944736e-05  -1.516865476820e-04 
3 1  7.516737892803e-05   1.655682385678e-04   1.305395532512e-04 
4 1  2.296837135906e-05   2.624028547551e-04   4.413225434670e-05 
5 1 -1.409496971836e-04   1.058958057771e-04   1.163740066665e-04 
6 1 -6.743830526321e-05  -9.022973832425e-05   4.266164540911e-05 
7 1  9.422081699841e-05  -8.333974027832e-05   9.198667710369e-05 
8 1 -3.910703554365e-05  -1.327039798918e-04  -2.962271517617e-04 
8
Step 11000
1 1 -1.834222501158e-05   9.056683793250e-05   4.004834567067e-05 
2 1 -1.793537905900e-04  -1.505203751797e-04   2.789207689342e-04 
3 1 -1.514991702089e-04  -1.419164084745e-04   3.196357158945e-05 
4 1 -1.028001384089e-04  -2.811124774670e-04  -1.020106250818e-04 
5 1  1.067008343400e-04  -2.518832774014e-04  -1.240899958855e-04 
6 1  1.075643291578e-04   1.357010391209e-04  -6.572958671140e-05 
7 1  1.342539861406e-04   2.305934283598e-04  -7.357731893171e-05 
8 1 -1.134568659278e-04   1.150673630805e-04   3.031353932170e-04 
8
Step 12000
1 1 -7.538119932147e-05  -6.388661616868e-05   1.518026857986e-04 
2 1  1.280090413734e-04   1.418453969803e-04  -3.349818257261e-04 
3 1  7.584278526802e-05   2.263673436848e-04  -9.888994395592e-06 
4 1  7.379103257446e-05   2.150430737237e-04   7.873666836736e-05 
5 1  6.622808556406e-05   2.111944074855e-04   1.201708398497e-04 
6 1 -9.412378846675e-05  -1.308708297535e-04   7.887873473951e-05 
7 1  4.297612927811e-05  -2.872119956639e-05   3.894242031965e-06 
8 1  1.011616480435e-04  -1.700058818049e-04  -1.251172924937e-04 
8
Step 13000
1 1  4.929732296846e-05  -5.948577315418e-05   6.298549549935e-06 
2 1 -9.533533867498e-05  -1.312415024799e-04   2.120198514346e-04 
3 1 -1.595283561365e-04  -1.425586992085e-04   2.548146238372e-04 
4 1 -9.000894612015e-05  -3.702009857073e-04  -1.083396637863e-04 
5 1  2.817754158472e-06  -6.931382698782e-05   1.661618288218e-05 
6 1 -2.722129867936e-04  -5.414791267413e-05   3.276600135548e-05 
7 1 -9.386752330537e-05   1.230418206820e-04  -7.509288861167e-05 
8 1  1.280845147252e-05   1.937812376955e-04   1.712408267976e-04 
8
Step 14000
1 1 -1.303278432037e-04   1.026363832104e-04   1.046370918674e-04 
2 1  1.465084825641e-05   1.750105178365e-04  -9.423343168004e-05 
3 1  5.150194415927e-05   1.162570049168e-04  -2.558090752653e-04 
4 1  1.535376336305e-04   2.214727585689e-04   6.798297208677e-05 
5 1  2.678594539513e-05   1.831238077699e-04   2.259413615861e-05 
6 1  5.115228115584e-05   6.780001349200e-05  -1.295854439989e-04 
7 1  1.407377475967e-04   8.288410817330e-07   2.752158369417e-05 
8 1 -9.144674168569e-05  -1.228892575179e-04  -1.085739861903e-04 
8
Step 15000
1 1  3.133471552919e-04  -2.780310591950e-04  -1.996204172772e-04 
2 1  1.052112154198e-05  -1.923739854069e-04   7.327466641532e-05 
3 1 -5.162903432611e-05  -5.338494794050e-05   2.164233712344e-04 
4 1 -4.416332031213e-05  -1.062312871660e-04  -8.334605051901e-05 
5 1 -2.137696195448e-04  -6.848777415890e-05   8.409654195863e-05 
6 1  9.090933602829e-05  -3.541972228440e-05  -2.858260532970e-05 
7 1 -1.419983826118e-04  -7.019248226025e-05   9.797310676050e-05 
8 1 -8.396898814537e-05   4.139566119726e-05  -1.494041291874e-05 
8
Step 16000
1 1 -1.892142357564e-04   5.410429181126e-05   7.479766626249e-05 
2 1 -1.397463242017e-04   1.360555702368e-04   3.805150157842e-05 
3 1 -5.655352925333e-06   6.251960325581e-05  -2.787813461207e-04 
4 1  5.477752893114e-05   1.361750371609e-05   5.510755563038e-06 
5 1  3.882185765820e-05  -4.406395500430e-05  -8.802542906817e-06 
6 1 -7.156888751952e-06   6.588744399496e-05  -1.061939988747e-04 
7 1 -1.239408030613e-04   4.652775094156e-05  -7.616024520793e-05 
8 1  3.142025726253e-06  -1.095301796340e-04   7.612184663460e-06 
8
Step 17000
1 1  1.270471306810e-04  -2.271511397595e-04  -3.389410542916e-05 
2 1  1.039676191014e-04  -1.027057117081e-04  -2.931552973379e-05 
3 1  1.293774187767e-04   1.317073554111e-04   3.071434531065e-04 
4 1 -2.235410382478e-05   3.772118718957e-05  -9.776527833456e-06 
5 1 -1.214199011508e-05   5.108041605495e-05   1.555200982270e-05 
6 1 -6.406229713708e-06  -4.468940669185e-05   1.170548191510e-04 
7 1  1.126237139501e-05  -7.969232714559e-05   7.326622231868e-05 
8 1  7.112570004115e-05   2.102826761351e-05  -2.450841817447e-04 
8
Step 18000
1 1 -7.777473512027e-05   6.888695638772e-05  -8.947590982344e-06 
2 1 -1.756216755616e-04   1.103356617515e-04   1.358142914698e-04 
3 1 -1.092850733298e-04  -8.614523539435e-05  -1.578954440479e-04 
4 1 -5.240545999872e-05  -1.959655828155e-04  -4.355734770899e-05 
5 1  4.143924030179e-05  -1.818925902830e-04  -9.010534148279e-05 
6 1 -5.540529446072e-05   3.815541166348e-05  -1.826952056949e-04 
7 1  1.285236840607e-04   6.477323999409e-05  -1.311726481546e-04 
8 1 -6.906888901984e-05   2.094130049964e-05   8.843447459075e-06 
8
Step 19000
1 1  7.575677983184e-05  -5.929520911598e-05   2.729015283021e-06 
2 1  1.600251110989e-04  -5.361153089746e-05  -1.090127500482e-04 
3 1  1.227478036068e-04   1.546130047619e-04   6.744823730206e-05 
4 1  7.053869462133e-05   3.244768901086e-04   3.339543683863e-05 
5 1  7.277378689031e-05   2.703244166053e-04   7.738073703795e-06 
6 1  5.378676791862e-05  -1.595412532240e-04   4.202883940653e-05 
7 1  9.003632833602e-05  -1.084096706119e-04   1.674232800086e-04 
8 1 -2.639079818987e-05  -1.940938903346e-04  -1.883894126301e-04 
8
Step 20000
1 1 -2.264160368117e-05   5.949976599780e-05  -1.334068844797e-04 
2 1 -3.140986060035e-04   4.486989177125e-05   2.231012694623e-04 
3 1 -1.706484239135e-04  -9.100129464797e-05   5.123206487088e-05 
4 1 -3.267263229736e-05  -2.203698807699e-04  -5.264140939357e-05 
5 1 -2.684457949468e-05  -2.183998926282e-04  -1.011569701150e-04 
6 1  2.206726768787e-06  -7.571249684262e-05  -1.367958163264e-04 
7 1 -1.465606985018e-04   8.236293104488e-05   2.910688426925e-06 
8 1  1.648596920450e-04   8.194597692632e-05   7.095307277350e-05 
8
Step 21000
1 1 -4.036005669029e-05  -3.731373610953e-06   8.356940994632e-05 
2 1  1.219439015951e-04   7.616168463579e-05  -1.095788856853e-04 
3 1  2.032232253544e-04   1.996956109836e-04  -1.485305848173e-04 
4 1  1.333451083957e-04   3.052024193378e-04   9.889672955954e-05 
5 1  6.604458308056e-05   1.985566655800e-04  -7.527424869859e-06 
6 1 -4.533866256280e-05   7.683559900009e-05   2.434728692433e-04 
7 1  4.649345308287e-05   2.766794091062e-05   4.887746216286e-05 
8 1  7.294089247966e-05  -1.442456912235e-04  -2.123459390074e-04 
8
Step 22000
1 1  6.006086241933e-05  -7.468014291795e-05  -8.478659047723e-05 
2 1 -1.508324970950e-04  -8.174947131968e-05   1.733369362848e-04 
3 1 -9.737894780473e-05  -4.607740141044e-05   1.778577056972e-04 
4 1 -3.826982827934e-05  -2.537992494008e-04   2.064960661293e-05 
5 1 -1.311132136122e-04  -1.147820295430e-04   2.521296707575e-06 
6 1  1.482415673087e-05  -2.082184313993e-05   4.063682692115e-05 
7 1  1.600711189464e-04  -4.665681019597e-05  -9.703568417920e-05 
8 1  8.692137128540e-05   1.372101814053e-04   2.605929865087e-04 
8
Step 23000
1 1 -2.450404721670e-04   1.804893569052e-04   1.772624346742e-04 
2 1  3.861189707964e-05   1.310529278734e-04  -1.052064582385e-04 
3 1  1.528954682464e-04   8.713191062537e-05  -1.984671578874e-04 
4 1  5.017376093980e-05   1.546209033024e-05  -2.934429258002e-06 
5 1  2.218950291387e-05   8.433328424340e-05  -6.369803219640e-05 
6 1  4.376924302870e-05   1.654806248611e-04   7.688749733634e-05 
7 1  1.118486607632e-04  -5.225384093389e-05  -5.420279034549e-05 
8 1 -2.536679049934e-05  -8.963502821049e-05  -7.959807456743e-05 
8
Step 24000
1 1  1.161136375446e-04  -1.082631976951e-04  -9.655732542105e-05 
2 1 -4.055558007657e-05  -1.269295274639e-04   9.857019957483e-05 
3 1 -7.910182573472e-05  -9.010187701974e-05   3.269975446458e-04 
4 1 -6.161125895245e-05  -1.125103518909e-04   2.859462681228e-05 
5 1 -1.503903529349e-04   1.239999740765e-04   3.140779596908e-05 
6 1  1.271474667747e-04  -1.238027026192e-04   4.517643044067e-05 
7 1 -1.790988596944e-04  -1.111610095301e-04   1.091663329981e-04 
8 1  5.147187604184e-05   2.156957755997e-04   1.847652575476e-04 
8
Step 25000
1 1 -2.568129335894e-04   1.858140450794e-04   1.360045824908e-04 
2 1 -8.685790004933e-05   2.446293567556e-04  -6.351975661315e-05 
3 1  1.641476144679e-05   9.365858533272e-05  -1.517452023149e-04 
4 1 -4.686356441102e-05  -7.348673023445e-05  -3.494086574632e-05 
5 1  1.424287376316e-04  -1.495614269101e-04  -6.048158027212e-05 
6 1  8.660517475531e-05  -3.380202517649e-05  -1.098543367533e-04 
7 1 -1.623119385347e-05  -1.546053321687e-05  -6.591351665658e-05 
8 1  3.744925137187e-05  -2.841325616452e-05  -3.221573974111e-05 
8
Step 26000
1 1  2.239634734672e-04  -1.285784321494e-04  -1.721686218565e-04 
2 1  5.904989968494e-05  -1.424904897559e-04  -1.876534626042e-05 
3 1  8.583391757668e-05  -1.698118377302e-05   1.137694711313e-04 
4 1  2.557864924622e-05   8.209502864365e-05   1.639335830116e-04 
5 1  2.865190927656e-05   7.249714615561e-05   5.026397482056e-05 
6 1 -7.013249750089e-05  -4.101490194674e-05   2.362829718633e-04 
7 1  2.495694412530e-04  -2.866423534390e-05   1.601015353858e-05 
8 1 -2.531172742537e-05  -7.824724100174e-05  -4.363028070378e-05 
8
Step 27000
1 1 -9.542202649097e-05   8.603835105899e-05  -3.024499925116e-06 
2 1 -1.363054992860e-04   1.616398366029e-04   5.222718664209e-06 
3 1 -5.408305593123e-05  -2.403288270908e-05  -3.669853046879e-05 
4 1 -6.525087009354e-05  -2.579513182065e-04  -1.890811563466e-05 
5 1 -1.416170428412e-04  -1.104630493525e-04  -3.556074304971e-05 
6 1  1.905865634754e-05   5.459755683216e-05  -1.564563451636e-04 
7 1 -1.349715472436e-04  -4.518782245231e-05  -3.450015910960e-05 
8 1 -1.141228557145e-04   2.578835567429e-06  -7.463814494487e-06 
8
Step 28000
1 1  1.055854785068e-04  -1.067225283076e-04  -4.466585666703e-05 
2 1  1.867306321611e-04  -2.087547111269e-04  -1.352817131955e-04 
3 1  2.070510604437e-04   6.357416377099e-05   6.222190097752e-05 
4 1  1.010529963240e-04   2.589316966420e-04   8.842297686961e-05 
5 1  1.590393125569e-04   1.425077232291e-04  -3.610620753994e-05 
6 1  6.299073894092e-05  -1.166360093320e-04   1.920391136374e-04 
7 1 -7.098612082134e-05  -5.728630401026e-05   5.676741939360e-05 
8 1 -5.813037196607e-05  -3.976245020013e-05  -2.219881886329e-04 
8
Step 29000
1 1 -4.756408360048e-05   6.330126543113e-05  -3.755219016838e-05 
2 1 -3.313956125009e-04   1.520579248816e-04   2.068235185670e-04 
3 1 -2.339640468037e-04  -2.484216486881e-05   9.518032071849e-06 
4 1 -8.383276971124e-05  -2.143627557740e-04  -5.642238003464e-05 
5 1 -7.377615309384e-05  -1.246191409287e-04  -3.459823252644e-05 
6 1 -4.905612013602e-05  -1.055726273722e-04  -1.423939754569e-04 
7 1  3.071367975529e-07   1.490897810093e-04   4.585326256981e-07 
8 1 -3.901672190511e-05   1.991938344833e-04   2.047706040416e-04 
8
Step 30000
1 1 -5.853966836852e-05   7.755373382669e-06   1.004976612892e-04 
2 1  1.786895063562e-04  -8.469282940741e-05  -2.061257258449e-04 
3 1  1.965119370614e-04   8.220485486674e-05  -1.458702805983e-04 
4 1  1.345109884934e-04   2.127473806152e-04  -1.647252148618e-05 
5 1  2.935328659731e-04   6.621381820031e-05   1.984049388847e-06 
6 1 -1.295941320609e-04  -2.162685458087e-04   1.992852241307e-04 
7 1  1.954120505796e-04   1.013584068035e-04   1.231754482115e-05 
8 1 -8.100623218860e-05  -2.357934557623e-04  -1.851904648819e-04 
8
Step 31000
1 1  1.070565538423e-04  -1.959385266895e-05  -1.545635569597e-04 
2 1 -1.901348244086e-04  -4.584512892364e-05   1.112283721530e-04 
3 1 -3.333597048111e-04  -6.169952493437e-05   1.561425363560e-04 
4 1 -1.920345868578e-04  -1.333469113052e-04  -1.452374817525e-05 
5 1 -6.837078969490e-05  -1.329494882055e-04  -6.290093486127e-06 
6 1 -2.162353897704e-05  -4.943698229351e-05  -3.904950707810e-05 
7 1  7.411122649026e-05   2.381018455329e-04  -2.501892769695e-05 
8 1 -9.674990371437e-05   1.128487791779e-04   2.288007026134e-04 
8
Step 32000
1 1 -1.853385740588e-04   8.031289843421e-05   1.980623793842e-04 
2 1  1.235861087583e-04   1.094031959752e-04  -1.828225731968e-04 
3 1  1.863332799220e-04   1.702309703812e-04  -1.712972399178e-04 
4 1  1.378119509052e-04   1.206896804306e-04  -1.467590491479e-05 
5 1  7.468112168978e-05   2.306510966470e-04  -2.326585225632e-04 
6 1  1.985845061415e-04  -1.842472775434e-04   1.182419260669e-04 
7 1 -1.877177250457e-04  -1.819995373860e-04  -8.420268122899e-06 
8 1 -4.454702722080e-05   2.210443688646e-05  -1.285168666002e-04 
8
Step 33000
1 1  2.567739677973e-04  -1.202658669364e-04  -2.614019319984e-04 
2 1 -1.010640045070e-06  -1.862128505031e-04  -2.265969331019e-05 
3 1 -1.974242469171e-04  -3.989469954970e-05   1.848421631081e-04 
4 1 -7.336590999041e-05  -4.773093888674e-05   5.205224215488e-05 
5 1 -2.473755224498e-05  -7.588095835337e-05  -5.452818943575e-05 
6 1 -3.294228823439e-05  -6.589884607622e-05   1.564155459073e-05 
7 1 -5.598636346439e-05   1.363938118993e-04   3.754486554421e-05 
8 1  2.083420333605e-04   9.607664398777e-05   2.026267390465e-04 
8
Step 34000
1 1 -1.677159680081e-04   1.386691745060e-04   1.613424406849e-04 
2 1 -1.031911024865e-04   2.649165976952e-04  -5.856550485696e-05 
3 1  8.445330506411e-06   1.223491815262e-04  -1.709326374085e-04 
4 1  1.311412010227e-04  -6.221444354726e-05  -1.266990409331e-04 
5 1  1.197092908970e-04   8.516711606512e-05  -4.372113620827e-05 
6 1  8.922091480075e-05  -3.747846686600e-05  -1.917521944578e-05 
7 1 -9.351621782664e-05   1.925279838851e-04  -5.434708826861e-05 
8 1 -6.371785482482e-05  -7.089006087377e-06  -4.526852045292e-05 
8
Step 35000
1 1  1.952487921675e-04  -8.551600091506e-05  -1.399989556516e-04 
2 1  5.498793029573e-05  -1.844523639225e-04  -1.311320810256e-05 
3 1  5.857259543303e-05  -7.596161156469e-05   1.055798127161e-04 
4 1  5.449094953918e-05   1.122194279289e-04   4.284496912446e-05 
5 1  3.663071322998e-05   4.408359848384e-05   1.364143682918e-04 
6 1 -1.307588601037e-04   2.814964069856e-05   2.842245954974e-05 
7 1  1.516784051347e-05  -7.287229452274e-05  -2.471817794741e-05 
8 1 -8.602813663160e-07   8.990539867899e-06   4.564946943880e-05 
8
Step 36000
1 1 -2.577694895070e-04   1.787334126539e-04   2.304119853049e-04 
2 1 -2.294555394694e-04   2.278933618166e-04   5.262784715935e-05 
3 1 -2.060267039515e-04   1.020717136056e-04  -3.941105638658e-05 
4 1 -9.731642524758e-05  -1.730576897880e-04  -1.300543707640e-04 
5 1 -2.272056779873e-04  -1.921924859403e-05  -1.186626413230e-04 
6 1  9.258661511399e-06   5.718046334838e-05  -2.155698704376e-04 
7 1 -1.595719789708e-04   1.375663019888e-05  -4.953639971847e-05 
8 1 -1.333597821148e-04   1.122020831109e-04  -4.014722874547e-05 
8
Step 37000
1 1  8.879559119791e-05  -7.065473876961e-05  -9.379993973771e-06 
2 1  1.208106377111e-04  -1.140901566813e-04  -7.664712689102e-05 
3 1  1.813881425927e-04  -3.308562838345e-05   4.352632391903e-05 
4 1  1.700167407488e-04   1.841527551642e-04   7.369531735112e-05 
5 1  1.524244458219e-04   4.421251306337e-05   1.152100384217e-04 
6 1  2.068896767665e-04  -1.209996976106e-04   1.288007340845e-04 
7 1 -2.943428123212e-04  -1.312184016201e-04   4.812824244101e-05 
8 1  6.622733211573e-05   5.240862693748e-07  -1.423438836397e-04 
8
Step 38000
1 1 -4.797345420457e-05   7.994292496503e-05  -1.791956867920e-05 
2 1 -2.661303513008e-04   1.613941802976e-04   6.652048862037e-05 
3 1 -2.388817817938e-04   1.865677397111e-05   5.983908352559e-06 
4 1 -1.880919715131e-04  -1.310361562571e-04  -1.057587517763e-04 
5 1 -1.971663660793e-04  -1.087240032225e-04  -9.933657165858e-05 
6 1 -7.385488106910e-05  -4.872646981576e-05  -1.316452449216e-04 
7 1 -2.319011969031e-04   3.153279104259e-05  -8.030029781952e-05 
8 1  6.973330965630e-05   1.098846630608e-04   6.873691814242e-05 
8
Step 39000
1 1 -2.577870300234e-05  -3.733076624793e-05   2.099466556656e-04 
2 1  2.436546750486e-04  -1.124969083598e-04  -1.532354139437e-04 
3 1  3.318552030570e-04  -5.325513399560e-05  -5.350637996679e-05 
4 1  2.842875391836e-04   1.889464170597e-04   5.558396019838e-05 
5 1  4.610003241314e-04   1.396910936103e-04   1.344050059753e-04 
6 1  1.616139260744e-04  -1.258709598602e-05   2.400393255677e-04 
7 1 -8.428457487107e-05  -3.854565104142e-05  -1.529089207594e-06 
8 1 -2.595107163705e-05  -1.673767210593e-04  -2.378265606388e-04 
8
Step 40000
1 1  4.536625947177e-05  -2.262483388480e-06  -5.777846309245e-05 
2 1 -1.166133005195e-04  -3.464598488641e-05   4.408570696638e-07 
3 1 -1.003058276927e-04   7.196733827433e-05   1.317311548910e-04 
4 1 -2.789730414722e-04  -1.014958580766e-04  -2.389124647672e-05 
5 1 -1.515054767254e-04  -1.538504845300e-04  -5.276357421632e-05 
6 1 -3.364781516055e-04   4.474367993948e-05  -1.438156931555e-04 
7 1  7.032673655255e-05  -7.020008410109e-05  -1.115099369908e-05 
8 1  4.596263162564e-05  -1.046087040862e-04   2.708091039835e-05 
8
Step 41000
1 1 -4.548411023839e-05   2.269604456490e-05   2.043793427326e-04 
2 1  1.349215630221e-04   1.065813058128e-04  -4.286666915607e-05 
3 1  2.336489117061e-04   1.432564876098e-04  -4.418702510943e-05 
4 1  2.262325708229e-04   3.005091739532e-05  -4.795922495948e-06 
5 1  2.200472082094e-04   6.095932264071e-05  -1.398512645910e-05 
6 1 -7.858043663485e-05   7.493375861884e-05   1.962728499906e-04 
7 1  1.219908855040e-04  -1.049936199128e-04  -1.925001997083e-05 
8 1 -1.491192536750e-04  -6.608638124305e-07  -1.477623857408e-04 
8
Step 42000
1 1  2.199840618194e-04  -1.491031085814e-04  -1.911710762353e-04 
2 1 -1.241145889178e-04  -1.329963212045e-04   5.439328780253e-05 
3 1 -5.027883107597e-05   2.342520049499e-05   1.424071510824e-04 
4 1 -9.813259932833e-05  -4.135663490058e-05   7.190916857546e-05 
5 1 -1.142711352170e-04  -2.464489681465e-04  -5.797718598642e-05 
6 1 -7.116614580892e-05  -3.975050819170e-05  -2.444629774410e-05 
7 1 -2.174523863883e-06  -7.085786345894e-05  -1.221495421652e-04 
8 1  1.428071932038e-04   4.666575858346e-05   2.599399077023e-04 
8
Step 43000
1 1 -1.761125713928e-04   9.315745381452e-05   2.124452682157e-04 
2 1 -3.749048917856e-05   2.741374195817e-04  -9.259335819532e-06 
3 1  1.196026171647e-04   2.074310663483e-04  -9.523608894040e-05 
4 1  9.718978006236e-05  -1.053006929791e-04  -8.478712391359e-05 
5 1 -4.122134453281e-05   9.049674005215e-05  -4.414214720161e-05 
6 1 -5.274376941528e-05   1.600208960521e-04   1.760545786306e-05 
7 1 -1.045966364842e-05   7.536726730959e-05  -2.569131274557e-05 
8 1 -4.183673452868e-05   4.953500226601e-05  -4.755614983534e-06 
8
Step 44000
1 1  2.313556387272e-04  -1.697366131614e-04  -1.029990827935e-04 
2 1  8.420258324358e-05  -3.334817173986e-04  -1.167460260497e-05 
3 1  1.297597724549e-04  -1.173580084714e-04   7.718444176087e-05 
4 1 -7.258399114590e-05  -4.510538816641e-06   1.139721991667e-04 
5 1 -1.155499081816e-04  -8.455472816359e-06   1.469714075796e-04 
6 1  2.750089228668e-04  -1.831339983763e-04   2.485690273447e-04 
7 1  6.487959800629e-05  -1.934203385497e-04  -7.882340751895e-05 
8 1  5.824731689056e-05  -2.377647895076e-04   3.831511897403e-05 
8
Step 45000
1 1 -8.674205245420e-05   1.091944720783e-04   7.741386699959e-05 
2 1 -1.113464346691e-04   2.407113814681e-04  -1.862588931059e-07 
3 1 -2.540655301269e-05   3.206267143891e-04  -1.502321351841e-04 
4 1 -1.080093372188e-04  -2.003305120839e-05  -1.702008306684e-04 
5 1 -3.366108303416e-06  -3.913453873413e-05   4.013612672113e-05 
6 1 -9.867791392009e-05   5.971231957529e-05  -1.804750734377e-04 
7 1  1.365891410470e-05   2.095053492872e-04  -1.145623690026e-04 
8 1  6.344397506246e-06   1.102258271419e-04   9.805279566350e-05 
8
Step 46000
1 1  1.060673843645e-04  -7.542855987018e-05   6.992673329689e-05 
2 1  1.664391599967e-04  -2.632311799690e-04  -8.017328710202e-05 
3 1  1.814055316612e-04  -1.648199179125e-05   6.305409772069e-05 
4 1  1.342655570959e-04   5.867083156690e-05   1.714047486541e-04 
5 1  7.691568419533e-05  -5.256232823231e-05   1.902358365370e-04 
6 1  8.800429938861e-05  -4.990080609967e-05   1.040372421196e-04 
7 1 -9.658838575098e-06  -6.182687106602e-05   1.843951868448e-04 
8 1 -3.840560606608e-06  -1.207829055041e-04  -1.540317639157e-04 
8
Step 47000
1 1 -4.337760051089e-05   1.176084534041e-04  -2.764975098076e-05 
2 1 -1.786957974231e-04   1.244963379085e-04  -2.154860078323e-05 
3 1 -1.794513478880e-04   2.152531114828e-04  -7.614884566648e-05 
4 1 -1.630905639737e-04  -9.478626423355e-05  -1.189489685210e-04 
5 1 -7.400201265307e-05  -8.515761875868e-05  -3.688286365489e-05 
6 1 -1.345677535405e-04   1.848116128827e-04  -2.327605112792e-04 
7 1  4.632398358139e-05   1.303497396340e-04  -1.318588779327e-04 
8 1  1.378305897772e-05   1.524974091101e-04   2.655830533449e-04 
8
Step 48000
1 1  1.042743625109e-04  -1.954222646170e-05   6.937654826976e-05 
2 1  2.404992551787e-04  -1.154289188087e-04  -5.419045168186e-05 
3 1  1.338577629533e-04  -7.354496217786e-05  -2.014067112280e-04 
4 1  2.677377401470e-04  -7.774460137483e-05   1.200549593944e-04 
5 1  4.257412453949e-06   2.111075448196e-04   1.596159136540e-04 
6 1  2.753869855243e-05   1.353979594119e-04   6.126671307082e-05 
7 1 -5.860911870023e-05  -2.666026461101e-04   2.915730084342e-04 
8 1 -1.151731804000e-04  -1.363171362162e-04  -1.339432600315e-04 
8
Step 49000
1 1  1.055887527126e-04   9.729411153213e-05  -2.714731783724e-04 
2 1 -1.126831465672e-04  -3.324322492032e-05  -1.218757585339e-05 
3 1 -1.766069624413e-04   5.439872155334e-05  -7.495555100359e-05 
4 1 -2.533024958426e-04   2.675409689643e-05   4.137203977764e-05 
5 1 -1.923519443218e-04   1.136713829285e-04   2.510401864979e-05 
6 1  1.083286254102e-04  -2.690604131610e-05  -1.901023617742e-04 
7 1  1.926931894220e-04  -6.430945744849e-05  -1.855627114945e-04 
8 1 -5.944940102762e-05   1.230159411269e-04   2.291076995476e-04 
8
Step 50000
1 1 -5.569341887424e-05   3.143779752778e-05   1.939978947422e-04 
2 1  1.204418260024e-04   4.971520410130e-05  -8.466343870152e-06 
3 1  1.578544607210e-04   6.793762938341e-05  -1.402240105890e-04 
4 1  1.833119617575e-04  -1.799970052283e-06   7.353366713563e-05 
5 1  9.877775720412e-05   1.578733257525e-04   1.342941801232e-04 
6 1 -1.957120320815e-05   6.434747790546e-05   5.954360190736e-06 
7 1 -2.805594378938e-05  -6.615890581256e-05   6.583029506560e-05 
8 1 -1.595949798337e-04  -1.927265933055e-05  -1.286510879089e-04 
8
Step 51000
1 1  2.187180230640e-04   1.132059196743e-05  -3.121015917510e-04 
2 1 -1.324404737390e-04  -2.138057065316e-04   6.598816538046e-06 
3 1 -1.568439074041e-04  -9.675034153020e-05  -3.332104388124e-05 
4 1 -9.013382589771e-05  -1.495654608148e-04   1.230952731464e-04 
5 1  6.872125548344e-05  -1.005882320726e-04  -2.409597885330e-06 
6 1  3.759087567477e-05  -4.345531727322e-05  -9.497977542148e-05 
7 1 -7.976974356268e-05  -5.645843313272e-06   8.628581323676e-05 
8 1  1.559718711199e-04  -3.193174179817e-06   8.589256038025e-05 
8
Step 52000
1 1 -1.281887034659e-04   3.463745737759e-05   2.562593248522e-04 
2 1  1.331771321658e-04   1.654362625167e-04  -6.945949968377e-05 
3 1  1.053119774865e-04   1.234734367648e-04  -6.230589102292e-05 
4 1  1.940287154613e-04  -1.303376946684e-04  -4.525828685012e-05 
5 1  1.446681253880e-04   2.528475029934e-04   6.149159660234e-05 
6 1 -1.390070572851e-04   2.436790894788e-04  -1.526449315720e-04 
7 1 -6.861710628582e-05  -1.907146158902e-05   2.472736740119e-05 
8 1 -1.163255101077e-04   2.157038956307e-05  -1.350081928697e-06 
8
Step 53000
1 1  1.433170639066e-04  -2.071424668099e-05  -1.608901672779e-04 
2 1 -6.850969209648e-05  -3.096675643021e-04   3.879367703749e-05 
3 1 -4.701633888980e-05  -4.457670218931e-04  -7.908157526887e-05 
4 1  7.760163297312e-05  -6.261354390334e-05   1.212468709258e-04 
5 1 -1.395802187351e-04   6.211773021752e-05   1.889029838542e-05 
6 1 -1.399657702578e-05   5.055492738856e-05   1.434272819094e-04 
7 1  3.984119347663e-05  -1.223955451344e-04   1.390779603058e-04 
8 1  2.480156673151e-05  -6.982152565629e-05  -9.233002837642e-05 
8
Step 54000
1 1 -1.809917552709e-04   1.292100385246e-04   2.866411650192e-04 
2 1  3.468897698265e-05   3.105991194761e-04  -8.673781589324e-07 
3 1  3.611829783372e-05   1.145687768643e-04  -1.173228678703e-04 
4 1  8.682269043759e-05  -5.073682882002e-06  -1.898459594101e-04 
5 1 -1.138170819338e-05   9.345120013590e-06  -3.038315818278e-05 