8
Step 0
1 1  0.000000000000e+00   0.000000000000e+00   0.000000000000e+00 
2 1  0.000000000000e+00   0.000000000000e+00   0.000000000000e+00 
3 1  0.000000000000e+00   0.000000000000e+00   0.000000000000e+00 
4 1  0.000000000000e+00   0.000000000000e+00   0.000000000000e+00 
5 1  0.000000000000e+00   0.000000000000e+00   0.000000000000e+00 
6 1  0.000000000000e+00   0.000000000000e+00   0.000000000000e+00 
7 1  0.000000000000e+00   0.000000000000e+00   0.000000000000e+00 
8 1  0.000000000000e+00   0.000000000000e+00   0.000000000000e+00 
8
Step 1000
1 1 -7.782246125831e-05  -4.585505982445e-07  -7.909458641341e-05 
2 1 -8.751110037781e-05   2.112300744284e-06  -6.714188149460e-05 
3 1 -2.237628083154e-04   2.768057818655e-04  -9.047913996444e-07 
4 1 -3.752249121603e-05   1.828407513435e-04   1.738142957947e-04 
5 1 -5.136920342194e-05   1.816887236864e-04  -2.726886945323e-04 
6 1 -3.715010322820e-05   1.747810708189e-04  -9.893531973104e-05 
7 1  5.193761150204e-05  -7.672471784378e-06  -2.270991594410e-04 
8 1  2.650416627571e-04  -2.300964104812e-04  -5.393150548184e-05 
8
Step 2000
1 1 -1.054017561920e-04   5.324160238784e-05  -1.128705054860e-04 
2 1 -1.798450263970e-04  -1.022133185159e-04   2.596082240527e-04 
3 1 -8.213159798793e-05   9.092387040342e-05  -2.391924667346e-05 
4 1 -9.688239995300e-05   1.102609998504e-04   4.281741584510e-04 
5 1  2.645185769660e-04   6.797854708434e-05  -2.042015370419e-04 
6 1 -2.307064368866e-04   2.917408724031e-04  -2.343521300531e-04 
7 1 -9.104709886049e-05  -1.101245930770e-04  -2.230818341404e-04 
8 1 -1.056765057910e-04  -7.211606236334e-05   1.096009990361e-04 
8
Step 3000
1 1 -1.071664180861e-04  -7.974611101706e-05  -8.854752869371e-05 
2 1 -1.453843399661e-04  -2.318667040903e-05   1.281853452417e-04 
3 1 -1.274488855300e-04   1.761545615645e-04  -9.608084588977e-05 
4 1 -8.640408153743e-05  -1.315449094829e-04   2.236558266233e-04 
5 1  1.832253415946e-04   1.738607601533e-04  -1.068960672489e-04 
6 1  1.243116635944e-05   1.401843137216e-04   4.334017342367e-05 
7 1  6.372883737756e-05   6.419758641183e-05  -2.237808755908e-05 
8 1 -5.335554265072e-05  -1.681692651781e-04   2.137166747039e-04 
8
Step 4000
1 1  7.188529029299e-05  -1.097771060360e-04  -6.151089822775e-06 
2 1 -1.120384637483e-04  -1.470535277205e-04   1.465849845527e-04 
3 1 -3.278082204357e-04   3.325032573026e-04   1.264161672600e-04 
4 1  3.102854122389e-04  -1.260970326818e-04   1.359800754456e-04 
5 1 -8.520121881211e-05   3.495421721010e-04  -1.238165444869e-04 
6 1  1.927601652420e-05  -1.996530813920e-04   9.264922786196e-05 
7 1 -1.013478801299e-04   1.548224112513e-05   1.608466899265e-05 
8 1  2.103783533527e-04  -1.664881427487e-04   1.383223758745e-04 
8
Step 5000
1 1 -8.685964511172e-05   4.373898311870e-05   7.218372452349e-05 
2 1  2.264082336266e-05  -1.445892333453e-04   2.867769477578e-06 
3 1 -1.274206849233e-04   1.429827343233e-04   2.708883634005e-05 
4 1  3.724190414114e-04  -4.556129570377e-04   8.500026206059e-05 
5 1 -6.194075481527e-05   2.875118588611e-04   6.151144929562e-05 
6 1  3.369868890162e-05  -9.743801037378e-05   2.555062895476e-04 
7 1 -4.040444142483e-04   1.929420927601e-05   2.251216451026e-06 
8 1  2.733994786092e-04  -2.999595711716e-04   1.009477276134e-04 
8
Step 6000
1 1  1.000592765687e-04  -2.229372878952e-04   1.578089072355e-04 
2 1  8.306530864289e-06   3.895779210866e-05   1.969828851040e-04 
3 1  2.518902055886e-04  -5.640336661556e-05  -6.959969699194e-05 
4 1 -9.907801282942e-06  -4.747459792693e-05  -1.198625524451e-05 
5 1  2.004028474719e-04   1.546653386989e-04   6.829469196683e-05 
6 1  4.994940146275e-05  -7.908388474366e-05   2.662206312770e-04 
7 1  7.483599038133e-06  -8.848415389616e-05   5.973554324035e-05 
8 1  1.780665750406e-04  -9.197589542306e-05   2.908574968508e-04 
8
Step 7000
1 1 -4.581688747383e-05  -2.388731115116e-05   1.666143791436e-04 
2 1  1.882036010708e-04  -9.909907599111e-05   1.038862865325e-04 
3 1  1.837071259179e-04  -2.120187667961e-04  -1.969550547204e-04 
4 1  2.341710355527e-05  -1.057587728803e-04  -4.241554345365e-05 
5 1 -6.716432981516e-05   4.232625876202e-05   9.870433538308e-05 
6 1 -3.391769020592e-04  -1.296625227889e-04   2.616971547769e-04 
7 1 -5.606626542812e-05  -1.259265775614e-04   4.971645302071e-05 
8 1 -2.066361887912e-04  -1.541935795744e-04   3.425876439271e-04 
8
Step 8000
1 1 -7.805907482171e-05   3.352801724765e-05   1.798625164018e-04 
2 1  1.878089537619e-04   1.039192210836e-05  -5.981279924351e-06 
3 1  2.636015304356e-05  -1.052718248633e-05  -7.998743842025e-05 
4 1  1.477337486901e-04  -2.999171925231e-04  -8.521172532945e-05 
5 1  1.807460882182e-04   8.676109461426e-05   3.858703041791e-05 
6 1  1.748626882830e-04  -8.165477050251e-05   2.230156266804e-04 
7 1  8.815749774679e-05  -6.959023433758e-05   6.227658555906e-05 
8 1  2.026201450472e-05  -2.742359558662e-04   2.540446777966e-04 
8
Step 9000
1 1  2.637483164245e-05   1.266844819591e-04   1.328743404323e-04 
2 1  3.620928200994e-05  -1.534070099058e-04  -1.484207949519e-04 
3 1  9.310291856419e-07  -4.466238406971e-05   5.723185878321e-05 
4 1  2.554870269349e-05  -1.624743800703e-04   1.069252684245e-05 
5 1 -7.616543535006e-05   1.363915295608e-04   3.344014452541e-05 
6 1 -4.960683941407e-07  -2.862476151240e-04   2.347985085400e-05 
7 1 -2.574266838801e-04   6.304770052242e-05  -5.652834754707e-05 
8 1  9.181705199194e-05  -2.459038314031e-04   2.068767164095e-04 
8
Step 10000
1 1 -3.602165301566e-05   6.085433235343e-05  -7.203191394889e-06 
2 1 -1.196412819714e-04  -7.771337663818e-05  -2.930089227794e-04 
3 1  1.294326053128e-04   2.923108018945e-05  -5.167433644065e-05 
4 1 -1.169689445541e-04  -3.071188327018e-04  -2.281394061311e-04 
5 1 -7.947743761980e-06   6.654317179661e-05  -1.423017404690e-05 
6 1  1.804046187527e-04  -4.400460616113e-05   7.743624842427e-05 
7 1 -3.473637168207e-05   3.414218401656e-05  -1.468734892826e-04 
8 1  1.708445633328e-04   2.260795793961e-05   1.528009125497e-04 
8
Step 11000
1 1 -5.158823558378e-05  -1.974458199918e-05   6.170328615376e-05 
2 1 -2.173732450395e-04   2.030167816821e-04  -1.150638873068e-04 
3 1  2.002030052623e-04  -2.075592612984e-04   4.362937899676e-05 
4 1 -2.106244599836e-04   2.329018312213e-05  -2.127119271143e-04 
5 1 -7.773214758178e-05   6.490630059771e-05  -2.556404379271e-04 
6 1 -2.198762962963e-05  -2.055259457109e-04   1.478328874550e-04 
7 1 -2.818759327547e-04   1.964114558729e-04  -7.546313191648e-05 
8 1  1.757449885178e-04   3.391942554102e-05   1.515451017423e-04 
8
Step 12000
1 1 -6.266571463589e-05  -7.138696505234e-05  -1.102997626197e-04 
2 1 -4.691644856654e-05   2.420283474365e-04  -2.436756181380e-04 
3 1  9.438992065701e-05  -2.123135274488e-04  -1.529063904800e-04 
4 1 -4.071165467950e-05   3.046224608252e-05   8.364129741411e-05 
5 1 -2.020769079649e-04  -1.397494185743e-04  -1.376534466424e-04 
6 1 -1.381505343040e-04  -1.774435988227e-04  -7.012025778547e-05 
7 1  1.152528372821e-04   9.507073692772e-05  -5.676042388752e-06 
8 1  2.380170223639e-04   2.072874380567e-04   1.328171917583e-04 
8
Step 13000
1 1 -8.727441435240e-05  -9.134529067490e-05   1.666097752493e-04 
2 1  4.439532300258e-05   1.669720794798e-04  -9.298681705116e-05 
3 1  2.916265799528e-04   4.153506216517e-05   4.601124464364e-05 
4 1 -2.257970156935e-04   1.384472955056e-05  -2.667227351144e-04 
5 1 -2.285715693951e-04   1.212507765243e-04   7.195641517990e-05 
6 1 -3.351443655266e-05  -7.054793874628e-05   8.760661135691e-05 
7 1  6.279187534849e-05   3.287733510794e-05  -6.030221674668e-05 
8 1  2.214666065937e-05   3.303864286085e-04   1.072132286379e-04 
8
Step 14000
1 1 -7.953562529578e-05  -1.889143049985e-04  -3.699791684266e-06 
2 1 -3.126675084059e-05  -1.871419795772e-04  -3.753594507176e-04 
3 1  2.630339865963e-04   6.435218965238e-05   1.347552477743e-04 
4 1 -3.062788573558e-04  -1.847109691972e-04  -8.076974889303e-05 
5 1 -2.392052266051e-04   1.466411898719e-04   1.106257239447e-04 
6 1 -5.912972829716e-05  -8.920406779780e-05   3.063897512723e-05 
7 1 -4.690817848227e-05   2.429446000846e-04  -2.682455076049e-04 
8 1  2.062956398465e-05   1.797340220857e-04   2.455298899007e-04 
8
Step 15000
1 1 -2.703943582059e-05   1.056318342666e-05   1.503384149528e-04 
2 1 -1.464435762481e-04  -1.877766541326e-04  -2.007073775545e-04 
3 1  2.950844094260e-04   2.091988775940e-04  -4.911305345793e-05 
4 1 -2.100646996478e-04  -1.638312647674e-05  -5.897106817396e-05 
5 1 -8.110366254591e-05  -2.264657947663e-04   8.632654799104e-05 
6 1 -1.570143267055e-04   2.179194689176e-04   1.194240044751e-04 
7 1 -9.686921826879e-05   1.167992654572e-04  -2.074527418727e-04 
8 1  2.512031576835e-04  -4.549626165005e-05   2.612588336700e-04 
8
Step 16000
1 1  9.121319691273e-06   1.363029699212e-04   8.548288155412e-05 
2 1 -1.873748501920e-04  -1.320757077970e-04   1.265243237844e-04 
3 1  1.835794522800e-04  -1.961943903115e-04   2.379006357032e-04 
4 1  1.733974855853e-05  -3.144993234696e-05   6.490607587365e-05 
5 1  4.562125596126e-05  -1.577089982781e-04  -4.678492212146e-05 
6 1 -9.742632858386e-05   1.260504452206e-04   3.913211147782e-04 
7 1 -2.650778216005e-04  -4.573066128850e-05  -2.561215762568e-04 
8 1  2.434001824550e-04   4.595383078122e-06   2.430814418598e-04 
8
Step 17000
1 1  1.666299161626e-04   1.679931537595e-06  -8.346868964507e-05 
2 1 -1.314199849383e-04  -9.090474356311e-05   7.755171874677e-05 
3 1  8.168713698612e-05   1.574468558618e-05   1.683935891120e-04 
4 1  5.209442742843e-05  -1.742170769876e-04  -1.600391425300e-04 
5 1  6.856463535546e-05   3.970551566551e-05  -2.281358407037e-04 
6 1 -1.370726916661e-05   1.543483079073e-04   7.588451063289e-05 
7 1  2.054203418522e-05  -7.513145421497e-05  -4.697493104537e-05 
8 1  1.171448131460e-04   9.063314022405e-05   6.726302788570e-05 
8
Step 18000
1 1  2.754081362574e-04  -1.962814279498e-04   1.451493191025e-04 
2 1 -1.563016511709e-04  -6.181373700388e-05   3.591041537383e-05 
3 1  4.944744924911e-05   1.209875433573e-04   4.102603076229e-04 
4 1  9.184083411394e-05  -2.792899795298e-04   1.912312429841e-04 
5 1 -1.984588891039e-05   4.435304782795e-05   8.632365318530e-05 
6 1 -1.412381029790e-04   9.008586084932e-05   2.560823899879e-05 
7 1  7.091844340090e-05  -2.140123022462e-04  -7.288545375461e-05 
8 1 -1.858328536713e-05  -1.643098441111e-04   3.008710222587e-04 
8
Step 19000
1 1  1.609245971421e-04  -1.606487035855e-04   2.146660231616e-07 
2 1 -7.281170420486e-05  -2.057635284205e-04  -1.769340011262e-05 
3 1  1.739102486916e-04   8.599904681271e-05   2.597194689797e-04 
4 1 -2.943720522766e-04   6.497902416768e-05  -2.685658297535e-05 
5 1 -1.843526968241e-05  -1.931038437608e-05  -2.863824674007e-04 
6 1  3.511318186683e-04   1.030019873667e-04  -2.107080451531e-05 
7 1  2.416580635730e-05  -1.521043175658e-04  -2.129130108443e-04 
8 1  1.077774782256e-04  -7.314407923355e-06   8.571285135004e-05 
8
Step 20000
1 1  9.016188781784e-05   9.871749840102e-05   2.620291017845e-04 
2 1 -2.043479806174e-04  -2.227674052299e-04   2.584660659887e-05 
3 1  2.933715632324e-04   2.089880666648e-04   1.427457419163e-04 
4 1 -2.947763117216e-04   1.105062980658e-04   2.392406026257e-04 
5 1  9.646408997903e-05  -1.002992760277e-04  -7.843958130505e-06 
6 1  9.541664983077e-05   2.882708619130e-04   6.922986275029e-05 
7 1 -6.566218952458e-05  -2.479530715222e-04  -8.848030646597e-05 
8 1  2.773164683453e-04   1.713049165346e-04   2.710587873592e-04 
8
Step 21000
1 1 -1.008539389677e-04   1.231469101160e-04  -1.957965953605e-05 
2 1 -1.228306057866e-04  -2.547564965169e-04  -2.373563860694e-05 
3 1  7.813640392179e-05  -3.979144110532e-06  -3.736041868427e-05 
4 1 -1.662716360005e-04   5.634895205182e-05   1.333967466641e-04 
5 1  1.422305080725e-04   1.356945115258e-04  -3.619290806064e-05 
6 1 -1.656076913238e-05   2.630812777814e-04  -7.309436495652e-05 
7 1  1.644761854528e-04  -2.943004217974e-05  -2.631331934392e-04 
8 1  1.105749662500e-04   1.412138711863e-05   2.348728708631e-05 
8
Step 22000
1 1 -1.742275387841e-04   2.656599693935e-04   7.065515488143e-05 
2 1  2.701180934085e-05  -3.443515273649e-06  -3.543420465724e-05 
3 1 -5.697135468282e-05  -5.218506519991e-05   4.919123556266e-06 
4 1 -8.131765451641e-05  -1.040166325329e-04  -4.090702411126e-06 
5 1  2.269043088567e-04   9.462466363427e-05   1.473891081871e-04 
6 1  1.312893375959e-04   1.290997506053e-04   4.298996661141e-05 
7 1 -1.023767384735e-04   8.498322392014e-05  -4.581836505561e-05 
8 1 -1.833674567995e-04   7.372070495796e-06   4.257124459426e-05 
8
Step 23000
1 1 -2.990814668454e-04   1.761724930973e-05  -2.093158339692e-04 
2 1 -1.945980895142e-04  -5.134915280356e-05  -2.969909229068e-04 
3 1 -4.060562753464e-05   1.436577487131e-04   1.676470623177e-04 
4 1  1.691088918540e-04  -8.932568107045e-05   2.859109046615e-05 
5 1  1.959873415834e-04   2.710071328598e-04   8.240001643542e-05 
6 1  1.049072724341e-04   2.534308409806e-04  -1.965106153781e-04 
7 1 -2.956134650803e-04  -1.526885606322e-04  -2.518524790630e-04 
8 1  2.857297380048e-05   1.399426378475e-04  -6.266191455910e-05 
8
Step 24000
1 1 -2.225855168431e-05   2.522550641277e-04   3.273607901324e-05 
2 1 -1.831622200369e-04   2.023712848681e-04  -3.016072778056e-04 
3 1 -2.082537149609e-04   2.538723199774e-04   2.693373452943e-05 
4 1  1.100581326013e-05  -2.091512142651e-04  -1.235838496353e-04 
5 1  1.620698042824e-04   1.292617865537e-04  -1.608337483173e-05 
6 1  1.557273702247e-04   1.943999424294e-04  -7.012203789007e-05 
7 1 -3.935385471383e-05  -1.465236795062e-04  -2.260679578348e-04 
8 1 -1.463300538370e-04   2.505758461877e-04  -9.713773525955e-05 
8
Step 25000
1 1 -3.510850629988e-04  -6.014588424013e-05  -1.985922334516e-04 
2 1 -1.386411967815e-04   7.824180627456e-05  -2.392494076794e-04 
3 1 -8.749417098093e-05   3.012820597789e-04   5.920359200004e-05 
4 1 -2.096331636721e-05   1.715772999139e-05   1.848086547686e-04 
5 1  3.085517332768e-04   2.117204145101e-04  -2.297116400186e-04 
6 1 -2.732996458410e-04   2.271058989257e-05  -1.841834839564e-04 
7 1 -2.610731571371e-04   7.868370522435e-05  -1.329190354919e-04 
8 1 -1.278598716559e-04   2.334792734842e-04   5.812397019836e-05 
8
Step 26000
1 1 -2.803120449961e-04  -5.846384810142e-05  -1.536064005768e-04 
2 1  6.574697109277e-05   1.358860832623e-04  -1.813860482433e-04 
3 1  3.337072804978e-05   2.873897293180e-04   2.221882535214e-05 
4 1 -2.457354529056e-04   2.279201344956e-05   8.431333948319e-05 
5 1 -5.300819121642e-05  -5.050538878591e-05  -5.413981181413e-05 
6 1 -6.664944597300e-05   7.737154687486e-05  -2.096673933568e-04 
7 1 -1.892137070994e-07   1.693626599528e-04   1.028200032006e-05 
8 1  1.951677111972e-04   2.013184479712e-04  -9.457409442752e-05 
8
Step 27000
1 1 -4.632850062065e-04  -1.755324438842e-04  -1.538893555157e-04 
2 1  3.134416369003e-04   1.296659094141e-04  -1.539977428086e-04 
3 1  1.026796043399e-05   2.997374678225e-04   5.740238834047e-05 
4 1 -1.162353100230e-04   2.647684542764e-05  -7.128927953028e-05 
5 1 -9.199354174277e-05   7.236361513624e-05  -1.991143605040e-04 
6 1  1.348869446272e-04   3.755229671506e-04  -2.287929372622e-04 
7 1 -2.491619216614e-04  -2.740639300248e-05   7.001544855198e-05 
8 1 -1.972171627865e-04   1.425152113489e-04  -2.943600166963e-05 
8
Step 28000
1 1 -2.250818943250e-04  -8.174542853116e-05   7.433586130091e-06 
2 1  1.231260118157e-04   1.108807337080e-04  -1.316194496648e-04 
3 1  6.183536053299e-06   3.279590121215e-04  -2.502555982117e-05 
4 1  1.121091661163e-04  -3.560820318854e-04   8.213170043502e-05 
5 1 -4.707512422075e-05  -1.037782937854e-04  -2.477755475674e-04 
6 1 -4.738247601793e-06   3.245505524358e-05   5.939195229338e-05 
7 1 -9.353283801867e-05  -1.085583606286e-04   1.152911306988e-04 
8 1  1.485087218106e-04  -7.794228922522e-06  -1.146248281823e-04 
8
Step 29000
1 1  7.602089617408e-05  -1.692209931177e-04   4.437574595251e-06 
2 1  5.271033406028e-06  -9.264072296308e-05  -9.959251677927e-05 
3 1  2.942903110800e-05   9.484295232754e-05  -1.057787799692e-04 
4 1  5.239201635061e-05  -4.974351952676e-04  -1.224277780960e-04 
5 1 -9.703630354127e-05   8.907763301030e-05  -1.439383971348e-04 
6 1 -3.369898163448e-04   2.217102633246e-04   1.065467419124e-04 
7 1 -5.309081955096e-05   8.118869174716e-05  -6.855975422464e-05 
8 1 -1.042376406443e-04   4.866297038860e-05   6.382650702288e-05 
8
Step 30000
1 1  1.750893282137e-04  -9.359285587570e-05   1.574952889763e-04 
2 1  1.369115582775e-04   5.186950684542e-05  -1.625993977785e-05 
3 1  7.555743421334e-06   4.501871252570e-05  -7.841611058452e-05 
4 1  1.686214793182e-04  -2.217210407641e-04  -1.344000594810e-04 
5 1  3.168812893594e-04  -1.278417886069e-04   9.349690976610e-05 
6 1 -2.070310879353e-04  -4.407069024088e-05   1.004885803035e-04 
7 1 -9.542118822488e-05   5.017615265836e-05   1.550799170725e-05 
8 1 -4.979034528778e-05   2.032977580425e-05  -8.696537362473e-05 
8
Step 31000
1 1  4.259487558941e-05  -2.605960726028e-04   2.135211904978e-04 
2 1  1.871683719425e-04  -1.067174132031e-04  -4.100203089540e-05 
3 1 -6.317703245167e-05   2.054588905383e-04   1.406708434092e-05 
4 1  2.013950211141e-05  -5.211952572006e-05   1.197764796880e-04 
5 1  3.243379302409e-05  -2.332865584752e-04  -1.620127670389e-04 
6 1 -8.915722413576e-05   1.783351199616e-04  -1.804381120898e-06 
7 1 -2.135687356243e-04   6.424102225808e-05   6.228478161621e-05 
8 1  1.165837873918e-04  -6.496394066891e-05  -9.281103005703e-05 
8
Step 32000
1 1  1.605520199050e-04  -1.192198525142e-04   2.507609664206e-05 
2 1  3.683540549529e-04   1.272420259795e-06  -9.034714604465e-05 
3 1  2.158728157531e-04   1.135156223677e-04   1.007558644330e-05 
4 1  2.168921125587e-04   1.333435919127e-04   4.179803052092e-05 
5 1 -7.742358179972e-05  -1.024016097110e-04  -2.994666674497e-05 
6 1  1.361348952551e-04   1.959920224510e-04   1.695268839634e-04 
7 1 -7.463836556635e-05  -1.028404214784e-04  -6.323038980063e-05 
8 1  2.359123642739e-04   1.730377097800e-04   2.576125165231e-05 
8
Step 33000
1 1  1.166685439378e-04  -2.021640477202e-04   5.839394506903e-05 
2 1  6.312202963646e-05  -1.086750095190e-04   7.464560912123e-06 
3 1  1.323017787799e-05  -5.821721492908e-05   1.008670013225e-04 
4 1  4.617852069037e-05   6.109922047639e-05  -6.399256508753e-05 
5 1  1.180139133335e-05  -6.202074154951e-08  -1.944212630851e-06 
6 1  8.981178648530e-05   2.984378715326e-04   1.476049385995e-04 
7 1 -1.818427924272e-04  -1.462845685505e-04  -2.198413125956e-04 
8 1 -1.374877194641e-04   1.488823099892e-04   1.637431831919e-04 
8
Step 34000
1 1  1.361325014691e-04   8.772603518191e-05   5.430563717381e-07 
2 1  2.218048913391e-04  -2.036551601399e-04  -7.056706125755e-05 
3 1  3.550884878592e-04   7.411454450913e-05   4.422819512293e-05 
4 1  1.093445458957e-04  -4.330990361753e-05  -2.126095896457e-04 
5 1  7.705479194355e-05  -4.129919370068e-05  -2.378048354029e-05 
6 1 -6.843802747238e-05   1.955695153865e-04   3.043103749032e-04 
7 1  3.085756502069e-04   1.819942697449e-05  -3.572285366213e-06 
8 1  7.211328607193e-05   1.399648052195e-05  -2.035245892504e-05 
8
Step 35000
1 1  8.216977277728e-05   4.197662789636e-05   2.126479292282e-04 
2 1  1.703660932534e-04  -1.964144936548e-04   1.189523823732e-04 
3 1  1.148882173814e-04  -6.657685032829e-05  -6.983586446978e-05 
4 1 -1.716788488597e-04   9.133676811721e-05  -5.640985597005e-06 
5 1  1.874611844511e-04   4.795485909871e-05  -5.400144067178e-05 
6 1  2.592234619923e-05   2.171894674330e-04   1.533868914047e-04 
7 1  1.072071891216e-04  -2.023524113949e-06  -1.887300723736e-05 
8 1  9.197755690502e-06  -7.138068946382e-05   1.190199653032e-04 
8
Step 36000
1 1  6.132301937577e-05   4.930606138428e-05  -5.743604608644e-05 
2 1  1.999318916195e-04  -7.692695709881e-05   1.221753108659e-05 
3 1 -1.654784566021e-04  -1.854321203969e-04  -2.365969365768e-04 
4 1 -1.229400189382e-04   1.690431714545e-04   7.917340648832e-05 
5 1  1.389091334605e-04  -9.691375663129e-06  -3.092979965801e-04 
6 1  6.155814307739e-05   1.195080810892e-04  -8.969473929856e-07 
7 1 -4.512573931452e-05  -1.222192340796e-04   1.716763402238e-04 
8 1  1.390193201789e-04   1.310324273785e-04  -1.326754472867e-04 
8
Step 37000
1 1  5.641984867499e-05   1.071902666072e-05  -2.270558772367e-05 
2 1  2.011364206150e-04  -8.058091281404e-05   8.715032549012e-06 
3 1  4.438065669491e-05  -2.433696365347e-04  -9.381278692595e-05 
4 1  9.691743718982e-05   1.341146000556e-04   7.939598110331e-05 
5 1 -1.572640712990e-04   6.977857301126e-05  -9.555780469225e-05 
6 1 -1.862670637260e-05   1.608069046487e-04   2.025413953861e-04 
7 1 -8.443484140867e-05  -1.444804683190e-04   4.579642492458e-04 
8 1  2.557107858992e-04   3.983201417174e-05   7.441751733364e-05 
8
Step 38000
1 1 -2.724761678339e-06   1.710637894318e-04  -2.819032901278e-04 
2 1 -7.883210072885e-05  -3.230383364916e-05  -3.434802713094e-05 
3 1 -9.125866570719e-05   3.883714018842e-05  -5.867671942502e-05 
4 1 -1.219166295841e-04   9.698469744933e-05   9.872437773369e-05 
5 1 -1.498065378900e-05  -3.034967837035e-05   2.706961913050e-04 
6 1  3.896873933777e-05   3.920357745168e-05  -1.385607421678e-04 
7 1 -5.702658736556e-05  -2.412107518988e-04  -1.452247756555e-05 
8 1  5.332370152174e-05   7.676461952572e-06   6.751132131964e-05 
8
Step 39000
1 1 -8.557154935673e-05   6.902691175574e-05  -3.354235831064e-05 
2 1  1.720927038354e-04  -3.706381804184e-05   4.302226799180e-05 
3 1  1.172517933407e-04  -6.371699815422e-06   2.858543247204e-05 
4 1  1.861983831424e-04   2.235803483999e-04   1.746434048545e-04 
5 1  4.645558216099e-05   8.930503312527e-05   1.571485451336e-04 
6 1 -2.509900063094e-04   6.743082449323e-05   3.726116655497e-05 
7 1  2.108532154267e-04  -4.505462525557e-05  -4.865620497739e-05 
8 1  7.876528082739e-05   1.052295245623e-04   4.192353862604e-04 
8
Step 40000
1 1 -2.288520662221e-04   3.693519739254e-05  -1.780470537745e-04 
2 1 -1.047265742914e-04   8.526633184715e-05   1.337355377589e-04 
3 1 -1.447336347313e-04  -1.171079423920e-04  -9.619807956403e-05 
4 1  7.961100963500e-05   1.898302993453e-04   1.888906990769e-04 
5 1 -1.046134819487e-04  -3.721702292982e-05  -4.784971090836e-06 
6 1 -2.811613758384e-04  -1.114363780644e-04   3.587690025982e-04 
7 1  1.490617489638e-04   3.850827101085e-05   2.743549181394e-05 
8 1  1.348902980919e-04  -1.352810937280e-04  -2.399421914016e-05 
8
Step 41000
1 1 -2.322442776458e-04  -1.019751443761e-04   1.195217546981e-04 
2 1  6.103692273323e-05  -2.284067721611e-05   1.837692766252e-04 
3 1 -8.501647454496e-07  -1.880365496555e-05  -1.385836309608e-04 
4 1  3.816343462313e-05  -2.701092727036e-05   1.840202626744e-04 
5 1  6.653467793940e-05   4.903074486195e-05   4.195939132866e-05 
6 1 -5.251482504359e-06   1.065042775510e-04   2.916495939014e-04 
7 1  5.185083850401e-05  -7.029365279378e-05   2.043574663053e-04 
8 1  3.015032056656e-04  -1.521007229498e-05  -1.171650527587e-04 
8
Step 42000
1 1 -3.949547516597e-04  -7.172192198682e-05   7.046543119906e-05 
2 1 -1.750199206950e-04   1.586264069511e-04  -8.481629303714e-05 
3 1 -1.915129640620e-04  -5.214890286205e-05   1.908484940807e-05 
4 1  5.047010701872e-05  -1.949783355341e-04   5.749932063495e-05 
5 1  1.844510613888e-04  -3.527311994350e-05   8.660147122776e-05 
6 1 -3.483590357652e-04  -5.983918830616e-05  -1.634247035678e-05 
7 1  6.548618944176e-05  -1.435060751818e-04   1.994000251762e-04 
8 1  1.653518642008e-04   4.296216746309e-05   5.651030696587e-05 
8
Step 43000
1 1 -1.433677762771e-04  -1.636601748645e-04   3.092911165492e-04 
2 1 -2.040313923736e-04  -1.821757789150e-05  -4.361559078811e-06 
3 1  1.289191872246e-04  -8.041692365013e-05   3.713127822910e-05 
4 1  2.838893080740e-04  -9.483216174860e-05  -1.000513555357e-04 
5 1  1.465985822149e-04  -1.029321739113e-04   1.148546993105e-04 
6 1 -2.419295493139e-04   3.924367939338e-05  -1.737687997883e-05 
7 1 -1.603515378351e-05  -2.552369663163e-05   3.202680291492e-04 
8 1  1.107884272988e-04  -2.423326338629e-05  -7.636855973903e-05 
8
Step 44000
1 1 -3.044625017491e-04  -2.146663857917e-05  -7.241191897786e-05 
2 1 -4.968191166942e-05   4.086610821892e-06   9.416578640410e-05 
3 1 -1.677226097525e-04  -9.561628676382e-05   6.313144692255e-05 
4 1  3.684007065033e-04  -7.088739807179e-05  -6.345959340090e-05 
5 1  6.042221588772e-05  -1.283167320402e-04   6.685463394428e-05 
6 1 -1.634002493571e-04   9.419551329998e-05  -4.175541474898e-06 
7 1 -1.445995896352e-04  -4.815355301156e-05   1.817520505617e-04 
8 1 -3.447458878133e-05   7.695826184624e-05  -2.670081755884e-04 
8
Step 45000
1 1 -2.366758734432e-04  -2.097993215396e-04  -1.752064975324e-04 
2 1  1.004984520893e-04  -1.175077843348e-04   6.824223807382e-05 
3 1  9.397924971293e-05  -1.607945371272e-04   1.008190075197e-04 
4 1  1.951898793413e-04  -2.595915264603e-04   2.996994253502e-05 
5 1  3.189934562671e-04  -3.671373651850e-06  -4.617332933013e-05 
6 1 -3.872141897885e-04  -1.300860547839e-05   2.746576014563e-05 
7 1 -1.390787643641e-04  -1.403415187842e-04   2.043837960160e-04 
8 1 -3.355529272773e-05   2.295921176283e-04  -1.429037803487e-04 
8
Step 46000
1 1 -2.096044211842e-04  -5.993208728702e-05  -4.008877294452e-05 
2 1 -1.972144080778e-04   1.173892713423e-04   7.519194086360e-05 
3 1  1.390028443080e-04   1.807869986794e-04   1.744465053635e-04 
4 1 -1.096258674197e-04  -3.340892781052e-04   2.968519708403e-04 
5 1  2.773407905228e-04   8.547913197878e-05   4.176247331080e-05 
6 1 -1.422298522331e-04   1.430190578549e-04   1.010052748521e-04 
7 1 -5.903783808601e-05   1.547411659584e-04  -4.446119588376e-06 
8 1 -9.914866508848e-05   1.728663167594e-04  -9.961440843468e-05 
8
Step 47000
1 1 -7.064366172205e-05  -1.682576251789e-04   7.715441396938e-05 
2 1 -1.204296425717e-05   6.189443477151e-05  -1.981766434884e-04 
3 1  2.023822606152e-05   1.346132570094e-05   7.108031107139e-06 
4 1  1.529609687633e-04  -2.220877201821e-04   5.879806685310e-05 
5 1  3.036063541282e-04  -1.930466936602e-04  -2.346947123987e-05 
6 1 -2.080682834757e-04   1.206036325538e-04  -1.122496950379e-05 
7 1 -2.481062569977e-04   2.675961215798e-05  -2.020262850820e-05 
8 1 -1.050708124025e-06  -8.939384568511e-05  -2.671032141003e-05 
8
Step 48000
1 1  1.365529361822e-04   1.575328771637e-04   2.860352532209e-04 
2 1  6.938014378469e-07   1.267250084691e-05  -1.105657089109e-04 
3 1 -1.496972580240e-04   6.307141286467e-05   5.106837351736e-05 
4 1 -1.064897073195e-04  -2.417328191127e-04   1.803021695234e-05 
5 1  1.146436731796e-04  -2.127547387338e-04   4.060790498249e-04 
6 1 -5.328968348710e-05   7.893582646658e-05   1.262409760316e-04 
7 1 -7.456638735553e-05  -1.658388464831e-04   6.222502736541e-05 
8 1  5.574218578363e-06   2.072931141972e-04  -2.337215091297e-04 
8
Step 49000
1 1  1.208847332994e-04   1.363350957861e-05   3.867066173555e-05 
2 1 -4.718854920806e-05  -3.350048691314e-04  -2.242844868589e-04 
3 1  7.859078358641e-05   2.984058615772e-04  -1.478014255433e-04 
4 1  1.877763041430e-05  -2.847409088503e-04  -5.457088526110e-05 
5 1  6.587800842616e-05  -1.563874451996e-04   1.093097149013e-04 
6 1 -2.484062257642e-04   3.285373448107e-08   1.324312163096e-04 
7 1 -4.403633503423e-05  -6.612527424532e-05   2.018909630573e-04 
8 1 -7.487593547458e-05   1.460888967155e-04  -2.089050858256e-04 
8
Step 50000
1 1  4.129917005747e-04  -8.063680238997e-05   1.223402641690e-04 
2 1 -3.881856610229e-05  -1.376629983704e-04   3.539680856017e-05 
3 1 -1.669698789075e-05   1.889060038380e-04  -3.908838923285e-05 
4 1 -2.553370591681e-04  -1.361121824049e-04  -2.175922131093e-04 
5 1  6.203850018278e-05   1.258309139404e-04  -1.063663638237e-05 
6 1 -9.813374929971e-05   2.364213605393e-04   1.255663220735e-04 
7 1  3.938230902571e-05  -6.546216307008e-05   1.732418734898e-04 
8 1 -1.043840128998e-04   1.087433983013e-04  -4.583373864186e-05 
8
Step 51000
1 1  1.328659360723e-04  -2.876029698487e-04  -1.147496842212e-04 
2 1  1.143089372508e-04  -5.407674212367e-05  -8.458188177799e-05 
3 1  6.259254771854e-05  -5.068189903270e-05  -1.121736193258e-04 
4 1 -2.131351871745e-04  -3.655458534729e-05  -1.912571807258e-04 
5 1  3.471651942608e-05   8.583843345296e-05   2.530312378157e-05 
6 1 -1.905029166115e-04   1.690350960095e-04  -5.413705166063e-05 
7 1 -5.359479069205e-05   3.221916044777e-05   2.612789456875e-04 
8 1 -6.613039556384e-06   7.531578875637e-05   1.907737105808e-05 
8
Step 52000
1 1  1.121463694779e-04  -1.248815510335e-04  -8.559244785222e-05 
2 1 -7.329402519916e-05  -2.115329848766e-04  -3.507032457143e-04 
3 1 -8.642891769708e-06  -4.293725730413e-05  -1.660299185483e-04 
4 1 -8.484918065973e-05   5.599081591686e-05  -9.718924214577e-05 
5 1  1.949457659547e-04  -8.931910717043e-05  -6.414916745104e-05 
6 1 -3.071652325525e-05   1.488791901358e-04  -1.193919274372e-05 
7 1  1.708564813844e-04   1.104411631579e-04   3.963710248373e-04 
8 1  8.904181621505e-05   1.212851950980e-04   1.135839649637e-04 
8
Step 53000
1 1 -9.636469450817e-05   2.408091652311e-05  -5.214234657651e-06 
2 1 -1.591555601891e-04  -2.342331807673e-04  -1.511529363004e-04 
3 1  1.569794673751e-05   1.179013383044e-04  -1.733836628529e-04 
4 1 -2.741968787646e-05   3.882959545573e-05  -1.431705586598e-05 
5 1  4.216395072618e-05  -2.507238715043e-05   4.713283554027e-05 
6 1  1.089504171653e-04   2.540448511606e-04  -1.594268309780e-05 
7 1  2.248492642253e-04   3.952372805200e-05   8.042890094895e-05 
8 1  1.216185833914e-06   5.241912974238e-05   1.264502688120e-04 
8
Step 54000
1 1 -1.281451898363e-04   1.898354694435e-04  -1.863088933450e-04 
2 1 -8.957728578391e-05  -1.454534588755e-04  -1.916811752767e-04 
3 1  1.812668502273e-04  -6.765401621161e-05  -3.003214856354e-04 
4 1 -1.412504723040e-04  -7.836572257437e-05  -1.633533223348e-04 
5 1  1.571727385148e-04  -5.632236858165e-05   1.635612358154e-05 