8
Step 0
1 1  0.000000000000e+00   0.000000000000e+00   0.000000000000e+00 
2 1  0.000000000000e+00   0.000000000000e+00   0.000000000000e+00 
3 1  0.000000000000e+00   0.000000000000e+00   0.000000000000e+00 
4 1  0.000000000000e+00   0.000000000000e+00   0.000000000000e+00 
5 1  0.000000000000e+00   0.000000000000e+00   0.000000000000e+00 
6 1  0.000000000000e+00   0.000000000000e+00   0.000000000000e+00 
7 1  0.000000000000e+00   0.000000000000e+00   0.000000000000e+00 
8 1  0.000000000000e+00   0.000000000000e+00   0.000000000000e+00 
8
Step 1000
1 1 -8.762289195498e-05  -5.676730094432e-05   6.682603618883e-05 
2 1 -1.421438723078e-04   1.525737238787e-04   1.573887044676e-04 
3 1  1.322942298199e-04  -1.488615860142e-06   8.131385037542e-05 
4 1 -6.313566495382e-05  -1.079532153825e-05   1.540274902377e-05 
5 1 -1.333301346270e-04  -5.499197572504e-05   5.928923855691e-05 
6 1 -7.826041141162e-05  -2.988892148435e-06  -6.960869390482e-05 
7 1 -1.086220024843e-04   2.217495376481e-05   1.095637465732e-04 
8 1 -2.331136787884e-05  -1.328706950327e-05   1.700729534396e-04 
8
Step 2000
1 1 -6.877530145333e-05  -8.593672128466e-05   3.678413197749e-05 
2 1 -8.592287029372e-05   5.724644988319e-05   1.521954256056e-04 
3 1  1.253474516864e-04   2.630196192794e-05   1.142426946166e-04 
4 1 -3.331047248636e-05   4.696495971948e-05  -6.684533165003e-05 
5 1 -4.180553673916e-05   5.117254779351e-05   7.475669057589e-05 
6 1 -6.448744183518e-05  -3.569420273744e-05  -1.189910590554e-05 
7 1 -1.030583090249e-04   2.140729134448e-05   5.450831520310e-05 
8 1  6.277787016234e-05  -7.302368072754e-05   1.263076629675e-04 
8
Step 3000
1 1 -1.565075037120e-05  -8.666622930586e-05  -7.757432229793e-06 
2 1  1.367340831213e-05  -5.979079407435e-05   8.442821504616e-05 
3 1  6.796107132903e-05   4.504516794989e-05   9.646977974674e-05 
4 1  7.980351842850e-06   7.399778683315e-05  -1.361333081316e-04 
5 1  5.419811405984e-05   1.214229356951e-04   5.014375209876e-05 
6 1 -3.076437422889e-05  -5.717219462485e-05   6.514764232025e-05 
7 1 -5.450048620862e-05   2.441826252161e-05  -2.625615611809e-05 
8 1  1.230608608856e-04  -8.499628132131e-05   2.900916960001e-05 
8
Step 4000
1 1  4.024333822552e-05  -5.184040796824e-05  -4.399638230605e-05 
2 1  9.957990608879e-05  -1.315762928856e-04  -5.476248245436e-06 
3 1 -6.346406636380e-06   4.889843760594e-05   3.874603785134e-05 
4 1  3.611889707134e-05   6.627568871464e-05  -1.611739483232e-04 
5 1  1.064216153677e-04   1.309362634240e-04   6.732752881067e-07 
6 1  6.964256697005e-06  -6.342865741698e-05   1.164538602889e-04 
7 1  2.363499229828e-05   3.138266546410e-05  -9.559782333277e-05 
8 1  1.388567075695e-04  -4.066681965659e-05  -7.129548362228e-05 
8
Step 5000
1 1  6.673596648221e-05   1.037102394292e-05  -5.470096558032e-05 
2 1  1.268851028814e-04  -1.237123061657e-04  -7.293668570181e-05 
3 1 -6.086453834880e-05   3.600639798403e-05  -3.154598727042e-05 
4 1  3.845844124869e-05   3.520849878470e-05  -1.270637279234e-04 
5 1  9.606490562366e-05   8.776346094830e-05  -4.590339135423e-05 
6 1  3.354067527905e-05  -5.463863033490e-05   1.091927595302e-04 
7 1  1.000070499739e-04   3.546380228015e-05  -1.216883632535e-04 
8 1  1.115593547186e-04   3.301938660597e-05  -1.284832888177e-04 
8
Step 6000
1 1  4.893974728692e-05   7.690354869437e-05  -3.687100327951e-05 
2 1  8.689705282799e-05  -4.893836377911e-05  -9.313797911879e-05 
3 1 -7.251886983307e-05   9.120453939590e-06  -8.295317772624e-05 
4 1  1.892994674521e-05  -1.651629228602e-06  -4.399630171341e-05 
5 1  3.985133255122e-05   1.980550461179e-05  -6.656269548210e-05 
6 1  4.141400380167e-05  -3.261132666471e-05   4.094495688014e-05 
7 1  1.423630238336e-04   2.734425684987e-05  -9.621194447416e-05 
8 1  5.580479239894e-05   9.282137225322e-05  -1.226699461615e-04 
8
Step 7000
1 1 -1.665588129001e-06   1.206355388926e-04  -4.035322533595e-06 
2 1  6.044207393024e-06   4.561730193699e-05  -6.683142971838e-05 
3 1 -4.121337477027e-05  -2.459078051644e-05  -9.456987340366e-05 
4 1 -5.860283299055e-06  -2.862338712361e-05   5.352032975941e-05 
5 1 -2.396613406406e-05  -4.135888816842e-05  -5.216494907117e-05 
6 1  3.118537968195e-05  -2.153591218645e-06  -5.855381235183e-05 
7 1  1.322444033008e-04   2.153535902864e-06  -3.571888922278e-05 
8 1 -8.403764729745e-06   1.059474199758e-04  -6.492777230101e-05 
8
Step 8000
1 1 -5.489930468688e-05   1.230350258584e-04   2.358589255081e-05 
2 1 -7.085254384040e-05   1.059917420408e-04  -1.518393193640e-05 
3 1  1.177922364108e-05  -5.528351429785e-05  -6.484031301472e-05 
4 1 -1.794047016706e-05  -3.876066107095e-05   1.240930464604e-04 
5 1 -5.949080374387e-05  -7.181112398857e-05  -1.034030573999e-05 
6 1  1.071785103061e-05   2.978805781085e-05  -1.419236729242e-04 
7 1  7.288163041943e-05  -3.458153694366e-05   2.831658535178e-05 
8 1 -6.033108666472e-05   6.597972851363e-05   1.184401403707e-05 
8
Step 9000
1 1 -7.946289435528e-05   7.992861204609e-05   3.284569696914e-05 
2 1 -1.057879295885e-04   1.023485377294e-04   3.357069986838e-05 
3 1  5.505949831801e-05  -7.196201163457e-05  -9.668355162939e-06 
4 1 -1.030766283155e-05  -3.485040051272e-05   1.423762190375e-04 
5 1 -5.077353158816e-05  -6.432235824534e-05   3.848143923074e-05 
6 1 -7.565881868213e-06   5.644517135098e-05  -1.691496374944e-04 
7 1 -9.550967319472e-06  -6.729953347836e-05   6.520967258827e-05 
8 1 -8.638635171196e-05  -4.831459573679e-06   7.084464819735e-05 
8
Step 10000
1 1 -5.828009871483e-05   2.342769317411e-06   2.326287209858e-05 
2 1 -8.594203523923e-05   4.222787525848e-05   5.846365235074e-05 
3 1  6.335581808204e-05  -6.458005362884e-05   4.699925828414e-05 
4 1  9.967647907382e-06  -2.393374464986e-05   1.082643497783e-04 
5 1 -7.178144213397e-06  -2.870772324280e-05   7.156443291772e-05 
6 1 -1.355334365995e-05   7.100916355819e-05  -1.251878505645e-04 
7 1 -7.833506671001e-05  -7.951515132124e-05   6.227938670172e-05 
8 1 -8.363033205662e-05  -7.044850599537e-05   8.904969646079e-05 
8
Step 11000
1 1  2.633283658815e-06  -8.418838644746e-05   4.221103430263e-06 
2 1 -2.689755374411e-05  -3.737193165264e-05   5.313002912005e-05 
3 1  2.971641449028e-05  -2.866067687936e-05   8.336809885008e-05 
4 1  2.752916559225e-05  -1.200097716484e-05   4.313700187706e-05 
5 1  4.267557379466e-05   1.478230460966e-05   7.357717725339e-05 
6 1 -5.100146123864e-06   6.700870060461e-05  -2.327657547152e-05 
7 1 -1.066951684876e-04  -6.400592463401e-05   3.072846901613e-05 
8 1 -5.643104974216e-05  -1.012422275106e-04   6.434809487878e-05 
8
Step 12000
1 1  7.416748315783e-05  -1.473753929515e-04  -1.021056411727e-05 
2 1  3.768837767993e-05  -9.121442054328e-05   2.522867704502e-05 
3 1 -3.186112791113e-05   3.005929329819e-05   8.618507167916e-05 
4 1  2.792323833251e-05  -1.351611612650e-06  -2.148080923263e-05 
5 1  6.718644767777e-05   4.419148291922e-05   4.221402790033e-05 
6 1  1.148212395151e-05   4.206383581006e-05   9.758363754922e-05 
7 1 -8.925700347643e-05  -2.643551854170e-05  -4.578259832403e-06 
8 1 -1.410905903471e-05  -8.531620385644e-05   1.222595469784e-05 
8
Step 13000
1 1  1.187280306001e-04  -1.626216894325e-04  -1.007827768401e-05 
2 1  7.632178224514e-05  -9.148643357144e-05  -1.025139855071e-05 
3 1 -9.207159011713e-05   9.355094755137e-05   5.419450450566e-05 
4 1  6.133152128978e-06   9.617489952634e-06  -6.000119687433e-05 
5 1  4.924472542519e-05   4.571073881660e-05  -9.928973697293e-06 
6 1  2.505319293627e-05   1.565046728491e-06   1.853462505048e-04 
7 1 -4.019957950958e-05   1.775527053558e-05  -2.153951342722e-05 
8 1  2.949508606210e-05  -3.187089673456e-05  -4.241666448413e-05 
8
Step 14000
1 1  1.107882662941e-04  -1.217799293267e-04   2.433949251610e-06 
2 1  7.494909746406e-05  -4.146630663830e-05  -3.862176687758e-05 
3 1 -1.184586190344e-04   1.351422360050e-04  -1.416167573498e-06 
4 1 -2.888240677396e-05   2.309963989531e-05  -6.408157399857e-05 
5 1 -5.290127827062e-06   2.012877262006e-05  -6.049656049458e-05 
6 1  2.513851753012e-05  -4.297275734964e-05   2.011820365108e-04 
7 1  1.577983891215e-05   5.158186085317e-05  -1.293370586569e-05 
8 1  6.006952367091e-05   3.304514078068e-05  -7.524775174983e-05 
8
Step 15000
1 1  4.828284454933e-05  -3.535108033102e-05   1.534738200763e-05 
2 1  4.011214498325e-05   2.945636379580e-05  -5.106734855128e-05 
3 1 -9.069514998308e-05   1.300601855275e-04  -6.047750327968e-05 
4 1 -5.688359308623e-05   3.639023345992e-05  -4.242054189068e-05 
5 1 -6.959816896579e-05  -1.846138825915e-05  -8.820340212845e-05 
6 1  6.808811788373e-06  -7.815965580308e-05   1.373480035743e-04 
7 1  5.444419532029e-05   6.444118026900e-05   1.114713828286e-05 
8 1  6.853786583693e-05   8.017584771125e-05  -7.221125472610e-05 
8
Step 16000
1 1 -4.289431459280e-05   6.450958070329e-05   1.626259960145e-05 
2 1 -7.403663386865e-06   8.258016397718e-05  -4.626319259156e-05 
3 1 -1.300636246321e-05   6.943587934398e-05  -9.977946921037e-05 
4 1 -5.764106381187e-05   4.093344866413e-05  -1.277382871643e-05 
5 1 -1.079256522160e-04  -4.900383785362e-05  -8.162311412801e-05 
6 1 -2.546233654635e-05  -9.128760771413e-05   1.830910209418e-05 
7 1  6.095668736127e-05   5.441071807710e-05   3.102561694024e-05 
8 1  5.392018719328e-05   9.038615090861e-05  -3.521408780396e-05 
8
Step 17000
1 1 -1.169808457143e-04   1.340148225553e-04   2.610759851911e-07 
2 1 -4.421428412278e-05   8.990997685527e-05  -2.770050411325e-05 
3 1  8.167218481464e-05  -2.762955064073e-05  -1.015702123213e-04 
4 1 -2.407789188731e-05   2.789836174076e-05   8.001674346386e-06 
5 1 -9.521275128779e-05  -5.330224255750e-05  -4.345250110724e-05 
6 1 -5.728669176466e-05  -7.539345095210e-05  -1.052236431825e-04 
7 1  3.470436040723e-05   2.684402854204e-05   2.968065905224e-05 
8 1  2.281431144121e-05   6.115734523989e-05   1.922490095541e-05 
8
Step 18000
1 1 -1.371530834878e-04   1.462729893863e-04  -2.673556053222e-05 
2 1 -5.552211054138e-05   4.705280628179e-05  -4.034417973852e-07 
3 1  1.469923333686e-04  -1.185337582740e-04  -6.499162450743e-05 
4 1  3.160829688640e-05  -4.509146400737e-06   1.169563920436e-05 
5 1 -3.283538545552e-05  -2.686065232207e-05   9.546266875362e-06 
6 1 -7.184441160276e-05  -3.544325873141e-05  -1.781315283026e-04 
7 1 -1.032386921287e-05  -7.659021411208e-06   2.731484980157e-06 
8 1 -1.291677835392e-05   7.536441075472e-06   6.698704947752e-05 
8
Step 19000
1 1 -9.671774599395e-05   1.048334942731e-04  -4.961393044360e-05 
2 1 -4.012968868108e-05  -2.549395759780e-05   2.935862590016e-05 
3 1  1.520200885722e-04  -1.628368069143e-04  -7.882894431841e-06 
4 1  8.158625019863e-05  -4.607851070860e-05   2.063435513389e-06 
5 1  5.065583745075e-05   1.770050655267e-05   5.420920397204e-05 
6 1 -5.945868430177e-05   1.366036615049e-05  -1.730408892531e-04 
7 1 -5.030523016117e-05  -3.706976744038e-05  -3.756698236269e-05 
8 1 -4.055590478624e-05  -4.449135800941e-05   8.658473499693e-05 
8
Step 20000
1 1 -1.820268919019e-05   3.541343951511e-05  -5.174322426755e-05 
2 1 -8.859761618316e-06  -9.150102859143e-05   5.407231468335e-05 
3 1  9.598245224800e-05  -1.428910887704e-04   4.474937668261e-05 
4 1  9.664582732158e-05  -7.658365964532e-05  -8.359950835714e-06 
5 1  1.151817823100e-04   5.805841362155e-05   7.388276879701e-05 
6 1 -2.124805741584e-05   5.437882897016e-05  -1.020154600388e-04 
7 1 -6.280196674059e-05  -5.260972261135e-05  -6.799151292897e-05 
8 1 -5.184242777282e-05  -7.143275150846e-05   6.866345528177e-05 
8
Step 21000
1 1  5.886750725062e-05  -2.834684338569e-05  -2.576559537329e-05 
2 1  2.211249379797e-05  -1.153432078563e-04   6.582056371966e-05 
3 1  5.667602907524e-06  -6.875017353273e-05   7.242356106196e-05 
4 1  6.373384893383e-05  -7.680512064523e-05  -7.217943444105e-06 
5 1  1.304431024457e-04   7.310712121021e-05   6.535329066346e-05 
6 1  3.013147548871e-05   7.286577742604e-05  -4.909253812708e-06 
7 1 -3.899891042276e-05  -5.079542599186e-05  -6.792444230867e-05 
8 1 -4.550626417516e-05  -6.286967960908e-05   1.979531416462e-05 
8
Step 22000
1 1  9.769489513621e-05  -6.117202835149e-05   2.090549739512e-05 
2 1  3.885659144239e-05  -7.998770556026e-05   5.773701969771e-05 
3 1 -7.597172530790e-05   2.504872169249e-05   6.702727115302e-05 
4 1 -5.411926904236e-06  -4.022009521456e-05   9.225324682716e-06 
5 1  9.012834325865e-05   5.322857395429e-05   3.735258797484e-05 
6 1  7.421936206867e-05   6.497128882938e-05   7.187664971533e-05 
7 1  1.165450183498e-05  -3.365319286820e-05  -3.131025833626e-05 
8 1 -2.628624991588e-05  -2.530560523187e-05  -4.072287806695e-05 
8
Step 23000
1 1  8.378354939410e-05  -5.817259940358e-05   6.864705898810e-05 
2 1  3.562201794911e-05   2.177916307902e-06   2.741872462476e-05 
3 1 -1.126704047205e-04   9.608721540884e-05   3.659642679391e-05 
4 1 -7.860498747555e-05   2.121197537143e-05   3.339349999847e-05 
5 1  1.439848410905e-05   6.567662220780e-06   5.217021962697e-06 
6 1  9.342978508617e-05   3.803048696211e-05   9.858094603645e-05 
7 1  6.527897904597e-05  -8.298196471474e-06   2.844060493823e-05 
8 1 -2.161887526576e-06   2.076557706130e-05  -8.793170895447e-05 
8
Step 24000
1 1  3.112065619833e-05  -3.391152313081e-05   9.325648831132e-05 
2 1  1.725081794061e-05   9.301336644568e-05  -1.901575306983e-05 
3 1 -9.504775499160e-05   1.175191393041e-04  -1.760436393274e-07 
4 1 -1.197070527693e-04   8.101272302301e-05   5.047453023956e-05 
5 1 -6.100574840550e-05  -4.490676518396e-05  -1.730943937618e-05 
6 1  8.091293289558e-05   5.771825637453e-06   7.485804982955e-05 
7 1  9.420424452501e-05   1.588108720453e-05   8.351548915389e-05 
8 1  1.880374747478e-05   5.090452749733e-05  -1.014628929720e-04 
8
Step 25000
1 1 -2.809586055775e-05  -9.978111558476e-06   7.750380079267e-05 
2 1 -4.249133823993e-06   1.477189230050e-04  -6.752066179952e-05 
3 1 -4.078676807906e-05   8.782459900693e-05  -2.530101943429e-05 
4 1 -1.081253606761e-04   1.115139145688e-04   4.702649865753e-05 
5 1 -1.040551965711e-04  -7.733256674172e-05  -2.544591261561e-05 
6 1  4.104712157162e-05  -1.866389496161e-05   2.473946685702e-05 
7 1  8.088660244807e-05   3.134200483694e-05   1.059027624106e-04 
8 1  3.148905007227e-05   4.946749729149e-05  -7.429459593659e-05 
8
Step 26000
1 1 -6.193165679342e-05  -6.865584794843e-07   2.178157071947e-05 
2 1 -1.729237287974e-05   1.367462529610e-04  -1.009989708516e-04 
3 1  1.830459310662e-05   2.669346356589e-05  -2.973123634608e-05 
4 1 -4.793160833386e-05   9.680521395156e-05   1.902849617722e-05 
5 1 -1.004192115669e-04  -7.503330056466e-05  -2.386752659979e-05 
6 1 -1.259497075144e-05  -2.840166409310e-05  -1.991390244004e-05 
7 1  2.682823398413e-05   3.462378647149e-05   8.156931198585e-05 
8 1  3.478483699575e-05   1.749692331248e-05  -1.511913608712e-05 
8
Step 27000
1 1 -5.436452927541e-05  -6.438015685308e-06  -5.363214071689e-05 
2 1 -1.688698871002e-05   5.978695541968e-05  -1.042821854327e-04 
3 1  5.248676244296e-05  -3.542446168574e-05  -1.612119201672e-05 
4 1  3.378972551673e-05   4.025294501825e-05  -2.400086559793e-05 
5 1 -5.688429592746e-05  -3.736640069334e-05  -2.120481638118e-05 
6 1 -6.191390450915e-05  -2.523591822011e-05  -3.644320372547e-05 
7 1 -4.711764021774e-05   2.699633258599e-05   1.809204517130e-05 
8 1  3.042662018714e-05  -2.731859709283e-05   5.464777060455e-05 
8
Step 28000
1 1 -1.242773783696e-05  -1.637053372446e-05  -1.162189816871e-04 
2 1 -6.744118589805e-06  -5.042242702478e-05  -7.065538551559e-05 
3 1  4.844694039875e-05  -7.157373870961e-05   4.014351638785e-06 
4 1  9.867205774529e-05  -3.458504990070e-05  -6.225538462404e-05 
5 1  3.321218940783e-06   1.948810084830e-05  -2.325134865782e-05 
6 1 -9.162122597891e-05  -1.693577465001e-05  -2.143177871296e-05 
7 1 -1.090972185050e-04   1.405769200663e-05  -5.653467397169e-05 
8 1  2.091048928019e-05  -5.893187434991e-05   1.080988102281e-04 
8
Step 29000
1 1  3.801550383266e-05  -1.707305701522e-05  -1.352242827265e-04 
2 1  3.644467762582e-06  -1.415967801464e-04  -8.606669634315e-06 
3 1  1.466088818925e-05  -6.965487395191e-05   1.731402660255e-05 
4 1  1.175415180639e-04  -9.520475605994e-05  -7.660919153233e-05 
5 1  5.207509146427e-05   6.952567230093e-05  -2.866011756612e-05 
6 1 -9.394646717953e-05  -1.169631304711e-05   1.028865303830e-05 
7 1 -1.316645517104e-04   3.133631450027e-06  -1.074967300073e-04 
8 1  8.198029936341e-06  -5.641802107972e-05   1.235293778091e-04 
8
Step 30000
1 1  6.668437703667e-05  -2.253763300575e-06  -9.588553961603e-05 
2 1  5.838269265662e-06  -1.710960938122e-04   6.050177587429e-05 
3 1 -2.513406767693e-05  -3.540143174090e-05   1.567220660347e-05 
4 1  8.451164725924e-05  -1.163609359225e-04  -5.871187042594e-05 
5 1  7.066014350608e-05   8.971285877192e-05  -2.899255163454e-05 
6 1 -6.835699463519e-05  -1.351325572826e-05   3.585956443473e-05 
7 1 -1.039350245212e-04  -8.669770852344e-07  -1.107751956790e-04 
8 1 -6.890309431519e-06  -1.551665541899e-05   9.282130889554e-05 
8
Step 31000
1 1  5.526202887362e-05   2.245715872711e-05  -8.668589050734e-06 
2 1 -2.239301317865e-06  -1.264776493092e-04   1.125693582125e-04 
3 1 -4.576550288969e-05   1.245109398202e-05  -2.384615402512e-07 
4 1  1.699325075209e-05  -8.949963632293e-05  -1.477045738908e-05 
5 1  5.785846529161e-05   7.029652797053e-05  -1.426916651011e-05 
6 1 -2.004338819372e-05  -2.004414980233e-05   3.695237593906e-05 
7 1 -3.471178893452e-05   1.841341369074e-06  -6.359270085483e-05 
8 1 -2.340673063386e-05   4.664041631633e-05   2.510878992632e-05 
8
Step 32000
1 1  7.838959411463e-06   4.242519574736e-05   9.097143357801e-05 
2 1 -1.492678350189e-05  -2.848777334509e-05   1.289474071250e-04 
3 1 -3.363122164930e-05   5.147638360003e-05  -2.187951730615e-05 
4 1 -5.256124027870e-05  -2.625135098819e-05   3.571998627743e-05 
5 1  2.704174944451e-05   1.863473459546e-05   1.797130711104e-05 
6 1  4.002370611124e-05  -2.334302259985e-05   9.249006308424e-06 
7 1  4.977380424276e-05   6.115597048997e-06   1.269950528285e-05 
8 1 -3.804574138814e-05   9.737326265178e-05  -5.413719075393e-05 
8
Step 33000
1 1 -5.082521634397e-05   4.376656448092e-05   1.581833175257e-04 
2 1 -2.181031527087e-05   7.718179202811e-05   1.029163329114e-04 
3 1  6.979733442663e-06   6.499126098634e-05  -3.704291733053e-05 
4 1 -9.180196559934e-05   4.531931126181e-05   6.838665032011e-05 
5 1 -2.999856127573e-06  -4.325775931801e-05   5.794356672215e-05 
6 1  9.533073159679e-05  -1.450081263429e-05  -3.426119847562e-05 
7 1  1.162353215369e-04   4.405510663255e-06   8.067852187275e-05 
8 1 -4.554743977946e-05   1.061020854620e-04  -1.135303496013e-04 
8
Step 34000
1 1 -8.953254977988e-05   2.376042719998e-05   1.614537263326e-04 
2 1 -1.541949686984e-05   1.418969406008e-04   4.373355104482e-05 
3 1  5.584538763904e-05   4.776612119009e-05  -3.572050906964e-05 
4 1 -8.483214399875e-05   9.397983920753e-05   6.702326479462e-05 
5 1 -1.842763625600e-05  -8.826439112102e-05   8.676037205805e-05 
6 1  1.277887624082e-04   9.954132126804e-06  -6.962013542511e-05 
7 1  1.407991904870e-04  -8.476912428561e-06   1.070739371760e-04 
8 1 -4.106865343277e-05   6.194415682407e-05  -1.308746161391e-04 
8
Step 35000
1 1 -8.652526008423e-05  -6.571531898815e-06   9.575604931236e-05 
2 1  2.694157698644e-06   1.398429711013e-04  -2.706004221968e-05 
3 1  8.615003860086e-05   6.714897083697e-06  -1.496254422287e-05 
4 1 -3.843184817370e-05   9.926339177131e-05   3.195882118922e-05 
5 1 -1.735486509789e-05  -9.729825010179e-05   8.472564268680e-05 
6 1  1.238000381536e-04   4.465711227488e-05  -7.585964088977e-05 
7 1  1.171513842194e-04  -3.022610809409e-05   7.968329141335e-05 
8 1 -2.246325658539e-05  -1.914235769602e-05  -1.016147935940e-04 
8
Step 36000
1 1 -4.005671950452e-05  -2.852495671771e-05  -1.377886428911e-05 
2 1  2.326805867810e-05   7.859526340946e-05  -8.492681789307e-05 
3 1  7.718111140749e-05  -4.230655459584e-05   1.949824866778e-05 
4 1  2.241269422638e-05   5.970462218148e-05  -1.935862053561e-05 
5 1 -8.469946632236e-06  -6.679024058766e-05   4.329264516146e-05 
6 1  7.904121869165e-05   7.613667542304e-05  -4.673160489167e-05 
7 1  5.563658850824e-05  -5.036158860717e-05   1.227031393991e-05 
8 1  6.364043934077e-06  -1.000131627645e-04  -4.036272094528e-05 
8
Step 37000
1 1  2.817765681135e-05  -2.713662219864e-05  -1.177204266874e-04 
2 1  3.479398829165e-05  -8.928599456391e-06  -1.111783505434e-04 
3 1  2.501207448184e-05  -8.012646077332e-05   5.482137714954e-05 
4 1  6.646107849393e-05  -5.575243571142e-06  -5.931697999864e-05 
5 1 -3.366176605887e-06  -7.960492274216e-06  -2.622028871108e-05 
6 1  3.034971465337e-06   8.734265559069e-05   5.219374953951e-06 
7 1 -2.056915386226e-05  -5.500072433427e-05  -6.057455011077e-05 
8 1  3.500653754900e-05  -1.412968514811e-04   2.531996050452e-05 
8
Step 38000
1 1  8.387919899114e-05  -1.462559457860e-06  -1.673675579986e-04 
2 1  2.898226919573e-05  -8.186372064310e-05  -9.877987521157e-05 
3 1 -5.324325943299e-05  -9.060497924733e-05   7.542853446398e-05 
4 1  7.250632059863e-05  -6.524034815842e-05  -6.417496527271e-05 
5 1 -8.721403668917e-06   5.603592526385e-05  -9.593770107239e-05 
6 1 -7.892746475045e-05   6.655263536299e-05   5.352878095435e-05 
7 1 -8.407510931681e-05  -3.474618997326e-05  -9.978896805781e-05 
8 1  5.207750725261e-05  -1.231929068222e-04   6.969307243881e-05 
8
Step 39000
1 1  9.992758577386e-05   3.237574396736e-05  -1.416177658126e-04 
2 1  5.716777136090e-06  -1.095041234229e-04  -5.374091588690e-05 
3 1 -1.246567049385e-04  -6.694591448285e-05   6.971918488374e-05 
4 1  3.974508735020e-05  -9.107018396582e-05  -2.775555702991e-05 
5 1 -2.186275442347e-05   9.917994412007e-05  -1.349852990133e-04 
6 1 -1.354140646449e-04   1.635765675988e-05   7.288211727707e-05 
7 1 -1.144553477446e-04   7.482223493847e-06  -8.343297170882e-05 
8 1  5.056185597206e-05  -5.477792334856e-05   8.108703342135e-05 
8
Step 40000
1 1  6.928488845248e-05   4.807696859662e-05  -5.415406226134e-05 
2 1 -2.380277898883e-05  -8.417747357979e-05   6.667945548410e-06 
3 1 -1.553635256516e-04  -1.511068147893e-05   3.627720442956e-05 
4 1 -1.389861310070e-05  -7.063555014582e-05   3.379425497374e-05 
5 1 -3.363385413725e-05   1.048691189291e-04  -1.230937509660e-04 
6 1 -1.451272725257e-04  -4.645532838724e-05   5.540645228665e-05 
7 1 -1.051450309514e-04   5.483450176602e-05  -1.974533030613e-05 
8 1  3.060029132613e-05   3.185778639454e-05   6.360808539762e-05 
8
Step 41000
1 1  8.437627700475e-06   2.554245147199e-05   5.279004535923e-05 
2 1 -4.152876484815e-05  -2.421752869898e-05   5.940535475691e-05 
3 1 -1.274611465252e-04   4.745079298695e-05  -1.386247816215e-05 
4 1 -6.121098170044e-05  -1.219768142919e-05   8.807628281649e-05 
5 1 -3.500933540815e-05   7.095631408038e-05  -6.043238229595e-05 
6 1 -1.052363527789e-04  -9.833453484921e-05   1.481101692837e-05 
7 1 -6.521374452245e-05   8.509184441595e-05   5.586482229189e-05 
8 1  1.066399321724e-06   9.890505761607e-05   3.199429662746e-05 
8
Step 42000
1 1 -4.954288783834e-05  -3.208693570764e-05   1.253272235353e-04 
2 1 -3.574814204339e-05   3.932948683579e-05   8.543138295403e-05 
3 1 -5.033046422787e-05   9.734583386472e-05  -6.016956405033e-05 
4 1 -7.740188135539e-05   5.804043684138e-05   1.007704642178e-04 
5 1 -2.115776490133e-05   8.955169718432e-06   2.934191630437e-05 
6 1 -3.110439145222e-05  -1.177388492593e-04  -2.280407344270e-05 
7 1 -1.291723942478e-05   8.286263869844e-05   1.010742486060e-04 
8 1 -2.453054232425e-05   1.210198024877e-04   3.018398872687e-06 
8
Step 43000
1 1 -7.455677114973e-05  -9.679940708385e-05   1.278690719114e-04 
2 1 -7.518557152859e-06   7.907656922531e-05   7.715905069114e-05 
3 1  4.063496904998e-05   1.163579104442e-04  -8.298094986539e-05 
4 1 -5.185667980530e-05   1.058771287579e-04   5.247021302877e-05 
5 1  4.898404584369e-06  -5.625688312956e-05   1.077265857947e-04 
6 1  4.867861013385e-05  -9.438184843081e-05  -3.472551388491e-05 
7 1  3.363686269253e-05   4.627422990917e-05   9.038379286502e-05 
8 1 -3.562930137639e-05   9.486530998108e-05  -1.290358602830e-05 
8
Step 44000
1 1 -5.717069459267e-05  -1.288498477499e-04   6.360340890239e-05 
2 1  3.099102942718e-05   8.073661828393e-05   4.069375229193e-05 
3 1  1.033571448416e-04   1.017045347556e-04  -7.602776715609e-05 
4 1  5.904097366235e-06   1.030296809434e-04  -4.762128564205e-05 
5 1  3.164250498426e-05  -9.749762392625e-05   1.419064185968e-04 
6 1  1.030016006243e-04  -3.547148761612e-05  -1.482560485343e-05 
7 1  6.146098948527e-05  -1.068544763246e-05   2.816613388638e-05 
8 1 -2.898850940827e-05   3.820674679823e-05  -1.581109686258e-05 
8
Step 45000
1 1 -1.254706747284e-05  -9.747157848101e-05  -2.897605978918e-05 
2 1  5.778591355921e-05   4.777092428359e-05  -6.184060018627e-06 
3 1  1.156215852269e-04   6.378631645471e-05  -4.891238143447e-05 
4 1  6.816905282156e-05   4.314624959451e-05  -1.566915574560e-04 
5 1  4.742817701970e-05  -1.007012900022e-04   1.224454282646e-04 
6 1  1.123731984642e-04   3.644723284047e-05   2.258480126724e-05 
7 1  6.692320859203e-05  -6.310996857061e-05  -5.141685665845e-05 
8 1 -1.016767989155e-05  -2.143697886606e-05  -1.299007136263e-05 
8
Step 46000
1 1  2.993045951987e-05  -4.808989721488e-06  -9.849394252706e-05 
2 1  5.094790775514e-05  -1.534717959246e-06  -4.179146690115e-05 
3 1  8.567624190535e-05   1.583387795771e-05  -1.773584963843e-05 
4 1  1.014864233431e-04  -4.896797290419e-05  -2.150891357528e-04 
5 1  4.890879702613e-05  -6.930210202816e-05   6.490319819573e-05 
6 1  7.747302776646e-05   9.314434285042e-05   5.037989385910e-05 
7 1  5.544636827714e-05  -8.924490366168e-05  -1.041171295658e-04 
8 1  8.637883512472e-06  -6.138807155325e-05  -1.223275459221e-05 
8
Step 47000
1 1  4.384740840281e-05   1.080146030514e-04  -1.079510078731e-04 
2 1  8.873467938822e-06  -4.602713635009e-05  -5.208128811001e-05 
3 1  4.243726672603e-05  -3.224933288219e-05   5.305021820147e-06 
4 1  8.546188953351e-05  -1.277812019046e-04  -1.807213101716e-04 
5 1  3.858122662878e-05  -1.935460942064e-05  -2.134220059132e-06 
6 1  1.720786302866e-05   1.127357871473e-04   4.518097272362e-05 
7 1  3.429319971327e-05  -8.035667174528e-05  -1.033146484906e-04 
8 1  1.608480426636e-05  -7.205645692204e-05  -1.756617834125e-05 
8
Step 48000
1 1  2.285017040337e-05   1.846785354728e-04  -5.552133345755e-05 
2 1 -4.813390185366e-05  -7.029162513754e-05  -3.648690823319e-05 
3 1  1.432496358288e-05  -7.446535970465e-05   1.876316502753e-05 
4 1  2.607821366443e-05  -1.496374803674e-04  -5.565678965346e-05 
5 1  2.145028425144e-05   2.760209256139e-05  -5.211156218058e-05 
6 1 -4.067051497661e-05   8.844256025931e-05   2.601883580556e-06 
7 1  8.757735801629e-06  -4.115590933822e-05  -5.075005636633e-05 
8 1  8.187695650734e-06  -5.750993468629e-05  -2.764396367167e-05 
8
Step 49000
1 1 -1.692572374717e-05   1.859090199562e-04   2.624434878657e-05 
2 1 -8.960486569602e-05  -6.842617019119e-05  -7.509574185255e-06 
3 1  9.419105624347e-06  -1.062812949116e-04   2.953394612800e-05 
4 1 -4.421785818114e-05  -9.857234724221e-05   1.043049902078e-04 
5 1  2.527314394824e-06   5.529950479672e-05  -7.186920505834e-05 
6 1 -7.091532731808e-05   3.138083015990e-05  -5.884179734576e-05 
7 1 -1.573206192927e-05   1.216155789275e-05   2.759302249448e-05 
8 1 -1.025317042685e-05  -3.074871417129e-05  -3.547788705247e-05 
8
Step 50000
1 1 -4.820755869574e-05   1.081541449132e-04   9.135948889488e-05 
2 1 -8.860201467468e-05  -4.398542162547e-05   1.618680019145e-05 
3 1  1.205213772271e-05  -1.191816572185e-04   4.231236870784e-05 
4 1 -8.512225498265e-05  -1.493787838559e-06   2.182070179868e-04 
5 1 -1.446602400518e-05   5.838866218540e-05  -6.286566277867e-05 
6 1 -6.179245003772e-05  -3.369620336746e-05  -1.063066106819e-04 
7 1 -3.377604103447e-05   5.782710857565e-05   9.297011843589e-05 
8 1 -2.756699245799e-05  -5.271967838347e-06  -3.232040633247e-05 
8
Step 51000
1 1 -4.964814052164e-05  -1.262246008555e-05   1.067821388483e-04 
2 1 -3.684745117734e-05  -5.411566999920e-06   2.082071758564e-05 
3 1 -9.071270765501e-07  -1.012417854589e-04   5.422195186580e-05 
4 1 -7.561141706854e-05   9.104546224854e-05   2.358537956027e-04 
5 1 -2.737553242309e-05   4.061817238765e-05  -3.578189595217e-05 
6 1 -2.120278499544e-05  -7.953972505337e-05  -1.095511084048e-04 
7 1 -4.161402856957e-05   7.832960340651e-05   1.138677161887e-04 
8 1 -3.017611491888e-05   1.188932024858e-05  -1.372435056362e-05 
8
Step 52000
1 1 -1.812942295811e-05  -1.179039050244e-04   6.935839139349e-05 
2 1  4.561818358384e-05   3.634994408184e-05   4.863502541986e-06 
3 1 -3.831087253514e-05  -4.766370889809e-05   5.690246122010e-05 
4 1 -2.432160468815e-05   1.356409175483e-04   1.590234873953e-04 
5 1 -3.437920295531e-05   1.162942854034e-05  -4.347261280600e-06 
6 1  2.711538864399e-05  -8.873590162894e-05  -5.805322883879e-05 
7 1 -3.768228537207e-05   6.743787666980e-05   8.117458327449e-05 
8 1 -1.087521685231e-05   2.131079074891e-05   1.828126206051e-05 
8
Step 53000
1 1  2.953642627142e-05  -1.611550408742e-04   4.674763274985e-06 
2 1  1.194271667683e-04   6.859778992307e-05  -2.042398630139e-05 
3 1 -8.667024145603e-05   2.896083030531e-05   4.291917351677e-05 
4 1  3.746097286964e-05   1.133911404659e-04   3.125770046800e-05 
5 1 -3.370352597383e-05  -1.645262321528e-05   1.948248004512e-05 
6 1  5.631047574880e-05  -6.084319535630e-05   3.020531530612e-05 
7 1 -2.301722364254e-05   3.111271700941e-05   1.016473264177e-05 
8 1  2.543715460034e-05   2.741270845832e-05   5.479610748195e-05 
8
Step 54000
1 1  6.712488063076e-05  -1.326175701489e-04  -5.141182407613e-05 
2 1  1.458955772919e-04   8.081747122204e-05  -3.758170620498e-05 
3 1 -1.185777269082e-04   1.015739984453e-04   1.220218823358e-05 
4 1  7.363675419458e-05   3.913412699226e-05  -8.346406407632e-05 
5 1 -2.457952842992e-05  -3.357042547107e-05   2.934998784267e-05 