8
Step 0
1 1  0.000000000000e+00   0.000000000000e+00   0.000000000000e+00 
2 1  0.000000000000e+00   0.000000000000e+00   0.000000000000e+00 
3 1  0.000000000000e+00   0.000000000000e+00   0.000000000000e+00 
4 1  0.000000000000e+00   0.000000000000e+00   0.000000000000e+00 
5 1  0.000000000000e+00   0.000000000000e+00   0.000000000000e+00 
6 1  0.000000000000e+00   0.000000000000e+00   0.000000000000e+00 
7 1  0.000000000000e+00   0.000000000000e+00   0.000000000000e+00 
8 1  0.000000000000e+00   0.000000000000e+00   0.000000000000e+00 
8
Step 1000
1 1  1.267881826579e-04  -2.230304482574e-04  -1.800806078303e-05 
2 1  2.050733702863e-04  -2.314181774780e-04  -2.298569378887e-04 
3 1 -1.080844879017e-04  -1.076902518781e-04  -4.280138190220e-05 
4 1  2.537049039780e-04   4.898479438596e-05  -6.638162014588e-05 
5 1  1.737111774785e-04   1.087363743492e-04  -1.083100849618e-04 
6 1  4.079993841048e-05   9.013064012136e-05   2.621774699338e-04 
7 1 -5.176468934631e-05  -7.486767429981e-05  -6.493771766980e-05 
8 1  4.191708924270e-05  -1.600354029471e-04  -1.337768632050e-04 
8
Step 2000
1 1  2.462356952454e-04  -1.569812757799e-04   1.667076918373e-06 
2 1  1.423290653304e-04  -4.977113405693e-05  -2.316433079210e-04 
3 1 -1.056028172580e-04   1.195994567754e-04   6.942850026957e-05 
4 1  3.566755541074e-04  -1.886674038214e-04  -2.375459044456e-04 
5 1 -1.861654458321e-05   1.974903209829e-04  -7.050796269556e-05 
6 1  1.981061050444e-05  -1.443155182263e-05   8.885497561697e-05 
7 1 -2.015340044451e-04   2.267156762350e-04   3.523036502385e-05 
8 1 -6.866567862178e-05   1.309942190553e-04  -1.918409398528e-04 
8
Step 3000
1 1  2.060817716595e-04  -2.447722571157e-04   3.861347639669e-05 
2 1  2.879737075733e-04   2.096567353623e-05  -3.593121117509e-04 
3 1 -8.683592378404e-05   1.711605262803e-04  -8.582980963856e-05 
4 1  1.879151769721e-04   2.649804545653e-06  -3.510397834573e-04 
5 1 -6.786417785657e-05   2.766955259174e-04   5.415217572103e-05 
6 1 -1.545848899581e-04  -1.256583538743e-04   2.939573157016e-04 
7 1 -1.682997211647e-04   1.632161464234e-04   5.851565498191e-05 
8 1  3.065525215930e-05  -1.004490308011e-04   8.009687042507e-06 
8
Step 4000
1 1  3.529634883610e-04  -1.900695181108e-04  -1.819325194476e-05 
2 1  1.618100745329e-04  -1.877574405091e-05  -4.332895042082e-05 
3 1 -1.060195835923e-04   8.054421605153e-05  -3.577770376840e-04 
4 1 -2.087895290225e-05   1.689854746263e-04  -6.588278900000e-05 
5 1  6.177812182851e-06   7.657602710934e-05  -1.748622538591e-04 
6 1 -3.202512529942e-04  -3.919968130539e-05   1.401348417991e-04 
7 1 -2.096622582180e-04   9.639525016700e-06   1.392290762981e-05 
8 1  1.230691526957e-05   1.606326679324e-04   1.871274972493e-04 
8
Step 5000
1 1  2.479792221567e-04   1.619768680060e-04   8.654251475413e-05 
2 1  1.788625646809e-04  -9.886350337310e-07  -1.244725904034e-04 
3 1 -1.257725327633e-04   1.369834983737e-04  -2.889549140401e-04 
4 1 -1.303280452495e-04   1.544211829206e-04   4.190943915535e-06 
5 1 -4.366389254158e-05   1.150644178697e-04  -1.178043454303e-04 
6 1 -1.094029084411e-04   1.138928680997e-04   2.777645943289e-04 
7 1 -4.988483806367e-05  -9.823187923307e-06  -3.129850375278e-05 
8 1 -1.121486055705e-04   6.054887304237e-05   1.855841715145e-04 
8
Step 6000
1 1  2.263036741769e-04  -2.022876105946e-05   2.723207433270e-04 
2 1  6.314027878242e-05  -1.269579773954e-05  -8.542898826832e-05 
3 1 -3.274059621912e-04   2.653129426490e-04  -5.327413034101e-05 
4 1  6.727903472966e-07   7.614783339687e-05  -1.869467097711e-04 
5 1 -1.252784732727e-04   2.942742605397e-04  -1.381822092769e-04 
6 1 -1.850643286164e-05  -8.718605459385e-05   1.539974779385e-04 
7 1 -1.812996924148e-04   1.809978465868e-04  -8.739689701456e-05 
8 1  1.705328636532e-04  -7.631544165438e-05  -7.528946399219e-05 
8
Step 7000
1 1  8.932172871238e-05   1.794834715593e-04   1.239146320259e-04 
2 1 -2.477031349679e-05  -2.115470369601e-04  -7.325489837474e-05 
3 1 -1.517817739441e-04   2.230241766935e-04   7.874639823192e-05 
4 1 -6.665202500542e-05  -1.459235541423e-04  -2.753612513882e-05 
5 1 -8.577961742361e-06   3.620084069926e-04  -4.625153138980e-05 
6 1 -2.168072722033e-04  -2.047277712990e-04  -6.397781353302e-05 
7 1 -2.853780010694e-04   2.129131970402e-04   3.737083085069e-05 
8 1 -8.835082169416e-06   7.341816910775e-06   4.453670957279e-05 
8
Step 8000
1 1  1.004401151711e-05  -1.102553397212e-04   1.688655471794e-04 
2 1 -2.758103814567e-04   1.941861814666e-05   4.024404827295e-05 
3 1  4.290298335493e-05   2.200191869826e-04  -8.505727541540e-05 
4 1 -8.063486266714e-05  -2.313795594852e-05  -1.038861730922e-04 
5 1  1.242241037247e-04   8.384237486980e-05  -7.135571758284e-05 
6 1  1.210093084997e-04  -1.424064369380e-04   1.352025551617e-05 
7 1 -1.404571647824e-04   1.018395733412e-04  -1.899892692532e-04 
8 1  1.165202521154e-04  -5.100136096902e-05   1.137555651466e-04 
8
Step 9000
1 1  2.535394756849e-05  -2.800984857325e-07   1.115913322978e-04 
2 1 -5.595442234291e-05   1.001663881307e-04   4.827186188935e-05 
3 1  5.668844985509e-05  -1.277413500261e-04  -4.284723021740e-05 
4 1 -2.212782524537e-04   1.403428829506e-04  -5.895962426087e-05 
5 1 -1.328957187262e-04   1.365435612687e-04  -2.037132938902e-05 
6 1 -1.080643214651e-04  -4.919249820069e-06  -1.803401379607e-04 
7 1 -1.202743664312e-04   2.612683464662e-05  -2.814402324194e-04 
8 1  1.465667894496e-04  -1.413687918633e-04   2.877717868719e-04 
8
Step 10000
1 1 -2.617864684512e-04  -4.048530553717e-05   1.868856750180e-04 
2 1  1.395525236284e-04   9.237187313764e-05  -8.012049369369e-05 
3 1 -7.738246391257e-05  -2.263686461613e-04  -2.799317200052e-04 
4 1 -9.126450307762e-05   2.215791196369e-06  -4.689264942658e-05 
5 1  8.318554219940e-05   5.300416212832e-05  -1.329565892825e-04 
6 1 -7.554731118445e-05  -5.002450900614e-05  -1.947422596129e-04 
7 1  1.585027628984e-04  -9.584284956558e-06   5.322408251216e-05 
8 1  4.940073405430e-05   1.953167351802e-05   1.268683828531e-04 
8
Step 11000
1 1 -1.242705918343e-04  -1.017431291008e-04   5.538012813442e-05 
2 1  6.126356223279e-05   9.154193062130e-05  -1.070159446882e-04 
3 1  1.403894683606e-04  -2.228186901560e-04   4.066968262578e-05 
4 1 -1.001541537903e-04  -2.023203148631e-04   4.354508416797e-05 
5 1 -8.738974645800e-05   1.703284485943e-04  -1.327385906983e-04 
6 1 -1.521132369180e-04  -9.492324790570e-05  -1.496977508175e-05 
7 1 -7.413141653079e-05   1.479616547633e-04  -8.205297659118e-05 
8 1  1.560009587954e-04  -6.027441740491e-05   2.282055845122e-05 
8
Step 12000
1 1 -2.359870531870e-04   8.216406166846e-05  -3.823757548947e-05 
2 1 -2.629628363820e-05  -6.064569542782e-05  -4.953616971021e-05 
3 1  3.142646395333e-04  -1.779499170348e-04   2.187580374234e-04 
4 1 -6.220812077034e-05  -1.995497683642e-04  -8.650468154325e-05 
5 1  6.801147072886e-06   1.709053232126e-04  -1.169940020924e-04 
6 1  1.203632275756e-04   1.525683466955e-05   2.515835854217e-04 
7 1 -2.798277655811e-05  -1.851531992281e-04  -3.935255670354e-05 
8 1  1.152320961889e-04  -1.216586377837e-04   4.592227600386e-05 
8
Step 13000
1 1 -7.827121546149e-05   3.253824090560e-04  -3.410407189569e-07 
2 1 -8.315613323198e-05   5.680157626464e-06  -1.032739741744e-04 
3 1  1.460101176596e-04  -1.866646613061e-04   8.595041028663e-05 
4 1  3.638809773020e-05  -4.226721557613e-05  -1.420044738515e-04 
5 1  1.701980185573e-04   8.567986876352e-05  -2.074265331965e-04 
6 1 -2.940058631010e-05   5.246981333759e-06   8.823307733313e-05 
7 1 -5.713540997172e-05  -3.591649573469e-04  -1.998130959599e-04 
8 1  1.619753370525e-04  -5.821271489088e-05   1.126164446041e-04 
8
Step 14000
1 1 -1.696362811000e-05   1.346594119400e-04  -1.759867911868e-04 
2 1 -2.896403887618e-05  -5.377693897878e-05   1.009295079863e-05 
3 1  8.776333257769e-05  -3.255133453851e-04   1.812509701842e-04 
4 1 -1.602660548499e-04   3.305320730751e-05   4.553250489029e-05 
5 1  2.062692992413e-04  -1.499237080818e-04  -1.971104051355e-04 
6 1  1.234577857165e-04   5.975072041503e-06  -7.698959964833e-05 
7 1 -6.777801198581e-05  -2.022232032844e-04  -9.650121274611e-05 
8 1 -1.510432576811e-04   1.530433391721e-04   3.151074498369e-04 
8
Step 15000
1 1  1.498813156933e-04  -1.449371982470e-05  -6.845583311738e-05 
2 1  3.286941791723e-05  -1.052047897896e-04   7.459671205502e-05 
3 1  5.727293117291e-05  -1.053002420825e-04   6.390476110441e-05 
4 1 -1.559276889375e-04  -1.398545558041e-04  -1.238198277222e-04 
5 1  2.704071332297e-04   7.518600705523e-05  -1.726753121128e-05 
6 1  1.748080314377e-04  -3.233469259677e-04  -1.519951722454e-04 
7 1  5.355353378127e-05  -3.451200021067e-04   1.488563947922e-04 
8 1 -1.567634788764e-04   1.838574978865e-04  -2.699044211817e-06 
8
Step 16000
1 1  2.429156001293e-04  -1.160233262871e-04  -1.500963932347e-04 
2 1  1.920445440423e-04  -1.127490179139e-05  -8.601803756032e-05 
3 1  9.432631939656e-05   1.069083477083e-04   2.802238145113e-04 
4 1 -2.763450489627e-04  -3.079423581004e-04   1.670675097005e-04 
5 1 -4.367159980916e-05   2.711262012442e-04  -1.057428964632e-04 
6 1  1.381769354086e-04  -2.328688987636e-04  -1.994075172303e-04 
7 1  1.129345211196e-04  -2.598360929674e-05  -3.587986717709e-05 
8 1  1.039675938326e-04   2.044593940050e-04   2.097821161896e-04 
8
Step 17000
1 1  2.019191932507e-04  -9.163552006001e-05  -1.730344873686e-05 
2 1  5.386255990704e-06  -5.456188119786e-05  -2.732916272220e-04 
3 1  4.933805501145e-05   1.562742782316e-04   2.174543380790e-04 
4 1 -1.990448225083e-04  -1.947152191184e-04   5.817455016836e-05 
5 1 -7.650977472496e-05  -8.742638649971e-05  -2.516400636574e-04 
6 1  2.493950604518e-04   4.963113652280e-05   1.255744984661e-04 
7 1  5.234947285364e-05  -7.263524440022e-06  -8.505104107650e-05 
8 1  1.671102938051e-04   1.707103434500e-04   7.554963441087e-05 
8
Step 18000
1 1  3.163391059856e-04  -2.473347344851e-04  -1.031799435605e-04 
2 1 -2.721620988739e-05  -2.355308629151e-04  -2.188095033866e-04 
3 1  5.024042756422e-05  -2.342719422430e-05   2.937247415307e-04 
4 1 -7.384975455251e-05  -9.664761448431e-05  -5.695124486923e-05 
5 1  1.544609768252e-04  -2.005223051920e-04   8.155896909877e-05 
6 1 -5.949655319203e-05   1.770676016024e-04   5.459097801692e-05 
7 1 -5.150052674374e-05  -1.138616586551e-04  -3.171653914576e-04 
8 1  1.071383609064e-04   2.420226587806e-04   1.432841887021e-04 
8
Step 19000
1 1  9.028457631403e-05   2.332188468042e-05  -1.134848074438e-04 
2 1 -9.533119171042e-05  -2.383715649535e-04  -5.313668140849e-05 
3 1 -1.403891707484e-05  -8.685318443083e-05   2.040605409762e-04 
4 1  1.250900270620e-04  -2.099062205533e-04   5.501822492367e-05 
5 1 -7.209084297432e-06  -1.252080935601e-05   1.362678668948e-04 
6 1 -5.602470578364e-05   8.360407566548e-05  -1.703902670716e-04 
7 1 -3.624202471681e-05  -8.957988311299e-05  -1.919647549797e-04 
8 1  4.576336977216e-05   2.087160607852e-04   1.107630956148e-04 
8
Step 20000
1 1  1.144033454294e-04  -1.436008297849e-04   1.177507088365e-04 
2 1  4.305771797051e-06  -2.489549914160e-04  -8.318094388862e-05 
3 1 -7.051222228182e-06   8.778505469939e-05   2.598945604290e-05 
4 1  3.720589484248e-04  -1.524926770914e-04  -1.080750518079e-06 
5 1  1.604826023099e-04   1.423918717525e-04  -4.194147710614e-05 
6 1  1.437684320095e-04   1.777276522343e-05  -9.862148410224e-05 
7 1 -2.621757324031e-04  -1.520344894499e-04  -1.195699039513e-04 
8 1 -8.136038801032e-06  -3.817763211540e-06   1.876886537303e-05 
8
Step 21000
1 1  1.678117402733e-04  -7.029098438437e-05   7.139819888098e-05 
2 1  4.983059821728e-05  -1.863129334524e-04   1.344336213428e-04 
3 1  1.913950557525e-05   1.122287055251e-04   4.117152255180e-04 
4 1 -1.054149350059e-04  -8.922676628803e-05   1.674880702464e-04 
5 1 -1.640464432549e-04  -2.966358933101e-06  -1.238271912338e-04 
6 1  2.745778418395e-07  -5.515594281714e-05   2.269399777978e-05 
7 1 -2.634685959774e-04  -6.025799344906e-05  -1.665750882780e-04 
8 1  1.649782499024e-04   1.985907778133e-04   1.055491793934e-05 
8
Step 22000
1 1  2.231451652876e-05  -1.508858986973e-04   1.118867473476e-04 
2 1 -1.907532101141e-05  -8.682670615908e-05  -2.375694151836e-04 
3 1  1.691613007041e-04   1.178229553731e-04   1.961660475086e-04 
4 1  1.340400230206e-06   1.894937864569e-05   6.798913018177e-05 
5 1 -2.603109145002e-04  -2.570396314908e-04  -3.161481438022e-04 
6 1  1.711591522276e-04   8.178584579915e-06  -3.044286693457e-05 
7 1 -2.221343035740e-06  -1.685158720550e-04  -1.131186048389e-04 
8 1 -2.069480166221e-05   1.601028933726e-04   6.537308780098e-05 
8
Step 23000
1 1 -7.091150026607e-06   1.456315111665e-05   4.184407788650e-04 
2 1  6.681854317510e-05   9.206461958216e-05   1.252222994036e-04 
3 1  2.468257337272e-05   3.424756795760e-04   1.295423625535e-04 
4 1  1.064609925362e-04   1.910366055925e-04   2.779263660314e-04 
5 1  4.649998082896e-05  -1.097048654964e-04  -3.812681623954e-05 
6 1 -1.046675357692e-04   1.568760415236e-04   1.988407983418e-05 
7 1 -1.121363858816e-04  -2.333313225537e-04  -2.510534585001e-04 
8 1  2.635531457559e-05  -1.698091412662e-05   2.374075779612e-04 
8
Step 24000
1 1 -7.338148866795e-05   4.536304404565e-05   1.227363426871e-04 
2 1  5.849439156101e-05   1.279836749428e-04   1.510875832950e-04 
3 1  2.851448082472e-05   3.569387092365e-04  -1.053467884237e-05 
4 1 -9.035340643450e-06  -4.078557156598e-05   1.629907678918e-05 
5 1  2.718969072873e-05  -1.514449287135e-04   2.021120103259e-05 
6 1  1.167402059441e-04   1.941552643582e-04  -1.057843197880e-04 
7 1  3.790656494998e-05  -4.063049067472e-05  -2.408265785578e-04 
8 1  7.722288622164e-05  -6.747495885549e-05   1.196383275470e-05 
8
Step 25000
1 1 -1.028697657922e-04   1.760551758960e-04   3.462873912826e-04 
2 1 -1.164404775768e-04   2.829525609158e-05   1.248421322337e-05 
3 1 -3.085636512113e-05   3.053254412508e-04   5.921452798509e-05 
4 1  1.535308716177e-04  -9.395328622023e-06   2.085401433914e-04 
5 1  3.464851598692e-05   6.750444493992e-05  -7.458416725637e-05 
6 1  1.277223816979e-04   1.616055476606e-04   5.344341913554e-05 
7 1 -2.894076975982e-05  -1.337676979146e-04  -2.721896081168e-05 
8 1 -3.168280225525e-05  -1.095800871706e-04   2.545589006287e-05 
8
Step 26000
1 1 -1.228191235509e-06   1.714509842927e-04   8.732118804700e-05 
2 1 -1.517230366070e-04   1.435589671356e-04  -3.222648510886e-04 
3 1 -3.917584466654e-05   9.305918197354e-05   1.491871074795e-05 
4 1  1.333928820351e-04  -1.095610672394e-04   3.939905160394e-05 
5 1  8.197771361130e-05  -1.825420826056e-04  -4.830117003230e-07 
6 1  1.503973460572e-05   2.210712112252e-04   1.132390455527e-04 
7 1 -8.577955135729e-05  -4.868059276957e-05  -1.786827115679e-04 
8 1  3.679725528351e-05   9.414366637126e-05  -3.916641362034e-05 
8
Step 27000
1 1 -3.039373676522e-04   1.609192341226e-04   1.146970862038e-04 
2 1  5.898202484688e-05   2.691078391565e-04  -1.849686874280e-05 
3 1  1.513269272569e-04   1.947380409472e-04  -5.613743653670e-05 
4 1  2.635661579085e-04   1.705223631554e-04  -1.300644503146e-04 
5 1  2.495249914672e-04  -9.083622813763e-05  -1.878697815947e-04 
6 1  6.321990467090e-05   1.014529589813e-04   4.491974925381e-05 
7 1  3.524111850297e-05  -6.772972796987e-05  -1.856128806658e-04 
8 1  9.428053804637e-06  -2.075171773239e-04   1.523317642980e-04 
8
Step 28000
1 1 -2.647296246085e-04   1.341595244461e-04  -2.191636577608e-04 
2 1  3.355216415579e-05   2.198686911527e-04   1.921244654601e-05 
3 1 -2.549570484465e-05   1.761235735382e-04  -1.858790259476e-04 
4 1  1.249433376492e-04   6.864471925040e-05   1.101089914227e-04 
5 1  8.828283062080e-05   1.246512175006e-04  -1.685081006341e-04 
6 1 -2.582831065987e-05  -1.278750352840e-05   1.401835494950e-04 
7 1  2.420069516056e-05   5.157391496717e-05   9.154547808090e-06 
8 1  7.171965693650e-06  -6.198026621158e-05   6.765576105487e-05 
8
Step 29000
1 1 -3.393077092619e-05  -1.436530193493e-04  -2.009526240601e-04 
2 1  2.769982006072e-04   1.484557595172e-04   3.041358988152e-05 
3 1  1.028535880168e-04   3.363959137863e-04  -1.379185200508e-04 
4 1  2.593404809805e-05  -5.124856198080e-06  -1.966435947025e-04 
5 1  1.221972103621e-04  -1.856232877291e-04  -1.762298350725e-04 
6 1  1.380532781022e-04   1.952378328805e-04  -2.547197065826e-05 
7 1 -3.582133885751e-04   3.163681360153e-05   4.647188131399e-05 
8 1  9.039866505414e-05  -1.768636186087e-04   1.553526898176e-04 
8
Step 30000
1 1 -2.239272598323e-04   1.574081692413e-06  -3.884554609646e-05 
2 1  2.887775937533e-04   7.824081879922e-05  -5.806234811226e-05 
3 1  7.845136581229e-05   4.500224205024e-05   1.071307177190e-04 
4 1 -1.875989672057e-04   2.757917971251e-05  -4.657006766291e-05 
5 1 -7.268716104862e-05  -3.092112968672e-04   5.494417182374e-05 
6 1 -1.196511991382e-05   3.870118294916e-04  -1.508276286880e-05 
7 1 -3.429900445643e-05   1.369849012305e-04  -1.579693297302e-04 
8 1  1.163659985933e-04  -2.343928935540e-04   2.811857001218e-04 
8
Step 31000
1 1  1.906201179540e-04  -2.433808628163e-05  -9.624689182197e-06 
2 1  2.444234884514e-04  -2.863158202051e-05  -1.733919325166e-04 
3 1  1.262292000851e-04   1.197663264672e-04  -2.283476583925e-04 
4 1 -3.048162371047e-04   1.054488595758e-04  -9.527445289253e-05 
5 1  5.568094703580e-05   1.556476002499e-05  -6.720289264618e-05 
6 1  9.729576997227e-05   1.235773627523e-04   1.855649679084e-05 
7 1 -2.734683898518e-05   1.738179396793e-06  -8.786109113569e-05 
8 1 -8.586211728245e-05  -3.445146711365e-04   1.929886894687e-04 
8
Step 32000
1 1 -4.713285442440e-05   3.946072126124e-05   1.620142384082e-04 
2 1 -7.382722620031e-05  -6.059378186817e-05   8.001755743706e-05 
3 1 -1.668861154149e-04   1.837186005873e-06  -3.637823340780e-05 
4 1 -1.490273395162e-05  -2.862271995478e-05  -5.273004418008e-05 
5 1 -4.245152503633e-05  -3.887938778464e-06  -5.429126479186e-05 
6 1 -3.768592283988e-04   2.131050673729e-04   1.423598358033e-04 
7 1  1.552472806249e-04   8.825190293223e-05   3.824347423861e-05 
8 1 -1.430647755817e-04  -1.128010380140e-04  -3.721881208759e-05 
8
Step 33000
1 1  2.792487711083e-04  -6.406239927326e-05  -2.271718371572e-05 
2 1  3.335198132700e-04  -1.357999384338e-04  -1.298373567293e-04 
3 1 -1.870991285363e-04  -8.523140325229e-05  -1.109983963749e-04 
4 1 -3.422636274527e-04  -1.064694296504e-04   8.917978133343e-05 
5 1  3.802046590280e-05   1.463855038941e-04  -1.129214114822e-04 
6 1 -1.853024736126e-04   1.858391356132e-04   4.026976558776e-05 
7 1  2.258294643086e-04  -1.566385818948e-04   1.326283136830e-04 
8 1  4.376894117528e-05  -6.401357091251e-05   9.359576460604e-05 
8
Step 34000
1 1  1.715470068654e-04   7.938006152654e-05  -4.719975822545e-05 
2 1  2.747643264282e-04  -5.526293682675e-05   7.031862174231e-06 
3 1 -2.256041811848e-04  -4.307526602650e-05   2.011024017333e-04 
4 1 -2.294632658496e-04  -1.247236893389e-04   1.124821982874e-04 
5 1  2.582272530665e-05   1.488747482322e-05  -1.443583184729e-05 
6 1 -2.291741225209e-04   2.022532955440e-04  -2.350554240345e-04 
7 1 -3.014457412308e-04  -1.065948079605e-04   6.280264056610e-05 
8 1  1.998386164975e-04   8.753505485602e-05   1.518693946843e-04 
8
Step 35000
1 1  1.884552602232e-04   1.565431754059e-04  -1.830058179773e-04 
2 1  1.496389017754e-04  -2.882602744956e-04  -3.543166347272e-05 
3 1 -1.599289920832e-04  -1.939629381413e-04   2.933594601242e-04 
4 1  6.895388295954e-06   2.304236854196e-04  -1.180805814294e-04 
5 1 -6.581852529551e-05  -5.821358596168e-05  -8.317783022638e-05 
6 1 -1.018510170823e-04   1.583655538553e-04  -1.629840776605e-05 
7 1 -2.237503237246e-04  -1.900153661770e-04   8.832242517169e-05 
8 1  2.564688684069e-04  -2.341609146711e-04   1.395886366391e-04 
8
Step 36000
1 1  1.140698060420e-04   5.851874774444e-05  -2.451567707103e-05 
2 1  2.606851330735e-05  -2.281492855253e-04  -1.623425329416e-05 
3 1 -8.374597315795e-05  -3.243444744913e-05   2.554812033396e-04 
4 1 -9.629868165461e-05  -4.018660951543e-05  -1.505533674396e-04 
5 1  1.554211704865e-04  -6.288253885349e-05  -2.208694009232e-05 
6 1 -1.214629211107e-04   2.828360792517e-04   5.610293897554e-05 
7 1 -3.664383426973e-05  -3.192384461060e-04   5.175809325211e-06 
8 1 -5.953045647136e-05  -3.855903536571e-05   3.394248733451e-05 
8
Step 37000
1 1 -1.822815860388e-05   1.610980004564e-04  -1.597134200455e-04 
2 1 -2.030624295778e-05  -1.325864466621e-04  -8.567568555337e-05 
3 1 -3.973452271484e-05  -5.809092007895e-05   6.584105713144e-05 
4 1  7.550108353420e-05  -1.312352684004e-04   1.295134563474e-04 
5 1  3.905699591175e-04   2.732488630935e-05   4.269001492769e-06 
6 1 -3.295419717927e-04  -1.618875963455e-05   7.858736959529e-05 
7 1  4.216481684625e-05  -1.607139451527e-04   9.075531512862e-05 
8 1  1.372938631680e-04   2.802769969505e-05  -1.428972575969e-04 
8
Step 38000
1 1  5.273812556808e-06  -2.904456971693e-05   3.389568800274e-05 
2 1 -6.487286535409e-05  -1.740828828150e-04  -4.838619319503e-05 
3 1 -1.508489319064e-04  -1.560659860879e-04   1.854002392788e-05 
4 1  4.734632102537e-05  -2.689931600147e-05   1.499020590851e-04 
5 1  3.414882266197e-04   2.952466744582e-05  -6.727126587748e-05 
6 1 -8.883256889154e-05  -2.332250340892e-05   1.341563941515e-04 
7 1  5.198607484414e-06  -1.658978876258e-04   2.601878398305e-05 
8 1  1.403833123179e-04   7.958833150325e-05  -1.426157427229e-04 
8
Step 39000
1 1 -1.686798203582e-04  -6.609207432636e-05   1.988715551698e-04 
2 1 -2.814771296860e-05   4.127936456412e-05  -1.238568843548e-04 
3 1 -6.962693601585e-05   2.258397591945e-04  -1.113989884499e-04 
4 1 -1.218983540523e-04  -1.485674294253e-05  -6.249344756920e-05 
5 1  2.121516895167e-04   2.115043767244e-04   9.940017226185e-05 
6 1 -6.273805527498e-05   1.306769234173e-04   2.477172900378e-04 
7 1  5.415119197255e-05  -2.736606431014e-04  -1.802670187863e-05 
8 1  1.928218498274e-04   1.005134940840e-04  -7.157166530616e-05 
8
Step 40000
1 1 -3.544242068587e-05   1.190041974294e-04   6.566919073934e-05 
2 1 -9.818753169245e-06  -1.961676335097e-04  -2.188965176577e-04 
3 1  5.804754414541e-06  -1.142490171939e-04  -8.764556639236e-05 
4 1  2.344212311059e-04  -6.253090776758e-05  -9.427545903912e-05 
5 1  2.596738271126e-04   1.265150314111e-04   2.298269450300e-05 
6 1 -1.843886491944e-05   1.093464639528e-04  -1.523284987478e-04 
7 1  1.439773026993e-04  -1.331068100187e-04   2.501032217570e-05 
8 1 -3.559774400840e-05   2.309620609403e-05  -3.694791384215e-05 
8
Step 41000
1 1 -1.125835336399e-05   2.675351275686e-05   1.475783821869e-04 
2 1  1.443658436942e-04  -2.121351151193e-04  -5.894254818905e-05 
3 1 -1.299078244430e-04   1.811808139879e-04  -4.694473892416e-05 
4 1 -9.852231858258e-05   1.467600922261e-05  -3.237440532632e-05 
5 1  1.050293449962e-05  -4.050243334033e-05   3.616399068039e-04 
6 1  1.288279057708e-05   1.634117957101e-04   8.631847866936e-05 
7 1  1.208701203759e-04  -1.474598821355e-04   1.958816814177e-04 
8 1 -7.390848886355e-06   4.144978787730e-05  -2.109242101431e-04 
8
Step 42000
1 1 -1.519388707410e-04  -1.107163591208e-04  -1.191466450737e-04 
2 1  1.015846120410e-04  -1.574437666866e-04  -1.741270341504e-05 
3 1  4.776058450793e-05   2.174471863466e-04  -3.227683806190e-05 
4 1  1.862892354804e-04  -2.190461769411e-05   3.049891446874e-06 
5 1  1.193574234777e-04  -4.936908890851e-05  -3.027939707746e-05 
6 1 -1.790060534082e-04   1.732542173192e-04  -8.164536006445e-05 
7 1  1.715710460378e-04   5.462539807823e-05   1.902049637331e-05 
8 1 -2.321915614490e-04  -2.976604506253e-05  -3.000472565178e-05 
8
Step 43000
1 1 -4.670688453789e-05  -1.840281261439e-05   9.775099143439e-05 
2 1 -1.359695417623e-04   4.669824155975e-05   4.554212647716e-05 
3 1 -1.494827512857e-05   3.653367416297e-04   8.095640088336e-05 
4 1 -3.893507436206e-05   4.099706358566e-06   1.604260102304e-04 
5 1 -5.504739317263e-05   1.219865261477e-04  -1.379813065596e-05 
6 1 -1.454068645295e-04  -7.864608371819e-05   1.128760162051e-04 
7 1 -3.128357096242e-05  -1.317623600029e-04   8.362710375641e-05 
8 1  6.711275155481e-05   2.685306895566e-05   6.096267557209e-05 
8
Step 44000
1 1 -4.175430968655e-05   9.083536256461e-05   3.480378648269e-05 
2 1 -9.828760337572e-05  -1.592944938935e-05  -1.092461758395e-04 
3 1  8.971295612894e-05   1.678886721302e-04  -8.354535026268e-05 
4 1  4.423234614840e-05  -1.416872299191e-04   3.257405057650e-05 
5 1  1.739432908199e-04   1.448453520119e-04  -7.945447378770e-06 
6 1 -2.032601231804e-04   8.903509398037e-05   2.815690356431e-04 
7 1 -6.721910913905e-05  -1.897101936055e-04  -1.924993246661e-04 
8 1 -9.009667303311e-05  -4.382817833955e-05   2.274615331625e-05 
8
Step 45000
1 1  4.949323804065e-05   8.271427103970e-05   1.699488675959e-04 
2 1 -1.209092824533e-04   1.395046564511e-04   4.181620903421e-05 
3 1  1.334180417874e-04   2.829544049154e-04  -2.197299563392e-05 
4 1  1.047443600693e-04   7.587432552644e-05   1.276644653020e-04 
5 1 -4.903689698705e-05   6.773734999484e-05   5.183651431135e-05 
6 1 -4.115486917250e-04   1.997955282431e-04   1.560266009089e-04 
7 1  2.114182762400e-04  -3.174898786405e-04   6.452246600433e-05 
8 1 -1.800413860032e-04  -1.748703849329e-04   8.135772410351e-05 
8
Step 46000
1 1  3.118230854747e-04   2.718640209685e-04   2.661323786408e-05 
2 1 -1.505639903553e-04  -2.072284588148e-04   7.262959721290e-05 
3 1 -5.075079307936e-05   3.475253513299e-04  -1.301273517897e-04 
4 1  2.537966644001e-04   9.696282676468e-06  -2.940723416509e-05 
5 1 -1.251885044685e-04   5.857128378545e-05   1.522310280779e-04 
6 1 -6.151834415412e-05   5.219970824939e-06  -2.604053955136e-05 
7 1  8.454167793621e-05  -2.307870934604e-04   2.714286805236e-04 
8 1 -1.194697583035e-04   1.260581181991e-04  -2.179293857192e-04 
8
Step 47000
1 1  3.195265000722e-04   3.682665264619e-05  -2.190813549073e-05 
2 1 -9.991319836880e-05  -2.486048825847e-04   2.385506708659e-04 
3 1 -1.147584617832e-04   3.141573235849e-04  -1.223574570813e-04 
4 1 -8.409725282329e-05  -3.631481288455e-05  -1.375246069339e-04 
5 1 -2.275702293313e-04  -1.053441400616e-04  -2.026333308715e-04 
6 1 -1.069776816185e-04   1.550786353655e-04  -1.660540694332e-04 
7 1 -6.961222385723e-05  -7.723159953940e-05   1.569690534937e-04 
8 1  7.121871321350e-05   5.796026770795e-05   1.423958445214e-04 
8
Step 48000
1 1  3.315118242623e-04  -5.678318968091e-05  -3.891746380494e-05 
2 1 -4.391432551993e-06   1.730901678110e-04   2.372984400555e-05 
3 1  2.599033075228e-04   1.168749105600e-04  -4.781522173820e-05 
4 1 -9.516213899021e-05   1.038984598754e-05   4.218291306811e-05 
5 1  1.155301041308e-04  -2.277804024456e-04  -1.605021955381e-04 
6 1  1.449549387233e-04   1.403394857346e-04   1.582862714165e-04 
7 1 -2.004224848589e-05   5.023575291896e-05  -1.011958793092e-04 
8 1  6.517566280038e-05  -7.591272614455e-05   1.678990982596e-04 
8
Step 49000
1 1  3.934195642337e-04  -1.252776772340e-04  -1.212185228886e-04 
2 1  9.971825952740e-05   2.091071034060e-04   1.174211940998e-04 
3 1  1.510459882522e-04  -1.120039730775e-04   4.713828706413e-05 
4 1 -1.765764076582e-04  -8.038322708799e-05  -3.824522699298e-05 
5 1  1.572990308772e-04  -1.694096242497e-04  -2.820133326133e-04 
6 1 -2.036320447368e-04  -9.401082476127e-05  -4.946495128208e-05 
7 1  7.343033485025e-05   2.120957404317e-04  -1.319478843259e-04 
8 1 -1.683918488463e-05  -9.966291335317e-05   1.863175338730e-05 
8
Step 50000
1 1  1.833112119895e-04   1.646672496891e-04  -8.545989401740e-05 
2 1  1.525994642881e-04   9.898474891967e-05   2.665323838733e-04 
3 1 -8.019292575115e-06   6.776156538306e-05   1.136437987222e-04 
4 1  2.927478555746e-05  -2.504744779852e-04   1.580049530033e-04 
5 1  1.948168487492e-04   1.490902545629e-04  -6.831463870559e-05 
6 1 -1.620006407849e-05   1.092596220872e-04   2.767721318499e-05 
7 1  2.776234410694e-04   3.109487732430e-05  -6.813279098641e-05 
8 1  6.072146994345e-05   6.303745673369e-05   7.439481651242e-06 
8
Step 51000
1 1  3.070651312929e-04   1.763963337794e-04  -1.676857279374e-05 
2 1  1.865541134836e-04  -3.733967852357e-05   2.223524465536e-04 
3 1  7.591651850069e-05   7.494456238748e-05  -5.701295077757e-06 
4 1  4.238997748247e-06  -2.558772940387e-04  -1.106290462231e-05 
5 1 -3.090699906911e-05  -1.291462198874e-04  -2.046395514353e-05 
6 1 -1.025453068119e-04  -9.748189767350e-05  -2.346984179309e-04 
7 1  4.345508806349e-05  -1.926578533864e-04  -1.443313011958e-04 
8 1  2.090731305318e-04  -7.450768910445e-05  -2.514098745670e-04 
8
Step 52000
1 1  1.463674165935e-04   2.657942085257e-04  -4.010718125600e-05 
2 1  1.730736913933e-04  -7.670776831736e-05   3.234828791512e-04 
3 1 -8.610576817787e-05  -2.613486701523e-05   1.211228818072e-04 
4 1 -2.981428327476e-05   4.375394265639e-05   1.020029590427e-04 
5 1  2.839388798966e-04   1.258846747817e-04   3.213597538033e-04 
6 1  1.113802951936e-04  -3.043946629681e-05   6.577731921526e-06 
7 1 -9.050013491148e-05  -1.516133257196e-04  -2.601177339414e-05 
8 1  9.904161853260e-05   5.961288396711e-05  -6.923367440862e-05 
8
Step 53000
1 1  2.237441980501e-04   1.413723633048e-04  -1.476140784416e-04 
2 1  1.548818864706e-04   1.947640735536e-04   1.684235105390e-04 
3 1 -1.307338591007e-05  -2.141765217750e-04   1.853120383402e-04 
4 1 -1.670218092444e-04   8.989251691095e-05   1.437547710091e-04 
5 1 -1.779953010975e-05   1.696145795493e-04   1.776102523295e-04 
6 1 -1.097770798193e-07  -1.160616648398e-04   5.561558696140e-05 
7 1  3.960459372323e-05  -1.761379830274e-04  -2.260436625096e-04 
8 1  7.223738894744e-05  -3.941843478219e-05  -1.180801624192e-04 
8
Step 54000
1 1  2.181125506804e-05  -4.185869395852e-05  -1.207466405972e-04 
2 1  6.118222648085e-05   2.238405636433e-04   7.494375451212e-05 
3 1 -9.334100066449e-05  -1.830104107301e-06   1.090379132860e-04 
4 1 -1.881985388909e-04   6.596887153138e-05   5.620181996460e-05 
5 1  2.113486776029e-04   6.939066504001e-05   2.094754592478e-04 