8
Step 0
1 1  0.000000000000e+00   0.000000000000e+00   0.000000000000e+00 
2 1  0.000000000000e+00   0.000000000000e+00   0.000000000000e+00 
3 1  0.000000000000e+00   0.000000000000e+00   0.000000000000e+00 
4 1  0.000000000000e+00   0.000000000000e+00   0.000000000000e+00 
5 1  0.000000000000e+00   0.000000000000e+00   0.000000000000e+00 
6 1  0.000000000000e+00   0.000000000000e+00   0.000000000000e+00 
7 1  0.000000000000e+00   0.000000000000e+00   0.000000000000e+00 
8 1  0.000000000000e+00   0.000000000000e+00   0.000000000000e+00 
8
Step 1000
1 1 -6.323623125654e-05  -3.940303915938e-05   4.849623013737e-05 
2 1 -5.599688963257e-05   1.224945486305e-04  -5.665662317403e-05 
3 1 -1.075347618765e-04   1.307928190162e-04  -1.118830439928e-04 
4 1 -1.342810069938e-04   1.043629782360e-04   4.886914926421e-05 
5 1 -7.649895440434e-05   1.060335818634e-04  -2.600265654968e-05 
6 1  3.904232041976e-05  -2.237585677098e-04  -3.181702209610e-05 
7 1 -4.603995563182e-05   1.212259796704e-04   1.217990177017e-04 
8 1  1.316461916931e-04  -3.415778758067e-05  -5.852684114211e-06 
8
Step 2000
1 1 -5.048913272388e-05  -3.724144281044e-05  -2.858826628869e-05 
2 1 -3.889113918090e-05   6.278199875602e-05  -4.965817575615e-05 
3 1 -7.041513789221e-05   5.897392634167e-06  -8.830872160441e-05 
4 1 -6.702478255646e-05   7.920629364382e-05   1.611494472752e-05 
5 1  1.610336681673e-05   2.649215850700e-05  -8.955242685987e-06 
6 1 -2.616358854868e-05  -1.625277890583e-04   5.149805224283e-05 
7 1 -3.023093921020e-05   1.830502119439e-05   9.057117585732e-05 
8 1  1.681777158208e-05  -8.752810424033e-05   9.542568798426e-06 
8
Step 3000
1 1 -1.844506961127e-05  -2.323352860113e-05  -1.055181073179e-04 
2 1  3.424821971724e-06  -3.018374864191e-05  -1.356846862450e-05 
3 1 -1.326030057664e-05  -1.072788153629e-04  -5.065077226101e-05 
4 1  2.535432524278e-05   1.894117699965e-05  -4.274707571517e-05 
5 1  8.864713047091e-05  -5.825640753913e-05  -1.329386317668e-05 
6 1 -7.054287666877e-05  -4.073038048621e-05   1.158886162738e-04 
7 1 -1.333079550267e-05  -8.357775429008e-05   2.757955053706e-05 
8 1 -9.537471617107e-05  -8.669003059062e-05   2.792903908810e-05 
8
Step 4000
1 1  3.495272598693e-05   1.106120518035e-05  -1.503892508315e-04 
2 1  2.490791489648e-05  -1.125454719230e-04   5.731589205183e-05 
3 1  2.844515103756e-05  -1.434535608261e-04  -9.401235209453e-06 
4 1  8.874748781842e-05  -3.798896789421e-05  -8.601918788646e-05 
5 1  1.081907163129e-04  -1.060891426222e-04  -1.944856567519e-05 
6 1 -8.363087518476e-05   5.824321847104e-05   1.159589486756e-04 
7 1 -2.948528536276e-06  -1.307416297303e-04  -2.723952406214e-05 
8 1 -1.510709881803e-04  -3.661721764418e-05   3.750884582770e-05 
8
Step 5000
1 1  6.878040160157e-05   4.927692716687e-05  -1.206577734690e-04 
2 1  1.529839686324e-05  -1.374501446162e-04   1.138561031248e-04 
3 1  5.157568708782e-05  -1.106765333161e-04   2.522649716300e-05 
4 1  1.011220563817e-04  -6.950639237816e-05  -9.563424092350e-05 
5 1  8.043780330793e-05  -1.069382726029e-04  -8.731484063921e-06 
6 1 -6.937750191019e-05   1.074248452305e-04   6.323071972550e-05 
7 1  1.482045193765e-06  -1.186498309283e-04  -5.319310666645e-05 
8 1 -1.359048627073e-04   2.991160397605e-05   3.378900825022e-05 
8
Step 6000
1 1  5.349922409119e-05   7.188527356029e-05  -2.326030541238e-05 
2 1 -2.878168495153e-06  -9.214110000780e-05   1.309782462347e-04 
3 1  5.876837007656e-05  -3.383987070846e-05   5.155984978860e-05 
4 1  7.178333527153e-05  -7.241420022458e-05  -7.672317316011e-05 
5 1  2.334070925247e-05  -6.506616299499e-05   1.758794735887e-05 
6 1 -3.883287273948e-05   1.013663174324e-04  -1.391128129190e-05 
7 1  3.960351448465e-06  -6.626034435656e-05  -5.115623429515e-05 
8 1 -7.256982859953e-05   7.473241212478e-05   1.940159337083e-05 
8
Step 7000
1 1  2.089035881671e-06   7.303637753934e-05   9.459680809231e-05 
2 1 -2.166279299717e-05   6.757681922892e-06   1.033779854813e-04 
3 1  4.945235001323e-05   5.319449303629e-05   6.417427190808e-05 
4 1  2.180734215567e-05  -4.839893113026e-05  -3.714899213290e-05 
5 1 -3.628593893696e-05   2.640085624568e-06   4.822268905309e-05 
6 1 -1.491359973062e-07   4.537124311721e-05  -8.296093603019e-05 
7 1  6.975727441647e-06   3.563686183452e-06  -2.885962265937e-05 
8 1 -1.328651228893e-06   7.911291500104e-05  -4.745213737961e-06 
8
Step 8000
1 1 -4.819143283961e-05   5.146568291435e-05   1.780768259078e-04 
2 1 -3.219378099902e-05   1.216674905572e-04   1.165995487183e-05 
3 1  2.420596476289e-05   1.110032369567e-04   5.628874188970e-05 
4 1 -2.627802027644e-05  -6.700891315467e-06   1.045650456811e-05 
5 1 -7.306044365469e-05   6.687193366911e-05   6.717426303104e-05 
6 1  4.067792970903e-05  -2.797030720182e-05  -1.075070972011e-04 
7 1  1.131609498557e-05   6.415703270995e-05   2.539581670281e-06 
8 1  4.808991835900e-05   5.054101135717e-05  -3.054225284423e-05 
8
Step 9000
1 1 -7.571723287687e-05   1.334323025450e-06   1.984193953289e-04 
2 1 -1.749244940888e-05   1.928054893335e-04  -1.042763522964e-04 
3 1 -7.611808213204e-06   1.154962676723e-04   2.819808190253e-05 
4 1 -5.309671885744e-05   3.550418990257e-05   5.064073941964e-05 
5 1 -7.392407234254e-05   1.030371227635e-04   5.988541297606e-05 
6 1  7.132077616486e-05  -8.282250393909e-05  -7.828599050116e-05 
7 1  1.729304138408e-05   9.358548779381e-05   2.909726367334e-05 
8 1  6.766211146474e-05   4.080662171239e-06  -4.822142474941e-05 
8
Step 10000
1 1 -6.690299094360e-05  -5.335549477936e-05   1.354349410737e-04 
2 1  1.380345991534e-05   1.808084190738e-04  -1.658264964867e-04 
3 1 -3.890952554426e-05   6.548321737162e-05  -1.440920141393e-05 
4 1 -4.985455990854e-05   6.131356488879e-05   7.219599931616e-05 
5 1 -4.183103839176e-05   9.865685018174e-05   2.223711144671e-05 
6 1  8.465987046573e-05  -9.616286406360e-05  -1.318244599211e-05 
7 1  2.548778907251e-05   8.404567308057e-05   3.978070290291e-05 
8 1  5.808365990332e-05  -4.383335545078e-05  -4.832152682429e-05 
8
Step 11000
1 1 -2.579481035348e-05  -8.134585232713e-05   1.054212398292e-05 
2 1  4.085622161253e-05   1.010353879169e-04  -1.554882873885e-04 
3 1 -5.647248070763e-05  -1.325526376476e-05  -5.775260550455e-05 
4 1 -2.486266501271e-05   6.030110064877e-05   6.962531872314e-05 
5 1  6.400752082473e-06   5.383170085818e-05  -3.583281411861e-05 
6 1  7.225094444496e-05  -5.922238106635e-05   5.813138307948e-05 
7 1  3.128463388760e-05   4.102534728434e-05   2.973634183813e-05 
8 1  2.326387888456e-05  -7.362501558541e-05  -3.168650050141e-05 
8
Step 12000
1 1  2.582777633049e-05  -6.166626938049e-05  -1.022495485232e-04 
2 1  5.134062099872e-05  -9.994335836388e-07  -9.985667459824e-05 
3 1 -5.932005977018e-05  -8.235517269516e-05  -8.510446527758e-05 
4 1  6.959848294160e-06   3.125107142036e-05   4.154533448678e-05 
5 1  4.615015768001e-05  -1.462532057009e-05  -9.041477665365e-05 
6 1  2.630943757915e-05   8.313285632469e-06   9.654363221760e-05 
7 1  2.373513729348e-05  -1.868901683280e-05   1.202119040075e-06 
8 1 -2.231864530228e-05  -7.087184160971e-05   7.522388352470e-06 
8
Step 13000
1 1  5.358380950504e-05  -1.998275335653e-05  -1.454331105026e-04 
2 1  4.110319879276e-05  -6.215125759496e-05  -3.239575588599e-05 
3 1 -4.873788316053e-05  -1.153752041995e-04  -8.375592372423e-05 
4 1  3.200844526168e-05  -1.550273710590e-05  -3.572621097170e-06 
5 1  5.684041514861e-05  -7.511515531703e-05  -1.144019841531e-04 
6 1 -3.261351799651e-05   7.091652803660e-05   8.194109200796e-05 
7 1 -4.714442706023e-06  -7.067667435448e-05  -3.376782298302e-05 
8 1 -6.011715481328e-05  -3.487106553246e-05   6.012571814402e-05 
8
Step 14000
1 1  4.836024570904e-05   1.848090710464e-05  -1.225900423426e-04 
2 1  1.022049664477e-05  -7.273633097678e-05   2.737217143501e-05 
3 1 -2.348154124901e-05  -9.748793415401e-05  -5.011468732018e-05 
4 1  3.894146924374e-05  -6.065267379106e-05  -4.854307321419e-05 
5 1  3.605494926946e-05  -1.032384593928e-04  -9.211029218936e-05 
6 1 -7.747181514659e-05   9.985719634309e-05   3.108726331532e-05 
7 1 -4.742087205644e-05  -9.135344089951e-05  -5.494283494312e-05 
8 1 -7.645719115313e-05   1.994991825574e-05   1.024995008009e-04 
8
Step 15000
1 1  2.109567370640e-05   3.583360924970e-05  -5.117808849967e-05 
2 1 -2.760944491692e-05  -4.812669798444e-05   6.613500300460e-05 
3 1  1.429994089359e-05  -3.286848826595e-05   1.047348406732e-05 
4 1  2.530031912198e-05  -8.295415342678e-05  -7.627456129435e-05 
5 1  2.379081937378e-07  -8.930603936329e-05  -2.373785356236e-05 
6 1 -9.334853916703e-05   8.160327079191e-05  -2.299433039086e-05 
7 1 -9.268820660107e-05  -7.124947565888e-05  -4.656103286707e-05 
8 1 -6.617345010971e-05   7.044179214738e-05   1.073229554935e-04 
8
Step 16000
1 1 -1.467266849561e-05   2.554897246497e-05   3.229274536570e-05 
2 1 -5.420085436132e-05  -5.986521998987e-06   7.729108015683e-05 
3 1  4.891309036061e-05   4.244801800378e-05   7.563259479923e-05 
4 1  1.065643136265e-06  -6.709772228500e-05  -7.862456322712e-05 
5 1 -2.928818036776e-05  -3.852680552472e-05   6.684176189223e-05 
6 1 -7.643924688063e-05   2.820541150982e-05  -5.907304654995e-05 
7 1 -1.216838480175e-04  -2.076492786563e-05  -5.009551437405e-06 
8 1 -2.395930869233e-05   9.057734384890e-05   7.309207895107e-05 
8
Step 17000
1 1 -4.185167417187e-05  -8.318213248758e-06   8.704481024490e-05 
2 1 -5.690029953881e-05   2.729830668837e-05   6.007359336025e-05 
3 1  7.203249320680e-05   9.623328862289e-05   1.195552928003e-04 
4 1 -1.906663882220e-05  -1.563805446929e-05  -4.938003761981e-05 
5 1 -3.612789748037e-05   2.725662037239e-05   1.369372396220e-04 
6 1 -3.453517158061e-05  -3.097599485790e-05  -6.289628901788e-05 
7 1 -1.079367300527e-04   3.409766991852e-05   5.798919731206e-05 
8 1  3.008523515302e-05   6.992401644679e-05  -4.275792332210e-06 
8
Step 18000
1 1 -4.379873013009e-05  -4.098847097661e-05   9.526276193793e-05 
2 1 -2.773373658753e-05   3.072491978565e-05   2.337099265066e-05 
3 1  7.903621938420e-05   1.116842472657e-04   1.182235331563e-04 
4 1 -3.280921262282e-05   5.336272196542e-05  -2.478971589725e-06 
5 1 -1.947147561589e-05   7.782814207123e-05   1.488515673319e-04 
6 1  1.212305382384e-05  -6.551805421574e-05  -3.516629441504e-05 
7 1 -3.792859103976e-05   6.310219688455e-05   1.115340998964e-04 
8 1  6.661073570780e-05   2.392524730948e-05  -9.693791610747e-05 
8
Step 19000
1 1 -1.900375984640e-05  -4.976462532399e-05   6.132168166815e-05 
2 1  2.618069931650e-05   1.204198891738e-05  -2.158041655400e-05 
3 1  5.642073422185e-05   7.692260916303e-05   6.714552254510e-05 
4 1 -3.648933998847e-05   1.088485844051e-04   3.398310261075e-05 
5 1  6.904115794502e-06   9.680972053507e-05   9.162216077109e-05 
6 1  4.780237468960e-05  -6.732492926748e-05   4.694954996928e-06 
7 1  6.076422768468e-05   5.547018720355e-05   1.193717720946e-04 
8 1  7.599584458074e-05  -1.584554576396e-05  -1.550313501950e-04 
8
Step 20000
1 1  1.820228706987e-05  -2.561284855075e-05  -6.299167755420e-06 
2 1  7.920347639360e-05  -1.648833231494e-05  -6.441234797028e-05 
3 1  1.831716282617e-05   1.746083600034e-05  -2.685301191655e-06 
4 1 -2.489286041230e-05   1.219109586729e-04   4.504137262144e-05 
5 1  2.318436313284e-05   7.732977859046e-05  -1.145970426674e-05 
6 1  5.941574854039e-05  -3.885904437079e-05   3.280479647826e-05 
7 1  1.378658181353e-04   1.415209295252e-05   7.313540085485e-05 
8 1  6.536240894816e-05  -2.963072274964e-05  -1.534773301960e-04 
8
Step 21000
1 1  5.046298870557e-05   2.017727287444e-05  -8.133904993726e-05 
2 1  1.012711774513e-04  -4.080177012618e-05  -9.313846039665e-05 
3 1 -1.529754952827e-05  -2.450424595166e-05  -5.965595123685e-05 
4 1 -1.831729429119e-06   8.187452819708e-05   4.064862424069e-05 
5 1  2.621156452564e-05   2.922024347776e-05  -1.093607659024e-04 
6 1  4.431609351811e-05   4.826223936418e-06   3.998474730710e-05 
7 1  1.667238987687e-04  -3.217034110529e-05  -6.754139886136e-06 
8 1  3.709637516513e-05  -1.318982183171e-05  -1.042133376021e-04 
8
Step 22000
1 1  6.348752174473e-05   7.612578876876e-05  -1.236883309632e-04 
2 1  7.600749139493e-05  -3.308755073662e-05  -8.705203636448e-05 
3 1 -3.630681849838e-05  -4.084873190563e-05  -9.056867995121e-05 
4 1  1.922623874871e-05   3.578742608498e-06   2.593971107642e-05 
5 1  1.681227579985e-05  -2.897957577505e-05  -1.551524936392e-04 
6 1  8.677428370084e-06   4.243173480321e-05   2.517899680826e-05 
7 1  1.364294132726e-04  -4.962235198922e-05  -9.004016522313e-05 
8 1  1.185062839893e-05   1.313692673218e-05  -3.044346271371e-05 
8
Step 23000
1 1  4.348190998509e-05   1.228154910149e-04  -1.112551904801e-04 
2 1 -1.739118546888e-06   1.586571612189e-05  -3.982504716345e-05 
3 1 -4.891592857359e-05  -4.637229396551e-05  -8.363394713332e-05 
4 1  3.848755713144e-05  -7.862989527756e-05   1.129666909322e-05 
5 1  1.455685739247e-06  -7.300679546597e-05  -1.280227605242e-04 
6 1 -3.264605069891e-05   5.352092721448e-05  -2.258476740214e-06 
7 1  5.865466647671e-05  -2.292002233838e-05  -1.416177709924e-04 
8 1  6.126294071106e-07   1.890750813012e-05   3.760859620463e-05 
8
Step 24000
1 1 -1.410208343890e-05   1.210644730458e-04  -4.030032949505e-05 
2 1 -1.047705435700e-04   8.029319914346e-05   2.692526878271e-05 
3 1 -4.434457473196e-05  -3.567273228952e-05  -3.722906981974e-05 
4 1  4.847779863223e-05  -1.293775315255e-04   1.026779299322e-05 
5 1 -1.177678638219e-05  -8.917612788474e-05  -4.286381701745e-05 
6 1 -5.857335300589e-05   3.191064607732e-05  -2.711910058875e-05 
7 1 -3.191625273516e-05   2.756967331977e-05  -1.347805574332e-04 
8 1 -8.380878816703e-06  -8.054514586804e-07   8.097593897218e-05 
8
Step 25000
1 1 -8.409768413235e-05   5.085641684778e-05   6.822955552145e-05 
2 1 -1.724514856391e-04   1.188085512056e-04   7.848628640336e-05 
3 1 -2.299777316526e-05  -1.455633983714e-05   2.074546787332e-05 
4 1  3.969015149610e-05  -1.291970407437e-04   1.864976996386e-05 
5 1 -1.466180445994e-05  -6.890048221585e-05   5.657427734919e-05 
6 1 -5.243449537571e-05  -1.139769710103e-05  -3.858163261796e-05 
7 1 -9.413560400741e-05   6.685947416858e-05  -7.411627543622e-05 
8 1 -2.249367265389e-05  -3.236821262859e-05   8.919141948005e-05 
8
Step 26000
1 1 -1.154467953213e-04  -4.319766947339e-05   1.497493336583e-04 
2 1 -1.630871757735e-04   1.080259802464e-04   9.811428872003e-05 
3 1  4.648160684612e-06  -3.113032711874e-06   6.187937199628e-05 
4 1  6.995766052423e-06  -7.254255998347e-05   1.919695225212e-05 
5 1 -9.837227735068e-06  -2.366018808986e-05   1.187358014535e-04 
6 1 -8.816665386066e-06  -5.513534109775e-05  -3.174511821515e-05 
7 1 -1.059923632549e-04   7.272588951542e-05   8.672429436637e-06 
8 1 -3.499462294306e-05  -5.670664984004e-05   5.624443804514e-05 
8
Step 27000
1 1 -9.439770099783e-05  -1.152605873186e-04   1.618399796694e-04 
2 1 -7.844786437487e-05   4.348894942641e-05   8.287228381834e-05 
3 1  3.050558435792e-05   1.861623277577e-06   7.746192988113e-05 
4 1 -3.716017644623e-05   2.498885500216e-05  -2.250604111316e-06 
5 1 -3.739498450630e-06   2.484819794470e-05   1.177577655531e-04 
6 1  5.498720306245e-05  -7.311959119456e-05  -9.971221664476e-06 
7 1 -7.435016680272e-05   4.324184762859e-05   7.942957490562e-05 
8 1 -3.635626619086e-05  -5.392604996484e-05  -9.678040700082e-06 
8
Step 28000
1 1 -3.341606036727e-05  -1.406934941669e-04   1.042772161750e-04 
2 1  3.427254308800e-05  -4.507237499223e-05   4.113320973946e-05 
3 1  4.635809933393e-05   1.673584988613e-05   6.415857586366e-05 
4 1 -7.251099161133e-05   1.181045746776e-04  -3.326075103275e-05 
5 1 -2.000456213314e-06   5.962937716044e-05   5.998347989554e-05 
6 1  1.055399688218e-04  -5.005518916989e-05   1.528223104346e-05 
7 1 -2.477619938482e-05  -9.768762108808e-06   1.137354511896e-04 
8 1 -2.326501190531e-05  -1.597126964483e-05  -8.070456935166e-05 
8
Step 29000
1 1  3.716596230302e-05  -1.050466872117e-04   1.321180893551e-05 
2 1  1.144644607061e-04  -1.092076371816e-04  -1.510788443034e-07 
3 1  4.373227501571e-05   4.543701617000e-05   2.279201990439e-05 
4 1 -8.728463270706e-05   1.647285278724e-04  -6.014482201733e-05 
5 1 -1.084460843314e-05   6.714846334355e-05  -2.370263088642e-05 
6 1  1.156964854430e-04   6.015330415257e-06   3.620437619916e-05 
7 1  1.746272777454e-05  -6.054184709316e-05   9.836352620261e-05 
8 1  3.050650636244e-06   4.342199116803e-05  -1.225251868004e-04 
8
Step 30000
1 1  7.922555735554e-05  -2.704073852710e-05  -6.253889137803e-05 
2 1  1.340784833534e-04  -1.227516989360e-04  -2.306570566814e-05 
3 1  2.229380447997e-05   7.905673310151e-05  -4.106533501042e-05 
4 1 -7.134774586001e-05   1.392992024555e-04  -7.252567156167e-05 
5 1 -2.436110601595e-05   4.477748876120e-05  -8.952684277482e-05 
6 1  6.144705117717e-05   7.089826199909e-05   4.500612956858e-05 
7 1  3.870903384064e-05  -8.238118667094e-05   4.007459403619e-05 
8 1  3.338822191258e-05   9.745253378931e-05  -1.123118538587e-04 
8
Step 31000
1 1  7.181641215908e-05   4.818319270778e-05  -8.975503778271e-05 
2 1  8.777249681134e-05  -8.580159300153e-05  -2.414693250221e-05 
3 1 -1.460233754239e-05   8.970658222869e-05  -1.177197424999e-04 
4 1 -1.922829037150e-05   5.028707406461e-05  -6.210211308085e-05 
5 1 -2.842451907175e-05   4.829354020675e-06  -1.033108428305e-04 
6 1 -4.245639694919e-05   1.095523430779e-04   3.325515057746e-05 
7 1  3.720229994896e-05  -6.435695629841e-05  -3.392993517352e-05 
8 1  5.706145133138e-05   1.188728430612e-04  -4.979421180170e-05 
8
Step 32000
1 1  2.517344780088e-05   8.734195564674e-05  -7.288305155438e-05 
2 1 -1.463458864635e-06  -1.536862264408e-05  -1.426805822058e-05 
3 1 -5.109364437522e-05   5.167968430488e-05  -1.752433657557e-04 
4 1  5.246729315609e-05  -5.992283246129e-05  -2.093815743757e-05 
5 1 -1.544249120588e-05  -3.385063159834e-05  -5.963392748730e-05 
6 1 -1.401905805747e-04   9.590374917110e-05   8.973792840688e-06 
7 1  1.958438032493e-05  -1.837346258049e-05  -8.872654942693e-05 
8 1  6.356121481968e-05   9.065936692412e-05   4.252598055353e-05 
8
Step 33000
1 1 -3.287170673803e-05   8.043112710500e-05  -3.290526728619e-05 
2 1 -8.581471142381e-05   5.411047107623e-05  -1.051540026968e-05 
3 1 -6.052282879221e-05  -2.124078593131e-05  -1.722844359429e-04 
4 1  1.050545526069e-04  -1.324451989197e-04   2.955221708574e-05 
5 1  1.616025732267e-05  -5.218541310162e-05   1.731749250367e-05 
6 1 -1.827781979736e-04   3.057917534530e-05  -1.512379098319e-05 
7 1 -2.014136112780e-06   3.213697279997e-05  -1.037210937773e-04 
8 1  4.555732226792e-05   1.992461428038e-05   1.256477966689e-04 
8
Step 34000
1 1 -6.923696399553e-05   3.770494318808e-05   1.014778263338e-05 
2 1 -1.211121956590e-04   9.847076543806e-05  -1.761367244072e-05 
3 1 -4.138396087991e-05  -1.031818261076e-04  -1.036916104459e-04 
4 1  1.176788154619e-04  -1.373386542743e-04   6.155759082955e-05 
5 1  5.729569539671e-05  -4.097539783709e-05   8.774844740846e-05 
6 1 -1.506783840274e-04  -6.187300209914e-05  -3.473127017629e-05 
7 1 -1.592342353744e-05   6.700096973482e-05  -7.664951361895e-05 
8 1  1.156933711094e-05  -5.894350269405e-05   1.570326821134e-04 
8
Step 35000
1 1 -6.604104530820e-05  -2.318720609039e-05   4.076748246399e-05 
2 1 -9.365581919204e-05   9.946139904959e-05  -2.935869216298e-05 
3 1 -1.176415871133e-05  -1.543026346803e-04  -8.685859419094e-06 
4 1  8.783599148668e-05  -7.733105648365e-05   6.969309098423e-05 
5 1  8.366153975369e-05  -7.905485255436e-06   1.133534311521e-04 
6 1 -4.205794323953e-05  -1.362334773866e-04  -4.022314801724e-05 
7 1 -1.587868411036e-05   7.320997024754e-05  -1.875043700376e-05 
8 1 -1.994802670457e-05  -1.081761392440e-04   1.213916240489e-04 
8
Step 36000
1 1 -2.346033791252e-05  -6.993335466988e-05   4.768381904324e-05 
2 1 -1.307844895163e-05   6.023599638586e-05  -3.639729750298e-05 
3 1  7.045623567547e-06  -1.441831750436e-04   6.095976249600e-05 
4 1  3.154831479520e-05   2.558664962835e-06   5.836971171911e-05 
5 1  6.977721317337e-05   2.767889250427e-05   7.589542072730e-05 
6 1  8.527506253716e-05  -1.484006588516e-04  -2.452096719555e-05 
7 1 -2.107542885992e-06   4.700829232239e-05   5.101371228150e-05 
8 1 -3.569243289847e-05  -1.112916004441e-04   4.711737522238e-05 
8
Step 37000
1 1  4.089063045373e-05  -7.775323023483e-05   3.829808185363e-05 
2 1  8.062165015854e-05   3.253958311814e-07  -3.003783312959e-05 
3 1  9.481948025903e-06  -7.931002983686e-05   8.503102807120e-05 
4 1 -3.230066058865e-05   5.675720904474e-05   3.095671054065e-05 
5 1  1.298559809774e-05   4.667641195032e-05  -8.644294388294e-06 
6 1  1.589145035852e-04  -9.508203420588e-05  -1.050569085054e-06 
7 1  2.054395117037e-05  -6.090215852791e-06   1.118249874438e-04 
8 1 -3.280962278252e-05  -7.822958964613e-05  -2.287059135942e-05 
8
Step 38000
1 1  9.792474084959e-05  -4.601857897433e-05   2.034446122370e-05 
2 1  1.351904182553e-04  -4.847932570643e-05  -9.707122625331e-07 
3 1 -1.369585256542e-06  -2.138944068525e-06   7.162541020140e-05 
4 1 -8.121888800395e-05   7.800487321068e-05  -5.090708358177e-06 
5 1 -6.215087317300e-05   3.756473161028e-05  -9.383708764366e-05 
6 1  1.584275180560e-04  -8.380942988496e-06   1.614889978480e-05 
7 1  4.281713419053e-05  -7.014754617390e-05   1.455762186545e-04 
8 1 -2.123644042750e-05  -3.068542156539e-05  -6.940695657853e-05 
8
Step 39000
1 1  1.169050999956e-04   1.632211975120e-05  -5.452387920630e-06 
2 1  1.210019568457e-04  -7.048259072216e-05   4.873534202122e-05 
3 1 -1.478426208344e-05   6.687462904279e-05   3.316333478635e-05 
4 1 -9.169763429708e-05   5.875599157811e-05  -3.762434218461e-05 
5 1 -1.190568424818e-04   7.932555262374e-06  -1.316739660802e-04 
6 1  9.997515569175e-05   6.707474128108e-05   2.356491290433e-05 
7 1  5.269741811198e-05  -1.207221912417e-04   1.374840622461e-04 
8 1 -1.029325122558e-05   1.609127936921e-05  -8.767697222850e-05 
8
Step 40000
1 1  7.323196435473e-05   9.492924070482e-05  -3.553278473496e-05 
2 1  4.364064620815e-05  -6.043655797348e-05   8.415254389682e-05 
3 1 -1.664926115343e-05   1.052302391830e-04  -3.614330709611e-06 
4 1 -5.868540819623e-05   4.278523793776e-06  -5.527173226325e-05 
5 1 -1.316213265322e-04  -2.230378992918e-05  -1.032139044759e-04 
6 1  1.189974240423e-05   9.746280759075e-05   1.796720263124e-05 
7 1  3.497575482741e-05  -1.293446611829e-04   7.204943969775e-05 
8 1  2.494619218178e-06   5.126543223861e-05  -5.639615154613e-05 
8
Step 41000
1 1 -3.140216801386e-05   1.417078383630e-04  -5.833520437992e-05 
2 1 -5.081231618888e-05  -3.326213153713e-05   8.444290160567e-05 
3 1 -1.122790410900e-06   9.919518930740e-05  -1.815948031492e-05 
4 1  1.263470066256e-06  -4.650226684798e-05  -5.301399134552e-05 
5 1 -8.950043590259e-05  -3.786591512541e-05  -2.406347376903e-05 
6 1 -6.784525997841e-05   7.924819666626e-05   3.076603521432e-06 
7 1 -8.602802324988e-06  -8.109274303545e-05  -2.404459150646e-05 
8 1  6.260336747057e-06   6.146124069423e-05  -7.493259607647e-07 
8
Step 42000
1 1 -1.419834623269e-04   1.170646105155e-04  -7.282893112025e-05 
2 1 -1.108110228483e-04  -6.291660891117e-06   6.245494721351e-05 
3 1  2.395649813306e-05   5.393466564190e-05  -1.014251108936e-05 
4 1  6.568548152256e-05  -6.987841717374e-05  -3.059274522243e-05 
5 1 -9.270228330676e-06  -3.755499057309e-05   6.033187603767e-05 
6 1 -1.078236379339e-04   2.907066012256e-05  -1.302924253137e-05 
7 1 -6.202681302487e-05   9.655479844529e-07  -9.291106049526e-05 
8 1  8.923905615213e-07   4.428903148199e-05   4.510777833418e-05 
8
Step 43000
1 1 -2.046211571299e-04   4.133081746831e-05  -6.699413312203e-05 
2 1 -1.156290475861e-04   7.749046559715e-06   1.034259814109e-05 
3 1  4.643483734978e-05  -1.415442407701e-05   1.388670309314e-05 
4 1  1.094561325522e-04  -7.013536020514e-05  -1.743574951024e-06 
5 1  6.348882278957e-05  -2.081770105438e-05   1.102925748501e-04 
6 1 -1.038194012083e-04  -3.323187039931e-05  -2.578427195387e-05 
7 1 -1.063506721478e-04   6.351985016522e-05  -1.062547417254e-04 
8 1  1.005574181248e-05   1.069810576606e-05   8.646203130293e-05 
8
Step 44000
1 1 -1.808853458143e-04  -5.026415361837e-05  -4.036603655709e-05 
2 1 -7.145584515983e-05   5.202265593217e-06  -4.311454845247e-05 
3 1  4.660996126514e-05  -8.215541102229e-05   3.297106448173e-05 
4 1  1.044358989331e-04  -3.818807965741e-05   3.154018331562e-05 
5 1  9.647940093943e-05   1.763178710140e-06   9.917716176267e-05 
6 1 -6.014117170388e-05  -8.127036488378e-05  -2.933221767180e-05 
7 1 -1.239780792656e-04   7.099337481690e-05  -7.360876516117e-05 
8 1  2.757316108851e-05  -1.595531643199e-05   1.031341621978e-04 
8
Step 45000
1 1 -8.120226899614e-05  -1.058224379895e-04   2.617961915954e-06 
2 1 -7.930639583024e-06  -5.822068706750e-06  -6.703578936830e-05 
3 1  2.011768686799e-05  -1.201895829702e-04   2.468856502488e-05 
4 1  4.157785329673e-05   2.329908570754e-05   6.319125565633e-05 
5 1  8.927883032914e-05   1.419432126800e-05   4.019142479419e-05 
6 1  1.019310503270e-05  -9.022219941412e-05  -2.092929900577e-05 
7 1 -9.409094933811e-05   3.569650500829e-05  -1.929445309765e-05 
8 1  2.853170353662e-05  -3.917345292684e-05   5.403632287602e-05 
8
Step 46000
1 1  3.213543862408e-05  -9.436377127736e-05   3.110713813178e-05 
2 1  4.183058434680e-05  -6.412021299113e-06  -6.339787924445e-05 
3 1 -2.755188557401e-05  -1.112356693855e-04  -1.326833101315e-05 
4 1 -5.842392242612e-05   8.595052971012e-05   7.974352060026e-05 
5 1  5.579394266375e-05   1.426684307015e-05  -2.396694692715e-05 
6 1  7.478527313411e-05  -6.080786927870e-05  -1.001615768416e-06 
7 1 -2.610442893776e-05  -1.030847664721e-05   1.659498952559e-05 
8 1  1.850757628934e-05  -5.458900914089e-05  -3.550480079975e-05 
8
Step 47000
1 1  1.043472008409e-04  -3.337527031541e-05   4.416832769618e-05 
2 1  6.516580748177e-05   5.632699311992e-06  -4.057445738542e-05 
3 1 -8.437592124740e-05  -4.507903020604e-05  -7.162659379561e-05 
4 1 -1.614297229059e-04   1.288707798634e-04   6.084621836065e-05 
5 1  6.390473092950e-06   1.660514605960e-05  -5.698597506857e-05 
6 1  1.021233905498e-04  -1.241745036333e-05   2.877076310771e-05 
7 1  5.684246863819e-05  -5.323898544172e-05   1.825214868079e-05 
8 1 -6.899057193656e-07  -5.101216269437e-05  -1.286115288079e-04 
8
Step 48000
1 1  1.239749236449e-04   3.096966047507e-05   4.197893342617e-05 
2 1  5.723060606850e-05   1.901244416799e-05   1.017385347530e-05 
3 1 -1.222999137119e-04   6.861774371413e-05  -1.253768680463e-04 
4 1 -2.147257856844e-04   1.320848450854e-04   2.592922909140e-05 
5 1 -3.899568961759e-05   1.310412552579e-05  -6.358185803361e-05 
6 1  8.488312594494e-05   3.421375081229e-05   5.772576406119e-05 
7 1  1.168710811465e-04  -6.175555233719e-05  -2.876297847254e-06 
8 1 -3.782055859925e-05  -2.400018886531e-05  -1.995903809606e-04 
8
Step 49000
1 1  8.990461807917e-05   6.666411527568e-05   2.867849855672e-05 
2 1  2.556117332290e-05   3.059564149970e-05   6.318995405284e-05 
3 1 -1.089982338698e-04   1.857589573336e-04  -1.381077985158e-04 
4 1 -1.776823123736e-04   8.173465888734e-05  -3.308130298479e-05 
5 1 -5.699986591948e-05  -4.552634377805e-06  -3.240734156637e-05 
6 1  3.308441561751e-05   6.596955906990e-05   7.247178901093e-05 
7 1  1.337760868970e-04  -3.485403612987e-05  -2.350114256037e-05 
8 1 -7.548606551214e-05   7.499181742421e-06  -2.046142068764e-04 
8
Step 50000
1 1  2.090184884791e-05   6.018421542598e-05   2.670557307459e-06 
2 1 -1.616309954477e-05   3.256781254996e-05   8.489764722138e-05 
3 1 -3.834732965265e-05   2.415796283708e-04  -8.662798902639e-05 
4 1 -4.744741322237e-05  -1.442770867400e-05  -1.005040160085e-04 
5 1 -4.599443250707e-05  -1.952257748463e-05   2.321229005713e-05 
6 1 -3.277589694617e-05   7.471202591818e-05   5.818239790276e-05 
7 1  1.061558989969e-04   4.259267798881e-06  -3.123056638831e-05 
8 1 -8.002405196207e-05   3.621124257096e-05  -1.061399213888e-04 
8
Step 51000
1 1 -4.475916947504e-05   1.858015854796e-05  -2.717002702684e-05 
2 1 -4.975485415025e-05   1.561919450961e-05   6.233585658354e-05 
3 1  5.624729261855e-05   1.998615525301e-04   5.608148188790e-06 
4 1  8.531195972762e-05  -8.631652222860e-05  -1.258763751260e-04 
5 1 -1.676402912927e-05  -2.310500790187e-05   7.113026792839e-05 
6 1 -7.686188807217e-05   6.292738582170e-05   1.043923033899e-06 
7 1  5.727025979574e-05   3.613093312952e-05  -2.131750314458e-05 
8 1 -5.083010860075e-05   5.021277146323e-05   5.041642794926e-05 
8
Step 52000
1 1 -8.135036735304e-05  -3.306671431197e-05  -4.559395937424e-05 
2 1 -6.442160624726e-05  -2.123501352404e-05   6.380028900714e-07 
3 1  1.209979820750e-04   9.087501173511e-05   8.386491961810e-05 
4 1  1.561422528591e-04  -1.053888057924e-04  -1.071660308913e-04 
5 1  1.410382347615e-05  -1.444975110153e-05   8.272621968730e-05 
6 1 -7.862182899172e-05   3.733117529052e-05  -8.792265443425e-05 
7 1  1.127593387860e-05   5.194212684151e-05   9.963251915511e-07 
8 1 -1.057833650024e-05   3.904601874712e-05   1.621986044478e-04 
8
Step 53000
1 1 -8.573225931610e-05  -6.887215895375e-05  -4.535972978067e-05 
2 1 -4.942237859253e-05  -6.962372401621e-05  -8.971868362337e-05 
3 1  1.282477914753e-04  -1.543695781835e-05   1.164585905720e-04 
4 1  1.491624776011e-04  -8.006709990571e-05  -6.149254039101e-05 
5 1  3.389213670187e-05   3.948509479694e-06   4.366677230481e-05 
6 1 -4.611758630696e-05   2.298624225562e-06  -1.667353664841e-04 
7 1 -2.596865686851e-05   4.412921765385e-05   2.643228006754e-05 
8 1  2.250294072262e-05   1.167968791126e-05   1.843863275275e-04 
8
Step 54000
1 1 -5.315266502798e-05  -6.838077261555e-05  -2.675491241001e-05 
2 1 -1.383787161312e-05  -1.111724979677e-04  -1.686603933704e-04 
3 1  8.282682409388e-05  -7.992124566213e-05   1.049354909268e-04 
4 1  7.054674584229e-05  -3.738374574944e-05  -4.801227578400e-06 
5 1  3.444155649213e-05   2.755695487713e-05  -4.355294905742e-05 