8
Step 0
1 1 0.00000000000000000e+00 0.00000000000000000e+00 0.00000000000000000e+00
2 1 0.00000000000000000e+00 0.00000000000000000e+00 0.00000000000000000e+00
3 1 0.00000000000000000e+00 0.00000000000000000e+00 0.00000000000000000e+00
4 1 0.00000000000000000e+00 0.00000000000000000e+00 0.00000000000000000e+00
5 1 0.00000000000000000e+00 0.00000000000000000e+00 0.00000000000000000e+00
6 1 0.00000000000000000e+00 0.00000000000000000e+00 0.00000000000000000e+00
7 1 0.00000000000000000e+00 0.00000000000000000e+00 0.00000000000000000e+00
8 1 0.00000000000000000e+00 0.00000000000000000e+00 0.00000000000000000e+00
8
Step 1000
1 1 2.99104963249510037e-06 -8.65465098008190742e-07 -2.44448931250691262e-06
2 1 2.00978599415143681e-06 -3.39203794732948692e-06 -3.29493911567213066e-08
3 1 -2.24280949762099456e-06 -2.31510663990735749e-06 -2.90128336250772221e-07
4 1 2.42182986347467330e-06 -2.41182137624991026e-06 -4.99362472623898383e-07
5 1 2.57601326186804118e-06 -3.02061920520365005e-06 -2.47500628525274812e-06
6 1 1.42686051907297071e-06 3.84615055023070138e-06 2.89453337871080267e-06
7 1 -2.93331677754787289e-07 1.24763071790163128e-06 -2.95095512137017493e-06
8 1 -4.07408516061071959e-07 2.21909485587684865e-06 4.87090119161634650e-07
8
Step 2000
1 1 2.99465501261753886e-06 -9.56963174205569960e-07 -1.16491703511839437e-06
2 1 8.53035410977950618e-07 -1.92215130705728660e-06 1.13232749775281668e-06
3 1 -1.26481900839909574e-06 -1.35193422921812316e-06 2.06497069701123487e-07
4 1 1.69809402686723979e-07 -2.80960117054155260e-06 -1.38951045011254654e-06
5 1 5.18277604046750551e-07 -3.37908366346416273e-06 -1.66947883230343573e-06
6 1 1.90039989916062773e-06 2.67649873606746383e-06 1.49178945934660275e-06
7 1 9.22480657167011485e-07 1.55538170572478956e-06 -2.02003530619071973e-06
8 1 5.28556644842360679e-07 3.57049150115215627e-06 5.02187939211655971e-07
8
Step 3000
1 1 1.65253070147210349e-06 -8.94120256674731137e-07 5.93013358592644329e-07
2 1 -7.88660802992388109e-07 4.30217235345867877e-07 1.99509282210085470e-06
3 1 2.95009785576664220e-07 1.59764055255522141e-07 6.76790108060681899e-07
4 1 -2.12182352504509673e-06 -1.95007070574487411e-06 -1.73301566714109361e-06
5 1 -1.69709066283544133e-06 -2.34469964859500017e-06 -1.46184740763156481e-07
6 1 1.46207799012346430e-06 1.99084480442246733e-07 -3.76836803502407562e-07
7 1 1.55328317029654682e-06 1.33480586264607162e-06 -9.36290162970385754e-08
8 1 1.38074843993837553e-06 3.28161810567518646e-06 5.45625885022114652e-07
8
Step 4000
1 1 -3.73816927385683871e-07 -6.88955040206549464e-07 1.94962685341864671e-06
2 1 -2.01047774427746365e-06 2.35437508315606052e-06 2.15810016321744309e-06
3 1 1.82370397537328416e-06 1.41876488960055513e-06 9.90688774331795338e-07
4 1 -3.35660051264847353e-06 -3.42561932315510017e-07 -1.66139834804791965e-06
5 1 -2.87313095908935164e-06 -4.59370256511048745e-07 1.40020637805677027e-06
6 1 2.78868765274741306e-07 -2.30840226416483976e-06 -1.68944418760527785e-06
7 1 1.48542922552487903e-06 4.93889108269754296e-07 1.80094517285351270e-06
8 1 1.73782255581385158e-06 1.50037823014676188e-06 4.53821887266820182e-07
8
Step 5000
1 1 -2.08434936390657102e-06 -3.37655145064074269e-07 2.23632801500082137e-06
2 1 -2.19838445109901351e-06 2.89788468341745791e-06 1.55924415221398647e-06
3 1 2.70348011472175265e-06 1.87903036218569858e-06 1.04623818675660060e-06
4 1 -3.04163476722983925e-06 1.22257954663972764e-06 -1.40527508122230299e-06
5 1 -2.50632389628158627e-06 1.34703300255646470e-06 2.26330541124482326e-06
6 1 -1.07787403804577465e-06 -3.64596931654515420e-06 -1.85710609353328744e-06
7 1 9.28697740422721592e-07 -7.12761170037925312e-07 2.69815577530168904e-06
8 1 1.38561354804316854e-06 -8.73794979395136105e-07 1.19042187276527489e-07
8
Step 6000
1 1 -2.71881409859879832e-06 1.64135928313496937e-07 1.39315750630297254e-06
2 1 -1.33578449301201512e-06 1.94096801211961602e-06 4.57653515013339410e-07
3 1 2.59816954367070156e-06 1.46276447723194747e-06 7.97383308799992436e-07
4 1 -1.43178952228210930e-06 2.07711521426428985e-06 -1.09340539735527947e-06
5 1 -9.79176725439316433e-07 2.31878602930288476e-06 2.14748002018890076e-06
6 1 -1.99927376161789960e-06 -3.35952538778545753e-06 -1.00831297945418617e-06
7 1 2.49894898747517749e-07 -1.79234600333379312e-06 2.20274054619203212e-06
8 1 4.59086044584915227e-07 -2.63712397099342146e-06 -3.92195166972025542e-07
8
Step 7000
1 1 -2.13984784690560311e-06 7.69466359659886995e-07 -4.90915632933001698e-08
2 1 5.81073708163034432e-08 1.52571811775662243e-07 -6.64394049055690252e-07
3 1 1.57352723623607524e-06 4.77642164886035581e-07 2.92922957411657362e-07
4 1 6.60635919158848891e-07 1.92772146134785188e-06 -7.05713375567271727e-07
5 1 8.04777810902484152e-07 2.20912866163651672e-06 1.24019082294606503e-06
6 1 -2.11515517740413808e-06 -1.75715247307690567e-06 2.26242084853884632e-07
7 1 -2.25213071315322850e-07 -2.25418461103578897e-06 6.19764008957024377e-07
8 1 -6.12630653511986299e-07 -2.97130348843994784e-06 -8.76833350073005531e-07
8
Step 8000
1 1 -7.99098221272619256e-07 1.34231262836168086e-06 -1.30767993566449433e-06
2 1 1.21410748490374179e-06 -1.42852133545661043e-06 -1.30258817611518009e-06
3 1 8.19636280863346462e-08 -5.56943496008711878e-07 -2.92783044136695007e-07
4 1 2.28449550354330535e-06 9.56528168347681589e-07 -1.49092415281593343e-07
5 1 1.96111707996257837e-06 1.27197926663811886e-06 3.58532459925030594e-08
6 1 -1.41703223640374608e-06 3.20368900815555492e-07 1.08097499672951521e-06
7 1 -3.47175315222365222e-07 -1.85430311770848203e-06 -1.23193812667808167e-06
8 1 -1.34750092930341683e-06 -1.86327370734371923e-06 -1.11887509687895579e-06
8
Step 9000
1 1 5.69083665855100636e-07 1.68589390954423080e-06 -1.76228343270515925e-06
2 1 1.57675573269706960e-06 -2.02528225744614265e-06 -1.24953132624148993e-06
3 1 -1.22659374782239013e-06 -1.17846868469131540e-06 -7.26781140203094737e-07
4 1 2.80748708433629914e-06 -3.17837128384147392e-07 6.02981509814561024e-07
5 1 2.04755248875232038e-06 3.13958950167385506e-08 -9.29929089663266973e-07
6 1 -2.44346081982480886e-07 1.93354485310488064e-06 1.08743563576124857e-06
7 1 -1.90896677975568303e-07 -7.55026894134571738e-07 -2.44090591742032482e-06
8 1 -1.44976392983576422e-06 -2.17541245463402981e-08 -9.94850257929096752e-07
8
Step 10000
1 1 1.33210774285678616e-06 1.62031383277179076e-06 -1.24843988815251468e-06
2 1 1.09417322334036833e-06 -1.47877220143516444e-06 -6.93476584111327853e-07
3 1 -1.84844758785841696e-06 -1.21671089509922182e-06 -8.49884772938007604e-07
4 1 2.13096444227215675e-06 -1.33188050983568803e-06 1.40078467565865493e-06
5 1 1.17845925429016175e-06 -9.79914930761199586e-07 -1.30372154521530140e-06
6 1 9.29085890568110487e-07 2.51800253086448600e-06 2.92891645122023840e-07
7 1 2.80729246229262852e-08 5.48934661264006828e-07 -2.48882254355293668e-06
8 1 -9.43629577090162198e-07 1.55754632341158170e-06 -5.40033244409698627e-07
8
Step 11000
1 1 1.26253338974292421e-06 1.07656519458236410e-06 -1.24404590431320588e-07
2 1 1.57781315933728549e-07 -2.16422636151725367e-07 -2.26066187373033519e-08
3 1 -1.66341970318314952e-06 -8.20343635200792763e-07 -6.54163820690015766e-07
4 1 6.34260757903920166e-07 -1.69967688752803136e-06 1.93253100879046932e-06
5 1 -1.28632783866896073e-07 -1.40332876901110422e-06 -1.02276319381356961e-06
6 1 1.71612050943999522e-06 2.02917861768499155e-06 -8.44689207453314521e-07
7 1 1.22348098208373456e-07 1.50354111237250575e-06 -1.48683368004970145e-06
8 1 -1.42463890041406301e-07 2.13311665343841590e-06 6.87417358412452234e-08
8
Step 12000
1 1 6.28399981392374169e-07 1.62143671117380473e-07 9.44122287986853679e-07
2 1 -6.63969008873187138e-07 1.01743233822073296e-06 3.96422577020681662e-07
3 1 -9.21939167708433692e-07 -2.90847754726331274e-07 -2.61032958034198888e-07
4 1 -1.02264231169997958e-06 -1.32307809884964821e-06 1.88119603946333974e-06
5 1 -1.23206520286957165e-06 -1.15764512294199141e-06 -3.09611993217299746e-07
6 1 1.89218999672891292e-06 8.25765496645111075e-07 -1.67216912123120141e-06
7 1 4.11550146855804188e-08 1.76957726532686660e-06 -3.52861438637977725e-08
8 1 5.45054900979104932e-07 1.55720142409160447e-06 6.04969195677130726e-07
8
Step 13000
1 1 -3.14296831029806501e-08 -8.57074170787410639e-07 1.39982392475232798e-06
2 1 -9.35798497498458722e-07 1.57839957884894275e-06 3.74200647235549348e-07
3 1 -8.00446413232332994e-08 1.15165708715631151e-07 1.51531693392980838e-07
4 1 -2.17156680341241490e-06 -4.09955333362408669e-07 1.13590551124792038e-06
5 1 -1.65945691274353159e-06 -4.39746220624375888e-07 4.41976232572203560e-07
6 1 1.41110218555853576e-06 -5.22846431332637538e-07 -1.63271794901146040e-06
7 1 -1.39080926643727434e-07 1.35314743951913786e-06 1.16436311892323358e-06
8 1 8.44500995878506714e-07 2.59107509008638319e-07 8.87776901919641201e-07
8
Step 14000
1 1 -2.87649046066914589e-07 -1.67825982823013298e-06 1.08631928099445896e-06
2 1 -5.78766528153859398e-07 1.23610182857654735e-06 6.76445305545609313e-09
3 1 4.39857515364739012e-07 3.08121445730452186e-07 4.25428009019892088e-07
4 1 -2.40819187515929084e-06 6.25675416663253449e-07 -9.40212332295537804e-08
5 1 -1.30217216883313107e-06 3.78931227241961443e-07 8.48546874789410461e-07
6 1 4.34561160682822396e-07 -1.46003810754037870e-06 -5.99781109643879865e-07
7 1 -2.97619243227827346e-07 5.30487521620087821e-07 1.67477190878602582e-06
8 1 7.22931760434563167e-07 -1.04948007491099897e-06 8.41757197456158355e-07
8
Step 15000
1 1 -4.27045894742254797e-08 -2.04433950600556967e-06 2.32218713636807748e-07
2 1 1.09190599128865994e-07 2.29091275017757531e-07 -3.70660422700559994e-07
3 1 4.52714514330371170e-07 3.68759666218482812e-07 4.76800159845821560e-07
4 1 -1.73825672814713014e-06 1.35484252639703783e-06 -1.35541733985955726e-06
5 1 -4.31106180629638726e-07 9.09730619309396522e-07 7.12628154812128225e-07
6 1 -6.94893304121458984e-07 -1.65933110075769055e-06 1.01104853327656845e-06
7 1 -3.48951702955521024e-07 -3.33040371906698099e-07 1.43929213187531227e-06
8 1 3.33876782776598818e-07 -1.74506849869939330e-06 5.21131902066732934e-07
8
Step 16000
1 1 4.51983372972437662e-07 -1.76536950970323969e-06 -7.06078490964606741e-07
2 1 6.65154725597282832e-07 -8.83471702704153672e-07 -4.34611782576696457e-07
3 1 8.18263624267404371e-08 4.43659928241325663e-07 3.12865676580732677e-07
4 1 -5.25428155372503218e-07 1.51429957284987367e-06 -2.16302034232016212e-06
5 1 4.69586515434983681e-07 9.18832956369884788e-07 1.22905350575614421e-07
6 1 -1.59953371437540098e-06 -1.16509063867256639e-06 2.44083033496619579e-06
7 1 -2.76131823317685921e-07 -9.19696523465604108e-07 6.92583641210364124e-07
8 1 -1.04006047188496856e-07 -1.53931343171822882e-06 7.91905498851200511e-08
8
Step 17000
1 1 7.49460218329360595e-07 -8.10187494130787544e-07 -1.25828222099349084e-06
2 1 7.44220981530760362e-07 -1.51374239248539651e-06 -8.85200577429980805e-08
3 1 -3.25172042793458525e-07 5.70155393299133532e-07 1.51859828435983829e-08
4 1 7.13229956647231468e-07 1.09285142855648131e-06 -2.21108405995344377e-06
5 1 9.76789419518627008e-07 4.38352611521097792e-07 -5.84749680260676926e-07
6 1 -2.00956501793825018e-06 -3.29148527046459237e-07 2.92228546853970840e-06
7 1 -1.22254761784342224e-07 -1.03888364179432735e-06 -1.90591711794038993e-07
8 1 -4.02583676692910316e-07 -5.55408211078119775e-07 -3.03331944590819577e-07
8
Step 18000
1 1 5.23160296580428370e-07 5.52583259312333717e-07 -1.16793138182410174e-06
2 1 2.87922305850934007e-07 -1.34456917107228694e-06 5.03803338634787862e-07
3 1 -4.00210250083527893e-07 6.16289698919604650e-07 -2.77616207162836392e-07
4 1 1.53671761899064548e-06 3.02546865334874081e-07 -1.49466051134772552e-06
5 1 9.46155230230754173e-07 -2.60671068527489371e-07 -9.98064111064728102e-07
6 1 -1.79968204833791214e-06 4.19571565175866225e-07 2.05010697743733102e-06
7 1 4.15049224248329233e-08 -6.81126093999497528e-07 -8.49304291596359121e-07
8 1 -4.68539568083833081e-07 7.40187928200030285e-07 -5.00415353523453558e-07
8
Step 19000
1 1 -2.07319327671359823e-07 1.80451317158400896e-06 -4.99659519930045317e-07
2 1 -4.45557365499707350e-07 -4.82978600168923203e-07 1.00234577276670218e-06
3 1 1.11585721585834772e-08 4.25297778303200224e-07 -4.15505591772629984e-07
4 1 1.73225821046187536e-06 -5.29833371803677804e-07 -3.13148125397076072e-07
5 1 5.50249339168488490e-07 -8.06163441099286928e-07 -8.38621381595319486e-07
6 1 -1.02058244399590869e-06 7.70601638406417305e-07 9.16516598686587965e-08
7 1 1.55842603916949340e-07 -2.74204749123523849e-08 -1.06607286474137753e-06
8 1 -3.25294113313975063e-07 1.74544205569615841e-06 -4.92751164830549424e-07
8
Step 20000
1 1 -1.08948474409645253e-06 2.40857155923982125e-06 4.19037581228631066e-07
2 1 -1.01949775698592989e-06 6.12193263334406446e-07 1.07864987933123851e-06
3 1 7.40385654186458195e-07 -4.42333636092444777e-08 -3.20719174448232945e-07
4 1 1.35606549916666996e-06 -1.10118037824705041e-06 8.57391950733974546e-07
5 1 1.22239121036913751e-07 -8.94716836298346356e-07 -1.17046925992754849e-07
6 1 6.14392327755538415e-08 6.42274362860443107e-07 -2.05500485760421693e-06
7 1 2.04869336057388740e-07 6.16722860300306933e-07 -8.32603941756592890e-07
8 1 -7.29424101376130330e-08 1.98896436062619349e-06 -3.53255049457063228e-07
8
Step 21000
1 1 -1.62141828887131580e-06 2.05897702167081756e-06 1.15564413669494608e-06
2 1 -1.07521580058323028e-06 1.38124640738169750e-06 6.22851381192965887e-07
3 1 1.36325801630063496e-06 -6.86903763148850723e-07 -3.84362883145155359e-08
4 1 6.57063485541817249e-07 -1.24646512737469378e-06 1.58406562770761168e-06
5 1 -7.16580575242964409e-08 -4.45932433570471457e-07 8.42041674781111045e-07
6 1 1.08529534928441183e-06 2.24644437471695635e-07 -3.36842541526779051e-06
7 1 2.19758668242585382e-07 9.40735296485572305e-07 -3.26679715380732081e-07
8 1 1.74540383600445999e-07 1.32510746769759464e-06 -1.84020549299378351e-07
8
Step 22000
1 1 -1.42038339026932903e-06 8.54356770096513069e-07 1.36732843423075638e-06
2 1 -5.14153178101254288e-07 1.43845202308166605e-06 -2.02221957372972534e-07
3 1 1.42125487460680111e-06 -1.23973064071830166e-06 2.83709973468457129e-07
4 1 -7.83354222057571955e-08 -9.72166679038131649e-07 1.66282889796639015e-06
5 1 4.68843820240769057e-09 3.37320749448304280e-07 1.54455552973789735e-06
6 1 1.76706421327164313e-06 -1.57119965238256814e-07 -3.25069423399293035e-06
7 1 2.51241655097848227e-07 7.64301490343353209e-07 1.86902744748427685e-07
8 1 3.24875394480475789e-07 8.14927683860507301e-09 -5.59855230745540659e-08
8
Step 23000
1 1 -4.75262101786526399e-07 -6.85586527724188700e-07 9.63345555680458548e-07
2 1 4.49729133481370435e-07 7.67610328742326600e-07 -1.04324066999784680e-06
3 1 7.03307721027607723e-07 -1.38636817855207506e-06 4.61438347769484878e-07
4 1 -6.51657449575682724e-07 -4.14351853944854717e-07 1.16891664537902318e-06
5 1 1.47865263328200871e-07 1.06062107048260512e-06 1.57026276131146030e-06
6 1 1.92849090819279517e-06 -2.58795754177762322e-07 -1.76155810263792090e-06
7 1 3.20918721242543236e-07 1.36818001761469231e-07 4.85200619653954592e-07
8 1 3.35184950479399708e-07 -1.39706679812410450e-06 2.84292290214179588e-08
8
Step 24000
1 1 8.01046263354335415e-07 -1.84393389580905629e-06 1.54092881697097680e-07
2 1 1.35649717879544863e-06 -2.47936108326170576e-07 -1.51587271855118731e-06
3 1 -5.84777925880105841e-07 -9.71837499262190293e-07 3.74986474412065348e-07
4 1 -9.69714511395264138e-07 2.22142627898227727e-07 3.85679156994165805e-07
5 1 6.70102646190402327e-08 1.32039438637373154e-06 7.90934634564269610e-07
6 1 1.51499706246735131e-06 -3.83720639182955344e-08 3.98221809078630571e-07
7 1 3.83129532873227825e-07 -6.55905998275785130e-07 4.81691701947174209e-07
8 1 2.24060684690462933e-07 -2.27614752379296580e-06 1.19544587976684667e-07
8
Step 25000
1 1 1.79513058037722014e-06 -2.09145718298387717e-06 -6.72606288520810774e-07
2 1 1.71653062453284949e-06 -1.04510601561290845e-06 -1.39064461304115164e-06
3 1 -1.88264498616907996e-06 -1.12676654073447616e-07 5.42698842453066228e-08
4 1 -1.01508831848527280e-06 7.26924905130101725e-07 -3.33095202716327502e-07
5 1 -3.86573264380719110e-07 9.01185163221707712e-07 -5.23475117809636120e-07
6 1 6.61477468322563002e-07 3.46800168201546443e-07 2.20734599348260242e-06
7 1 3.34078420523153300e-07 -1.21010410567495082e-06 2.53091476597134993e-07
8 1 4.43535027958771019e-08 -2.24491381943498163e-06 2.57095882951718633e-07
8
Step 26000
1 1 2.02233214273966010e-06 -1.37487718178997732e-06 -1.15482373966544367e-06
2 1 1.26822430426605777e-06 -1.20346200805435901e-06 -6.99048945352042233e-07
3 1 -2.54880074037872684e-06 8.69615714903862549e-07 -3.27731367120277904e-07
4 1 -8.25667759041220360e-07 9.54857189082971942e-07 -7.22306537763660075e-07
5 1 -1.07211723522544843e-06 -8.09235384192474364e-08 -1.78079814422043397e-06
6 1 -3.52328782602587929e-07 6.35850503002378724e-07 2.88115128212505058e-06
7 1 7.75966836545275226e-08 -1.18905960046165049e-06 -1.36590913768714968e-08
8 1 -1.48637349956188685e-07 -1.29887349867992157e-06 4.23256470650190960e-07
8
Step 27000
1 1 1.35653875101820837e-06 -1.33058063810752425e-07 -1.10711928974962071e-06
2 1 1.25005267496667790e-07 -6.54734577025630602e-07 2.80554223044673021e-07
3 1 -2.18826416049924830e-06 1.58430162002250500e-06 -5.50285672218109670e-07
4 1 -4.64745236638877095e-07 8.67733569903055367e-07 -7.21904721448099274e-07
5 1 -1.59772514519239847e-06 -1.19446005307400569e-06 -2.35018543991966579e-06
6 1 -1.22072599652054207e-06 6.12666932484653175e-07 2.23242318772028246e-06
7 1 -3.94558681821285303e-07 -4.94582659013809691e-07 -1.29632053402434313e-07
8 1 -3.04122479075338279e-07 1.77929722686569944e-07 5.34301065928617214e-07
8
Step 28000
1 1 1.02825834832524931e-07 9.41594695884284967e-07 -5.97469980952608771e-07
2 1 -1.23212340022149996e-06 2.66194918797131460e-07 1.12810312112735737e-06
3 1 -8.57564781994444939e-07 1.72669319445990755e-06 -4.60760801374881323e-07
4 1 3.71547741409046636e-10 5.24152658346983657e-07 -4.72085436711299572e-07
5 1 -1.52236753751690027e-06 -1.89160763364980860e-06 -1.89506014048444663e-06
6 1 -1.67889936106398597e-06 2.25614796016827739e-07 6.80753951549912044e-07
7 1 -9.50164673230820386e-07 6.41646831559615263e-07 -1.63522458554351982e-08
8 1 -3.76924641943006085e-07 1.56581090578049339e-06 4.79455777127904953e-07
8
Step 29000
1 1 -1.13703388056296727e-06 1.27462571467436479e-06 9.06323024735564910e-08
2 1 -2.15450179607101993e-06 9.79637429841756614e-07 1.48040727966400912e-06
3 1 9.18995221623896238e-07 1.22657692089313776e-06 -6.92798280176300449e-08
4 1 4.72567232929064138e-07 5.24450431782807696e-08 -1.94010935931213442e-07
5 1 -6.18703261063569795e-07 -1.76377484473557079e-06 -5.58272469085921743e-07
6 1 -1.57150999461379284e-06 -3.73954614508083441e-07 -9.73062003502901003e-07
7 1 -1.33527968914603575e-06 1.71461225004593738e-06 2.53824535901805081e-07
8 1 -3.33121761653975282e-07 2.30427823244427633e-06 2.07860985992274252e-07
8
Step 30000
1 1 -1.77386136650126977e-06 7.14935455257599023e-07 6.21404568036387840e-07
2 1 -2.15210210395895333e-06 1.01530911302337447e-06 1.21546735671954793e-06
3 1 2.36274317058285137e-06 3.02905848961004596e-07 4.32319378654881475e-07
4 1 8.17884224031344440e-07 -3.87169450882326807e-07 -6.00357521097389378e-08
5 1 8.95071615157993736e-07 -7.75316467261146960e-07 1.04793445310571172e-06
6 1 -9.34006594923843553e-07 -9.05842041103173916e-07 -1.93579444347164872e-06
7 1 -1.28541883962180885e-06 2.16471438428687215e-06 4.96604301679010063e-07
8 1 -1.59679687981276592e-07 2.14255225898724513e-06 -2.11119819873941046e-07
8
Step 31000
1 1 -1.53894023218781604e-06 -3.50625319122880523e-07 7.75358254139984048e-07
2 1 -1.13646008660251242e-06 2.96755342226143195e-07 4.86343900612764822e-07
3 1 2.83604761873883653e-06 -6.54113254448280776e-07 7.66009481892206523e-07
4 1 9.15939580453700698e-07 -6.62571824222004671e-07 -1.15079169019267722e-07
5 1 2.36006052356437860e-06 6.45936344620958211e-07 2.12232196672297041e-06
6 1 3.95475456203815304e-09 -1.10030355890471405e-06 -1.79136983216659249e-06
7 1 -6.65655191103825294e-07 1.64732042225849164e-06 5.07662391044989386e-07
8 1 1.17291549614103249e-07 1.21372548950929672e-06 -6.10997111850370741e-07
8
Step 32000
1 1 -6.15538229434343725e-07 -1.17939512607474281e-06 5.45898190931425523e-07
2 1 4.90139466269519414e-07 -7.96666551691912239e-07 -3.52536998399432119e-07
3 1 2.14981536552147021e-06 -1.27547135576850608e-06 7.18010898664489072e-07
4 1 7.17538978486631390e-07 -7.21252241923780968e-07 -2.54137895355364479e-07
5 1 3.03551043720839726e-06 1.82965799004516369e-06 2.15204298181402096e-06
6 1 8.98242250858163898e-07 -8.23596442187345954e-07 -6.76103098174596560e-07
7 1 4.11530819938191996e-07 2.43832107579598282e-07 1.87989731127829403e-07
8 1 4.17590718144574157e-07 -4.80432671598003271e-08 -8.08435168038498124e-07
8
Step 33000
1 1 4.89631080270869938e-07 -1.16190643870209661e-06 1.37884262768435744e-07
2 1 1.97323307687263847e-06 -1.60316869574276341e-06 -8.99238072258118195e-07
3 1 6.18971093165292535e-07 -1.35659628549955190e-06 2.52753148056216803e-07
4 1 2.63674919620609057e-07 -5.85741702759264488e-07 -2.77481241894913836e-07
5 1 2.48797315179559079e-06 2.21687492577646568e-06 1.18197638141073078e-06
6 1 1.41088612945103180e-06 -1.57455965488936120e-07 7.72734286808954364e-07
7 1 1.55198451905179880e-06 -1.47868197458798948e-06 -3.58375740259285589e-07
8 1 6.17566497461124249e-07 -1.11735149285288668e-06 -6.95345318354141086e-07
8
Step 34000
1 1 1.22558914687716549e-06 -2.06122410636197556e-07 -1.74236263178465740e-07
2 1 2.59119724658424715e-06 -1.55716685199668485e-06 -9.09705019945708204e-07
3 1 -1.06963447658920481e-06 -9.33698184647073383e-07 -4.52370286501378494e-07
4 1 -3.25595019241967019e-07 -3.03722088848865741e-07 -2.17938450335339649e-08
5 1 8.09910030401756231e-07 1.60382449046051795e-06 -2.37001581548591035e-07
6 1 1.36056757619061508e-06 6.12875591777527502e-07 1.73599191492543101e-06
7 1 2.25237997250327734e-06 -2.72713543687936876e-06 -8.76473604876629824e-07
8 1 5.92660601816380278e-07 -1.62919400628452183e-06 -2.98506396801599629e-07
8
Step 35000
1 1 1.25105781457701350e-06 1.23050064786415554e-06 -2.16833508845880966e-07
2 1 2.01281335139054176e-06 -5.36015352844279910e-07 -4.18500210282761319e-07
3 1 -2.15243864792165235e-06 -2.64594672578463121e-07 -1.06884878878226223e-06
4 1 -8.67561731909600465e-07 7.51663769321426328e-08 5.19313158145236217e-07
5 1 -1.30444176829220906e-06 2.71765579182489551e-07 -1.31328520278208425e-06
6 1 8.06439753101503364e-07 1.14054409722239878e-06 1.65495548722112433e-06
7 1 2.17522098563074874e-06 -2.91492767223588538e-06 -1.11601957252023476e-06
8 1 2.81653894271161744e-07 -1.52112609927920774e-06 2.18487815339048980e-07
8
Step 36000
1 1 5.91658105899400071e-07 2.35496450186456079e-06 -1.26019532113567374e-08
2 1 4.61802174962231351e-07 1.02360461901746599e-06 2.81118422156439003e-07
3 1 -2.16769594222734482e-06 3.16777014994716453e-07 -1.25904616292807800e-06
4 1 -1.15328235142047760e-06 4.85741982273907159e-07 1.14761805665393071e-06
5 1 -2.86708322640468436e-06 -1.13213024060372415e-06 -1.48026448009660786e-06
6 1 6.43023276971597158e-09 1.18613891686587444e-06 5.12308725009931190e-07
7 1 1.28646797540884615e-06 -1.90826858543493096e-06 -9.43552983124981587e-07
8 1 -2.50606853242990153e-07 -1.00025442919012581e-06 6.25675081945512199e-07
8
Step 37000
1 1 -3.73930668258862323e-07 2.43939261811107482e-06 2.10405107809195008e-07
2 1 -1.32667629784242449e-06 2.31855747000882631e-06 7.79571583210394577e-07
3 1 -1.18396061675207048e-06 5.70690638058163551e-07 -8.41074642765679143e-07
4 1 -1.03171001900217077e-06 8.34822920827912831e-07 1.51638848833132303e-06
5 1 -3.18404642046729174e-06 -1.96892734818525924e-06 -7.44091887425851430e-07
6 1 -6.85073808989493806e-07 7.28914584739759598e-07 -1.13590519148642337e-06
7 1 -1.08465356751262565e-07 -9.96817796804751392e-08 -4.08760579828214679e-07
8 1 -8.04151707133286149e-07 -3.78387690319129589e-07 7.48628109170497909e-07
8
Step 38000
1 1 -1.11254189738198283e-06 1.22142069545527266e-06 1.72279605241360981e-07
2 1 -2.47102856746784055e-06 2.62094467843978739e-06 7.72479921259988846e-07
3 1 2.50972663764719134e-07 4.56898028166481059e-07 8.99462211159668949e-08
4 1 -5.03188420761222826e-07 1.00049022550204278e-06 1.30735077308982362e-06
5 1 -2.16432619860486255e-06 -1.90041904047996622e-06 3.77912386633045796e-07
6 1 -9.74293963178456025e-07 -7.89087394474777005e-09 -2.39115582294713839e-06
7 1 -1.43128568361767592e-06 1.69899841938774335e-06 2.42363060092762962e-07
8 1 -1.11355019971637313e-06 1.14641187231331094e-07 5.47602821051739548e-07
8
Step 39000
1 1 -1.19669079075889066e-06 -9.05857370499841370e-07 -2.13198352120721631e-07
2 1 -2.40253088188335793e-06 1.66118921328154170e-06 2.03765118431682880e-07
3 1 1.39457654898005313e-06 1.39683914900031720e-07 1.16623627354645476e-06
4 1 2.49213721653617941e-07 8.65015134391624654e-07 4.61073285235339307e-07
5 1 -3.16684100923811611e-07 -1.00310847830903534e-06 1.17777383347755699e-06
6 1 -7.95080092221304311e-07 -6.62899785880767729e-07 -2.49945460522898470e-06
7 1 -2.13627757948658768e-06 2.70477992605739426e-06 7.23362463118220204e-07
8 1 -9.66778046954585576e-07 4.22561843244636994e-07 1.19333072819079189e-07
8
Step 40000
1 1 -5.39396786104438488e-07 -2.98721980125236172e-06 -7.47797825685810613e-07
2 1 -1.11766003670354450e-06 -2.19210349804511851e-07 -6.98375589591465767e-07
3 1 1.66440438142930405e-06 -1.06600237628643211e-07 1.90170856832759772e-06
4 1 9.09864394886675122e-07 4.04396161566614900e-07 -7.13891359688792742e-07
5 1 1.47103667634360700e-06 2.72406315477413036e-07 1.15363855263184903e-06
6 1 -3.11523302120849883e-07 -9.39467654841497740e-07 -1.27680879846324395e-06
7 1 -2.00739147569183421e-06 2.59351674114342500e-06 8.93803856359411361e-07
8 1 -3.22857004615077003e-07 6.26487129456789260e-07 -3.35396927276826483e-07
8
Step 41000
1 1 5.26111055756721454e-07 -4.00466189639152469e-06 -1.07751481385207354e-06
2 1 7.68441708478833462e-07 -2.13730365443688072e-06 -1.47582045523909675e-06
3 1 8.95828913134467880e-07 -6.26385861120114679e-08 1.87619235543442587e-06
4 1 1.16860137701515928e-06 -2.42900226601804161e-07 -1.67853914935333802e-06
5 1 2.38840160419645931e-06 1.34122707656267460e-06 3.05111364548588917e-07
6 1 2.03868019614523779e-07 -7.52030309836340851e-07 7.65823058681824293e-07
7 1 -1.18033575251458442e-06 1.53825937901178719e-06 7.83761417994591622e-07
8 1 6.17103138758369073e-07 8.25264900800892951e-07 -5.86722585292972929e-07
8
Step 42000
1 1 1.41466382128467309e-06 -3.42797968184976370e-06 -8.86708441328255270e-07
2 1 2.27930399844163814e-06 -3.14247680764707920e-06 -1.66143051584393761e-06
3 1 -5.24813201929846899e-07 3.01386293835285633e-07 8.80729093839339206e-07
4 1 8.79693737429663777e-07 -8.22731736129670481e-07 -1.95652612764941957e-06
5 1 2.11287759087782932e-06 1.76509358028409745e-06 -8.76808461250537844e-07
6 1 4.77344647822058214e-07 -2.61868077204815016e-07 2.65303078518395948e-06
7 1 -4.29883279531070512e-08 5.60454787647050606e-08 5.24035274165530390e-07
8 1 1.45600317892122986e-06 1.02539938898689128e-06 -5.20590509434779813e-07
8
Step 43000
1 1 1.59897124352845945e-06 -1.45573414726736678e-06 -1.09768218874655966e-07
2 1 2.62649734366801165e-06 -2.75227372960583247e-06 -1.06335662663852864e-06
3 1 -1.80005558669970678e-06 7.76227255764314414e-07 -9.24470241007199509e-07
4 1 1.40143898573949407e-07 -1.08081988771571777e-06 -1.37588728709447718e-06
5 1 9.21713429672467197e-07 1.41922674333733429e-06 -1.69782988117879589e-06
6 1 3.60606388056171649e-07 2.13524993983795657e-07 3.45460359621670136e-06
7 1 9.16359046797118687e-07 -1.21366194643408336e-06 2.60905359910694433e-07
8 1 1.79184930225177446e-06 1.11029186194218587e-06 -1.70491309739211262e-07
8
Step 44000
1 1 9.33476185650676466e-07 1.01074102682867210e-06 8.94440127714457513e-07
2 1 1.60347255393928145e-06 -1.13046270862256271e-06 1.40365644324946145e-07
3 1 -2.12961477570853526e-06 1.00394314150946526e-06 -2.88536881524250722e-06
4 1 -7.37567377049424446e-07 -8.73857575094241265e-07 -1.74950705722876795e-07
5 1 -4.78345187099690434e-07 5.35041924763291455e-07 -1.67382404124792362e-06
6 1 -5.56434861600007188e-08 3.91061641078034107e-07 2.75595013551528108e-06
7 1 1.33426961063408226e-06 -1.81189118684006438e-06 6.58545594280077250e-08
8 1 1.40720910664997841e-06 9.08944043158208483e-07 3.19072492972380587e-07
8
Step 45000
1 1 -2.19540930399846989e-07 2.79775621636438862e-06 1.52465231472123205e-06
2 1 -2.73457014621407705e-07 9.57056507421088669e-07 1.46167901910426439e-06
3 1 -1.17441806623791147e-06 6.89246777302249800e-07 -4.03930919396784294e-06
4 1 -1.32891021571296838e-06 -2.54388892692530056e-07 1.05492225143553586e-06
5 1 -1.35658879892103322e-06 -4.31397298608829234e-07 -8.23721343280101376e-07
6 1 -4.95216983221493846e-07 1.95665856280799476e-07 8.45763487646854307e-07
7 1 1.12749769270945648e-06 -1.65081512496220968e-06 -9.96156103131523669e-08
8 1 3.71792325321893258e-07 3.35834332658291720e-07 6.93758723412441954e-07
8
Step 46000
1 1 -1.24871833439654929e-06 3.21640636400460959e-06 1.38016319505241899e-06
2 1 -2.00531241139711055e-06 2.48707015851686738e-06 2.29816591828362190e-06
3 1 7.18757990384614765e-07 -1.68281510865023974e-07 -3.64192847130359340e-06
4 1 -1.28514570834939409e-06 4.99093109572116340e-07 1.65063717620989168e-06
5 1 -1.37013990074255071e-06 -1.06050537305032705e-06 3.93601316184934967e-07
6 1 -6.88836831176037546e-07 -1.94744956847872979e-07 -1.39712222629066241e-06
7 1 4.83790860247268838e-07 -9.58120288664718097e-07 -3.14449992104648576e-07
8 1 -9.31232023423950778e-07 -4.95754779283974096e-07 7.25756287735467948e-07
8
Step 47000
1 1 -1.65198762595461622e-06 2.35522687677189858e-06 4.86320674591698610e-07
2 1 -2.71620288449426894e-06 2.81085856982124207e-06 2.25451209659202268e-06
3 1 2.57233982077897676e-06 -1.19691070542427087e-06 -1.67454061019011565e-06