8
Step 0
1 1  0.000000000000e+00   0.000000000000e+00   0.000000000000e+00 
2 1  0.000000000000e+00   0.000000000000e+00   0.000000000000e+00 
3 1  0.000000000000e+00   0.000000000000e+00   0.000000000000e+00 
4 1  0.000000000000e+00   0.000000000000e+00   0.000000000000e+00 
5 1  0.000000000000e+00   0.000000000000e+00   0.000000000000e+00 
6 1  0.000000000000e+00   0.000000000000e+00   0.000000000000e+00 
7 1  0.000000000000e+00   0.000000000000e+00   0.000000000000e+00 
8 1  0.000000000000e+00   0.000000000000e+00   0.000000000000e+00 
8
Step 1000
1 1  1.538059545363e-04  -4.450400423678e-05  -1.257006931544e-04 
2 1  1.033473500024e-04  -1.744256025190e-04  -1.694325798941e-06 
3 1 -1.153299002052e-04  -1.190475686982e-04  -1.491899873886e-05 
4 1  1.245354974486e-04  -1.240208403482e-04  -2.567825051350e-05 
5 1  1.324639264876e-04  -1.553264830846e-04  -1.272699389709e-04 
6 1  7.337211717983e-05   1.977770112009e-04   1.488428892697e-04 
7 1 -1.508372118023e-05   6.415575033957e-05  -1.517442118998e-04 
8 1 -2.094978800024e-05   1.141104443091e-04   2.504718073178e-05 
8
Step 2000
1 1  1.539913506344e-04  -4.920902443934e-05  -5.990244180351e-05 
2 1  4.386484403779e-05  -9.884099325308e-05   5.822662043032e-05 
3 1 -6.503960776477e-05  -6.951925248451e-05   1.061850614890e-05 
4 1  8.731950478427e-06  -1.444754995727e-04  -7.145149943212e-05 
5 1  2.665090566842e-05  -1.737594664664e-04  -8.584805233283e-05 
6 1  9.772249089935e-05   1.376310972722e-04   7.671089749539e-05 
7 1  4.743586213862e-05   7.998094224792e-05  -1.038743908126e-04 
8 1  2.717947519268e-05   1.836020531161e-04   2.582354184561e-05 
8
Step 3000
1 1  8.497654441407e-05  -4.597751172499e-05   3.049397264432e-05 
2 1 -4.055456863429e-05   2.212265949098e-05   1.025917967251e-04 
3 1  1.517001295305e-05   8.215397950004e-06   3.480194626665e-05 
4 1 -1.091085514201e-04  -1.002766664424e-04  -8.911524770941e-05 
5 1 -8.726790973182e-05  -1.205693023730e-04  -7.517121530664e-06 
6 1  7.518307233498e-05   1.023733548755e-05  -1.937772734942e-05 
7 1  7.987303121857e-05   6.863847647143e-05  -4.814597547097e-06 
8 1  7.100093875809e-05   1.687475860258e-04   2.805721080446e-05 
8
Step 4000
1 1 -1.922243907748e-05  -3.542749222223e-05   1.002538426383e-04 
2 1 -1.033829212237e-04   1.210668332171e-04   1.109739711379e-04 
3 1  9.377862796943e-05   7.295582317887e-05   5.094326450790e-05 
4 1 -1.726033363793e-04  -1.761524262759e-05  -8.543253713022e-05 
5 1 -1.477423326145e-04  -2.362176809795e-05   7.200150615526e-05 
6 1  1.434000832599e-05  -1.187028158397e-04  -8.687471217039e-05 
7 1  7.638384112581e-05   2.539679880508e-05   9.260832330193e-05 
8 1  8.936242786069e-05   7.715254984273e-05   2.333645948305e-05 
8
Step 5000
1 1 -1.071815525961e-04  -1.736292548490e-05   1.149966089718e-04 
2 1 -1.130454724875e-04   1.490152202848e-04   8.017955722998e-05 
3 1  1.390185355325e-04   9.662362513774e-05   5.379973011419e-05 
4 1 -1.564071467227e-04   6.286756733307e-05  -7.226214934893e-05 
5 1 -1.288803552628e-04   6.926722127885e-05   1.163838424484e-04 
6 1 -5.542651097809e-05  -1.874832783946e-04  -9.549623392666e-05 
7 1  4.775555741020e-05  -3.665165262491e-05   1.387447469943e-04 
8 1  7.125111267291e-05  -4.493234395537e-05   6.121395327324e-06 
8
Step 6000
1 1 -1.398070406785e-04   8.440208699210e-06   7.163903859982e-05 
2 1 -6.868879966765e-05   9.980858712110e-05   2.353348970167e-05 
3 1  1.336032482945e-04   7.521837292105e-05   4.100309791214e-05 
4 1 -7.362557671299e-05   1.068095576686e-04  -5.622516557676e-05 
5 1 -5.035129115870e-05   1.192367705061e-04   1.104278614318e-04 
6 1 -1.028067892770e-04  -1.727537395045e-04  -5.184953756414e-05 
7 1  1.285011222082e-05  -9.216613623093e-05   1.132694719011e-04 
8 1  2.360715333325e-05  -1.356063654653e-04  -2.016748614443e-05 
8
Step 7000
1 1 -1.100353993060e-04   3.956755068364e-05  -2.524389655716e-06 
2 1  2.988001114023e-06   7.845557924061e-06  -3.416451529023e-05 
3 1  8.091402293322e-05   2.456134739422e-05   1.506270393537e-05 
4 1  3.397126448297e-05   9.912742210009e-05  -3.628924046559e-05 
5 1  4.138333849452e-05   1.135979620014e-04   6.377317556286e-05 
6 1 -1.087656512010e-04  -9.035641216087e-05   1.163383564057e-05 
7 1 -1.158092163747e-05  -1.159148320491e-04   3.186954637905e-05 
8 1 -3.150273449758e-05  -1.527905669941e-04  -4.508858325587e-05 
8
Step 8000
1 1 -4.109128225617e-05   6.902448988084e-05  -6.724360523734e-05 
2 1  6.243191640704e-05  -7.345751979115e-05  -6.698177643676e-05 
3 1  4.214739173204e-06  -2.863918575464e-05  -1.505550930558e-05 
4 1  1.174734807938e-04   4.918665553898e-05  -7.666640164501e-06 
5 1  1.008446938373e-04   6.540780304351e-05   1.843648016800e-06 
6 1 -7.286672657014e-05   1.647403107536e-05   5.558596868322e-05 
7 1 -1.785247231242e-05  -9.535209911606e-05  -6.334880486262e-05 
8 1 -6.929128303937e-05  -9.581338537711e-05  -5.753487017157e-05 
8
Step 9000
1 1  2.926345838161e-05   8.669214953415e-05  -9.062025671054e-05 
2 1  8.108003889447e-05  -1.041441998915e-04  -6.425348354892e-05 
3 1 -6.307398585515e-05  -6.059929563551e-05  -3.737258846977e-05 
4 1  1.443667888902e-04  -1.634384210382e-05   3.100655558410e-05 
5 1  1.052893812173e-04   1.614441816381e-06  -4.781887593332e-05 
6 1 -1.256478059348e-05   9.942687294105e-05   5.591818809623e-05 
7 1 -9.816301760711e-06  -3.882504352027e-05  -1.255164275722e-04 
8 1 -7.454985790210e-05  -1.118642049467e-06  -5.115725659617e-05 
8
Step 10000
1 1  6.849973357491e-05   8.331988643394e-05  -6.419735954641e-05 
2 1  5.626464877599e-05  -7.604152318720e-05  -3.565999935575e-05 
3 1 -9.505099566792e-05  -6.256578914048e-05  -4.370283171748e-05 
4 1  1.095785962780e-04  -6.848804878328e-05   7.203124341328e-05 
5 1  6.059881070479e-05  -5.038925120221e-05  -6.704005661854e-05 
6 1  4.777551689298e-05   1.294808947925e-04   1.506109379272e-05 
7 1  1.443567810225e-06   2.822735491799e-05  -1.279803995306e-04 
8 1 -4.852338331542e-05   8.009225136359e-05  -2.776962566431e-05 
8
Step 11000
1 1  6.492207652914e-05   5.535920754185e-05  -6.397141181513e-06 
2 1  8.113441395799e-06  -1.112889929172e-05  -1.162479062853e-06 
3 1 -8.553647938937e-05  -4.218376535416e-05  -3.363845580201e-05 
4 1  3.261499917436e-05  -8.740089875119e-05   9.937473897081e-05 
5 1 -6.614563627552e-06  -7.216206595205e-05  -5.259259745477e-05 
6 1  8.824646377850e-05   1.043445587886e-04  -4.343566500114e-05 
7 1  6.291392100685e-06   7.731519178438e-05  -7.645606108045e-05 
8 1 -7.325787695636e-06   1.096892674247e-04   3.534842144603e-06 
8
Step 12000
1 1  3.231362593204e-05   8.337762716234e-06   4.854871952815e-05 
2 1 -3.414265884550e-05   5.231847384143e-05   2.038486830709e-05 
3 1 -4.740801763141e-05  -1.495599272390e-05  -1.342285425146e-05 
4 1 -5.258638144663e-05  -6.803541061599e-05   9.673498873977e-05 
5 1 -6.335533938305e-05  -5.952850504852e-05  -1.592088865237e-05 
6 1  9.730032074663e-05   4.246256867649e-05  -8.598639255026e-05 
7 1  2.116275921637e-06   9.099532066014e-05  -1.814486453155e-06 
8 1  2.802784962476e-05   8.007451592766e-05   3.110876649965e-05 
8
Step 13000
1 1 -1.616179269614e-06  -4.407252541522e-05   7.198183961582e-05 
2 1 -4.812069301615e-05   8.116456886140e-05   1.924217074530e-05 
3 1 -4.116060907342e-06   5.922058787128e-06   7.792072886922e-06 
4 1 -1.116664536120e-04  -2.108075061009e-05   5.841060927991e-05 
5 1 -8.533270451397e-05  -2.261265961021e-05   2.272733143395e-05 
6 1  7.256179109839e-05  -2.688584421112e-05  -8.395773173002e-05 
7 1 -7.151828725216e-06   6.958163826587e-05   5.987395828782e-05 
8 1  4.342598677293e-05   1.332384368271e-05   4.565132331191e-05 
8
Step 14000
1 1 -1.479150851297e-05  -8.629958929350e-05   5.586078282664e-05 
2 1 -2.976137117527e-05   6.356291102052e-05   3.478421580862e-07 
3 1  2.261838261580e-05   1.584424161967e-05   2.187638757408e-05 
4 1 -1.238342039000e-04   3.217352318206e-05  -4.834766152471e-06 
5 1 -6.696038448244e-05   1.948542694724e-05   4.363403422927e-05 
6 1  2.234603311061e-05  -7.507817735617e-05  -3.084198439216e-05 
7 1 -1.530419665916e-05   2.727876486767e-05   8.612023326623e-05 
8 1  3.717464540549e-05  -5.396643470400e-05   4.328489498669e-05 
8
Step 15000
1 1 -2.195958260206e-06  -1.051241630033e-04   1.194116624614e-05 
2 1  5.614806301757e-06   1.178034688801e-05  -1.906012508215e-05 
3 1  2.327951607775e-05   1.896238425502e-05   2.451804975465e-05 
4 1 -8.938475389950e-05   6.966880313684e-05  -6.969836123321e-05 
5 1 -2.216837089491e-05   4.678022883794e-05   3.664481270706e-05 
6 1 -3.573285002700e-05  -8.532623500161e-05   5.199020539601e-05 
7 1 -1.794381784142e-05  -1.712562431052e-05   7.401137640600e-05 
8 1  1.716863428629e-05  -8.973502922107e-05   2.679767957237e-05 
8
Step 16000
1 1  2.324191927787e-05  -9.077894916863e-05  -3.630801545401e-05 
2 1  3.420363085030e-05  -4.542994106950e-05  -2.234863619303e-05 
3 1  4.207680689262e-06   2.281391054542e-05   1.608819977621e-05 
4 1 -2.701860179762e-05   7.786841405963e-05  -1.112269769173e-04 
5 1  2.414710924860e-05   4.724828982392e-05   6.320047169237e-06 
6 1 -8.225132979396e-05  -5.991136885710e-05   1.255125409662e-04 
7 1 -1.419926911336e-05  -4.729269622895e-05   3.561408238609e-05 
8 1 -5.348205924629e-06  -7.915467838573e-05   4.072141760206e-06 
8
Step 17000
1 1  3.853879354417e-05  -4.166151558782e-05  -6.470347264498e-05 
2 1  3.826938115860e-05  -7.783976269361e-05  -4.551884338144e-06 
3 1 -1.672101856385e-05   2.931856882202e-05   7.808946269081e-07 
4 1  3.667575860133e-05   5.619667935608e-05  -1.136985126246e-04 
5 1  5.022853095375e-05   2.254099734956e-05  -3.006903722365e-05 
6 1 -1.033359869488e-04  -1.692549760345e-05   1.502699590917e-04 
7 1 -6.286592548837e-06  -5.342154421055e-05  -9.800619769298e-06 
8 1 -2.070168478710e-05  -2.856023823011e-05  -1.559795557127e-05 
8
Step 18000
1 1  2.690198381092e-05   2.841497337120e-05  -6.005744574170e-05 
2 1  1.480556009589e-05  -6.914052597124e-05   2.590660902295e-05 
3 1 -2.057963828502e-05   3.169089017561e-05  -1.427559919887e-05 
4 1  7.902119632979e-05   1.555758517319e-05  -7.685853292368e-05 
5 1  4.865325762038e-05  -1.340424514501e-05  -5.132251956737e-05 
6 1 -9.254337082848e-05   2.157523712648e-05   1.054207383056e-04 
7 1  2.134268900841e-06  -3.502491162601e-05  -4.367298216705e-05 
8 1 -2.409327305178e-05   3.806199322010e-05  -2.573239182563e-05 
8
Step 19000
1 1 -1.066078835332e-05   9.279179717162e-05  -2.569352529997e-05 
2 1 -2.291148069120e-05  -2.483575792676e-05   5.154269146218e-05 
3 1  5.737968449160e-07   2.186969084144e-05  -2.136615636981e-05 
4 1  8.907629772132e-05  -2.724512713199e-05  -1.610272387816e-05 
5 1  2.829495837324e-05  -4.145459046331e-05  -4.312364485346e-05 
6 1 -5.248045879158e-05   3.962592906338e-05   4.712917792398e-06 
7 1  8.013748816621e-06  -1.410017497508e-06  -5.481967025401e-05 
8 1 -1.672729568233e-05   8.975423829398e-05  -2.533828340133e-05 
8
Step 20000
1 1 -5.602355748228e-05   1.238537280402e-04   2.154777856818e-05 
2 1 -5.242468194351e-05   3.148024299058e-05   5.546640634063e-05 
3 1  3.807216069902e-05  -2.274570986171e-06  -1.649204286956e-05 
4 1  6.973169092451e-05  -5.662497116492e-05   4.408886631692e-05 
5 1  6.285788269275e-06  -4.600818908235e-05  -6.018794867952e-06 
6 1  3.159332342853e-06   3.302707530517e-05  -1.056725974276e-04 
7 1  1.053480472045e-05   3.171316422914e-05  -4.281421565904e-05 
8 1 -3.750849499623e-06   1.022766585687e-04  -1.816510481345e-05 
8
Step 21000
1 1 -8.337667984947e-05   1.058768543142e-04   5.942561019970e-05 
2 1 -5.528981891324e-05   7.102654527331e-05   3.202830544096e-05 
3 1  7.010154502231e-05  -3.532201131598e-05  -1.976473392089e-06 
4 1  3.378756256224e-05  -6.409581326543e-05   8.145592880531e-05 
5 1 -3.684805433518e-06  -2.293076746666e-05   4.329952339874e-05 
6 1  5.580813014166e-05   1.155168130987e-05  -1.732113973138e-04 
7 1  1.130044495734e-05   4.837455342432e-05  -1.679854620462e-05 
8 1  8.975227295843e-06   6.813976495681e-05  -9.462717011375e-06 
8
Step 22000
1 1 -7.303904982867e-05   4.393279105489e-05   7.031085432575e-05 
2 1 -2.643881916120e-05   7.396817627534e-05  -1.039867103643e-05 
3 1  7.308386335464e-05  -6.374951204152e-05   1.458895325798e-05 
4 1 -4.028169327403e-06  -4.999082008314e-05   8.550609896395e-05 
5 1  2.410891832658e-07   1.734573017115e-05   7.942423790121e-05 
6 1  9.086609432903e-05  -8.079433376041e-06  -1.671574166249e-04 
7 1  1.291936521607e-05   3.930196242771e-05   9.610925458799e-06 
8 1  1.670576429443e-05   4.190526594159e-07  -2.878891317330e-06 
8
Step 23000
1 1 -2.443895963010e-05  -3.525427634775e-05   4.953721968702e-05 
2 1  2.312600162377e-05   3.947210973748e-05  -5.364559160666e-05 
3 1  3.616553673673e-05  -7.128991733348e-05   2.372811362516e-05 
4 1 -3.350957301870e-05  -2.130682878595e-05   6.010811003021e-05 
5 1  7.603537474562e-06   5.453932772449e-05   8.074615688500e-05 
6 1  9.916698864728e-05  -1.330781260491e-05  -9.058295873924e-05 
7 1  1.650230397818e-05   7.035464450355e-06   2.495001876154e-05 
8 1  1.723590297352e-05  -7.184006246568e-05   1.461889718868e-06 
8
Step 24000
1 1  4.119145460657e-05  -9.481889229304e-05   7.923774483440e-06 
2 1  6.975388878330e-05  -1.274938716858e-05  -7.794930846325e-05 
3 1 -3.007048967178e-05  -4.997389297866e-05   1.928257960301e-05 
4 1 -4.986472455437e-05   1.142303309042e-05   1.983241944292e-05 
5 1  3.445806315444e-06   6.789740857330e-05   4.067149375367e-05 
6 1  7.790428041746e-05  -1.973170840885e-06   2.047738853849e-05 
7 1  1.970131250060e-05  -3.372804217452e-05   2.476958296021e-05 
8 1  1.152166353526e-05  -1.170442104200e-04   6.147229809778e-06 
8
Step 25000
1 1  9.230932493816e-05  -1.075470513447e-04  -3.458680561805e-05 
2 1  8.826755274427e-05  -5.374151153381e-05  -7.150982043420e-05 
3 1 -9.680949657432e-05  -5.794066452606e-06   2.790669622543e-06 
4 1 -5.219793950159e-05   3.737998115947e-05  -1.712844382408e-05 
5 1 -1.987839629284e-05   4.634080382264e-05  -2.691817256925e-05 
6 1  3.401453868043e-05   1.783318147719e-05   1.135062935202e-04 
7 1  1.717900291600e-05  -6.222605437220e-05   1.301448686110e-05 
8 1  2.280748791472e-06  -1.154381087825e-04   1.322040171288e-05 
8
Step 26000
1 1  1.039924988954e-04  -7.069902652833e-05  -5.938342368870e-05 
2 1  6.521471511692e-05  -6.188450398348e-05  -3.594654168869e-05 
3 1 -1.310646023850e-04   4.471743753679e-05  -1.685262431080e-05 
4 1 -4.245754280688e-05   4.910073033132e-05  -3.714249516343e-05 
5 1 -5.513048427788e-05  -4.161255612680e-06  -9.157232144615e-05 
6 1 -1.811747425722e-05   3.269674715329e-05   1.481547542028e-04 
7 1  3.990181864143e-06  -6.114390241561e-05  -7.023787116382e-07 
8 1 -7.643239764859e-06  -6.679076004489e-05   2.176472258259e-05 
8
Step 27000
1 1  6.975602651292e-05  -6.842120669221e-06  -5.693036226999e-05 
2 1  6.428029237799e-06  -3.366780527253e-05   1.442667804832e-05 
3 1 -1.125250662264e-04   8.146806401793e-05  -2.829682669376e-05 
4 1 -2.389816068609e-05   4.462065375049e-05  -3.712183293794e-05 
5 1 -8.215832942829e-05  -6.142160485155e-05  -1.208513931019e-04 
6 1 -6.277225395469e-05   3.150460003735e-05   1.147958146819e-04 
7 1 -2.028902296331e-05  -2.543246261790e-05  -6.665948132537e-06 
8 1 -1.563860648848e-05   9.149514117341e-06   2.747486519852e-05 
8
Step 28000
1 1  5.287516965812e-06   4.841874551776e-05  -3.072314137781e-05 
2 1 -6.335833201118e-05   1.368829294355e-05   5.800939425254e-05 
3 1 -4.409775365757e-05   8.879013309573e-05  -2.369327278907e-05 
4 1  1.910575284421e-08   2.695301310414e-05  -2.427560894584e-05 
5 1 -7.828328547911e-05  -9.727037443337e-05  -9.744790947106e-05 
6 1 -8.633247539372e-05   1.160157915197e-05   3.500577529204e-05 
7 1 -4.885943146687e-05   3.299480634859e-05  -8.408662816166e-07 
8 1 -1.938224418360e-05   8.051723327171e-05   2.465460708439e-05 
8
Step 29000
1 1 -5.846863236240e-05   6.554388887169e-05   4.660500328153e-06 
2 1 -1.107889356615e-04   5.037498153134e-05   7.612560228939e-05 
3 1  4.725663383868e-05   6.307312057966e-05  -3.562511956537e-06 
4 1  2.430038390322e-05   2.696832522970e-06  -9.976443341892e-06 
5 1 -3.181500052983e-05  -9.069694819986e-05  -2.870752429723e-05 
6 1 -8.081029219941e-05  -1.922951923391e-05  -5.003685951774e-05 
7 1 -6.866284160944e-05   8.816890596292e-05   1.305218228577e-05 
8 1 -1.712980953955e-05   1.184907496044e-04   1.068864154378e-05 
8
Step 30000
1 1 -9.121561799767e-05   3.676345886510e-05   3.195390731791e-05 
2 1 -1.106655385330e-04   5.220929321312e-05   6.250184382663e-05 
3 1  1.214971375692e-04   1.557604485326e-05   2.223075604502e-05 
4 1  4.205729734827e-05  -1.990905343505e-05  -3.087162466053e-06 
5 1  4.602643254464e-05  -3.986837530854e-05   5.388695563601e-05 
6 1 -4.802854968194e-05  -4.658027010897e-05  -9.954255152757e-05 
7 1 -6.609889366563e-05   1.113140880567e-04   2.553641966243e-05 
8 1 -8.211059610377e-06   1.101744657652e-04  -1.085621751791e-05 
8
Step 31000
1 1 -7.913548769448e-05  -1.802987864407e-05   3.987052407622e-05 
2 1 -5.843912669094e-05   1.525977308399e-05   2.500880863158e-05 
3 1  1.458354306032e-04  -3.363585558135e-05   3.938979088354e-05 
4 1  4.709950645376e-05  -3.407081272279e-05  -5.917608737065e-06 
5 1  1.213591903145e-04   3.321538197653e-05   1.091341823214e-04 
6 1  2.033616539701e-07  -5.657988330198e-05  -9.211593949179e-05 
7 1 -3.422936582110e-05   8.470862108737e-05   2.610504947446e-05 
8 1  6.031373920193e-06   6.241227341428e-05  -3.141873440885e-05 
8
Step 32000
1 1 -3.165224806141e-05  -6.064693516638e-05   2.807121333717e-05 
2 1  2.520398446300e-05  -4.096624078012e-05  -1.812818114387e-05 
3 1  1.105479497159e-04  -6.558737348467e-05   3.692160452196e-05 
4 1  3.689733741096e-05  -3.708828109214e-05  -1.306829587658e-05 
5 1  1.560922210141e-04   9.408479571068e-05   1.106624983501e-04 
6 1  4.618947318597e-05  -4.235103141288e-05  -3.476661879827e-05 
7 1  2.116176538632e-05   1.253835096731e-05   9.666820545205e-06 
8 1  2.147337787776e-05  -2.470484101726e-06  -4.157140735813e-05 
8
Step 33000
1 1  2.517784220413e-05  -5.974763071295e-05   7.090293795271e-06 
2 1  1.014677234419e-04  -8.243824804929e-05  -4.624068038070e-05 
3 1  3.182877301010e-05  -6.975898505487e-05   1.299708930821e-05 
4 1  1.355870937711e-05  -3.012004907101e-05  -1.426865900582e-05 
5 1  1.279367220507e-04   1.139962909148e-04   6.077966865115e-05 
6 1  7.255068104676e-05  -8.096711203436e-06   3.973559425238e-05 
7 1  7.980625188728e-05  -7.603688353622e-05  -1.842842131885e-05 
8 1  3.175654579573e-05  -5.745652330329e-05  -3.575609353315e-05 
8
Step 34000
1 1  6.302232719806e-05  -1.059924040537e-05  -8.959588795135e-06 
2 1  1.332447183667e-04  -8.007273815908e-05  -4.677891246574e-05 
3 1 -5.500281569700e-05  -4.801269058803e-05  -2.326181517127e-05 
4 1 -1.674276888712e-05  -1.561801759544e-05  -1.120684559019e-06 
5 1  4.164724782936e-05   8.247197036919e-05  -1.218711120025e-05 
6 1  6.996319703078e-05   3.151532972948e-05   8.926829252232e-05 
7 1  1.158220338057e-04  -1.402349410929e-04  -4.507008441429e-05 
8 1  3.047583316174e-05  -8.377652331109e-05  -1.534981592965e-05 
8
Step 35000
1 1  6.433197873435e-05   6.327488673077e-05  -1.115002721492e-05 
2 1  1.035030229691e-04  -2.756301737512e-05  -2.152014584341e-05 
3 1 -1.106828443192e-04  -1.360600497531e-05  -5.496241400597e-05 
4 1 -4.461181748568e-05   3.865210469088e-06   2.670415600063e-05 
5 1 -6.707709197784e-05   1.397474781500e-05  -6.753183965849e-05 
6 1  4.146879899759e-05   5.864913495857e-05   8.510123190926e-05 
7 1  1.118543592147e-04  -1.498916059973e-04  -5.738803320674e-05 
8 1  1.448322541579e-05  -7.821944815891e-05   1.123509507421e-05 
8
Step 36000
1 1  3.042428274955e-05   1.210971423454e-04  -6.480184820862e-07 
2 1  2.374682237143e-05   5.263586527796e-05   1.445569033284e-05 
3 1 -1.114674059288e-04   1.628932888210e-05  -6.474275611830e-05 
4 1 -5.930416231913e-05   2.497785674645e-05   5.901289257426e-05 
5 1 -1.474313456993e-04  -5.821647705998e-05  -7.611825924047e-05 
6 1  3.306558601676e-07   6.099371482812e-05   2.634397357080e-05 
7 1  6.615284239634e-05  -9.812711501198e-05  -4.851944469541e-05 
8 1 -1.288672239257e-05  -5.143515025272e-05   3.217350597018e-05 
8
Step 37000
1 1 -1.922828786828e-05   1.254386105938e-04   1.081946554625e-05 
2 1 -6.822043744559e-05   1.192250175148e-04   4.008718216588e-05 
3 1 -6.088170213377e-05   2.934609221386e-05  -4.324979661368e-05 
4 1 -5.305266169886e-05   4.292832014947e-05   7.797583041143e-05 
5 1 -1.637302482939e-04  -1.012463139729e-04  -3.826274287289e-05 
6 1 -3.522791129063e-05   3.748229459763e-05  -5.841059283711e-05 
7 1 -5.577512839641e-06  -5.125843151202e-06  -2.101931391384e-05 
8 1 -4.135114294457e-05  -1.945747715519e-05   3.849600477127e-05 
8
Step 38000
1 1 -5.720920396285e-05   6.280797680984e-05   8.858973399640e-06 
2 1 -1.270653965005e-04   1.347743928000e-04   3.972251425008e-05 
3 1  1.290553312572e-05   2.349464100643e-05   4.625220606631e-06 
4 1 -2.587498867487e-05   5.144727538646e-05   6.722667901738e-05 
5 1 -1.112941267466e-04  -9.772347518556e-05   1.943303605721e-05 
6 1 -5.010020943069e-05  -4.057650485007e-07  -1.229581748821e-04 
7 1 -7.359966828744e-05   8.736601051703e-05   1.246280950905e-05 
8 1 -5.726105295302e-05   5.895086808231e-06   2.815886894139e-05 
8
Step 39000
1 1 -6.153631399419e-05  -4.658105837823e-05  -1.096309994232e-05 
2 1 -1.235431039246e-04   8.542178298826e-05   1.047802356775e-05 
3 1  7.171200870740e-05   7.182835627719e-06   5.997027977031e-05 
4 1  1.281508468667e-05   4.448086617755e-05   2.370934135507e-05 
5 1 -1.628455104853e-05  -5.158191135767e-05   6.056356494985e-05 
6 1 -4.088466175497e-05  -3.408767718917e-05  -1.285271221182e-04 
7 1 -1.098518087757e-04   1.390853745181e-04   3.719679302773e-05 
8 1 -4.971372548322e-05   2.172900340561e-05   6.136353263176e-06 
8
Step 40000
1 1 -2.773689766270e-05  -1.536090166976e-04  -3.845330987831e-05 
2 1 -5.747238926585e-05  -1.127224928989e-05  -3.591191634367e-05 
3 1  8.558711358010e-05  -5.481604559196e-06   9.778978537291e-05 
4 1  4.678710785463e-05   2.079488650567e-05  -3.670976931283e-05 
5 1  7.564374649783e-05   1.400769579967e-05   5.932247892168e-05 
6 1 -1.601917210682e-05  -4.830936867079e-05  -6.565614755250e-05 
7 1 -1.032242189138e-04   1.333639915713e-04   4.596124176678e-05 
8 1 -1.660197451559e-05   3.221526313169e-05  -1.724680325860e-05 
8
Step 41000
1 1  2.705371794691e-05  -2.059279922599e-04  -5.540803892754e-05 
2 1  3.951486100198e-05  -1.099045716705e-04  -7.588973829660e-05 
3 1  4.606537437190e-05  -3.221005570450e-06   9.647768896450e-05 
4 1  6.009189827929e-05  -1.249043172126e-05  -8.631395256301e-05 
5 1  1.228165472610e-04   6.896866856352e-05   1.568945702352e-05 
6 1  1.048331495926e-05  -3.867095296178e-05   3.938020461673e-05 
7 1 -6.069530412217e-05   7.910047681686e-05   4.030263213078e-05 
8 1  3.173271893348e-05   4.243682700346e-05  -3.017048807836e-05 
8
Step 42000
1 1  7.274493776925e-05  -1.762738007988e-04  -4.559638085981e-05 
2 1  1.172065228708e-04  -1.615926528792e-04  -8.543419126479e-05 
3 1 -2.698697962050e-05   1.549790618781e-05   4.528891045276e-05 
4 1  4.523567028611e-05  -4.230656644007e-05  -1.006086175799e-04 
5 1  1.086485329941e-04   9.076476030756e-05  -4.508730342118e-05 
6 1  2.454604845183e-05  -1.346579780539e-05   1.364243267301e-04 
7 1 -2.210548679271e-06   2.881974362845e-06   2.694697696690e-05 
8 1  7.487069298646e-05   5.272815605954e-05  -2.676984004419e-05 
8
Step 43000
1 1  8.222240638039e-05  -7.485685882274e-05  -5.644508703013e-06 
2 1  1.350599223233e-04  -1.415276040652e-04  -5.467999567636e-05 
3 1 -9.256257894314e-05   3.991520993595e-05  -4.753817065211e-05 
4 1  7.206488939008e-06  -5.557799265712e-05  -7.075096823096e-05 
5 1  4.739640971501e-05   7.297957265266e-05  -8.730592186699e-05 
6 1  1.854312583927e-05   1.097989654208e-05   1.776428575066e-04 
7 1  4.712107628017e-05  -6.240900589801e-05   1.341629289221e-05 
8 1  9.214059483462e-05   5.709350248976e-05  -8.767015548553e-06 
8
Step 44000
1 1  4.800127494077e-05   5.197439277885e-05   4.599396015502e-05 
2 1  8.245387306582e-05  -5.813072911876e-05   7.217891563868e-06 
3 1 -1.095091936335e-04   5.162483146466e-05  -1.483716284732e-04 
4 1 -3.792723906332e-05  -4.493556275561e-05  -8.996326907506e-06 
5 1 -2.459749824958e-05   2.751296169114e-05  -8.607149195820e-05 
6 1 -2.861303072201e-06   2.010919789999e-05   1.417166524561e-04 
7 1  6.861090128455e-05  -9.317118996628e-05   3.386377565704e-06 
8 1  7.236160093401e-05   4.673978146641e-05   1.640736710442e-05 
8
Step 45000
1 1 -1.128924842740e-05   1.438664075456e-04   7.840077344554e-05 
2 1 -1.406172492143e-05   4.921382382620e-05   7.516255642051e-05 
3 1 -6.039100446209e-05   3.544249394671e-05  -2.077096279165e-04 
4 1 -6.833531011995e-05  -1.308120267846e-05   5.424628266975e-05 
5 1 -6.975860007953e-05  -2.218334078313e-05  -4.235745408524e-05 
6 1 -2.546508087979e-05   1.006154276695e-05   4.349090670920e-05 
7 1  5.797826187189e-05  -8.488832592387e-05  -5.122440585563e-06 
8 1  1.911832985456e-05   1.726929554742e-05   3.567450754179e-05 
8
Step 46000
1 1 -6.421167782782e-05   1.653942634779e-04   7.097084425636e-05 
2 1 -1.031173091304e-04   1.278902882699e-04   1.181764417762e-04 
3 1  3.696002152243e-05  -8.653383122837e-06  -1.872754897799e-04 
4 1 -6.608484869105e-05   2.566439930861e-05   8.487917543121e-05 
5 1 -7.045542574502e-05  -5.453337832337e-05   2.023979324344e-05 
6 1 -3.542141366955e-05  -1.001418821463e-05  -7.184291269657e-05 
7 1  2.487752601891e-05  -4.926852565656e-05  -1.616966855519e-05 
8 1 -4.788587548043e-05  -2.549273546493e-05   3.731988843754e-05 
8
Step 47000
1 1 -8.494861834843e-05   1.211106342054e-04   2.500761430157e-05 
2 1 -1.396727666519e-04   1.445401576426e-04   1.159316720333e-04 
3 1  1.322750305539e-04  -6.154762246084e-05  -8.610833941434e-05 
4 1 -2.726526860592e-05   5.194038563591e-05   6.512251297027e-05 
5 1 -3.361665431083e-05  -5.942809797266e-05   7.204745166966e-05 
6 1 -2.526689888924e-05  -2.458369771099e-05  -1.514073894584e-04 
7 1 -1.266308186469e-05  -5.636888198458e-06  -3.071757167527e-05 
8 1 -1.002867601963e-04  -6.623657499264e-05   1.917477817313e-05 
8
Step 48000
1 1 -6.364933694041e-05   4.372986173239e-05  -3.853241723628e-05 
2 1 -1.094362167461e-04   9.845297896442e-05   6.923645450947e-05 
3 1  1.714987655077e-04  -9.582736226474e-05   5.162639042369e-05 
4 1  3.459393502148e-05   5.123034130434e-05   5.384981691231e-06 
5 1  1.810365714106e-05  -3.938329294880e-05   9.137877976613e-05 
6 1  2.746823779442e-06  -2.133378433682e-05  -1.633643992717e-04 
7 1 -3.605708330824e-05   2.764714158887e-05  -4.429598007390e-05 
8 1 -1.154983206102e-04  -8.749662543527e-05  -1.128161818091e-05 
8
Step 49000
1 1 -1.303144089231e-05  -2.625896678706e-05  -8.440606590071e-05 
2 1 -2.902498852367e-05   1.529992338602e-05  -1.999193114092e-06 
3 1  1.339477583928e-04  -9.468422280687e-05   1.613504387630e-04 
4 1  9.062760073437e-05   2.325616232759e-05  -5.797048995511e-05 
5 1  5.787910342434e-05  -5.628363021946e-06   7.140148623016e-05 
6 1  3.676018222449e-05   1.391320771329e-06  -1.090728335646e-04 
7 1 -3.462064883139e-05   4.081834095060e-05  -4.860179963568e-05 
8 1 -8.668739124421e-05  -7.795689369255e-05  -4.219445582292e-05 
8
Step 50000
1 1  3.880679799753e-05  -6.063483772546e-05  -8.278067910173e-05 
2 1  6.000568034310e-05  -6.521729812017e-05  -6.756855482222e-05 
3 1  4.233465725010e-05  -6.124019040044e-05   1.972975939783e-04 
4 1  1.108675147913e-04  -1.567207676296e-05  -8.230647167254e-05 
5 1  6.600190376399e-05   2.721306818274e-05   2.097388865584e-05 
6 1  6.056644608513e-05   3.300612520564e-05  -1.836111290026e-05 
7 1 -1.029409702117e-05   3.549252576333e-05  -3.619942660754e-05 
8 1 -2.376748056571e-05  -3.868526488881e-05  -5.951419831274e-05 
8
Step 51000
1 1  6.631069221550e-05  -5.573536937509e-05  -2.938512539641e-05 
2 1  1.141311153378e-04  -1.097984237006e-04  -1.027280843024e-04 
3 1 -5.572114928646e-05  -1.425855786519e-05   1.532872251306e-04 
4 1  8.089475357986e-05  -4.369776302656e-05  -4.735967822044e-05 
5 1  3.804098724011e-05   4.606645644755e-05  -3.949878806367e-05 
6 1  6.211937536292e-05   5.590181456721e-05   6.540627384972e-05 
7 1  2.368954753015e-05   2.106239570935e-05  -6.128368500668e-06 
8 1  4.899620548165e-05   1.517264561693e-05  -5.313520712162e-05 
8
Step 52000
1 1  5.922435541863e-05  -3.120492593454e-05   4.918303310511e-05 
2 1  1.121740496155e-04  -1.058394776274e-04  -9.816077336334e-05 
3 1 -1.149249263421e-04   2.389855913668e-05   6.001827133824e-05 
4 1  9.828914869955e-06  -4.638022354702e-05   3.104591242514e-05 
5 1 -1.329934678218e-05   4.436249697690e-05  -8.560168845504e-05 
6 1  3.887602521964e-05   5.538662650086e-05   1.067781206231e-04 
7 1  4.879964228924e-05   8.236705691394e-06   3.370277916171e-05 
8 1  1.023545362770e-04   6.007049061584e-05  -2.327390897823e-05 
8
Step 53000
1 1  2.449638500901e-05  -1.333287652518e-05   1.095575111724e-04 
2 1  6.193329786298e-05  -5.948153839049e-05  -6.049882440079e-05 
3 1 -1.161295961736e-04   4.059392670630e-05  -3.472149245203e-05 
4 1 -7.157216387401e-05  -2.431509051172e-05   1.084337016209e-04 
5 1 -6.351281907386e-05   2.445478204967e-05  -9.872449803868e-05 
6 1 -1.644238147864e-06   2.782829781044e-05   9.500645140882e-05 
7 1  4.963324635981e-05   3.476651941474e-06   6.885978313266e-05 
8 1  1.164450265468e-04   7.568791234567e-05   1.954512015675e-05 
8
Step 54000
1 1 -1.787327834209e-05  -1.510440062632e-05   1.155365053892e-04 
2 1 -7.548701819601e-06   8.804486084280e-06  -7.976392436562e-06 
3 1 -7.164041994900e-05   3.765986764161e-05  -9.212991365090e-05 
4 1 -1.265944298813e-04   7.269767047341e-06   1.361367357517e-04 
5 1 -8.753208369809e-05  -4.685515748330e-06  -7.350256211158e-05 