8
Step 0
1 1  0.000000000000e+00   0.000000000000e+00   0.000000000000e+00 
2 1  0.000000000000e+00   0.000000000000e+00   0.000000000000e+00 
3 1  0.000000000000e+00   0.000000000000e+00   0.000000000000e+00 
4 1  0.000000000000e+00   0.000000000000e+00   0.000000000000e+00 
5 1  0.000000000000e+00   0.000000000000e+00   0.000000000000e+00 
6 1  0.000000000000e+00   0.000000000000e+00   0.000000000000e+00 
7 1  0.000000000000e+00   0.000000000000e+00   0.000000000000e+00 
8 1  0.000000000000e+00   0.000000000000e+00   0.000000000000e+00 
8
Step 1000
1 1  6.198717287860e-05   3.049262282205e-05   1.878669435451e-04 
2 1  8.304519018415e-05   1.667590812307e-05  -3.355783353625e-05 
3 1  7.216503146747e-05  -1.543268025444e-04  -9.059401638568e-05 
4 1 -1.383822977474e-04   1.274312287456e-04  -1.913140305731e-04 
5 1  2.048632209956e-05  -2.003625968153e-04   2.335350784315e-04 
6 1  1.317628816477e-04  -1.425743084991e-04   1.867630037465e-04 
7 1  2.227847686463e-04  -2.188661550692e-04   1.605455913444e-04 
8 1 -2.171999451106e-05   6.859613080769e-05  -8.566078187799e-05 
8
Step 2000
1 1  1.476887538115e-04   7.385393631527e-05   4.966516222019e-05 
2 1  1.141871939167e-05   1.990154050029e-05   3.681250195650e-05 
3 1  8.677867018661e-05  -8.704245279118e-05   5.028276216034e-05 
4 1 -7.764302036326e-05  -1.164762244064e-04  -2.703023782636e-04 
5 1  1.636586339605e-05  -3.060047282074e-04   2.174517908449e-04 
6 1  2.057174284037e-04  -5.291415139080e-05   8.891740316539e-05 
7 1  5.345347329505e-05   8.120836558608e-05   6.447620365722e-05 
8 1 -1.428253597925e-04   3.927393922716e-04  -7.494612726685e-05 
8
Step 3000
1 1 -1.378325579704e-04   1.973344001065e-04  -6.227958629721e-05 
2 1  1.507133627711e-04  -9.215076942015e-05  -3.563490847527e-05 
3 1  2.102750807864e-04  -1.780474454232e-04   1.700477872450e-04 
4 1 -8.373088076212e-05   6.191518766496e-05  -2.743780586747e-04 
5 1  1.378386869886e-05  -2.224860731160e-04   3.487339912443e-04 
6 1  1.812425629773e-04  -4.578930847879e-05   1.780237293001e-04 
7 1  1.559130596147e-04  -7.524938920578e-05  -1.100144676666e-04 
8 1  4.699936941229e-05   4.649654174456e-05  -1.131353328112e-04 
8
Step 4000
1 1  1.033745433260e-04  -1.396107702557e-04  -4.660092388878e-05 
2 1  4.332644296027e-05   1.652229920543e-05   4.315920404649e-05 
3 1  4.517061856468e-05  -1.855624819875e-04   1.109049461068e-04 
4 1  5.366865965410e-06   8.044494553686e-05  -1.623445129697e-04 
5 1  4.732294699327e-05  -3.251922116408e-04  -7.931782774042e-05 
6 1 -3.474620083708e-05  -7.261459266640e-05  -7.221463461433e-05 
7 1  1.164231889259e-04   1.447427338777e-04  -1.916928753503e-05 
8 1  5.193566788343e-05   1.870843212497e-04  -2.807866407795e-04 
8
Step 5000
1 1 -1.462711063089e-05   1.881388076408e-04  -8.108033987370e-05 
2 1  5.500015979113e-05   1.008468452436e-04  -2.783553218420e-05 
3 1  8.139977148196e-05  -9.223090272728e-05   9.175251443830e-05 
4 1 -1.679100128027e-04   2.385527150537e-05   2.162577297235e-05 
5 1  5.736216929716e-05  -2.178136883021e-04   3.673320585208e-05 
6 1  5.627491971386e-05  -8.056213587433e-05  -1.636048538406e-04 
7 1  1.828805436627e-04   6.743799034802e-05  -4.858744622807e-05 
8 1 -1.402827226501e-04  -1.542590650361e-05  -3.561485946923e-04 
8
Step 6000
1 1 -1.843686162864e-05  -9.255603542479e-05  -1.648637465164e-05 
2 1 -1.512537932212e-04   1.841260650261e-04   9.828702810453e-05 
3 1 -9.992643491984e-05   4.131463756938e-05  -6.980191547367e-05 
4 1 -1.017606634001e-04   4.718213432807e-05  -4.170126039223e-05 
5 1  2.589148649550e-05  -3.147491892922e-04   9.244161542606e-05 
6 1  1.152574857854e-05   4.678844690064e-05  -2.621026107704e-04 
7 1  1.067596166568e-04  -3.262956699292e-05  -2.181239269678e-04 
8 1  9.893542953499e-05   1.450242637367e-04  -1.971112573833e-04 
8
Step 7000
1 1 -7.568407512616e-05   1.280168508266e-04  -2.166067843964e-04 
2 1  1.338375927564e-05   5.102253330131e-05   9.415706794789e-05 
3 1 -1.064880906033e-04  -7.648726787442e-05   4.762912427868e-05 
4 1  3.938652425652e-05   1.370679377414e-04   3.057206714186e-04 
5 1 -2.662767645368e-04  -2.970833721530e-04  -2.426007970832e-04 
6 1 -1.328471711435e-04   8.361979944418e-05  -2.128052006332e-04 
7 1  5.452483088744e-05  -1.123633514047e-04  -3.384418161178e-05 
8 1 -2.525717509824e-04   2.158632214435e-04  -2.934282425837e-04 
8
Step 8000
1 1 -1.232980886253e-04  -1.313575060883e-04  -7.623178734276e-06 
2 1 -8.096486872073e-05   2.376597862662e-04   4.364320797627e-05 
3 1 -1.568115423959e-04   7.403333699026e-05   4.366525220886e-05 
4 1 -6.591679830400e-05   2.512912201794e-05   1.149676395956e-04 
5 1  7.218833680442e-05  -5.088015763098e-05  -6.542709436806e-05 
6 1  8.188662567029e-05  -2.507417715869e-05  -6.680716164395e-05 
7 1  1.638217692551e-04  -1.395848854106e-04  -9.509065835328e-07 
8 1 -2.611149003592e-05  -7.256578924842e-05  -2.980163955734e-04 
8
Step 9000
1 1 -8.450027385515e-05   1.216478664546e-04  -4.516616029275e-05 
2 1 -6.639921448950e-05  -4.428691895925e-05   2.400225616152e-04 
3 1 -8.854404756222e-05   1.273021553574e-04   3.309735484301e-04 
4 1 -1.149715883125e-04  -8.741209645432e-07   3.445468615368e-05 
5 1 -7.618026726331e-05   6.286419395578e-05   1.011942890902e-04 
6 1  2.009898882129e-05  -3.773464727035e-05  -2.164031395304e-04 
7 1 -5.865761146082e-05  -1.110682602344e-04  -1.539093545228e-04 
8 1  7.190199953723e-05  -1.546035648227e-04  -5.244699577625e-05 
8
Step 10000
1 1 -2.039986310563e-04   1.132444519627e-04   4.162731104292e-05 
2 1 -8.841682091279e-05   4.479288527631e-05   2.191598197218e-04 
3 1 -1.643859455139e-04   9.850241587198e-05   1.387833633131e-04 
4 1  1.542396420297e-04   3.216810879055e-05   1.959873885526e-04 
5 1  6.113918133068e-05  -1.095696305230e-04  -6.332301593546e-05 
6 1  1.174584526578e-04   4.608332219785e-05  -1.999021304900e-05 
7 1  1.622991501071e-04  -2.766827713261e-04   8.981742971484e-05 
8 1 -1.590497323008e-04  -1.504433602627e-05  -2.029621646723e-04 
8
Step 11000
1 1  2.137203928230e-05  -8.163434012478e-05   4.234829710572e-05 
2 1 -5.040944287321e-05   5.311769702970e-05   2.490138488416e-04 
3 1 -1.373040502939e-04   1.524996977233e-04   2.883230566670e-04 
4 1 -7.085494238285e-05   1.619976173861e-05   1.902481210322e-04 
5 1  1.354900914069e-04  -2.578238135502e-04  -1.486622489178e-05 
6 1  1.043105462968e-05   5.581621234894e-05  -2.019439086005e-04 
7 1  4.896659456257e-05  -1.339985027733e-04   1.472495015735e-04 
8 1 -1.682512883502e-04  -1.777135839032e-04  -2.627445917458e-05 
8
Step 12000
1 1 -1.574031996683e-04  -4.268654500592e-05  -3.470140718047e-05 
2 1 -6.108285040416e-05  -1.014542591254e-04   2.505338742095e-04 
3 1 -1.529046660391e-04   1.681053994831e-04   1.237003079553e-04 
4 1  3.217874461652e-05  -2.413801150641e-05   1.541419974392e-04 
5 1  1.772258373494e-04  -7.397907128277e-05  -6.955411243588e-06 
6 1  3.496303867551e-04  -2.862833072038e-05  -8.334959178055e-05 
7 1 -1.480365365070e-04  -1.670931134901e-04   1.719021873155e-04 
8 1 -4.188602959708e-05  -1.375785432965e-04  -1.081804971842e-04 
8
Step 13000
1 1 -6.088104301382e-05   3.622642337077e-05   1.112601461722e-04 
2 1  5.576814617624e-05   1.432478598435e-04   9.943096279666e-05 
3 1 -4.529486685041e-04   2.718172051626e-05  -3.485985435576e-05 
4 1  2.304445505948e-04  -2.418879278324e-05   3.077982044864e-04 
5 1  2.251099035506e-05  -9.734305971046e-05  -9.685556232064e-05 
6 1  1.210876583331e-04   1.111889634889e-04  -1.144103662233e-04 
7 1  1.648518303177e-04  -1.469580000858e-04   1.081202166181e-04 
8 1 -8.752813779336e-05  -1.481469514916e-04  -2.484114266257e-04 
8
Step 14000
1 1 -1.644042583105e-04   3.436283644387e-06  -5.666533147851e-05 
2 1  9.647088216604e-05   2.132757014907e-04  -1.282340487734e-05 
3 1 -1.502798203636e-04  -4.868674229314e-05   6.402747533871e-05 
4 1  5.577195145263e-05  -6.161328648317e-05   3.008185971347e-04 
5 1 -1.722762306665e-06   9.123215622109e-05  -3.150961862178e-05 
6 1  2.403563437316e-05   2.643411325119e-04  -3.963177932322e-05 
7 1  2.962009653004e-04   1.756224507145e-05   1.005730124950e-04 
8 1 -2.230395412120e-04  -1.882666216616e-04  -3.966358141046e-05 
8
Step 15000
1 1 -4.719403498659e-05  -1.103594347269e-05  -1.093768247562e-04 
2 1 -9.063182911861e-05   9.193806378239e-05   2.150709831979e-05 
3 1 -3.793474765741e-05   4.992522638751e-05  -2.006169924937e-04 
4 1  1.366002413037e-04  -6.998572146635e-05  -8.784315519515e-05 
5 1 -1.135350270975e-04   2.097528294557e-04   2.775289815924e-04 
6 1  5.090246393262e-05  -1.973361189340e-05   6.655345289291e-05 
7 1  6.586241077078e-06  -3.064037463212e-05   3.690692533459e-05 
8 1 -2.068547945292e-04  -1.255386744408e-04  -2.731768787619e-04 
8
Step 16000
1 1 -2.180844731284e-04   1.815531871541e-06  -1.976271248792e-04 
2 1  1.928329340468e-04   1.785006585164e-04   5.021251649474e-05 
3 1 -1.692852963925e-04  -2.830579384051e-05  -2.313682364560e-04 
4 1  2.434494054489e-04   2.770884898897e-04   1.245682828797e-04 
5 1 -1.620538655817e-04   1.139416969485e-04   8.170437957269e-06 
6 1 -1.589442958060e-04   5.412395179919e-05  -2.674132983268e-04 
7 1  2.471757437394e-05  -6.819137508341e-05   2.367344332913e-04 
8 1 -3.175492896288e-05   5.623646888330e-05  -7.486728501662e-05 
8
Step 17000
1 1 -2.134057137656e-04   1.621172161508e-04   5.935213182634e-05 
2 1  3.057604638542e-05   2.544296534750e-04  -2.295427463600e-04 
3 1 -5.203138956880e-05   5.616581868317e-05  -1.705956238546e-04 
4 1  2.313000983559e-04   1.518626820504e-04  -2.633618599603e-05 
5 1 -9.287421079310e-05   2.091061445078e-04   5.964563140226e-05 
6 1  1.609453979143e-05   3.804621038564e-05  -6.385963800428e-05 
7 1 -9.362605609525e-05   8.309049525157e-05   2.089868516734e-04 
8 1 -1.407807881129e-04   1.193282083163e-04  -2.135805144411e-04 
8
Step 18000
1 1 -1.213986050276e-04  -5.668299923906e-05  -9.809838338399e-05 
2 1  2.203573042031e-04   2.921027853136e-04  -5.651607184659e-05 
3 1 -1.968811167955e-04   1.439539247950e-04  -3.900882356340e-04 
4 1  9.681648497269e-05   1.593995779912e-04  -1.102861772615e-04 
5 1 -1.581472999326e-05   1.360040635658e-04   1.834163633332e-04 
6 1 -2.494266110227e-05  -1.174864688282e-04   4.221645187201e-05 
7 1 -8.953357334968e-05   2.983435352780e-04   5.840455386608e-05 
8 1 -2.071263996624e-04   5.692483754681e-05  -1.073281296572e-04 
8
Step 19000
1 1 -1.788157042442e-04   1.526483771864e-04  -7.865553464608e-05 
2 1  1.577407856634e-04   3.054183765654e-04  -5.443949894944e-05 
3 1 -1.062806185874e-04   4.817715204029e-06  -5.201052673235e-05 
4 1 -2.353332344780e-04   8.651473459395e-05   1.283236822835e-04 
5 1 -1.799594417719e-04  -5.496117015293e-05  -5.315401088243e-05 
6 1  2.025232574583e-04  -2.726666307004e-05   1.557963581456e-05 
7 1 -8.581853758278e-05   2.121523699958e-04   1.863478680423e-04 
8 1 -9.228137460488e-05   2.551324424207e-04  -1.589420693529e-04 
8
Step 20000
1 1 -1.928383697935e-04  -1.041947395773e-04   1.109836729772e-04 
2 1  1.286886570875e-04   2.031478598455e-04  -2.698502436122e-04 
3 1 -3.426326446563e-05   2.769454440067e-04  -2.292390888723e-04 
4 1  2.808816281754e-04   3.461693199067e-05  -7.996816748502e-05 
5 1 -3.360307234885e-05  -9.177302150231e-06  -4.272952560206e-05 
6 1  6.899631341435e-05  -2.348504725048e-05   4.513410407290e-05 
7 1 -6.716970518436e-05   4.379662527225e-05   2.134645436243e-04 
8 1 -1.134724975490e-04   1.153016892539e-04  -2.788961210323e-04 
8
Step 21000
1 1  5.764736313946e-05   8.885916649517e-05  -6.266062959487e-05 
2 1  1.090951804089e-04   4.183410056545e-05   1.459417183991e-04 
3 1 -1.760248089008e-04  -1.110316969369e-05  -1.923592060276e-04 
4 1  1.038091368943e-04   1.145561746613e-05   1.286628397664e-04 
5 1 -1.405597497907e-04   3.969943738919e-05   1.284679558377e-04 
6 1 -2.659271959146e-04  -1.339168963523e-04  -9.455609248561e-06 
7 1  1.194375510567e-04   3.339437542069e-04   9.858281595166e-05 
8 1 -2.867416511085e-05  -9.907802543018e-06  -5.130209017803e-05 
8
Step 22000
1 1  1.875304819713e-05  -1.028886726801e-04  -1.545244716306e-05 
2 1  7.732338363128e-05  -7.804622337917e-05  -2.347293248557e-04 
3 1  1.058706656489e-04  -2.649199996456e-04  -2.858527368264e-04 
4 1  3.194830604118e-05   3.765636817812e-05   9.739726514754e-05 
5 1 -1.475836045749e-04  -1.774437776003e-04  -5.366455552704e-05 
6 1  6.582354428078e-05  -6.514466551406e-05   4.045675219131e-05 
7 1 -1.117380208483e-04   2.000360908110e-04   9.191094540624e-05 
8 1 -7.219830671027e-06  -3.515546519260e-05   8.092830628112e-05 
8
Step 23000
1 1  8.779467624431e-05   3.367891515597e-05   1.506740067292e-04 
2 1  1.099001094818e-04  -1.102755664392e-04  -1.156166759106e-05 
3 1 -2.272646222676e-05  -6.785068154965e-05   5.717419686347e-05 
4 1  2.313943088629e-04   4.198020645224e-05  -6.200548051299e-05 
5 1 -1.995586519822e-04  -1.291138986417e-04   9.399978557010e-05 
6 1 -1.810650770599e-05  -1.744792760572e-04   1.894522438651e-04 
7 1  4.384921488296e-05   1.233837273405e-04   6.951216764316e-05 
8 1 -1.034564332867e-05   9.847070827621e-05   6.844261993970e-05 
8
Step 24000
1 1  8.040870795511e-05  -1.786560941756e-05  -1.411011828889e-04 
2 1  2.409652986759e-04  -2.921006378348e-04   1.660113854762e-04 
3 1  1.194269214390e-06  -1.555567187137e-04  -1.166395560820e-04 
4 1  6.219898048330e-05  -1.360257988467e-05  -3.347087010038e-04 
5 1 -9.676338084413e-05  -1.893885012132e-04   3.962757996432e-05 
6 1  4.652830076502e-05  -2.259328717363e-04   1.319635952740e-04 
7 1  2.065469337256e-04   3.388779211971e-04   3.932935669399e-05 
8 1 -1.656028047046e-05  -1.057156329285e-04  -1.179563479963e-04 
8
Step 25000
1 1  1.739466795840e-04   3.996177808326e-05   1.274453040736e-04 
2 1  5.536138923336e-06  -2.971538725927e-04   1.130739155699e-04 
3 1  1.199125229661e-04  -3.071892906560e-04  -2.051450322478e-04 
4 1  2.195402243586e-05   2.672654878822e-04  -6.302244562538e-05 
5 1 -2.330183091324e-04  -1.410380193745e-04  -2.263021257289e-04 
6 1  8.798181187154e-05  -3.170382056090e-04   4.263897088477e-04 
7 1  8.126613960774e-05   2.572988606830e-06   2.048740119614e-04 
8 1 -1.605232859697e-04  -2.912518283862e-04   1.369983805877e-04 
8
Step 26000
1 1  3.080490937079e-04  -5.165544515319e-05  -4.028237454465e-05 
2 1 -1.290653108271e-05  -1.943292206356e-04  -3.261002112014e-05 
3 1  9.959341305033e-05  -4.852100243528e-04  -1.346148023844e-04 
4 1 -3.570153216637e-05  -4.097367590769e-06   2.841201700877e-05 
5 1 -1.486703241419e-04  -2.387039054333e-05   1.922212318242e-06 
6 1 -4.351556229873e-05  -5.578622873594e-05   1.752998465222e-04 
7 1  5.948910149393e-05  -8.854329850008e-05  -6.918379485040e-05 
8 1  1.124841384087e-04   8.498735927297e-05   5.315856475431e-05 
8
Step 27000
1 1  1.278787705618e-04   5.378837879814e-05   1.810682913206e-04 
2 1  1.127413147470e-04  -8.950839405733e-05   1.530360816163e-04 
3 1  2.103398305024e-05  -1.801493081117e-04  -1.386529610706e-04 
4 1  5.100184600126e-05   1.729056221378e-04  -1.855204752443e-04 
5 1  1.597700096647e-05  -1.933597152996e-05   1.447958012823e-04 
6 1  9.341386477169e-06  -8.849475094765e-06  -2.407350273554e-04 
7 1  1.366564337028e-04  -1.545527010579e-04  -4.523369547244e-06 
8 1  1.850567656328e-04  -2.429885074144e-04   1.678040916777e-04 
8
Step 28000
1 1  2.072213646504e-04   1.457192878156e-04  -6.549652749763e-05 
2 1 -2.781790273980e-04  -2.541216672172e-04   1.963810607462e-04 
3 1  2.273056707543e-05  -2.655032665850e-04  -6.693904304586e-05 
4 1 -9.380817890423e-05   4.801700332267e-04   1.993351980217e-04 
5 1 -6.635778324906e-05   8.165038271172e-05   9.250548436454e-05 
6 1  6.922037946820e-05   2.395376797501e-05  -4.138453640257e-05 
7 1  1.838231410451e-04  -3.032922674658e-05  -3.116203379179e-04 
8 1 -3.927313432686e-05  -1.691057144091e-04   3.134806789583e-05 
8
Step 29000
1 1  2.059495213463e-04   9.263107404238e-05  -1.627319562139e-04 
2 1 -3.952570104866e-04  -6.128537059303e-05   4.078571015811e-05 
3 1  1.293309751398e-04   4.349816867747e-05  -2.755140678996e-04 
4 1 -1.318165784845e-04   3.010559039924e-04   1.146012963054e-04 
5 1 -2.893895136103e-05   8.798326212427e-05  -6.505659654429e-06 
6 1  8.312640601526e-05  -1.206190235374e-04  -4.430203805491e-05 
7 1 -1.377927304247e-05  -5.282819928708e-05  -2.122428179089e-04 
8 1  2.864037092835e-04  -3.011423911256e-04   1.612097607851e-04 
8
Step 30000
1 1 -2.848010633234e-04   2.861254557081e-04  -9.735236510687e-05 
2 1 -6.252176614782e-05  -1.064057668349e-04   4.267537786230e-05 
3 1 -5.246877913330e-05  -1.819069292326e-04   2.093308247526e-04 
4 1 -3.271905918929e-05   2.613343380188e-04   1.431237290478e-04 
5 1 -2.146142378454e-04   6.626245021236e-05   1.739910600213e-04 
6 1  4.527344410937e-05  -1.051794496116e-05  -1.758313317209e-04 
7 1  2.675668088203e-04   2.527887917382e-04  -2.856480940509e-05 
8 1 -9.201434059259e-05  -2.117479925089e-04  -1.186532333965e-05 
8
Step 31000
1 1  1.085025393714e-04   7.147435840644e-05  -2.797931984906e-04 
2 1 -2.724891433393e-04   2.008079051229e-04  -2.978808572525e-05 
3 1 -1.112349568264e-05  -2.111771221809e-04   7.604934573652e-05 
4 1 -1.006164256645e-05   2.485792012792e-04   2.967844569651e-05 
5 1  2.720698718527e-04  -1.651645709839e-05  -2.431098446823e-05 
6 1 -6.149689102680e-05  -1.035569635947e-04  -2.047195702676e-04 
7 1 -1.960599835688e-05  -5.258980100497e-05   1.843330790830e-04 
8 1  5.688705198465e-05  -1.754631169307e-04  -2.416229285978e-05 
8
Step 32000
1 1 -2.359265991215e-04   9.954521546436e-05  -1.065984512974e-04 
2 1 -4.323781913821e-04   1.527404614097e-04   2.414895829710e-04 
3 1 -9.121110560106e-05  -1.303471818172e-04   6.255900630689e-05 
4 1 -1.077252715258e-04  -1.653896484884e-04   3.377971201033e-05 
5 1  1.313331748420e-05   5.014797063604e-06   1.057585979695e-04 
6 1 -3.293183546641e-05   3.707706644508e-05  -1.462202607363e-04 
7 1 -5.809124471014e-05   2.337575392234e-05   1.285482356066e-05 
8 1  1.748297506373e-05  -3.044904716020e-06  -9.378645473749e-05 
8
Step 33000
1 1 -6.816075858200e-05  -5.824013995870e-05  -2.085915483572e-04 
2 1  1.095497875889e-04   5.176276708340e-05  -5.097774027344e-05 
3 1 -1.812702910426e-04   7.716950265589e-05   7.114300928090e-05 
4 1  4.876483671179e-05  -1.025056067509e-04  -1.129436270774e-04 
5 1  3.128042251549e-06   1.599095540335e-04   1.398515585948e-04 
6 1  9.214684725086e-05  -1.760289185186e-04  -8.408853053470e-05 
7 1  3.045919992177e-05  -2.814611797823e-05   9.826569544559e-06 
8 1 -2.281340358645e-04  -1.756627197657e-04  -1.950676501321e-04 
8
Step 34000
1 1 -3.105256310861e-04  -5.872327095485e-05   4.867266169606e-05 
2 1 -2.213600296875e-04   4.500476452561e-04   1.498258614522e-05 
3 1 -3.062867749269e-05  -4.981609949841e-05   7.883689195074e-07 
4 1 -2.695581049038e-05  -2.321816843991e-04   2.096434071342e-04 
5 1  1.561663800425e-04  -1.933019670865e-04   8.103784427865e-05 
6 1  7.013769242657e-05  -1.345842370060e-04  -1.971001387431e-04 
7 1 -3.040042325376e-05   2.535099664566e-04  -6.146971781127e-05 
8 1 -1.785548488203e-04   1.064733097999e-04  -3.159166856166e-05 
8
Step 35000
1 1 -8.668899240930e-05  -5.444264671843e-05   2.879109978051e-06 
2 1 -1.454225421653e-04  -3.703778954946e-05  -5.316483459159e-05 
3 1  1.713520706890e-04   2.219756184565e-04  -4.889819112869e-05 
4 1  8.596433346153e-05  -8.430901816937e-06  -7.910763563448e-05 
5 1  5.244123406265e-05  -2.353003091816e-04   7.205721600752e-05 
6 1 -8.018198236298e-05  -1.630760881349e-04   4.150838844414e-05 
7 1  6.345565429365e-05   1.859370276853e-04   7.244504442985e-05 
8 1 -7.778347089853e-05  -7.358443935976e-05  -7.959058665645e-05 
8
Step 36000
1 1 -1.559554879859e-04  -2.514313405240e-04   2.756254791111e-04 
2 1  1.114851777003e-04   3.198209740530e-04  -2.028016644608e-04 
3 1 -1.925375152761e-04   8.405189390710e-05   1.863791988096e-04 
4 1  3.825560305261e-05  -3.622572604328e-04  -1.363454222538e-04 
5 1  1.427079073158e-04   9.289668331337e-05   2.263892935305e-05 
6 1  1.377625827838e-04  -7.864750138190e-05  -3.162163507518e-05 
7 1 -2.242564727791e-05   1.039714981242e-04   1.355876134351e-04 
8 1 -3.547467726234e-04   9.876936459979e-05  -1.046979984569e-04 
8
Step 37000
1 1 -1.084163264338e-04  -1.015329475804e-04   1.523615175083e-05 
2 1  3.071854092621e-05   1.473766476619e-04  -2.372866338216e-05 
3 1 -1.065269129950e-05   5.215842546451e-05   1.014978375418e-04 
4 1  5.547598701066e-05  -1.886607868817e-04   1.533009787752e-04 
5 1  6.023165756503e-05  -1.835001944035e-05  -1.876253030447e-06 
6 1 -8.201498201725e-05  -5.599626974043e-05   7.795116219406e-05 
7 1 -5.290865542548e-05   1.629538142535e-04   1.069930785158e-04 
8 1  7.417968581518e-05   8.237034799988e-05  -1.323879280230e-04 
8
Step 38000
1 1  7.245945486881e-05  -1.323091844744e-04   1.791265089778e-04 
2 1 -1.381451096747e-05  -3.021262004837e-04   2.006738958071e-04 
3 1  2.848549667526e-05   1.923857241301e-04   1.268580581040e-04 
4 1 -3.083375816252e-05  -1.197942751138e-04  -1.891917443891e-04 
5 1  2.541705656613e-04  -3.610956941272e-04  -9.395697338552e-05 
6 1  1.159169530787e-04   1.259866225612e-04  -1.343771642954e-05 
7 1 -1.006929810088e-04   1.583691768595e-04   9.975390747179e-05 
8 1 -1.636129057880e-04   1.093211617970e-04   8.060975926216e-05 
8
Step 39000
1 1  7.857372060842e-05  -6.632981743845e-05   9.490877939400e-05 
2 1  7.330176065344e-05   1.520316162797e-04   1.414915263760e-05 
3 1  9.478737873681e-05   2.395376593178e-04   1.691585895539e-05 
4 1 -3.100295553837e-04  -3.063445849059e-04  -2.095734174333e-04 
5 1  2.630891570957e-05  -7.256423172609e-05   1.535850610138e-04 
6 1  1.912378838024e-04   8.459699466924e-05  -4.415470568433e-07 
7 1 -1.168233746457e-04   5.683793930518e-05  -4.200431191528e-05 
8 1 -1.695295626356e-04   3.502186566726e-05   6.006130695157e-05 
8
Step 40000
1 1  6.672213220504e-05   3.201779532691e-05  -2.993314461154e-05 
2 1 -1.963525116913e-04  -1.640432204741e-04  -3.577971726811e-05 
3 1  1.356180133760e-04  -4.813811626452e-06   9.845267849773e-05 
4 1  2.023792347970e-04  -1.365110514039e-04  -2.473661798164e-04 
5 1  5.621246575016e-05   1.294192951924e-04  -1.105097579547e-04 
6 1  2.341163145528e-05  -1.663660838059e-04  -1.975683310550e-04 
7 1  6.834955650694e-06   3.750575685508e-04  -1.949387393122e-05 
8 1 -2.550631922613e-04  -6.971445843198e-05   3.955902670915e-05 
8
Step 41000
1 1  2.599747261401e-04   2.853032375947e-04  -9.874348667244e-05 
2 1 -1.320103890129e-04  -3.962838278315e-05  -3.557857594450e-05 
3 1 -8.951779422466e-05   1.217733360959e-04   1.108007064543e-04 
4 1 -2.500663078571e-04   6.572986275322e-06   4.613678403024e-05 
5 1  4.538157781612e-05   7.793485145494e-05   2.077254556340e-04 
6 1  1.131818546827e-04   2.062991105881e-07   1.005577931240e-04 
7 1  2.588379896201e-05  -1.022753923865e-04  -5.094292029110e-06 
8 1  1.752177374383e-06   1.780756436108e-04  -6.390140995961e-06 
8
Step 42000
1 1  4.604598612157e-05   1.665241155489e-04  -2.774278692577e-04 
2 1 -1.210670061380e-04  -1.127700774048e-05  -1.131903428639e-04 
3 1  2.986670613784e-04  -1.884369793704e-04   8.538126408201e-06 
4 1  2.747795484281e-05   1.205536092938e-04  -1.143599963130e-04 
5 1 -7.853025447754e-05   1.363022782260e-05  -4.127003709378e-05 
6 1  2.710531941834e-04   3.734026653434e-04  -7.737030097067e-05 
7 1 -6.248763497701e-07  -6.292511220375e-06  -1.727884396476e-04 
8 1 -2.980080409690e-04   1.764764564054e-04   2.499958139721e-04 
8
Step 43000
1 1  2.636444003335e-04   2.623506934026e-04  -2.593202576740e-05 
2 1 -3.743737120238e-04  -1.275316562282e-04   3.090944156668e-05 
3 1 -1.447528535815e-04  -1.020300253354e-05   1.105446733126e-05 
4 1 -1.783572267971e-04   2.227056585466e-04   1.010297996776e-04 
5 1 -2.744363167216e-04   1.178086637344e-04  -2.888418720920e-05 
6 1  4.239808696463e-04  -5.141763617764e-06   2.230787550971e-05 
7 1  4.132387286309e-05   1.378226702099e-04  -4.913425965243e-05 
8 1 -2.727942186767e-05  -2.443372734880e-05   1.594606044093e-04 
8
Step 44000
1 1  4.399688439882e-05   1.349571539439e-04  -1.410853962468e-04 
2 1 -7.446186293490e-05  -3.275921623875e-04  -5.578764251124e-05 
3 1 -8.741102603472e-05  -8.941437516691e-05  -2.640597821388e-04 
4 1 -4.567039791340e-04   1.769699071167e-04  -2.209436921627e-04 
5 1  4.934167920734e-06   1.999321162426e-04   5.579685451849e-06 
6 1  3.720444382778e-04   7.106198662995e-05  -8.010927973518e-05 
7 1 -1.020978867694e-06   1.960039810833e-04  -1.603431729977e-04 
8 1 -2.123936341692e-04  -2.259008365506e-04   2.364126636451e-04 
8
Step 45000
1 1 -1.759005490284e-04   2.103638546813e-05  -9.623648662809e-05 
2 1 -2.185451972681e-05   8.640997373562e-05   1.127521231853e-04 
3 1 -1.309386819562e-04  -9.102738065401e-05   6.497131530626e-05 
4 1 -2.863856792431e-04   2.056860622234e-04  -1.011103529762e-05 
5 1 -1.922283204982e-04  -8.632549286920e-05  -1.793615373594e-04 
6 1  2.398159619640e-04   2.918916427158e-04  -6.760106917068e-05 
7 1  2.373794888226e-04  -1.093491735451e-04  -2.342474857390e-05 
8 1  1.036453322654e-05  -1.760260012976e-04   2.912171113612e-04 
8
Step 46000
1 1 -1.370663228443e-04   1.330357831483e-04  -2.613302056480e-04 
2 1 -4.245707603138e-05  -1.469630610485e-04  -1.217075212909e-05 
3 1 -2.286369761689e-04  -2.284182394570e-04  -8.903904398347e-05 
4 1  5.573530440935e-05   1.618369868305e-04  -4.720849310211e-05 
5 1 -1.554200723509e-04   5.793949356373e-05  -7.614966470166e-05 
6 1  1.457250177278e-04   3.297497359778e-06  -3.659044918070e-05 
7 1  1.452684175613e-04   4.865972866917e-05  -1.252527848767e-04 
8 1  6.216572239157e-05  -1.378657675761e-04   1.528143072888e-04 
8
Step 47000
1 1 -2.957572043312e-04  -1.148364803030e-04  -1.387419660172e-04 
2 1  1.071539026394e-04  -2.234895660174e-04   1.539759908043e-04 
3 1 -2.257389860060e-04  -3.652414538306e-04   1.742179158094e-06 
4 1 -7.913872134551e-05   1.901573856222e-04  -2.451293170659e-04 
5 1 -4.007865548930e-04   2.299114440466e-04  -1.328349802468e-04 
6 1  7.752453123933e-05  -7.075796949185e-05  -1.523905367241e-04 
7 1  2.861337952312e-04   4.403739428818e-05  -2.819627612729e-04 
8 1 -9.571242469391e-06  -2.844427729975e-04   3.562359160928e-04 
8
Step 48000
1 1 -4.092006717205e-04  -9.642648156824e-05  -5.912269463949e-05 
2 1 -3.942124363155e-05   3.213219289673e-05   4.782663990851e-05 
3 1  1.821022339993e-04  -1.937152916891e-04  -1.416063165985e-05 
4 1  6.335742042257e-05   2.008846119545e-04   7.516875348949e-05 
5 1 -9.862493115938e-05   1.077436470213e-04  -1.044411068813e-04 
6 1  2.713555201191e-04  -1.505539849431e-05   1.453253575273e-05 
7 1  1.711751434973e-04  -1.441413939473e-04  -2.441711294750e-04 
8 1  5.998050143295e-05  -1.178633067023e-04   1.196086398629e-04 
8
Step 49000
1 1 -1.798077161561e-04   6.237262702992e-06  -1.272032329099e-04 
2 1 -1.114914846263e-04  -1.450176336223e-04   7.314461229857e-05 
3 1  8.164406799202e-05  -8.727137641275e-05  -3.349235811220e-05 
4 1 -3.509047217361e-05   5.263697738181e-05   1.861685218927e-04 
5 1 -1.105115941492e-04  -7.452655761409e-06  -3.333044295455e-04 
6 1 -8.392338002185e-05  -2.036999560050e-04  -1.810272895230e-05 
7 1  5.971519465418e-05  -8.410306276259e-06  -6.212745974839e-05 
8 1  1.264314371140e-04  -1.955225757562e-04  -5.691533098636e-05 
8
Step 50000
1 1 -4.895749587768e-04  -3.991416669494e-05  -1.994573272844e-04 
2 1  4.316765923668e-05   1.623804499391e-06   1.180368920724e-04 
3 1 -4.369603946876e-05  -1.702655158130e-05   1.338807656086e-04 
4 1  1.468593765979e-04   1.122675628495e-04   7.105991108182e-05 
5 1  7.748044928061e-05   2.345853517008e-04   5.871289596734e-05 
6 1  1.239938510204e-04  -2.934702062540e-04  -1.562997631957e-04 
7 1  3.658419694098e-05   5.235085655675e-05  -3.365230338476e-05 
8 1  6.458062127825e-05  -8.121755698176e-05   9.080280733724e-05 
8
Step 51000
1 1 -1.790519437171e-05  -2.949566496079e-08   1.155851738954e-05 
2 1  2.742634248332e-04   8.459052403190e-05   1.724236025196e-04 
3 1 -4.112215135620e-05  -1.754146472899e-04  -4.136913900991e-05 
4 1  1.398336039771e-04   5.142652490671e-05  -1.345931284834e-05 
5 1 -1.979254370694e-04  -2.540570710381e-04  -1.362422317873e-04 
6 1  5.010643843589e-05  -1.576946481571e-04  -1.348097001983e-04 
7 1 -1.188936640223e-04  -1.099940257146e-04  -2.865927619040e-04 
8 1  3.099079839186e-05  -2.455257138088e-04  -8.867639709673e-05 
8
Step 52000
1 1 -1.944696382325e-04  -9.092853870699e-05  -9.126362826265e-05 
2 1 -5.125825838829e-06   2.726344895508e-05   1.620214472661e-04 
3 1  5.992844358254e-06  -1.547535988891e-04  -3.120958579776e-05 
4 1  3.382375086664e-04   5.974737007378e-05   9.098442683806e-05 
5 1 -2.676542668708e-05  -9.144107932478e-05   3.094537396369e-05 
6 1  1.428936667295e-04   7.570930760124e-05   1.451120668125e-04 
7 1 -3.136599409600e-04  -7.792990051698e-05  -2.340540136831e-04 
8 1 -1.821557452393e-04  -9.881259324585e-05  -5.376418943438e-05 
8
Step 53000
1 1  1.137935061561e-04  -6.151964331739e-05  -1.155932733480e-04 
2 1 -1.082849700840e-04   2.057096388988e-04   1.067109633364e-04 
3 1  1.096235790698e-04  -2.007528919247e-04   3.048730227534e-05 
4 1  1.366176785697e-04  -8.027788441837e-05   2.163944148779e-05 
5 1 -4.762543272884e-04   1.199253355432e-04  -1.533990837189e-04 
6 1  5.645619716460e-05  -7.745520038713e-05  -4.102000257409e-05 
7 1  1.420441877966e-05   1.209775545526e-04  -3.134225733852e-04 
8 1 -8.034500602576e-05  -1.063305723139e-04  -7.915233032832e-05 
8
Step 54000
1 1 -1.008572348021e-04  -2.043786363982e-04  -6.081887318397e-05 
2 1 -8.329544979218e-07   5.224170235213e-05   2.253951628785e-04 
3 1 -7.243970005119e-05   4.275793475210e-05   7.628421931956e-05 
4 1  1.777382875760e-05  -1.808947714611e-04  -2.123822256811e-04 
5 1 -2.794270714918e-05   3.006421097114e-05  -7.055920081048e-05 