8
Step 0
1 1 0.00000000000000000e+00 0.00000000000000000e+00 0.00000000000000000e+00
2 1 0.00000000000000000e+00 0.00000000000000000e+00 0.00000000000000000e+00
3 1 0.00000000000000000e+00 0.00000000000000000e+00 0.00000000000000000e+00
4 1 0.00000000000000000e+00 0.00000000000000000e+00 0.00000000000000000e+00
5 1 0.00000000000000000e+00 0.00000000000000000e+00 0.00000000000000000e+00
6 1 0.00000000000000000e+00 0.00000000000000000e+00 0.00000000000000000e+00
7 1 0.00000000000000000e+00 0.00000000000000000e+00 0.00000000000000000e+00
8 1 0.00000000000000000e+00 0.00000000000000000e+00 0.00000000000000000e+00
8
Step 1000
1 1 -2.35328389003061240e-06 1.14922917717929126e-06 -2.05150089330624977e-07
2 1 -2.25343692192466721e-06 2.83160651477970382e-06 1.91043542421748558e-06
3 1 1.77883773186496229e-06 -1.78178428057298917e-06 4.27876613205627663e-07
4 1 1.01284466455929891e-06 -9.07456582747160659e-08 2.08473753013372247e-06
5 1 -4.55385652319072501e-08 -7.65881715671566896e-07 -8.60975974255296767e-07
6 1 -1.17856063598256421e-06 1.42450129731894520e-06 -1.56431807043316768e-06
7 1 7.35427128597717613e-07 8.17093634597284191e-07 -1.55712843703900715e-06
8 1 5.00807625886643765e-07 2.12107747056219453e-06 2.33421403769506848e-06
8
Step 2000
1 1 1.53928442793312640e-06 3.10216834567160911e-07 6.36602968213963424e-07
2 1 1.54386067176369624e-06 -1.13455074882264556e-06 -9.54679614612980696e-07
3 1 -1.56738219140025113e-06 9.53989357553018419e-07 -8.65813579967178067e-07
4 1 -1.74200065848944831e-06 3.52449795452859608e-07 -9.72575321103357672e-07
5 1 -2.62385628329567899e-07 6.49297222523403845e-07 3.82496449232559381e-07
6 1 1.00800291284994071e-06 -9.03473968548841057e-07 4.67898533751464417e-07
7 1 4.15145523086494313e-07 -6.49925750824316303e-07 1.44554212487437336e-06
8 1 -4.44592447830225559e-07 -1.00037058924917668e-06 -1.65481710070098669e-06
8
Step 3000
1 1 -2.46267488655631335e-07 -1.34324713036439419e-06 -1.00024033426754887e-06
2 1 -9.27024963571704890e-07 -1.07156061017442175e-07 3.79140660523238977e-08
3 1 8.64442732788746110e-07 -3.63737383425475485e-07 1.17600406848459642e-06
4 1 3.30432398596805356e-06 -9.92177389637918975e-07 -3.41515757353868519e-08
5 1 7.56250408117080133e-07 -4.21740056664303331e-07 -2.76173870561224840e-07
6 1 -8.20474995524868573e-07 9.57946852557220294e-07 3.31653665753441725e-07
7 1 -1.74023599237108767e-06 1.14292635728292414e-06 -1.94857065169629689e-06
8 1 4.52369197401243073e-07 3.78404329194578378e-07 1.13880165577615892e-06
8
Step 4000
1 1 -9.17543288473137158e-07 2.04960750352388696e-06 1.29553413903728849e-06
2 1 4.32800199418317483e-07 9.09421801291239701e-07 6.96360775728319932e-07
3 1 -2.47828793720538561e-07 4.34824747122332561e-08 -1.59802157627167895e-06
4 1 -3.73888761924696345e-06 1.16453751077041283e-06 7.49205018317790301e-07
5 1 -1.14270715266671021e-06 1.94481995203824783e-07 3.71035214797566722e-07
6 1 2.52772218842296132e-07 -1.31280476877128013e-06 -9.71242030646793629e-07
7 1 2.56127478245111677e-06 -1.18259402816258083e-06 1.95161771458691397e-06
8 1 -4.51594704036093874e-07 -2.57309791658003703e-08 -5.25519845757691807e-07
8
Step 5000
1 1 1.58106853165797549e-06 -1.98128234532992251e-06 -1.34606750679895026e-06
2 1 -2.16481317721377677e-07 -1.29038626678217617e-06 -1.01558366436195337e-06
3 1 -8.72521137070046953e-08 2.31936777557574372e-07 2.15838402303805901e-06
4 1 2.66671922420149102e-06 -1.06261896140372413e-06 -9.51351337660035480e-07
5 1 1.44547268622663361e-06 1.89159212152695537e-07 -3.54173123656345238e-07
6 1 6.21515989760634506e-07 1.58160010233653527e-06 9.59731132464679054e-07
7 1 -2.18847252751767760e-06 7.80438479619250019e-07 -1.64449536838953226e-06
8 1 3.72778235034730770e-07 -1.52842733739556058e-07 -3.01543295675576036e-07
8
Step 6000
1 1 -1.52307374481216983e-06 9.09210113985098960e-07 1.05645514292107133e-06
2 1 2.97994304245712114e-07 1.46961519637684934e-06 1.16230838045579011e-06
3 1 -1.76630615251545460e-07 -3.01781902423991564e-07 -2.29031677873288975e-06
4 1 -1.51093497271517070e-06 1.14443590392029231e-06 1.04157402233925565e-06
5 1 -1.65380046304968000e-06 -5.87440380353777948e-07 3.44698246808282248e-07
6 1 -1.26798343292369685e-06 -1.42265332725881531e-06 -2.54725560523511618e-07
7 1 1.26479389530156102e-06 -6.38635163615140932e-07 1.20758039054962094e-06
8 1 -1.42858258662884283e-07 1.40545034027475611e-08 1.20132484464043416e-06
8
Step 7000
1 1 8.85749703630771071e-07 5.28718842365051580e-07 -4.20608700368050905e-07
2 1 -8.86209005459552679e-07 -1.47484417572702076e-06 -1.15585856361201450e-06
3 1 8.15060994273298992e-07 2.95610458079371333e-07 1.91433700373137580e-06
4 1 5.61040978637680496e-07 -1.39009045284926247e-06 -1.13669354765155135e-06
5 1 1.83692104661849144e-06 8.62387973883009706e-07 -4.65302722245432288e-07
6 1 1.30313382648476157e-06 9.53549743603217352e-07 -4.39360771006412598e-07
7 1 -3.45504439460555450e-07 9.68089002730817289e-07 -4.98745911053431983e-07
8 1 -4.01690728390885363e-07 8.46195812157143771e-07 -1.90156950783553930e-06
8
Step 8000
1 1 1.46491898644750243e-07 -1.80301158561476585e-06 -7.26621578230393899e-07
2 1 1.56274889792522818e-06 1.19058875226732248e-06 5.07565793334041548e-07
3 1 -1.55717182185892471e-06 -5.28116214712766391e-07 -1.30684715614015207e-06
4 1 1.64715546524811342e-07 1.42803812626434771e-06 1.03988914841281592e-06
5 1 -2.39974967096384054e-06 -9.06297369168376380e-07 2.08963887626703747e-07
6 1 -9.41279483109912900e-07 -4.33293884672035032e-07 9.03667719649477364e-07
7 1 -3.71328875685135383e-07 -1.78308696510855952e-06 -4.23117491475030421e-07
8 1 1.08316244880725946e-06 -1.93573862615038105e-06 1.99305405704856646e-06
8
Step 9000
1 1 -1.18766467975051520e-06 2.23367858100913569e-06 1.20551924489085702e-06
2 1 -2.10296870589571818e-06 -9.02332393836489616e-07 3.44951175689839993e-07
3 1 2.93607369773745179e-06 1.47319404135680714e-06 8.86455911215763698e-07
4 1 -8.54924838472209495e-07 -1.15584843319801010e-06 -5.35769962068736942e-07
5 1 2.63352488343378084e-06 6.79568511480499174e-07 7.14161123934715662e-07
6 1 4.04939754912782218e-07 -1.23343568620447998e-07 -1.24416049129346793e-06
7 1 2.00052222281841963e-07 2.30957629164439594e-06 1.02077130564572458e-06
8 1 -1.53740467810002328e-06 2.38106096001002400e-06 -1.52634718786095866e-06
8
Step 10000
1 1 1.53951672530465175e-06 -7.41291772973668620e-07 -1.00309047109725974e-06
2 1 1.75235287717348336e-06 7.52400103223947084e-07 -1.25485110948958127e-06
3 1 -2.55442010950812368e-06 -2.45012447708396152e-06 -4.16753686398166048e-07
4 1 1.53072871070459904e-06 4.57506672885618815e-07 -1.72502878741820656e-07
5 1 -2.28922509096799962e-06 -4.81460160466420250e-07 -1.07695728980981558e-06
6 1 1.55261411703886297e-07 7.21265971474237120e-07 1.38785066730690943e-06
7 1 2.48110230548820761e-07 -1.78743048622471009e-06 -1.20276858371860582e-06
8 1 1.44053104554315932e-06 -2.10658453496167112e-06 8.29523762853265171e-07
8
Step 11000
1 1 -1.65464160511491235e-06 -6.30831838341967147e-07 6.14244767065908223e-07
2 1 -6.84585333804104499e-07 -6.85283381036214988e-07 1.85059572944739834e-06
3 1 1.36303083495216726e-06 1.28323963294593340e-06 2.36034658959384495e-07
4 1 -1.65914267134488452e-06 1.17051364745262101e-07 3.56019540269870950e-07
5 1 1.95871196310546690e-06 4.56209152234714710e-07 1.01095522039754212e-06
6 1 -4.44184746455070047e-07 -1.15577214368321029e-06 -1.42751874688906666e-06
7 1 -3.65702645292109276e-07 1.18282000533942301e-06 1.41845453229278020e-06
8 1 -1.19412767475076124e-06 1.56502081138766120e-06 -5.65767736988880800e-07
8
Step 12000
1 1 1.27831591638754260e-06 1.27900536167984794e-06 -3.13352226398391529e-08
2 1 -7.28175829618776054e-07 6.77505092583903982e-07 -1.89779194211604611e-06
3 1 -1.06852678871976815e-06 -3.08628611410924927e-07 -1.22437026992517091e-08
4 1 1.15128550191262900e-06 -5.12624720396136838e-07 -4.12714362223329331e-07
5 1 -1.86038514340883571e-06 -7.05533919572657555e-07 -7.74995359225630510e-07
6 1 1.78463652971971297e-07 1.28905180638715902e-06 1.43359616414427044e-06
7 1 4.08170859785395234e-07 -3.40169281085123682e-07 -1.29701446146494324e-06
8 1 8.91377931068203031e-07 -9.57351300309789050e-07 6.09140342183630850e-07
8
Step 13000
1 1 -7.56740229135051379e-07 -1.25427791063371757e-06 -3.34397788925473598e-07
2 1 2.41981366811220151e-06 -7.81816485860804912e-07 1.83174138333217250e-06
3 1 1.08047251603741462e-06 -6.05285260708323732e-07 -2.61906872703556766e-07
4 1 3.45859917931979835e-07 9.14285705705313324e-07 5.04883331448481517e-07
5 1 1.59526156306749308e-06 1.14886010123084816e-06 2.15067897227499577e-07
6 1 7.03467972938436472e-07 -1.27352795131831628e-06 -1.47667639705336394e-06
7 1 -3.77872875517479091e-07 -3.28776950384097953e-07 6.59972605387314576e-07
8 1 -5.46708716430254148e-07 6.32772048247224286e-07 -9.30523630719458863e-07
8
Step 14000
1 1 2.38382387374155600e-07 7.46963990745618150e-07 5.04686564690217481e-07
2 1 -2.97741380675943361e-06 7.77406023295910216e-07 -1.53234300575756823e-06
3 1 -1.11347432433095594e-06 1.38406449609108862e-06 3.94318674742354558e-07
4 1 -2.00602472450221033e-06 -1.11205889531254667e-06 -4.94961981194416792e-07
5 1 -8.50643686824899794e-07 -1.41297597825238190e-06 2.27227145480782065e-07
6 1 -1.73022129548047523e-06 8.57772233687496553e-07 1.47337772735877387e-06
7 1 2.67032627352800740e-07 6.59371457939390560e-07 4.55503740749292158e-07
8 1 5.75585882349836861e-07 -1.01989143288576841e-06 1.66751004666538328e-06
8
Step 15000
1 1 1.80330630833555948e-07 -1.72426365798659490e-07 -5.47257541354740328e-07
2 1 2.01640916213716499e-06 -5.06851099199140654e-07 8.56001033269314738e-07
3 1 8.53809409243032090e-07 -1.58986352580598568e-06 -4.23460926767630417e-07
4 1 2.10832537097435737e-06 8.98390264286103263e-07 3.09056950591591994e-07
5 1 -1.41470911052982524e-07 1.53821622594210079e-06 -2.43110434951560039e-07
6 1 1.42829904034018903e-06 -7.94749930085896847e-08 -3.25492046534133466e-07
7 1 -1.57745660535803369e-07 -4.81629010120745990e-07 -1.60177952118692026e-06
8 1 -1.35893193500161205e-06 1.88338736056892867e-06 -2.27371522771039404e-06
8
Step 16000
1 1 -3.85873379262503956e-07 -7.60950921417365056e-07 5.50532255504111097e-07
2 1 -1.31678028724135759e-06 3.03432259896214539e-07 -5.20868773582150578e-07
3 1 2.07916795534230766e-08 1.04745470201895716e-06 2.47884315592858268e-07
4 1 -2.26587757655848160e-06 -9.21884909541232785e-07 -2.86132044567897619e-07
5 1 6.53448555932369311e-07 -1.72999049265667858e-06 -7.56969356258755517e-08
6 1 -1.57152317184600718e-06 -2.90476839128249853e-07 -6.45944197681221328e-07
7 1 7.95707510358894891e-08 -1.55977536461292561e-07 1.61325860135917325e-06
8 1 1.41425588983613749e-06 -2.40214072526781284e-06 1.65597985911935075e-06
8
Step 17000
1 1 4.00518557749268294e-08 1.16814492070706772e-06 -7.73002535145339456e-07
2 1 8.14504213464985225e-07 -9.32124510795825928e-08 3.20368722813566595e-07
3 1 -8.08875207109671872e-07 -6.22730207532629962e-07 2.31690877208082680e-08
4 1 2.30082782937109922e-06 1.00008460138736882e-06 3.64542369214341182e-07
5 1 -8.25996078803063651e-07 1.18981691100260109e-06 5.66597300299540236e-07
6 1 1.68132223718042690e-06 3.01369844438889984e-07 1.56653585962214793e-06
7 1 1.50724978947954932e-07 4.01139349218601070e-07 -1.82291337415848152e-06
8 1 -1.18212042685906384e-06 2.50731920639794128e-06 -9.43295171560899807e-07
8
Step 18000
1 1 4.29092215946556646e-07 -6.29922971573600649e-07 2.96967119652733353e-07
2 1 -4.40696651843839153e-07 -1.87177108765869010e-07 -1.21223760618300756e-07
3 1 1.31387947915037378e-06 5.72941887006101876e-07 -4.04963217694472061e-07
4 1 -1.94713305143882246e-06 -1.00844734121550980e-06 -4.17776945230331613e-07
5 1 5.25871572761722881e-07 -1.69914780668090692e-07 -1.75535344312243920e-07
6 1 -1.70726463235455356e-06 -4.41620579495470059e-08 -2.64225084616541017e-06
7 1 -2.49539508002806814e-07 -3.58409634419360017e-07 1.83237645859048294e-06
8 1 1.00367026459890835e-06 -2.14698768004865202e-06 4.30537626672555655e-07
8
Step 19000
1 1 -5.23577467515912367e-07 6.43336600269886763e-08 6.71222561959564686e-07
2 1 3.69534278210137394e-07 5.21546639082644679e-07 -5.96463797631501911e-08
3 1 -1.51011593246525057e-06 -8.22247801927589392e-07 6.25079825487244199e-07
4 1 1.14874788491813137e-06 9.98446736721027653e-07 5.77333112637681774e-07
5 1 -4.50910226518451164e-07 2.11657186418133302e-07 -1.76333600274136947e-07
6 1 1.36486701085601004e-06 -2.53401289163842850e-07 3.47932759657101247e-06
7 1 2.33848786708727723e-07 9.61725425661936711e-08 -1.75912432811087722e-06
8 1 -8.28124927083500044e-07 1.54783738743776952e-06 -9.10559616961446113e-08
8
Step 20000
1 1 2.64347127134866613e-07 3.21160332079471157e-07 -1.27963461144673013e-06
2 1 -4.96918233995364644e-07 -6.19178113082433511e-07 5.00428389868780380e-07
3 1 1.04920763491826143e-06 1.21683081268794354e-06 -7.25556694246551192e-07
4 1 -4.62553951133699765e-07 -1.36011211341179154e-06 -5.57823749500215991e-07
5 1 3.31756559196586883e-07 -6.52664802425419569e-07 7.69627224177724644e-07
6 1 -7.35851501108579096e-07 1.88964108388636231e-08 -2.98452109691396660e-06
7 1 -6.51145405236413101e-08 2.15783092709776642e-07 1.66568362599596441e-06
8 1 6.78528339011783113e-07 -8.61561576559871089e-07 -4.81384281549715679e-08
8
Step 21000
1 1 8.47348256422017967e-08 -2.65749979171154744e-07 1.21053362605177775e-06
2 1 5.44700262683954274e-07 2.63854448453970973e-07 -8.10524364111726911e-07
3 1 -2.01451874273339083e-08 -1.58004646320573774e-06 7.27408645159245299e-07
4 1 -1.00935526213719938e-07 1.68187129073338207e-06 4.71463709576339980e-07
5 1 -4.70644567969584540e-08 1.29147863305991587e-06 -1.48335361338415870e-06
6 1 2.18691580492856889e-07 5.60589677600177383e-07 1.34419920375905412e-06
7 1 -2.34783791440205117e-07 -3.39096330672852520e-07 -1.19571806940518927e-06
8 1 -4.71180978900296035e-07 -1.17059130787157867e-07 1.23936878235735477e-07
8
Step 22000
1 1 -2.96766976086236178e-07 2.16027568618672734e-08 -6.20562166447342890e-07
2 1 -5.54870825448730652e-07 1.20890541275784262e-07 1.00185215940423153e-06
3 1 -1.15221145777003014e-06 1.63246009908122224e-06 -8.91815218683680121e-07
4 1 4.28278896589849061e-07 -1.95194378144315472e-06 -4.52147769642513284e-07
5 1 -4.08700457886386803e-07 -1.21526414481633794e-06 1.32034735953708521e-06
6 1 -1.26253101187658966e-07 -7.30837397185178428e-07 7.55548871528888954e-08
7 1 2.81105444669148508e-07 -1.44622242248343668e-07 1.14716883496749281e-07
8 1 8.01766069095626439e-08 1.28998087100330734e-06 -1.70277498478703837e-07
8
Step 23000
1 1 7.47064781208268196e-07 1.91831523261956649e-07 8.43947891514079049e-08
2 1 4.69377918107572658e-07 -4.09090668012518572e-07 -1.19668914676994228e-06
3 1 2.11678950069211340e-06 -1.12869772229063340e-06 9.79526874484497314e-07
4 1 -7.31478363047963320e-07 1.63355414862683575e-06 6.54061864810695505e-07
5 1 5.76505538870254547e-07 3.86414210233186638e-07 1.90530683866714541e-07
6 1 -2.86486303341021224e-08 8.19122271709512938e-07 -7.15384737995981754e-07
7 1 1.96879636748618786e-07 1.10199918352639529e-06 7.74048343089718204e-07
8 1 4.17344498504755418e-07 -1.47172010707742539e-06 1.91824409642247868e-08
8
Step 24000
1 1 -1.39902388581808962e-06 -6.22915509422737875e-07 4.80503497685115056e-07
2 1 -6.14875010143027246e-08 5.54149120355546956e-07 8.19758135750484784e-07
3 1 -2.24355178244711799e-06 5.47424659183628564e-08 -5.80734911685262267e-07
4 1 7.85829975794098211e-07 -5.15292756965715229e-07 -9.01779066768154982e-07
5 1 -5.27329218100530231e-07 4.34308269257815068e-07 -1.69878604985088678e-06
6 1 4.29725434798102637e-08 -1.17555006091307856e-06 1.02034376933707682e-06
7 1 -5.81461607321460782e-07 -2.23082605537528351e-06 -1.03987483074565830e-06
8 1 -9.28195638306737225e-07 1.06923007909498270e-06 6.52900218365776858e-07
8
Step 25000
1 1 2.19721872247814740e-06 1.09456800988621390e-06 -1.03505865678016457e-06
2 1 -4.77924062805871327e-07 -1.34844134577181614e-07 -8.36308187258989949e-09
3 1 1.36403700714533378e-06 1.18822403314218184e-06 1.34225452780688507e-07
4 1 -5.57586772551116530e-07 -3.84049158986557979e-07 7.84274737939481934e-07
5 1 4.31442463016404267e-07 -9.58842799912813067e-07 2.42764057652551033e-06
6 1 -5.10402955970999650e-08 1.52789129916591057e-06 -1.09579038925997742e-06
7 1 8.03420279344636514e-07 3.08031798331375845e-06 7.74974717087283008e-07
8 1 1.27410335819584494e-06 -6.18968808935200984e-07 -1.69885632345543798e-06
8
Step 26000
1 1 -3.18822297829023875e-06 -1.31990263889971278e-06 1.59514633738904312e-06
2 1 8.81720718515541462e-07 -6.34223911741382551e-07 -6.69696765463985947e-07
3 1 -1.27242222419871486e-07 -2.05744182968828118e-06 1.22917819006930974e-07
4 1 3.97101010656174441e-07 8.26872498173387592e-07 -7.78522175916969719e-07
5 1 -3.41604896722099572e-07 9.99075707957410196e-07 -2.40692640648706179e-06
6 1 3.57391694295745739e-07 -1.56121391841393046e-06 9.93635326962417186e-07
7 1 -6.84186347168417544e-07 -2.93966806196381769e-06 -1.31967497754428194e-07
8 1 -1.40855710309255898e-06 2.30199312510797424e-07 2.63549269605847173e-06
8
Step 27000
1 1 3.27434500408355506e-06 1.04783511354733273e-06 -1.51716922352416147e-06
2 1 -1.00180480658900188e-06 7.43239521649977654e-07 5.16715864289393693e-07
3 1 -9.05882570965852997e-07 2.25200569373371519e-06 -1.43172928196211990e-07
4 1 -2.44469015224648852e-07 -8.82948957591594998e-07 8.31785790244181851e-07
5 1 3.43662584233013044e-07 -6.44147442292486028e-07 2.02065768060539032e-06
6 1 -1.06132696893913582e-06 1.04842841274538956e-06 -8.64723393526882342e-07
7 1 2.25967102178306656e-07 1.97370473628757666e-06 -4.57831681285612549e-07
8 1 1.27514006708999010e-06 1.49882617235444964e-07 -2.95686660453121417e-06
8
Step 28000
1 1 -1.84248249147302793e-06 -4.19328350248525853e-07 6.17033510930905502e-07
2 1 9.37412388766773142e-07 -4.73650540723237450e-07 -1.14509022275841133e-07
3 1 1.39322422205986156e-06 -1.49983245426433591e-06 8.60036329816993759e-08
4 1 -9.06843768987453748e-08 7.38944011289420480e-07 -7.22364838445384103e-07
5 1 -4.33649155352470289e-07 -3.68427060727765150e-07 -1.19486893586419622e-06
6 1 1.49832402102449758e-06 -8.94902249768220666e-07 2.09824779860515019e-07
7 1 2.32160583455231537e-07 -1.10121109694022135e-06 7.95346661556561417e-07
8 1 -5.61144852188444163e-07 -2.26716422086386666e-07 1.89608820053645383e-06
8
Step 29000
1 1 1.01967495112432838e-06 5.57538887064184783e-08 2.96167406939094839e-08
2 1 -6.55946456230255321e-07 1.51135041852187857e-07 -1.64977845828102929e-07
3 1 -1.19052938247009348e-06 2.66695436367753529e-07 -1.64772550676431960e-07
4 1 5.35700529429946538e-07 -4.51439517515114000e-07 6.42478844681185387e-07
5 1 6.91269762751872772e-07 2.13436501824942939e-06 -2.60313506275072565e-07
6 1 -2.13693150412095987e-06 1.16184609636979697e-06 2.39144562265330041e-08
7 1 -6.56922343086041883e-07 4.03780386147622547e-07 -1.06005165173310519e-06
8 1 4.54260264677140846e-07 4.78670001926308760e-07 -9.42100877986577341e-07
8
Step 30000
1 1 -7.40871068108172089e-07 7.28536435516803146e-08 -3.24231008569451240e-07
2 1 1.86418414352155392e-07 2.84522366915610762e-07 4.12089406417214438e-07
3 1 6.08989540513012044e-07 9.90048761370424455e-07 4.21622510313706526e-07
4 1 -9.79881519728602615e-07 2.15720097334735625e-07 -8.26583758787628840e-07
5 1 -9.61308704642784115e-07 -3.63898209369024287e-06 1.57236127655675275e-06
6 1 2.27336041247804770e-06 -1.43229754540079410e-06 6.90160058748957046e-08
7 1 1.18047794558299298e-06 1.79238986044529670e-07 1.44484932919529639e-06
8 1 -6.16243026554405229e-07 -1.02885603029548825e-06 3.46970669663054408e-09
8
Step 31000
1 1 6.83950953045765610e-07 -4.04476277395675772e-08 4.82522456383107467e-07
2 1 3.98442994518490117e-07 -6.88588761699856796e-07 -4.20973072868367289e-07
3 1 4.61935627420884674e-07 -2.25729516042077779e-06 -6.49841507778935642e-07
4 1 1.28500766103982932e-06 -2.59659963980582258e-07 1.33552137476522078e-06
5 1 5.63969721791683878e-07 3.13821262847580842e-06 -1.43130770128798024e-06
6 1 -1.54599874180510872e-06 1.53282115196302175e-06 -1.60247536576605745e-07
7 1 -1.47559998087238998e-06 -4.92728364489362949e-07 -1.60918599191781620e-06
8 1 1.09115604479527016e-06 1.65588721232127863e-06 7.71996571959229800e-07
8
Step 32000
1 1 -8.44568794112637506e-07 -1.73511557990834849e-07 -4.50107611490554064e-07
2 1 -1.06087908057061370e-06 8.53572741571034755e-07 7.38866593176067419e-08
3 1 -1.63187056544167670e-06 2.69608591666484977e-06 7.80532410142498493e-07
4 1 -1.16438171958982916e-06 6.88948351837917217e-07 -2.01799088896072126e-06
5 1 1.05728671028831788e-07 -1.92249460026043141e-06 8.74913301722702964e-07
6 1 2.99794377436871810e-07 -1.45913294800236599e-06 5.65688522388082879e-08
7 1 1.04279062562087661e-06 4.91699280564499309e-07 1.34054203621949476e-06
8 1 -1.80786495033248860e-06 -2.27375833391446915e-06 -1.05729972267673175e-06
8
Step 33000
1 1 1.03351905974952520e-06 3.71951980213014997e-07 -8.21621456538269436e-09
2 1 1.55828508366765272e-06 -5.08676916378266394e-07 6.97912681331470851e-07
3 1 2.23135680552920103e-06 -1.84342401353763105e-06 -7.62999190013372708e-07
4 1 3.47571324168197576e-07 -1.22977062247276955e-06 2.09762287643117113e-06
5 1 -9.75772864097428980e-07 1.43834935415843830e-06 -5.82242696660360217e-07
6 1 9.13184516366326449e-07 1.32530062568818047e-06 1.84105390872241738e-07
7 1 -4.99331550011466202e-07 -4.24651609660460329e-07 -1.11137472764338989e-06
8 1 2.13959970569658667e-06 2.78741168199027395e-06 3.19966739347010289e-07
8
Step 34000
1 1 -8.98644743284996152e-07 -2.55996455764519518e-07 5.73861897062273205e-07
2 1 -1.39621716396108929e-06 -2.15591314617900201e-07 -1.24194049963258027e-06
3 1 -1.61126039873788201e-06 2.57750609952051772e-07 6.12317192549813690e-07
4 1 4.59523981576925221e-07 1.21581129882269470e-06 -1.09532262556710522e-06
5 1 2.07831276296000427e-06 -1.03574190270754510e-06 6.70408502092053633e-07
6 1 -2.26029441938816679e-06 -1.08824805398945068e-06 -7.34232121571563482e-07
7 1 1.40318169261992906e-07 3.41748054771322265e-07 8.67261282389467963e-07
8 1 -1.85496862323458051e-06 -2.83554764330597956e-06 1.09831002265499519e-06
8
Step 35000
1 1 9.91514605653008713e-07 -5.64869853543266734e-08 -1.12523732266860960e-06
2 1 9.73179694844879245e-07 5.59526030301773361e-07 1.04670655426339286e-06
3 1 1.07669165231031221e-06 4.50250208046402065e-07 -3.34816914330130991e-07
4 1 -7.12310969246263631e-07 -5.73304426573592653e-07 -2.83475417828394404e-07
5 1 -2.57752539397070102e-06 8.78797054587975929e-07 -1.27021149050097223e-06
6 1 2.77230795275336737e-06 7.70313120127164536e-07 9.02352835986863307e-07
7 1 -7.59792933625050865e-08 -1.80563674807773562e-07 -2.38032680151900935e-07
8 1 1.11289144079520262e-06 2.39503851462215258e-06 -2.34111533704735800e-06
8
Step 36000
1 1 -1.10839957837881834e-06 6.75271584700309860e-07 1.53468984575288588e-06
2 1 -8.43522262714306509e-07 -6.44495578692387476e-07 -9.99631278792593387e-07
3 1 -5.11956253487156441e-07 -8.35195284926092362e-07 -1.23282190922287437e-07
4 1 6.97404701016550909e-07 -7.34369912571539534e-08 1.14087356801412279e-06
5 1 1.65731015161395772e-06 -8.64920710746341826e-07 1.68874561204999029e-06
6 1 -1.53703282789899379e-06 -5.56279908875192067e-07 -3.73703444620254610e-07
7 1 6.09780949153002578e-08 6.69694128767908770e-08 -7.36511918509189507e-07
8 1 -3.28419431855759795e-07 -1.70056496238062170e-06 2.85531851142113157e-06
8
Step 37000
1 1 8.64412510995449103e-07 -1.23148842722335542e-06 -1.24938069245273138e-06
2 1 7.65986273419537985e-07 4.51130205774097792e-07 1.07586879197503140e-06
3 1 -3.23231569203200759e-07 6.54460039424864667e-07 8.47460591636241830e-07
4 1 -4.72228651529038638e-07 5.78354579152361455e-07 -1.71732338181135175e-06
5 1 -7.82677925204784835e-07 8.70163389511467309e-07 -1.55608273173247042e-06
6 1 -2.91998569992992412e-07 6.16205566315001276e-07 -2.49287054381045221e-07
7 1 3.31703326579446908e-07 2.18009092067679011e-10 1.95516091616913854e-06
8 1 -2.16169349133974623e-07 9.93193116658107214e-07 -2.58843767602830990e-06
8
Step 38000
1 1 -5.51597724401397418e-07 1.27672787923700999e-06 1.20117597043590312e-07
2 1 -9.90161775762591810e-07 -4.45799504562846441e-07 -1.07103422655898654e-06
3 1 1.28176255347330735e-06 2.35025414251013656e-07 -1.59976172839854678e-06
4 1 1.47994282426463578e-07 -9.46284560044939067e-07 2.22390783264475474e-06
5 1 2.12361922381933629e-07 -7.94992105391935234e-07 1.65376962385205900e-06
6 1 1.54337077723847545e-06 -8.87837192989392524e-07 4.35048858490985991e-07
7 1 -1.26595035076968585e-06 -1.08505841757711931e-07 -2.94091243132724903e-06
8 1 5.44181993053560034e-07 -3.61501719778838685e-07 1.81059575580036591e-06
8
Step 39000
1 1 5.32601252071130525e-07 -7.15688355162503999e-07 1.33666433966421695e-06
2 1 1.68206822601970378e-06 4.76182369834543748e-07 8.11316296596746992e-07
3 1 -1.60298980598659085e-06 -1.31843855733819140e-06 1.69084736527650263e-06
4 1 1.18595253706452903e-07 1.27212804906901292e-06 -3.18132882437246992e-06
5 1 6.88620710999397885e-07 1.46821709561714974e-07 -1.48164485870736168e-06
6 1 -1.84176523726852542e-06 9.01511779877484971e-07 -1.88449822120043110e-07
7 1 2.16000546719755445e-06 3.62632007738429758e-07 2.78871737405566214e-06
8 1 -7.94403845114194273e-07 -1.51938029383548026e-07 -1.06084923455666492e-06
8
Step 40000
1 1 -7.19206452528971374e-07 1.28673612487094211e-07 -1.60495334917734324e-06
2 1 -1.59420496185006428e-06 -4.74477240646920346e-07 -5.67690299161170619e-07
3 1 9.44355452931512506e-07 1.13754995945364456e-06 -9.74800494432964768e-07
4 1 -8.30680843991366420e-08 -8.67570279685810217e-07 3.33494873826000567e-06
5 1 -1.97904343365091044e-06 1.11010969389414416e-06 1.14220777718964220e-06
6 1 1.77066087318109045e-06 -7.33095544174943593e-07 -1.44546782493237933e-07
7 1 -2.21449029422138168e-06 -6.44354162631127934e-07 -1.48219938470017973e-06
8 1 1.37414186288350971e-06 1.05971955231414777e-06 8.14422322982123124e-07
8
Step 41000
1 1 1.03259736443652080e-06 -3.12129867287111529e-07 1.69032220713927924e-06
2 1 1.01253532063850937e-06 4.57765313197118695e-07 8.17971464706273411e-07
3 1 5.56754116698412011e-08 -5.00727419756997969e-07 7.34593963127918960e-07
4 1 1.42554097733897140e-07 2.24759905691391499e-07 -2.14713832736902257e-06
5 1 2.84552337917530819e-06 -2.56655140082843974e-06 -5.41592210629769675e-07
6 1 -1.40494738367527703e-06 2.48206445614758612e-07 5.35344045842087423e-07
7 1 1.58946910421987084e-06 9.82308498825625054e-07 1.81650382446764932e-07
8 1 -1.49083738653656135e-06 -1.46139682096032615e-06 9.50476057200316478e-08
8
Step 42000
1 1 -1.27975379024831564e-06 9.14152313144495975e-07 -1.72818740902925926e-06
2 1 -4.49040128970479996e-07 -4.00174301187325466e-07 -1.12137054270109430e-06
3 1 -1.22651420157577635e-06 -5.74941338155561646e-07 -2.96050896839553039e-07
4 1 -2.67893195141637880e-07 5.38345309882588773e-08 1.05627424447894558e-06
5 1 -2.50274984178465791e-06 2.72581688337066983e-06 2.13962221462273394e-07
6 1 5.35945979801947663e-07 6.86876945438912412e-07 -8.43029050026193376e-07
7 1 -7.20616732418402149e-07 -1.31022031568494416e-06 6.23994782118232035e-07
8 1 1.21434806499545708e-06 1.44550393426541062e-06 -9.33165905282491105e-07
8
Step 43000
1 1 1.15603567049943332e-06 -1.78504336722046207e-06 1.64404088642433993e-06
2 1 4.44236606844860397e-07 3.79241772427013154e-07 1.08850657979141092e-06
3 1 2.53945576480568677e-06 2.40450011704316259e-06 -8.36420772730745292e-07
4 1 2.02485426514330727e-07 -1.72740054124285761e-07 -5.55466741604985944e-07
5 1 1.75792301579114941e-06 -1.80486800782703975e-06 -4.04574530452997664e-07
6 1 8.40524310023923945e-07 -1.98034876194451974e-06 6.88917938858310280e-07
7 1 -3.46465360295670887e-07 1.29770464040668485e-06 -8.28845102740555328e-07
8 1 -8.97247230153453228e-07 -1.27432867503396577e-06 1.35388564198514651e-06
8
Step 44000
1 1 -7.27467926634789290e-07 2.61865692461717831e-06 -1.24583517241221504e-06
2 1 -6.56090803720902166e-07 -3.67509138662340520e-07 -9.69829374653748977e-07
3 1 -2.23450279771994522e-06 -3.05146407757789368e-06 1.79238535472603747e-06
4 1 -2.54849886558358659e-07 1.64587633998897203e-07 3.15372677482061823e-07
5 1 -9.08265751189368521e-07 6.01248339242906468e-07 1.02308696170310535e-06
6 1 -1.79808895776892492e-06 2.39426704168963080e-06 2.40176990459507655e-07
7 1 1.21119410213851756e-06 -1.26990935943792945e-06 6.96419853598152467e-07
8 1 5.07003770857679190e-07 1.00289341616180532e-06 -1.73117544319003947e-06
8
Step 45000
1 1 -1.14038496725814622e-07 -3.14751141616120419e-06 8.49798323184417023e-07
2 1 8.82805370516972942e-07 4.87616302848415253e-07 8.96574538950914959e-07
3 1 8.32315939422400366e-07 1.83427732966710810e-06 -1.89887458428251478e-06
4 1 -3.44026778288152829e-07 -1.81321288501330239e-07 -1.00269808500103620e-07
5 1 1.11273150075429007e-07 5.49421135016380552e-07 -1.75912396539314487e-06
6 1 2.09486431725079385e-06 -1.91334200376685193e-06 -1.05628199231831822e-06
7 1 -1.86895516673086430e-06 1.09651367964249563e-06 -3.99668776588996415e-07
8 1 -6.44721730099556435e-10 -6.50741846221401431e-07 1.98040336283633899e-06
8
Step 46000
1 1 8.56125414138596631e-07 2.63226540327505208e-06 -7.50954880854732058e-07
2 1 -1.53436160845695706e-06 -8.84161947004119617e-07 -7.41537038290705635e-07
3 1 5.11326698359746910e-07 -7.55882566289000131e-07 2.06365500650283463e-06
4 1 8.08808223607351383e-07 4.22375934835614753e-07 -9.37986972512011377e-08
5 1 5.67128986698886936e-07 -1.32671652001279839e-06 2.11507027268674894e-06
6 1 -2.30803666072207417e-06 1.34951347805820147e-06 1.43069452245556497e-06
7 1 2.00849464813183600e-06 -4.48211162419603017e-07 1.90726618875554692e-07
8 1 -4.35903532442594177e-07 2.60158636711426781e-07 -1.78115317113468464e-06
8
Step 47000
1 1 -8.67133826716701488e-07 -1.19651796311468375e-06 5.27072723770525383e-07
2 1 1.79628786144745529e-06 5.66599761247830920e-07 -1.75515286920348042e-07
3 1 -1.52729137356647374e-06 -3.51723842259111656e-07 -1.57723268088503241e-06