8
Step 0
1 1  0.000000000000e+00   0.000000000000e+00   0.000000000000e+00 
2 1  0.000000000000e+00   0.000000000000e+00   0.000000000000e+00 
3 1  0.000000000000e+00   0.000000000000e+00   0.000000000000e+00 
4 1  0.000000000000e+00   0.000000000000e+00   0.000000000000e+00 
5 1  0.000000000000e+00   0.000000000000e+00   0.000000000000e+00 
6 1  0.000000000000e+00   0.000000000000e+00   0.000000000000e+00 
7 1  0.000000000000e+00   0.000000000000e+00   0.000000000000e+00 
8 1  0.000000000000e+00   0.000000000000e+00   0.000000000000e+00 
8
Step 1000
1 1 -8.688323669602e-05   8.860202428425e-05   7.686153225315e-05 
2 1 -2.393299621139e-04   1.043489551001e-04   2.137684808588e-04 
3 1  2.884515227845e-05  -1.666357990990e-05   1.440303930831e-04 
4 1  5.755312510213e-05  -6.417677810656e-05   1.687548402466e-04 
5 1 -8.332615536465e-05  -3.269874798893e-04   9.506308250723e-05 
6 1 -5.979099213358e-05   2.959811171616e-04  -1.557193162329e-04 
7 1 -6.962912652646e-06  -2.173708520973e-04  -1.014533258830e-04 
8 1 -1.971472318373e-04   1.950816256998e-04   2.967913546885e-04 
8
Step 2000
1 1 -2.652803574910e-04  -1.432846717963e-05   3.115498255159e-04 
2 1 -5.454867734895e-06   2.968358660855e-04  -1.579276004617e-04 
3 1 -1.659633756254e-04   2.430300144696e-05  -3.221191710597e-05 
4 1  6.055362854749e-05   1.017510015410e-04   2.259873034565e-04 
5 1 -2.482219516327e-04   2.074704978599e-04  -1.452644846156e-04 
6 1 -4.544785351091e-05  -2.167526820992e-04  -1.434964884872e-05 
7 1  8.371014913422e-05   2.694445824466e-04   5.556801246721e-05 
8 1  1.305073564694e-04  -2.165742107609e-04  -2.995451514926e-05 
8
Step 3000
1 1 -4.142108823853e-05   2.346844099104e-05  -6.603631351771e-05 
2 1 -3.706618664899e-04   7.355749092362e-05   2.834300004315e-04 
3 1  1.493513023663e-04   1.878865459731e-04   7.573826930109e-05 
4 1 -1.016214319522e-04  -2.222505035292e-04  -2.516163456150e-04 
5 1  2.300032087526e-05  -1.049773317438e-04   2.634025800795e-04 
6 1 -4.196164997039e-05   2.022299059197e-04  -1.146676201129e-04 
7 1  5.609482281868e-05  -2.663811200010e-04   7.424621202632e-06 
8 1 -7.436141486691e-05   1.187300470554e-04   9.857025959965e-05 
8
Step 4000
1 1 -2.280864059905e-04   2.544010688126e-06   2.283360966432e-04 
2 1  1.429722054980e-04   2.009262271625e-04  -1.257603637324e-04 
3 1 -3.731274644636e-06  -2.533995813146e-04  -1.631118013263e-04 
4 1  1.721144010067e-04   1.444213895369e-04   3.445395606607e-04 
5 1 -2.232506396571e-04   3.233655669506e-05  -2.747994469042e-04 
6 1  1.037045436011e-05  -1.752397810594e-04   5.351474739184e-05 
7 1 -2.282486156063e-05   1.306527088987e-04   2.625061765862e-06 
8 1  1.871512796126e-05  -2.048634806044e-05  -8.261003846190e-05 
8
Step 5000
1 1  1.361570005639e-04  -1.711576157691e-04  -1.538773065425e-04 
2 1 -1.540124608793e-04  -6.462392795568e-06   4.514589209522e-05 
3 1  9.250063916836e-05   1.807808691965e-04   1.368996539111e-04 
4 1 -1.818266645710e-04  -2.450146955706e-04  -2.017914579341e-04 
5 1 -1.121506797291e-05  -8.581132986408e-05   2.403403271621e-04 
6 1 -3.714161592084e-05   5.009989904560e-05  -1.042994501573e-04 
7 1  2.913625708962e-04  -5.779217989898e-05   1.386697995927e-04 
8 1 -7.803230656756e-05   1.012733419563e-04  -2.805115036073e-04 
8
Step 6000
1 1 -1.258217654311e-04   6.059066038251e-05   9.427329166507e-05 
2 1  6.304880895309e-05   3.995737616159e-05   6.725902103617e-05 
3 1 -4.061551276804e-05  -3.527853098717e-04  -2.515814794012e-04 
4 1  1.450458126159e-04   7.924763156328e-05   1.864060101657e-04 
5 1  8.917159259302e-05  -6.896411325684e-05  -2.830145258384e-04 
6 1  1.151320227382e-04   2.343892659335e-04   1.466740956123e-05 
7 1 -1.417195492532e-04   1.394747327808e-05  -2.392869835817e-04 
8 1 -4.034830331380e-05  -8.522741762481e-05   3.236861120011e-04 
8
Step 7000
1 1  1.567236149249e-04  -3.673758707918e-04  -1.228585628198e-04 
2 1 -2.063172565309e-05   3.540736705765e-05  -1.471239118357e-04 
3 1  1.146496584358e-04   3.683541951862e-04   1.651764983138e-04 
4 1 -8.479381336344e-05  -1.451397913577e-04  -7.559651533125e-05 
5 1 -1.881206064761e-04   1.277914007480e-04   2.288553872998e-04 
6 1  1.083740823622e-04  -3.496944144787e-04  -3.149637711050e-05 
7 1  5.190451807285e-05   7.105384506702e-05   1.829538137726e-04 
8 1  7.122608865886e-05  -1.713165325901e-04  -2.783030128869e-04 
8
Step 8000
1 1 -8.833770106178e-05   8.317889553605e-07   3.310335647421e-05 
2 1 -2.945439101071e-07  -5.692559561496e-05   2.271600765483e-04 
3 1 -1.118183118717e-05  -3.421207867897e-04  -2.331565914845e-04 
4 1  2.186035904408e-04   1.906494186183e-05   1.007113947762e-05 
5 1  1.906288299353e-04  -8.690380285623e-05  -1.732866546892e-04 
6 1 -5.986566420429e-05   4.400742635913e-04   4.754131045687e-05 
7 1 -1.170713282169e-04  -2.824657243971e-04  -1.797410800379e-04 
8 1 -1.024379295110e-04   6.702788899874e-05   3.496658944575e-04 
8
Step 9000
1 1 -7.832989206796e-05  -8.497718150569e-05   6.182582100159e-05 
2 1  1.522204952244e-04   1.434783893696e-04  -3.434591672275e-04 
3 1  1.306973945279e-04   2.213500863721e-04   1.720340061071e-04 
4 1 -4.276173519196e-05  -1.091281104170e-04   1.244718084320e-04 
5 1 -2.108262150574e-04   1.275367615234e-04  -2.328790829133e-06 
6 1 -1.669024939133e-05  -3.416569118490e-04  -3.812724395837e-05 
7 1  6.976923771129e-05   2.017658124507e-04   1.906365386717e-04 
8 1  1.342078070810e-05  -3.466445282738e-05  -2.680928990626e-04 
8
Step 10000
1 1  1.681211107313e-05   8.592959086045e-05  -1.437376605681e-04 
2 1 -1.638818424050e-04  -1.120629894541e-04   3.855574824645e-04 
3 1  1.843108109478e-06  -7.421564810676e-05  -2.901069349851e-05 
4 1 -3.289180581248e-05   6.042912822465e-07  -2.193974396707e-04 
5 1  1.026439538808e-04  -7.009234428694e-05  -4.690406732918e-05 
6 1 -7.575502000177e-05   2.121995791250e-04   3.474410662776e-05 
7 1  8.441840467692e-05  -1.849353287283e-04  -6.388991769064e-05 
8 1 -2.157885318148e-05   7.001767790191e-05   1.550972511001e-04 
8
Step 11000
1 1 -1.638474348285e-04  -4.423744200861e-05   1.099720196095e-04 
2 1  1.764903886799e-04   1.096311125660e-04  -4.577203175055e-04 
3 1  4.798755939286e-05   3.575952353566e-06  -4.409218845107e-05 
4 1 -3.969715896520e-05   1.168386695024e-04   3.669872493948e-04 
5 1  1.188091519503e-05  -4.642823185170e-05  -7.152427016354e-05 
6 1  1.904091657284e-04  -1.019009480022e-04  -2.882911399209e-05 
7 1 -1.839588365946e-04   4.852966688642e-05  -1.275310874318e-05 
8 1  1.410568921266e-05  -1.386521567699e-04  -5.589293652762e-05 
8
Step 12000
1 1  2.158063730910e-04  -3.230866190096e-05  -2.735753466813e-04 
2 1 -8.813518323722e-05  -3.469116662992e-05   2.621659235414e-04 
3 1  3.484268567707e-05   1.866529690106e-04   8.933582313479e-05 
4 1 -2.154841624734e-05  -9.038272650127e-05  -4.227568897864e-04 
5 1  2.731544264216e-04   5.070537783884e-05   1.733518403201e-04 
6 1  3.527326953465e-05   2.036321733706e-05   8.549169586925e-05 
7 1 -2.551609065628e-04  -1.936999592416e-04  -4.402302887344e-05 
8 1  7.695755545313e-05   2.145511095646e-05   3.037729447663e-05 
8
Step 13000
1 1 -2.129770292252e-04   1.437710134488e-04   1.855950024696e-04 
2 1  7.835920438993e-05   9.905595718632e-05  -1.605296579194e-04 
3 1 -6.272589861950e-07  -3.351966526457e-04  -2.541185017465e-04 
4 1  1.176624564676e-04   7.079971301804e-05   4.094586733503e-04 
5 1 -1.148021257016e-04  -1.322004607474e-04  -3.669435481519e-04 
6 1 -7.038257736779e-05   1.572312075471e-04  -6.131641876493e-05 
7 1  1.814210250128e-04   2.461136793080e-05   1.877715920764e-04 
8 1 -5.835735869633e-05   5.636263999446e-05  -1.185012165876e-04 
8
Step 14000
1 1  9.532268917319e-05  -3.557902166934e-05  -1.192780775640e-04 
2 1 -6.107756301249e-06  -3.608548131737e-05  -5.027479007661e-05 
3 1  3.081718465913e-05   2.273886446509e-04   3.338816779210e-04 
4 1 -1.188674680466e-04   2.729546686505e-05  -3.073551763874e-04 
5 1 -2.902050854548e-06   5.028471249784e-06   2.546172759588e-04 
6 1  3.189343151821e-05  -1.900260581352e-04   6.196112307113e-05 
7 1  6.267626434292e-05  -5.145755701581e-06  -2.124163960415e-05 
8 1  4.154415107933e-05  -2.875554534584e-05  -1.710108446253e-04 
8
Step 15000
1 1 -1.725312491962e-04   2.909715584880e-04   1.282544053169e-04 
2 1  1.881675158840e-05  -3.640607975951e-05   1.374278580827e-04 
3 1  1.854148627548e-06  -2.339432961470e-04  -3.375667592765e-04 
4 1  1.398145803102e-04  -1.093865390384e-05   2.921585859778e-04 
5 1 -6.857888470721e-05  -4.816429756118e-05  -2.304455390925e-04 
6 1  5.208828961832e-05   1.927810970203e-04   5.922902998087e-06 
7 1  1.951375775708e-04   2.269137473391e-06  -4.347209016058e-05 
8 1 -2.083375613125e-04   8.826418979603e-06   2.698887897717e-04 
8
Step 16000
1 1  1.128739607961e-04  -2.212924674406e-04  -1.015804107678e-04 
2 1  1.157853143772e-04  -2.447349336395e-06  -3.299438086066e-04 
3 1  3.321216760681e-05   1.746338472416e-04   3.563625524892e-04 
4 1 -1.110208113195e-04   1.333424463995e-04  -9.705981388712e-05 
5 1 -1.721283346985e-05   7.539304435923e-05   1.831226228264e-04 
6 1  9.188355526170e-05  -1.533083443264e-04   3.183753662753e-05 
7 1 -2.103451411981e-04   7.107216970721e-05   7.078648559313e-05 
8 1  2.222466291729e-04  -8.891920509191e-05  -1.625974867774e-04 
8
Step 17000
1 1  1.549296118885e-05   1.791465793725e-04   2.185225779100e-06 
2 1 -8.802919734375e-05   5.102538322775e-05   3.486281461159e-04 
3 1 -5.422058743038e-05  -1.138537639545e-04  -2.469758074440e-04 
4 1  1.588979020589e-05  -1.545846871175e-04   2.001536902376e-05 
5 1  4.922183362567e-05  -3.581182068260e-05  -1.003336871827e-04 
6 1 -2.733260887520e-05   1.347415082762e-04   4.411239901920e-05 
7 1  5.186676433810e-05  -8.884045106709e-06  -1.409598408536e-04 
8 1  4.923166427283e-05   2.810477629892e-04   4.147236746507e-04 
8
Step 18000
1 1 -1.041729556211e-04  -7.505521141383e-05   9.293952185473e-05 
2 1  2.127685591719e-04  -2.838319987487e-05  -4.057268512813e-04 
3 1  2.500700689510e-05   1.036322026903e-04   1.480887843621e-04 
4 1 -1.620625505245e-04   1.219538809641e-04   1.372931862040e-04 
5 1  1.394904497944e-04  -1.065264357632e-05   9.660047952391e-05 
6 1 -2.079340829443e-04  -1.339957925309e-04   8.820502781733e-05 
7 1 -2.427244370628e-05   5.757659681483e-05  -1.423953862926e-05 
8 1  7.820139036153e-05  -1.562599652643e-04  -8.662127088325e-05 
8
Step 19000
1 1  2.379748203037e-04   9.117288338704e-05  -1.690743897888e-04 
2 1 -1.433223510003e-04   1.956622818661e-05   2.622592493198e-04 
3 1 -5.389322836943e-05  -1.660345448497e-04  -3.555953122264e-05 
4 1  9.250960213451e-05  -1.871876838714e-04  -2.167877136204e-04 
5 1  2.646078411150e-05   1.185410086722e-04   5.895690367306e-05 
6 1  1.844351196260e-04   3.074073361484e-05   9.107552492176e-06 
7 1 -2.785087983697e-05  -1.916279729328e-04   9.408034633911e-05 
8 1 -2.668293668154e-04   2.460275725079e-04   2.440107595814e-04 
8
Step 20000
1 1 -2.181086671771e-04  -3.333200864076e-05   1.837409217987e-04 
2 1  2.141563840082e-04  -6.168283026521e-05  -2.411727187966e-04 
3 1 -2.017490715818e-05   4.942459784749e-05  -1.191439777421e-04 
4 1  3.330802715322e-06   2.006596146449e-04   2.990015245537e-04 
5 1  1.288977737300e-04  -1.214825126040e-04  -1.947308978619e-04 
6 1 -1.206363753855e-04  -9.182159077438e-05  -7.914505214677e-05 
7 1 -1.811524370851e-04   2.004383358244e-04   1.335731725754e-04 
8 1 -6.664878579985e-05  -8.887864246671e-05   2.089867330314e-05 
8
Step 21000
1 1  2.463874326312e-04  -5.962147767444e-05  -2.053709137486e-04 
2 1 -1.812645581613e-04  -1.828504109397e-05   1.950216920861e-04 
3 1 -2.614934201612e-05   2.871239834481e-05   2.831573585745e-04 
4 1 -3.832355642679e-05  -9.691560354781e-05  -2.406661269161e-04 
5 1 -2.068964093216e-04   4.821802232378e-05   1.349841561952e-04 
6 1  6.063392703969e-05  -6.384739240708e-05   1.328133048201e-04 
7 1  1.507401944424e-04  -1.824615457903e-04  -2.234860403512e-04 
8 1  1.768166945023e-05   1.650874160466e-04   5.398906261419e-05 
8
Step 22000
1 1 -1.886094956935e-04   1.169088920544e-04   1.983169041096e-04 
2 1  1.050949253587e-04   5.281874175534e-05  -1.037024882714e-04 
3 1 -7.516285893695e-06  -1.919617694160e-04  -2.879197714789e-04 
4 1  6.926510434959e-05  -1.022860439017e-04   2.627101687977e-04 
5 1  7.020446999335e-06  -1.196536856464e-04  -1.475378297829e-04 
6 1 -1.990172736703e-04   2.473800430658e-04  -9.687335559123e-05 
7 1  3.029481148583e-05   1.033828500769e-04   3.964868968744e-05 
8 1 -3.561228472867e-05  -9.190220512640e-05   4.065884158486e-05 
8
Step 23000
1 1  2.999815893785e-04  -1.773008477259e-04  -2.415748266625e-04 
2 1 -3.028491644857e-05  -6.074788350964e-06  -4.907361184893e-05 
3 1 -4.624410901970e-06   1.888591106911e-04   3.105171909826e-04 
4 1 -6.706563817821e-05   1.530857618232e-04  -3.378056473205e-04 
5 1 -1.235772226239e-04   8.660195438968e-05   1.820505852448e-04 
6 1  1.746439509389e-04  -2.168025050710e-04   1.276765919275e-04 
7 1  4.953477294930e-06  -1.290352331268e-04  -1.288368607029e-04 
8 1 -3.287706776121e-04  -3.682391996019e-05  -7.876028738938e-05 
8
Step 24000
1 1 -1.275960036905e-04   1.372750154389e-04   1.432917497237e-04 
2 1  5.743211524513e-05   1.624238234262e-05   7.655440791622e-05 
3 1 -8.569330279046e-05  -2.562563488247e-04  -3.912718232826e-04 
4 1  4.548146244970e-05  -1.375556413765e-04   2.015307431082e-04 
5 1  1.354183761762e-04   1.877571806588e-05  -2.344702061468e-04 
6 1  7.406227935057e-05   1.317926530431e-04  -2.051237810736e-04 
7 1 -1.050045230652e-04   1.128097777739e-04   4.702739924168e-05 
8 1  1.341053920637e-04   5.743116424976e-05   1.348077757375e-04 
8
Step 25000
1 1  1.202412429793e-04  -1.683587767391e-04  -1.209218997063e-04 
2 1  5.571057771707e-05  -1.204704000508e-04  -1.599840185334e-04 
3 1 -1.232230773250e-05   1.874808052523e-04   2.435287783441e-04 
4 1 -3.560765677790e-05   2.975745239970e-04  -1.339140904851e-04 
5 1 -1.951975674609e-05   2.734361026090e-05   2.211672902255e-04 
6 1 -2.226674680154e-04  -1.576044451786e-04   5.299550352689e-05 
7 1 -9.462228943688e-06   6.337688265778e-05   7.827333630490e-05 
8 1  2.114220460092e-06  -1.037503997906e-04  -3.560610578986e-04 
8
Step 26000
1 1 -5.043249309466e-05   1.224605957433e-04   8.720846416623e-05 
2 1  2.612129261506e-05   1.203185401826e-04   1.468100220721e-04 
3 1 -3.276465287425e-05  -1.787512428954e-04  -1.749576842737e-04 
4 1 -1.356421129857e-05  -1.603927374305e-04  -5.268351743316e-05 
5 1  2.297641982099e-04  -6.090522161992e-05  -9.418552352098e-05 
6 1 -1.098328211458e-04   1.182929724941e-04  -6.214138644449e-05 
7 1  1.411244236912e-04   2.617207328464e-04  -2.566207806983e-05 
8 1  1.069942182678e-04   4.215303292782e-05   3.026038436412e-04 
8
Step 27000
1 1 -5.807595954285e-05  -6.197346450062e-05   7.113501892433e-05 
2 1  1.091313963681e-04  -1.934311069777e-04  -2.388591126914e-04 
3 1  6.948910205312e-05   1.923253922441e-04   2.347692858151e-05 
4 1 -4.600209382675e-05   2.208573785600e-04   1.190952460471e-04 
5 1 -8.128117642494e-05  -7.358897707414e-06   3.093920687473e-05 
6 1  1.852398558735e-04  -2.485302879143e-05   5.651980114467e-05 
7 1  1.115956925631e-04  -1.379958585620e-04  -2.770923889772e-05 
8 1 -8.908944925015e-05   2.374508951511e-05  -1.213221500096e-04 
8
Step 28000
1 1  1.739964405674e-04   5.299463864932e-05  -2.041114395186e-04 
2 1 -1.581960316978e-04   6.793466040950e-05   3.507592999551e-04 
3 1 -4.986145582762e-05  -9.894264624148e-05   2.143337740199e-05 
4 1  3.618428159926e-05  -1.679304645005e-04  -2.597545089882e-04 
5 1 -1.853133497566e-04   1.977185569456e-04  -5.458133773178e-05 
6 1  8.836952673636e-05   2.076557705626e-04  -8.756830962429e-05 
7 1 -1.441621227434e-04   9.750584904603e-05  -5.046479546565e-05 
8 1  1.000928567699e-04   1.316828658154e-04   3.054518152409e-04 
8
Step 29000
1 1 -2.509021114417e-04   2.949401721635e-05   3.051527363466e-04 
2 1  2.097537252690e-04  -5.582441920781e-05  -3.240177628058e-04 
3 1  5.171654880105e-05   1.039603093377e-04  -1.979971384509e-04 
4 1 -8.318358802976e-05   4.833884584775e-05   2.559658795771e-04 
5 1  6.799380642405e-05  -1.168172570252e-04  -2.989888757561e-05 
6 1 -1.131771661878e-04  -3.037251046214e-05  -1.316001297164e-05 
7 1  1.124677216028e-04  -1.030716253244e-04   9.124173775129e-05 
8 1  1.386547445744e-04  -5.486277296666e-05  -1.653895232219e-04 
8
Step 30000
1 1  2.438033379601e-04  -3.084042945191e-05  -2.655956280365e-04 
2 1 -1.377974069672e-04  -3.114579760588e-07   3.199499090595e-04 
3 1 -2.387013637360e-05  -1.373552861440e-04   2.265966316041e-04 
4 1 -3.619612171155e-05   8.064582290963e-05  -2.099172839773e-04 
5 1 -1.394747474722e-04  -5.612747521680e-06   3.013266715980e-04 
6 1 -1.381929405098e-04   1.437403253333e-04  -1.813806648971e-05 
7 1  3.611770924616e-08   1.077890181641e-04  -4.124243221264e-05 
8 1  1.416616433155e-04   2.406783949132e-05   1.185386576535e-05 
8
Step 31000
1 1 -1.446751239906e-04   4.373886588918e-05   1.917540845453e-04 
2 1  9.204221216442e-05   1.169944785133e-04  -1.263333814988e-04 
3 1 -2.327254790904e-05   3.060086811394e-06  -2.964342841666e-04 
4 1  3.497542654731e-06  -1.556625482004e-04   2.169979203274e-04 
5 1  2.017730078483e-06   9.476065479351e-06  -2.384497320304e-04 
6 1  2.254071813104e-04   1.530653916259e-04   3.682715943363e-05 
7 1 -5.651516077651e-05  -3.398059960397e-04  -5.885749301294e-05 
8 1 -5.335357260415e-05  -3.657033868946e-05  -8.220163166220e-06 
8
Step 32000
1 1  2.216723822346e-04  -9.572299643355e-05  -2.678569046572e-04 
2 1 -3.837308247567e-05  -2.282252638116e-04   1.387442617171e-04 
3 1 -1.408750325774e-05   5.905777492736e-05   2.753303139960e-04 
4 1 -5.167153821819e-06   2.585929220029e-04  -7.050952433783e-05 
5 1 -1.614680306854e-04  -1.399480098047e-05   2.183709227808e-04 
6 1 -1.864346208143e-05   7.697429225817e-05  -1.278623558214e-05 
7 1  3.403190643945e-05  -1.545451245618e-04  -2.505503290546e-05 
8 1 -1.317082627490e-04   2.352328683617e-05  -8.293625573040e-05 
8
Step 33000
1 1 -1.794144368286e-04   3.098633888003e-05   2.194968152223e-04 
2 1 -5.765783247999e-05   2.669680208544e-04   1.001143931029e-04 
3 1 -1.764130117813e-05  -1.686220043385e-04  -2.691688612296e-04 
4 1  6.356615417434e-05  -3.405164489500e-04   8.665253903803e-05 
5 1  6.821464086159e-05   1.295115251761e-04  -1.522877830468e-04 
6 1 -2.610637052836e-06   4.839569334724e-05   4.754921504096e-05 
7 1 -9.653575028690e-06   1.261342028816e-04   2.367145349838e-05 
8 1  1.373924548215e-04  -6.741912446819e-05   1.949765014322e-05 
8
Step 34000
1 1  6.646622167146e-05  -4.797489616559e-05  -9.591323263141e-05 
2 1  3.799807223470e-05  -3.067411927268e-04  -3.263497784085e-05 
3 1  1.215591495374e-04   1.307476909044e-04   2.144222273477e-04 
4 1 -1.195484602579e-05   3.576893644322e-04   2.406730427450e-05 
5 1 -1.132557222577e-04  -3.386351330503e-04   1.734623115630e-04 
6 1 -3.415249324715e-04  -1.084693848686e-04   5.709395258947e-05 
7 1  3.430004480635e-04  -3.324538662140e-05   3.371752304590e-05 
8 1 -5.202645505803e-05  -1.561063168166e-04  -2.428580566301e-04 
8
Step 35000
1 1 -1.252575668094e-05   3.915634212041e-05   2.985287680100e-05 
2 1  2.488915471780e-05   2.578248623410e-04   1.106564144394e-04 
3 1 -1.660255857059e-04  -2.180545226654e-04  -1.259871959317e-04 
4 1  3.268128263324e-05  -4.592075615226e-04  -8.696265474887e-05 
5 1  3.112246773574e-06   3.579515885489e-04   2.158727131648e-06 
6 1  4.029643076202e-05   2.537937444454e-04  -9.640789625305e-05 
7 1  5.067159298231e-05   6.262055516417e-05   2.020905192275e-05 
8 1 -4.507212331216e-05   5.752867399581e-05   2.182027525202e-04 
8
Step 36000
1 1 -5.236488251588e-05  -4.372720446255e-05   2.241855919275e-05 
2 1  3.406681640429e-05  -2.368542121689e-04  -1.415265941195e-04 
3 1  2.226722538893e-04   1.452885034691e-04   5.679311086729e-05 
4 1 -1.877820340479e-05   3.959775726086e-04   8.760104924861e-05 
5 1  2.154787262710e-05  -2.038106110505e-04  -4.009167229839e-05 
6 1  2.008431883690e-04  -2.122596481501e-04   1.071069083206e-04 
7 1  2.733291567139e-05  -3.287011524423e-04   3.423006892376e-05 
8 1 -1.064388318638e-04  -1.318504077252e-05  -1.624059500508e-04 
8
Step 37000
1 1  1.543706209156e-04   8.887827383444e-06  -1.864497987056e-04 
2 1 -2.460692355585e-05   1.038617428636e-04   2.225022306821e-04 
3 1 -2.162041209306e-04  -1.646460287262e-04   3.874068578700e-05 
4 1  8.281463122985e-05  -2.947631753540e-04  -1.094459614941e-04 
5 1 -8.302771323197e-05   5.406784582029e-05   1.571441180607e-04 
6 1  1.053781896202e-04   1.715452437495e-04  -2.495086625320e-04 
7 1  2.161810362378e-04   2.874992492148e-04   1.479629680559e-04 
8 1  1.287354703498e-04   1.313860166455e-05   1.947599652317e-04 
8
Step 38000
1 1 -1.982446220095e-04  -3.663928930677e-05   2.513717324299e-04 
2 1  1.021723201981e-04   9.406908345379e-06  -2.548847326182e-04 
3 1  2.116548972701e-04   7.902336049499e-05  -9.019137369185e-05 
4 1 -7.880422107571e-05   1.367472368384e-04   1.312474756376e-04 
5 1  1.097637391234e-04  -1.131958467236e-05  -1.606616213832e-04 
6 1  6.917581808822e-05  -1.236368159837e-04   2.220663144277e-04 
7 1 -1.263188481102e-04  -1.501163362016e-04  -1.331965427407e-04 
8 1 -8.474912669478e-05  -1.991170928997e-05  -1.015187328871e-04 
8
Step 39000
1 1  2.314219335213e-04   2.495444138954e-05  -4.075607877339e-04 
2 1 -6.439449921070e-05  -8.353888021734e-05   2.937304604954e-04 
3 1 -1.476277263381e-04  -9.968717773811e-05   1.359337753688e-04 
4 1 -5.879462404833e-05  -4.430036670354e-05  -1.422824449387e-04 
5 1 -5.736878122396e-05  -1.344319788253e-04   3.076944940358e-04 
6 1  4.652202128931e-05   9.186273845746e-05  -3.362634343066e-04 
7 1  2.594043288018e-05   2.015485131143e-04   1.408832041816e-04 
8 1  1.861481662934e-04   9.276208922156e-05   2.560595541217e-04 
8
Step 40000
1 1 -1.201585306283e-04  -3.225990854053e-05   2.207802246895e-04 
2 1  4.788764791145e-05   1.505955922849e-04  -1.849538005235e-04 
3 1  1.203646677570e-04  -2.756773725005e-05  -2.673964950484e-04 
4 1 -8.759484325317e-05  -1.267784835298e-04   1.003338660577e-04 
5 1  1.505124408792e-04   1.263177057945e-04  -2.239892450556e-04 
6 1 -3.862926575622e-05   7.024460872257e-05   1.289293574564e-04 
7 1  2.920976548881e-05  -5.662378465206e-05   9.822935748208e-05 
8 1 -2.999338844793e-05   1.960869637959e-05  -3.191408895137e-05 
8
Step 41000
1 1  3.310333495665e-05   5.554494433565e-05  -2.934252053765e-04 
2 1 -7.216629129222e-05  -2.407631521210e-04   1.388706272789e-04 
3 1 -5.167734545094e-05   1.007785686760e-04   1.556273962856e-04 
4 1 -5.570668041318e-06   2.144249388066e-04  -5.369915518000e-05 
5 1 -8.562798229939e-06  -1.623757578128e-04   1.675307226342e-04 
6 1  4.931988632873e-05  -8.900075928949e-05  -1.748217158032e-04 
7 1  4.360816020221e-05   6.815652649413e-05  -2.371054713064e-05 
8 1 -3.827660611539e-05   5.237959723933e-05   2.494532186298e-05 
8
Step 42000
1 1 -8.592187155091e-05   6.071598514789e-06   2.583545235383e-04 
2 1 -6.539421486766e-05   3.137229677621e-04  -1.064035473126e-04 
3 1 -8.750090972707e-05  -1.954239772717e-04  -2.252185009820e-04 
4 1 -1.262828335099e-05  -4.340784406886e-04  -4.737120981369e-05 
5 1  1.325397457236e-04   2.618580540948e-04  -2.951698520019e-04 
6 1  6.910326812838e-05   1.202709496223e-04   8.222494535776e-05 
7 1 -1.200386630293e-04   4.092318888406e-05   1.028651296195e-05 
8 1  5.560752376073e-05   1.996815723466e-04   1.161062192995e-05 
8
Step 43000
1 1 -2.113412158778e-07   7.035289081772e-05  -1.986551491692e-04 
2 1  1.143970153082e-04  -3.237432460703e-04  -2.826964045812e-05 
3 1  1.803879830068e-05   2.592489792947e-05   1.730079210064e-04 
4 1 -2.008505552209e-05   3.144291142528e-04   8.735870632379e-05 
5 1 -5.761112940124e-05  -7.478420742915e-05   1.224209060693e-04 
6 1  5.184142843704e-05  -1.424578630693e-04   8.222639904912e-05 
7 1 -2.572999107707e-04   1.706279182807e-05  -1.554459571202e-04 
8 1  3.988908182528e-05  -7.374019490859e-05  -5.089808034358e-05 
8
Step 44000
1 1 -2.462559946624e-05  -1.714956779475e-05   5.147659104927e-05 
2 1 -1.113393378327e-04   2.622523068449e-04   4.693731318666e-05 
3 1 -1.580344380487e-04  -2.223581013491e-04  -1.443563086915e-04 
4 1 -1.260697716003e-04  -2.399803336472e-04  -1.505683593894e-04 
5 1  6.657345319461e-05   3.156362406759e-04  -8.384488348403e-05 
6 1 -3.407883523177e-06   1.809556525133e-04  -2.249945025877e-04 
7 1  1.824080381743e-04   1.236952996108e-04   1.846330063918e-04 
8 1  2.184162571434e-05  -3.197752772917e-05   2.320928884104e-04 
8
Step 45000
1 1 -1.360380038466e-04   2.673902706091e-05   5.713223203273e-05 
2 1  1.429164717689e-04  -1.346376785687e-04  -1.342113444581e-04 
3 1  2.003787491805e-05   1.947951140482e-04   1.348090865788e-04 
4 1  6.044109968258e-05   3.104445811367e-04   1.630005580233e-04 
5 1 -6.845034265681e-05   3.898953882518e-05   2.219500040965e-05 
6 1  6.517872454684e-05  -1.584140696518e-04   1.038247281404e-04 
7 1 -2.942063105827e-04  -1.703956218200e-04  -8.163606026212e-05 
8 1  1.506920136139e-05   4.830906003373e-08  -2.638276075654e-04 
8
Step 46000
1 1  1.701755863870e-04   2.856793226198e-05  -1.791100159834e-04 
2 1 -1.782514853214e-04   1.147633290998e-04   2.011043497904e-04 
3 1 -1.311887084650e-04  -1.777910393208e-04  -1.781738358102e-05 
4 1 -9.894496927528e-05  -1.388694373168e-04  -1.277772959549e-04 
5 1  1.691625659831e-04  -6.357409841770e-05  -6.896227050139e-05 
6 1  2.494744073073e-05   5.750402378698e-05  -1.958927829225e-04 
7 1  2.373000050975e-06   5.442540357310e-05   2.985287806976e-05 
8 1  5.011746171626e-05   3.338723518676e-05   1.775790639263e-04 
8
Step 47000
1 1 -2.227679880593e-04  -1.225455713326e-04   1.567253776962e-04 
2 1  1.624925237621e-04  -1.055267309501e-05  -1.925182842993e-04 
3 1  1.049891519091e-04   7.735691045048e-05   5.545207098671e-05 
4 1  2.216925091594e-04   1.402867081519e-05   8.567124607254e-05 
5 1 -3.878172493843e-05  -9.990600847994e-05  -6.046801435755e-05 
6 1 -1.231223942520e-04  -5.264421122564e-05   1.007810009585e-04 
7 1 -1.147681918462e-04  -2.614494598028e-05   1.418408664585e-04 
8 1 -4.840752004207e-05   4.051541328570e-06  -2.639668337950e-04 
8
Step 48000
1 1  1.918019542784e-04   1.114798880598e-04  -2.114313977569e-04 
2 1 -1.567207579428e-04  -4.002131638898e-05   2.038747858449e-04 
3 1 -9.907276448417e-05  -1.839937218326e-04   1.606396490824e-04 
4 1 -1.533220769417e-04   3.081132626360e-05  -7.362386405598e-05 
5 1  2.907355874681e-04  -3.622463744603e-05   5.579001696473e-05 
6 1 -4.583561960716e-05   1.070533221065e-04  -2.576291717411e-05 
7 1  6.363265465871e-05  -4.401886549384e-05  -1.042651887589e-04 
8 1  1.397170037469e-04  -2.208422440227e-05   1.496627831428e-04 
8
Step 49000
1 1 -2.273418689653e-04  -1.774036871658e-04   2.648685011817e-04 
2 1  1.226768193560e-04   1.799162333323e-04  -1.014125100165e-04 
3 1  1.172652232240e-04   3.156085734182e-05  -4.739644013637e-05 
4 1  1.305603034481e-04  -4.603193964064e-06   1.352392091265e-05 
5 1 -2.324803366356e-04  -6.171504239223e-05  -9.744056202839e-05 
6 1 -1.013055135153e-04  -3.815961473576e-05   5.108530402422e-05 
7 1  4.341623578208e-05   7.904899215257e-06   6.917926987527e-05 
8 1  3.199936769133e-05  -3.262531740663e-05  -1.373650544232e-04 
8
Step 50000
1 1  1.019374918938e-04   1.026252421156e-04  -1.250280924931e-04 
2 1 -7.692432433001e-05  -1.647665599139e-04   7.473347448613e-05 
3 1  1.662392062759e-05   7.092943850092e-05   2.673121424226e-04 
4 1 -1.305527863690e-04   3.663896602112e-05  -8.845534058187e-06 
5 1  1.222068864148e-04   4.900435091391e-05  -5.835925304866e-05 
6 1  1.730540812216e-04  -1.699009437835e-04   9.164389987217e-05 
7 1 -1.511316367135e-04   2.957043690009e-05  -2.535575850439e-05 
8 1 -1.894428704585e-05   9.088128437794e-05   7.692447638031e-06 
8
Step 51000
1 1 -1.363808947430e-04  -2.098571860703e-04   1.889957237228e-04 
2 1  9.484018262287e-05   2.905334634776e-04  -1.021363767890e-04 
3 1  3.402218541257e-05   8.976460528841e-05  -1.799399631074e-04 
4 1 -4.586909172300e-05  -1.985983470734e-04  -1.770766645331e-04 
5 1 -1.571433453489e-05  -1.568582244879e-04  -6.476532949465e-05 
6 1 -1.295940279774e-04  -8.806080330895e-05  -3.407369033270e-05 
7 1  9.310844143080e-05   2.610336313115e-04  -9.861979757552e-05 
8 1  1.012787068735e-04  -4.945996693826e-05   1.916611636587e-04 
8
Step 52000
1 1  3.581115936795e-05   1.804757456344e-04  -1.608946208181e-04 
2 1 -8.189723755044e-05  -1.972834602136e-04   5.760602702714e-05 
3 1 -2.048268102713e-05   6.176129816946e-05   1.431483264224e-04 
4 1  3.115706578529e-05   1.474489462688e-04   1.739142263786e-04 
5 1  6.283890537582e-05  -1.837471653999e-05  -1.056744411575e-04 
6 1 -5.277787304694e-05   9.029085778418e-05   1.658144444016e-04 
7 1 -1.066848926125e-04  -6.274452801201e-05   6.572260858063e-05 
8 1  5.122700442953e-05  -4.977378482886e-05  -2.253185534006e-04 
8
Step 53000
1 1 -2.720451627482e-05  -1.646943047129e-04   7.194813157338e-05 
2 1  2.316917777687e-05   2.850633323665e-04   6.749252810847e-06 
3 1 -1.605558514122e-04   5.909309849953e-05   1.633071810676e-06 
4 1 -2.678507597340e-04  -7.533484024530e-05  -3.279630725441e-04 
5 1 -1.203052097058e-04  -6.660061626829e-05   2.661945314969e-05 
6 1 -1.582948191137e-06  -1.306110487966e-04  -1.938887489824e-04 
7 1  2.143709425314e-04   6.336269669277e-05  -1.129058637654e-04 
8 1  6.165948771072e-05   1.531974554760e-05   2.214550198687e-04 
8
Step 54000
1 1 -1.456398026528e-05   1.026922755303e-05  -2.058628762782e-05 
2 1  4.146434379517e-05  -2.494926978686e-04  -6.003237915002e-05 
3 1  8.493313339041e-05  -7.158964166127e-05   4.477223011529e-05 
4 1  1.797008905227e-04   2.828146133296e-04   3.473961172394e-04 
5 1 -7.762379303259e-05   2.187923122097e-04  -8.106137159414e-05 