8
Step 0
1 1  0.000000000000e+00   0.000000000000e+00   0.000000000000e+00 
2 1  0.000000000000e+00   0.000000000000e+00   0.000000000000e+00 
3 1  0.000000000000e+00   0.000000000000e+00   0.000000000000e+00 
4 1  0.000000000000e+00   0.000000000000e+00   0.000000000000e+00 
5 1  0.000000000000e+00   0.000000000000e+00   0.000000000000e+00 
6 1  0.000000000000e+00   0.000000000000e+00   0.000000000000e+00 
7 1  0.000000000000e+00   0.000000000000e+00   0.000000000000e+00 
8 1  0.000000000000e+00   0.000000000000e+00   0.000000000000e+00 
8
Step 1000
1 1 -1.525287091227e-05  -1.014544849531e-04   1.515462152334e-04 
2 1 -1.594840096164e-04   3.058529958862e-04   1.004104196553e-04 
3 1 -5.460336719744e-07   4.652402177687e-05  -1.278441835757e-04 
4 1 -1.820213013655e-04   6.498051294352e-05   2.892354047544e-04 
5 1 -1.764884338639e-04  -1.222676092110e-04  -1.434851154829e-04 
6 1 -7.571236605911e-05  -7.427268106632e-06  -1.075399770884e-04 
7 1  9.639706204737e-05  -5.062352269976e-05   2.542564695170e-04 
8 1  2.403970767082e-04  -4.357002119712e-05   2.306785429381e-04 
8
Step 2000
1 1 -1.519353463822e-04   1.973812481612e-04   1.013397898741e-04 
2 1 -2.302960684803e-04   2.026310596379e-05   2.195164746840e-04 
3 1  1.183694808465e-04  -5.972600930168e-06   1.476855021375e-06 
4 1 -8.036712101364e-05  -1.837340515141e-04   2.317209799745e-04 
5 1  5.550412012231e-05   4.891207618518e-06   4.669490483924e-05 
6 1 -9.540451406020e-05  -9.211671013783e-05  -2.849583752685e-04 
7 1 -9.292916340813e-05  -1.638806299711e-04  -3.080939208893e-05 
8 1 -1.244733056730e-04   2.116024514374e-06   2.129853133979e-04 
8
Step 3000
1 1 -3.099236493076e-04   8.151415949032e-05   1.692944824223e-05 
2 1 -1.147485842583e-04   2.803430390345e-04   3.115340855539e-05 
3 1  3.558683820096e-04  -2.918402982436e-04   1.136014785359e-04 
4 1 -5.269847790530e-05  -1.154859127719e-04   3.357626191120e-05 
5 1 -1.906437979027e-04  -1.557732558402e-04   9.694157315978e-05 
6 1  8.115649331368e-05   5.063520396157e-05  -2.355810755745e-04 
7 1  1.825126011479e-04  -1.776581886375e-04   5.274876042187e-05 
8 1 -7.026419210415e-05  -2.663365067545e-05   7.845861286936e-05 
8
Step 4000
1 1 -2.727546680694e-04  -2.219539483316e-06  -3.981686284325e-05 
2 1 -1.225223280162e-04   8.234630760330e-05   2.248411332013e-04 
3 1  3.921115434731e-05  -1.596206495569e-04   1.028797113679e-04 
4 1 -7.875581556663e-06   9.201245683726e-05   1.290504485594e-04 
5 1 -4.933914771620e-05  -3.963267241463e-05  -2.425247843321e-05 
6 1  3.905540264936e-05   2.433045725622e-05  -4.100995496192e-04 
7 1  1.624866540000e-05  -1.417160806796e-04  -1.833740077701e-05 
8 1  2.600286040997e-05  -1.340470285788e-04   2.768613175850e-05 
8
Step 5000
1 1 -3.363530740753e-04   1.685888208521e-04  -2.350288834179e-05 
2 1 -8.889154744121e-05  -7.982873626493e-05  -1.474910901008e-04 
3 1  1.858395477361e-04  -8.793991249574e-05   9.847964981092e-05 
4 1 -2.029730352500e-04  -2.168604809879e-04   7.373104291838e-07 
5 1  7.022306401133e-05  -1.893636503811e-04   1.341998777956e-04 
6 1  4.147476768296e-05   1.522535626233e-04  -2.969744375691e-04 
7 1  1.212777893943e-04   7.595926144440e-05   2.053267857702e-05 
8 1 -1.583646267255e-04  -2.666521717977e-04  -3.858012251080e-05 
8
Step 6000
1 1 -1.632746457719e-05  -6.277643913180e-05  -1.624102879682e-04 
2 1 -1.951051934804e-04   5.796514396459e-05   1.286949247233e-05 
3 1  3.074296641886e-04  -2.839975427240e-04   1.018636937395e-04 
4 1 -9.696038446636e-05   1.022778268296e-04   6.820760753574e-05 
5 1  3.660998319019e-05  -3.884134295439e-05   1.091190625012e-04 
6 1  2.723766686303e-04   1.582109945039e-04  -1.146716768153e-04 
7 1  4.148905107180e-04   8.772339873751e-05  -6.506258519280e-05 
8 1 -3.097902123085e-05   4.034944522521e-05   1.293304654900e-04 
8
Step 7000
1 1 -9.898087521712e-05   1.006552560784e-04  -2.432174688943e-04 
2 1  9.631803456477e-06  -1.164319642084e-04  -6.952806740501e-05 
3 1 -5.594773218616e-05  -2.690933896222e-04  -5.759612545092e-05 
4 1  1.806699887439e-04   2.149395752876e-04   3.177908424970e-05 
5 1 -1.129139431621e-04  -1.772705941991e-04  -9.822769388777e-06 
6 1 -2.215426346763e-04   1.914197660263e-04   4.271064845811e-05 
7 1 -1.160496983413e-04  -2.941937400062e-05  -1.638566510617e-05 
8 1 -2.146801545574e-06   2.656627266227e-04  -4.513623828870e-05 
8
Step 8000
1 1  1.776804224575e-04  -1.305424974551e-04  -2.443817759271e-04 
2 1  8.910788376945e-05   2.185219629331e-05  -3.677755696826e-04 
3 1  1.272000543829e-04   1.854703789850e-05   1.737813338659e-04 
4 1  6.370188750773e-06   8.977499142224e-05  -2.144245722196e-04 
5 1  6.782692660785e-05  -8.305263445306e-06  -2.837599835228e-05 
6 1  1.525130996117e-04   2.273840813873e-04   8.949867202711e-05 
7 1  2.542167090119e-04   4.375829784799e-05   4.178227561730e-04 
8 1 -3.415664151912e-05   3.277100195060e-04  -1.629628872779e-04 
8
Step 9000
1 1  2.214106359078e-04   6.883479181936e-05  -1.922878631772e-04 
2 1  1.092739160126e-04  -1.168459541070e-04   1.531294413558e-05 
3 1  7.841101836751e-05  -5.556950359053e-05  -9.603260668224e-05 
4 1  6.108173280181e-05   7.141496195273e-05  -6.289727409352e-05 
5 1 -2.418090554331e-05   2.057829863665e-04   3.589983499829e-04 
6 1 -1.555416059307e-04  -3.136093885612e-06  -8.826609927450e-06 
7 1 -3.178565605036e-05   2.020759822214e-04   1.105204367093e-04 
8 1 -1.372786191746e-04   1.930572482833e-04  -1.444102962016e-04 
8
Step 10000
1 1  3.840676238220e-04  -5.994576211718e-05  -1.879772310258e-04 
2 1  1.073836016435e-04  -1.742668313002e-04  -1.112340748253e-04 
3 1 -3.401941876683e-05   2.654480428548e-04  -2.363677238301e-04 
4 1  3.189030991647e-04   3.645630508921e-05  -2.016686298407e-05 
5 1 -9.089778796487e-05  -9.635619672694e-05   1.889402938829e-04 
6 1 -1.113410946438e-04   2.200715302045e-04   1.679522338317e-04 
7 1  7.151842533730e-05   2.277125702499e-04   4.643648468058e-05 
8 1 -9.897847017587e-05   2.662202646485e-04  -1.102792625126e-04 
8
Step 11000
1 1  2.892942996167e-04  -8.182698036344e-05  -6.030823143485e-05 
2 1 -4.608226943770e-05  -1.341198748689e-05   1.283698189410e-04 
3 1 -1.704992121442e-06  -1.482653692244e-05   6.028260171646e-05 
4 1  1.048268841130e-04   2.665391953193e-04  -1.867049089883e-04 
5 1 -1.627219719837e-05  -3.186318786744e-05   5.154708573322e-05 
6 1  2.508117706323e-05   1.729787310598e-04   1.489281481737e-04 
7 1 -1.377796716286e-04   9.941744056659e-05   1.773378424774e-04 
8 1 -1.847117711461e-04   1.102901165084e-04  -1.822322493221e-04 
8
Step 12000
1 1  2.261338333699e-04  -5.078294820776e-05  -1.213091829383e-04 
2 1  7.445330844968e-05  -1.937380052589e-04   2.854768149826e-05 
3 1 -7.605996054828e-05   1.358216996538e-04  -1.543440948803e-04 
4 1  9.089756855196e-05   1.493221092220e-04  -1.134568659017e-04 
5 1  2.023340768475e-04  -7.727335519778e-05   2.947029756855e-04 
6 1 -1.044553908324e-04   3.265203012010e-07  -4.859420551494e-06 
7 1 -8.326005455565e-05   3.214298516249e-04  -2.364712777448e-05 
8 1  3.709498657771e-05  -1.373725393812e-04  -1.289860108171e-04 
8
Step 13000
1 1  2.412821822984e-04   3.159190659643e-05   2.013164033859e-04 
2 1  1.470049397013e-04  -1.712164401098e-04   5.163373294976e-05 
3 1 -2.474798137296e-04   4.071053746464e-04   1.030785918691e-04 
4 1  1.476997685731e-04   7.998038174147e-05  -1.704576072407e-04 
5 1  4.814857293211e-05  -8.810342988974e-06  -1.755796310316e-05 
6 1  1.492107919092e-04   9.232282288642e-05   1.219767233589e-04 
7 1 -8.007323985871e-05   3.002577447985e-04  -3.888048644311e-05 
8 1 -1.371724335643e-04  -1.452085696389e-04  -7.437390031247e-05 
8
Step 14000
1 1  2.446150640124e-04   2.028743538329e-05  -4.085259776945e-05 
2 1  8.758482800253e-05  -1.232496523228e-04   1.645428033061e-05 
3 1 -2.000041467660e-04   6.942434432964e-06  -1.486018104681e-04 
4 1  1.049038895048e-04  -3.352955108821e-05   1.185790143990e-04 
5 1 -4.705891239215e-05  -4.423955517636e-05   1.087112360427e-04 
6 1  8.883111462855e-06   1.684433373446e-04  -9.004379105630e-05 
7 1  1.746760389670e-05   1.379142376316e-04  -5.957228139968e-05 
8 1 -1.807774223239e-04  -2.852855049410e-05  -6.493743095736e-05 
8
Step 15000
1 1  5.276155360299e-05  -7.723623972171e-05   9.435829982967e-05 
2 1 -8.083088582872e-05  -8.694450222431e-05   2.702517355271e-04 
3 1  7.225995316238e-05   1.512537882092e-04  -2.387839337570e-04 
4 1 -4.552092432484e-05   2.113840437568e-04  -1.353735228846e-04 
5 1  1.845246644862e-04  -1.425146700042e-04   1.452479923275e-04 
6 1 -1.266875333286e-04  -2.343719266542e-05  -1.474953518627e-04 
7 1  6.933483727133e-07   1.969537975479e-04  -4.183566394307e-06 
8 1  5.482704334805e-05  -1.776653493807e-04  -3.867026675664e-05 
8
Step 16000
1 1 -1.186074214069e-04   1.557266494128e-04   2.825975513183e-04 
2 1 -6.209008180664e-05  -3.017332064239e-05   1.448954474068e-04 
3 1 -9.049289552014e-05  -2.271702515621e-04   5.078437160235e-05 
4 1  1.338431497904e-04   1.128902665504e-04   5.035533898007e-05 
5 1 -5.768139838819e-05   9.356061559779e-07   8.055502554838e-06 
6 1 -4.459738688354e-06  -1.306868730695e-04   4.692465350260e-05 
7 1  6.957058497140e-05  -1.678442494216e-04  -4.099570409245e-05 
8 1 -5.403715138609e-05  -2.982516494054e-04  -1.938357541864e-04 
8
Step 17000
1 1 -1.540000650312e-04   1.279054342035e-04   1.373599612000e-04 
2 1  1.977538408796e-05  -1.007383772846e-04   1.967749762597e-04 
3 1 -1.086111075953e-04  -1.633400721191e-04  -3.326406135784e-04 
4 1  5.288543977865e-05   2.580609346723e-04  -2.210118164047e-04 
5 1 -9.902881088443e-05  -1.545879131759e-04  -5.419861291747e-05 
6 1  4.028560476850e-05   2.199641076296e-05  -1.318115586311e-04 
7 1  1.115480692491e-04   1.403569732870e-05  -6.055190119471e-05 
8 1  1.031169772068e-04  -6.348170127115e-05  -4.050727823239e-05 
8
Step 18000
1 1 -1.350774176222e-04   1.260732558678e-04   1.150462639127e-04 
2 1 -1.892846227188e-04   1.064167780197e-04   3.360156021389e-04 
3 1  7.975296993092e-05  -2.167068695019e-04  -3.534852404514e-04 
4 1 -8.436340517897e-05   7.333026911374e-05   2.662143996960e-06 
5 1  1.131829729831e-04  -1.940786756375e-04   2.352644216493e-04 
6 1 -2.733515555668e-04  -9.313076900236e-05   1.896702849773e-04 
7 1 -4.887018467569e-05   2.828290452968e-05   4.657858537641e-06 
8 1 -5.393166677506e-05  -4.128856013055e-04   7.458205080737e-06 
8
Step 19000
1 1 -1.221690911665e-04   6.834551008513e-05  -1.374481738209e-04 
2 1  3.684156329885e-05   2.037296858507e-04   7.979377488526e-05 
3 1  5.245729937314e-05  -2.038657367632e-04   2.723348626678e-05 
4 1 -1.941369547836e-04  -2.787964772347e-06  -2.336349879419e-04 
5 1  9.488718240136e-05   1.769809408185e-04  -1.870448041375e-04 
6 1 -8.951508195435e-05  -3.843396993386e-04   7.289299093334e-05 
7 1  1.869621072010e-04   2.705466950052e-05   2.024704746167e-04 
8 1 -1.563232748677e-04  -1.807152048033e-04  -1.580989909626e-04 
8
Step 20000
1 1 -7.867929928356e-05   2.118684139082e-04  -1.718877636849e-05 
2 1  1.055022224086e-04   2.823412081377e-04   1.418655225291e-04 
3 1 -1.809435383878e-04   5.361115151093e-05  -2.628135658626e-05 
4 1  2.427695689434e-05  -5.022313526915e-05  -1.350011401760e-04 
5 1  7.311187750224e-05  -3.378243679156e-05  -1.114385691465e-05 
6 1 -1.331257706248e-05  -7.676832164084e-05   6.526703423406e-05 
7 1  4.294627017534e-06  -1.940353469842e-04   3.524990058124e-04 
8 1 -4.248389087170e-05  -1.399829800210e-04  -9.290421669753e-05 
8
Step 21000
1 1  5.369522435591e-05   8.303960514978e-06  -2.354044236615e-04 
2 1 -1.791422128570e-04   1.164531972967e-04   1.288540445287e-04 
3 1 -1.883498914640e-05  -1.930506740573e-04  -1.797449994398e-04 
4 1  5.736359940895e-05   9.129463323888e-05  -2.368321577205e-04 
5 1  8.436042061083e-05   9.554183335949e-05  -9.245182997710e-05 
6 1 -2.114718895367e-04   1.377202243455e-05   7.179527820597e-05 
7 1  1.968393224419e-04   8.540908480639e-05   3.883508509253e-05 
8 1  1.149429304989e-05  -2.909793857360e-04  -9.243343434926e-05 
8
Step 22000
1 1  6.750909091676e-05   3.830986613940e-05  -2.530740328229e-05 
2 1  1.657169147182e-04   1.979898674968e-04   1.240510546960e-04 
3 1 -3.598901633152e-05  -2.657968795323e-04  -3.813465019112e-05 
4 1 -2.167656804789e-04  -3.372331749617e-05  -2.006280022744e-04 
5 1  1.142464471615e-04   5.766711523798e-05   9.226467263957e-05 
6 1 -1.958659281108e-04  -2.189189826291e-04  -6.981702535854e-05 
7 1  2.180362273897e-04   6.821776375609e-05   3.171325706095e-04 
8 1 -1.538999507321e-04  -1.943382522981e-04   1.719468637723e-04 
8
Step 23000
1 1 -7.029672719727e-05  -3.204488635624e-04  -2.716997871330e-04 
2 1  2.520426204017e-05   2.937598378068e-05   1.008904935126e-04 
3 1  8.619021736001e-05  -2.363287767842e-04  -1.261691616980e-05 
4 1  1.030597624557e-04   7.208553155005e-05  -1.852206183875e-05 
5 1 -1.236260333166e-04   1.746670746121e-04   2.303299554989e-04 
6 1 -4.513399151613e-05  -3.056194095390e-06  -2.048467386332e-04 
7 1  3.873466119855e-05  -1.325934438598e-04   1.191904756036e-04 
8 1  2.103681653654e-04  -9.128407810667e-05   4.011854773482e-05 
8
Step 24000
1 1  3.590079284129e-04  -1.965129716145e-05  -2.878061904999e-05 
2 1 -1.339897706077e-04   5.733334592177e-05   2.746998354392e-04 
3 1  2.528862841877e-04  -1.283822602754e-04  -8.269666936372e-05 
4 1 -2.289846623023e-04  -8.955969229351e-06  -1.136317201344e-04 
5 1 -6.462157083109e-05   5.697819250457e-05   1.688155918321e-05 
6 1 -9.035187263314e-05  -8.421447390720e-05   6.786679847312e-05 
7 1  1.551521285688e-04   5.433109940934e-05   2.006566940019e-04 
8 1  9.530512415819e-05  -1.254354596054e-04  -7.748209136486e-05 
8
Step 25000
1 1  8.368172628664e-05  -2.852094586526e-04  -2.227942124861e-04 
2 1 -8.705591598373e-05  -2.052754809172e-04   5.031012075046e-05 
3 1  1.338366576907e-04  -1.385950265473e-04   1.321352459020e-04 
4 1 -2.471908572567e-04  -1.450552827316e-04   1.210439951658e-04 
5 1  1.506833326715e-04   1.985519217413e-04   1.564375570470e-04 
6 1 -1.489136844933e-04  -2.143229860683e-04  -2.639674268613e-05 
7 1 -1.295261768587e-04   2.614962540142e-04   1.675844456782e-04 
8 1 -1.184107424851e-04  -1.700800454773e-04  -1.350978412250e-04 
8
Step 26000
1 1  3.273987462712e-04  -1.374617575121e-04   7.490898317943e-06 
2 1  5.268597506166e-05  -5.470260402289e-05   1.287698292331e-05 
3 1 -1.571720091130e-04  -1.785817973670e-04   1.526262758313e-04 
4 1  1.055207890558e-05  -2.131307224520e-04  -5.837273801083e-05 
5 1 -1.184940198891e-04  -9.812954776947e-05   3.317915004946e-04 
6 1 -1.185488723103e-04  -1.497671952985e-04   5.090575567798e-05 
7 1  1.356211725057e-04   1.297890703826e-04   2.128317566791e-04 
8 1  1.929893111078e-04   8.281510836472e-05  -1.168558501193e-04 
8
Step 27000
1 1  2.917959618748e-04  -1.671472892035e-04   2.600665192832e-05 
2 1  4.608397755936e-05  -6.642521321078e-05   9.814086519140e-05 
3 1 -2.276813858412e-04  -1.432033698599e-04   1.946457613410e-04 
4 1 -1.492937396713e-04  -1.580982268536e-04   7.191150074097e-06 
5 1  9.728484138425e-05  -2.636545757216e-06   1.140602324359e-04 
6 1  3.242544269124e-05   8.708339839698e-05   7.154577312237e-05 
7 1  1.019610806558e-04  -1.529123976805e-04   1.460632441818e-04 
8 1 -2.844364144292e-04   3.576914851621e-04  -3.163605483753e-05 
8
Step 28000
1 1  2.134183280454e-04  -9.280767126199e-06   2.778551015546e-04 
2 1 -1.301601150807e-04  -1.146301766421e-04   3.339120836536e-05 
3 1 -2.634978293759e-04  -1.119551638368e-04   2.002406721849e-04 
4 1 -1.220466138382e-04  -1.192924533062e-04   1.153951274269e-04 
5 1  9.414105060158e-05  -2.023257318888e-05   1.132820561415e-04 
6 1  6.458642432227e-05  -3.994078177020e-04   1.505615827975e-04 
7 1  9.412358804268e-05  -2.526825733637e-04   2.905522420302e-04 
8 1  1.383747254396e-04   2.680800699744e-04  -1.871510499618e-04 
8
Step 29000
1 1  1.398381756444e-04  -2.633983854421e-05   6.537304189008e-05 
2 1 -1.759610606053e-04  -2.197651471930e-04  -1.862407077866e-05 
3 1 -8.117603447214e-05  -1.946250755866e-04   1.835037703313e-04 
4 1 -7.355732744731e-05  -1.776758169598e-04  -3.635484620951e-05 
5 1 -3.364501903955e-04   1.738591752505e-04   2.002811466142e-05 
6 1  5.481061915134e-05  -1.498935493756e-04   4.719304161786e-05 
7 1  1.566458065788e-04   1.744964974475e-04   3.945342709368e-05 
8 1 -7.055510687916e-05   3.325593583868e-04  -4.660248953971e-05 
8
Step 30000
1 1  7.075473568688e-05   2.229136968068e-05   5.054922738420e-05 
2 1 -1.298945492637e-04   1.174117574977e-04   9.246133872261e-05 
3 1 -4.802973354349e-05  -6.274819441941e-05   9.466844307066e-06 
4 1  9.911562978829e-05  -7.800995689024e-05  -4.973307888912e-05 
5 1  2.555658935010e-05   1.187919873208e-04   5.390460103057e-05 
6 1  1.347684301071e-04  -3.714712247366e-04   1.112011494306e-04 
7 1  2.813540504188e-04  -2.170973494939e-04   1.227757259468e-04 
8 1 -1.587161578999e-04   4.069178539107e-04  -1.069156834574e-04 
8
Step 31000
1 1 -1.962429142143e-04  -2.089686154087e-06   1.490801486458e-04 
2 1 -2.941460094313e-04  -1.754542991701e-04   9.532395593758e-05 
3 1 -6.631411441975e-05   3.389030000391e-05   1.652264783775e-04 
4 1  1.643891921633e-04   1.786037092778e-05   9.286622442993e-05 
5 1 -5.689012575693e-05  -4.563833085089e-05  -7.091619372541e-05 
6 1 -3.575218715972e-05  -5.811009358387e-05  -1.313842244590e-04 
7 1  1.345712184078e-04  -1.090840290867e-04   1.294841824855e-04 
8 1  4.000639581678e-05   2.568048450707e-04  -1.527498843090e-04 
8
Step 32000
1 1 -5.889841300947e-05   5.818309202560e-05   7.676870748120e-05 
2 1 -1.460814655881e-04   9.186315825917e-05  -3.206519996614e-06 
3 1  1.820381654848e-04   5.219016840535e-05   2.404777950606e-06 
4 1  1.791306136917e-04   9.551382171242e-05  -1.008187998629e-04 
5 1 -3.697508454806e-05   1.651040971002e-04  -7.278369464090e-05 
6 1  3.433507222185e-05  -1.367209529729e-04   2.337097505010e-05 
7 1  4.884125654404e-05  -1.076141057065e-04   4.240541132553e-05 
8 1  1.679488518026e-04   5.010776671093e-05  -6.730381444046e-05 
8
Step 33000
1 1 -1.744752706146e-04  -1.312291124347e-04   4.918423083757e-05 
2 1 -1.261825789336e-04   6.509470333977e-05   1.836228770144e-04 
3 1 -7.653470459040e-05  -9.203393924952e-05  -2.791876055826e-04 
4 1 -1.542621692718e-04   7.253206715239e-05   2.148674810515e-04 
5 1 -5.522366141416e-05   1.994949769761e-04  -4.994506169465e-05 
6 1  1.785861246685e-04  -2.597859709487e-04   6.234306685702e-05 
7 1 -2.248819763398e-04  -6.365143406218e-05  -2.646331807088e-04 
8 1 -2.270102258028e-04   1.559961478417e-04  -5.511160726969e-05 
8
Step 34000
1 1 -1.465043106972e-04   2.483310035475e-04  -1.448529019011e-04 
2 1 -2.447869979494e-04  -8.434753346492e-05  -8.013197072424e-08 
3 1  2.683672044724e-04   2.406961591755e-04  -2.502495566705e-04 
4 1  2.532934157710e-04   2.680483768499e-04   1.063359951536e-04 
5 1 -9.118286879685e-05  -7.820814504632e-05  -4.136023351021e-05 
6 1  2.042631116332e-05  -3.916520743027e-04  -6.652900943331e-05 
7 1 -1.072174999327e-05   2.547878647191e-06  -3.610916616219e-05 
8 1  1.309067253632e-05   7.735010896614e-05  -4.619761741386e-05 
8
Step 35000
1 1 -1.990167896697e-04   5.502160397472e-05   1.782764443504e-04 
2 1 -2.983373165331e-04   2.075620144984e-04   8.419918139406e-05 
3 1  1.057281040586e-04   1.120448798278e-04  -1.437916354940e-04 
4 1  2.989488205559e-05   1.810153428848e-04  -1.177246242369e-04 
5 1 -2.037532556970e-04  -8.686275714148e-05   2.865937102901e-04 
6 1  1.737037495047e-04  -7.365664345725e-05  -1.023679843597e-04 
7 1  1.309875486386e-04   9.161661733001e-05  -3.083568079348e-04 
8 1 -1.819913454581e-04  -1.671636490540e-04   1.761521244355e-04 
8
Step 36000
1 1 -1.630372973636e-04   5.455543786375e-05  -1.883623999522e-04 
2 1 -2.000212496922e-04   2.265483652341e-04  -7.758479408316e-05 
3 1 -7.210738556030e-05   1.100545231801e-04  -1.665995426087e-04 
4 1  4.147116662852e-05   2.020860416766e-05  -8.334620424022e-05 
5 1 -3.678549691335e-04   1.691207765910e-04   1.121789696852e-04 
6 1  9.582693023179e-05  -1.805839315493e-04   3.588602983560e-05 
7 1  1.342868131730e-04   1.238598887879e-04  -5.384808847919e-04 
8 1 -1.329463964681e-04   2.462498168613e-05  -1.792771486851e-04 
8
Step 37000
1 1  3.379715909397e-05  -3.757646282811e-05   9.217243797087e-05 
2 1 -8.676089007168e-05   8.187892915511e-05   1.910142227681e-05 
3 1  1.266295565849e-04   1.065822044460e-04  -7.344612423447e-06 
4 1  1.924361334208e-04   2.810091150348e-05   1.019850110425e-04 
5 1 -4.527134711288e-04   2.016245470091e-04  -1.695138643356e-04 
6 1 -3.709972842916e-05  -3.941168418484e-05   1.013969799860e-04 
7 1  3.479171059875e-06   1.517582859055e-04   1.095309995128e-04 
8 1  4.292873722461e-05  -1.034360221611e-04   4.064088197444e-05 
8
Step 38000
1 1  1.298782078082e-04  -1.402677021569e-05  -1.347568042882e-04 
2 1 -1.290516492245e-04   3.086178398151e-04  -1.458906253829e-05 
3 1  4.716299993540e-06  -6.402802449932e-05  -9.864498916658e-05 
4 1 -2.361893761901e-04   1.310869786948e-04   6.158216294469e-05 
5 1 -3.469892938088e-04  -1.628217214488e-04  -4.853796321930e-06 
6 1  2.315283511211e-04  -5.932475908337e-05  -1.791980870675e-04 
7 1  1.299330841966e-04   1.370929401298e-04  -3.799161924289e-04 
8 1 -2.181596457621e-04  -1.585481426527e-04  -1.127992299912e-04 
8
Step 39000
1 1  2.193471301702e-04  -2.896971456796e-05   9.163104000440e-05 
2 1  7.352958781887e-05   3.257460647491e-05   3.055774862547e-04 
3 1  2.046266422725e-04  -3.899769783503e-05  -1.620905625218e-04 
4 1 -6.035249200173e-05   3.941699123922e-05  -1.237866443348e-04 
5 1 -1.069564314243e-04  -3.407013632721e-05  -3.173753681701e-04 
6 1 -1.915139271027e-05  -6.133599612608e-05  -1.941157455633e-04 
7 1 -2.886885811708e-05   1.325002688154e-04  -2.269950873490e-04 
8 1 -1.148255478069e-04  -1.447433037315e-05   3.021255385112e-04 
8
Step 40000
1 1  1.168202868731e-04   1.138042351493e-06  -1.344719002121e-04 
2 1 -9.650374350838e-05   1.082496900644e-04   1.508492398059e-04 
3 1 -9.435068009394e-05  -2.531418805698e-05  -4.003121759888e-05 
4 1 -1.443831521974e-04  -6.476764802608e-05   1.064845249408e-04 
5 1 -2.539255922894e-04  -4.704877099733e-05  -1.664455836459e-04 
6 1  5.945123653786e-05  -2.781590826271e-04  -3.015566231645e-04 
7 1 -1.379851993587e-04   1.664330956264e-04  -6.928756359078e-05 
8 1 -2.408991531334e-05  -2.018740364737e-04  -2.003738593146e-04 
8
Step 41000
1 1  6.724101793437e-05  -1.982613484548e-04   5.956852718678e-05 
2 1  2.651527057299e-04   5.831787614343e-05   1.474517135284e-04 
3 1  1.842093808001e-04  -1.397717736099e-04   5.410446295439e-05 
4 1  1.326373686186e-04   1.135308695988e-04  -7.025339365591e-05 
5 1 -2.463774775521e-04  -1.298022536418e-04  -2.014990618940e-04 
6 1  1.793664908602e-04  -4.136530742755e-05  -1.440492384354e-04 
7 1 -1.160611368472e-04   4.815282665569e-05  -1.404712115031e-04 
8 1 -5.966327552116e-05   1.337520442173e-05  -6.386102648388e-06 
8
Step 42000
1 1  9.711723680827e-05  -8.035382999625e-05  -8.468947059043e-05 
2 1  2.911132194869e-04   3.131909693493e-04  -7.403292568731e-05 
3 1 -8.065539988576e-05  -1.540296973757e-04   5.658833054297e-05 
4 1 -1.306202731035e-04  -3.254372719764e-05   2.930959759624e-05 
5 1 -1.652723593982e-04  -1.361644112463e-04  -1.577923751061e-04 
6 1 -1.795299438945e-04  -1.370617307095e-04  -1.677817146375e-05 
7 1 -1.172659209437e-04  -1.501638666893e-04  -3.093908023693e-04 
8 1  6.563610261256e-05   6.960947234405e-05  -6.138813085005e-06 
8
Step 43000
1 1  2.630419747970e-04  -1.592588175592e-04   1.277183731648e-04 
2 1  2.189265835339e-04   1.063641095159e-04   7.875383522467e-05 
3 1  2.547913572964e-04  -6.310712266597e-05  -6.699974861035e-05 
4 1 -5.669547310026e-05  -6.485352057545e-05  -6.610983754077e-05 
5 1  2.307936800377e-05   4.269773271751e-05  -8.252356349208e-05 
6 1  9.571602787130e-05  -2.160548375902e-04  -1.212132097568e-04 
7 1 -1.653704691261e-04   9.504183774065e-05  -2.030593946364e-05 
8 1  1.675513956081e-04  -4.019278452593e-05  -2.238899041146e-04 
8
Step 44000
1 1  1.330648233266e-04  -3.506654607892e-05   6.196257988061e-05 
2 1  3.363563455255e-04   1.293541131441e-04  -5.171357875753e-06 
3 1 -5.484754406459e-05  -3.134339265054e-05  -6.469901938067e-05 
4 1 -2.134090938516e-04   8.047635638795e-05  -1.238499739369e-04 
5 1  8.220404919101e-05  -1.624603900885e-04   6.814345123991e-05 
6 1  2.115149050225e-04  -2.972752359026e-04  -1.170148383706e-04 
7 1  4.082242605582e-05   3.123582778081e-04  -8.860210903788e-05 
8 1  9.862769055254e-05  -7.057707003047e-05  -1.948285983550e-04 
8
Step 45000
1 1  1.606213477482e-04  -7.947334750187e-05   1.422766052554e-05 
2 1  2.915378401940e-04  -1.011614444841e-05  -1.175133041678e-04 
3 1  2.404950291166e-04  -2.193529069212e-04   3.161683897519e-05 
4 1  4.263349797151e-05  -3.721529400987e-05  -9.808877797823e-05 
5 1  1.520818360349e-04  -1.037600658500e-04  -1.529333381396e-05 
6 1  4.471970817991e-05  -2.322129132142e-04  -7.791969144241e-05 
7 1 -1.833756145602e-04  -8.682549048484e-05  -1.200908615455e-04 
8 1  2.140678048766e-04   2.062256379588e-04  -4.509655932150e-05 
8
Step 46000
1 1  1.827862627124e-05   3.749740857689e-05   8.104726938473e-05 
2 1  1.396591038007e-04   2.701018041838e-04  -2.205740110054e-06 
3 1  1.892745035062e-05  -4.015596289382e-06   7.177809919268e-05 
4 1 -2.066679511199e-05   1.043211289300e-04   3.613214697323e-05 
5 1 -5.403225850302e-05   8.629792636323e-05   1.065577744777e-04 
6 1  9.156631873245e-05  -8.113860212450e-05  -2.760568624526e-05 
7 1  4.757422833660e-05   4.915969757668e-05   5.760265962652e-05 
8 1 -5.937618677790e-06   1.777821004315e-04  -1.697048811903e-04 
8
Step 47000
1 1  5.991512273750e-05  -1.100996459107e-04  -1.537911345154e-05 
2 1  4.884075217100e-04   3.531332546681e-05  -8.115466636624e-05 
3 1 -1.451576338439e-04  -2.811125671794e-04   8.117072254770e-05 
4 1  3.638686690638e-04   1.632168609453e-04  -1.885372235461e-04 
5 1  8.736302770745e-06   1.202975582445e-04  -2.390256145076e-05 
6 1 -1.016998534803e-05  -3.149250170654e-04  -2.128730171934e-04 
7 1 -1.094632890190e-04   4.581279003942e-05   1.950341770522e-04 
8 1 -2.081031032765e-04  -8.164294704510e-05  -1.477192872886e-04 
8
Step 48000
1 1  4.335407956176e-05   9.244531300371e-05   1.205289371266e-04 
2 1 -5.600758156796e-05   2.257392281481e-04  -3.423227791710e-05 
3 1 -1.325010026706e-05  -5.583212339885e-05   2.171542913196e-04 
4 1 -2.779490842177e-05   7.994814683865e-05  -6.370769595293e-05 
5 1 -1.155782320810e-04   1.715669303875e-04   2.973974948966e-04 
6 1  5.129822067402e-05   6.507762218324e-05   6.355750872012e-05 
7 1 -1.692067720038e-04  -1.594260543205e-04  -6.232223393654e-05 
8 1  7.458714671434e-05   2.280016972806e-04   7.147326918213e-05 
8
Step 49000
1 1 -2.504508278517e-04  -5.554884890638e-05  -2.277169985729e-05 
2 1 -1.854669743799e-04   1.051305099173e-04  -1.906908753091e-04 
3 1  7.773484840878e-05  -1.032478669028e-05  -1.309268765163e-04 
4 1  1.151752904965e-04   1.442222205806e-04   1.775629361882e-04 
5 1  1.289101722502e-04   1.608250108700e-04   9.122940046388e-05 
6 1 -7.758973294617e-06  -1.535543913508e-04   4.594287737594e-05 
7 1 -1.825769365608e-04   3.472732422827e-05   9.334851645885e-06 
8 1 -4.904360395409e-05   1.611684410505e-04   6.839403973083e-05 
8
Step 50000
1 1 -2.491676484031e-04   1.882062962634e-04   2.258326430995e-04 
2 1 -7.344187000641e-05   1.328814914997e-04  -7.758299655243e-05 
3 1 -2.768999657151e-04   6.966880299913e-05  -5.697823615840e-05 
4 1 -1.068867481594e-05   1.024295774619e-04   7.362140067548e-05 
5 1  2.089276851597e-05   2.270407120000e-04   1.131023812421e-05 
6 1  5.268720382469e-05  -2.441826892270e-05   1.278645328414e-04 
7 1  2.563033433549e-05   1.680692023840e-04   1.112276388281e-04 
8 1 -1.368197356756e-04  -2.572130190502e-05  -4.835526256567e-05 
8
Step 51000
1 1 -3.093164924983e-04  -1.171778445289e-04   2.297206005724e-04 
2 1 -1.758451150511e-04   2.065000992553e-05  -2.641244986760e-04 
3 1 -1.273053478275e-05   2.359190071941e-04   1.572540518798e-04 
4 1  1.895570960516e-05   8.408841068700e-05  -1.139427114921e-04 
5 1 -7.645664318244e-05  -9.078749945331e-06   1.409563119466e-04 
6 1 -2.603420248279e-05   3.405985206768e-05   9.827433594032e-05 
7 1 -1.070562128971e-04  -5.036841307576e-05   8.055182280748e-05 
8 1 -2.800828357013e-05   1.104350578494e-04  -4.577607674047e-05 
8
Step 52000
1 1 -1.010632817665e-04   4.615364247694e-05   1.989937668543e-04 
2 1 -2.059607504630e-04   6.717258755014e-06  -3.248366366613e-04 
3 1  1.055086770645e-04   1.200576388121e-04   4.241489868282e-05 
4 1 -1.184130342490e-04   9.095286841919e-05  -7.486555104161e-05 
5 1 -3.827172318192e-06  -1.885065194522e-04  -3.886687210268e-05 
6 1 -1.976594716611e-05   1.115988473608e-04   7.974977302282e-05 
7 1 -9.665396986305e-05  -1.042665068094e-04   2.027740266986e-04 
8 1 -3.215807266601e-05   1.867046505401e-04   1.227083267032e-05 
8
Step 53000
1 1 -3.194840680505e-04   7.758010501613e-05   1.532858811554e-04 
2 1 -2.599380294393e-05   5.322532157464e-05  -8.262126020232e-05 
3 1  1.372446756797e-04   3.015741845417e-04   1.113166766711e-04 
4 1 -2.062419349245e-05   6.406231735952e-05   1.204701313202e-04 
5 1 -3.482493307071e-04   3.832189548969e-06  -1.213136703745e-04 
6 1 -7.082418432608e-05   6.478725485250e-05   1.544078609403e-04 
7 1  7.821573285181e-05   8.858272129738e-05   1.285875239181e-04 
8 1 -1.623054893133e-04  -5.054665204984e-05  -6.518071674151e-06 
8
Step 54000
1 1  6.965898320241e-05  -1.253276968013e-05   1.224143337343e-04 
2 1  1.991175968134e-05   2.533335716699e-05  -2.380375165295e-04 
3 1  2.852198329302e-05   7.463713906046e-05  -1.209069670847e-04 
4 1 -4.021467508001e-05  -2.160512182459e-04  -1.338788298798e-05 
5 1 -1.101092126194e-05  -5.092315211462e-05  -9.975563985839e-05 