8
Step 0
1 1  0.000000000000e+00   0.000000000000e+00   0.000000000000e+00 
2 1  0.000000000000e+00   0.000000000000e+00   0.000000000000e+00 
3 1  0.000000000000e+00   0.000000000000e+00   0.000000000000e+00 
4 1  0.000000000000e+00   0.000000000000e+00   0.000000000000e+00 
5 1  0.000000000000e+00   0.000000000000e+00   0.000000000000e+00 
6 1  0.000000000000e+00   0.000000000000e+00   0.000000000000e+00 
7 1  0.000000000000e+00   0.000000000000e+00   0.000000000000e+00 
8 1  0.000000000000e+00   0.000000000000e+00   0.000000000000e+00 
8
Step 1000
1 1  2.407684307408e-04   1.139679023826e-04  -7.372032122150e-05 
2 1  1.604737794715e-04  -1.048476940482e-04  -6.668424799358e-05 
3 1 -1.365974425347e-04   4.848962682396e-05   6.191255313755e-05 
4 1  9.250643340874e-05   3.623784895357e-05  -2.902961553262e-04 
5 1 -4.454338627585e-05  -2.505939216079e-05   2.690020465656e-04 
6 1  4.160954838480e-05   2.282399152990e-04   1.878768529622e-04 
7 1 -6.044466680036e-05   8.859587396304e-05  -9.284699878191e-05 
8 1 -7.789379941476e-05   1.349771325799e-04  -3.340658321120e-05 
8
Step 2000
1 1  1.364386071965e-05   6.309280440285e-06  -1.067405168261e-05 
2 1  2.489694254838e-04  -1.547741592693e-04  -5.812233371725e-05 
3 1 -8.510579843487e-05  -1.880271021382e-04  -9.883080761730e-05 
4 1 -9.494046194784e-07   2.938741747780e-04  -9.445445936127e-05 
5 1  1.034600857679e-04  -5.796258978047e-06   1.454637148770e-04 
6 1  4.541541235261e-05   2.493917731295e-04   3.317554234639e-04 
7 1  2.279961442008e-04  -7.912403465167e-05  -9.692927866052e-05 
8 1  3.232519136052e-05   4.551947630079e-05  -1.214132717872e-06 
8
Step 3000
1 1  2.172155228162e-04  -1.749376432055e-04   5.063193568744e-05 
2 1  1.770976283858e-04  -1.245017444762e-04   1.710073462683e-06 
3 1 -2.193262542467e-04  -2.461713683874e-04  -8.072924226090e-05 
4 1 -9.429473961091e-05   1.925716200411e-04  -5.622031578681e-05 
5 1  2.006947822047e-04   8.618838684517e-05  -1.001714829716e-04 
6 1  1.233377903643e-04   5.068010113023e-05   2.180158096195e-04 
7 1  1.901153247014e-04   3.389325621999e-04   1.322073917838e-04 
8 1 -5.583324586082e-05   3.655469473539e-04  -5.726061653890e-05 
8
Step 4000
1 1  1.065366150593e-04   1.082271989649e-05   9.071354199299e-05 
2 1  2.366091083209e-04  -2.477495652713e-04  -2.962081331121e-04 
3 1 -1.309791915756e-04   7.009959244792e-05   1.439131652164e-04 
4 1 -6.339644731493e-05  -1.133897551589e-04  -6.338367362695e-05 
5 1  9.481649349277e-05   1.233172399946e-04   2.101244696281e-04 
6 1  2.045794564207e-04  -9.560105575342e-05   2.594889554316e-04 
7 1  1.244043896597e-04   2.491621503625e-04   5.459965996510e-05 
8 1  3.025516579362e-06   8.707292615333e-05  -1.087915829637e-04 
8
Step 5000
1 1  1.838184109447e-04  -1.344080104358e-04   1.067386408151e-04 
2 1  4.532603102239e-05  -1.038029686038e-04  -7.129019760197e-05 
3 1 -1.371101435356e-04   2.521972483555e-04   2.288399577547e-05 
4 1  3.318558302235e-05   5.284525944497e-06   3.160264323278e-05 
5 1  4.826392380649e-05   2.511221570039e-05  -4.021676890151e-05 
6 1  9.879890836061e-05  -8.474438158663e-05  -5.883213790669e-05 
7 1 -6.781838450891e-05   1.735049080869e-04  -1.559914791649e-04 
8 1  3.365495396434e-04   2.223082586498e-04  -1.470909626311e-04 
8
Step 6000
1 1  1.200968025006e-04   6.518558125747e-05   2.890070421081e-05 
2 1  9.275420524775e-05   2.204899255263e-05   2.376509454371e-04 
3 1  8.376875783134e-05   1.531604520506e-04  -7.239917747114e-05 
4 1 -1.937926062017e-05   5.290162302311e-05   2.109156744328e-04 
5 1  5.373783068516e-05  -1.305599025370e-04  -2.480229620573e-04 
6 1  2.198810127998e-05  -4.772520311804e-05  -4.965518908568e-05 
7 1 -3.631912503489e-05   5.142781335056e-05  -2.649878966966e-05 
8 1 -4.500138481285e-05   2.043271570803e-04   2.102346540277e-06 
8
Step 7000
1 1 -1.207001625381e-05  -1.922739626187e-04   1.662971682918e-04 
2 1  4.808420107794e-06   3.016725452139e-04   3.230630960663e-04 
3 1  7.291065358410e-05   8.405808069366e-06  -2.045230874090e-04 
4 1  2.121408221061e-06   1.242402042601e-05  -1.057421881091e-04 
5 1  7.158256010938e-05  -2.294864293011e-04  -1.476656389977e-04 
6 1  1.880955387838e-05  -1.139654118503e-04  -2.073730680010e-05 
7 1 -5.782176973259e-05   2.243522139883e-05  -1.730259822775e-04 
8 1  2.603648467386e-05   8.874047783115e-05   6.852347590466e-05 
8
Step 8000
1 1 -1.406759498528e-04   2.800604065485e-04   5.269630420195e-05 
2 1  1.024592834193e-04   4.710083704211e-05   1.998733015353e-04 
3 1 -1.300934979618e-04  -1.410471113859e-04   1.190262846442e-04 
4 1  1.676037966763e-04  -8.691528131070e-05   1.416862025404e-04 
5 1  5.907900691343e-05  -6.909157236674e-05  -1.278128900029e-04 
6 1 -2.066578858747e-04  -7.674303322157e-05  -1.957414614369e-04 
7 1 -2.195990845888e-04  -1.866000210941e-05  -8.943628457766e-05 
8 1 -1.194525196387e-04  -8.081702170123e-05  -5.166583556632e-05 
8
Step 9000
1 1 -2.381662798004e-04   2.829311173360e-04   2.099904321164e-04 
2 1 -6.703366913110e-05   8.243944338202e-05   4.582139822055e-05 
3 1 -1.350511731686e-04   1.329275210559e-04   1.036061522919e-04 
4 1  2.782761329745e-04  -3.120150303504e-04   1.685000122870e-04 
5 1  4.744734325103e-04   1.043022157503e-04  -4.135704164059e-04 
6 1  5.215014861110e-05  -9.840755430070e-06  -1.982026118044e-04 
7 1  2.138942686239e-05  -9.534187315190e-05   8.246391964861e-05 
8 1 -3.556026494070e-05  -2.619525184032e-04  -2.450613655826e-04 
8
Step 10000
1 1 -9.696653839182e-05   2.592376039041e-04   1.201441201462e-04 
2 1 -2.226590079253e-04  -1.413062238168e-04   2.032589174266e-04 
3 1  9.956177931938e-06  -8.090872505793e-06   2.237637684732e-04 
4 1 -1.072325576511e-04  -1.121307216008e-04   1.007848594886e-05 
5 1 -1.744974082189e-05   1.579446204075e-04  -2.276572734915e-04 
6 1  1.076977414065e-04   8.234141976922e-05  -2.037042849122e-04 
7 1 -2.171711114094e-04   3.140907440758e-05  -1.801356816065e-04 
8 1  1.134885933984e-04  -2.171241962553e-04   2.611321524048e-05 
8
Step 11000
1 1 -1.988149638615e-04   2.260894287293e-04   9.318338902011e-05 
2 1 -1.293778723384e-04  -2.874238661369e-05   9.387947492211e-05 
3 1 -1.227096225053e-04  -3.208153049525e-04   1.040116762563e-04 
4 1 -2.801524675307e-06   1.146204207722e-04  -2.068188423380e-05 
5 1  9.030738974352e-06   9.377002471429e-05  -2.151086117223e-04 
6 1  1.937116361821e-04  -1.264665141114e-05  -5.488296294832e-05 
7 1 -6.103967120233e-05  -3.098161429919e-04  -5.621086464418e-05 
8 1  2.443197961500e-05  -5.436968320705e-05  -9.893957531828e-05 
8
Step 12000
1 1 -3.095798279465e-05   1.115807655545e-04   8.230011444497e-05 
2 1  2.850752243149e-05   2.216651144799e-04   8.709021179603e-05 
3 1 -5.401156890448e-05  -2.855973052001e-04   4.051372913521e-05 
4 1 -1.175170080505e-04   1.093808511959e-04   1.102793282612e-04 
5 1  4.027346375784e-05  -2.142787026667e-05  -2.092962403931e-04 
6 1 -2.245009488225e-04   1.119153862796e-05  -1.583002406404e-04 
7 1  1.518868971762e-04  -2.102062599711e-04  -8.600671781751e-05 
8 1  4.199999555724e-06   3.490961093532e-05   3.810527087400e-05 
8
Step 13000
1 1 -1.167183921093e-04   2.763477073310e-05  -1.223281438676e-04 
2 1  9.650296393895e-05   4.589509268156e-05   1.802587080692e-05 
3 1  1.174405362131e-04  -7.649129265613e-05   5.045869633528e-05 
4 1 -2.592223856380e-04  -9.293872969924e-05   1.805671422929e-04 
5 1  8.268103069455e-06   1.508311264962e-04   4.194566718621e-05 
6 1 -2.095464428375e-05   6.296932286876e-05  -9.355689752859e-05 
7 1  8.460028375936e-05  -1.076537894184e-04   3.522354337097e-05 
8 1 -7.668423386194e-05   1.557144579935e-04  -5.531600621097e-05 
8
Step 14000
1 1 -3.088412216342e-05  -9.019993850421e-05  -1.471141270988e-04 
2 1  3.309635695845e-05  -2.409606558549e-05  -9.758956105425e-05 
3 1 -1.065732880600e-05   1.573172019140e-04  -1.339501227524e-05 
4 1 -2.091293502264e-05  -3.117377574982e-04   2.190710878370e-05 
5 1 -2.884137701642e-04   1.090163824823e-04  -8.036560012988e-05 
6 1 -5.576707633459e-05   3.502093679014e-05  -1.338236095370e-05 
7 1 -5.991533929419e-05  -1.965468624693e-04   2.127186505869e-04 
8 1 -1.231100516787e-04   2.946264545648e-05  -3.305680554357e-04 
8
Step 15000
1 1 -8.085145377101e-05  -3.805434168274e-05  -2.865268560831e-04 
2 1  1.236612441906e-04   1.208834360947e-04  -2.967220315396e-04 
3 1  3.220793911555e-05   1.062642480630e-04   2.016208949343e-04 
4 1  4.488873592091e-05  -3.455273394670e-05   3.301895756514e-04 
5 1 -1.317936553784e-04   4.069919559496e-05  -1.955384638674e-04 
6 1  7.464592460219e-05   1.738100558891e-04  -4.403957920801e-06 
7 1 -1.662316318772e-04   7.113393116278e-06   1.671320485148e-04 
8 1 -6.086929537988e-05  -1.379778059732e-05  -5.900896502979e-05 
8
Step 16000
1 1 -7.704438959041e-05   1.480978839819e-04  -2.605849888552e-04 
2 1 -1.298747144469e-04   3.879452949479e-05  -1.799310182323e-04 
3 1  9.153692023420e-05   1.471042514305e-05   1.772982964763e-04 
4 1  7.363369490267e-05  -5.319664282416e-05  -7.797418728329e-05 
5 1  1.706942753301e-04  -4.505571684453e-05   4.755946813214e-05 
6 1  2.936269553129e-04   1.587247804349e-04   2.025934985306e-04 
7 1 -2.550964198835e-04  -1.407182594033e-04   6.938292895812e-05 
8 1 -1.736355815318e-04   4.493782023943e-05  -1.690709659729e-04 
8
Step 17000
1 1  4.714990866768e-05   2.052252092249e-05  -1.587304840036e-04 
2 1  2.880537614476e-04   4.539100816834e-05  -4.155959498504e-05 
3 1 -7.591243029955e-05  -2.875533570204e-05   1.165054251172e-04 
4 1  1.243643050381e-04  -4.564868229716e-05   1.121931022381e-04 
5 1  1.144440529630e-04   2.389842040498e-04   2.151065674700e-04 
6 1 -2.175635133699e-05   6.572981143655e-05  -1.524538011111e-04 
7 1 -5.610427512196e-05  -4.727088839049e-05  -4.359386658285e-05 
8 1 -1.810097701957e-04   1.212062725331e-04   1.319418597841e-04 
8
Step 18000
1 1 -7.749551027617e-05   2.648903412791e-05   7.631508446958e-05 
2 1  1.815679873385e-04   6.522920522275e-05  -2.785395588387e-04 
3 1 -6.037762319185e-05   1.272222894427e-04   2.008099100277e-04 
4 1  4.606474045494e-05  -1.852723749447e-04   2.695026467552e-04 
5 1 -1.871393741368e-04   1.550376745222e-04  -1.069163789825e-04 
6 1  2.179233660954e-04   8.014265691225e-05  -1.206201815686e-04 
7 1  3.407285084475e-05  -4.542925481833e-05   1.026397851019e-04 
8 1 -1.739036729762e-04   2.260752363391e-04   4.670862588461e-05 
8
Step 19000
1 1  8.060360785860e-05  -3.111234539879e-04   2.293381178257e-04 
2 1  8.369473830422e-05  -1.066243133746e-05  -1.504673673093e-04 
3 1 -8.180001032524e-05   3.403619584489e-04  -4.466381908946e-05 
4 1  2.025555652665e-04   7.292643292895e-06   1.404871180369e-04 
5 1 -2.094337822262e-04   8.047598808163e-05   3.983555288169e-05 
6 1  1.382352397548e-04  -7.828562098565e-05   1.392145197034e-04 
7 1  1.360116922859e-05  -1.439146314086e-05  -5.402428178665e-05 
8 1 -5.224196350205e-05   1.967958463993e-04  -1.980376460739e-05 
8
Step 20000
1 1  1.579004920736e-04  -7.612157212406e-05   1.698257116486e-04 
2 1 -5.333619764966e-05  -3.947472984481e-05   2.925029981285e-05 
3 1 -9.807217666051e-05   1.359565735051e-04   1.585986354852e-04 
4 1 -6.783021686299e-05   1.403231060706e-04   2.029220576626e-04 
5 1 -1.721846511040e-04  -1.165626221151e-04   1.085374658259e-04 
6 1  5.408084767450e-05  -1.151226160700e-04   2.081975438731e-05 
7 1  5.348806682011e-05   1.923107747471e-04  -2.424358577170e-04 
8 1  3.164217112056e-04   1.699165370455e-04  -5.377359528242e-05 
8
Step 21000
1 1 -2.291017673868e-05  -1.695799779929e-04   2.347435851966e-04 
2 1 -5.688526060075e-05  -1.352389023734e-04  -3.914353190913e-04 
3 1  4.302643322333e-05   5.772115178376e-05   7.839437553942e-08 
4 1  2.864016980113e-04   1.375636048380e-04  -2.344481652528e-05 
5 1  1.239125138612e-04  -3.559480037367e-04   7.885886019039e-05 
6 1  1.973133944600e-04   7.847292957755e-05  -1.020355497084e-05 
7 1 -8.104323507611e-05  -5.028377587410e-05  -1.050709245520e-04 
8 1  1.673038942036e-04   7.310821832821e-05  -6.594389893534e-05 
8
Step 22000
1 1 -1.602911162136e-05  -1.439472591263e-05   1.522643015630e-04 
2 1  1.316974308791e-04  -1.133781414205e-04   3.029345974014e-05 
3 1 -2.846792382962e-04   1.327002943743e-04   5.017184463136e-05 
4 1  2.509144902037e-04  -1.653048524279e-05   4.236086232558e-05 
5 1 -8.138398035045e-05  -2.246388592564e-04   2.221732891972e-04 
6 1 -4.096154360430e-05   8.483095698943e-06   6.836965781675e-05 
7 1 -1.099035017488e-04   1.486955573771e-04  -2.784799966976e-04 
8 1  6.334791193469e-05   5.121927372255e-05  -4.400941617141e-05 
8
Step 23000
1 1  7.230665620964e-05   3.284971110659e-05   6.435742654813e-06 
2 1  9.545863103349e-05  -9.960016361410e-05  -1.505435096452e-04 
3 1 -2.057415472294e-04   1.851757138861e-04  -2.493496440189e-05 
4 1  3.350834808469e-04  -4.179520080508e-05   2.398082706031e-04 
5 1 -7.971890598655e-05  -2.611679511255e-04  -9.743946840938e-05 
6 1  2.244179652340e-04  -1.707568263381e-04   5.241938311610e-05 
7 1  2.812682505728e-06   3.258886993461e-05  -1.033779567808e-04 
8 1  3.211441852436e-05   2.806126140451e-05  -1.536595059800e-04 
8
Step 24000
1 1  6.776356814867e-05   1.560363032250e-04   1.914009426311e-04 
2 1 -5.899581582713e-05  -2.187285385466e-05  -4.966747056543e-05 
3 1 -1.076813819941e-04   2.472247927013e-04   1.467345227978e-04 
4 1  2.198414583848e-04   1.709123285549e-04   2.426753815834e-04 
5 1  3.040890649031e-05  -2.085027695060e-04  -2.911026312092e-04 
6 1  3.934576142140e-05  -2.615362694606e-04   2.006033879747e-04 
7 1  2.217788446568e-05  -3.614205605181e-04  -4.430987864304e-05 
8 1 -1.064962786929e-04  -7.957494326545e-06   1.182629081238e-04 
8
Step 25000
1 1 -6.151940018011e-05   4.005568014256e-05  -1.651820959181e-04 
2 1  3.285341245485e-05  -3.074573260608e-05   6.807008877230e-05 
3 1  2.546897302417e-05  -1.218622337838e-04  -1.197035920840e-04 
4 1 -6.591396938547e-05   3.031604058647e-05  -1.086975612613e-04 
5 1  2.170637148336e-05  -2.700986179543e-04  -3.742780049136e-05 
6 1 -1.775161104215e-04  -1.030100272999e-04  -7.083951342147e-05 
7 1  5.103432852521e-05  -7.784992193771e-05  -8.489483062770e-05 
8 1  6.611020807078e-05   5.601099410606e-05   6.959805986417e-05 
8
Step 26000
1 1 -1.880878690249e-04  -6.527585685521e-06  -1.566565660339e-06 
2 1  9.068088886630e-05  -6.493027448069e-05   2.425311542412e-04 
3 1  1.520195273155e-04  -2.365916363031e-05  -1.861229193537e-04 
4 1 -6.462269481891e-06   2.702290679867e-04  -2.431026903620e-07 
5 1 -5.262156947490e-05  -1.014447986204e-04  -4.951179175457e-05 
6 1  2.362724216753e-05  -8.864327869669e-05  -1.558635945728e-04 
7 1  2.886664190266e-05   4.560539227533e-05  -7.776939530311e-05 
8 1 -6.323101685640e-05  -3.094670295818e-04   1.517928897434e-04 
8
Step 27000
1 1 -7.355784067380e-06   4.304813445495e-05  -2.380819847716e-05 
2 1 -7.733811815415e-05  -1.443641837868e-05  -4.633065589846e-05 
3 1  1.150899767241e-04   1.241234901883e-04  -1.384417126233e-04 
4 1  7.209067602329e-05   1.265402546826e-04   9.087852009486e-05 
5 1 -1.490708993175e-04  -1.014726366889e-04  -1.544862069022e-04 
6 1  1.949978236285e-04   4.790472267676e-05   1.621253795944e-04 
7 1 -1.881519414291e-04   3.746660721489e-05  -2.627541578288e-04 
8 1  5.954950575512e-05  -1.229375516220e-04  -4.755921236439e-05 
8
Step 28000
1 1 -1.232470452430e-04   2.936709083823e-05   1.449743800727e-04 
2 1 -5.097099958743e-05   1.052071570925e-04  -1.901570700796e-04 
3 1  1.607447018528e-04   3.203262781697e-04  -1.738457801896e-04 
4 1  4.839257213203e-05   1.074136401269e-04  -2.465951193846e-04 
5 1  4.379228122952e-05  -1.813036759290e-04  -7.003630058553e-05 
6 1  1.992936265257e-04   2.057004247771e-04   3.897286377522e-05 
7 1 -1.927097671439e-04  -7.060762930117e-05  -2.773042716623e-04 
8 1  1.439749990045e-05  -3.683286996267e-04   6.813486435994e-05 
8
Step 29000
1 1 -2.003162144772e-04   2.158190883752e-04  -1.166784710302e-06 
2 1 -8.531031415803e-05  -4.664376493516e-05  -1.006999521429e-04 
3 1  2.702593130049e-06  -2.617327740334e-04  -6.469708176362e-05 
4 1 -1.080093024325e-04   2.535339091956e-04   1.358610169810e-04 
5 1 -4.499965168223e-05   5.375658448289e-05   1.333657384898e-04 
6 1 -1.918667216147e-04   2.119436124180e-05   2.683724341226e-05 
7 1  8.528716114025e-05   2.154978808361e-04  -1.187561254664e-04 
8 1 -2.995164577290e-04  -3.755574067611e-04  -1.153735308338e-04 
8
Step 30000
1 1  2.579594488502e-04   6.643736240833e-05  -7.288288170772e-05 
2 1 -1.006205854696e-04   1.026123045321e-04   5.287158641872e-05 
3 1  9.908993712934e-05  -1.107853305524e-05  -2.991366868047e-04 
4 1 -1.469601945089e-04   1.101518673921e-04   1.272229223859e-04 
5 1  1.341538645297e-04  -5.972489688741e-05  -3.660946547126e-05 
6 1 -9.929453899376e-05   2.599528858522e-05  -7.368172692055e-05 
7 1 -1.161046562748e-04   8.941058480613e-05  -2.197037764652e-05 
8 1 -1.204483419737e-04  -3.678863033710e-04   1.305363733857e-04 
8
Step 31000
1 1 -2.365517254580e-04   2.074329823191e-04  -7.711054267141e-05 
2 1  1.632790643785e-04   5.451308871375e-05   7.753955076335e-05 
3 1 -3.893180192143e-05   3.659445571248e-05   9.936838386283e-05 
4 1 -2.994702807133e-04   6.455789056444e-05   1.330039092220e-04 
5 1 -9.698574169764e-05  -1.503752943708e-04   5.521812773663e-05 
6 1 -1.741466493702e-05   2.392295800671e-04  -1.828869577838e-04 
7 1  4.944448336011e-05   1.349939523492e-04   3.223387922771e-05 
8 1 -8.205193873685e-05  -1.809214849251e-04   1.773806949734e-04 
8
Step 32000
1 1  7.660918546741e-05  -8.182474331701e-05  -3.501199744089e-04 
2 1  2.786970480884e-04   1.525701317347e-04  -2.077295246707e-04 
3 1 -1.851608340177e-04  -3.597318341586e-05   1.892409078483e-04 
4 1 -3.049317405290e-04   5.998950217620e-05   2.521685987076e-05 
5 1  2.297097607838e-05  -1.245212923969e-05  -6.041240024148e-05 
6 1  1.072507349833e-04   9.796362949966e-05  -1.215182750135e-04 
7 1 -8.805250970129e-05  -2.844327268973e-05   2.605994467251e-05 
8 1 -3.356721370488e-05  -1.102301770375e-04   1.310396452095e-04 
8
Step 33000
1 1 -4.605841076939e-05   8.329052241332e-05  -1.600387738507e-04 
2 1 -1.224911923902e-04   4.982847015174e-05   4.081012922080e-06 
3 1 -1.243080477038e-04  -2.355247827203e-04   2.391612903514e-04 
4 1 -1.053498603694e-04  -8.836982400279e-05  -7.088128941054e-05 
5 1 -1.327703989085e-05  -3.058582655461e-04   2.266164403489e-05 
6 1 -1.161710635288e-04   9.828859465547e-05  -1.939461726291e-05 
7 1 -1.478849310734e-04   3.828092451995e-04  -8.166783762127e-06 
8 1  4.560923172277e-05   1.014588094877e-04   8.166773359992e-06 
8
Step 34000
1 1  3.073395725662e-04   5.031973436341e-05  -1.519022774809e-04 
2 1  1.654070532623e-04  -2.792890371324e-04  -1.355889921779e-04 
3 1 -6.036493287653e-05  -1.607365984102e-05   7.057516815116e-05 
4 1  2.667436446932e-06  -1.121121560775e-04  -1.726958485700e-04 
5 1  5.556434734398e-05  -1.414136944349e-04   9.289548693646e-05 
6 1 -2.397932586157e-04   3.808006314985e-05   8.854445745986e-05 
7 1  2.332796828521e-04   2.174173215918e-04   6.852562274178e-05 
8 1  1.203496437820e-04  -1.353114694003e-04  -7.928316783738e-06 
8
Step 35000
1 1  8.997047305112e-05  -1.058813160173e-04   1.940969616471e-04 
2 1  1.485233497288e-04   6.977518288056e-05  -1.060907499872e-04 
3 1 -2.804869385465e-04  -8.793949151266e-05   3.538696974885e-05 
4 1 -9.359768249545e-05  -4.192784885441e-04   3.255240841581e-05 
5 1  3.040544828898e-04   7.628832378969e-05   9.458429109334e-05 
6 1 -1.184959567310e-04   1.675313423213e-04  -1.573390925833e-04 
7 1 -9.532086424677e-05   1.981050465995e-06   5.185476757797e-05 
8 1  2.188226007551e-05   7.838145454730e-05  -6.518015136327e-05 
8
Step 36000
1 1  1.653558787135e-04  -1.321686942214e-04   1.100403898274e-04 
2 1  1.584008950716e-04  -4.207590023444e-05  -1.423020060236e-04 
3 1 -7.163624560797e-05  -2.536644723010e-04  -5.244298162177e-05 
4 1  3.754330581921e-06  -1.983396079426e-04   2.119418351064e-05 
5 1  3.576198061399e-04   6.847507118125e-05  -9.210059767807e-05 
6 1 -2.029337743051e-04   1.985688330308e-04   5.975231207336e-06 
7 1 -3.071919680468e-04  -7.639880599550e-05   3.396901939154e-04 
8 1  2.816925574467e-04   3.807482894299e-05  -2.697584477228e-04 
8
Step 37000
1 1  1.692315582068e-04  -1.658715948258e-04   8.242021990537e-05 
2 1  2.738609767861e-04  -6.537366156735e-05  -1.313531001643e-04 
3 1 -1.675234261273e-04  -1.957259566174e-04   2.291670190005e-04 
4 1 -2.996656563961e-05  -2.124511397935e-04  -2.383208506301e-04 
5 1  2.027744847506e-04  -1.081491537348e-04  -7.556759207547e-05 
6 1  2.160507609360e-04   3.251964198176e-04   1.013097039154e-04 
7 1 -1.614508244163e-04  -1.265999623962e-04   1.139098262812e-04 
8 1 -2.670300706084e-05   1.242600398425e-04  -5.424489456875e-05 
8
Step 38000
1 1 -1.843687795507e-05   1.063501921656e-04  -1.354271087936e-04 
2 1  3.198472113504e-04   1.919826666665e-04  -1.491883435428e-04 
3 1  1.230718578410e-04   1.471728558196e-04   2.717208677021e-04 
4 1  4.688832695103e-05  -1.502416661958e-04   7.899689760323e-05 
5 1  1.647509054528e-04   1.004953017603e-04   8.701905047460e-05 
6 1 -3.479811334474e-05   5.730262124846e-05   2.153071283654e-05 
7 1 -1.217731935979e-04  -1.608186368438e-04   1.989329860351e-05 
8 1 -1.167875602486e-04   1.188203100693e-04  -8.472793256716e-05 
8
Step 39000
1 1 -2.595449162442e-05   2.272093345694e-04  -8.260011702130e-05 
2 1 -1.006510625714e-04  -3.722443133762e-04   8.330503592428e-06 
3 1  2.392220431351e-04   1.084068614789e-04   1.405620252545e-04 
4 1  1.695861272063e-04  -2.441730508834e-05  -1.354983357851e-04 
5 1  4.855577265788e-04   6.082308005256e-06  -9.524902822436e-05 
6 1 -1.165669240386e-04  -3.276346709151e-05  -3.106344551301e-04 
7 1 -5.548792045974e-05   9.469688501787e-05  -1.118668898112e-04 
8 1 -2.025324219348e-04  -3.305317288363e-05  -2.336208566027e-05 
8
Step 40000
1 1  1.518231826673e-05   1.786342538733e-04   1.913065415787e-05 
2 1 -1.882285525639e-04  -1.189888388975e-04   9.004254033872e-08 
3 1  3.399937161836e-05   2.213454860425e-04  -4.891406023710e-05 
4 1 -2.623838692713e-04  -2.153449446597e-05  -1.794379681963e-04 
5 1  2.400029979673e-04   2.459899884560e-05   3.185598412488e-04 
6 1 -5.703264482690e-06   1.851800192925e-04   5.794133457804e-05 
7 1 -1.256797675983e-05  -9.382135366598e-05   3.723517475935e-05 
8 1 -2.579402690461e-05  -2.782944848117e-05  -9.308658585767e-05 
8
Step 41000
1 1  1.331331125900e-05   4.888294086745e-05  -8.868990965174e-05 
2 1 -9.989245066136e-05   3.610521962279e-05  -2.177541833087e-04 
3 1  9.174064342624e-06  -3.698536102554e-06  -4.950822774279e-05 
4 1  2.084540211816e-04  -1.162518762972e-04  -1.612829254291e-04 
5 1  2.509312106551e-04   1.491863495224e-04   6.692302179465e-06 
6 1  8.481024591107e-05   1.257340906839e-04  -2.383871626383e-05 
7 1  1.092283934801e-05   8.874454710609e-05   9.402078150328e-05 
8 1 -1.899557193324e-04  -4.090227699605e-05  -7.237960187917e-05 
8
Step 42000
1 1  1.068245807453e-04   1.964760703733e-04   1.125482450505e-04 
2 1 -1.536368759377e-04   8.098082357973e-05  -1.685361280706e-04 
3 1 -3.406851178499e-04   2.266372077909e-04  -1.089962368262e-04 
4 1 -1.260853167419e-04   2.142468718540e-05   1.488870415297e-04 
5 1  1.065301809639e-04   1.411877738150e-04   3.549719054174e-05 
6 1  2.646738043464e-04  -1.822206211392e-05   2.020672282964e-04 
7 1 -3.622829941218e-05  -9.739360012810e-05   8.047203344067e-05 
8 1  2.602210547685e-05   6.218989041917e-05  -2.793952443896e-05 
8
Step 43000
1 1 -8.666695399989e-05   8.198507478115e-05  -5.276839753740e-05 
2 1 -5.327590153854e-05  -2.193431441788e-04  -4.634631070622e-05 
3 1  1.089865089784e-05   7.132271958582e-06  -3.098833920804e-04 
4 1 -1.715555503391e-05   2.183738363399e-05  -1.664687897820e-04 
5 1 -5.231328067374e-06  -4.437963486288e-05  -1.495411334627e-04 
6 1  7.061127904023e-05   3.423389824644e-04   6.026409580721e-05 
7 1  6.848205623101e-05  -5.779339099874e-05  -1.204050869348e-04 
8 1 -2.467807444199e-04   2.977631559785e-05   1.238697685656e-04 
8
Step 44000
1 1  1.695114766954e-04   1.342360261371e-04   1.443067014473e-04 
2 1 -2.256242222901e-04  -2.337262728311e-04   1.305266853582e-04 
3 1 -4.365958054675e-05   2.049344312107e-04  -4.385496990918e-05 
4 1 -1.557966150253e-04   2.853529824104e-04  -1.220870758908e-05 
5 1 -5.066271979609e-04  -6.988370178819e-07  -6.833601605368e-05 
6 1 -1.387883313868e-04   1.067622370019e-04   2.445095710648e-05 
7 1  1.372640570075e-04  -1.178340646970e-04   1.162465604154e-04 
8 1 -1.912562442986e-05  -5.024034330912e-05   1.281064819400e-04 
8
Step 45000
1 1  1.265041254481e-04   1.375865213776e-04  -1.207690860182e-04 
2 1 -2.611360740045e-04  -3.968729057000e-04   3.192596790356e-05 
3 1 -6.302433508842e-05   3.047709518754e-04  -2.687327718384e-05 
4 1 -8.967234020507e-05   7.635294752852e-05  -3.678928797820e-05 
5 1 -1.788453498434e-04   1.067149096202e-04   3.448332193772e-05 
6 1 -1.247423879007e-05  -6.834803511232e-05   6.136599653724e-06 
7 1 -3.553864114405e-05   9.977567648445e-05   7.868556018521e-06 
8 1 -1.493063635192e-04   1.589355056043e-05   1.030018879859e-04 
8
Step 46000
1 1 -2.470422167062e-04  -1.812881177461e-04   1.029162590888e-05 
2 1 -2.496904346085e-04   7.183342181900e-05   5.771687009432e-05 
3 1 -7.838324519045e-06   9.928839233792e-05   1.061109130260e-04 
4 1 -3.879269313927e-04   2.129735558413e-04  -3.693846148813e-05 
5 1 -1.039551349962e-04   3.166499078930e-06  -2.195637531447e-04 
6 1 -9.760188869052e-05   1.664554109153e-04  -4.553580066457e-05 
7 1  5.650681542150e-05  -4.709859216807e-05  -9.496240364925e-05 
8 1 -8.598028208992e-05  -2.067512595518e-04   3.831193621295e-04 
8
Step 47000
1 1 -8.288388721348e-05  -5.066312075898e-05   7.123685301788e-06 
2 1 -3.077400194427e-04   1.690801951233e-04   4.395849539695e-05 
3 1 -9.051827200953e-05   6.273471286573e-05  -8.132975295633e-05 
4 1 -1.580286172177e-04   2.625091248099e-04   7.948111356623e-05 
5 1  6.248456240037e-05  -1.613721817442e-04  -1.151458109705e-04 
6 1 -3.458161874868e-05   1.952851310334e-04   1.843120319182e-05 
7 1  1.894214105932e-04  -9.052340464029e-05  -2.229488380252e-04 
8 1  2.630558174629e-05  -1.967127431608e-04   7.942012062067e-06 
8
Step 48000
1 1  7.470460101044e-05   1.177061941471e-04  -1.198945859932e-04 
2 1 -9.307180273447e-05  -2.396263307490e-04   2.614679402004e-04 
3 1 -2.937355147549e-04   2.087070231767e-06  -1.377667700470e-04 
4 1 -9.838373723742e-06   2.212167478902e-05  -9.219094016584e-05 
5 1 -2.070704613083e-04  -3.446744018848e-05  -1.009354788823e-04 
6 1 -1.488777664878e-04  -1.622033650236e-04  -2.151999693180e-04 
7 1  1.049155489798e-04   4.243336431364e-05  -6.450275906015e-05 
8 1  2.290756147418e-05  -2.805640357941e-04   2.219365637427e-05 
8
Step 49000
1 1 -8.080062608344e-05   1.511019872417e-04  -1.183342998190e-04 
2 1  2.522592276283e-05  -8.213089006499e-05   2.653462696618e-04 
3 1  2.369131888547e-05   1.717819630742e-04   1.864964844578e-05 
4 1  8.526789402741e-05  -1.605089688121e-05   5.979794537269e-05 
5 1 -1.703553835578e-04   7.139290552242e-06   2.653615195768e-04 
6 1  2.428852891343e-04  -7.076961611555e-05  -1.251990606105e-04 
7 1  2.176504798243e-05  -1.389329730176e-04  -1.297570756294e-04 
8 1 -4.643672902765e-05  -2.198986369621e-04   2.149856127487e-04 
8
Step 50000
1 1  9.288300392752e-05   4.396716907427e-06  -9.207652480737e-05 
2 1  1.392102393864e-04   6.083668483076e-06   1.944155118439e-04 
3 1  1.433498934920e-04  -8.751385575391e-05  -3.989111925560e-05 
4 1 -1.437414503109e-04   6.921601520090e-05   7.001660755190e-05 
5 1 -1.675595618268e-04  -2.097601108774e-04  -2.105678387767e-04 
6 1  5.309750710675e-05  -9.199830221143e-05  -1.369401495476e-04 
7 1 -1.507384019614e-04  -1.751461417021e-04  -2.107322349149e-04 
8 1 -1.124642679638e-04  -3.233122917658e-04   6.479939957603e-05 
8
Step 51000
1 1  7.709717976694e-05  -1.860302630088e-04  -1.576270051947e-04 
2 1  1.434543597929e-04  -3.408054077544e-05   1.575328754003e-04 
3 1  9.600207809128e-05  -6.187236816590e-05   1.583299349388e-04 
4 1  1.102952241585e-05   1.876745138819e-04   1.369682634374e-04 
5 1  6.533874985156e-05   1.236037120179e-04  -1.387730244684e-05 
6 1  3.201881446202e-05  -1.633432160858e-04   1.640973124917e-04 
7 1  3.218251993309e-05  -3.610882616330e-05  -1.175069577985e-04 
8 1 -1.703598212019e-04  -2.270281580613e-05   7.684228080703e-05 
8
Step 52000
1 1  2.664752838175e-04  -1.345320357315e-04  -1.783616006607e-04 
2 1  2.461479567748e-04   5.755553697579e-05   1.669192953131e-04 
3 1  1.713966143136e-04  -1.079060397939e-04   1.435207864508e-04 
4 1  1.008389816240e-04   7.630775879197e-05  -5.557177661792e-07 
5 1 -2.349720366776e-04  -8.262146293255e-05  -1.005149487247e-05 
6 1 -1.249563063648e-04  -2.570315121843e-04   3.385779996490e-05 
7 1  1.335094149708e-04   4.935956533526e-05  -1.309925785537e-04 
8 1 -5.291395583546e-05  -1.742251328764e-04  -2.586537923254e-04 
8
Step 53000
1 1 -9.975364623355e-05  -4.600550542214e-05  -2.192281579942e-04 
2 1  9.493050417873e-05  -4.246612587623e-05   2.366292058781e-04 
3 1 -1.275662119210e-04   2.114353631100e-05  -3.358753308352e-05 
4 1  2.281740112583e-04   9.248549422063e-05   1.161648217094e-04 
5 1  6.955080839655e-05  -1.819420897058e-04   2.081947048928e-04 
6 1 -1.039523471814e-04   4.899004665952e-05   8.794596945734e-05 
7 1 -2.509526995896e-04   1.610917056067e-04  -1.529964362880e-06 
8 1 -5.653020672144e-05  -1.812170894833e-04  -1.120556167029e-04 
8
Step 54000
1 1  1.942018455579e-04   1.082905358156e-04  -2.806950814430e-04 
2 1  9.356961092570e-05   1.027580829160e-04   2.763606545808e-04 
3 1 -1.728609442255e-04  -7.080627849168e-05  -7.108464185969e-05 
4 1  1.125230165059e-04  -1.523872888900e-04   5.607464112992e-05 
5 1  2.057498342009e-05   5.528848742215e-05   2.813980938649e-05 