8
Step 0
1 1  0.000000000000e+00   0.000000000000e+00   0.000000000000e+00 
2 1  0.000000000000e+00   0.000000000000e+00   0.000000000000e+00 
3 1  0.000000000000e+00   0.000000000000e+00   0.000000000000e+00 
4 1  0.000000000000e+00   0.000000000000e+00   0.000000000000e+00 
5 1  0.000000000000e+00   0.000000000000e+00   0.000000000000e+00 
6 1  0.000000000000e+00   0.000000000000e+00   0.000000000000e+00 
7 1  0.000000000000e+00   0.000000000000e+00   0.000000000000e+00 
8 1  0.000000000000e+00   0.000000000000e+00   0.000000000000e+00 
8
Step 1000
1 1  2.748579361785e-04   4.829600964222e-05  -3.087387728424e-04 
2 1  1.866849762595e-04  -2.871246015436e-04  -7.967257217053e-05 
3 1 -2.290592453257e-04  -2.501631140295e-04  -3.074408027257e-05 
4 1  2.372390495603e-04  -2.436748519468e-05   6.813187865730e-05 
5 1  2.801943242895e-04  -9.809406777914e-05  -2.393377927151e-04 
6 1  3.410561402905e-05   3.179268055973e-04   1.988051376092e-04 
7 1 -4.604026284886e-05   3.810055947550e-05  -2.983260610227e-04 
8 1 -5.285242950735e-05  -5.016491791574e-05   1.092969435435e-04 
8
Step 2000
1 1  1.380986434870e-04   1.491060613045e-05  -1.173238162424e-04 
2 1  1.917292919383e-04  -1.892932130322e-04  -2.552910365234e-04 
3 1  2.729334783707e-05   1.883042212321e-04   1.266723609683e-04 
4 1  4.933097973058e-05   4.804364540635e-05  -2.411527037075e-04 
5 1  2.582923805644e-05   1.517990563155e-04   1.196709734535e-04 
6 1 -8.191747678197e-05  -1.524676233316e-04   1.041205046191e-04 
7 1  7.707362514475e-06  -5.984511898402e-05   1.020086950815e-04 
8 1 -1.751888132395e-05  -2.007956105411e-04  -3.008937574508e-04 
8
Step 3000
1 1  1.794018159486e-04  -2.323210508617e-05  -1.819393328341e-04 
2 1  6.294943644749e-05  -3.554598021550e-04   2.432493487182e-04 
3 1 -2.372442745460e-04  -2.656033097501e-04   6.941053813588e-05 
4 1  1.197275494632e-04  -3.058992014706e-05  -5.380124805749e-05 
5 1  3.554891430658e-04  -1.694735447665e-04  -1.215780393328e-04 
6 1  1.088919163716e-04   3.920432717349e-04   1.264745242662e-04 
7 1 -2.884629392590e-05   6.748207130121e-06  -3.283858952686e-04 
8 1 -5.682281162247e-05   2.616378086424e-04   3.381059830758e-04 
8
Step 4000
1 1 -3.119181707271e-05   5.449118021971e-05  -6.374326450346e-06 
2 1  1.720918919411e-04   7.847566082444e-06  -1.982224277403e-04 
3 1  5.897968080003e-05   2.625093855780e-04   4.180965314686e-05 
4 1 -1.041967243059e-05   1.059982239756e-04  -3.346649046194e-05 
5 1 -1.484438855473e-04   1.513413805091e-04   5.388680690307e-05 
6 1 -1.605692055834e-04  -2.208004232373e-04   6.104853817096e-05 
7 1 -2.096545841275e-05   1.983957464572e-05   1.866924960260e-04 
8 1  1.508497751820e-05  -1.430890778703e-04  -3.336507253806e-04 
8
Step 5000
1 1  1.555382496449e-04   1.279709800340e-05  -4.911751843718e-05 
2 1 -6.985047819700e-05  -2.919015422015e-04   3.490280318908e-04 
3 1 -9.415875785189e-05   1.070252360468e-05   8.297304203183e-05 
4 1 -1.084042682434e-04  -9.347596467934e-05  -2.047621431914e-04 
5 1  1.676277571901e-04  -1.666809364557e-04   1.413711755691e-04 
6 1  5.342279542804e-05   1.519398068541e-04   1.348567795375e-04 
7 1  9.000729408795e-05   6.991059256505e-05  -1.217041672941e-04 
8 1  6.056378498751e-05   2.275729960173e-04   1.333896627325e-04 
8
Step 6000
1 1 -1.819291530247e-04   4.103864572625e-04   1.163473333440e-04 
2 1  4.617450515310e-05   1.287958958013e-04  -2.227663138635e-04 
3 1 -1.035640074521e-04   4.714422663702e-06  -4.986775995996e-05 
4 1 -3.567954934104e-05   1.637215540242e-04   2.513748731648e-04 
5 1 -1.017284442879e-06   1.492123571510e-05  -3.918703571074e-05 
6 1 -8.990787671515e-05  -3.632082392532e-05  -9.324506456485e-05 
7 1 -1.064761715878e-04   1.611543581019e-04  -1.544356918110e-05 
8 1 -6.768321152669e-05  -1.963505898780e-04  -5.233096336628e-05 
8
Step 7000
1 1  1.877523603247e-04  -9.521726497801e-05  -8.121167267900e-05 
2 1 -1.119708856661e-05  -2.078814741127e-04   9.462376499982e-05 
3 1 -7.402662286541e-05   8.729589497511e-05   2.722705797471e-04 
4 1 -9.624848312989e-06  -3.689110879661e-05  -2.782536171248e-04 
5 1  9.549222689401e-05   3.053525338719e-05   2.361365032480e-04 
6 1 -5.637159476276e-05  -6.722024322240e-06   8.567016851292e-05 
7 1 -3.445048980181e-05  -1.091684266333e-04   5.323386125517e-05 
8 1  1.535406891314e-04   2.755412408599e-05  -1.020564014011e-05 
8
Step 8000
1 1 -1.809514459801e-04   3.760980598193e-04   1.188716768428e-04 
2 1 -3.946789291673e-05   1.521023448140e-04  -9.603839497841e-05 
3 1 -9.951867535935e-05  -1.257014379336e-04  -1.684766045309e-04 
4 1  7.425335401661e-05   1.175355647360e-05   8.982977060359e-05 
5 1  4.695782932877e-05  -3.933234132160e-05  -1.351771342937e-04 
6 1 -1.061972435751e-04   1.269501704482e-04  -1.636040644426e-04 
7 1 -8.873218884493e-05   1.018071961067e-04  -5.388785069079e-05 
8 1  6.691088404247e-05   4.241649599754e-05   1.316089622841e-04 
8
Step 9000
1 1  1.961794992913e-04  -1.931617661562e-04   1.348666780868e-05 
2 1  9.108730491913e-05  -1.419272672133e-04  -5.126803216234e-05 
3 1  5.807209876700e-05   1.593725063976e-04   2.244440000887e-04 
4 1 -2.533548691328e-05   6.773715175009e-05  -1.381397390883e-04 
5 1 -1.382233551322e-04   6.315280777998e-05   1.743931369393e-04 
6 1 -1.644346949107e-04  -2.236073609290e-04   1.065906907778e-04 
7 1  7.924655494780e-05  -1.320761210409e-04   1.267047936403e-04 
8 1  1.305817638361e-04  -1.264692504988e-05  -2.673626345042e-04 
8
Step 10000
1 1  2.687748251807e-05   1.665262128161e-04  -2.962443568724e-06 
2 1 -1.031734827854e-04   4.811086797548e-05   1.448739781599e-04 
3 1 -1.918046805141e-04  -2.795523797252e-04  -1.852563902499e-04 
4 1 -5.101116604761e-05  -2.333740772441e-04  -3.724402435197e-05 
5 1  1.079811851623e-05  -1.902547687923e-04  -7.597772110042e-05 
6 1  1.226543998874e-04   2.248799870981e-04  -1.014232628520e-04 
7 1  2.685673139391e-04   2.687534057979e-04  -1.105825374273e-04 
8 1 -1.399962932341e-04   8.937347101446e-05   1.930230820540e-04 
8
Step 11000
1 1  4.643163718659e-05  -1.442166898647e-04   5.807822789241e-05 
2 1  7.771511849320e-05  -6.338190689208e-06  -2.153150498330e-04 
3 1  6.634598994123e-05   2.659464681739e-04   1.825391753171e-04 
4 1  3.771658932887e-05   4.670533812962e-04   6.097423470993e-05 
5 1 -4.281682561592e-05   1.301939505474e-04   8.846655881185e-05 
6 1 -7.258964837697e-05  -1.464345091205e-04   9.106106967324e-05 
7 1 -5.558391135503e-05  -1.409989009618e-04   5.419279891760e-05 
8 1  1.490739226561e-07  -1.505860008135e-04  -1.348027505170e-04 
8
Step 12000
1 1 -6.576727510544e-06   1.405072113807e-05   7.322172906170e-05 
2 1 -1.389852837725e-04  -5.584554535769e-05   2.326393496833e-04 
3 1 -1.814560045310e-04  -2.153678509201e-04  -3.382384605541e-06 
4 1 -4.563235493161e-05  -2.141588073300e-04  -4.848597294820e-05 
5 1  4.249509573326e-05  -2.265981086139e-04  -8.073757189134e-05 
6 1 -6.694418842897e-05   7.798362165385e-05  -2.985952829101e-05 
7 1 -1.599564282179e-05   2.079232152402e-04  -1.260522616517e-04 
8 1  5.219757018899e-05   1.574149121187e-04   2.875748369461e-04 
8
Step 13000
1 1 -1.037475664378e-04  -9.968559373266e-06   1.195163180927e-04 
2 1  1.389419200847e-04   1.375444544108e-04  -3.281167090598e-04 
3 1  8.591493233115e-05   2.152461722510e-04   2.244861040084e-05 
4 1  1.030011076763e-04   2.899348416981e-04   1.608172172930e-04 
5 1  3.937345032810e-05   1.522011307297e-04   8.435472951302e-05 
6 1 -1.205769054828e-04  -5.048511434224e-05  -1.365422578328e-05 
7 1  1.225366307817e-04   2.890843885771e-05  -1.928603247841e-05 
8 1  3.441808557347e-05  -9.021388626346e-05  -1.517939595591e-04 
8
Step 14000
1 1  2.537835425843e-04  -1.151996573863e-04  -1.282489640775e-04 
2 1 -1.527194799928e-04  -1.779260269632e-04   3.097627396186e-04 
3 1 -1.302637940602e-04  -1.855000312505e-04   1.906799306945e-04 
4 1 -3.923549848193e-05  -3.436130028023e-04  -2.128519281475e-04 
5 1 -1.226689530605e-04  -3.041319487563e-05   3.884772609011e-05 
6 1 -1.344315776127e-04   1.886859760072e-05  -1.824235254805e-05 
7 1 -5.215317721124e-05  -1.387328887250e-05   2.495953541442e-05 
8 1 -1.049071430791e-04   8.151562874825e-05   3.064901669452e-05 
8
Step 15000
1 1 -2.225092268184e-04   7.082490125463e-05   1.041320490910e-04 
2 1  1.937105146482e-05   1.477320252236e-04  -1.759915120739e-04 
3 1  4.648581130319e-05   1.148555614615e-04  -2.536341490464e-04 
4 1  5.380286541321e-05   1.148026557752e-04   7.472898968853e-05 
5 1  1.105081676276e-05   7.893227251642e-05  -1.949388952472e-05 
6 1  2.255619072955e-04   5.806514542588e-05  -1.413507180602e-04 
7 1 -3.814471391631e-06   4.628469635226e-06   5.191165888218e-05 
8 1 -6.994870569263e-05  -2.410266930404e-04  -4.418966807038e-05 
8
Step 16000
1 1  1.330027936721e-04  -1.579275116831e-04  -7.887811985176e-05 
2 1 -9.843914358583e-06  -1.856427711066e-04   1.200531855300e-04 
3 1 -8.154068099294e-06   1.656595563387e-05   2.846406452457e-04 
4 1 -4.406014948630e-05  -6.537629363858e-05  -2.195686519732e-04 
5 1 -2.931728943125e-05  -5.456576002323e-05   7.600098187801e-05 
6 1 -2.132065906649e-06  -5.251630675113e-05   6.257742870389e-05 
7 1 -2.059492173480e-04  -1.087892511547e-04   1.610456795889e-05 
8 1  1.277607544426e-04   7.051438696361e-05  -1.066521270740e-04 
8
Step 17000
1 1 -2.434441465354e-04   1.207849629837e-04   1.256457944482e-04 
2 1 -1.304704210578e-04   1.846054619166e-04   4.439742062332e-05 
3 1 -2.774100555957e-05  -1.652122323563e-05  -3.218970854107e-04 
4 1  3.150828443025e-05  -9.811943541454e-05   1.850544905852e-04 
5 1  1.053535773141e-04  -1.879583613225e-04  -1.712909907588e-04 
6 1 -2.459297791995e-04   2.373991895620e-04  -1.615295287348e-04 
7 1  2.685625286892e-05   1.789759639553e-04  -1.211175395424e-04 
8 1  1.864451067741e-05  -5.105085661410e-05  -8.277503808196e-05 
8
Step 18000
1 1  1.650668676738e-04  -1.583104209658e-04  -7.317243807121e-05 
2 1  9.457255893912e-05  -7.160651672586e-05  -2.752544842724e-05 
3 1  7.009707543389e-05   9.556577852757e-05   2.156983757532e-04 
4 1 -3.363607929882e-05   1.090672277309e-04  -1.273338792544e-04 
5 1  7.575572992182e-06   1.932897885853e-04   7.331501608174e-05 
6 1  6.462530275154e-05  -1.076474346104e-04   1.111439540296e-04 
7 1  2.204651785805e-04  -2.381862734512e-04   1.910627024423e-04 
8 1 -6.730953390654e-05  -3.272039998638e-05  -1.808333856927e-04 
8
Step 19000
1 1 -1.051208685982e-04   1.607943174203e-04  -1.725623984738e-05 
2 1 -2.151053375321e-04   6.295726067597e-05   1.776042837344e-04 
3 1 -1.458630758233e-04  -1.126880868893e-04  -2.055219753529e-04 
4 1  9.221609567578e-06  -2.512588787316e-04   5.421267023098e-05 
5 1  1.460989143897e-05  -1.041387515266e-04  -1.369239447236e-04 
6 1 -1.699333558307e-05  -1.026964323577e-04  -1.690917730926e-04 
7 1 -3.768489725001e-05   1.212704200243e-04  -5.679825567958e-05 
8 1  5.043679671056e-05  -5.554565154118e-06   1.463578953603e-04 
8
Step 20000
1 1  6.396553697517e-05  -1.435520378957e-04   3.626020617464e-05 
2 1  2.749747715950e-04  -1.370684779806e-05  -3.081715183379e-04 
3 1  1.328397565467e-04   2.162961460579e-04   1.137420904239e-04 
4 1  1.288751891331e-04   3.648081616781e-04   5.751991253472e-06 
5 1  5.639105728489e-05   2.512790856314e-04   8.926422524691e-05 
6 1  4.041188368607e-05  -5.482938012830e-05   5.657885347739e-05 
7 1 -6.734708170415e-05  -7.979405632098e-06   1.057882053909e-04 
8 1  1.476492504109e-04  -1.665471069305e-04  -3.223881889010e-04 
8
Step 21000
1 1  2.074095939716e-05  -5.595426510458e-06  -7.569577425466e-05 
2 1 -1.495569460395e-04   4.073435256909e-05   1.672176672509e-04 
3 1 -1.438063296469e-04  -1.182279803830e-04   4.870598597365e-05 
4 1  1.773101288519e-06  -3.278023331123e-04   6.386268625964e-06 
5 1 -9.257309920237e-05  -3.214069363934e-04  -1.755437625882e-04 
6 1 -6.725688501363e-05  -2.646382228638e-05  -9.408320555699e-05 
7 1  1.928639301020e-05   6.790065494819e-05  -1.424310768607e-05 
8 1  1.595371373624e-04   1.597777916188e-04   2.052602552010e-04 
8
Step 22000
1 1 -1.688156316841e-04   4.388852917712e-05   1.536489828962e-04 
2 1  1.980887982106e-04   1.196269848545e-04  -2.615370044565e-04 
3 1  1.604210296034e-04   1.832466129387e-04  -9.461347398814e-05 
4 1  6.336185929256e-05   2.199240584455e-04   7.353652614598e-05 
5 1 -7.693883108754e-05   2.676545602683e-04   1.332126345904e-04 
6 1  2.756537221263e-05   9.249902985594e-05   1.873537192403e-04 
7 1  2.169768243649e-04  -6.960728563363e-05  -1.039522177571e-04 
8 1 -7.165915409002e-05  -2.436844363025e-04  -2.128345858414e-04 
8
Step 23000
1 1  2.459596791473e-04  -1.240203768843e-04  -2.518745382573e-04 
2 1 -1.458685153300e-04  -8.115919517502e-05   1.807459816853e-04 
3 1 -8.894472461301e-05  -1.423667627462e-04   2.285408555250e-04 
4 1 -6.225963891249e-05  -2.948277195010e-04  -7.879356753877e-05 
5 1 -1.312097505543e-04  -2.029449433781e-05  -5.180385863029e-06 
6 1  9.790064646185e-05  -4.992685990758e-05   1.463390056056e-06 
7 1  3.963683949991e-05  -3.993158317737e-05  -1.028182570190e-05 
8 1  3.921215786230e-05   1.755974018794e-04   2.389922597667e-04 
8
Step 24000
1 1 -2.105350581226e-04   1.163038638033e-04   1.494237057342e-04 
2 1  6.449891636559e-06   1.243948518842e-04  -8.111217242813e-05 
3 1  1.241720730141e-04   1.521864118145e-04  -1.844871856499e-04 
4 1 -8.468041025404e-07   8.302433870355e-05   4.626055668024e-05 
5 1  9.162607743200e-05   3.606907772502e-06  -5.716813972975e-05 
6 1  1.250120027470e-04  -3.737601607824e-05  -4.815606102521e-05 
7 1 -7.403823326940e-05  -1.174696275552e-04  -2.622683986607e-07 
8 1  1.259824470081e-05   2.383757668664e-05  -7.584904642162e-05 
8
Step 25000
1 1  2.337031511028e-04  -1.582466089917e-04  -1.958623413181e-04 
2 1 -1.503219980638e-05  -2.753779951926e-04   1.466417047696e-04 
3 1 -8.464496676006e-06  -1.568142186431e-05   2.349100673071e-04 
4 1 -8.778930301899e-05  -5.921478720239e-05   2.334639513323e-05 
5 1 -6.169958642069e-05   4.273117542216e-05   7.753905659046e-05 
6 1  2.610345842646e-05  -1.436899985222e-04   1.137899682670e-04 
7 1 -4.873175414275e-05  -2.972600279132e-05   6.612982352422e-05 
8 1  5.953213205215e-05   5.743210481001e-05   8.543738392064e-05 
8
Step 26000
1 1 -2.959003198114e-04   2.477443854031e-04   1.631119416315e-04 
2 1 -6.041513612549e-05   1.772195457340e-04  -6.922170603946e-05 
3 1 -8.238351109025e-07   3.699703748493e-05  -2.529269305954e-04 
4 1 -3.017028714651e-06  -1.881193625226e-04   8.284320701780e-06 
5 1  6.101928825374e-05  -1.838170223860e-04  -8.111779193807e-05 
6 1 -1.341596758533e-05   7.249966993253e-05  -8.731727873197e-05 
7 1  1.648831767330e-04   4.254920564133e-06  -1.620610638954e-04 
8 1 -1.231175889721e-04  -1.186297110734e-04   9.151129753151e-06 
8
Step 27000
1 1  1.874031406368e-04  -1.293962856188e-04  -1.642883676299e-04 
2 1  9.375665088829e-05  -1.910197826412e-04  -4.947990439802e-05 
3 1  1.345628230157e-04  -5.819529895392e-06   1.204154280698e-04 
4 1  3.376647641729e-05   1.333053904216e-04   1.186633149400e-04 
5 1 -7.825390247002e-05   1.538966729491e-04   4.731861243939e-05 
6 1  5.919032977127e-05  -4.418253842862e-05   2.038309361256e-04 
7 1  9.377460536113e-05  -6.513397686604e-05   2.628768281220e-05 
8 1 -7.947532300780e-05  -6.899200325399e-05  -1.272319734849e-04 
8
Step 28000
1 1 -9.511907645422e-05   7.926604632988e-05   1.938029960721e-05 
2 1 -2.187864380939e-04   2.445944280393e-04   7.313295693317e-05 
3 1 -1.456698758765e-04  -2.952964399184e-05   1.010124181147e-05 
4 1 -8.543264230463e-05  -2.904439263285e-04  -7.420561755635e-05 
5 1 -5.586940551952e-05  -6.523848755443e-05  -1.416843059619e-04 
6 1  1.349995239749e-04  -8.713732172600e-05  -1.858115242526e-04 
7 1 -2.097200924473e-04  -6.956572066567e-05   9.159614775213e-06 
8 1 -8.316992486183e-05   1.073389200299e-04   2.866824195600e-05 
8
Step 29000
1 1  7.572808519401e-05  -1.086615196451e-04   7.593300157091e-06 
2 1  2.027814685705e-04  -2.180644663733e-04  -1.637259945962e-04 
3 1  2.934645366311e-04   1.239072157962e-04  -7.384182695454e-05 
4 1  9.331707772218e-05   3.267189372123e-04   4.819772836613e-05 
5 1  2.676540695517e-04   9.341943675450e-05   6.462867958329e-05 
6 1 -7.739359380194e-05  -1.351102285329e-04   1.820425420115e-04 
7 1  2.949314448902e-05  -3.323179838297e-05   3.788508379692e-05 
8 1 -3.742035739828e-05  -1.975600484235e-04  -2.869218615170e-04 
8
Step 30000
1 1 -1.514925832382e-06   3.928377120084e-05  -4.458943655865e-05 
2 1 -2.077172690570e-04   1.005561218398e-04   1.205649833552e-04 
3 1 -1.333228882623e-04  -3.654151849009e-05   5.663495499157e-06 
4 1 -8.000418824232e-05  -3.068258211550e-04  -1.101687450607e-04 
5 1 -4.884276489745e-05  -1.959186247633e-04   3.418902088486e-05 
6 1 -1.577422370375e-04  -1.007213437901e-04  -8.042783068107e-05 
7 1  9.221967734163e-05   1.693056682256e-04  -7.963551125694e-06 
8 1 -5.852865209165e-05   1.028883287384e-04   3.447335524525e-04 
8
Step 31000
1 1 -1.415569300654e-04   5.742731643682e-05   1.956958027975e-04 
2 1  2.148340472714e-04  -1.072872884606e-04  -2.426847741340e-04 
3 1  3.460854829079e-04   2.221458675276e-04  -1.854125142844e-04 
4 1  7.006174030800e-05   2.622630396817e-04   4.172534416339e-05 
5 1  1.442448329333e-04   2.115974186923e-04  -1.345111299874e-04 
6 1  4.586471677384e-05  -1.174102449921e-04   1.004125826073e-04 
7 1  4.750276850172e-05  -5.632182232851e-06   1.521278727698e-05 
8 1 -1.328915842880e-04  -9.248035950427e-05  -1.533901978155e-04 
8
Step 32000
1 1  1.009407454942e-04  -4.193449992082e-05  -1.277345675298e-04 
2 1 -1.851853678013e-04  -2.758416069537e-05   1.659278855646e-04 
3 1 -2.485495719848e-04  -3.990664394225e-05   1.234984151975e-04 
4 1 -6.342172459994e-05  -1.341131541914e-04  -8.406401691301e-06 
5 1 -1.000930847625e-04   2.419013180455e-05  -1.780229512556e-04 
6 1  8.638825183134e-05  -1.353970325572e-04   4.505376638715e-05 
7 1 -1.348938301835e-04   1.447065773974e-04   1.312683044417e-05 
8 1  1.214056436992e-05   1.456718200605e-04   2.166331014143e-04 
8
Step 33000
1 1 -2.715941826414e-04   1.392549138639e-04   2.712003525619e-04 
2 1  1.177669515828e-04   6.793137075495e-05  -2.250235660752e-04 
3 1  1.424411091170e-04   1.651691407215e-04  -1.572897542600e-04 
4 1  1.268465241399e-04   8.275818838172e-05  -2.333226504842e-05 
5 1  1.462461866718e-04   1.225500790188e-04  -2.495002489275e-04 
6 1  3.761709083501e-05  -8.648184006015e-05   2.691678561000e-05 
7 1 -1.075467107457e-04  -1.728450527791e-05   1.886186565587e-06 
8 1 -2.568731514977e-05  -2.556014428916e-05  -1.889584638535e-04 
8
Step 34000
1 1  3.008698489972e-04  -9.956705542683e-05  -3.017283538071e-04 
2 1 -4.043394526361e-05  -2.079692687690e-04   6.752548508331e-05 
3 1 -2.331902124069e-04  -1.132618931947e-04   2.440514255868e-04 
4 1 -1.412321309909e-05  -4.180914475308e-05   3.518948214218e-05 
5 1  6.941631678280e-05   4.577696004845e-06   5.327136909827e-05 
6 1 -1.066806550814e-04  -1.082915566894e-05   1.007729363838e-05 
7 1  8.870759424559e-06   1.738011317073e-04  -5.979342975340e-06 
8 1  1.319650858614e-04   3.962393588518e-05   1.494779577931e-04 
8
Step 35000
1 1 -1.496662579249e-04   1.196128917632e-04   1.624067538372e-04 
2 1 -1.113169601419e-04   2.093101675778e-04  -2.862190525067e-05 
3 1  3.264166429684e-05   1.426514698094e-04  -1.959107157870e-04 
4 1  2.705939841540e-05  -4.189279669922e-05  -1.145768059590e-04 
5 1 -1.959852767615e-05   6.419016371016e-05  -1.178587197312e-04 
6 1  8.917489425076e-05   1.414452775133e-05  -7.124392150203e-05 
7 1 -5.942039916870e-05   2.882787974983e-05  -5.878261827623e-05 
8 1 -1.542661265116e-04   1.406985921079e-05  -1.299852888070e-05 
8
Step 36000
1 1  2.764187692608e-04  -1.707048554417e-04  -1.745715804707e-04 
2 1  9.213371936828e-05  -3.147147646688e-04  -6.114211173715e-06 
3 1  7.014476218260e-05  -3.346557301626e-05   1.563084188174e-04 
4 1  9.606401637496e-05   2.060945345786e-04   7.210995103677e-05 
5 1  7.887461625045e-05  -1.240833174462e-06   2.848638526130e-04 
6 1 -2.700464319740e-05  -3.595804023009e-05   1.243819656710e-05 
7 1 -9.541803070080e-05  -1.039428825896e-04  -2.147680499383e-05 
8 1  4.583223070698e-05   2.277118681767e-05  -7.866618809354e-05 
8
Step 37000
1 1 -1.024012633562e-04   7.580524393114e-05   9.190160829878e-05 
2 1 -1.792196653992e-04   2.324643362381e-04   2.110962572805e-05 
3 1 -1.876303763246e-04   5.159486709726e-05  -5.908344547640e-05 
4 1 -1.178097202118e-04  -2.123658505118e-04  -1.450541802288e-04 
5 1 -1.971545074682e-04  -5.003094933407e-05  -1.362076240905e-04 
6 1  5.193327739975e-05  -1.196930621370e-06  -1.484016136427e-04 
7 1 -3.371018866689e-04  -7.560101988989e-05   3.229357865505e-05 
8 1  2.971247776811e-05   1.340867932171e-04  -4.010290663678e-07 
8
Step 38000
1 1  4.977524231609e-05  -4.683827800559e-05   3.297082134480e-05 
2 1  1.787015584902e-04  -1.605626536763e-04  -1.070470712782e-04 
3 1  3.019537995382e-04  -5.304393293191e-05   2.758545152065e-05 
4 1  2.043529332072e-04   3.325851723898e-04   1.309814718320e-04 
5 1  2.450030493421e-04   4.896111857543e-05   1.062394454965e-04 
6 1  1.550869422839e-04  -1.577999259466e-04   1.626731219582e-04 
7 1 -2.290440551661e-04   1.546536830181e-06  -5.830097724883e-05 
8 1  4.811617079496e-05  -7.942448850344e-05  -1.539405596975e-04 
8
Step 39000
1 1  2.103395918304e-05   5.102336757818e-05  -5.909320043694e-05 
2 1 -2.424646929595e-04   1.179320869678e-04   6.415804665114e-05 
3 1 -2.906329434440e-04  -9.824489623960e-06   1.219471278901e-05 
4 1 -2.472303083243e-04  -1.634004242630e-04  -9.927845070306e-05 
5 1 -3.974806729331e-04  -2.156645801070e-04  -1.572696854215e-04 
6 1 -3.384041087537e-04   1.173894289797e-04  -2.408948437087e-04 
7 1 -9.527165898319e-05  -7.008497356265e-06  -3.574815706375e-05 
8 1  6.508260340964e-05   2.495508128755e-05   1.866575920752e-04 
8
Step 40000
1 1 -6.757731242010e-05  -1.080436018922e-05   2.023477237719e-04 
2 1  1.610173845842e-04  -5.160382656437e-05  -1.193112134920e-04 
3 1  2.773540087390e-04   7.732753310564e-05   2.680036190360e-05 
4 1  2.575021073586e-04   1.562301891431e-04   7.226453968164e-05 
5 1  2.264394758916e-04   3.692693047352e-05   4.192060598663e-05 
6 1  7.758540892354e-06   1.114947453197e-05   2.540564460009e-04 
7 1  7.122907678627e-05  -9.433174820813e-05   3.865039416278e-05 
8 1 -1.173352297055e-04  -1.895376067230e-04  -2.283670263873e-04 
8
Step 41000
1 1  1.947349363917e-04  -3.237606696592e-05  -1.625102052594e-04 
2 1 -2.112187839322e-04  -2.600306492094e-05   7.967634427264e-05 
3 1 -1.482454227286e-04   7.175849951561e-05   1.601860068444e-04 
4 1 -2.462360899006e-04  -2.070707958446e-04  -4.351573423897e-05 
5 1 -5.837415410568e-05  -2.042605598720e-04  -2.848342037668e-05 
6 1 -1.297802127104e-04   2.414218758067e-05  -9.613550927696e-05 
7 1  1.406058423799e-04  -1.017753632710e-04  -8.891973658365e-05 
8 1  2.304276473726e-05   4.289070221086e-05   1.802722252348e-04 
8
Step 42000
1 1 -2.199493388602e-04   1.793805484074e-05   3.674562134946e-04 
2 1  1.159431756987e-04   1.543689371894e-04  -4.518544880714e-05 
3 1  1.600149565074e-04   1.317591907888e-04  -2.990073074733e-05 
4 1  2.830413498210e-04   7.422536026422e-05  -2.538811662130e-06 
5 1  6.006361791111e-05   1.145720200208e-04  -1.113465481854e-04 
6 1 -1.350653366200e-05   1.257682160822e-04   2.208764368935e-04 
7 1 -1.799161092561e-05  -3.663311631253e-05  -7.160984619079e-05 
8 1 -1.252819913594e-04   4.073355690666e-05  -2.026133448181e-04 
8
Step 43000
1 1  2.680674752862e-04  -1.231542753387e-04  -2.213627002959e-04 
2 1 -1.056626126047e-04  -2.081192825422e-04   3.429150097094e-05 
3 1  5.558272166101e-05  -9.272010076252e-05   9.429920459169e-05 
4 1 -1.492810561717e-04  -1.291443982506e-04   1.931577819966e-05 
5 1 -5.726638286878e-05  -5.966436640816e-05   3.412380013259e-05 
6 1  6.713539939478e-05  -8.471019487626e-06  -5.097352633274e-05 
7 1  4.554240993606e-05  -1.223144545362e-04  -1.394488071453e-04 
8 1  1.835618466156e-04  -1.072478268631e-04   2.705624277930e-04 
8
Step 44000
1 1 -1.844333108621e-04   6.476173761179e-05   2.755765964182e-04 
2 1 -2.006309525319e-05   2.843408540517e-04  -2.433944217744e-05 
3 1  9.597051009585e-05   1.511748651051e-04  -1.025371097553e-04 
4 1  1.390948670213e-05  -1.558707624989e-05  -1.363305602818e-04 
5 1 -1.970735052508e-04   1.346820830421e-04  -7.412988265047e-05 
6 1  9.717431844106e-06   4.710755122933e-05   3.010421470676e-05 
7 1  2.058657128621e-05   1.533492104712e-04   1.729278946853e-05 
8 1 -9.835864197225e-05   9.445042008790e-06  -9.115591832900e-05 
8
Step 45000
1 1  2.179629333936e-04  -1.019391167162e-04  -1.042359526369e-04 
2 1  7.047442526362e-05  -3.298902545546e-04  -3.687582813418e-05 
3 1  1.709470149566e-04  -1.644444386033e-05   7.836611105416e-05 
4 1 -7.044300898582e-05   4.334008010933e-05   6.237935186222e-05 
5 1  1.521241087339e-04  -7.346075770727e-05   4.521949730765e-04 
6 1  1.781882222349e-04  -1.456825972788e-04   1.626539074818e-04 
7 1  5.965635654465e-06  -1.491926111210e-04  -1.689335550131e-06 
8 1  3.857716015357e-05  -1.163164926767e-04  -1.740273719971e-06 
8
Step 46000
1 1 -8.837224010489e-05   1.387572968664e-04   8.049674373695e-05 
2 1 -1.428076323050e-04   2.862875175965e-04  -9.161531495555e-06 
3 1 -1.052201738286e-04   2.513020171818e-04  -1.238258261919e-04 
4 1 -1.408187619622e-04  -1.467333200852e-04  -2.082617166881e-04 
5 1 -3.446517574504e-05  -1.251804046005e-04  -5.216809391104e-05 
6 1 -1.052788524605e-04   2.627999580253e-05  -2.794931418127e-04 
7 1  2.735732133034e-05   3.284595141946e-04  -1.379056693925e-05 
8 1  5.067644576005e-06   1.789296407941e-04   1.320130520384e-04 
8
Step 47000
1 1  1.311215877083e-04  -7.776859112630e-05   8.541936793497e-05 
2 1  1.370550320732e-04  -3.053498312043e-04  -9.555420473805e-05 
3 1  2.495832774281e-04  -1.525127339156e-04   2.503398790355e-05 
4 1  1.360520598738e-04   1.547459761195e-05   1.682391830513e-04 
5 1  1.211893901892e-04  -5.731264875441e-07   2.165807328248e-04 
6 1  2.093776207566e-05   1.351907607429e-04   1.475820016079e-04 
7 1 -3.266888857927e-05  -1.272890101189e-04   1.884698867948e-04 
8 1 -7.304769526262e-05  -2.188326411331e-04  -2.136286884395e-04 
8
Step 48000
1 1  6.933702387518e-05   1.283621041362e-04  -2.198504117832e-04 
2 1 -1.836935303052e-04   1.728209338561e-04   1.494490020258e-05 
3 1 -1.893892931676e-04   9.055745846835e-05  -1.936016941101e-04 
4 1 -2.172474610088e-04  -6.501976808661e-05  -7.774223417718e-05 
5 1 -1.543961049132e-04   6.725066434852e-05  -7.767362014981e-06 
6 1 -3.712824449298e-05   1.198644427885e-04  -2.314117173518e-04 
7 1  2.111679951110e-04   6.302326956368e-06  -2.996488131674e-04 
8 1 -4.060806631453e-05   1.253150137706e-04   4.260842595774e-04 
8
Step 49000
1 1  1.802626770089e-05   3.154827534644e-06   1.291033196580e-04 
2 1  1.687776181634e-04  -9.180694798395e-05  -5.181255502285e-05 
3 1  1.820909544038e-04  -2.657430643421e-05  -1.567214472621e-04 
4 1  1.610038742037e-04   5.052429024679e-05   2.289334922582e-04 
5 1 -4.539658195921e-05   1.483728654390e-04   8.580976689078e-05 
6 1  1.588789452567e-04   6.632121952224e-06   2.438547049996e-05 
7 1  2.822505395377e-06  -1.996348197757e-04   1.479685193884e-04 
8 1 -2.400441791434e-04  -3.659740904541e-05  -2.607263662357e-04 
8
Step 50000
1 1  9.708604035113e-05   4.632203359677e-05  -2.265052586228e-04 
2 1 -2.226639620409e-04  -9.593870513909e-05   1.707442144182e-05 
3 1 -2.239836576543e-04  -6.953898335197e-06  -1.861159573338e-05 
4 1 -2.024396391469e-04  -1.090656026885e-04   9.877688206185e-07 
5 1  2.532301116524e-05   5.651998638064e-06   1.244271297148e-05 
6 1  4.636300453161e-05  -5.143440826832e-05  -1.132441743361e-04 
7 1  4.455347026290e-05   4.082474131922e-05  -1.159403045215e-04 
8 1  4.723842735380e-05   7.106384562559e-05   1.688428277609e-04 
8
Step 51000
1 1 -2.021821619740e-05   2.426287777733e-05   1.678146861673e-04 
2 1  8.085306422419e-05   3.897436747341e-05   1.718419249523e-05 
3 1  1.424792867169e-04   6.662437064356e-05  -1.269142757250e-04 
4 1  2.545390370182e-04  -6.624542305619e-05   1.398678149514e-04 
5 1  1.806592123791e-04   1.061232929190e-04   1.008888249712e-04 
6 1 -7.456140895030e-05   1.267276241926e-04  -7.169650279433e-05 
7 1 -1.904015947143e-04   8.113087039222e-06   1.745106649721e-04 
8 1 -8.784468385777e-05  -5.345408283294e-05  -1.273642762943e-04 
8
Step 52000
1 1  1.363586159106e-04  -1.780219243820e-05  -2.101467414620e-04 
2 1 -9.004382189542e-05  -2.819050621970e-04   6.633050788090e-06 
3 1 -4.404967335907e-05  -1.107552654372e-04  -2.484528826064e-05 
4 1 -8.746207668790e-05  -7.362852899107e-05   5.358189760858e-05 
5 1  3.317401811340e-05  -1.300443777156e-04  -4.448887706109e-05 
6 1  1.067888770081e-05   2.565320083888e-05   3.962610234511e-06 
7 1 -8.407740334557e-06  -8.793069170578e-05   8.391972070553e-05 
8 1  1.047732064274e-04  -1.405033781516e-05   5.227724813145e-05 
8
Step 53000
1 1 -1.982156888209e-04   7.555268267046e-05   3.500029804591e-04 
2 1  5.644821024337e-05   1.543059086655e-04   2.817714984276e-05 
3 1  1.185768016174e-04   1.935047906912e-04  -9.668694502783e-05 
4 1  2.401070435939e-04  -4.902923179079e-05  -4.807529621974e-05 
5 1 -7.944607626154e-05   2.959278698522e-04   4.960561876028e-05 
6 1 -4.540114789551e-05   1.376823374074e-04  -2.354005977220e-04 
7 1  1.113064740795e-04  -8.773167643540e-05  -1.458889521494e-05 
8 1 -2.165052923589e-04   1.129402584149e-04   2.996015078904e-05 
8
Step 54000
1 1  1.977918480245e-04   7.566025209702e-06  -2.330182707761e-04 
2 1 -1.639473835419e-05  -1.470878746361e-04   3.469678658644e-05 
3 1 -2.975115953752e-05  -3.570855906375e-04  -1.314255498572e-04 
4 1  3.369021979263e-05  -2.513443913672e-05   9.202173082512e-05 
5 1 -6.033382032267e-05  -9.433710128244e-05  -5.465072956958e-08 