8
Step 0
1 -3.472934504792e+01   2.985585161505e+01   4.552711624413e+01 
1 -3.872914153085e+01   5.183552870333e+01   2.841252880511e+01 
1  6.597310272429e+01   3.473535297890e+01   3.212630301548e+01 
1 -6.209027598665e+01   1.844554586020e+01  -3.110501871492e+01 
1 -4.675834713363e+01   3.854789838996e+01   6.659078998682e+01 
1 -1.328434623653e+01  -5.953552595268e+01  -6.135440417252e+01 
1  6.150941286889e+01  -3.705897999201e+01   2.680974576907e+01 
1  1.897523860070e+01  -3.176705575740e+00  -2.894581516525e+01 
8
Step 1000
1 -6.061414938130e+01   3.915206424172e+01   4.701904753523e+01 
1 -3.270139953500e+01   5.697127219297e+01  -4.200329478016e+00 
1  5.465494865799e+01   4.064660059899e+01   1.589016650892e+01 
1 -3.750151364375e+01   4.735689674591e+01   1.127647465340e+01 
1 -3.829511625130e+01   7.124765185939e+01   6.403949784663e+01 
1 -2.761279826614e+01  -6.742812773862e+01  -6.682007112443e+01 
1  3.068556970581e+01  -4.536184718227e+01   4.093886780706e+01 
1 -4.180789188005e-01  -4.965429688837e+01  -3.033574202858e+01 
8
Step 2000
1 -6.052884134317e+01   4.075797927803e+01   2.717592108514e+01 
1 -9.467954923057e+00   3.290014210738e+01  -3.677030616264e+01 
1  2.352255078722e+01   2.641362704876e+01  -3.098716468074e+00 
1  6.126558474186e+00   5.456519609630e+01   4.746720494217e+01 
1 -7.693184202171e+00   7.748283075212e+01   3.996781980803e+01 
1 -2.958561958844e+01  -4.177913219775e+01  -4.693336045121e+01 
1 -2.742533141714e+00  -4.254684274590e+01   2.955825685143e+01 
1 -2.258164395098e+01  -7.572748124979e+01  -2.728844729697e+01 
8
Step 3000
1 -3.418729525635e+01   3.378391056365e+01  -3.227968137218e+00 
1  2.016288490734e+01  -6.683038927982e+00  -5.849326852885e+01 
1 -1.849557786593e+01   4.593925598855e-01  -2.021979271339e+01 
1  4.685806859420e+01   3.802458641205e+01   6.870396002716e+01 
1  2.668988546387e+01   5.458571375137e+01   2.145911926296e+00 
1 -1.513145961566e+01   7.149010652583e+00  -1.383078688642e+01 
1 -2.793495432036e+01  -2.621127224678e+01   9.657588005997e-01 
1 -3.927611669316e+01  -7.034812896674e+01  -1.986188307775e+01 
8
Step 4000
1  6.566141427551e+00   1.884673055757e+01  -2.865304574005e+01 
1  4.111408193681e+01  -3.996724633187e+01  -6.188301227871e+01 
1 -5.640191762181e+01  -2.332409437985e+01  -3.086588986145e+01 
1  6.521788140545e+01   7.722839898538e+00   7.295958271666e+01 
1  4.477868315412e+01   1.363391543625e+01  -3.431624100532e+01 
1  1.078154852617e+01   5.533371517534e+01   1.474758704900e+01 
1 -3.915373893574e+01   1.063924607925e+00  -2.766561180855e+01 
1 -4.353834230733e+01  -3.700784697131e+01  -7.883070955601e+00 
8
Step 5000
1  4.302616467715e+01  -1.653644888212e+00  -3.685256582538e+01 
1  4.358397201558e+01  -5.094347695178e+01  -4.690743595796e+01 
1 -7.648398956381e+01  -3.381419891439e+01  -3.238093718800e+01 
1  5.391394034024e+01  -2.140081562215e+01   6.277433023135e+01 
1  3.759304654814e+01  -2.630798739833e+01  -5.509306111763e+01 
1  3.608403384028e+01   7.950326506873e+01   2.672793932730e+01 
1 -3.715045034043e+01   3.120471956637e+01  -3.986653304493e+01 
1 -3.281507343670e+01   7.853063191911e+00   7.471210003894e+00 
8
Step 6000
1  6.007896293435e+01  -2.395756653830e+01  -2.583518302768e+01 
1  2.761551635700e+01  -3.702928099608e+01  -2.013645173389e+01 
1 -7.232933987448e+01  -2.782077167185e+01  -2.484014291135e+01 
1  1.937680047895e+01  -3.685941504774e+01   4.207476979412e+01 
1  1.146288809605e+01  -4.966578321277e+01  -5.462614481989e+01 
1  4.931199096451e+01   7.090784060298e+01   2.226066658928e+01 
1 -2.717853543653e+01   5.359618731465e+01  -2.872272887522e+01 
1 -1.123748038414e+01   4.246470377004e+01   2.267469574715e+01 
8
Step 7000
1  5.320440146229e+01  -4.341056851948e+01  -3.750428965225e+00 
1  2.202150646339e+00  -8.526672836579e+00   7.899497228497e+00 
1 -4.619255212480e+01  -9.689320825933e+00  -1.085929370511e+01 
1 -2.209344388187e+01  -3.347336496230e+01   1.500184207871e+01 
1 -1.850018079005e+01  -5.086747297166e+01  -3.694198397249e+01 
1  4.450775371903e+01   3.587045783197e+01   1.015056382040e+01 
1 -1.540396042567e+01   5.946782629296e+01   3.453964816402e-01 
1  1.208314878495e+01   5.217194631545e+01   3.307017131782e+01 
8
Step 8000
1  2.876791569637e+01  -5.483020506610e+01   1.647635859558e+01 
1 -1.961290173005e+01   1.770830996497e+01   2.712064603186e+01 
1 -8.385941258564e+00   1.138676687950e+01   4.710827441035e+00 
1 -5.238001523498e+01  -1.502327871276e+01  -1.406010222167e+01 
1 -3.759042050800e+01  -3.404618766839e+01  -1.181406623812e+01 
1  2.316622832424e+01  -8.836885896805e+00   1.353059150637e+00 
1 -6.082823931108e+00   4.592643084102e+01   3.271945092790e+01 
1  2.791847856585e+01   3.652881140608e+01   3.503003596162e+01 
8
Step 9000
1 -3.897788807309e-01  -5.383983883926e+01   2.425113010392e+01 
1 -2.864931503467e+01   2.884105422522e+01   3.316825262403e+01 
1  2.650521283372e+01   2.591701127220e+01   1.635138126042e+01 
1 -6.004059653940e+01   8.780351964942e+00  -4.037161680833e+01 
1 -3.824436049519e+01  -9.086087713695e+00   1.027885099724e+01 
1 -6.198126245974e+00  -4.411685180589e+01   2.323080500586e+00 
1 -3.187913241337e-01   1.806623310193e+01   5.217029070726e+01 
1  3.095926056071e+01   7.376307269055e+00   2.749874260914e+01 
8
Step 10000
1 -2.202846960074e+01  -3.884436233271e+01   1.688953294300e+01 
1 -2.377065407550e+01   2.219346176390e+01   2.824228294426e+01 
1  4.698242565908e+01   2.905498169549e+01   2.057625011783e+01 
1 -4.360762599359e+01   2.745111051433e+01  -5.863064598236e+01 
1 -2.202401465209e+01   1.338280791400e+01   2.227817745539e+01 
1 -3.272855653894e+01  -5.824848237788e+01   1.155469635867e+01 
1  3.263181599784e+00  -1.298485173617e+01   4.956289577787e+01 
1  2.184000371039e+01  -1.839156869065e+01   1.276004329638e+01 
8
Step 11000
1 -3.030403127697e+01  -1.245261111052e+01   4.578503486820e-01 
1 -1.053172166420e+01   4.324205940231e+00   1.812006835869e+01 
1  4.958069970266e+01   2.190980033323e+01   1.732024292149e+01 
1 -1.046611971719e+01   3.351496572454e+01  -6.342473654158e+01 
1  2.657696829863e+00   2.579311067843e+01   2.239464714974e+01 
1 -4.793945740420e+01  -4.988687510325e+01   2.165116364993e+01 
1  6.522593631595e+00  -3.539362155981e+01   2.727049433649e+01 
1  6.384277860699e+00  -2.811406032454e+01  -4.264315237424e+00 
8
Step 12000
1 -2.730139603835e+01   1.841279238606e+01  -1.436855863039e+01 
1  2.689420553743e+00  -1.345261217498e+01   8.721752112213e+00 
1  3.840683680557e+01   9.209206982533e+00   9.311213255953e+00 
1  2.617736943584e+01   2.483247102027e+01  -5.136223893213e+01 
1  2.487195391732e+01   2.560374704724e+01   1.383086832691e+01 
1 -4.722717060682e+01  -2.533060711591e+01   2.360810523022e+01 
1  1.012758252906e+01  -4.214961974280e+01  -3.114691672362e+00 
1 -7.907872701392e+00  -1.942318548933e+01  -1.811806182729e+01 
8
Step 13000
1 -1.983986200370e+01   4.472279257342e+01  -1.910058373535e+01 
1  9.345878627302e+00  -2.126058695005e+01   3.283829596212e+00 
1  2.160111861214e+01  -3.856176425746e+00   5.144155827925e-01 
1  5.222891862156e+01   5.381736372413e+00  -2.390335289992e+01 
1  3.584411691749e+01   1.545478416808e+01   2.834694272243e+00 
1 -3.041944549392e+01   4.768360901029e+00   1.137119772820e+01 
1  1.329765267526e+01  -3.372373107852e+01  -2.803300179694e+01 
1 -1.564634587494e+01   2.172779899164e-01  -2.490040201664e+01 
8
Step 14000
1 -1.386642589288e+01   5.895021602593e+01  -1.204309273110e+01 
1  7.821001629033e+00  -1.536308778708e+01   1.218792010260e+00 
1  6.787097862527e+00  -1.391163547911e+01  -5.619312772867e+00 
1  5.841504893594e+01  -1.645498017549e+01   1.159721511305e+01 
1  3.232225953548e+01   1.539255793007e+00  -4.308124923740e+00 
1 -2.407021783142e+00   2.901471018010e+01  -1.388138371517e+01 
1  1.470924465822e+01  -1.627929614715e+01  -3.898479883601e+01 
1 -1.543544188779e+01   1.879296597121e+01  -2.345113748611e+01 
8
Step 15000
1 -1.097345765588e+01   5.701723634035e+01   2.266573445206e+00 
1  1.483260854690e+00   7.512464464592e-01  -7.196510167047e-01 
1 -2.363143816380e+00  -1.989918236043e+01  -7.379208863113e+00 
1  4.381605431883e+01  -3.167264924291e+01   4.403467573129e+01 
1  1.733191187475e+01  -9.241244473216e+00  -4.200117147046e+00 
1  2.781035363991e+01   3.968177338861e+01  -4.260161534674e+01 
1  1.347251553957e+01   2.353845567376e+00  -3.466720073251e+01 
1 -9.400800012132e+00   2.619331345066e+01  -1.535628712725e+01 
8
Step 16000
1 -8.633357794234e+00   3.859155284080e+01   1.628462851352e+01 
1 -3.826701321762e+00   1.846257731572e+01  -5.699536830800e+00 
1 -6.751388422937e+00  -2.194000985194e+01  -5.025672733172e+00 
1  1.536316751265e+01  -3.447266426998e+01   6.284930317350e+01 
1 -1.879708070515e+00  -1.231803426225e+01   2.077654273468e+00 
1  5.043658959032e+01   3.569236477675e+01  -6.096364430607e+01 
1  9.551678168831e+00   1.566235100570e+01  -1.921406632124e+01 
1 -1.342024411889e+00   1.845499775667e+01  -3.947452544844e+00 
8
Step 17000
1 -2.789970787720e+00   7.650393564410e+00   2.289056439836e+01 
1 -3.459454895786e+00   2.845277257755e+01  -1.426235426795e+01 
1 -1.004196667674e+01  -1.989240402335e+01  -3.345035574986e-01 
1 -1.587685226551e+01  -2.426322313596e+01   6.209072449552e+01 
1 -1.767343177474e+01  -7.417483320358e+00   9.593655571094e+00 
1  5.828838085436e+01   2.177903939109e+01  -5.757368129734e+01 
1  3.717783195475e+00   1.998099244195e+01   4.694047253885e-01 
1  5.094773587195e+00  -1.171094750429e+00   7.024387666588e+00 
8
Step 18000
1  8.655278819295e+00  -2.723113250893e+01   1.846455392902e+01 
1  3.289779762999e+00   2.537679562617e+01  -2.355344085098e+01 
1 -1.571830722221e+01  -1.303801336890e+01   4.147643092038e+00 
1 -3.925622365883e+01  -5.382880899729e+00   4.257229137106e+01 
1 -2.552951480156e+01   1.594766756700e+00   1.226643986097e+01 
1  4.842461311940e+01   5.169317419355e+00  -2.911302087739e+01 
1 -2.787420521103e+00   1.524088745693e+01   1.729617541991e+01 
1  7.681268842803e+00  -2.380007129501e+01   1.461490032945e+01 
8
Step 19000
1  2.347397728302e+01  -5.485365357513e+01   4.579219003778e+00 
1  1.269226585978e+01   1.035980348844e+01  -2.857798720449e+01 
1 -2.435360066482e+01  -1.151902902088e+00   6.089785869347e+00 
1 -4.816383357945e+01   1.488380816688e+01   1.160366217984e+01 
1 -2.529593195033e+01   8.856203666810e+00   6.243229693196e+00 
1  2.323850142232e+01  -7.577827100761e+00   1.600772526400e+01 
1 -8.724356749893e+00   4.830306816400e+00   2.626644692316e+01 
1  6.146840646572e+00  -3.876010565536e+01   1.750526622766e+01 
8
Step 20000
1  3.554306403659e+01  -6.554385761647e+01  -1.278447803437e+01 
1  1.853712336122e+01  -9.649678573042e+00  -2.488882752503e+01 
1 -3.249630308199e+01   1.415769491637e+01   4.439226404747e+00 
1 -4.178149934712e+01   2.927881682339e+01  -1.988438672965e+01 
1 -1.985894965910e+01   9.476479770009e+00  -7.716111447438e+00 
1 -9.135812128955e+00  -1.322773132725e+01   5.910175842633e+01 
1 -1.324161572593e+01  -5.719557575647e+00   2.586087728749e+01 
1  1.845778711160e+00  -3.819030089242e+01   1.599880489652e+01 
8
Step 21000
1  3.776121322236e+01  -5.509437857318e+01  -2.601381799906e+01 
1  1.564299599832e+01  -2.537578139821e+01  -1.136764026411e+01 
1 -3.401638039516e+01   2.896553505137e+01   1.827809295037e-02 
1 -2.431583177469e+01   3.332912045138e+01  -4.189009863797e+01 
1 -1.253464683874e+01   2.093625543251e+00  -2.396277573621e+01 
1 -3.807013679025e+01  -1.308198129812e+01   8.116519583964e+01 
1 -1.596194444020e+01  -1.100159020302e+01   1.806964571048e+01 
1 -3.076236472221e+00  -2.035916028520e+01   1.133780359955e+01 
8
Step 22000
1  2.589788375621e+01  -2.684013646766e+01  -2.909202447137e+01 
1  2.977606430392e+00  -2.981551540050e+01   8.616731754589e+00 
1 -2.354342996545e+01   3.782416289015e+01  -4.803233978112e+00 
1 -2.360623889062e+00   2.651859845150e+01  -4.900303422690e+01 
1 -4.879240302938e+00  -1.011372987926e+01  -3.419754252522e+01 
1 -5.514019073495e+01  -1.101156899248e+01   7.310750589235e+01 
1 -1.672164278080e+01  -8.175212993115e+00   7.066856127689e+00 
1 -6.514621643212e+00   9.088157338319e+00   4.948360163265e+00 
8
Step 23000
1  1.918746691821e+00   8.628394149801e+00  -2.031841547208e+01 
1 -1.516935490745e+01  -2.165532710338e+01   2.821888966364e+01 
1 -3.167293030685e-01   3.587609583031e+01  -7.276577441721e+00 
1  1.768136497576e+01   1.180796881411e+01  -4.152188925293e+01 
1  3.792809402232e+00  -2.068034597279e+01  -3.143013541490e+01 
1 -5.584050234431e+01  -1.027651841150e+01   3.849256819609e+01 
1 -1.515847095795e+01   1.487916612864e+00  -2.837537132417e+00 
1 -7.139117557473e+00   3.877768877677e+01  -2.034884829525e+00 
8
Step 24000
1 -2.549271345852e+01   3.746593743688e+01  -3.469140863961e+00 
1 -3.060991697834e+01  -5.866449239978e+00   3.988394621951e+01 
1  2.967349653157e+01   2.157545150835e+01  -5.800785593698e+00 
1  3.108623364208e+01  -5.685194797215e+00  -2.438511736088e+01 
1  1.486733070901e+01  -2.286256842325e+01  -1.375381317853e+01 
1 -4.023064176036e+01  -1.159600359392e+01  -7.951696643193e+00 
1 -1.053118006455e+01   1.284132832630e+01  -9.006524625073e+00 
1 -4.812611812122e+00   5.647466330153e+01  -8.826159747848e+00 
8
Step 25000
1 -4.501389197639e+01   4.959690050273e+01   1.412242553317e+01 
1 -3.504848593042e+01   9.176077708235e+00   3.872787088948e+01 
1  5.506946250660e+01  -1.625758633049e+00  -1.041393173431e+00 
1  3.547177629033e+01  -2.044214880778e+01  -4.656173004130e+00 
1  2.784032587250e+01  -1.315476985029e+01   1.368009231240e+01 
1 -1.364345526341e+01  -1.296232490676e+01  -4.636781602912e+01 
1 -2.083668836842e+00   1.904949430725e+01  -1.125619144699e+01 
1 -4.285985538610e-01   5.441395420471e+01  -1.463820781269e+01 
8
Step 26000
1 -4.848857624418e+01   4.343162007357e+01   2.542592384572e+01 
1 -2.425829306371e+01   1.634251913165e+01   2.465611392026e+01 
1  6.425444712197e+01  -2.619139924160e+01   4.255663606026e+00 
1  3.084844131938e+01  -2.833336665882e+01   1.152925178362e+01 
1  3.862756453169e+01   6.042589468041e+00   3.977856006121e+01 
1  1.523882117135e+01  -1.125937689930e+01  -6.223353267722e+01 
1  1.008829035660e+01   1.483283884343e+01  -1.131914525621e+01 
1  4.531645136513e+00   3.223593782277e+01  -1.828115959917e+01 
8
Step 27000
1 -3.439074930042e+01   2.538253349125e+01   2.657869847416e+01 
1 -6.892380185326e-01   1.338118176590e+01   2.536087676435e+00 
1  5.111181101378e+01  -4.354696419672e+01   6.796247777158e+00 
1  1.912010294778e+01  -2.769921111180e+01   2.107906082548e+01 
1  4.059985666504e+01   2.663954131001e+01   5.250967800161e+01 
1  3.788322104520e+01  -4.529033771736e+00  -5.265365060962e+01 
1  2.409606935254e+01  -6.156107044036e-01  -1.137807523142e+01 
1  8.376773890629e+00  -2.573633354517e+00  -1.822207545874e+01 
8
Step 28000
1 -8.540823179543e+00   6.063424817777e+00   1.808206398170e+01 
1  2.643829739153e+01   4.144124812717e+00  -1.939964944704e+01 
1  1.825611714623e+01  -4.731295846271e+01   4.605915660158e+00 
1  3.458585631808e+00  -1.945905881961e+01   2.418492056206e+01 
1  2.805369748266e+01   3.854681875293e+01   4.507107101167e+01 
1  4.804565355066e+01   6.539508555727e+00  -2.551911855448e+01 
1  3.589371041583e+01  -2.226048330473e+01  -1.249366119255e+01 
1  9.637576050876e+00  -3.718931074336e+01  -1.337504132862e+01 
8
Step 29000
1  1.814933280512e+01  -5.260373509203e+00   4.363028609260e+00 
1  4.487146217447e+01  -3.662527278385e+00  -3.315427766410e+01 
1 -2.287905461100e+01  -3.590036006834e+01  -1.609745718372e+00 
1 -1.220707074374e+01  -6.554786490394e+00   2.303043562264e+01 
1  2.545534890129e-01   3.445237225506e+01   1.940007913920e+01 
1  4.319289991607e+01   1.840873847857e+01   4.970738892156e+00 
1  4.018146085374e+01  -4.051260088666e+01  -1.378894147180e+01 
1  7.565613167867e+00  -5.907701592715e+01  -4.130837239684e+00 
8
Step 30000
1  3.495387298275e+01  -5.724477138805e+00  -8.622418609194e+00 
1  4.540913543848e+01  -3.502885006193e+00  -3.468071808737e+01 
1 -5.620896118213e+01  -1.365262744955e+01  -8.403626741130e+00 
1 -2.391578190657e+01   7.077054420740e+00   1.996458905993e+01 
1 -3.535473699125e+01   1.411687155885e+01  -1.362623642694e+01 
1  2.546290935570e+01   2.610743360634e+01   2.503677977494e+01 
1  3.252626360965e+01  -4.521376274302e+01  -1.285454841578e+01 
1  2.429402358990e+00  -6.125591871152e+01   7.297727826972e+00 
8
Step 31000
1  3.643507276007e+01  -6.931197758114e-02  -1.636816910021e+01 
1  2.627230934698e+01   5.763096506998e+00  -2.511830416084e+01 
1 -6.877894862614e+01   1.115016250804e+01  -1.138484449664e+01 
1 -2.870326553102e+01   1.778780670465e+01   1.607289761840e+01 
1 -6.437487533018e+01  -1.390962359953e+01  -3.892978252360e+01 
1  9.772481660527e-01   2.559077210349e+01   2.762037860938e+01 
1  1.175009794923e+01  -3.041156297861e+01  -7.181205569590e+00 
1 -4.406274839594e+00  -4.418137972084e+01   1.742594064406e+01 
8
Step 32000
1  2.429855550712e+01   2.743128091863e+00  -1.751059904505e+01 
1 -5.269839059187e+00   1.858563330340e+01  -9.959929330657e+00 
1 -5.655160015267e+01   3.022568450263e+01  -7.722371050196e+00 
1 -2.543704342016e+01   2.319864239234e+01   1.075796350011e+01 
1 -7.298581624449e+01  -3.667894498377e+01  -4.612967362067e+01 
1 -2.220467048582e+01   1.574330824297e+01   1.501560811740e+01 
1 -1.799066210790e+01   1.639535801320e+00   3.895230723272e+00 
1 -1.058895541507e+01  -1.485190001543e+01   2.268516917614e+01 
8
Step 33000
1  5.849583127023e+00  -4.589214034380e+00  -1.375240372979e+01 
1 -3.513246490407e+01   2.531629238411e+01   3.469115405907e+00 
1 -2.537987942559e+01   3.825612310657e+01   2.158202920125e+00 
1 -1.505386335047e+01   2.244290045713e+01   2.477397694715e+00 
1 -5.494625698567e+01  -4.376264960526e+01  -3.455463713655e+01 
1 -3.672615580101e+01  -6.894310153515e-01  -2.767216527569e+00 
1 -4.690803120058e+01   3.911497745018e+01   1.772137605075e+01 
1 -1.337234052424e+01   1.618495363706e+01   2.099317397949e+01 
8
Step 34000
1 -9.757068035068e+00  -2.269445755915e+01  -8.305998253205e+00 
1 -4.945358023919e+01   1.822988061526e+01   9.905866361555e+00 
1  1.140927653367e+01   3.443017599290e+01   1.418330991674e+01 
1 -3.139031554249e-01   1.585824585137e+01  -9.754229380141e+00 
1 -1.461337557003e+01  -3.153421943601e+01  -1.223473779068e+01 
1 -3.862568099703e+01  -1.790503870234e+01  -1.343283793305e+01 
1 -6.364962126441e+01   6.569994499803e+01   2.915166200573e+01 
1 -1.075142163823e+01   3.931421558777e+01   1.290650805670e+01 
8
Step 35000
1 -1.583011260881e+01  -4.420504262576e+01  -3.754422818208e+00 
1 -4.149041438437e+01  -3.260451320546e+00   8.677246354436e+00 
1  3.885830920641e+01   2.239348925097e+01   2.214161291014e+01 
1  1.462047587107e+01   4.736953594310e+00  -2.480128083641e+01 
1  3.248966961061e+01  -5.530484436139e+00   8.143652853891e+00 
1 -2.864428119097e+01  -2.949634766217e+01  -9.102136942944e+00 
1 -6.099345185088e+01   6.926218997716e+01   3.330105521437e+01 
1 -2.593950995233e+00   4.934943234552e+01   1.495282486465e+00 
8
Step 36000
1 -1.113491184780e+01  -5.684951298775e+01  -5.413222614127e-01 
1 -1.484545805969e+01  -3.096492586814e+01   3.578032178024e+00 
1  4.758006504447e+01   7.932219311258e+00   2.073410254952e+01 
1  2.488698782634e+01  -8.551130416028e+00  -3.849396186949e+01 
1  6.625176808158e+01   2.150989942771e+01   1.669878788795e+01 
1 -1.154807188609e+01  -3.111891778074e+01   9.400965899902e+00 
1 -3.840303440161e+01   4.669886610055e+01   2.761336390254e+01 
1  8.787253423946e+00   4.618403417832e+01  -8.966697809653e+00 
8
Step 37000
1 -1.079743829222e-01  -4.936870241758e+01   3.026525969980e+00 
1  1.736555738421e+01  -5.094002420780e+01   6.231362092998e-01 
1  3.739790877489e+01  -4.071780771896e+00   8.292247286329e+00 
1  2.647121509610e+01  -2.046162025711e+01  -4.439988300391e+01 
1  7.356084618982e+01   3.718304790560e+01   1.244407312788e+01 
1  5.834183485290e+00  -2.236564421213e+01   3.232137074002e+01 
1 -2.879216182397e+00   5.661416240884e+00   1.310971144996e+01 
1  1.896706093158e+01   3.320690732560e+01  -1.479269191954e+01 
8
Step 38000
1  9.507906005195e+00  -1.756499981742e+01   9.059553692003e+00 
1  3.913924961661e+01  -5.113143697756e+01   4.328887988664e+00 
1  1.636286641103e+01  -1.146458908894e+01  -1.185096723362e+01 
1  1.840736477174e+01  -2.694260665469e+01  -3.702204200164e+01 
1  5.346664284635e+01   3.526411526037e+01   2.244496527946e+00 
1  1.749997900995e+01  -7.087882453497e+00   4.548269357805e+01 
1  3.222019471402e+01  -3.686256930379e+01  -5.196494549687e+00 
1  2.284762048352e+01   1.498311990403e+01  -1.438116222080e+01 
8
Step 39000
1  1.051339428318e+01   3.102693191577e+01   1.753253900486e+01 
1  3.995077752267e+01  -2.810160704110e+01   1.488909822911e+01 
1 -3.494266847245e+00  -1.509123490861e+01  -3.191142756026e+01 
1  4.066087143540e+00  -2.507345990098e+01  -1.599861900918e+01 
1  1.616862355756e+01   1.740721082845e+01  -4.271827949114e+00 
1  2.085286206245e+01   8.508645462884e+00   3.793096960504e+01 
1  5.395264225338e+01  -6.353234989263e+01  -2.087819395771e+01 
1  1.690466589164e+01  -4.514063376135e+00  -8.829729997379e+00 
8
Step 40000
1  8.089585242187e-01   7.743880214098e+01   2.497714988639e+01 
1  1.962206842117e+01   1.044167080089e+01   2.750073506432e+01 
1 -1.226886409236e+01  -1.756668078862e+01  -4.262353102921e+01 
1 -9.933326760860e+00  -1.492045150271e+01   1.204544134945e+01 
1 -2.107080533408e+01  -7.486210435009e+00  -6.969003606372e-01 
1  1.722867897665e+01   1.880976217086e+01   8.195446398297e+00 
1  5.644252218574e+01  -6.591932786493e+01  -2.970329093594e+01 
1  1.378528649377e+00  -2.239346188417e+01  -1.457934834696e+00 
8
Step 41000
1 -1.457299775391e+01   1.008722074807e+02   2.624593439842e+01 
1 -1.067402584064e+01   4.754464416187e+01   3.406953600866e+01 
1 -6.821429368382e+00  -2.110421933291e+01  -3.686198515914e+01 
1 -1.703943640651e+01  -1.052502505201e-01   3.626390288593e+01 
1 -4.251604325358e+01  -2.759818157288e+01   1.172861431686e+01 
1  1.066716986555e+01   2.116537123423e+01  -3.343586054490e+01 
1  4.145223313407e+01  -4.577661821139e+01  -3.050182234267e+01 
1 -1.875619272158e+01  -3.629656302050e+01   3.731754577808e+00 
8
Step 42000
1 -2.648086374985e+01   8.981527263075e+01   1.789123436340e+01 
1 -3.401459282979e+01   6.574945542060e+01   2.777056946403e+01 
1  8.275507832670e+00  -2.571328903639e+01  -1.192584929924e+01 
1 -1.417111621795e+01   1.368395905348e+01   4.721571267941e+01 
1 -4.200591182188e+01  -3.435262212918e+01   2.492819792331e+01 
1  5.690931107146e+00   1.695804533035e+01  -6.872066997717e+01 
1  1.648667464018e+01  -1.266315172769e+01  -2.439305005796e+01 
1 -3.519011806491e+01  -4.376971791483e+01   4.142861928539e+00 
8
Step 43000
1 -2.668764709809e+01   4.668066537574e+01   9.634567720381e-01 
1 -3.745589519927e+01   5.650900333854e+01   7.164872883167e+00 
1  2.244081524415e+01  -2.845037891114e+01   2.831328385756e+01 
1 -3.107878774102e+00   2.113399099768e+01   4.130922620743e+01 
1 -2.449709613027e+01  -2.591424883212e+01   2.919249285067e+01 
1  4.714581830451e+00   1.033491328062e+01  -8.096750493186e+01 
1 -8.061136971508e+00   1.987123515178e+01  -1.387618605477e+01 
1 -3.983397526979e+01  -4.234251414699e+01  -1.175118217421e-01 
8
Step 44000
1 -1.290419312868e+01  -1.150828114630e+01  -1.761003243847e+01 
1 -1.827111780934e+01   2.346421155660e+01  -2.245081919864e+01 
1  2.318575673961e+01  -2.430324152692e+01   7.076319330472e+01 
1  1.024189880941e+01   1.941371560614e+01   2.227672273493e+01 
1 -2.272132370909e+00  -7.423744180554e+00   1.928668974916e+01 
1  6.789019782915e+00   5.298937476430e+00  -6.299200158712e+01 
1 -2.362127110159e+01   4.046682303231e+01  -1.588346724896e+00 
1 -2.855325904820e+01  -3.052444202244e+01  -6.290852622833e+00 
8
Step 45000
1  8.608634612373e+00  -6.039506051491e+01  -2.824340958023e+01 
1  1.379918241490e+01  -1.813743456074e+01  -4.977893540176e+01 
1  3.716183270307e+00  -9.470607406512e+00   9.576468920473e+01 
1  1.818562177644e+01   9.542394289601e+00  -3.402626313421e-01 
1  1.213057944316e+01   1.176405672220e+01  -1.697258044290e+00 
1  8.403684631372e+00   3.413655654993e+00  -2.021016540301e+01 
1 -2.702921166611e+01   4.452008299319e+01   1.059454068017e+01 
1 -3.596936554175e+00  -9.465247502582e+00  -1.009817090876e+01 
8
Step 46000
1  2.718607199917e+01  -8.325297105133e+01  -2.551109573686e+01 
1  4.117194637188e+01  -4.873851061575e+01  -6.275464629926e+01 
1 -3.067165630767e+01   1.476883053495e+01   8.737148994793e+01 
1  1.484329195533e+01  -3.699162047469e+00  -1.582484103449e+01 
1  1.307110778935e+01   2.339430360015e+01  -2.421342834079e+01 
1  5.749681615130e+00   3.131799402438e+00   3.029586645090e+01 
1 -2.065447299200e+01   3.420551283088e+01   2.125088396150e+01 
1  2.622498472626e+01   1.586359660784e+01  -7.983484887969e+00 
8
Step 47000
1  3.432020051631e+01  -7.754885331184e+01  -1.123716014748e+01 
1  4.954389498459e+01  -5.604329583932e+01  -5.532956624169e+01 
1 -6.315098625433e+01   4.068665928169e+01   4.422538714096e+01 
1 -6.016055841418e-01  -1.389523831604e+01  -1.807221580426e+01 
1  3.374138011988e+00   2.422573313709e+01  -3.849779822964e+01 
1 -2.694119279727e+00   1.194602888972e+00   6.779528649839e+01 
1 -1.035937254996e+01   1.599429056321e+01   2.860144048945e+01 
1  4.896271879476e+01   3.772638952261e+01   5.999725216773e-01 
8
Step 48000
1  2.712047358575e+01  -5.144759047025e+01   6.714737374146e+00 
1  3.450246205746e+01  -3.913145881300e+01  -2.926887947867e+01 
1 -7.477890817326e+01   5.740836243681e+01  -1.627096633719e+01 
1 -2.271332665551e+01  -1.608982796002e+01  -9.014993663305e+00 
1 -9.522243765806e+00   1.574876740288e+01  -3.886788245250e+01 
1 -1.501855611669e+01  -4.695286629719e+00   7.894965454980e+01 
1 -2.492945799921e+00  -2.541059833256e+00   3.035485518511e+01 
1  5.511097722450e+01   4.878817574226e+01   1.272952061416e+01 
8
Step 49000
1  9.480983166703e+00  -1.826657787747e+01   1.779612902000e+01 
1  2.632960273203e+00  -7.187524353594e+00   6.469823555304e+00 
1 -5.770945563936e+01   5.784693207636e+01  -6.743484341399e+01 
1 -4.131958315865e+01  -9.406478377831e+00   2.230781178904e+00 
1 -1.769010860457e+01   2.223753856133e+00  -2.467954508665e+01 
1 -2.659861380232e+01  -1.394730811120e+01   6.232564151393e+01 
1 -8.126311549489e-01  -1.579913253212e+01   2.453801758744e+01 
1  4.140695626569e+01   4.504998275495e+01   2.335104372164e+01 
8
Step 50000
1 -9.882120418287e+00   9.940701399632e+00   1.463391010329e+01 
1 -3.085077507085e+01   2.424585485155e+01   3.852512079697e+01 
1 -1.956211655217e+01   4.261631021918e+01  -8.942339003925e+01 
1 -4.599438081703e+01   2.368759155610e+00   4.783983205823e+00 
1 -1.574309776890e+01  -1.090713514129e+01  -3.268235948150e-01 
1 -3.183828002602e+01  -2.279072204566e+01   2.713490333085e+01 
1 -4.821123285608e+00  -2.174278215377e+01   1.083724619716e+01 
1  1.187895172691e+01   2.751046906438e+01   2.712343784701e+01 
8
Step 51000
1 -2.233834575734e+01   2.744847693308e+01  -2.042079302606e+00 
1 -5.102737050572e+01   4.176511899596e+01   5.614764130770e+01 
1  2.258907541998e+01   1.848343415549e+01  -7.766965125199e+01 
1 -3.130225016126e+01   1.302227504520e+01  -6.806248120292e+00 
1 -3.204880098623e+00  -1.868911531837e+01   2.576047398822e+01 
1 -2.677405095678e+01  -2.591713152344e+01  -1.108133404268e+01 
1 -1.028874580505e+01  -2.147019094058e+01  -8.301160775718e+00 
1 -2.301806862224e+01   2.514821047012e+00   2.076471566668e+01 
8
Step 52000
1 -2.351184745666e+01   3.521925067283e+01  -2.317926369198e+01 
1 -5.088744169661e+01   3.982968786548e+01   5.538343163877e+01 
1  5.159613244859e+01  -5.590640888148e+00  -4.251874462871e+01 
1 -2.043059318314e-01   1.732828164289e+01  -2.812449540027e+01 
1  1.489684937468e+01  -1.846169540153e+01   4.395549684811e+01 
1 -1.133202944145e+01  -1.959308725182e+01  -3.790019925490e+01 
1 -1.157768390182e+01  -1.755065654579e+01  -2.763503131260e+01 
1 -5.030877225967e+01  -2.048961573274e+01   5.197183548160e+00 
8
Step 53000
1 -1.467190755534e+01   3.736441925042e+01  -3.586179954543e+01 
1 -3.217409509114e+01   2.041376035751e+01   3.826155884673e+01 
1  5.882042539678e+01  -2.291106448261e+01  -2.257292740973e+00 
1  3.583715109517e+01   1.392326905047e+01  -4.605071994548e+01 
1  3.011169364250e+01  -1.081125797915e+01   4.718715521627e+01 
1  1.039379382870e+01  -4.102470409305e+00  -4.644434544234e+01 
1 -4.717753386111e+00  -1.220674768553e+01  -4.057309438481e+01 
1 -6.040468388944e+01  -3.357678051603e+01  -1.447008124107e+01 
8
Step 54000
1 -1.478333652369e+00   3.686388744940e+01  -3.009420260634e+01 
1 -3.841988411899e+00  -8.131926626027e+00   1.163238429551e+01 
1  4.674766288646e+01  -3.146605174417e+01   2.713421814417e+01 
1  6.210305420750e+01   5.947226900204e+00  -4.644624680044e+01 
1  3.438453804965e+01   8.888866259136e-01   3.364207824045e+01 
1  3.154933849943e+01   1.582731402639e+01  -3.882268889377e+01 
1  1.023269556812e+01  -6.252423690469e+00  -4.152993216200e+01 
1 -5.060397392009e+01  -3.398473948326e+01  -3.106796466242e+01 
8
Step 55000
1  9.109836712497e+00   3.344560117683e+01  -4.551032495749e+00 
1  2.195106837271e+01  -3.377655907688e+01  -1.508437184599e+01 
1  2.472690276699e+01  -3.284405152104e+01   3.823225892003e+01 
1  6.797461737864e+01  -1.463226301933e+00  -2.322898435720e+01 
1  2.383406102868e+01   1.182932047358e+01   7.539904439469e+00 
1  4.488755816752e+01   3.267163874825e+01  -2.324718125979e+01 
1  2.856423924007e+01   7.175936837870e-01  -2.826483639021e+01 
1 -2.504242442028e+01  -2.487987902798e+01  -3.795648043879e+01 
8
Step 56000
1  1.236624521316e+01   2.452333682698e+01   3.118459568305e+01 
1  3.622219554337e+01  -4.623008258416e+01  -3.412649222119e+01 