8
Step 0
1 -3.472934504792e+01   2.985585161505e+01   4.552711624413e+01 
1 -3.872914153085e+01   5.183552870333e+01   2.841252880511e+01 
1  6.597310272429e+01   3.473535297890e+01   3.212630301548e+01 
1 -6.209027598665e+01   1.844554586020e+01  -3.110501871492e+01 
1 -4.675834713363e+01   3.854789838996e+01   6.659078998682e+01 
1 -1.328434623653e+01  -5.953552595268e+01  -6.135440417252e+01 
1  6.150941286889e+01  -3.705897999201e+01   2.680974576907e+01 
1  1.897523860070e+01  -3.176705575740e+00  -2.894581516525e+01 
8
Step 1000
1 -3.487630917179e+01   3.574696653913e+01  -1.954384148079e+01 
1 -3.462394756108e+01   2.025514022186e+01   5.675011144918e+01 
1  3.902945174377e+01   2.933191687917e+01   1.737362747894e+01 
1 -4.333248518860e+01  -1.564587210311e+01  -2.063719098448e+01 
1 -1.913923671340e+01  -8.719663060213e+00   1.319402477334e+01 
1 -1.185028292982e+01  -4.895789577894e+01  -2.841626585893e+01 
1  2.429285922276e+01   1.438874484142e+01   1.145113306780e+00 
1 -1.937112012725e+01   3.245410510302e+01   1.660496775128e+01 
8
Step 2000
1 -4.307105554521e+01   1.104678644458e+01  -1.328799639975e+01 
1 -1.228426529636e+01  -2.192553716990e+01   3.127043598895e+01 
1  2.096566390727e+01  -4.488752661977e+00  -1.136145633474e+01 
1 -7.421767221625e+01   3.383073499064e+01   2.689597024150e+01 
1 -5.548260895626e+00  -3.165822230013e+01   2.392519758351e-01 
1 -5.907032970267e+00  -2.587430026557e+01   6.102843675736e+00 
1  3.749410978225e+01  -3.721866781656e+01  -1.095701968980e+01 
1  1.648179214192e+01  -4.412814696448e+01   1.747138772917e+01 
8
Step 3000
1 -2.297691716878e+01   5.279215607210e+01   6.887802059136e-01 
1 -3.890267043571e+01  -2.223186012459e+01   3.284965683306e+01 
1 -1.270624043220e+01   1.198587082500e+01   5.041183435483e+00 
1 -2.650921756007e+01   3.664189525946e+00   7.935491084981e+01 
1 -4.343427851607e+00  -8.310786543963e+01  -8.725689208493e+00 
1  3.138395240543e+01   1.898798268731e+01  -3.146131972130e+01 
1  2.076239409884e+01  -3.301363302032e+01  -3.538214871990e+01 
1  2.766506723139e+01  -9.689982232403e+00  -1.957776101313e+01 
8
Step 4000
1 -4.553129474599e+01   3.619095901907e+01   1.594068375357e+01 
1 -4.495600724453e+01   1.105380799788e+01   2.160690064528e+01 
1  2.315872215140e+01  -3.888203668570e+00   5.494931775666e+01 
1  2.506185382018e+01  -1.905821504899e+01   2.114689418978e+01 
1  1.098518875419e+00  -1.502893502118e+01   3.582088495798e+01 
1  6.450712869540e+01  -1.913416959219e+00   6.428164854299e+00 
1  2.926787723575e+01  -1.490452735247e+01  -2.933817364992e+01 
1  1.448376810000e+01  -2.489500457896e+01  -4.286928232164e+01 
8
Step 5000
1 -5.604990504517e+01  -6.545703179585e+01  -1.274647576959e+01 
1 -3.428552285922e+01   1.901784284148e+01   3.725864532518e+01 
1  2.799595318266e+01  -2.072295329682e+01   5.143676806510e+01 
1  2.388981806742e+01  -2.415234654424e+01  -2.038414898622e+01 
1  1.191091045356e+01  -2.644473864780e+01   2.627217534630e+01 
1  2.010574242026e+00  -6.631258892138e+01  -2.077967076197e+01 
1 -4.617292817247e+00  -1.528042997039e+01   2.328666668060e+01 
1  1.379753667843e+01   3.474445031289e+01  -3.598409192873e+01 
8
Step 6000
1 -6.315694781134e+01  -2.840797796442e+01  -4.546534935459e+01 
1  1.504172945046e+00   1.079819636000e+01   1.391213735093e+01 
1  8.722637116325e+00  -2.186052429424e+01   7.767001772526e+00 
1  1.973486445998e+01  -4.631757869293e+01   1.961318757567e+01 
1  3.140173285508e+01  -4.535272964506e+01   3.549222439795e+01 
1 -1.220534777803e+01  -2.149442221135e+01  -1.886429559325e+01 
1  2.968070644744e+01  -5.143309031566e+01   2.325806360638e+01 
1 -3.940049532386e+01   1.038170860018e+01   7.261386171160e+00 
8
Step 7000
1 -2.855563028340e+01  -1.129590968402e+01  -3.006556594935e+00 
1  1.170993859120e+01   4.220920293167e+01   2.630805120359e+01 
1 -1.336480237905e+01  -1.778164137999e+01  -2.035971716799e+01 
1  4.032204269452e+01  -1.598505636627e+01   1.754968512291e+01 
1  1.338277809846e+01  -5.367950325438e+01   2.164312269987e+01 
1  5.329105787077e+01   1.991728760901e+01   7.331754700471e+00 
1  7.415302935422e+01  -3.593251338579e+01  -3.302749083705e+01 
1  2.351109586135e+01  -5.179801280622e+01  -1.726582214999e+01 
8
Step 8000
1 -2.691852952168e+01   3.745563074412e+01   1.128027999767e+01 
1  4.432826330791e+01   6.893768548492e+00   8.487231081949e+00 
1 -8.942418059856e+00  -4.449346953180e+01   1.318640076447e+01 
1  3.354396976908e+00   6.941608487818e-01   2.806570590224e+01 
1 -3.777731869506e+01  -8.613072065815e+00   1.011891993427e+01 
1 -2.189669708947e+01   3.323791386210e+01  -2.083016772527e+01 
1  5.047102731227e+01   7.615624885180e+00   5.315759998822e+00 
1  4.304954561260e+00  -1.496948807784e+01  -7.757899015684e+00 
8
Step 9000
1 -3.252150465288e+01  -2.612625221311e+01  -1.355032846957e+01 
1  7.701118086010e+00  -2.139716911220e+00   9.537022759990e+00 
1 -4.635569881651e+00   4.637480847975e+00   2.837083082091e+01 
1 -1.907276291262e+01  -2.160019598245e+01   1.054856915868e+01 
1  7.959543901395e+00  -5.706811086845e+01  -2.892748167698e+01 
1  3.117357461419e+01  -3.162739924992e+01   5.745922232698e+01 
1  1.003381292637e+01  -1.528038345757e+01   4.645074469352e+01 
1 -4.022711121915e+01   4.700711409445e+01  -4.766572255298e+01 
8
Step 10000
1 -2.697540131194e+00   7.846527271466e+00  -3.226088169297e+01 
1 -5.336603481960e+00   6.577534390068e+00   1.101752483760e+01 
1  8.000815813519e+00   5.256159703978e+01   6.927279631591e+01 
1 -2.384241601029e+01   1.965737736395e+00   1.546768416277e+01 
1  6.773262289032e+00  -1.850885428369e+01  -6.926472686242e+00 
1  4.199541144838e+01  -3.111111739342e+01   4.644349353535e+01 
1 -2.879002529837e+01  -3.421669704576e+01  -2.254781403382e+01 
1  3.839392431626e+00  -2.496632169152e+01  -2.787161171752e+01 
8
Step 11000
1 -9.760622169896e+00   5.164850744998e+01   1.429035513885e+01 
1  7.642778615470e+00  -1.065798377401e+01  -6.627158475702e-01 
1 -2.939613537565e+01   6.356327069634e+01  -9.183386322856e+00 
1 -1.334432915912e+01   2.929170316441e+01   1.740106397647e+01 
1  1.688140732257e+01  -2.647585632516e+00   1.778035175049e+01 
1  5.136330710539e+01   3.005241650584e+01  -1.992739549323e+01 
1  4.914667642617e+01  -5.501067411079e+01  -7.805974838109e+00 
1 -2.119134143338e+01   9.012268457435e+00   2.065372258610e+01 
8
Step 12000
1  3.499183843383e+01  -8.292819149246e+00   1.055279245241e+01 
1 -1.602376946787e+01   1.750668723903e+01  -1.505201760022e+01 
1 -5.814097099271e+01   3.654811261224e+01  -6.133517376033e+01 
1 -2.067845741080e+01   2.099903200355e+01   2.079798330349e+01 
1 -3.272581926472e+01  -1.841651100193e+01   2.300369672716e+01 
1 -1.704581964319e+01  -1.191658316523e+01  -7.333744728831e+01 
1  1.221674416435e+01   3.727101994985e+01   8.649552643993e+00 
1 -4.093612596773e+01   5.164950410466e+01   4.454363043921e+00 
8
Step 13000
1  4.568491009273e-01  -8.888981481021e+01  -2.270963007849e+01 
1 -2.024314508977e+01   3.763150688175e+01   8.285267554015e+00 
1 -1.291517401495e+01   4.450010518618e+00  -1.977931345171e+01 
1 -4.752780914874e+00   1.990341912154e+00   4.790059186069e+01 
1 -6.081806517434e+01  -2.439351939599e+01   2.654140246553e+01 
1  1.011822949431e+01  -4.443498623164e+01  -2.599243218031e+01 
1 -4.784661819049e+00   5.096678697013e+01   5.938944502077e+01 
1 -3.311523279642e+01   3.150901740397e+01  -1.150575600462e+01 
8
Step 14000
1 -3.433475495588e+01  -1.870360168534e+01   3.691017050368e+01 
1 -1.494169069063e+01   6.013691247830e+01   4.476119516487e+00 
1 -1.065730734440e+01   4.938244374073e+01  -3.089465568328e+01 
1  5.912216482228e+01   4.402891231386e+00   5.116714557343e+00 
1 -4.811786609140e+01   4.075475311481e+01   5.414517152109e+00 
1 -2.002840402624e+01  -1.630171844750e+01   2.057224899302e+01 
1  1.714325926674e+01   1.279692514079e+01   1.812636631490e+01 
1  8.573954425412e+01  -1.243638621966e+01  -4.493210701359e+01 
8
Step 15000
1 -4.522108532833e+01   1.548770395169e+01   6.358042903574e+00 
1 -4.283151808961e+00   6.759214835627e+01  -4.634788990290e+01 
1 -1.126615884367e+01   1.826396545608e+01   5.710392803535e-01 
1  3.882520238292e+01   1.940448131931e+01   1.083673342361e+01 
1 -5.687416863411e+01   8.869343108300e+00  -2.692976081962e+01 
1 -6.398118346436e+01   8.398684335100e+01   3.714421429565e+01 
1  1.349285328548e+01   7.954922134096e+01  -5.833944257698e+01 
1  5.658973529333e+01  -2.016266296560e+01   2.081694080375e+01 
8
Step 16000
1 -3.616032556761e+01  -3.484640681865e+01  -2.091413474579e+01 
1 -2.871451614126e+01   1.319004667662e+01  -2.565668349122e+01 
1 -7.489992198404e+00  -1.310275603893e+01  -4.465155582007e+01 
1  2.109673122115e+01   1.729889384311e+01  -5.310895898305e+01 
1 -1.674366167898e+01  -5.256465997393e+01   2.898897381940e+01 
1 -6.946086405271e+01   6.570036302739e+01   4.407979509679e+01 
1 -8.155539233678e+00   4.500446388024e+01  -1.266955981581e+01 
1 -2.909628594732e+01  -1.488164232346e+01   3.407045236458e+00 
8
Step 17000
1 -4.745394855758e+01  -2.079336316131e+01  -2.867764270001e+01 
1  1.524319930560e+00   8.801317113912e+00   2.314870654854e+01 
1  2.340664831935e+01   4.723309623375e+00  -2.476183531409e+01 
1  2.607978229743e+01   3.441388167715e+01  -2.046279882898e+01 
1 -1.600142314717e+00   1.860654571644e+01   6.496360457842e+01 
1 -4.804356684732e+01  -9.387484751935e+00  -1.649939004132e+01 
1 -2.152440478081e+01  -1.074454799169e+00   2.231352203405e+01 
1 -4.290543816771e+01  -1.857849965532e+01  -7.986854996175e+00 
8
Step 18000
1 -6.470225395502e+01   5.817012653569e+01   2.095153337746e+01 
1 -1.845530778282e+01   2.752219301574e+01   4.676246000298e+01 
1  1.203204379353e+01   4.360578964365e+01  -4.502869527598e+01 
1  2.522079959622e+01   4.025423660244e+01   6.163234198985e+00 
1 -1.293300994801e+00   6.063291930197e+01  -1.068355791013e+01 
1  4.541862285537e+01  -1.659968260630e+01  -5.932924762931e+00 
1 -2.439909471520e+00   9.835591960219e+00   6.115052875081e+01 
1  8.789118841663e+00  -3.098316512935e+01  -5.890619733246e+01 
8
Step 19000
1 -1.897387557159e+01  -5.028901323742e+00   2.684699414316e+01 
1  2.090474704112e+00   1.532147175202e+01  -5.590408815775e+00 
1 -3.685521533930e+00   1.394560887646e+01  -5.325229152357e+01 
1 -1.249117489658e+01   3.676558643881e+01   2.617211048414e-01 
1  1.765808359959e+01   4.852240107856e-01  -3.325968823463e+01 
1  1.724314902599e+01   3.916484473791e+01   1.162393258142e+01 
1 -6.625137564226e+00   2.688442685948e+01   2.940874227352e+01 
1  2.541527993617e+01  -1.038811397610e+01  -3.967603074181e+01 
8
Step 20000
1 -3.238009211366e+01  -1.458572099920e+01  -1.877589560180e+01 
1 -2.402241089815e+00   2.128759690908e+01  -1.587492505552e+01 
1  4.600461507825e+00  -3.379929922386e+01  -2.364493755937e+01 
1 -6.742009049272e+01   4.022101081199e+00   7.880890831013e+00 
1 -4.474532318262e+01  -4.409036586776e+01   2.804445954345e+01 
1 -4.384548805346e+01   3.448842805198e+01   5.898973909824e+00 
1  3.266803637890e+01   3.720922726271e+01   3.284156128355e-01 
1 -1.555332775256e+01   1.366834533081e+01   2.581277915366e+01 
8
Step 21000
1 -3.760832545299e+01  -9.372198021942e+00  -6.893262311087e+00 
1 -1.873623819821e+01   2.644042757377e+01  -2.604273931760e+01 
1  2.157420500407e+01   1.545497877069e+01  -6.083754970145e+01 
1  1.583367127130e+01   8.088480141122e+00  -1.441405564166e+00 
1  2.489871828146e+01  -1.521114987880e+00   3.082670972144e+01 
1  7.810431857151e+00   2.154852443080e+01  -1.810558213493e+00 
1  3.709142102739e+01  -1.112216846667e+01   3.913913177418e+00 
1 -4.521971958129e+01  -9.950834213630e+00   2.040247906726e+01 
8
Step 22000
1 -2.298164965430e+00   2.574635208696e+01  -2.893516715547e-01 
1 -1.318348416305e+01   1.241235595060e+01   5.084142089980e+01 
1 -2.836666002667e+01   2.561154715557e+01  -2.002301136818e+01 
1  3.856181377722e+00  -3.750683096809e+00  -8.591028705725e+00 
1  8.633520321781e+01   7.311856802850e+01   1.991010165154e+01 
1  3.647157288300e+00  -1.313239257803e+01   2.269118622286e+01 
1  6.426406921907e+00   2.056094831469e+01   6.329906597082e+00 
1  1.164921770034e+01   1.443897224584e-01  -2.207084329391e+01 
8
Step 23000
1 -2.151942119003e+01   4.877538938504e+00  -5.782329268952e+01 
1 -1.594011606758e+01  -5.438493252948e+01  -4.786795395554e+01 
1 -2.489042508538e+01  -7.047092291963e+01  -2.265613416371e+01 
1 -3.528904346494e+01  -5.762461263913e+01  -6.573785404417e+01 
1 -8.319292934384e+00   1.972532611128e+01  -1.495909112534e+01 
1  1.943603542755e+01  -4.507794855319e+01   6.778254813788e+00 
1  1.487296573438e+00   6.679575913318e+01   5.420963837480e+01 
1 -9.628918830816e+00   1.109503158265e+01  -5.075468074564e+01 
8
Step 24000
1 -9.652870128346e+00  -1.455321546941e+01  -5.034983211190e+00 
1  2.856108849499e+01  -3.794781307739e+01  -5.708230221355e+01 
1 -2.465762659296e+01  -1.088663777689e+02   3.219325684311e+00 
1 -3.798641115890e-01  -9.357563122925e+00  -1.180405130167e+01 
1 -2.169618653050e+01  -1.944675466023e+00  -2.152083814973e+01 
1 -3.611505082575e+01  -3.234394094492e+01   2.848547800817e+01 
1 -2.927375255165e+01   2.694662787679e+01   4.588323300785e+01 
1 -2.624112018881e+01   1.474067735807e+01   2.564668334069e+01 
8
Step 25000
1 -1.335639133771e+01  -1.780268834788e+01  -4.020155417903e+01 
1  5.716942891014e+01   2.077333043581e+01  -5.364983039192e+00 
1  5.999276276861e-01  -5.187408424409e+01   2.801537280038e+01 
1 -1.945613799917e+00   1.877186824789e+01  -4.883171335989e+01 
1 -6.656598935293e+00  -3.133521080273e+01  -7.595146335149e+00 
1  1.902663707708e+01  -9.929587830908e+00  -5.634929965004e+00 
1  1.765145788790e+00  -1.462666087607e+01  -1.731017507261e+01 
1  1.376584338543e+01   3.042503996192e+01   2.167871239406e+01 
8
Step 26000
1 -2.977776048772e+01  -1.088829963027e+01  -1.299412941181e+01 
1  2.824280310761e+01  -1.643596585022e+01   7.113463840705e+01 
1  2.497344949113e+00  -2.142470337562e+00  -3.708157302232e-01 
1 -9.301076301364e+00   3.719181907558e+01  -2.355622275986e+01 
1 -1.209483062790e+01   5.343531542450e+01  -5.300383170468e+01 
1  2.160695355646e+01  -1.982491834104e+01  -1.803889256107e+01 
1  1.543825271079e+01  -4.662295656237e+01   2.783460838299e+01 
1  3.967851923820e+00  -4.389214902073e+01   2.231188731965e+00 
8
Step 27000
1  2.940350843731e+01  -2.355355993966e+01  -6.104128276342e+01 
1 -2.331886126530e+01  -7.694402428374e+01  -1.030159920855e+00 
1 -2.348578816836e+00  -5.928322579013e+01  -1.686058112871e+01 
1 -6.321065318003e+01  -2.663019097167e+01   3.123098096301e+01 
1 -6.103137357973e+01   2.723086230219e+01   2.273931388436e+01 
1 -5.107518874974e+01  -7.034514504365e+00  -1.637839851946e+01 
1 -3.235505342535e+01   2.410635718319e+01   3.212069464599e+01 
1  6.363392671695e+00  -1.037935209671e+00  -2.688698357954e+01 
8
Step 28000
1  4.189643012903e+01  -2.546427761737e+01   6.227117415522e+00 
1  1.365587610775e+01  -5.016224782422e+01  -7.312257299301e+00 
1  5.756271824762e+01  -5.956348416705e+01   2.756418849551e+00 
1 -2.166795679994e+01  -1.438121458869e+01   1.003851478533e+01 
1 -1.369061741069e+01  -4.097723573035e+01   6.238571137927e+01 
1 -4.241644913998e+01   2.712780615414e+00  -5.803893509681e+01 
1 -3.408821843943e+01   4.035784864890e+01  -3.010218412099e+01 
1 -2.856113500766e+00  -1.306508765855e+01   7.606485814521e+00 
8
Step 29000
1 -2.037551934621e+01   2.231449670698e+01   3.977518979112e+01 
1 -2.130006827331e+01   5.534764646307e+00  -5.613022841695e+00 
1  1.323661800983e+01  -3.126552351603e+01   1.324994650828e+01 
1  2.716685043492e+01   1.526786667267e+01   6.081330258091e+01 
1 -4.280977745122e+00   3.655316930308e+01   3.729006469428e+01 
1 -3.187528439986e+01  -2.526172569870e+01  -1.503072569215e+01 
1  7.299431728531e+01  -2.949939668662e+00  -2.571475103936e+01 
1  7.922624664284e+00  -1.010612479227e+01  -9.645199194353e+00 
8
Step 30000
1  1.535404038214e+01  -1.162323402031e+01  -4.089866183143e+00 
1 -4.972321792026e+01  -1.081831981449e+01   3.922465925499e+00 
1 -2.250331476418e+01   8.582198860648e+00  -3.636622218278e+01 
1  4.317064319319e+01  -6.540344751390e+00   1.027069719262e+01 
1  8.761594207990e+00   1.035894798606e+02  -5.613958380136e+01 
1  7.630832743757e+00  -3.257610717315e+01   5.778473080163e+00 
1  9.556089380708e+00  -6.954084379260e+01   2.840209170860e+01 
1 -2.857656117819e+00  -1.186632415744e+01  -5.332124542754e+01 
8
Step 31000
1 -3.986149527453e+01  -1.002691190253e+00  -3.896101737521e+01 
1 -5.619967038716e+01  -2.905896965387e+01   7.276546261015e+00 
1 -3.118824004249e+01  -3.872662590127e+01   3.720259543595e+01 
1  4.438955976907e+01  -5.434074657941e+01  -1.005637989152e+01 
1 -2.145275050923e+01   1.172519019040e+00   1.549254382112e+01 
1 -4.376414828610e+01   2.876666201817e+00   1.901383746716e+01 
1 -1.807542484219e+01  -3.526641929316e+00   9.822950061172e+00 
1  2.312368488452e+01   7.063511348031e+01  -4.444443914838e+01 
8
Step 32000
1  3.215446919466e+01   1.148158100995e+01  -4.507427803303e+01 
1  2.214868016609e+01   9.364969389994e+00  -2.446021194669e+01 
1  5.047515963052e+01   3.969008216025e+00   2.511309090914e+01 
1  6.412223655679e+00  -1.088467861324e+01  -7.911569901325e+00 
1 -1.241729271271e+00  -3.110897003878e+01   4.578212772029e+01 
1  4.727101200858e+01  -3.419674309330e+01   1.490685501026e+01 
1 -3.487434818284e+01  -6.485561053190e-01  -7.032235334959e+00 
1  4.840975851010e+01   2.494879871303e+01   2.092788937890e+01 
8
Step 33000
1 -5.175652143459e+01   1.782982435784e+01   1.987956865281e+01 
1 -6.476373090746e+01   4.624368185892e+01   2.174435106006e+01 
1  2.150843036625e+01   4.919360242155e+01   4.613299739529e+01 
1  7.786775090303e+01   1.182545535642e+01  -4.485811455908e+01 
1  2.599816247732e+00  -5.694379522754e+01   4.908948975182e+01 
1  5.140141684999e+01  -2.275349083555e+01  -9.026767427782e+00 
1 -2.340712365811e+01   3.516109709776e+01  -2.540614767760e+01 
1  1.414448957360e+01   8.855370748593e+00   3.196944160873e-01 
8
Step 34000
1 -3.518652513046e+01  -4.720096777517e+01   1.175522277507e+01 
1 -4.673975580554e+01   2.797733046066e+01  -1.668644352307e+01 
1  4.063803013814e-01   4.623587773378e+00  -2.842276036907e+01 
1  2.705865316115e+01   6.514201567189e+00  -2.592595381925e+01 
1  2.965923063272e+00   1.151474343422e+01  -2.303689529013e+01 
1  2.377182455372e+01   1.250999929465e+01   5.780152559174e+01 
1  5.979079456832e+01   1.773524701916e+01   2.106449834313e+00 
1 -4.196679815167e+01  -1.224176918780e+01  -4.507182902226e+01 
8
Step 35000
1 -1.355757406119e+01  -5.138318722890e+01   1.063548090710e+01 
1  4.877861074132e+00   6.011423373208e+01  -8.174973570578e+00 
1  2.023936205953e+01   2.578715519081e+01  -4.746156808317e+01 
1 -2.341429397467e+01  -6.164706135820e+01   4.703533603156e+01 
1  2.827084422172e+01   3.724150638649e+00  -5.981600255468e+00 
1 -1.501199876006e+01  -1.510729127832e+01   4.557757683314e+01 
1  4.712035560064e+01   3.851962372768e+01   2.019828970393e+01 
1 -5.136431487670e+01   8.244178596096e+01  -5.512350480598e+01 
8
Step 36000
1 -1.624666949851e+01  -8.985602010799e+00  -1.619193155308e+01 
1  7.781587848520e+00   3.679824050740e+01   2.307784949440e+01 
1  4.290132699761e+01   2.803379427897e+01  -4.157555020735e+01 
1 -7.048001424430e-01   1.008004573678e+01   6.733792125108e+01 
1  1.202250191411e+01  -1.807163996389e+01   1.287657428115e+01 
1  1.441260208670e+01  -8.121826919265e+01  -4.846755851422e+00 
1  1.285261226200e+01   5.958464010724e+01   1.626951651949e+01 
1  3.907895350657e+00   2.547772331129e+01   2.277867565488e+01 
8
Step 37000
1 -3.607015904754e+01  -1.806973165950e+01   4.919962403387e+01 
1  8.696934953848e+00   5.542962877269e+00   4.030847317099e+01 
1  1.876173755352e+01   3.290800971925e+01  -2.959566037866e+01 
1 -3.081009354754e+01   5.186588259173e+01  -2.138579400919e+01 
1 -3.092465473129e+01  -2.079238126514e+01   1.617516095249e+01 
1  5.836816809712e+01   6.664504592968e+00  -5.013075118835e+01 
1 -2.986931865175e+01   3.430864609081e+01  -4.278274366424e+01 
1 -4.501056432270e+01   7.538996859929e-01   3.868237938466e+01 
8
Step 38000
1 -3.968644868539e+01  -3.881564778025e+00  -8.395224349367e-01 
1  1.826814670234e+01   6.015460507208e+00   1.019891245632e+01 
1 -1.393043461805e-01   1.915830267770e+01  -1.743006191474e+01 
1 -8.677132337495e+00   1.036542049275e+01  -6.561799918823e+01 
1 -5.934563416260e+01  -9.464031356949e-01   2.195027409166e+01 
1  5.089790286373e+00   3.954926862732e+01  -1.730411533828e+01 
1 -2.170416148993e+01   2.907267138029e+01   4.258166924956e+01 
1 -2.536514979850e+01  -6.974725507661e+00   1.694907987158e+01 
8
Step 39000
1  1.850494773864e+01  -7.267092507999e-01  -4.386272873976e+01 
1  3.453648642078e+01  -2.658587081633e+01   7.276366110574e+00 
1 -8.360808385941e+00  -6.688090186464e+01   4.487738624459e+01 
1  5.612165001943e+01  -1.327148022839e+01   3.033102157468e+00 
1 -4.247087740821e+01  -4.172065888757e+01   1.886936640661e+01 
1  8.977044702801e+00  -2.430656879883e+00  -2.581569152267e+00 
1 -1.379497710395e+01   3.367873666561e+01   7.893654004194e+01 
1 -2.229070384503e+01   2.983929331719e+01  -1.269051033432e+01 
8
Step 40000
1 -1.949490067673e+01  -2.253687315273e+01  -1.022940611188e+01 
1  9.782409865012e+00   3.567903520276e+01   2.059235278037e+01 
1 -8.955751887978e+00   3.363941939682e+01   5.096091527179e+01 
1 -2.234346924447e+01   4.285536349373e+00   5.817491101254e+01 
1 -2.777509518208e+01  -1.625013028709e+01   3.554036262138e+00 
1 -2.468064168051e+01  -1.877414648682e+01   6.733032079210e+01 
1 -4.477405192069e+01   2.449580302675e+01   8.301990769859e+00 
1  5.420802367165e+00   3.243678157688e+01   2.489422823078e+01 
8
Step 41000
1 -1.570687299073e+01   1.003058431542e+01  -2.142023772871e+01 
1 -7.368058405194e+01   1.670681730882e+01   2.558104917321e+01 
1  2.205219049451e+01  -2.833611567101e+01   2.317681553976e+01 
1  2.687999634368e+01   1.712419005668e+01  -2.143459467856e+00 
1  1.247918017707e+01   3.047436511376e+01  -6.372591232044e+01 
1 -4.478203661998e+01  -3.051041810285e+01   2.212816385663e+00 
1 -1.222156744299e+01   4.514725122270e+01  -5.539581929256e+01 
1 -2.149233449435e+01   5.327609764268e+00   6.653710294480e+01 
8
Step 42000
1  3.375853791344e+01   3.515594169983e+01   3.459455468402e+01 
1 -6.018156100070e+01  -7.732207624580e+00   1.566644421727e+01 
1 -2.383615771745e+01  -6.540118158256e+01   1.423253958787e+01 
1 -2.538273959874e+01   4.356412604434e+00  -3.150867628447e+01 
1 -1.920013190845e+01   2.902348000908e+01   2.553582987853e+01 
1  1.951305168695e+01  -1.335964941964e+01   3.111460396681e+01 
1 -1.675884315382e+01  -4.263115394210e-01   2.310652126437e+01 
1  5.312958686800e+01   8.929143035687e+00  -1.754144393621e+01 
8
Step 43000
1 -1.194207526412e+01   2.092479740625e+01  -5.201540148028e+01 
1 -3.139536638220e+00  -2.229216625116e+01   4.076454562288e+00 
1  1.189661795340e+01  -7.774192972722e+01   5.123468374754e+00 
1  2.279540342487e+01  -1.282540421661e+00  -1.075821905559e+01 
1  4.590132525398e+00  -1.403353988415e+01   4.753897618404e+01 
1  3.059228775358e+01   5.415574637673e+01  -1.533229226293e+01 
1  3.093583707272e+01   1.695736745605e+01   1.887589444793e+01 
1 -1.760242082841e+01   8.217024689312e+00  -1.586311691109e+01 
8
Step 44000
1 -5.523205611682e+01  -3.652809795732e+00  -4.277565123896e+01 
1 -4.052646537259e-01   1.712109766011e+01   1.787725822568e+01 
1 -4.401945450588e+01  -2.579101151940e+01   2.973273161149e+01 
1  6.622634943949e+00   4.396693914821e+01   2.613130865944e+01 
1 -3.968668160175e+01  -2.324957086882e+01   2.140015451799e+01 
1  2.619867786487e+01   3.489551698261e+01  -7.653245467628e+01 
1  2.008897309166e+01   8.805588690203e+00   6.749637759770e+01 
1 -5.070645144210e+00   2.706300248565e+01   9.269439492306e+00 
8
Step 45000
1 -2.166905403329e+01  -1.794523386872e+01  -2.173937953343e+01 
1  1.247127873561e+01  -2.059125429717e+01  -1.113769120066e+00 
1 -6.325198829637e+01  -7.992138193972e+01  -1.519161141326e+01 
1 -2.788279216537e+01  -1.795789815710e+01  -1.953691955079e+01 
1 -1.607112322708e+01  -2.218790943778e+01  -3.566116978503e+01 
1  8.267475594849e+01   1.021017385167e+01  -2.930715605316e+01 
1 -4.936455169259e+01   5.704286504394e+01  -2.612407681887e+01 
1  3.984336305707e+01   1.563016717133e+01  -1.451942770398e+00 
8
Step 46000
1 -4.045266671962e+01  -3.672302346617e+01   7.831692994754e+00 
1  8.369586253948e+00   1.588676319237e+01  -1.895074861797e+01 
1  1.095382017823e+01  -8.560655833011e+01   8.225488913871e-01 
1 -4.258872544110e+01  -2.076712741764e+01  -8.378768128887e-02 
1  4.123797075660e+00   3.517069783733e+00  -5.426756068769e+01 
1  6.464230006039e+00  -4.507027062145e+00   3.698380359179e+01 
1 -1.508615525999e+01   5.208243681463e+01  -8.189858821775e+01 
1  4.235052266989e+01  -4.835744466351e+01   5.268423695167e+01 
8
Step 47000
1 -9.666482218269e+01   1.990994596122e+00  -1.820535230414e+01 
1 -1.121402101874e+01   2.460197224780e+01  -5.497298027119e+01 
1  4.981922367258e+01  -3.707930975665e+01   1.500716903699e+01 
1  5.908524189802e+00  -2.594519173666e+01   3.905608222523e+01 
1  8.417003703813e+01   4.956472677718e+01   4.047590187436e+01 
1 -1.244606324284e+01  -5.292859463811e+01   7.870027058076e+01 
1  2.247187677802e+01   2.988217077241e+01  -2.915792541988e+01 
1 -2.800043728952e+01  -1.613430708567e+01   1.553693517405e+00 
8
Step 48000
1 -9.572243230831e+01   1.567985668786e+00  -1.735190674120e+00 
1  9.729598879613e-01  -5.703601041683e+01  -1.035622477115e+01 
1 -4.610212024208e+01   1.217819984008e+01   2.354568978626e+01 
1 -1.569149708418e+00  -3.329223298713e+01  -1.685061839572e+01 
1  2.376010020904e+01   5.687538986428e+01  -3.996226900132e+00 
1 -5.761557145831e+01  -2.794521991866e+00  -3.905237115053e+01 
1  2.155852564252e+01   2.948378101611e+00   2.201257533545e+01 
1 -1.112962607875e+01   9.928267918937e+00  -3.660153590165e+01 
8
Step 49000
1 -7.840419711528e+01   4.030923338611e-01   3.498855100799e+01 
1  8.593212668905e+00  -8.098953254673e+01  -1.722951223750e+01 
1 -3.373415484074e+01   1.575745681255e+01   8.530129833344e+00 
1  3.434280730527e+01   1.384957643192e+01  -2.058417031096e+01 
1 -1.283624375607e+01   1.869435835070e+01   2.460917826456e+01 
1  2.350318249884e+01   5.127411373923e+01  -9.360692483069e+00 
1 -1.054483853108e+01  -5.169992537505e+01   2.811105427131e+01 
1  4.317871011727e+00   1.483344572576e+01  -3.571236982433e+01 
8
Step 50000
1 -6.284613071003e+00  -4.418249894033e+01   8.098111229798e+00 
1 -8.709507100636e+00  -5.007274808600e+01  -4.165361032475e+01 
1  1.080547276401e+01  -2.948396090992e+01  -1.688260405902e+01 
1  4.121820179046e+01   6.294540478053e+01  -3.746722464592e+01 
1 -4.596424552116e+01  -5.499511450709e+01   3.952463438349e+01 
1  1.888734236948e+00  -1.302934297531e+01   5.457382864820e+00 
1 -5.529762213899e+01  -1.896094115451e+01   2.887598824662e+01 
1 -1.648359298935e+01  -1.291931488241e+01  -2.352167445428e+01 
8
Step 51000
1 -5.302087125472e+01  -3.421512089397e+01  -3.322236212163e+01 
1 -5.199881324438e+01   9.962726709177e+00  -2.903230227709e+01 
1  1.046357048143e+01  -1.090456763162e+01  -2.216363246791e+01 
1  2.060655227598e+01   4.062051097547e+01   2.998019146637e+01 
1 -2.581176290337e+00   2.239047055183e+01   2.254332802134e+01 
1  3.043630443822e+01   3.894888079415e+01   5.137399710065e+01 
1 -8.785829978453e+00   3.467593205607e+01   1.350613735551e+01 
1 -5.800873828529e+01   1.212587009626e+01   4.506319973820e+01 
8
Step 52000
1 -2.680072244207e+01  -6.137907493183e+01  -1.634364752291e+01 
1 -5.974576683517e+01   2.514648230953e+01  -8.310227361881e+00 
1  2.343717860735e+01   6.718781416834e+00  -5.077020074986e+01 
1  1.468399472027e+00  -2.458636631883e+01   2.156313759125e+01 
1 -4.401363955287e+01  -1.696373096513e+01  -7.632084002128e+01 
1 -1.648682684926e+01   2.589158099653e+01  -3.829942435473e+01 
1  2.719259177947e+01   3.932590916108e+01  -1.373590920532e+01 
1 -1.216988081637e+01  -2.762550501331e+01   2.293738688239e+01 
8
Step 53000
1 -1.298076545966e+01  -5.358956215542e+01   4.214362421252e+01 
1 -2.081733476314e+01  -4.829147204986e+01   3.051037082233e+00 
1 -7.937609887599e+00   2.482608521644e+01  -3.003802521635e+01 
1  3.697733378859e+01  -8.409527370635e+00  -2.216793185893e+01 
1  3.444311571844e+01  -1.281497362683e+01  -5.804033497835e+01 
1 -1.818761519278e+01   1.657021552175e+01  -1.676854759420e+01 
1  1.050754380936e+01   2.758960610652e+01   5.027718877875e+01 
1  1.604121971012e+01   4.761579463476e-01   1.718304981362e+01 
8
Step 54000
1 -3.569234382387e-01  -6.981252137584e+00   2.966094548774e+01 
1 -2.412792149460e+01  -5.150593467317e+01  -1.739903156015e+01 
1  7.285946443169e+00  -1.351256180063e+01  -3.798841591301e+00 
1  5.470267741456e+01   1.302558688947e+01  -3.532521948462e+01 
1 -4.834503781171e+01   1.272493233174e+01  -2.450680748996e+01 
1  4.092987283912e-01  -1.375459221789e+01  -1.011121947854e+01 
1  7.179134977289e+01   4.054187325887e+01   4.678185631057e+01 
1  5.410505609472e+01   4.294087014916e+01   1.479304202077e+01 
8
Step 55000
1 -9.003730502683e+01   2.659970140660e+01  -6.478317789973e+00 
1 -4.575909375566e+01  -8.227541598901e+00  -5.209398973955e+01 
1  3.990671386881e+01  -1.417663000313e+01   3.161205401376e+01 
1 -1.403011476192e+01   7.884549912609e+00  -9.275000553787e+01 
1 -4.182082817755e+01   1.254736584957e+01   3.220434134401e+00 
1  2.053118439096e+01  -3.082929586910e+01  -6.874358558215e+00 
1  2.130148853415e+01   7.869353048153e+01   5.497248024129e+00 
1  4.390785882323e+01   5.951966179534e+01   8.379572574479e+01 
8
Step 56000
1 -3.203771158962e+01   1.625524100897e+01   2.261315318595e+00 
1  1.733164727078e+01  -1.564031338009e+01  -1.921461454125e+01 