8
Step 0
1 -6.56289497729523390e+01 5.64193820346903010e+01 8.60337798242653662e+01
1 -7.31874695814452423e+01 9.79549514979741502e+01 5.36918972500275515e+01
1 1.24671094116073675e+02 6.56403031169460291e+01 6.07099133048670012e+01
1 -1.17333615088171030e+02 3.48570294407624601e+01 -5.87799657065690582e+01
1 -8.83604689712744005e+01 7.28449696876566293e+01 1.25838353857706409e+02
1 -2.51037758046036004e+01 -1.12505837270005017e+02 -1.15943018914769283e+02
1 1.16235942894024276e+02 -7.00313217302731914e+01 5.06630763141690750e+01
1 3.58580036374638098e+01 -6.00310343849119477e+00 -5.46996624035566725e+01
8
Step 1000
1 8.13106529713904251e+01 -3.07528948512752098e+00 -6.96805410009169748e+01
1 8.23954776801643192e+01 -9.63450540931514041e+01 -8.86362516910995453e+01
1 -1.44516200314291524e+02 -6.39459757769974786e+01 -6.11500203319230025e+01
1 1.01950499635190084e+02 -4.04511934674782125e+01 1.18603923021795822e+02
1 7.11117840749311227e+01 -4.96957716940448861e+01 -1.04072858756709920e+02
1 6.81630546350458246e+01 1.50253862192731731e+02 5.05220100221290735e+01
1 -7.01427791619928911e+01 5.89100185415983688e+01 -7.54230100220102173e+01
1 -6.20346611799746057e+01 1.48210640700272052e+01 1.40755263141317783e+01
8
Step 2000
1 -4.16058454913354154e+01 -7.34457192975738877e+01 3.19556197184410493e+01
1 -4.49507903528681965e+01 4.20373035473166183e+01 5.33343199518851776e+01
1 8.87540665086432625e+01 5.49470793591997548e+01 3.88210580725425345e+01
1 -8.24790900539531577e+01 5.18770751675636674e+01 -1.10754169173750256e+02
1 -4.17046834112793690e+01 2.52901758365709668e+01 4.20705852385098495e+01
1 -6.18344364793484758e+01 -1.10092533718548992e+02 2.17934562187062753e+01
1 6.07835611000345821e+00 -2.44521123453200779e+01 9.37521607361300369e+01
1 4.13055031085977191e+01 -3.47326194067864975e+01 2.41672721831163848e+01
8
Step 3000
1 -2.07432082994613545e+01 1.07756422811806132e+02 4.27011975758780782e+00
1 2.82897623716908120e+00 1.29431826758764168e+00 -1.32361271727721053e+00
1 -4.48322246934448287e+00 -3.75888421306050660e+01 -1.38820245891682692e+01
1 8.28535713296318477e+01 -5.98455741703555688e+01 8.31618234641449732e+01
1 3.28517896113428733e+01 -1.74852925128224790e+01 -7.94587674711771719e+00
1 5.25511477677773939e+01 7.50539935875956843e+01 -8.04100890383577962e+01
1 2.55040005059228569e+01 4.40808526733738848e+00 -6.55501274234122064e+01
1 -1.77938420448901624e+01 4.94900572345672387e+01 -2.90475969055231076e+01
8
Step 4000
1 6.72396252064745426e+01 -1.23994329605634235e+02 -2.42049477533880015e+01
1 3.50138304790194255e+01 -1.81117701820436174e+01 -4.70500652238271329e+01
1 -6.13502208649703107e+01 2.67097137846656381e+01 8.32893524562775944e+00
1 -7.89710545129981654e+01 5.53228323762508865e+01 -3.75250586592470867e+01
1 -3.75890388291384170e+01 1.79652316896654334e+01 -1.45059865346467305e+01
1 -1.72571522706915061e+01 -2.50646972659190936e+01 1.11513930690757093e+02
1 -2.50486161637057236e+01 -1.08107193931492755e+01 4.89148475947852930e+01
1 3.51029192773751086e+00 -7.21788308377053340e+01 3.02445956128232716e+01
8
Step 5000
1 -8.51412809758462146e+01 9.38119305357745361e+01 2.67826025700898498e+01
1 -6.61289762025757426e+01 1.71976937594892085e+01 7.30934534308640309e+01
1 1.03987102833947958e+02 -3.01356991551938957e+00 -1.93419055896827152e+00
1 6.70027097163924452e+01 -3.86279347871828023e+01 -8.84897637877537591e+00
1 5.26910321197515685e+01 -2.49379903378263954e+01 2.57838716302081004e+01
1 -2.57933672138869738e+01 -2.44451549127228880e+01 -8.74659311273336186e+01
1 -3.92827108822774118e+00 3.60489169908996843e+01 -2.13203592737109133e+01
1 -8.09906684450648173e-01 1.02849511012763742e+02 -2.76482132623286638e+01
8
Step 6000
1 6.60503963777211140e+01 -1.07599382727319046e+01 -1.64333256754087387e+01
1 8.54284897420888569e+01 -6.47341359023446561e+00 -6.51913989202825235e+01
1 -1.06140359994073251e+02 -2.58569076658131713e+01 -1.58886770461393709e+01
1 -4.51326520505294013e+01 1.33771157539979200e+01 3.77667093580144027e+01
1 -6.68416953688601723e+01 2.67774804589097606e+01 -2.56859197705791154e+01
1 4.81788666980314702e+01 4.93209518345176150e+01 4.72561795176495139e+01
1 6.14701526754303060e+01 -8.55461062939040460e+01 -2.42305213314155026e+01
1 4.54993022766247535e+00 -1.15781783258748447e+02 1.37521367627400508e+01
8
Step 7000
1 -2.98931125702451155e+01 -8.34558882911076978e+01 -6.91433468374016424e+00
1 -7.79539289251816001e+01 -6.28196458355868970e+00 1.60166885306625879e+01
1 7.33712177400590519e+01 4.23504165760366931e+01 4.18240416186828412e+01
1 2.75488247435563522e+01 8.93024701379368224e+00 -4.68802292615562877e+01
1 6.12923822999570405e+01 -1.05624832452262485e+01 1.53434084917276099e+01
1 -5.42898850311915666e+01 -5.57421434721940443e+01 -1.72428863973185607e+01
1 -1.15239905056290425e+02 1.30978560800130822e+02 6.28540375017288184e+01
1 -4.81429016118277620e+00 9.32812896493737611e+01 2.87656156330570312e+00
8
Step 8000
1 1.59127338780102900e+00 1.46321295174646053e+02 4.69539894367645871e+01
1 3.68276356580700721e+01 1.97812046902823369e+01 5.22932458768374673e+01
1 -2.31774382249125637e+01 -3.31501555822499725e+01 -8.04596981165032332e+01
1 -1.87370976491084988e+01 -2.81633817735267478e+01 2.27262895366182924e+01
1 -3.96291017729491983e+01 -1.40644888664368661e+01 -1.28489728158023597e+00
1 3.27085204480184757e+01 3.55497868522276406e+01 1.56148914127633471e+01
1 1.06607489585205727e+02 -1.24616002194956081e+02 -5.60477733614252998e+01
1 2.46869958796280509e+00 -4.23242870805444440e+01 -2.80808644214420111e+00
8
Step 9000
1 1.59998246225891556e+01 -1.14472990697657849e+02 -5.29171353875764439e+01
1 2.61024568520032858e+01 -3.41851742967595342e+01 -9.41413385425783531e+01
1 7.21658195083060949e+00 -1.80869444951750644e+01 1.80712848656951223e+02
1 3.43958360749009984e+01 1.80302862112741309e+01 -5.74095015477734893e-01
1 2.28931278287856479e+01 2.22488962348902533e+01 -3.25108649216342460e+00
1 1.58965122828313969e+01 6.43212644505196263e+00 -3.83257815732997074e+01
1 -5.10340094683413383e+01 8.41617065121522359e+01 1.99430096902045726e+01
1 -6.63797182572331579e+00 -1.78695398118722011e+01 -1.90671200516265564e+01
8
Step 10000
1 -1.83416556644501263e+01 2.02962981496331771e+01 2.67894337128913129e+01
1 -5.81712612434842171e+01 4.57117983712667169e+01 7.27667442614543631e+01
1 -3.73624726228315325e+01 8.07595389931634600e+01 -1.68858760206421437e+02
1 -8.70492201815497992e+01 4.46619596823595799e+00 8.86761239317838879e+00
1 -2.96523532325633710e+01 -2.05200208593755526e+01 -6.08095595178324677e-01
1 -6.08501070776877668e+01 -4.31526469331771310e+01 5.13573218278809094e+01
1 -9.15823922842711902e+00 -4.10883809367202346e+01 2.05811791937409190e+01
1 2.23317125955264721e+01 5.19640577977141191e+01 5.12998037560305846e+01
8
Step 11000
1 1.71150015664091804e+01 6.03813783081296407e+01 -7.31475901597315925e+00
1 4.17379378587712111e+01 -6.36426353332237298e+01 -2.84965559845392491e+01
1 4.70475668008341259e+01 -6.22358818066085036e+01 7.21429365829748264e+01
1 1.28636617443099453e+02 -2.85026952673370593e+00 -4.37898050341001266e+01
1 4.49295535172255072e+01 2.21886193344768223e+01 1.41991633097653267e+01
1 8.57400739335728446e+01 6.16759771312983176e+01 -4.38451001796593189e+01
1 5.40261325631485221e+01 1.30755810574885234e+00 -5.35588616133587720e+01
1 -4.73136451884330427e+01 -4.70297497361866448e+01 -7.18659000307424236e+01
8
Step 12000
1 -7.88719205150156810e+00 -9.33290142067493917e+01 1.18884485364472381e-01
1 -9.29236408261226332e-01 7.63651164459181047e+01 -2.36747779551563724e+01
1 -3.49993804889729390e+01 2.12280165057656625e+01 -1.21423010111344318e+01
1 -1.00129908508967475e+02 -2.18955830843675017e+01 5.67344974722568054e+01
1 -5.22719245571551099e+01 -2.23208318094509828e+01 -3.59884300676342832e+01
1 -8.79519184411624764e+01 -6.33189594793182451e+01 1.47153769331681925e+01
1 -7.52834750750790533e+01 3.71020964738142496e+01 7.55414334821495714e+01
1 7.33628573504179400e+01 -2.55715930248866350e+01 7.71905212068446929e+01
8
Step 13000
1 -8.02720632488653152e+00 6.88329260029682075e+01 -1.25353494886581052e+00
1 -2.88392944592765978e+01 -7.34144537707735054e+01 8.09298099267324460e+01
1 1.76767664230044552e+01 1.83606624532350402e+01 -2.01180219900723927e+01
1 2.59828392532306722e+01 3.49560491970978617e+01 -4.15306286213682370e+01
1 4.40665780024573479e+01 2.60915723698463466e+01 5.97176333927090184e+01
1 8.16867988768778162e+01 5.83796768386047802e+01 3.45471914050333950e+01
1 5.27800524130226805e+01 -6.95430422343621899e+01 -7.37093286479691017e+01
1 -9.54079780947229636e+01 1.37824616634371495e+02 -8.06492413137599158e+01
8
Step 14000
1 2.02275844719263134e+01 -1.40496121346909533e+01 1.86801560791701093e+00
1 1.71241298271414770e+01 5.33960530292304512e+01 -1.16864450341577680e+02
1 -6.69045065141530149e+00 -5.27071868221331243e+01 3.84939940311240250e+01
1 2.70068838742241368e+01 -1.79493173379362858e+01 2.17481659967844365e+01
1 -4.66342798214832683e+01 -4.43289307179409278e+01 -7.40462356935595807e+01
1 -4.76178820003061389e+01 -3.18070130410752654e+01 -9.82635746156891230e+01
1 -5.98339047377791022e+00 6.40954713681105090e+01 3.43101280563172182e+01
1 9.42306561016899451e+01 -2.48829329206606843e+02 5.78457672722962712e+01
8
Step 15000
1 -2.78528632204212805e+01 -3.95174824932481812e+01 6.68689950420705559e-01
1 1.85247488885445399e+01 -2.79981723316914177e+01 1.28352731084038453e+02
1 7.23532370268189950e+00 6.10294142379034739e+01 -3.81675376621086002e+01
1 -3.64723068314889360e+01 -1.26126593795908981e+01 4.69871267072931964e+00
1 7.78254471339818110e+01 8.52507986748332058e+01 6.53636133464854794e+01
1 2.85065664089369342e-01 -1.23620275591070747e+01 9.30706269679066764e+01
1 -1.19647005476875350e+01 -6.24543110717035432e+01 -1.27546403455522661e+01
1 -1.76417171059808524e+01 1.58964743311061454e+02 -5.91898741090031510e+00
8
Step 16000
1 2.36703804274187952e+01 7.37209515138539189e+01 -1.73757215080765022e+01
1 -5.64147607531298192e+01 -9.14134621893633481e-01 -1.02855037003721108e+02
1 -1.53868351271712562e+01 -2.07456517995430154e+01 1.56897371373154559e+01
1 1.38638445765084111e+01 2.38004489640861188e+01 -2.37445771652307300e+01
1 -6.69491015921309156e+01 -1.02405553425727874e+02 -4.19439648756682537e+00
1 7.99492631464966585e+00 1.53646158528526833e+01 -3.93026307590014667e+01
1 3.44057787087250659e+01 6.50571276537584993e+01 1.02657138742477496e+01
1 -2.66349829323299865e+01 -5.98078228089632375e+01 -2.84794596134158118e+00
8
Step 17000
1 -5.90265038110670215e+00 -5.78917867784607623e+01 5.20368849097901958e+01
1 8.06287828714088022e+01 2.29372748491162000e+01 3.10240104191396036e+01
1 3.65098907230316954e+01 -4.77682691282630714e+01 8.40413287264497555e+00
1 2.10388606755467578e+01 -3.31423809562115892e+01 4.86069605635349049e+01
1 4.15521833716274003e+01 1.10814466000915218e+02 -5.00411555034323712e+01
1 4.17516099743538316e-01 5.80339965956296222e+00 -1.42958594645983510e+01
1 -5.56013364079893506e+01 -4.51920688808784448e+01 -7.99127255492757982e+00
1 3.14105315694464409e+01 -2.07981090862530955e+01 -6.41648887113650979e+00
8
Step 18000
1 -9.15695365974059072e+00 9.78470671897373023e+00 -5.99415346854673174e+01
1 -7.34024698797368274e+01 -2.89397979242459300e+01 4.49747930193559782e+01
1 -3.63650382303275777e+01 8.75518068943562469e+01 -3.30737292687411752e+01
1 -7.51729726499151809e+01 2.22580345091988150e+01 -8.07535750313302714e+01
1 -1.87602952977747393e+01 -1.14471321611005934e+02 7.65467236398269080e+01
1 -1.23648501972974127e+01 -2.35407210218424758e+01 3.52854372208237663e+01
1 5.32719614599100595e+01 2.46843762384694365e+00 2.62684583985043485e+00
1 -5.86338025090944015e+00 6.17314791876644264e+01 2.46734143280337150e+01
8
Step 19000
1 1.50709416486906189e+01 3.10611885719375138e+01 2.99575090131675701e+01
1 4.26292903581839226e+01 2.51035361653314268e+01 -7.15404789361181201e+01
1 2.60236061811711217e+01 -1.03284977197307740e+02 5.20318900975727132e+01
1 1.29425144255901017e+02 3.07966165216164960e+01 9.41330260973814035e+01
1 -1.50915794623542743e+00 1.00359791651455609e+02 -7.80706424951510343e+01
1 3.06244612956518765e+01 2.59769564289141570e+01 -2.46065930452749164e+01
1 -2.24617247391947927e+01 4.09122248982781258e+01 3.14531252427756902e+00
1 -2.60565532853310238e+01 -5.19548784164040711e+01 -4.06289684594537164e+01
8
Step 20000
1 -1.47717476340926908e+01 -3.82531280150091106e+01 9.73807009175920690e+00
1 -1.93744460631924049e+01 -2.20952872539573271e+01 6.19800808790093072e+01
1 -6.57117019867968644e+00 7.93795178096555389e+01 -5.90463426366565898e+01
1 -8.74586570932832927e+01 -6.32291750862597937e+01 -4.78679665274312782e+01
1 2.42497855200906436e+01 -4.63982874860298651e+01 3.94169077135390182e+01
1 -5.27127809792630160e+01 -6.56909513373521303e+00 -2.40163323916899536e+01
1 -1.90626916848590966e+01 -7.23892275369629488e+01 -7.01115349706409496e+00
1 4.35244332212548102e+01 5.21464145437031412e+00 4.32238060480594584e+01
8
Step 21000
1 2.19776974874602331e+01 1.78302395381555847e+01 -1.59891351557517147e+01
1 8.42831554391599980e+00 2.62408815444268555e+01 -4.61033243109242292e+01
1 -1.69980777586038201e+01 -2.09062514009356661e+01 4.92648144432276851e+01
1 6.61913703835457454e+01 7.59615483487682326e+01 1.61127634094279628e+01
1 -3.64261684116579616e+01 -4.07732633349728957e+01 3.38954907444629399e+01
1 5.86490173790198739e+01 -2.61750486776848064e+01 1.09945170371315157e+02
1 6.28681127097027357e+01 9.24105123991539585e+01 4.76847682647285165e+00
1 -3.23421938080701921e+01 5.45101797847601830e+01 -5.16463839967592264e+01
8
Step 22000
1 -3.10819519248160709e+01 -6.50769474540661919e-01 6.08333087895279867e+00
1 -3.34956214195625757e+00 -3.52146013934935667e+01 3.14136325585850784e+01
1 3.50238271749446000e+01 -3.18570330308201797e+01 -4.20300680041809613e+01
1 -3.84350336415429155e+01 -8.66916332066094100e+01 1.09363776269682922e+00
1 2.58076073627959772e+01 1.20199452693477369e+02 -1.00356230636427767e+02
1 -3.23804212135151701e+01 3.13543425353167180e+01 -1.79206146719909839e+02
1 -9.17805286722852571e+01 -9.65460443841513438e+01 1.94347201154284477e+01
1 1.29350040518275549e+01 -1.09527703874326477e+02 7.79790423035467626e+01
8
Step 23000
1 4.00700321671636104e+01 -1.74426706312482551e+01 8.72669681585320056e+00
1 -9.58091268985039513e+00 3.91152412787759403e+01 -2.37941477714280225e+01
1 -4.12389379669706315e+01 6.17322355776423635e+01 4.29811469615748010e+01
1 1.44900183808921614e+01 8.83038701648576989e+01 -7.28991025913038992e+00
1 3.64164995908683942e+00 -1.73839291783379792e+02 1.33725656559344600e+02
1 -8.57511952140735190e+00 -4.91518985382622908e+00 1.50704179114110985e+02
1 7.86794279193823201e+01 7.04364446582152368e+01 -6.29678054256183444e+01
1 -2.90056794972186038e+00 1.18474440375473364e+02 -8.72528592007488584e+01
8
Step 24000
1 -4.80974294495366124e+01 3.04045224625175017e+01 -2.71081021572252929e+01
1 4.26385344026864566e+00 -2.40801218116898319e+01 5.00477701376628730e+01
1 4.19502157968740192e+01 -8.42588038009625393e+01 -3.37103868525243087e+01
1 -6.64727859228408224e+00 -9.79204262118596063e+01 8.90745497045042711e+00
1 -4.17133982790966797e+01 1.43131241302736839e+02 -8.83293250202027593e+01
1 3.37511305038372811e+01 -2.33671690442690760e+01 -6.75062748096355136e+01
1 -2.74315292536796598e+01 -2.57284104201420831e+01 9.33159214456700568e+01
1 8.04879913422466586e+00 -7.75486629918246422e+01 5.98762491838715434e+01
8
Step 25000
1 5.41042971912587021e+01 -2.23128835886367902e+01 4.62647805138276098e+01
1 1.34996593005027794e+01 -1.64332065089760704e+01 -9.12935037861430914e+01
1 -2.77403280230954259e+01 6.24045011233920306e+01 -3.03923981794415354e+00
1 -5.71231924353624576e-01 8.55654164187787103e+01 9.62960658014603688e+00
1 5.77493374923429030e+01 -6.57180627341967067e+01 2.27572267421528593e+01
1 -3.80308891031326368e+01 4.98224484429368673e+01 -7.40521320881783573e+00
1 -1.92564941773861094e+01 4.25351435913331510e+00 -1.17787060233750239e+02
1 -1.81223837122309099e+01 1.96292718411078084e+01 -5.79635844136571166e+00
8
Step 26000
1 -5.49556650283338328e+01 -1.12445516032743544e+01 -5.25030858516202272e+01
1 -1.22145708177548489e+01 4.39077341811948756e+01 9.19695364783202223e+01
1 -1.22064183900104464e+01 -1.04114393016396871e+01 3.76429037715679868e+01
1 2.50295692518475565e+00 -2.48231588980397504e+01 -2.65406450906277840e+01
1 -6.01560000420505716e+01 -5.49066511270218971e+00 8.52791277475625797e+00
1 3.14263834310251902e+01 -8.70415259079283743e+01 6.94802492979277844e+01
1 5.80103648205460871e+01 -1.07266790962573957e+01 1.22754092445951642e+02
1 1.99962058130597669e+01 1.72923938431498598e+01 -4.86813721859629140e+01
8
Step 27000
1 5.04711003057151757e+01 5.10398571106855101e+01 3.19955386565472217e+01
1 2.32980118320923602e+00 -4.76604641762471459e+01 -5.60982521374130840e+01
1 6.23602343054906285e+01 -3.07054554231593357e+01 -5.83669370259871485e+01
1 1.36016222234680484e+00 -4.92649914665115247e+01 3.67009856196627666e+01
1 7.29526658891345079e+01 7.85294970070396232e+01 -7.81768852762922695e+00
1 -1.24124412916084896e+01 1.11248520205258203e+02 -1.07840940158537023e+02
1 -5.02262712784149770e+01 3.93945176751799622e+01 -7.54692669268577134e+01
1 -7.67203079501273866e+00 -2.26466911108529843e+01 6.50210980348931997e+01
8
Step 28000
1 -5.10141532656073053e+01 -6.16633069767629536e+01 3.45798358661972349e+00
1 4.03430200069379996e+00 3.00784565354942366e+01 7.03052602859779885e-01
1 -1.10318740844682878e+02 4.26985618638916407e+01 6.52789814708116438e+01
1 -4.54514736898679050e+00 1.00712466284359891e+02 -4.57059799403527975e+01
1 -4.41491927036964640e+01 -1.09602262831240736e+02 -3.12511164824962790e+01
1 -2.90988952225763775e+01 -5.66628679699645517e+01 9.26717973792484031e+01
1 2.66944940998956852e+01 -7.37082406213796730e+01 2.64047309537302191e+01
1 -1.08216705209421313e+01 1.68129168777418698e+01 -4.61689612798217226e+01
8
Step 29000
1 5.07773050887054822e+01 4.87812490477946383e+01 -2.88591973627674534e+01
1 -3.07908512368283915e+00 -8.88590905695361477e-01 4.82022876029720280e+01
1 1.44734088269237020e+02 -1.92045894454429273e+01 -4.85415445087762478e+01
1 5.38949152900909478e+00 -1.29894616875466539e+02 5.51679119084134086e+01
1 -9.18154685890683098e+00 9.17170115597553490e+01 8.41241410583646712e+01
1 6.55857463444912128e+01 -3.58725473196770253e+01 -5.23750214159635021e+01
1 4.51521430559637604e+00 1.03332937440191046e+02 2.51479845808825502e+01
1 3.05790264376118799e+01 -1.23533059532194400e+01 -5.55400779599975980e+00
8
Step 30000
1 -4.97481760369818886e+01 -2.96732433460603744e+01 4.28674921038966801e+01
1 -1.79844800671446592e+00 -2.78808197127262858e+01 -8.22369562922274184e+01
1 -1.37542906302674879e+02 -3.54070914286884957e+01 4.98717776993469553e+00
1 -8.06643002291127509e+00 1.45972192718091151e+02 -5.77562085206565285e+01
1 6.42659874534412694e+01 -5.30329944623417191e+01 -1.14261045189838470e+02
1 -6.35635874239959620e+01 7.41286163734494608e+01 2.43270208248871889e+01
1 -2.64524849164860392e+01 -9.96208754217920500e+01 -7.38192225276069820e+01
1 -5.65446457040178245e+01 7.85884707152397954e+00 9.79082042542559634e+01
8
Step 31000
1 4.88337531420761408e+01 6.34288745459169157e+00 -5.39909683543777419e+01
1 1.62211819987966699e+01 5.71155527630793713e+01 9.74401140632743505e+01
1 7.62104417563189287e+01 7.12345052943393853e+01 3.63987269877542232e+01
1 1.36498094907572902e+01 -1.02162803458729812e+02 2.54090552150141171e+01
1 -1.01260505514526386e+02 2.88679158032004004e+01 8.93877808751447560e+01
1 2.72994830067486838e+01 -3.35643441875751947e+01 -1.40356834602681406e+01
1 4.47527832362624167e+00 5.52713571657526899e+01 1.01293000373004134e+02
1 6.00831783283743590e+01 1.36134038808747952e+01 -2.16439177670142811e+02
8
Step 32000
1 -4.78537847444523194e+01 2.75418405878810546e+01 6.22849248813433576e+01
1 -5.53918434803915289e+01 -7.91670265035117069e+01 -7.80480962821683164e+01
1 1.53835846381077812e+00 -4.93211425095263891e+01 -4.51201131046417387e+01
1 -2.90664443606688891e+01 1.30114584647372649e+01 2.02104046823903580e+01
1 1.14500780283200442e+02 -3.68675869599512396e+01 -1.61378353791107116e+01
1 -2.97283280876281841e+00 -1.94993337179529469e+01 2.30379518144769939e+01
1 6.01758367199741784e+01 -3.93880881257253224e+00 -1.01688990027384833e+02
1 -1.68364760911791400e+01 -2.85623375198492724e+01 1.92749790177282961e+02
8
Step 33000
1 2.55666267610163835e+01 -7.79876755644021955e+01 -5.99804652413396013e+01
1 1.01573474611697065e+02 8.02469989803543342e+01 2.44690243363143303e+01
1 -4.71719374150610591e+01 -2.12601075729970868e+00 4.12583265030661792e+01
1 4.53578745244208790e+01 5.50868873567182575e+01 -3.88827276236829888e+01
1 -1.13000502513591854e+02 7.09692338712733886e+01 -9.33497647656017335e+01
1 -2.49568921058601383e+01 9.90731368515224489e+01 -3.44494504599167612e+01
1 -1.12486857794187884e+02 -2.36754265673861113e+01 7.28011648115865313e+01
1 -9.59620815272343464e+00 3.32562805530733101e+01 -9.95682017026679347e+01
8
Step 34000
1 1.23398962435839064e+01 8.08677738671584336e+01 4.14659181961629741e+00
1 -1.05332832078705451e+02 -5.16182199273166731e+01 3.40777843693727789e+01
1 6.11092184813838273e+01 6.42199551103582991e+01 -3.52428254936455829e+01
1 -6.31546232423009002e+01 -7.51630821655717654e+01 2.30182466453604668e+01
1 4.79372392347796392e+01 -6.31985600223347959e+01 1.30020146245442731e+02
1 5.64390830130187382e+01 -1.94590572553965274e+02 3.73187670336686992e+01
1 8.39541140271150539e+01 2.46747747816902283e+01 -1.39628552303283886e+01
1 5.23440029036327559e+00 -3.40222052419039329e+01 9.68985313105276092e+00
8
Step 35000
1 -2.40632633464829340e+01 -4.48020966172855850e+01 5.73841925279307858e+01
1 6.58885420738520224e+01 1.31450461472616453e+01 -5.34180025607286524e+01
1 -5.89408761244610204e+01 -1.18278307373833798e+02 3.50333580534096001e+01
1 8.81173303488779851e+01 6.45435226057556406e+01 1.29823725131736172e+01
1 -1.41366304360877670e+00 2.90043388042304464e+01 -9.93800780315403216e+01
1 -5.47472345039914927e+01 2.14125407477514273e+02 -2.21003721001546038e+00
1 -3.53155435766267800e+01 -2.65012038913272470e+01 -3.25285414729209066e+01
1 1.57697522883762424e+01 3.44921951967433671e+01 5.68758225092188567e+01
8
Step 36000
1 5.38716319395928434e+00 2.82829298104774807e-01 -9.47554855378956944e+01
1 -3.13010186649488418e+01 1.06309570914550751e+01 4.26039873154340754e+01
1 4.60539587306045846e+01 1.64012847384880786e+02 -3.46705556331438416e+01
1 -8.03860185373823128e+01 -5.04001423646107316e+00 -4.60803649567775437e+01
1 -1.55124141555147670e+01 8.00132988312041604e+00 6.27765594998636089e+01
1 2.16542297655904328e+01 -1.20314874656711041e+02 -5.01155599825217379e+01
1 -4.93190635894969844e+01 8.42994546801236666e+00 3.72701729017339431e+01
1 -3.42612301968855775e+01 -3.91754963888560042e+01 -7.63511602512896133e+01
8
Step 37000
1 4.00526917892127727e+01 3.09646327328788189e+01 1.03400104315102269e+02
1 7.08580505541865158e+00 -2.29801492166666250e+01 -1.98005372458700570e+01
1 4.76271373233315121e+00 -1.16387831604713412e+02 1.48759579713365575e+01
1 3.62507367635474793e+01 -4.00583496755661201e+01 3.71785475112952710e+01
1 1.17858100800913661e+01 -4.09248698592501157e+01 -3.60822194667807850e+01
1 -1.85743184407461115e+00 4.15160703542753353e+01 7.58820128144886610e+01
1 1.07278123230594687e+02 1.69564341726036574e+01 -2.09155221097476520e+01
1 2.97027041788964929e+01 4.03263160950429338e+01 3.43773092085446734e+01
8
Step 38000
1 -9.84273097512039215e+01 -2.91249892050779593e+01 -7.48028415503394797e+01
1 1.65325396280768189e+01 3.33493670095812647e+01 -2.57196306580520186e+01
1 -7.67264407846282950e+01 -8.20891964324687606e+00 7.67113134898556481e+00
1 -3.59870886343520224e+00 3.44526603269039740e+01 -1.44733471414167503e+00
1 6.57781645216120658e+00 5.80706686688542391e+01 2.21092005987103519e+01
1 -2.13597984097071745e+01 3.04597219916923727e+01 -6.82748326944001889e+01
1 -1.03009747334986841e+02 -3.53975345871418483e+01 1.07708735668022193e+00
1 -3.84341005116277401e+00 -4.27015375412893690e+01 2.13317946014757851e+01
8
Step 39000
1 1.08859293279100058e+02 -1.40779436731714682e+01 3.55464786424873713e+00
1 -4.16584131729925531e+01 -5.50730446170926555e+01 1.16131908231514416e+02
1 1.08243962620617765e+02 1.05308380389986965e+02 -1.34390304523711741e+01
1 -1.24438272333923372e+01 -3.50324797425077517e+00 -3.78969989069093032e+01
1 -2.30077959914305232e+01 -3.47410930500565627e+01 -2.36378297380185423e+01
1 3.77834438988164862e+01 -8.11548709628793574e+01 2.77940655282398161e+01
1 4.95967820216307445e+01 3.85221386208269365e+01 2.00309635714858274e+01
1 -2.08369777889213061e+01 6.21175371220749071e+01 -5.18669257907409360e+01
8
Step 40000
1 -6.79685012805585131e+01 5.20430530040242800e+01 4.86615086529523779e+01
1 6.00202070656640601e+01 6.43026017069286837e+01 -1.86282670007673886e+02
1 -9.00238851960458675e+01 -1.21747053427926730e+02 9.21178244048074824e+00
1 2.25588595360419397e+01 -2.87130484212135251e+01 7.43502947291741378e+01
1 8.89912788647878727e+00 -3.28787817980821515e+01 4.65504450311701561e+01
1 -4.05085454328731984e+01 1.00994932995517360e+02 4.09434830173611459e+01
1 -1.64344416927056685e+01 -3.80040332100544731e+01 -4.72100770854592895e+01
1 3.30445903749564067e+01 -7.79851753885360068e+01 5.10080506212915523e+01
8
Step 41000
1 1.30118339060673556e+01 -5.79776779422463875e+01 -5.42909102951224796e+01
1 -2.72257469046597613e+01 -3.55295229127318422e+01 1.27413724500663236e+02
1 5.47710671002996463e+01 8.24625561103996318e+01 -4.48470989273748977e+00
1 -4.08968443576920251e+01 4.53540489843094790e+01 -1.17856779340356070e+02
1 3.04534519949391687e+01 9.09872986094748200e+01 -7.47739729408784228e+01
1 3.29211766441553380e+01 -8.44584646018534357e+01 -1.16475704050665755e+02
1 -1.16159110233541316e+01 5.06614996160329838e+01 7.41945096510728632e+01
1 -2.56197438210396911e+01 6.32899646715187387e+01 -3.28859545715329205e+01
8
Step 42000
1 3.95771121046023069e+01 5.16061540839326369e+01 3.40602744197465981e+01
1 -2.15114633591546074e+01 -6.28766360661209389e-01 -4.88029563022880524e+01
1 -1.69381801877630487e+01 -2.47696712045987120e+01 -4.65097071787541605e+00
1 7.05454031459051549e+01 -2.51007176402787984e+01 1.34537395205136477e+02
1 -6.49269006181749830e+01 -8.22706391612368577e+01 7.83706735344372731e+01
1 -2.76201924316435274e+01 4.84187029913404459e+01 1.62609080818354187e+02
1 5.84570239613604770e+01 -7.38293366700225135e+01 -8.66917149232224489e+01
1 4.91085209442571013e+00 -1.47107983442867454e+01 1.91323134453330326e+01
8
Step 43000
1 -7.66085881431754103e+01 -4.34495241117596436e+01 9.58932966679041821e-01
1 5.32202848508335649e+01 3.74472706234550543e+01 -8.31627168918457294e+00
1 -2.69751924236407099e+01 -5.13265728558250842e+01 2.52236950481572464e+01
1 -7.97245016373956474e+01 -1.34597598079852379e+01 -1.02912216721459316e+02
1 7.58501025844413590e+01 1.24335914661882754e+01 -4.64463039686733836e+01
1 3.40721953084268705e+01 -1.78715703471035354e+01 -1.36126262231235870e+02
1 -7.95551642610503649e+01 7.49026381836082749e+01 5.89154281249920473e+01
1 1.44429217388665947e+01 -3.26769802362891681e+01 -5.94194749735972128e+00
8
Step 44000
1 1.03443032089153348e+02 5.05153289623389412e+01 -5.78373155252982869e+01
1 -7.27749039789411540e+01 -6.01552417972053135e+01 4.03435029194511472e+01
1 5.99891092774473265e+01 1.04343921663064791e+02 -4.99511416657235117e+01
1 6.50872168183439186e+01 2.78770866196723368e+01 7.02197948030100321e+01
1 -4.07972647319771298e+01 6.17115468771024567e+01 2.89100857474598405e-01
1 -4.43188504627390785e+01 1.21775467324880662e+01 4.29551046303613049e+01
1 4.93855484036676842e+01 -3.64568183332258471e+01 -1.13242030829853846e+01
1 -3.39846232831612127e+01 8.95644674017717364e+01 -1.84907607759306991e+01
8
Step 45000
1 -7.45553021730272008e+01 -5.09757086701786619e+01 1.15941228022086094e+02
1 7.53307576334895828e+01 6.04724839170335287e+01 -3.79222257767416764e+01
1 -6.02625505211381167e+01 -8.05479217593576635e+01 6.09729800644356530e+01
1 -2.79640374323047425e+01 -1.58874945378633630e+01 -5.58047221433940592e+01
1 1.73181482264183018e+01 -9.80992776028424061e+01 1.87328823246690419e+01
1 4.59080542711051720e+01 -2.53103346810415637e+01 4.29859988410408320e+01
1 -8.93390140607790606e+00 -8.64482585158745742e+00 -2.20595184963929967e+01
1 3.53763851297593277e+01 -1.14200073001537106e+02 4.67115200585891444e+01
8
Step 46000
1 2.02649785460653931e+01 4.85765044505304999e+01 -1.21257307127128897e+02
1 -5.78403830491704056e+01 -3.12580600958651225e+01 -1.57109260622850688e+00
1 1.58869811172289293e+01 6.56762771401859569e-01 -3.81598751137637890e+01
1 -5.08645256489356754e+01 -1.20149772146703278e+01 3.88563765164159207e+01
1 -4.13299075913335567e+00 1.12356436493096780e+02 -1.17604027342243498e+01
1 -4.03076912543378185e+01 3.86229787138466776e+01 -7.21851281292607752e+01
1 -2.49521488404335212e+00 2.99016649090717301e+01 2.61383774023393904e+01
1 1.51660439645709810e+00 8.73150735977979764e+01 -6.28613983847701192e+01
8
Step 47000
1 7.28212793352114396e+00 -6.15613007930322880e+01 6.48109375046871605e+01
1 3.57784127577955928e+01 -1.53887386053607536e+01 8.20952962758167644e+01
1 3.28107852224169250e+01 8.79124348414650854e+01 1.78032511347698374e+01
1 1.26219511184998140e+02 3.66815419640253211e+01 -1.96635650232071804e+01
1 -1.50986706307662949e-01 -8.59224341558935407e+01 -1.99117730993314268e+01
1 3.29615872528349527e+01 -3.89601859088935214e+01 4.54490474990544868e+01
1 -4.62744465453172182e+00 -5.71317389039768457e+01 -4.53877256553471042e+01
1 -6.02077047869254400e+01 -3.96615588237681109e+01 6.55338353544398871e+01
8
Step 48000
1 3.38664530360650229e+00 7.90034479914753831e+01 -6.13708362319748613e+00
1 -2.11727371035735281e+01 6.31839722053214530e+01 -1.49312658326012411e+02
1 -7.09997936255806650e+01 -1.56024404912072157e+02 1.45423816798607159e+01
1 -1.39405852930733090e+02 -3.51815233526719666e+01 4.84602211075492573e+00