8
Step 0
1 -4.335052367192e+01   6.226770353478e+01  -1.571831079641e+01 
1 -4.197517804778e+01   5.557624918835e+01   6.050689884240e+01 
1  4.062082842113e+01  -6.869837660098e+01  -6.406602060552e+00 
1  3.202042668263e+01  -9.333787405458e+00   7.585091136361e+01 
1  2.169421302650e+01  -5.304981751903e-01  -3.452327492586e+01 
1  2.479565131470e+00   3.727202342153e+01  -7.541307749490e+01 
1  3.539535683763e+01   1.835259957186e+01  -5.811004072382e+01 
1  1.040422054410e+01   7.251222155371e+01   5.312714128624e+01 
8
Step 1000
1 -7.608359367693e+00   4.519464768450e+01  -2.666392225929e+01 
1 -5.249208089315e+01   1.703660820381e+01   7.151117337600e+01 
1  1.248859759012e+01  -7.012550056289e+01   1.884283714192e+01 
1  1.321083816048e+01  -9.322965967613e+00   8.169829346611e+01 
1  4.323371863334e+01  -1.111482711178e+01  -1.135932757818e+01 
1  4.818831680718e+01   7.405691004816e+01  -7.936296128850e+01 
1  3.041752096561e+01  -5.284523765750e+00  -5.393196319879e+01 
1  2.547926771917e+00   3.681907869789e+01   6.998544088234e+01 
8
Step 2000
1  3.337866752679e+01   1.739471860187e+01  -3.010074965498e+01 
1 -3.644742026051e+01  -3.450847075937e+01   5.511348646741e+01 
1 -1.940464636429e+01  -4.972884608401e+01   3.426614027490e+01 
1 -6.264765265831e+00  -7.415001446743e+00   6.162377081538e+01 
1  5.459666550280e+01  -1.163826787675e+01   1.575735962048e+01 
1  8.033030668689e+01   7.830208093236e+01  -5.933542981954e+01 
1  1.539174303721e+01  -2.893345540770e+01  -3.494950721797e+01 
1 -5.082507714656e+00  -1.009084604114e+01   5.629753436913e+01 
8
Step 3000
1  6.334255863964e+01  -1.031162053981e+01  -2.237337707969e+01 
1 -3.963689494036e+00  -7.251073206424e+01   1.788185468980e+01 
1 -4.572000305567e+01  -1.509268648880e+01   3.403761844431e+01 
1 -2.286867252805e+01  -3.165973724469e+00   2.496008660940e+01 
1  4.962293497493e+01  -4.265153853992e+00   3.310432229216e+01 
1  8.676791656531e+01   5.578896243402e+01  -2.442343389737e+01 
1 -1.925104571239e+00  -4.289098860415e+01  -6.157501393278e+00 
1 -1.234376075632e+01  -4.964937216278e+01   1.969907278775e+01 
8
Step 4000
1  7.002820409794e+01  -2.808387891803e+01  -6.104241181402e+00 
1  2.571005502209e+01  -7.750519299764e+01  -2.287641122960e+01 
1 -5.852646675453e+01   2.180081193262e+01   2.094545262029e+01 
1 -3.417263923160e+01   3.780016262119e+00  -1.318660865980e+01 
1  2.843415645873e+01   2.353151929665e+00   3.299113374000e+01 
1  6.525320114284e+01   2.225499025768e+01   1.174600187384e+01 
1 -1.431897465719e+01  -4.188380135229e+01   2.457030410428e+01 
1 -1.961638505201e+01  -6.574887100369e+01  -2.105696401525e+01 
8
Step 5000
1  5.057892035159e+01  -3.173912180239e+01   1.283751288934e+01 
1  3.814563337920e+01  -4.964215202688e+01  -5.066396205190e+01 
1 -5.447142889077e+01   4.909646646873e+01   3.438294937967e+00 
1 -3.813477991990e+01   1.254889909189e+01  -3.929585164149e+01 
1 -4.503163335967e+00   2.555052253000e+00   1.726322980985e+01 
1  2.487114519326e+01  -5.092434539474e+00   3.679897172516e+01 
1 -1.885440122447e+01  -2.714268291025e+01   4.866865239654e+01 
1 -2.424739538642e+01  -5.659552624758e+01  -4.882156480608e+01 
8
Step 6000
1  1.262240212278e+01  -2.542121453804e+01   2.851034797116e+01 
1  3.067926114143e+01  -4.044729396816e+00  -5.849141152946e+01 
1 -3.559068145202e+01   5.939066660052e+01  -9.286402253603e+00 
1 -3.302559464946e+01   2.037072014096e+01  -4.724063467425e+01 
1 -3.840592164937e+01  -4.058989149844e+00  -6.480999769573e+00 
1 -1.835793912489e+01  -1.693260700924e+01   4.537113544525e+01 
1 -1.697922440468e+01  -5.076927002072e+00   5.907145036826e+01 
1 -2.425337985010e+01  -3.076771502646e+01  -5.430476540039e+01 
8
Step 7000
1 -2.734171440110e+01  -1.669974384082e+01   3.366005626890e+01 
1  1.019716839722e+01   3.763606576792e+01  -4.733261365078e+01 
1 -8.275106416945e+00   5.144579400320e+01  -1.177019809318e+01 
1 -1.837693235443e+01   2.327215909519e+01  -3.896594870812e+01 
1 -5.934213862434e+01  -1.428392509156e+01  -2.749615057484e+01 
1 -5.010234845971e+01  -1.468897986331e+01   3.994819023722e+01 
1 -1.275238965088e+01   1.621193533830e+01   5.234943905311e+01 
1 -1.929094611193e+01  -1.244567484018e-02  -3.850140158544e+01 
8
Step 8000
1 -5.184789720795e+01  -1.112036205238e+01   2.413054163968e+01 
1 -1.230636538247e+01   5.741799519817e+01  -2.375477658652e+01 
1  1.859828284921e+01   2.964694279687e+01  -5.397789741782e+00 
1  3.657805290757e+00   1.781927470165e+01  -2.166704940947e+01 
1 -5.903874435508e+01  -2.106310527090e+01  -3.649013742370e+01 
1 -6.243700612724e+01  -6.005880790551e+00   2.689101398853e+01 
1 -1.020535430610e+01   3.061948379235e+01   3.000370132010e+01 
1 -8.687663806446e+00   2.336308134054e+01  -1.056617337899e+01 
8
Step 9000
1 -5.220507769566e+01  -1.080992506258e+01   4.440329015606e+00 
1 -2.638550354685e+01   4.881591322095e+01   2.850424280308e+00 
1  3.637769740268e+01   2.364971938219e+00   3.343186730119e+00 
1  2.738434899994e+01   3.396213990531e+00  -4.085398576174e+00 
1 -3.692251405512e+01  -1.853523483905e+01  -3.067293756866e+01 
1 -5.391142850499e+01   9.747762195070e-01   1.258225817113e+01 
1 -1.051705888148e+01   3.577064373137e+01  -1.678935821971e+00 
1  5.742141362798e+00   3.308993566891e+01   1.712377624535e+01 
8
Step 10000
1 -3.135445575861e+01  -1.369831203183e+01  -1.545363689430e+01 
1 -2.613091735093e+01   1.778451219314e+01   2.416678946302e+01 
1  4.007678517287e+01  -2.079504688434e+01   7.723668117732e+00 
1  4.460699529681e+01  -1.660320483345e+01   7.414622653102e+00 
1  3.003363469778e-02  -5.508749276431e+00  -1.312782258830e+01 
1 -2.876917127162e+01   1.021107082140e+00   1.330897048450e+00 
1 -1.120184490576e+01   3.232059372690e+01  -3.314500040791e+01 
1  1.948153099775e+01   3.028270056392e+01   3.401977497155e+01 
8
Step 11000
1 -8.855506887486e-01  -1.352979462759e+01  -2.747218092834e+01 
1 -1.309241470625e+01  -2.056156437843e+01   3.599713245185e+01 
1  3.055483226453e+01  -3.320704960669e+01   4.519679440364e+00 
1  4.756235779006e+01  -3.550150249478e+01   1.128229383011e+01 
1  3.753304933519e+01   1.422338586127e+01   9.233338098363e+00 
1  3.912352115905e+00  -6.476709195956e+00  -5.548792298165e+00 
1 -8.206722440402e+00   2.238512643390e+01  -5.419623059485e+01 
1  2.817745003155e+01   1.929412847430e+01   3.567338890159e+01 
8
Step 12000
1  2.399935839289e+01  -5.184085120193e+00  -2.697644381024e+01 
1  4.807024573773e+00  -4.812373206394e+01   3.770809230846e+01 
1  1.377561546098e+01  -3.341498157780e+01  -5.185422437252e+00 
1  3.193920946639e+01  -4.503305266808e+01   9.997535452191e+00 
1  6.049327037675e+01   3.217224955816e+01   2.744615944309e+01 
1  3.273478431508e+01  -1.728205167058e+01  -9.567845938623e+00 
1  1.215285667166e+00   8.177507451527e+00  -5.711793920076e+01 
1  2.886659732500e+01   5.712721535422e+00   2.443532386659e+01 
8
Step 13000
1  3.175990184666e+01   1.103401403113e+01  -1.370207166229e+01 
1  1.914152009899e+01  -5.222582043888e+01   3.036689247596e+01 
1 -2.323682749327e+00  -2.468138684483e+01  -1.636162323471e+01 
1 -9.531030882294e-01  -3.775397396882e+01   7.655593600790e+00 
1  6.043879134897e+01   3.917656620784e+01   3.516817532086e+01 
1  4.820722375077e+01  -2.453641941795e+01  -1.363035869682e+01 
1  1.677770719563e+01  -8.727532308293e+00  -3.909635810468e+01 
1  2.005693575933e+01  -5.441099298218e+00   6.229485521234e+00 
8
Step 14000
1  2.093797785796e+01   3.028800690354e+01   5.518554159505e+00 
1  2.418003392509e+01  -3.154726278264e+01   1.712530612046e+01 
1 -1.140969303135e+01  -1.271091733385e+01  -2.253432388190e+01 
1 -4.163436378412e+01  -1.109247306378e+01   7.627460941679e+00 
1  3.689009607153e+01   3.026438753436e+01   3.072626993114e+01 
1  4.615482508880e+01  -2.239245954052e+01  -1.967042725057e+01 
1  3.385999274468e+01  -2.629883450296e+01  -3.999198507324e+00 
1  3.473564595553e+00  -1.233056094393e+01  -1.174871388350e+01 
8
Step 15000
1 -3.676168263470e-01   4.460772729492e+01   2.062337353592e+01 
1  1.826693481324e+01   3.896748920301e+00   1.905676595302e+00 
1 -1.131158234133e+01  -2.628464514609e+00  -1.949784202506e+01 
1 -7.275388418056e+01   2.777099836123e+01   1.053656682372e+01 
1 -2.195033757160e+00   5.927368892667e+00   1.571643549307e+01 
1  2.874030025194e+01  -8.640921619466e+00  -2.667679517580e+01 
1  4.409597939400e+01  -4.056786327684e+01   3.626272140724e+01 
1 -1.577884459106e+01  -1.511322422081e+01  -2.274753912179e+01 
8
Step 16000
1 -2.042603356197e+01   4.578106643510e+01   2.540396673123e+01 
1  4.716916803173e+00   3.727415821392e+01  -1.256535372957e+01 
1 -4.430606718358e+00   3.063206231086e+00  -7.434014471229e+00 
1 -7.776793588372e+01   6.309865109581e+01   1.352356119235e+01 
1 -4.037696132583e+01  -2.586385065657e+01  -4.220727659983e+00 
1  3.628877662408e+00   1.373425171244e+01  -3.072440430716e+01 
1  3.971730759754e+01  -4.641004432617e+01   6.536911168962e+01 
1 -3.104804379162e+01  -1.455848216694e+01  -2.387102234720e+01 
8
Step 17000
1 -2.878015467722e+01   3.010405316756e+01   1.836815126551e+01 
1 -9.435622317976e+00   5.337545730861e+01  -2.432584932251e+01 
1  3.534233250731e+00   4.914329406646e+00   1.014626963575e+01 
1 -5.130149281141e+01   7.836262855037e+01   1.238963991982e+01 
1 -6.093113116517e+01  -5.093712064435e+01  -2.115767901124e+01 
1 -1.884525440910e+01   3.660966364267e+01  -2.686088171966e+01 
1  1.847940653812e+01  -3.992389344916e+01   7.068591985815e+01 
1 -3.662858405360e+01  -1.204671729590e+01  -1.683998195879e+01 
8
Step 18000
1 -2.005336262432e+01   5.865723995711e-01   2.015087115939e+00 
1 -1.791797144828e+01   4.582353723656e+01  -3.099939165272e+01 
1  6.693606331483e+00   5.595523928075e+00   2.759023034998e+01 
1 -2.526186458288e+00   6.414304112669e+01   4.678686866258e+00 
1 -5.646285574224e+01  -5.730428767054e+01  -3.010379675046e+01 
1 -3.032037953869e+01   5.010917026645e+01  -1.205783218633e+01 
1 -1.425568513647e+01  -2.035687772395e+01   4.942481236392e+01 
1 -2.970853487999e+01  -8.207906255315e+00  -6.005023711000e+00 
8
Step 19000
1  2.236064675965e+00  -3.345566559550e+01  -1.610621194470e+01 
1 -1.811303857583e+01   1.873542746841e+01  -3.103757622837e+01 
1  2.035978442205e+00   7.591961305038e+00   3.808088687513e+01 
1  4.712418447286e+01   2.444677407978e+01  -7.872948804920e+00 
1 -3.014642227346e+01  -4.071439431546e+01  -2.984174491479e+01 
1 -2.791740903544e+01   4.711388173754e+01   1.202402964688e+01 
1 -4.601343881935e+01   8.030450941065e+00   1.105326116705e+01 
1 -1.160768135937e+01  -2.325215731175e+00   3.636848669720e+00 
8
Step 20000
1  2.710299947832e+01  -5.900751005990e+01  -2.716128584384e+01 
1 -1.119268505034e+01  -1.571128771438e+01  -2.417950955935e+01 
1 -9.241934325204e+00   1.141933175759e+01   3.612098155941e+01 
1  7.446725758609e+01  -2.305605063782e+01  -1.945294794076e+01 
1  6.032669346442e+00  -5.488990461813e+00  -2.144920162598e+01 
1 -1.494599545672e+01   2.606709194609e+01   3.832354291078e+01 
1 -6.276025799035e+01   3.611054590682e+01  -2.664584552193e+01 
1  1.198112621827e+01   5.339754618274e+00   8.733454270778e+00 
8
Step 21000
1  4.256357070993e+01  -6.556127040976e+01  -2.653643196249e+01 
1 -6.222555531235e-01  -4.182609563345e+01  -1.132888214075e+01 
1 -2.211183435266e+01   1.536766146024e+01   2.045987990669e+01 
1  6.880437639591e+01  -5.801435442823e+01  -2.404747387199e+01 
1  3.503813018119e+01   3.421978676417e+01  -8.894813699937e+00 
1  7.884290026913e-01  -7.273421157819e+00   5.678749129395e+01 
1 -5.724493558787e+01   5.413989025749e+01  -4.794413008474e+01 
1  3.267538337832e+01   1.312640085282e+01   9.339462433181e+00 
8
Step 22000
1  4.056409422396e+01  -5.000243003385e+01  -1.459081874066e+01 
1  9.035803284964e+00  -4.853409590733e+01   4.929479809993e+00 
1 -2.950005042358e+01   1.645711069614e+01  -5.051937367270e+00 
1  3.622910657660e+01  -6.781523301701e+01  -1.918963867753e+01 
1  4.456488077305e+01   6.068624436472e+01   3.247962613084e+00 
1  1.087837661816e+01  -4.096981044977e+01   5.891964613657e+01 
1 -3.182234892792e+01   5.590707368590e+01  -4.659222331630e+01 
1  4.262957038980e+01   1.874788938517e+01   7.560683727929e+00 
8
Step 23000
1  2.020736160587e+01  -1.735414574948e+01   3.698096130828e+00 
1  1.399965288142e+01  -3.487479476255e+01   2.056924981858e+01 
1 -2.596636424332e+01   1.234225163711e+01  -3.270533618506e+01 
1 -5.652957563895e+00  -5.145614079403e+01  -7.021611501564e+00 
1  3.332420983881e+01   6.276977953348e+01   1.272362168857e+01 
1  1.078663435845e+01  -6.225789601129e+01   4.213118705510e+01 
1  3.407445705085e+00   4.041542953476e+01  -2.738819756339e+01 
1  3.781751200804e+01   1.966864260460e+01   6.618624718436e+00 
8
Step 24000
1 -1.013959724049e+01   2.040287783730e+01   1.960199982808e+01 
1  1.295247816703e+01  -8.483662749365e+00   3.161741880466e+01 
1 -1.079176645462e+01   3.171948188008e+00  -5.280167910635e+01 
1 -3.668450665820e+01  -1.937458321249e+01   6.534734808650e+00 
1  9.203248370483e+00   3.953451954940e+01   1.897192906490e+01 
1  1.893297819061e+00  -6.299037342848e+01   1.106636434325e+01 
1  3.426511906093e+01   1.274780527004e+01  -3.116007104123e+00 
1  1.920047890247e+01   1.382247818010e+01   8.859845627047e+00 
8
Step 25000
1 -3.666555210791e+01   4.891698365937e+01   2.559330997067e+01 
1  7.122609461691e+00   1.905669263440e+01   3.507367563834e+01 
1  1.165228313288e+01  -8.245757545092e+00  -5.706688745843e+01 
1 -4.458986380179e+01   1.276682766984e+01   1.493967070279e+01 
1 -1.507035842580e+01  -2.591959601324e-01   2.189675529181e+01 
1 -9.587602524903e+00  -4.228701978400e+01  -2.395799534880e+01 
1  4.921138635409e+01  -1.734621254213e+01   1.307107513442e+01 
1 -7.384829538768e+00   1.623932638327e+00   1.303080250218e+01 
8
Step 26000
1 -4.830279515861e+01   5.907150351883e+01   1.988383131995e+01 
1 -8.329892444341e-01   3.597581977114e+01   2.952706944954e+01 
1  3.353983033467e+01  -1.771555166573e+01  -4.236695076120e+01 
1 -2.984533296955e+01   3.250839311875e+01   1.463002980885e+01 
1 -2.761642002367e+01  -3.980592631292e+01   2.160570651466e+01 
1 -1.581460213275e+01  -7.472096844055e+00  -5.097987032565e+01 
1  4.489669462690e+01  -3.973423352899e+01   1.484341322739e+01 
1 -3.269980873900e+01  -1.289361507347e+01   1.479851646816e+01 
8
Step 27000
1 -4.127943990019e+01   5.045836866463e+01   6.112926555831e+00 
1 -7.990600805339e+00   3.558684544606e+01   1.587519479825e+01 
1  4.654138318184e+01  -2.148168196845e+01  -1.254681322642e+01 
1 -3.240057738643e+00   3.467609748080e+01   6.706886346030e+00 
1 -2.368543091855e+01  -6.234203599168e+01   1.758442160279e+01 
1 -1.174830347707e+01   2.828852585235e+01  -6.143312663346e+01 
1  2.627815034888e+01  -4.759802675567e+01   4.718417631893e+00 
1 -4.735391850508e+01  -2.370158451535e+01   9.961425748153e+00 
8
Step 28000
1 -1.947737931712e+01   2.944253871098e+01  -8.792440995714e+00 
1 -1.215011678314e+01   1.989847267726e+01  -2.737277509414e+00 
1  4.559226762359e+01  -1.849574535472e+01   2.281099674248e+01 
1  2.030877940246e+01   2.220653368291e+01  -3.830825696698e+00 
1 -7.193431714995e+00  -5.941852044978e+01   8.916330503747e+00 
1  1.948420711020e+00   5.221757297424e+01  -5.374411020102e+01 
1  3.269511973652e+00  -3.952210199072e+01  -7.924829015165e+00 
1 -4.589781415586e+01  -2.580794074595e+01  -3.380709471093e+00 
8
Step 29000
1  7.188056220257e+00   5.175201161831e+00  -1.726444251001e+01 
1 -1.216340657129e+01  -2.691857508291e+00  -2.191035591837e+01 
1  3.093520758145e+01  -1.095448816208e+01   5.191756559621e+01 
1  2.908405355960e+01   3.857251266121e+00  -1.069069769504e+01 
1  1.236359145626e+01  -3.308283047618e+01  -4.110129609812e+00 
1  1.921098921807e+01   5.747336199418e+01  -3.280014293905e+01 
1 -1.401396495702e+01  -1.982869140796e+01  -1.258526486854e+01 
1 -2.846874322951e+01  -1.716711587364e+01  -2.323124118708e+01 
8
Step 30000
1  2.741600821618e+01  -1.461205673512e+01  -1.504452851296e+01 
1 -7.667031406958e+00  -2.276561234855e+01  -3.695502062956e+01 
1  7.366391994072e+00  -2.645844493150e+00   6.510744536198e+01 
1  1.978000838014e+01  -1.056400008418e+01  -9.352043399376e+00 
1  2.433453276901e+01   5.783606596008e+00  -1.899186887282e+01 
1  3.178395353599e+01   4.446430061282e+01  -6.592487402475e+00 
1 -1.976610761145e+01   3.298731695461e+00  -3.932369692733e+00 
1 -8.417812291004e-01  -4.715279473503e-03  -4.293888702808e+01 
8
Step 31000
1  3.420228286030e+01  -2.616327090733e+01  -3.930279383951e+00 
1  4.572563949647e-01  -3.235062048405e+01  -4.344723396244e+01 
1 -1.802787090261e+01   3.164085837560e+00   5.818735994155e+01 
1 -1.680850903520e+00  -1.462853622934e+01   6.125700989088e-01 
1  2.227514345324e+01   4.114137044698e+01  -3.133234404937e+01 
1  3.315801788697e+01   1.929191995768e+01   1.707945995966e+01 
1 -1.455748580388e+01   2.096411564723e+01   1.500073265269e+01 
1  2.741730203950e+01   1.827237756767e+01  -5.288085785137e+01 
8
Step 32000
1  2.769036395603e+01  -3.002283396068e+01   9.159000559056e+00 
1  9.984229196418e+00  -2.679803010985e+01  -3.827850113757e+01 
1 -3.835711468666e+01   5.269661731071e+00   3.365811687064e+01 
1 -2.344454564639e+01  -7.889318769521e+00   1.458287470868e+01 
1  7.293483445996e+00   5.865195269681e+01  -3.620832866147e+01 
1  2.135556372148e+01  -8.394989461947e+00   3.287130001356e+01 
1 -4.370758341129e+00   2.721729716517e+01   3.391805617666e+01 
1  4.685637425321e+01   2.792908078663e+01  -4.441940900923e+01 
8
Step 33000
1  1.383361797058e+01  -2.961907853061e+01   1.624223640538e+01 
1  1.831689838600e+01  -8.393684334104e+00  -2.130843966219e+01 
1 -4.888414580231e+01   5.112701236006e+00  -1.197101697049e-01 
1 -3.404241739974e+01   4.568517832269e+00   2.479841004241e+01 
1 -1.341662153425e+01   5.242126749560e+01  -2.994961299705e+01 
1 -1.999607166575e-01  -2.916379277872e+01   3.913737671740e+01 
1  3.028339794218e+00   2.148926473265e+01   4.074939556133e+01 
1  5.135253614985e+01   2.326110653965e+01  -1.552146683571e+01 
8
Step 34000
1  4.631849674624e-01  -2.748979169165e+01   1.218025007390e+01 
1  2.242684397611e+01   1.421157325536e+01   3.474564413646e+00 
1 -4.785372863289e+01   5.522639654243e+00  -3.200024264820e+01 
1 -2.792001047587e+01   1.499794454214e+01   2.419061781060e+01 
1 -3.063695414073e+01   2.647385552304e+01  -1.246812999673e+01 
1 -2.403224790839e+01  -3.784625285893e+01   3.763753359145e+01 
1  2.251462001535e+00   8.058950665889e+00   2.810322472627e+01 
1  3.998184179940e+01   5.742038979473e+00   2.654351575115e+01 
8
Step 35000
1 -6.715567565623e+00  -2.283248224965e+01  -2.916757638296e+00 
1  1.874642269788e+01   3.154560777209e+01   2.900271408729e+01 
1 -3.624367621171e+01   8.456549941830e+00  -5.232838646504e+01 
1 -7.388804612065e+00   1.618739095222e+01   9.934573104026e+00 
1 -3.600681257589e+01  -8.642728396226e+00   1.123160959283e+01 
1 -4.197530610999e+01  -3.448604402387e+01   3.094391623465e+01 
1 -7.408850235557e+00  -5.701784618877e+00  -3.043242475124e+00 
1  1.766343780701e+01  -1.608011124242e+01   6.758044090160e+01 
8
Step 36000
1 -6.588117474380e+00  -1.312765078085e+01  -2.269640072879e+01 
1  6.495513124918e+00   3.735458812223e+01   4.722249657435e+01 
1 -1.695177718113e+01   1.393253692824e+01  -5.606269253400e+01 
1  1.800640874015e+01   5.459436808814e+00  -1.414943714071e+01 
1 -2.518783687904e+01  -4.021538516518e+01   3.375391687582e+01 
1 -4.816330736353e+01  -2.281997332072e+01   2.041624759584e+01 
1 -2.107067671823e+01  -1.211536484606e+01  -4.162021778169e+01 
1 -7.965681250569e+00  -3.018531492407e+01   9.113092971926e+01 
8
Step 37000
1 -2.911703254400e+00   2.158979346056e+00  -3.592602421197e+01 
1 -9.878740910109e+00   2.870209432458e+01   5.187918762861e+01 
1  6.609107795355e+00   1.959384208879e+01  -4.368196263021e+01 
1  3.578869606128e+01  -1.264699843730e+01  -3.815456096005e+01 
1 -1.317163779205e+00  -5.593953460042e+01   4.814850462982e+01 
1 -4.028822104002e+01  -7.969358904248e+00   6.769661168850e+00 
1 -3.009960331777e+01  -7.386816846895e+00  -6.985083805389e+01 
1 -3.015962268364e+01  -2.771592026373e+01   8.488358323489e+01 
8
Step 38000
1 -1.494846072547e+00   2.074639239895e+01  -3.242596156055e+01 
1 -2.452789759680e+01   8.220061280779e+00   4.156984899077e+01 
1  3.077112172257e+01   2.155601382254e+01  -2.048683069689e+01 
1  3.789188901963e+01  -2.874279018971e+01  -5.058140033929e+01 
1  2.685248834020e+01  -4.990251396740e+01   4.862095570196e+01 
1 -1.986676171648e+01   5.264232183026e+00  -8.863848034634e+00 
1 -2.659087469162e+01   6.185478707987e+00  -7.206119763996e+01 
1 -4.348046808140e+01  -8.282222480706e+00   4.747607232067e+01 
8
Step 39000
1 -6.386029783713e+00   3.755971437403e+01  -8.473486370899e+00 
1 -3.335789691686e+01  -1.546464863973e+01   2.037295985304e+01 
1  5.130441517160e+01   1.626662043549e+01   5.365875672772e+00 
1  2.446074310069e+01  -3.397272046690e+01  -4.393916829651e+01 
1  5.019991716463e+01  -2.600961037189e+01   3.309009703547e+01 
1  7.849856149455e+00   1.397646097334e+01  -2.457956236008e+01 
1 -7.443307267600e+00   2.136335119088e+01  -4.198094937548e+01 
1 -4.487980762605e+01   1.866712634808e+01  -8.868357619650e+00 
8
Step 40000
1 -1.755793311690e+01   4.525279387433e+01   3.097400184801e+01 
1 -3.172214896011e+01  -3.326817330250e+01  -5.043195581332e+00 
1  6.320554261617e+01   2.656205152951e+00   2.601330317795e+01 
1  2.083770834645e+00  -2.414424166848e+01  -1.846208838888e+01 
1  5.978651596445e+01   5.616330351707e+00   6.538929453976e+00 
1  3.525858338488e+01   1.760957923178e+01  -3.689333180646e+01 
1  2.327482456045e+01   2.829227381944e+01   1.223959208622e+01 
1 -3.521651758428e+01   3.837771890985e+01  -6.351787260359e+01 
8
Step 41000
1 -2.937195761197e+01   3.741087474774e+01   7.139670400057e+01 
1 -1.629204810003e+01  -4.134977069270e+01  -2.785884697239e+01 
1  6.160469874618e+01  -1.687520191337e+01   3.643911682575e+01 
1 -1.936086338829e+01  -1.512395898801e+00   1.696784666258e+01 
1  4.858880440092e+01   3.359538343543e+01  -2.254411459211e+01 
1  5.462518544923e+01   1.740057609480e+01  -4.126297047269e+01 
1  5.303558925650e+01   1.996964510500e+01   6.701626901627e+01 
1 -1.720449057555e+01   4.019700446288e+01  -9.638169733250e+01 
8
Step 42000
1 -3.190579491359e+01   1.455921179807e+01   9.176009155418e+01 
1  7.188129787459e+00  -3.763856329733e+01  -4.193214341664e+01 
1  4.332604693065e+01  -3.742958407854e+01   3.548811562909e+01 
1 -2.972245981240e+01   2.471742972690e+01   4.805238955081e+01 
1  1.887105900019e+01   4.687848019968e+01  -4.582627789769e+01 
1  5.990897506547e+01   1.501784048694e+01  -3.455688936122e+01 
1  6.759628201545e+01  -1.729596010414e+00   9.623700937520e+01 
1  5.183716653543e+00   2.199782610750e+01  -9.571875416328e+01 
8
Step 43000
1 -1.857027617201e+01  -1.445309551424e+01   7.685084822678e+01 
1  2.880120720849e+01  -2.159554194236e+01  -4.415850891491e+01 
1  7.999531258546e+00  -5.242507529745e+01   2.508868055203e+01 
1 -2.508771747320e+01   4.201350973198e+01   6.207013536875e+01 
1 -1.776237485154e+01   4.173499184540e+01  -5.611427342202e+01 
1  4.831833628414e+01   1.133081506027e+01  -1.711065389875e+01 
1  5.912967816186e+01  -2.787333646035e+01   8.635521515643e+01 
1  2.600588567743e+01  -9.496147017419e+00  -6.233397648763e+01 
8
Step 44000
1  8.562802563456e+00  -3.661385798251e+01   2.797695772638e+01 
1  4.266912112222e+01   2.825410063348e+00  -3.516603927315e+01 
1 -4.071186352351e+01  -5.405441083522e+01   9.657255067419e+00 
1 -9.992873724974e+00   4.098412784818e+01   5.366624420999e+01 
1 -4.908714509036e+01   2.387204375247e+01  -5.051636015327e+01 
1  2.118337394602e+01   6.477025472924e+00   6.751280651773e+00 
1  2.846528851533e+01  -4.640450749990e+01   4.143555683824e+01 
1  3.951417074191e+01  -3.954153602479e+01  -1.025201859375e+01 
8
Step 45000
1  3.842782675389e+01  -4.121702515853e+01  -3.496415048731e+01 
1  4.351719947360e+01   2.828548387366e+01  -1.782157762902e+01 
1 -9.052373533178e+01  -3.663472349433e+01  -5.324764202509e+00 
1  6.682311459364e+00   2.063898399664e+01   2.704916120333e+01 
1 -6.548829419212e+01   2.970283198133e+00  -3.193773437813e+01 
1 -1.520838796519e+01   4.023918904386e-01   2.929402317535e+01 
1 -1.272310525673e+01  -4.715180409362e+01  -1.631245955555e+01 
1  4.167196467104e+01  -5.374094003427e+01   3.991228545409e+01 
8
Step 46000
1  5.678735634591e+01  -2.693567061362e+01  -8.541350814760e+01 
1  2.607511997006e+01   4.757086520256e+01   4.235158585151e+00 
1 -1.216693037727e+02  -1.967205420525e+00  -1.487674292622e+01 
1  1.628038387271e+01  -1.072253105771e+01  -5.557238831414e+00 
1 -5.944110063961e+01  -1.313456129715e+01  -5.668276709673e+00 
1 -5.019071827198e+01  -7.124102250087e+00   4.208262032629e+01 
1 -4.687026490648e+01  -2.926924011560e+01  -5.838124864611e+01 
1  3.099743310797e+01  -4.666674086676e+01   7.122817318508e+01 
8
Step 47000
1  5.278613186292e+01  -4.077809267220e+00  -1.026760062055e+02 
1 -2.734166361080e+00   5.377088707337e+01   2.588893273255e+01 
1 -1.173979409255e+02   3.981296400711e+01  -1.745121908466e+01 
1  1.340321296620e+01  -3.907950106794e+01  -3.068403834429e+01 
1 -3.305167059983e+01  -1.959626150283e+01   2.078308538414e+01 
1 -7.202163527014e+01  -1.527077135774e+01   4.029781806472e+01 
1 -6.226807467422e+01  -1.274671364996e+00  -6.961097420276e+01 
1  1.106185800265e+01  -2.179515350476e+01   7.573422553301e+01 
8
Step 48000
1  2.727643561870e+01   1.188608856836e+01  -8.161333322603e+01 
1 -2.918047448110e+01   4.295457824732e+01   4.168574083259e+01 
1 -7.452822579982e+01   7.402952141747e+01  -1.508861437722e+01 
1  1.708141076033e-01  -5.049105881393e+01  -4.042832548223e+01 
1  2.532903069218e+00  -1.701556923414e+01   3.956991237784e+01 
1 -7.262740055972e+01  -2.148288941418e+01   2.489001528128e+01 
1 -5.678363181264e+01   2.543661935429e+01  -5.199399962143e+01 
1 -1.070799885565e+01   1.133427541324e+01   5.493845519781e+01 
8
Step 49000
1 -8.189743491668e+00   1.155534676980e+01  -3.496724251898e+01 
1 -4.233300954175e+01   1.690296986127e+01   4.672668931948e+01 
1 -6.733650410819e+00   8.600585284334e+01  -1.091182151524e+01 
1 -1.519829667879e+01  -3.845348099903e+01  -3.532015553027e+01 
1  3.359985532516e+01  -9.964894655450e+00   4.590642360789e+01 
1 -4.995051469343e+01  -2.273148858612e+01   2.055844305088e+00 
1 -3.414071811053e+01   4.091763713191e+01  -1.762583125109e+01 
1 -2.705076735166e+01   3.976315976685e+01   1.938419740219e+01 
8
Step 50000
1 -3.836432846014e+01  -3.332740204634e+00   1.533616480201e+01 
1 -3.722745125204e+01  -1.675477383800e+01   3.837999957158e+01 
1  5.971880183915e+01   7.045727543182e+01  -8.539914703874e+00 
1 -2.362828954300e+01  -7.712896912727e+00  -2.233953809255e+01 
1  4.978887847574e+01  -3.388368185040e+00   3.924525650559e+01 
1 -9.146636827561e+00  -1.681644502505e+01  -1.874349169692e+01 
1 -3.014429032619e+00   4.036690213386e+01   1.648318011821e+01 
1 -3.282374195363e+01   5.288581122170e+01  -1.628700442676e+01 
8
Step 51000
1 -5.218236095265e+01  -2.227555298818e+01   5.149148681135e+01 
1 -1.605179121361e+01  -4.610545294118e+01   1.788575446813e+01 
1  9.927762791797e+01   3.587638467485e+01  -9.603943243132e+00 
1 -1.899723563450e+01   2.857596029345e+01  -9.896954106044e+00 
1  4.628546205533e+01  -6.094733196363e-01   2.240677642711e+01 
1  3.707278638364e+01  -3.741451355541e+00  -2.899686970619e+01 
1  2.567657914355e+01   2.539483448324e+01   3.611724625215e+01 
1 -2.613154619650e+01   4.710533868918e+01  -4.097301689458e+01 
8
Step 52000
1 -4.507114778590e+01  -3.273897315844e+01   6.429199905389e+01 
1  1.014437291861e+01  -5.974628212752e+01  -9.516381235649e+00 
1  1.018097478201e+02  -2.497019547687e+00  -1.185986134575e+01 
1 -2.380834028895e+00   5.472008173719e+01  -2.553820059791e+00 
1  2.583279683663e+01  -1.993408003479e+00   9.618621386480e-01 
1  7.199468042818e+01   1.307177447246e+01  -2.540928206523e+01 
1  4.313450058801e+01   2.625078579570e+00   3.597103445384e+01 
1 -1.047780090532e+01   2.593784477543e+01  -4.883718994076e+01 
8
Step 53000
1 -2.078982262920e+01  -2.544803577717e+01   5.361072820050e+01 
1  2.797009992464e+01  -5.231816531176e+01  -3.501411978561e+01 
1  7.309174534806e+01  -3.171789628455e+01  -1.126835758665e+01 
1  1.797921544209e+01   5.862030803524e+01   1.748606671381e-01 
1 -2.309307723818e+00  -4.741314075777e+00  -1.882682305247e+01 
1  8.301112916672e+01   2.753302174823e+01  -1.192795446486e+01 
1  4.491332228155e+01  -1.911109077988e+01   2.013973602568e+01 
1  6.880366143420e+00  -2.359145861894e+00  -3.966884117039e+01 
8
Step 54000
1  9.191459308533e+00   3.029902491986e-01   2.815496624321e+01 
1  2.856562433131e+01  -2.679380878878e+01  -5.032207218726e+01 
1  2.909991475663e+01  -4.508271437599e+01  -5.760552303351e+00 
1  3.201282509801e+01   3.776091615171e+01   2.662319918901e+00 
1 -2.677074139178e+01  -5.081988046369e+00  -3.181581472809e+01 
1  6.633954192807e+01   3.368236427380e+01   2.775540564130e+00 
1  3.136650943276e+01  -3.222399429679e+01  -1.261051738020e+00 
1  1.904112039924e+01  -2.843389062933e+01  -1.923027113950e+01 
8
Step 55000
1  3.143285392729e+01   3.369950238441e+01   7.332798058409e-01 
1  1.239663086488e+01   7.116822284760e+00  -5.020302970378e+01 
1 -1.210448303933e+01  -4.262194776831e+01   3.725408567252e+00 
1  3.260739821717e+01  -6.798380513862e-02   8.918991736231e+00 
1 -3.859421472290e+01  -7.789426333030e-01  -3.525632217152e+01 
1  2.746508829126e+01   2.798774926319e+01   9.843720718492e+00 
1  7.602137842693e+00  -3.348634071709e+01  -1.691272875796e+01 
1  2.151096228304e+01  -4.427142226741e+01   3.242068442377e+00 
8
Step 56000
1  3.796705203230e+01   5.839913503517e+01  -1.908079758320e+01 
1 -1.088832198931e+01   3.679725356015e+01  -3.345732794133e+01 