8
Step 0
1  7.395189469585e+00   2.868572838882e+01  -2.182869978595e+01 
1  3.581768520100e+01  -5.040078629445e+01  -1.872152468762e+01 
1 -8.956057854562e+00   4.753479582038e+00   1.574679953468e+00 
1  1.977878075509e+01   3.607585693886e+01  -2.422827477529e+01 
1  7.002853144553e+01   7.647335132185e+01   2.165794942044e+00 
1  2.570063494682e+01  -1.914862205628e+01   1.732125061436e+00 
1  5.826318678326e+01  -1.353795077675e+01  -5.974027404880e+01 
1  5.370653369435e+01  -9.140397982714e+00  -5.549262301199e+01 
8
Step 1000
1  2.327551987025e+01   4.534572650711e+01  -2.517406679173e+01 
1  4.357183192038e+01  -5.095268650773e+01  -5.431207181131e+01 
1 -4.290269558741e+01  -6.079723725011e+00  -2.776122662899e+01 
1  2.256352460450e+01   1.397040880829e+01   1.464286687957e+01 
1  6.097907977502e+01   3.896992232602e+01  -1.411319618218e+01 
1  3.995593484871e+01   2.959602519726e+00  -3.206641853693e+00 
1  6.311158131945e+01  -2.193449520815e+01  -5.209662906109e+01 
1  1.142024493830e+01   2.807096670981e+00  -6.678577244162e+01 
8
Step 2000
1  2.467562774847e+01   5.265788427983e+01  -1.699369106821e+01 
1  2.766122399670e+01  -2.629750751631e+01  -6.262357984956e+01 
1 -5.291920095586e+01  -1.628192576147e+01  -4.170692068527e+01 
1  1.506555308439e+01  -8.273018568244e+00   5.250003969616e+01 
1  3.137246939323e+01  -4.645853626270e+00  -1.980382625559e+01 
1  4.082942291205e+01   2.502797386673e+01  -1.996228523518e+01 
1  4.889298247138e+01  -2.687815102099e+01  -2.450734840930e+01 
1 -3.077472425623e+01   1.170082946485e+01  -5.018717708620e+01 
8
Step 3000
1  1.330876207334e+01   4.503959368366e+01  -8.718189648195e-01 
1 -1.311911581259e+00   6.758265443435e+00  -4.598988036331e+01 
1 -4.229564510667e+01  -2.189638426476e+01  -3.679003609988e+01 
1  3.053212596224e+00  -2.056581393371e+01   7.414729115535e+01 
1  1.168172596032e+00  -3.266131247741e+01  -1.356963844350e+01 
1  2.963895045676e+01   4.164411316916e+01  -3.958500888759e+01 
1  1.573718246074e+01  -2.815876808561e+01   1.430454231400e+01 
1 -5.655850089679e+01   8.907692754175e+00  -1.770019192127e+01 
8
Step 4000
1 -4.385713600145e+00   1.921441462481e+01   1.695294294023e+01 
1 -2.455264190205e+01   2.729067406286e+01  -1.889827978350e+01 
1 -2.074359019867e+01  -2.062975734051e+01  -1.668601475446e+01 
1 -7.479032076601e+00  -2.095869309614e+01   7.250628635051e+01 
1 -1.592699886806e+01  -3.869039006424e+01  -1.704186892986e+00 
1  1.067535803762e+01   4.891095327925e+01  -4.956064049084e+01 
1 -2.386772507053e+01  -2.507660798928e+01   4.593949317682e+01 
1 -6.069057517380e+01  -3.870814013598e+00   1.262025867518e+01 
8
Step 5000
1 -1.869897331278e+01  -2.182674369921e+01   2.865466604753e+01 
1 -3.040935620718e+01   2.720567234064e+01   2.435214418822e+00 
1  3.976582891852e-01  -1.193931595346e+01   9.779036489814e+00 
1 -1.337063479796e+01  -1.271108665135e+01   4.861068022594e+01 
1 -1.893504786440e+01  -2.798408554933e+01   9.159074114568e+00 
1 -1.142795373732e+01   4.412393499572e+01  -3.957155375867e+01 
1 -5.143873642061e+01  -1.773786928012e+01   5.626613666829e+01 
1 -4.740908519618e+01  -1.852000185137e+01   2.997464343563e+01 
8
Step 6000
1 -2.094081319410e+01  -6.525627964971e+01   2.821324965555e+01 
1 -2.083870804437e+01   1.352529459115e+01   1.159360244105e+01 
1  1.254869103263e+01   2.293696182042e+00   3.177412908606e+01 
1 -1.410080852610e+01  -1.584789127925e+00   1.192460973201e+01 
1 -1.293552060874e+01  -7.941319217603e+00   1.410228330667e+01 
1 -3.285569278051e+01   2.417381686330e+01  -3.252951364123e+00 
1 -5.850997848180e+01  -7.364340383743e+00   4.710509081406e+01 
1 -2.315911093377e+01  -2.694154184028e+01   3.176945843944e+01 
8
Step 7000
1 -9.223524624724e+00  -9.398150962439e+01   1.518710341550e+01 
1 -3.945765287743e+00  -2.399364409353e+00   9.986759335064e+00 
1  1.304752698188e+01   1.864051036232e+01   4.140196975441e+01 
1 -1.175667485176e+01   6.230917474195e+00  -2.052147793204e+01 
1 -5.556461308488e+00   1.307344514607e+01   9.911484255517e+00 
1 -4.647529016522e+01  -8.965536453567e+00   5.189374199240e+01 
1 -4.788960847429e+01   4.375654023421e+00   2.848827395441e+01 
1  5.210341690214e+00  -2.382481306666e+01   2.005793908319e+01 
8
Step 8000
1  1.237826905676e+01  -9.468984002382e+01  -7.235815404563e+00 
1  1.172023786160e+01  -1.143690972621e+01   2.094204334815e+00 
1  3.769127150882e+00   3.322240796340e+01   3.463711345549e+01 
1 -9.215292714296e+00   8.436564078749e+00  -3.708411335470e+01 
1 -3.932304592215e+00   2.681198378029e+01  -3.329330610559e+00 
1 -4.542598544294e+01  -3.992115160013e+01   9.415573343989e+01 
1 -2.643271913930e+01   1.557795000229e+01   9.008572159185e+00 
1  2.962061327030e+01  -8.664345327319e+00   9.437360788759e-01 
8
Step 9000
1  3.690895393838e+01  -5.759107820455e+01  -3.474638939829e+01 
1  1.948290652992e+01  -9.237689419783e+00  -6.831641134923e+00 
1 -1.064461857519e+01   4.067019411142e+01   1.030373165205e+01 
1 -7.267438801274e+00   6.721034823326e+00  -3.856575411903e+01 
1 -1.078602733434e+01   2.784673911291e+01  -2.125795610672e+01 
1 -3.280591172864e+01  -5.587535701028e+01   1.008505465447e+02 
1 -1.014935186366e+00   2.395471265372e+01  -6.813951395305e+00 
1  4.288585791145e+01   1.313801113933e+01  -1.670985950330e+01 
8
Step 10000
1  5.057271325204e+01   8.877848289784e+00  -5.551645594029e+01 
1  1.582547802668e+01   2.638044933867e+00  -1.174773581779e+01 
1 -2.214771430310e+01   3.449427306122e+01  -2.579938212156e+01 
1 -4.847018686749e+00   2.898680887827e+00  -2.842731928433e+01 
1 -2.194635633609e+01   1.565371758426e+01  -3.600476913812e+01 
1 -1.610026967862e+01  -5.483421673808e+01   7.242680939543e+01 
1  2.188073896564e+01   2.667505899402e+01  -1.748141481961e+01 
1  4.183661413569e+01   3.263956446826e+01  -2.525100917594e+01 
8
Step 11000
1  4.343211776001e+01   6.425432901911e+01  -5.703603120015e+01 
1  1.948145580536e+00   1.660849189415e+01  -8.961670027474e+00 
1 -2.232526260632e+01   1.286689068616e+01  -5.829886545894e+01 
1 -3.187952318214e-01  -1.804464440031e+00  -1.026902218281e+01 
1 -2.745952399101e+01  -4.757136939489e+00  -3.881971971277e+01 
1 -2.823596085615e+00  -4.130900657642e+01   2.656512943937e+01 
1  3.624420109148e+01   2.100296935639e+01  -2.322950183193e+01 
1  2.766036624442e+01   4.129455465109e+01  -2.129840384657e+01 
8
Step 12000
1  2.274723302183e+01   8.388545736006e+01  -4.246831109917e+01 
1 -1.575414183678e+01   2.201107965150e+01   2.197806821871e+00 
1 -9.216239373424e+00  -1.756257823542e+01  -7.154915518886e+01 
1  7.189230843431e+00  -6.497198804247e+00   1.046893212950e+01 
1 -1.758462164790e+01  -2.467487447014e+01  -2.444574553643e+01 
1  3.047717119549e+00  -2.561384056460e+01  -8.243093216474e+00 
1  3.803378089309e+01   5.832953031374e+00  -2.515417286704e+01 
1  4.771015897822e+00   3.367120903851e+01  -6.478618055309e+00 
8
Step 13000
1  4.103924558938e-01   7.180998055513e+01  -2.116275156305e+01 
1 -2.819427068822e+01   1.117578799565e+01   1.846698302577e+01 
1  1.089753503163e+01  -4.501839328953e+01  -5.963359242949e+01 
1  1.631606312307e+01  -1.051446685088e+01   2.744496012564e+01 
1  1.001053009556e+01  -3.495215897834e+01   4.630892564780e+00 
1  5.203593377354e+00  -1.288251391876e+01  -2.352202788748e+01 
1  2.661700461992e+01  -1.676022247794e+01  -2.408556448060e+01 
1 -1.952594091370e+01   1.026804276019e+01   1.236521475255e+01 
8
Step 14000
1 -1.452581372498e+01   4.247435166242e+01  -7.428949157401e-01 
1 -2.777949751519e+01  -1.502492890342e+01   3.320578873150e+01 
1  2.709288552051e+01  -5.803891083162e+01  -2.858442181748e+01 
1  2.290119390228e+01  -1.287513719052e+01   3.553356864667e+01 
1  4.503211076817e+01  -3.047851125005e+01   3.594406013466e+01 
1  8.632674439694e+00  -1.222651730992e+00  -2.559715925323e+01 
1  5.883018223802e+00  -4.043239863921e+01  -1.963443687606e+01 
1 -3.678839158741e+01  -2.016473627731e+01   2.501769307080e+01 
8
Step 15000
1 -1.819353325775e+01   1.185336884440e+01   1.447872009788e+01 
1 -1.257000325531e+01  -4.496611448455e+01   3.846149721183e+01 
1  2.996237139317e+01  -5.083246325724e+01   7.407924840063e+00 
1  2.110451922160e+01  -1.161517417324e+01   3.201608819732e+01 
1  6.915004565602e+01  -1.476755385469e+01   5.387543593207e+01 
1  1.567154878115e+01   1.066547016252e+01  -1.968994124654e+01 
1 -1.618338806149e+01  -5.575747463078e+01  -1.021938455987e+01 
1 -4.192532612259e+01  -4.460683910987e+01   2.374548012651e+01 
8
Step 16000
1 -1.247141800165e+01  -9.454887425996e+00   2.381423616002e+01 
1  1.148335737253e+01  -6.078143247999e+01   2.890008937533e+01 
1  1.724910543905e+01  -2.627372867778e+01   3.390086326533e+01 
1  6.062660025338e+00  -4.053268212435e+00   1.690149822141e+01 
1  6.931264405188e+01   3.305621985434e+00   5.105421194571e+01 
1  2.495102432733e+01   2.244060365247e+01  -1.062499437391e+01 
1 -3.099777196968e+01  -5.404557470843e+01   5.669584907540e+00 
1 -3.473536284483e+01  -5.281200525913e+01   7.150420407536e+00 
8
Step 17000
1 -2.484779985747e+00  -1.848690178213e+01   2.818608432976e+01 
1  3.324146350114e+01  -4.859843535313e+01   4.957306410698e+00 
1 -4.321551275966e+00   5.028722034367e+00   4.345264889410e+01 
1 -2.130833944902e+01   1.091057237119e+01  -5.641804852735e+00 
1  4.237588425923e+01   1.556118602907e+01   2.961053218366e+01 
1  3.151333142999e+01   3.253134455246e+01  -2.345653449177e+00 
1 -3.262805174389e+01  -3.048943993429e+01   2.760210221713e+01 
1 -1.764536581835e+01  -3.967582174891e+01  -2.021319562289e+01 
8
Step 18000
1  6.185104643211e+00  -1.789953261770e+01   2.791300846185e+01 
1  4.132033524797e+01  -8.212661428932e+00  -2.562636347868e+01 
1 -2.256891303353e+01   2.968099147410e+01   3.882815656504e+01 
1 -4.985324277551e+01   2.925774457658e+01  -2.658144120993e+01 
1 -1.805439646952e+00   1.718706798738e+01   4.209220048322e-01 
1  2.896250625637e+01   3.828708983507e+01   3.250384304952e+00 
1 -2.006975401694e+01   1.130439216910e+01   5.024412456402e+01 
1  5.105393078155e+00  -6.783851453375e+00  -4.743031838211e+01 
8
Step 19000
1  9.557138117899e+00  -1.287221504576e+01   2.207888055280e+01 
1  3.134877059447e+01   3.947910134438e+01  -4.844741612871e+01 
1 -2.818050521992e+01   3.925074081260e+01   2.914690654451e+01 
1 -6.405316457143e+01   4.280784350830e+01  -3.755220858480e+01 
1 -3.923730028227e+01   1.064898020901e+01  -2.004742603526e+01 
1  1.220997072180e+01   3.599889238792e+01   6.383077317475e+00 
1 -7.976185378485e-01   5.417871057857e+01   6.286235483393e+01 
1  2.706570875562e+01   3.445024328995e+01  -5.858006417906e+01 
8
Step 20000
1  6.358836357404e+00  -8.230725804307e+00   9.489578476008e+00 
1  1.168239096709e+01   6.604080414182e+01  -5.350954528959e+01 
1 -2.027178922615e+01   3.389850798016e+01   2.184090319414e+01 
1 -5.379524531788e+01   4.384532390815e+01  -3.560696354888e+01 
1 -5.351182326311e+01   3.996161293012e+00  -2.505893440726e+01 
1 -1.910217377484e+01   2.180354206112e+01   8.481461037627e+00 
1  1.320178819297e+01   7.822722364361e+01   5.751023276919e+01 
1  4.276490399948e+01   6.811605098411e+01  -4.066575693259e+01 
8
Step 21000
1 -1.767496729647e+00  -6.510493598940e+00  -9.399813824982e+00 
1 -5.690966333826e+00   6.076892587485e+01  -4.267423533238e+01 
1 -5.143912097613e+00   1.990052479163e+01   1.830500692521e+01 
1 -1.740132943589e+01   2.745267457010e+01  -2.205796793751e+01 
1 -4.704407385507e+01   2.094778392510e+00  -2.014191577114e+01 
1 -5.524875571849e+01  -4.481045716790e+00   1.091493786857e+01 
1  1.463430484925e+01   7.458083147385e+01   3.403558146111e+01 
1  4.939245333272e+01   8.144333969735e+01   1.425711090241e+01 
8
Step 22000
1 -1.074841535336e+01  -7.140352745807e+00  -3.046715415007e+01 
1 -1.418644066381e+01   2.950463325837e+01  -2.228343538979e+01 
1  8.733462285323e+00   4.894296004947e+00   1.494460003918e+01 
1  3.122937452003e+01  -2.730313895995e+00  -3.380172667268e+00 
1 -2.544332714048e+01   6.192552922772e+00  -1.141390797735e+01 
1 -7.874860271407e+01  -3.574191765171e+01   1.371739657448e+01 
1  3.423386115270e+00   4.591376819437e+01  -5.173236409950e-01 
1  4.380979540883e+01   6.432029270610e+01   9.140926948194e+01 
8
Step 23000
1 -1.584539454693e+01  -7.085187269491e+00  -4.599709869177e+01 
1 -1.243384069489e+01  -1.338513566565e+01   1.348500864979e+00 
1  1.565905489721e+01  -5.955370155995e+00   7.314549617049e+00 
1  6.531511307114e+01  -3.129381405628e+01   1.047128240174e+01 
1  3.950411043547e+00   1.511931170118e+01  -3.829558739929e+00 
1 -7.738598282894e+01  -6.140517649065e+01   1.547864462646e+01 
1 -1.160110448965e+01   9.692351162677e+00  -2.996082854592e+01 
1  2.946596791042e+01   2.919568862754e+01   1.356954036212e+02 
8
Step 24000
1 -1.421252893983e+01  -3.135468802976e+00  -4.790570543038e+01 
1 -3.630757760045e+00  -4.964176088903e+01   2.276193707915e+01 
1  1.398198029066e+01  -1.052635781898e+01  -6.457195428356e+00 
1  7.137579367645e+01  -4.592376741037e+01   1.561872634395e+01 
1  2.954315370055e+01   2.390583549622e+01  -5.961139845651e-01 
1 -4.968479494804e+01  -7.227216726842e+01   1.440829910231e+01 
1 -1.933445563279e+01  -1.425735493768e+01  -4.253826070970e+01 
1  1.408804696413e+01  -6.294440083162e-01   1.252175590421e+02 
8
Step 25000
1 -6.295112618343e+00   5.468954508006e+00  -3.190012708127e+01 
1  6.538031587931e+00  -6.462296145568e+01   3.818290462840e+01 
1  5.384286337494e+00  -9.019285806061e+00  -2.434887823259e+01 
1  5.235718525284e+01  -4.355753206344e+01   1.444822612501e+01 
1  4.149000544125e+01   2.566366836233e+01  -1.026428630897e+00 
1 -4.972421659919e+00  -6.238317630395e+01   9.577269522365e+00 
1 -1.688139140659e+01  -2.376821508953e+01  -4.109472970859e+01 
1  9.166079824405e-01  -1.577025618693e+01   7.745879101630e+01 
8
Step 26000
1  4.416383374471e+00   1.561809641297e+01  -1.264280079893e+00 
1  1.279470884794e+01  -5.068190795694e+01   4.413264957312e+01 
1 -5.793280007997e+00  -3.686146819142e+00  -4.052132756528e+01 
1  1.879066581492e+01  -2.629402233344e+01   1.084764063935e+01 
1  3.582193983032e+01   1.489676080524e+01  -1.312276381226e+00 
1  3.720230967232e+01  -3.402593669668e+01   2.194465184460e+00 
1 -4.655398679025e+00  -2.186189127552e+01  -2.968877849248e+01 
1 -9.344768841614e+00  -1.738391843257e+01   2.070100635110e+01 
8
Step 27000
1  1.335660240938e+01   2.152230468892e+01   3.227679527096e+01 
1  1.206292094022e+01  -1.003738697338e+01   3.702245109920e+01 
1 -1.402557728082e+01   1.863157802751e+00  -4.721606801660e+01 
1 -1.356908226385e+01  -1.706512626155e+00   8.007551594674e+00 
1  1.484425335759e+01  -9.533886419371e+00   2.875139691933e+00 
1  5.978406312830e+01   1.289747857911e+00  -5.000132428458e+00 
1  1.448709700525e+01  -1.198158448185e+01  -1.166433909166e+01 
1 -1.703930357360e+01  -1.232427341319e+01  -2.422671845563e+01 
8
Step 28000
1  1.799965371115e+01   1.832066276125e+01   5.409916527441e+01 
1  5.419541739198e+00   3.906702614600e+01   1.715672934206e+01 
1 -1.484651647647e+01   4.078770119454e+00  -3.784023500765e+01 
1 -3.193266937347e+01   2.003798974470e+01   6.699343250561e+00 
1 -1.216838656397e+01  -4.042362065670e+01   1.298413217625e+01 
1  5.945617552491e+01   3.195625891037e+01  -1.002390440040e+01 
1  3.407380130379e+01   4.702083107852e-01   8.629204777568e+00 
1 -2.192615115349e+01  -7.193195289725e+00  -4.829024816245e+01 
8
Step 29000
1  1.921833852614e+01   4.725803832252e+00   5.346336374660e+01 
1 -1.890690839191e+00   7.093482667082e+01  -7.887177940515e+00 
1 -6.884296462919e+00   9.166359321055e-01  -1.035058620177e+01 
1 -3.349355230945e+01   3.213730874123e+01   5.281351989526e+00 
1 -3.238236929202e+01  -6.314870150362e+01   2.493856196504e+01 
1  4.172589297076e+01   5.080904097561e+01  -1.216178032227e+01 
1  4.600426400403e+01   9.645758356610e+00   2.639121835209e+01 
1 -2.258600462359e+01  -5.736976725044e+00  -5.006917506232e+01 
8
Step 30000
1  1.958682547188e+01  -1.586111169378e+01   2.625661734029e+01 
1 -5.462677586658e+00   7.386144029956e+01  -2.924290870096e+01 
1  6.189133451259e+00  -6.555802863517e+00   2.827598654033e+01 
1 -2.258062723585e+01   3.182926849835e+01   1.479511476860e+00 
1 -3.808838059126e+01  -6.505830843865e+01   3.125974200160e+01 
1  1.496227131778e+01   5.404123904047e+01  -1.142371089929e+01 
1  4.398284932995e+01   1.209447714839e+01   3.764471126464e+01 
1 -1.718893583695e+01  -8.374679537654e+00  -3.359636640400e+01 
8
Step 31000
1  2.054074861554e+01  -3.387433189982e+01  -1.948869475954e+01 
1 -4.329030467082e+00   4.982385457700e+01  -4.055405072915e+01 
1  1.654484536092e+01  -1.392418069179e+01   6.258243139539e+01 
1 -6.654270380930e+00   1.920452853195e+01  -5.815807404251e+00 
1 -2.863248511399e+01  -3.992597386415e+01   2.464597719096e+01 
1 -1.185016444800e+01   4.156928488619e+01  -8.376192405309e+00 
1  2.518078243115e+01   7.587704203471e+00   3.953867487359e+01 
1 -5.218166061949e+00  -1.255223258941e+01  -7.171667843691e+00 
8
Step 32000
1  2.030578964103e+01  -3.774698541987e+01  -6.078993649022e+01 
1 -4.293824067455e-01   9.206986432488e+00  -3.739024499155e+01 
1  1.772790175630e+01  -1.661988299516e+01   7.871493229397e+01 
1  6.272880359899e+00  -2.359137311431e+00  -1.526367449030e+01 
1 -8.852036979108e+00   8.813517144373e+00   1.580141757339e+00 
1 -3.130380338157e+01   1.776339679695e+01  -4.004719261973e+00 
1 -8.557959111700e+00  -1.516793766954e+00   3.039650551761e+01 
1  1.069434405676e+01  -1.403427926322e+01   1.842670921370e+01 
8
Step 33000
1  1.485727760814e+01  -2.379235524067e+01  -7.620139690530e+01 
1  2.444039175010e+00  -3.040956315599e+01  -2.007038431288e+01 
1  7.907052263591e+00  -1.239633839316e+01   7.017469225945e+01 
1  1.093459375147e+01  -2.622362333550e+01  -2.312228640001e+01 
1  9.350116973952e+00   5.717802604399e+01  -2.851147246458e+01 
1 -3.967441850912e+01  -9.826941137356e+00   6.222438553334e-01 
1 -4.781305627268e+01  -1.087682539577e+01   1.141022213941e+01 
1  2.529267124952e+01  -9.244845971707e+00   3.414891925710e+01 
8
Step 34000
1  8.971261754147e-01   2.461649919342e+00  -5.793085964189e+01 
1  1.397418281320e+00  -5.356519319285e+01   5.223955442958e+00 
1 -9.736307200422e+00  -1.600849199142e+00   3.774818867877e+01 
1  7.118835988128e+00  -4.468447689197e+01  -2.491495733325e+01 
1  1.660126459382e+01   7.834353161622e+01  -4.788728499337e+01 
1 -3.737294633204e+01  -3.369619709930e+01   4.657244463827e+00 
1 -7.685518120988e+01  -1.593399177979e+01  -1.189809673207e+01 
1  3.312283503998e+01   3.164938802527e+00   3.562960114854e+01 
8
Step 35000
1 -1.978111489370e+01   2.773329129747e+01  -1.438926369950e+01 
1 -3.585321767854e+00  -5.457520149384e+01   3.037671034201e+01 
1 -2.620199104390e+01   1.202055132959e+01  -6.763894818322e+00 
1 -1.830167920287e+00  -5.070065439832e+01  -1.638227652429e+01 
1  1.475850420245e+01   6.843638100441e+01  -4.792226941934e+01 
1 -2.721180049007e+01  -4.938625286806e+01   7.599223054116e+00 
1 -8.242026202023e+01  -1.448626414009e+01  -3.308707345309e+01 
1  3.002266749441e+01   2.205670142366e+01   2.254414176903e+01 
8
Step 36000
1 -3.714624812413e+01   3.665380335873e+01   2.703633941310e+01 
1 -9.710262903736e+00  -3.588621799485e+01   4.734712678109e+01 
1 -3.151604728798e+01   2.290851052654e+01  -4.381056990004e+01 
1 -1.072994895684e+01  -3.554838615336e+01   6.522524403230e+00 
1  1.043404914407e+01   3.905094092280e+01  -3.029447935466e+01 
1 -1.194255722281e+01  -5.557537681010e+01   9.328193487569e+00 
1 -5.593382244009e+01  -6.375844405301e+00  -4.827569456366e+01 
1  1.460651128539e+01   4.250467690088e+01  -1.347161600327e+00 
8
Step 37000
1 -4.253233907987e+01   2.733240070761e+01   4.459512063902e+01 
1 -1.205602468438e+01  -6.050949408371e+00   4.871268611967e+01 
1 -2.264568219518e+01   2.798488733104e+01  -6.112212112227e+01 
1 -1.203269907840e+01   4.070450617210e+00   3.920878040817e+01 
1  8.788703688943e+00   8.572627379855e+00  -5.288920664344e+00 
1  6.787040614795e+00  -5.156890222432e+01   9.857100526036e+00 
1  4.732534946630e+00   6.641393850566e+00  -5.344307415257e+01 
1 -8.033276658129e+00   5.485191782762e+01  -2.616131379224e+01 
8
Step 38000
1 -3.473575754652e+01   8.261010034059e+00   3.786347535503e+01 
1 -6.200593230162e+00   2.239668186534e+01   3.088213657179e+01 
1 -3.392726204901e+00   2.699119503500e+01  -5.761953911974e+01 
1 -2.822748096281e+00   5.047514892703e+01   6.348618196630e+01 
1  1.025851964316e+01  -9.841616432506e+00   1.507462905882e+01 
1  2.756334282189e+01  -3.530471398284e+01   8.794702551550e+00 
1  6.990392816239e+01   1.715057015833e+01  -4.586585595605e+01 
1 -2.719234091819e+01   5.016475876958e+01  -4.037595266910e+01 
8
Step 39000
1 -1.560494281682e+01  -1.071158949151e+01   1.465921221573e+01 
1  7.541396013923e+00   3.809455154118e+01  -2.278824144582e+00 
1  1.865690003333e+01   2.065065330214e+01  -3.870451228965e+01 
1  1.063455600376e+01   7.927247636871e+01   6.543351411137e+01 
1  1.198475717428e+01  -1.519142988740e+01   2.564397414577e+01 
1  4.652988728928e+01  -5.013460163869e+00   5.098774429698e+00 
1  1.018584454625e+02   1.939297802288e+01  -3.103839244540e+01 
1 -3.385445753171e+01   2.615263301835e+01  -3.862320643966e+01 
8
Step 40000
1  9.229043261210e+00  -2.003961340194e+01  -1.278425289104e+01 
1  2.269971661421e+01   3.661393682823e+01  -3.929317070077e+01 
1  3.478828893633e+01   9.898827989315e+00  -1.339140565630e+01 
1  2.010413163102e+01   7.900255949093e+01   4.480102916246e+01 
1  1.070473510663e+01  -1.153047193111e+01   2.546038981941e+01 
1  5.609685108036e+01   3.403130641021e+01  -1.958008451368e+00 
1  9.474281780929e+01   1.513603030548e+01  -1.478826938441e+01 
1 -2.558338729786e+01  -1.074412190796e+01  -2.377218139596e+01 
8
Step 41000
1  3.108982272699e+01  -1.510442929023e+01  -3.153678916458e+01 
1  3.045896118357e+01   2.242318386924e+01  -6.623239199004e+01 
1  3.889805486267e+01  -3.950175505434e+00   9.092059644609e+00 
1  2.003198397768e+01   5.069153231794e+01   1.064641354206e+01 
1  4.298372384656e+00  -4.214821235160e+00   1.559226548432e+01 
1  5.048733812204e+01   6.852851102671e+01  -1.133894509026e+01 
1  5.947256172465e+01   9.059748001419e+00   2.966825866638e-01 
1 -8.590989364959e+00  -4.572988222403e+01  -5.627916572075e+00 
8
Step 42000
1  4.226461338648e+01   1.207132007482e+00  -3.393382441483e+01 
1  2.539533187276e+01   4.434029287136e+00  -7.357336133119e+01 
1  2.995872893431e+01  -1.870005220599e+01   2.331950690172e+01 
1  1.029104295839e+01   9.271565046495e+00  -2.015144019929e+01 
1 -6.674468744075e+00   1.089051053885e+00  -7.549813924688e-02 
1  3.052590611916e+01   8.609364574250e+01  -2.031860094077e+01 
1  1.575309789496e+01   6.223566891951e+00   1.246528463908e+01 
1  6.722118203836e+00  -6.488868947882e+01   5.997191408883e+00 
8
Step 43000
1  3.826346515622e+01   1.991140729801e+01  -1.929371110030e+01 
1  8.141304542821e+00  -9.364384886049e+00  -5.805191936322e+01 
1  1.135678736464e+01  -3.106499917456e+01   2.844286662775e+01 
1 -2.547693397965e+00  -2.325305759333e+01  -3.371669125364e+01 
1 -1.849242489068e+01   6.208484494868e-01  -1.555118745237e+01 
1  2.291496669542e+00   8.052635229196e+01  -2.520674504665e+01 
1 -1.735085573948e+01   9.295297734820e+00   2.101286138428e+01 
1  1.358977041679e+01  -6.301325788196e+01   7.857814485989e+00 
8
Step 44000
1  1.953437965976e+01   2.892596013904e+01   6.234318562515e+00 
1 -1.411631095398e+01  -1.416178991043e+01  -2.317522509306e+01 
1 -1.090618451452e+01  -3.703223249518e+01   2.636692391321e+01 
1 -1.190058602366e+01  -3.664472441225e+01  -3.033155227199e+01 
1 -2.569042258928e+01  -5.435911990401e+00  -2.519411502846e+01 
1 -2.499920438364e+01   5.280240584844e+01  -2.223531519925e+01 
1 -3.193042498596e+01   1.702508731533e+01   2.680655848632e+01 
1  1.079117502455e+01  -4.193209380489e+01   2.913561346546e+00 
8
Step 45000
1 -6.541691513306e+00   1.978692253021e+01   3.107387233832e+01 
1 -2.971235236263e+01  -1.030970090376e+01   1.845041610957e+01 
1 -3.023813462494e+01  -3.275487812484e+01   1.967844695524e+01 
1 -1.518721438103e+01  -3.258799029494e+01  -1.781064694577e+01 
1 -2.326114121135e+01  -1.264436700732e+01  -2.590000570308e+01 
1 -4.171585215763e+01   1.231416272848e+01  -9.970824327138e+00 
1 -2.986258392226e+01   2.473629987647e+01   3.081826361666e+01 
1  1.973460291458e+00  -8.822426617870e+00  -2.223080993723e+00 
8
Step 46000
1 -2.805713399353e+01  -5.106334046562e+00   4.355121728708e+01 
1 -3.055501589877e+01  -3.413345370941e+00   4.978357228663e+01 
1 -4.098968931196e+01  -1.547069570831e+01   1.006344952606e+01 
1 -1.251606142026e+01  -1.746967991972e+01  -4.926054276802e+00 
1 -8.676390663514e+00  -1.361822826088e+01  -1.786471046309e+01 
1 -4.321461466442e+01  -2.617399535199e+01   8.203578584928e+00 
1 -1.798534784470e+01   2.609319611740e+01   3.220263409013e+01 
1 -5.809999289685e+00   2.487865037404e+01  -1.032396753795e+00 
8
Step 47000
1 -3.572182150058e+01  -3.301048024504e+01   3.848210279102e+01 
1 -1.868397481367e+01   3.668635612332e-01   6.035617257123e+01 
1 -3.860980141181e+01   1.494189726025e+01  -1.978846002462e+00 
1 -5.918159516655e+00   5.811240008093e-02   1.397470534280e+00 
1  1.536183433629e+01  -1.326734200343e+00  -4.748991756193e+00 
1 -3.265765729438e+01  -5.140958779767e+01   2.560568093688e+01 
1 -4.239738824381e+00   1.649665241690e+01   2.808922521674e+01 
1 -6.523700924696e+00   4.862274081493e+01   8.513035868532e+00 
8
Step 48000
1 -2.798176639231e+01  -4.879618055382e+01   1.901805123559e+01 
1 -3.417311000636e+00  -7.576229724260e-01   5.279143920340e+01 
1 -2.145837829700e+01   5.130627490036e+01  -1.558905050073e+01 
1  1.451324745112e+00   1.178206553078e+01  -9.965609768371e-01 
1  3.873458589740e+01   2.462468346943e+01   7.013816551196e+00 
1 -1.730002639657e+01  -6.007325989541e+01   3.617144549334e+01 
1  4.807686049240e+00  -3.938228847713e+00   1.560010301398e+01 
1  1.361950170331e+00   5.699418018922e+01   2.314772278809e+01 
8
Step 49000
1 -1.092075316686e+01  -4.336083515983e+01  -5.972770566600e+00 
1  8.642935684504e+00  -4.527682362614e+00   3.613907061382e+01 
1  4.835247283909e+00   7.780400656707e+01  -2.820406789085e+01 
1  6.810641941679e+00   1.274800599739e+01  -8.820923525038e+00 
1  4.819013286689e+01   5.385018342583e+01   1.204671654826e+01 
1 -4.012270521618e+00  -5.378472411074e+01   3.654487039518e+01 
1  5.767076376279e+00  -2.886892039767e+01  -5.185123863205e+00 
1  1.548932500959e+01   4.821260734227e+01   3.701308747858e+01 
8
Step 50000
1  5.229042057124e+00  -1.882947799986e+01  -2.572030272173e+01 
1  1.505881654067e+01  -8.115170296791e+00   1.632107894936e+01 
1  2.998095489158e+01   8.039847426906e+01  -3.684917223434e+01 
1  8.929422530354e+00   2.770023769658e+00  -1.521472122296e+01 
1  3.592303078384e+01   6.968673948534e+01   1.019203792672e+01 
1  2.345075525249e+00  -3.579941959506e+01   2.691491475498e+01 
1  1.870145917550e-01  -4.717598844813e+01  -2.896739926345e+01 
1  3.096380929569e+01   2.114582441999e+01   4.349283410268e+01 
8
Step 51000
1  1.206492298189e+01   1.190937337860e+01  -3.271871436057e+01 
1  1.431764433962e+01  -8.986708984243e+00  -2.542043675832e+00 
1  4.578431176461e+01   5.441235028423e+01  -3.901203279671e+01 
1  8.563715294089e+00  -1.298693389123e+01  -1.301777105632e+01 
1  3.611623286761e+00   5.701381667656e+01   5.944559412858e+00 
1  9.843887899468e-02  -1.032585230144e+01   1.100509196957e+01 
1 -6.044633179008e+00  -4.898608871199e+01  -4.677706368604e+01 
1  3.928777325187e+01  -1.999927666709e+01   3.575698401366e+01 
8
Step 52000
1  8.375888528826e+00   3.385444504289e+01  -2.672964027563e+01 
1  6.606984394196e+00  -5.739032846774e+00  -1.750616617245e+01 
1  4.823985013367e+01   6.561827250058e+00  -3.239811524267e+01 
1  8.029247430345e+00  -2.506522717401e+01   1.072996936155e+00 
1 -3.460480328965e+01   1.275044722729e+01   5.034450850788e+00 
1 -7.680160307514e+00   1.714535503752e+01  -5.783724634285e+00 
1 -6.403717638567e+00  -3.092726436195e+01  -5.026824387628e+01 
1  3.270134623656e+01  -5.845832745827e+01   1.338257682083e+01 
8
Step 53000
1 -4.076364042186e-01   3.876686047245e+01  -1.294112265134e+01 
1 -5.435009641702e+00   1.090688407721e+00  -2.747851082416e+01 
1  3.921394678392e+01  -4.290769427474e+01  -1.713320587745e+01 
1  9.532644006805e+00  -2.376014256099e+01   2.333871738218e+01 
1 -5.550249403201e+01  -4.064377969475e+01   9.613649353013e+00 
1 -1.404263881845e+01   4.073701343617e+01  -1.897536194098e+01 
1  2.229165217620e+00   1.188026635998e+00  -3.578049319506e+01 
1  1.292170927989e+01  -7.707923659384e+01  -1.446718430280e+01 
8
Step 54000
1 -6.500735402640e+00   2.675339513658e+01   2.171702491495e+00 
1 -1.729222114086e+01   9.220415801097e+00  -3.283953101414e+01 
1  2.506495967277e+01  -7.306450751384e+01   2.940292362713e+00 
1  1.300790434247e+01  -4.912365886436e+00   4.342680457755e+01 
1 -4.970022822303e+01  -7.365018858355e+01   1.588527005209e+01 
1 -1.163206911927e+01   5.562025795153e+01  -2.622961982316e+01 
1  1.622484253601e+01   3.220912344753e+01  -8.916749382520e+00 
1 -1.076453184730e+01  -7.091838889073e+01  -3.667302779518e+01 
8
Step 55000
1 -3.969677776493e+00   4.644065947352e+00   1.326398615147e+01 
1 -2.392450291289e+01   1.571184743048e+01  -3.410578483809e+01 
1  9.846552295775e+00  -7.677263901785e+01   2.362198865237e+01 
1  1.521266350094e+01   2.595258341517e+01   4.894696083359e+01 
1 -2.588058494537e+01  -7.596998664418e+01   1.879934174096e+01 
1  4.922755187587e+00   5.712474493977e+01  -2.581660228072e+01 
1  2.726485315262e+01   4.778667146041e+01   1.825739343881e+01 
1 -2.816634695486e+01  -4.576066678458e+01  -4.603925745520e+01 
8
Step 56000
1  7.838026403735e+00  -1.674465110182e+01   1.758029566411e+01 
1 -2.116668840657e+01   1.820618048491e+01  -3.026095919550e+01 