8
Step 0
1 -4.335052367192e+01   6.226770353478e+01  -1.571831079641e+01 
1 -4.197517804778e+01   5.557624918835e+01   6.050689884240e+01 
1  4.062082842113e+01  -6.869837660098e+01  -6.406602060552e+00 
1  3.202042668263e+01  -9.333787405458e+00   7.585091136361e+01 
1  2.169421302650e+01  -5.304981751903e-01  -3.452327492586e+01 
1  2.479565131470e+00   3.727202342153e+01  -7.541307749490e+01 
1  3.539535683763e+01   1.835259957186e+01  -5.811004072382e+01 
1  1.040422054410e+01   7.251222155371e+01   5.312714128624e+01 
8
Step 1000
1 -5.462893367557e+01  -9.527590586307e+00   2.920803385181e+01 
1 -3.046943852868e+01   4.121581735654e+01   3.057388150357e+01 
1  5.386017076344e+01   5.261346618488e+01   7.375185801298e+00 
1 -3.716017936005e+01   8.882130410751e+00  -4.765343208316e+01 
1 -3.479899057805e+01   2.940912935951e+01   4.368234549897e+01 
1 -1.826397101579e+01  -7.660786308901e+01  -2.272363280795e+01 
1  1.029755971828e+01  -9.604972266926e+00   5.308436581688e+01 
1  2.938114622876e+00   2.704453789193e+01  -2.492379745229e+01 
8
Step 2000
1 -5.450203183953e+00  -3.255978763769e+01   1.282656436657e+01 
1 -1.708342262464e+01   1.009761808084e+01   5.172751148877e+01 
1  5.865754523802e+00  -2.881166521118e+01  -4.146878838274e+01 
1 -2.526930159005e+01  -7.396821256156e+00   2.545025679656e+01 
1 -3.691871659103e-01  -4.228430479926e+01  -1.613372475900e+01 
1  3.439069208928e-01   1.793542196290e+01   6.251203019312e+00 
1 -4.680453250235e+00   1.822905677118e+01  -1.307828424947e+01 
1  3.373760112874e+00   5.352018382428e+01   4.561853442666e+01 
8
Step 3000
1 -7.293665322735e+00   7.931223107507e+00   2.782050050100e+01 
1  8.087300955105e+00   4.762217388606e+01  -5.903657272231e+01 
1  2.755599668910e+01   4.139838868439e+01  -3.656827064791e+01 
1 -4.075505098737e+01   4.203235791975e+00   3.897446902931e+01 
1 -4.879767997414e+01   6.579271201075e+00   1.802684000090e+01 
1 -1.816201207249e+01  -5.509460182667e+01  -1.297854047644e+01 
1  8.048558734791e+00   2.622463773091e+01   4.834925116489e+01 
1  2.122959649483e+01  -5.489332617454e+01  -8.878752607522e+01 
8
Step 4000
1  5.432913645276e+00   2.544230959324e+01   1.105651426691e+01 
1 -4.781302750255e+01  -1.104450245162e+01   3.991303381542e+01 
1 -3.762585240133e+01  -4.248761449993e+01   4.787969781477e+00 
1 -5.336788414969e-01  -1.832545900793e+01   1.306879479941e+01 
1  5.699391982667e+01  -1.987568517131e+01   5.751552008486e+00 
1  3.967110974148e+01   5.826579066615e+01  -1.747434853965e+01 
1 -1.083105580946e+00   3.496188332368e+00  -5.476151425768e+01 
1  2.947419558365e+00  -8.940394993568e+00   7.137557960108e+01 
8
Step 5000
1 -3.741638237932e+01   4.813589215861e+00   7.778638310507e+00 
1 -1.506185861386e+00   3.847645048999e+01  -6.504487916341e+01 
1  1.228119349833e+01   1.426149944330e+00  -3.149524054821e+00 
1  4.015423531664e+01   1.365818855363e+01   1.577617441583e+01 
1 -1.118004469521e+01   5.852229307220e+01  -2.113823065042e+01 
1 -1.571547584583e+01  -2.574018599034e+01  -3.209670619249e+01 
1 -3.734233891002e+01  -3.228569662544e+01   1.874979492187e+01 
1 -1.178326615553e+01  -6.431850070964e+01   5.348884333097e+00 
8
Step 6000
1  4.034968252983e+01  -8.935103554484e+01  -2.973092830461e+01 
1  2.111929735932e+00  -2.602338791103e+01   4.221806009925e+01 
1  3.539184065421e+01   1.997017867129e+00   1.969321949272e+01 
1  3.274987861892e+01  -2.584633725165e+01  -7.012064048324e+01 
1 -1.021902499283e+01   1.544716193161e+01   6.099776617070e+00 
1 -2.318106376432e+01  -4.569342554607e+00   2.090378305139e+01 
1  1.635227249400e+01  -5.963432324232e+01   2.017718839427e+01 
1  2.370584693335e+01   6.818834999148e+01   4.847087542852e+00 
8
Step 7000
1 -4.116675649512e+01   4.726818182669e+01   2.830770381633e+01 
1  1.149511951748e+01   4.101733555993e+01  -6.236057139560e+00 
1  1.501151070301e+01  -2.481750189851e+01  -4.942339372135e+01 
1 -1.213400130431e+01   4.223012411135e+00   4.410374199888e+01 
1 -5.817872343410e+01  -2.922631206498e+01  -5.315086205357e+01 
1 -1.481419905759e+01   6.973365389543e+00  -7.931050331857e+00 
1  4.071118629728e+01   2.823389637402e+01  -1.694781744832e+00 
1 -1.866582185948e+01   4.232278814803e+01  -1.408491998595e+01 
8
Step 8000
1  3.970252011759e+01  -5.218928960221e+01  -2.360400360211e+01 
1  8.393783711391e+00  -4.365085742633e+01   2.907435021985e+01 
1  9.787055381304e-01   2.111017446207e+01   3.434447008020e+01 
1 -4.734239957990e+01   1.393230486794e+01  -1.107738385981e+01 
1 -2.088667860260e+01  -1.284394208509e+01   2.238890793049e+01 
1  4.542428126068e+01  -1.751217743751e+01   3.417318854104e+01 
1  5.832705809737e+01   2.097201899057e+00   1.960975862781e-01 
1 -3.122212120132e+01  -2.252396979557e+01  -4.652898191163e+01 
8
Step 9000
1 -2.067762692280e+01   2.829323964508e+01  -2.038380517639e+01 
1 -2.695657308772e+01   1.429877305136e+01   1.126763753672e+01 
1 -3.133677954792e+01  -1.931694154273e+01  -3.550837768575e+01 
1 -3.849820152733e+00   3.041961645810e+00   2.740402497042e+01 
1  6.527031499999e+01  -2.088275868034e+01  -3.081821010213e+01 
1  7.294423817321e+01   5.453503492413e+01  -1.606049858554e+01 
1 -5.247633661234e+01   2.652158056689e+01  -3.940241139924e+01 
1 -4.858445606582e+01  -3.101855348490e+01   7.356143371902e+01 
8
Step 10000
1 -1.829242706099e+00  -4.710452740342e+01   3.797340094201e+00 
1  2.757304539123e+01   1.283894599109e+01  -6.072117787897e+01 
1  3.071997700607e+01   6.451907298667e+01   3.845487760548e+01 
1  4.078823380859e+01   4.445352200710e+01  -5.512873213471e+00 
1  4.374462447723e+01   4.197316153931e+01   3.040957523249e+01 
1 -4.055585731511e+01  -4.745534793321e+01   2.044958569562e+01 
1 -1.274378734559e+02  -6.844052189054e+01   1.077681375722e+01 
1  6.340442433051e+01  -1.675153346279e+01  -6.273335350616e+00 
8
Step 11000
1 -1.646674673004e+01   3.656687502991e+01   1.974696216915e+01 
1 -1.456498607433e+01   1.077452865987e+01   5.541914332711e+01 
1 -9.448774051896e+00  -6.038561161278e+01  -2.506122345452e+01 
1  2.464287312781e+01  -1.002793297029e+02  -1.971766925886e+01 
1 -1.864777167280e+01  -2.222287794527e+01  -1.033574506592e+01 
1 -5.495920515689e+01   1.041174796867e+01  -3.012912821329e+01 
1  4.723555825591e+01   3.280971109197e+01   1.372924164798e+01 
1  2.750265869351e+01   6.131066417603e+01   1.275755170687e+00 
8
Step 12000
1  6.144471882281e+00   8.999294341366e+00  -1.759483359229e+01 
1  1.527970907936e+01   6.671770200786e-01  -3.025378661919e+01 
1  2.998228656381e+01   2.613144800261e+01  -2.622699164034e+00 
1  7.329203237348e+00   3.701085852616e+01   3.664129575456e+00 
1 -7.403149973248e+01   3.976937450881e+01   2.068214125066e+01 
1  1.075253214342e+01  -8.128479770138e+00  -1.645811917963e+01 
1  7.252474262035e+01  -1.246745498223e+01   3.528510070783e+01 
1 -4.519950909085e+01  -2.549582963169e+01  -7.469655710912e+01 
8
Step 13000
1  2.720116657695e+01  -9.557485481829e+00  -3.449355640052e+01 
1 -2.922485228760e+01  -4.283543357118e+01   5.728035630304e+01 
1 -9.563621834731e+00  -2.105277023300e+01   6.259013319012e-01 
1 -2.766936443455e+01  -3.338139823790e+01  -2.909052351050e+01 
1 -7.330612060643e+00  -3.510311814099e+01  -1.549142494880e+01 
1  9.576536603374e+01   2.437220129156e+01  -5.951270162436e+00 
1 -5.619779553130e+01  -2.436103536268e+01  -2.036057457431e+00 
1 -3.592988749080e+01  -1.887590851839e+01   5.500103154108e+01 
8
Step 14000
1 -4.456640816519e+01   1.849166502405e+00   2.227445233213e+01 
1  2.439567712825e+01   3.584233569942e+01  -5.773554326287e+01 
1  2.636481308923e+01   4.903426660454e+01  -4.290540197137e+01 
1 -4.627353069715e+00   6.658548331091e+01   4.818797040503e+01 
1  5.808515507106e+01  -6.914161137573e+00  -1.093199604277e+01 
1  3.048728125209e+01  -9.248698777487e+00   1.439723261791e+01 
1 -5.025983094675e+01  -8.547267533961e+00  -1.937530717368e+01 
1  5.690590200434e+01  -1.366588614519e+01   1.710952474952e+01 
8
Step 15000
1  3.221069914435e+01  -1.018708910959e+01  -3.154072563535e+00 
1  5.307401347122e-01  -8.898696270474e+00   3.562074684687e+01 
1 -1.102498292160e+01  -1.707989267584e+01   3.959670815808e+01 
1 -1.533346260579e+01  -3.770538352525e+01  -1.017942887964e+01 
1  3.151815003561e+01  -1.516528489361e+01  -1.062451139740e+01 
1 -1.111959910932e+02  -3.901854605677e+00   3.672828646842e+01 
1  8.682716337521e+00   1.722159466515e+01  -2.125139060908e+01 
1  5.558712362212e+01   8.006768598645e+01  -1.886475756672e+01 
8
Step 16000
1 -2.113163498326e+01   4.136346652448e+01   1.645540139125e+01 
1 -1.014195170288e+00   3.654212521912e+01  -1.570405318464e+01 
1 -1.529548931294e+01  -2.010664555173e+01  -5.558029314215e+01 
1  8.786732176595e+00  -7.833142596596e+00   4.790466861230e+01 
1  6.029950951147e+00   2.002953444366e+01  -1.995431260159e+01 
1 -2.016408245603e+01   3.469621553135e+00  -1.582943097554e+01 
1  1.150986047021e+02   1.622378649641e+01   1.277331582190e+01 
1 -6.742830220288e+01  -1.473256429185e+01   4.113729918796e+00 
8
Step 17000
1  4.576854899049e+01  -1.878054803906e+01  -2.793000488933e+01 
1  1.985276281696e+01  -4.144901575083e+01  -1.417033812560e+01 
1 -4.603467802728e-01   2.545400612391e+00   5.004967749478e+01 
1  1.256857804742e+01   3.156899602560e+01  -3.440684965653e+01 
1 -4.063398277308e+01   6.934876210102e+01   2.783606217742e+01 
1  1.045862071807e+02  -8.329580253015e+01   1.465279971941e+01 
1 -1.949062664336e+01  -5.870117377172e+01   5.490696325898e+01 
1 -5.115947506445e+01  -3.853532655205e+01   8.583909412889e+00 
8
Step 18000
1 -3.003819520828e+01   8.926742673660e+00   9.657441870006e+00 
1 -2.424348327067e+01   4.669270595278e+00   6.507263358072e+00 
1 -4.892909283205e+00  -8.896740924735e+00  -3.386477124681e+01 
1  2.776696024179e+01  -1.089000772634e+01   1.857958086501e+01 
1 -3.206694366010e+01  -4.353636373276e+01  -2.575630479812e+01 
1  1.541675895473e+01   2.243233527706e+01  -4.091862627444e+01 
1 -1.205345620902e+02   8.368221789991e+01  -3.080884214384e+01 
1  4.066826260382e+01   1.511882514267e+01   4.058388663364e+01 
8
Step 19000
1  1.079851629436e+01  -4.323146816654e+01   1.231456433742e+01 
1  3.867694110861e+01   7.676910861147e-01  -3.541322466875e+01 
1  4.535400578057e+01   3.588619107528e+01   3.969124353608e+01 
1  5.219192373449e+00   4.236355828332e+01  -7.396821212500e+00 
1 -2.499572434567e+01  -6.126579649507e+00   2.566439851442e+01 
1 -2.875658844098e+01   5.502704318143e+01   4.881450644024e+01 
1  2.324188968723e+01   7.228878869306e+00  -2.512165367809e+01 
1  4.376326132452e+01   1.318909097522e+01  -4.711744670947e+01 
8
Step 20000
1 -2.004218680344e+01   3.846642597885e+01   3.663625237209e+00 
1 -4.692587311639e+01   2.442603325955e+01   4.851522965650e+01 
1 -1.614410017327e+01  -4.804355180307e+01  -1.958911256192e+01 
1 -3.524532647374e+01  -8.763879146806e+01  -8.038248555138e+00 
1 -1.895445077514e+01  -5.587870688557e+01  -2.210429780346e+00 
1 -1.421639780306e+01   2.459134488315e+01   1.007461913439e+01 
1  8.455588748560e+01  -2.766500594792e+01  -4.813488310168e+01 
1 -4.932083863322e+01   1.769262911795e+01   6.905741824208e+01 
8
Step 21000
1  8.774088991387e+00   4.036427167277e+00   1.660501567130e+00 
1  2.931084482001e+01  -7.771078311269e+00  -3.374584755384e+01 
1  2.712318795648e+01   1.483834881388e+01  -2.656673495182e+01 
1 -6.090296906300e+00   7.241228437263e+01  -1.667097713796e+01 
1  3.628363481047e+01   8.995541724090e+01   4.100589033953e+01 
1  5.430491205111e+01  -1.707368781448e+01  -8.267210828028e+00 
1 -1.293307673053e+01  -2.737114215999e+01   2.438286642046e+01 
1 -6.190601101943e+01  -3.691293398728e+01  -2.612832626536e+01 
8
Step 22000
1  3.682537853962e+01  -1.599268422288e+01  -3.704321631719e+01 
1 -3.813310218019e+01  -3.081537268772e+01   5.606531577094e+01 
1 -3.419522271243e+01  -2.835870248170e+01   2.014460066843e+01 
1 -1.404212695192e+01  -1.262997409703e+01  -1.279515979494e+01 
1  5.299726456465e+01  -3.321555781220e+01  -3.422168236790e+01 
1  1.432199712123e+01  -5.439662545800e+01  -6.920007877811e+01 
1 -9.636245678672e+01   1.736181296604e+01   4.486599701495e+01 
1  3.718754550153e+01   6.684064456270e+01   2.975388743739e+01 
8
Step 23000
1 -6.584926678219e+01   2.127260091919e+01   5.898387282788e+01 
1  1.644886395133e+01   1.769604929313e+01  -1.767119788129e+01 
1  1.031266120537e+01   4.012236357046e+01  -3.361173229312e+01 
1  7.869479238552e+00   6.338127584651e+01   2.776992256414e+01 
1  5.173955212422e+01  -3.025986102185e+01  -1.075226782111e+01 
1 -4.563756109732e+01  -3.682140384487e+00  -1.385117287950e+00 
1 -2.488097666375e+01   2.372057144764e+01   1.528070807086e+01 
1  4.046956404082e+01  -2.109307176043e+01  -5.491565846247e+01 
8
Step 24000
1  3.464718226935e+01  -1.251458156972e+01  -2.671985537235e+01 
1 -9.737797477814e-01  -1.676117112759e+01   1.475375668691e+01 
1 -2.636922741787e+00  -1.954629396841e+01   2.919794270532e+01 
1  1.039649300400e+01  -2.189536587336e+01   2.917101440932e+00 
1 -1.760508516872e+01  -2.797588042837e+01   1.665940247613e+01 
1 -7.346358498756e+01   3.004096496438e+01   4.486271535468e+01 
1  1.098418493478e+02   3.620353329822e+01  -3.549280577762e+01 
1 -1.495627934047e+01  -3.764662690454e+01   1.977939953099e+01 
8
Step 25000
1 -4.252355390138e+01   3.643756330926e+01   3.057829423540e+01 
1 -2.502611333207e+00   4.711527059770e+01  -3.125534220053e+01 
1  7.171993961860e+00  -4.624478072624e+00  -4.335392365623e+01 
1  2.287590678108e+01  -1.173018544696e+01  -3.189431369563e+00 
1 -4.549414523835e+01   1.468967720626e+01  -1.754594296537e+01 
1  3.671404283766e+01   3.786474768455e+01  -9.356581646507e+00 
1  1.828124446106e+01  -2.024754403530e+01  -2.687903067952e+01 
1 -4.975619520213e+01  -4.194073060843e+00   2.032775560829e+01 
8
Step 26000
1  5.767975183337e+01  -5.399401490137e+01  -3.300967415048e+01 
1  2.666235851083e+00  -4.163633943556e+01   2.028937187880e+01 
1 -6.461056030046e+00  -9.282631836702e+00   5.986767987080e+01 
1  3.580137120752e+00   4.454582516692e+01  -8.542306938348e+00 
1 -4.254620502268e+01   7.727097044164e+01  -1.207712104165e+01 
1  6.360598245181e+01  -2.527988594492e+01   1.919605706028e+00 
1 -1.375389158083e+02  -3.671179628535e+01   5.871538650203e+01 
1  2.724803717242e+01   5.776765498791e+01  -2.059136688477e+01 
8
Step 27000
1 -4.010869241019e+01   2.354693172047e+01   3.705800209921e+01 
1 -2.159959216107e+01   4.109257754764e+01   1.065979973014e+01 
1 -3.625394951784e+01   5.173538298441e+00  -1.358145630980e+01 
1 -8.454787378526e+00  -1.286206775516e+01  -2.794170306345e+01 
1  6.170462355842e+01  -5.092344667159e+01   4.204699159577e+00 
1 -4.894400965197e+01  -2.760807330036e+01  -4.002097640351e+01 
1 -3.013340256463e+01   2.788386217872e+01   4.063250959157e+00 
1  4.057041259297e+01   4.779222357709e+00  -1.115298328122e+01 
8
Step 28000
1  1.505329576753e+01  -1.137217170096e+01  -3.163823596510e+00 
1  5.044747779429e+01  -3.902891996372e+01  -3.391414675185e+01 
1  3.126768758119e+01   6.685948097057e+00  -1.205115234511e+01 
1  2.110569607770e+01   6.636190862643e+01   5.590905444986e+00 
1  5.009604317593e+01  -3.155156125412e+01   6.818435881072e+01 
1 -1.027626035522e+02   7.753051275912e+00   5.005336604072e+01 
1  1.108796386807e+02   5.202346373445e+01  -8.923496910284e+00 
1  8.705725298988e+00  -6.689805405336e+01   3.429698550391e-01 
8
Step 29000
1 -4.273991354405e+00   2.053951851425e+01  -1.563064372138e+01 
1 -4.201570141771e+01   2.843006147245e+01   3.280018567618e+01 
1 -4.952215394147e+01  -2.872479045654e+01   1.244430376112e+01 
1 -1.151417277785e+01  -7.792030306813e+01   1.638760694311e+00 
1 -8.293629408543e+01   5.019888101045e+00  -3.007253279986e+01 
1  4.944954331475e+01   3.929543058577e+01  -2.008990106441e+01 
1  3.354381174644e+00  -1.944324467064e+01  -2.156562763588e+01 
1 -2.913324005810e+01   4.613212061599e+01   8.410454235600e+01 
8
Step 30000
1 -2.455438937335e+00  -7.107722806023e+00   1.080480172262e+01 
1  2.644406815190e+01  -1.398120413116e+01  -1.621861564948e+01 
1  2.585310280969e+01   2.186254165052e+01   2.729437062895e+00 
1  2.594149746835e+01   5.078521012520e+01   2.743812932593e+01 
1 -1.786852986908e+01   8.708824960965e+01  -6.687226791000e+01 
1  1.054123194042e+02   1.033438296120e+01   1.265229301781e+01 
1 -7.401353262388e+01  -7.511344848697e+01   4.515592891314e+00 
1 -9.582071983600e+00   1.716645454802e+01  -6.639420822876e+01 
8
Step 31000
1  1.825418713852e+01  -1.708349524942e+01  -2.689370118081e+01 
1 -4.113605011699e+01   1.377755510285e+01   3.602667667352e+01 
1 -4.666064222562e+01  -2.924704213701e+01   4.013963547666e+01 
1  2.133228873135e+00  -4.806883665472e+01  -1.789233601643e+01 
1  3.656359952636e+00  -5.109236493638e+01   3.992852130382e+01 
1 -4.062462715969e+01  -1.793770993989e+01  -1.645634175626e+01 
1 -1.136508564724e+01   4.372585843719e+01   1.506704601566e+01 
1  6.669889727317e+01   4.742110454279e+00   1.065925400368e+01 
8
Step 32000
1 -1.687220698377e+01   1.005869769052e+01   1.833258595806e+01 
1  2.567850055895e+01   6.143163890121e+00  -3.691278385903e+01 
1  5.305585974498e+01  -5.884964195038e+00  -1.966909390014e+01 
1  7.528044685368e-01   1.305747044061e+01  -1.685989342159e+01 
1  3.809822976825e+01  -4.543654246923e+01   8.635684777860e+01 
1 -6.778451515029e+01   1.332231187813e+01  -3.432853451491e+00 
1  7.322006370055e+01   3.729937809447e+01  -2.897876880814e+00 
1  2.917368115790e+01  -5.469661594175e+01  -4.155888625841e+01 
8
Step 33000
1  6.974649647962e+01  -1.711846666843e+01  -6.608731505737e+01 
1 -1.932335869786e+01  -1.117894023939e+01   3.939769529121e+01 
1 -2.022425666398e+01  -2.567972435164e+01   3.179029382876e+01 
1 -3.646513826545e+01   4.279148478359e+00  -1.060520350504e+01 
1 -3.786542921095e+01  -2.259349513391e+01   4.708717791091e+01 
1  2.635797557007e+00   2.394774819293e+01  -9.112126147393e+00 
1  2.475249967553e+01  -2.316779779105e+01  -1.262219383243e+01 
1 -4.448537542790e+01   1.826431709736e+01   5.802601086063e+01 
8
Step 34000
1 -5.794877400776e+01   1.615849649396e+01   5.866971426904e+01 
1 -5.174743975814e+00   4.431694033608e+01  -6.825394306878e+00 
1  3.632610144484e+01   3.190371174265e+01  -4.649601352164e+01 
1 -1.436417048118e+01   2.806920013890e+01  -8.581014685695e+00 
1 -1.650461772150e+01   1.348693209695e+01  -2.030360421115e+01 
1  8.754252534066e+01  -2.877922411669e-01  -1.926575264343e+01 
1 -4.423941952289e+01  -1.288256938128e+02   6.151599870162e-01 
1 -5.313845067905e+01   2.202783205123e+01  -2.653140796129e+01 
8
Step 35000
1  2.323638058678e+01  -2.703686749597e+01  -2.432728351568e+01 
1  9.161006229253e+00  -3.961163296420e+01   9.881599845816e+00 
1  9.210087704620e+00  -2.462975019095e+01   2.936606469934e+01 
1 -1.264263020388e+01   3.013129241349e+00   3.692743868057e+01 
1  1.312249765484e+01  -2.807591012584e+01   1.284947808709e+01 
1  1.103136757509e+01  -3.888098070375e+01   2.140769731760e+01 
1 -1.743505226752e+01   1.114148833964e+01   1.736739338021e+01 
1  7.289271432487e+01   1.338369702161e+00  -3.540739790334e+00 
8
Step 36000
1 -5.345033605150e+01   3.958791659169e+01   3.418632626900e+01 
1 -2.953342488891e+01   6.799187968174e+01   5.598315084659e+00 
1 -1.803357682083e+01  -3.213175814300e+00  -3.685434149054e+01 
1 -2.018064684241e+01  -3.678412321485e+01  -7.840226185799e+00 
1  5.118746938763e+00  -6.982775430871e+00  -7.190281781166e+01 
1 -4.257357682628e+01   4.053802405678e+00   1.272257802574e+01 
1  7.811897628618e+00   7.524118721337e+01  -3.016738693753e+00 
1  2.914087983303e+01  -3.551896443589e+01   3.202822297777e-02 
8
Step 37000
1  1.634928184971e+01  -1.049026131845e+01  -1.143157389482e+01 
1  3.645849069218e+01  -4.937781522203e+01  -7.847699399622e+00 
1  4.024074172382e+01  -1.171518346354e+01   3.990504068484e+00 
1  2.530097169931e+01   5.203060995186e+01   3.414114129105e+01 
1  4.598755506611e+01   1.718902018005e+01   1.006566642328e+01 
1 -6.002881115516e+01   2.491162171690e+01   3.645514500314e+01 
1  8.877862289774e+01   1.179361448604e+01  -2.264091224956e+01 
1 -4.694181772320e+01  -3.814040181636e+01   5.604731267336e+00 
8
Step 38000
1 -8.392200862076e+00   5.704023911509e+00  -1.358321944427e+00 
1 -3.499777995829e+01   1.345397518107e+01   2.365450206182e+01 
1 -6.031438162124e+01   2.434858884825e+01   6.052640153870e+00 
1 -2.913785239353e+01  -5.774691979743e+01  -1.472907298013e+01 
1 -5.275560607242e+01  -8.392404791862e+00  -2.887240025170e+01 
1 -5.924778535329e+01   3.913153304243e+01  -1.106066246977e+01 
1  8.722461475227e+01  -2.255170697387e+01   4.854830313864e+00 
1 -3.565146215721e+01   6.500472968868e+00   3.444989919951e+01 
8
Step 39000
1 -1.446125738108e+00  -8.764111544696e+00   8.291509550626e+00 
1  3.861805747522e+01  -1.550957983703e+01  -1.576117603628e+01 
1  4.906801209733e+01   1.862264908564e+01   5.749236323272e-01 
1  7.224987241788e+01   3.204748873263e+01   1.838348831007e+01 
1  4.301952324280e+01   3.751583323092e+01   2.359992612994e+01 
1  7.279065722473e+01  -2.688772151769e+01   6.715441166023e+01 
1  6.586557321815e+01  -2.953935527233e+01  -1.155397873528e+01 
1 -6.037892130261e+01   2.561179030943e+01  -4.031483077787e+01 
8
Step 40000
1  8.241184556249e+00   6.873399901396e+00  -3.473224714676e+01 
1 -3.452261847818e+01   1.193606952656e+01   1.780963460060e+01 
1 -4.826502634384e+01  -2.589873662004e+01  -8.508789171369e+00 
1 -2.609750781332e+01  -3.572451237610e+01  -1.848270507114e+01 
1 -6.639680236312e+01  -4.749510149268e+00  -9.024888700018e+00 
1  4.967884849540e+01  -1.691285721309e+01  -5.634996627375e+01 
1 -6.643042474617e+01   2.353898980681e+01  -3.374435227833e+01 
1  3.574996050990e+01   6.641481174066e+01   4.506137555473e+01 
8
Step 41000
1 -3.389157846910e+01   2.703230094379e+00   3.295832033613e+01 
1  4.212566149693e+01   6.573160158251e+00  -1.502200003152e+01 
1  3.136719876458e+01  -3.026985344930e+01  -3.252775245653e+01 
1  4.890529779469e+01   4.401522516525e+01   9.424483016745e-01 
1 -1.079601116160e+01   4.609420078399e+01   1.745346047384e+01 
1  2.564160536941e+01   2.359034955285e+00   1.738544481748e+01 
1 -7.382537388503e+01   3.458128267628e+01   2.844073444970e+01 
1  2.828646558441e+01  -4.380736539432e+01  -3.835980661143e+01 
8
Step 42000
1  5.112504561415e+01  -1.990883115144e+01  -5.499769358637e+01 
1 -8.008395976891e+00  -4.100358632691e+01   1.128731935280e+01 
1 -1.872527291088e+01  -3.568438331424e+01   3.822835740578e+00 
1 -6.594624595014e+01   1.660918648502e+01   2.679317213965e+00 
1 -4.673536850581e+00  -2.324680151252e+01   4.421007455078e+01 
1 -8.636727141151e+00  -2.833904414393e+01  -3.992056107779e+01 
1  5.316267107288e+01  -6.456659245563e+00   5.979878320845e+01 
1  2.183517638978e+00  -6.790760363669e+01   2.260984293852e+01 
8
Step 43000
1 -4.841007031837e+01   1.564965638657e+01   5.144605143445e+01 
1  9.966060943782e+00   4.858088152728e+01   5.698768000796e-01 
1 -1.085356036391e+01   6.269042351550e+01  -1.191085832523e+01 
1  1.903364427973e+01   4.529635774079e+01  -1.967114054773e+00 
1  2.901982362037e+01  -1.198902342531e+01  -1.564479680850e+00 
1 -2.198156582433e+01  -1.047874338717e+01  -1.110384573484e+01 
1  3.893799976138e+01   1.062165077949e+01   4.698671948373e+01 
1 -5.403893388800e+01   3.542100731091e+01  -5.699540975274e+01 
8
Step 44000
1  3.625022731943e+01  -1.103935236392e+01  -5.067662302948e+01 
1 -1.500244128874e+00  -4.814384466283e+01   3.073573690014e+00 
1 -4.452805225598e+00   2.375789689105e+00   1.723547224896e+01 
1  1.721573491447e+01  -7.635630281166e+00   3.271605249718e+01 
1  6.864347817953e+01  -8.129473112858e+01   7.209478888852e+00 
1 -1.961735620788e+01  -9.577662577268e+00  -1.307124626358e+01 
1  8.566015402107e+00  -2.446845199537e+01  -1.539614701859e+01 
1 -1.719123429258e+01   2.948905841495e+01  -4.755326011819e+00 
8
Step 45000
1 -3.927987301541e+01   1.846757368144e+01   1.586446769481e+01 
1 -2.214646202979e+01   5.284904385292e+01   1.265240843657e+01 
1 -2.220281851943e+01  -2.316952093530e+01  -3.234823563751e+01 
1  1.916036158816e+01  -3.886440641383e+01  -2.030876423181e+00 
1 -2.680037052773e+01   5.464045025318e+00  -1.026446322852e+02 
1 -4.714038409552e+01   5.330087028196e+01  -7.290154456336e+00 
1  1.016909230628e+01   3.418643389055e+01  -2.903231403171e+01 
1 -1.677618740954e+01   2.299016911570e+01   1.835104701524e+01 
8
Step 46000
1  1.560062327849e+01  -3.022215691860e+01  -6.242550436614e+00 
1  2.888834135718e+01  -5.386198602164e+01   4.528192720251e+00 
1  2.785852836515e+01  -6.076425627050e+01   9.778513561235e+00 
1  2.118810977615e+01   4.244245258145e+01   6.281866599702e+01 
1 -2.205731139446e+01   7.358471540114e+01   1.634790627231e+01 
1  2.460307850112e+01   1.360574855254e+01   8.406955724552e+01 
1  2.827859583283e+01  -8.659200552788e+01  -2.522952446743e+01 
1 -8.249378573512e-01  -6.093102223738e+01   1.748491092820e+01 
8
Step 47000
1 -2.025351720133e+01   1.662848056009e+01  -1.505975081531e+01 
1 -2.322167188666e+01   5.136085164803e+01   1.113179061098e+01 
1 -5.374735372098e+01   3.539518772212e+01  -1.681724112059e+01 
1 -4.713853275165e+01   3.178160994661e+01  -2.139765764035e+01 
1 -5.548312176762e+01   4.736008358428e+01  -4.264956284020e+01 
1  2.445968344534e+01  -4.465919026174e+01  -2.068229801701e+01 
1  3.388717550397e+01  -4.543225373079e+00  -6.369204841155e+01 
1 -2.213262479150e-01   4.410852668382e+01   3.844538462022e+01 
8
Step 48000
1 -1.971882159391e+01  -2.229639630406e+01   4.902394304255e+01 
1  3.305407743737e+01  -3.777016358956e+01  -8.103507848408e+00 
1  2.296358404280e+01   6.340832996664e+00   3.397538908976e+01 
1  3.829395169872e+01   1.813457915008e+01   1.716363003815e+01 
1  4.256779823206e+01  -4.272683020924e+01  -3.580257960905e+00 
1  5.089526377254e+01  -6.842479457835e+01   3.374564619032e+01 
1 -7.196153907172e+01   2.904640957237e+01   4.305853024766e+01 
1 -1.595199767507e+01   8.087413775771e+00  -8.864767194488e+01 
8
Step 49000
1  6.050834267997e+00   3.969948744122e+00  -3.540380324360e+01 
1 -2.786037090257e+01   1.127531177380e+01   1.162578279510e+01 
1 -5.003392163019e+01   4.450024434576e+00   2.568417609759e+01 
1  2.777465606303e+00  -4.594565826150e+01  -4.122816632543e+01 
1  4.646536334143e+01  -7.673842294778e+01  -2.114347591977e+01 
1 -4.777610409187e+01   3.327292940623e+01  -6.694421346865e+00 
1 -4.088274912975e+01   5.747572270288e+01  -1.412027477295e+00 
1  7.240458168974e+01  -7.993342162752e+00   4.619386483747e+01 
8
Step 50000
1 -1.278917331076e+01  -2.179670662677e+00   3.041086657824e+01 
1  4.369096057062e+01   2.095486444895e+01   1.577144233901e+00 
1  2.479536372599e+01  -1.128297700817e+01  -1.309966591198e+01 
1  5.988430854516e+01   2.741844703823e+01   1.728116681085e+00 
1 -1.152987215995e+01   1.210317463291e+01  -1.786596624498e+00 
1 -4.153941203973e+01   6.454957964540e+01   1.236525983604e+01 
1  8.664936820475e+00  -3.078226011111e+01   2.072558392490e+01 
1  7.584823666630e+00  -3.463931329331e+01  -1.861696792854e+01 
8
Step 51000
1 -6.612415908702e+00  -1.055612238974e+01  -1.839625158522e+01 
1 -1.541469463989e+01  -1.862056127918e+01   9.230327543156e+00 
1 -3.584118181999e+01  -4.330187522919e+01  -4.933844475276e-01 
1 -4.649244432688e+01   5.375534614716e+01  -1.884702053315e+01 
1 -8.173767829629e+01   3.037800221572e+01  -6.484282108452e-01 
1  2.624195472541e+01  -8.624606879151e+00  -5.587950068846e+00 
1  1.019867795024e+02  -6.444989076095e+01  -4.676697171737e+01 
1 -1.874087360260e+01   2.097497465602e+01   1.851053922349e+01 
8
Step 52000
1 -2.743464417883e+01   3.121263978616e+00   5.225033405695e+01 
1  1.963366494866e+01   5.248769956466e+01   3.993402736044e+00 
1  8.405846551411e+00   6.980010286834e+00  -9.642054686881e+00 
1  7.877521360449e+00   2.136794490219e+01  -7.192853062748e+00 
1 -3.768631543113e+01   1.824445729950e+01   3.244067643012e+01 
1  4.895634804732e+01  -5.288471017393e+01  -1.273155553379e+01 
1 -1.403870834725e+01   2.290751757585e+01  -1.317443608984e+01 
1 -3.602551298888e+01   2.617405690891e+01  -7.082924856394e+00 
8
Step 53000
1  4.558499990483e+01  -8.144184827974e+00  -7.009890494810e+01 
1  1.433054346827e+00  -2.158574681392e+01  -1.382466547224e+01 
1  1.176459755021e+00  -1.356632703175e+01   1.261628436053e-01 
1 -2.700555299742e+01  -2.048553613978e+01   1.785006614006e+01 
1  7.520710950589e+01  -1.095276399638e+02  -1.721173787068e+01 
1  7.329011652703e+00  -2.609215499782e+01   6.175694505287e+01 
1 -8.761070703282e+01   6.104084582483e+01   1.605362907193e+01 
1  7.059164127330e+01  -3.573102149586e+01   1.615246515278e+00 
8
Step 54000
1 -4.822605759994e+01   1.788460504635e+00   4.263576688857e+01 
1 -1.611333235985e+01   3.350374152194e+01  -9.993230347954e+00 
1  1.302591885187e+01   8.175139571805e+01   3.456146463381e+01 
1 -1.756533054874e+01  -2.076982733657e+01  -6.455174749133e+00 
1  5.554127860831e+01   4.616208424290e+00  -4.824360805125e+00 
1 -3.825166087190e+01   5.745445274959e+01  -2.876957844414e+01 
1  2.323175907706e+01  -8.142486260221e+00  -3.562023091841e+01 
1  9.248161742770e+00  -1.790424080535e+01   8.926530163954e+00 
8
Step 55000
1  1.679234335400e+01  -3.029394486956e+00  -1.778397173907e+01 
1 -1.303823278452e+01  -6.938517782822e+01  -2.024335478464e+01 
1 -2.751039248886e+00  -4.168958052888e+01   3.096304909270e+01 
1 -1.306570654120e+01   3.074884248162e+00   1.493499538057e+01 
1 -1.434699704361e+01   6.112188696768e+01  -8.759060713305e+00 
1 -3.190815672414e+01   2.297528744373e+01   3.804492907327e+01 
1  5.687065918591e+01  -7.812675059185e+01   1.398058248723e+00 
1 -4.130929719587e+01   7.334889540521e-01  -3.086864895911e+01 
8
Step 56000
1 -1.492628846612e+01  -2.046607737913e+01   4.209842791344e+01 
1  1.012433754505e+00   3.520999181028e+01  -2.496346251807e+01 