8
Step 0
1 -8.19206160314889189e+01 1.17668904556741950e+02 -2.97033021598792288e+01
1 -7.93215895090458929e+01 1.05023888631320204e+02 1.14341465972535332e+02
1 7.67622396710342514e+01 -1.29821115290509368e+02 -1.21067231261382062e+01
1 6.05098360353093767e+01 -1.76383016719461523e+01 1.43337446912598296e+02
1 4.09961205751411057e+01 -1.00249624765939416e+00 -6.52395336848756102e+01
1 4.68569894558842748e+00 7.04339154594725301e+01 -1.42510060823431303e+02
1 6.68875296348806216e+01 3.46813864137929215e+01 -1.09812060627859424e+02
1 1.96611271123377378e+01 1.37028237639027111e+02 1.00395745506992483e+02
8
Step 1000
1 9.56133780534520810e+01 -5.99727159464720501e+01 2.42480337468705862e+01
1 7.21341604568342518e+01 -9.38896807386261116e+01 -9.57357704863349852e+01
1 -1.02916849284293107e+02 9.27620383956005981e+01 6.48436150279178314e+00
1 -7.20121894536387686e+01 2.37002746144348961e+01 -7.42451969247394885e+01
1 -8.47233863128067988e+00 4.89806201621755744e+00 3.26468149504215361e+01
1 4.70391472704183897e+01 -9.66477590413345489e+00 6.94927172277134844e+01
1 -3.56454639675254086e+01 -5.13176146016853210e+01 9.19342936484284223e+01
1 -4.57957328936278927e+01 -1.06969089530072253e+02 -9.22972031524126635e+01
8
Step 2000
1 -5.93046703238965947e+01 -2.58898426163905206e+01 -2.91772694133906967e+01
1 -4.94457149418887454e+01 3.37139894244253213e+01 4.56504201396452416e+01
1 7.57092427855718597e+01 -3.92774826700708601e+01 1.46168266687978434e+01
1 8.42000853027070235e+01 -3.13435611740998965e+01 1.39746320925540832e+01
1 -1.05561095964047391e-02 -1.05284741606396057e+01 -2.48364970756826260e+01
1 -5.44165797493601318e+01 2.00630184607756945e+00 2.52976883950198950e+00
1 -2.11351616825281283e+01 6.11123461459592789e+01 -6.25874743688489161e+01
1 3.67786589345142758e+01 5.72399599566244959e+01 6.43085451102332257e+01
8
Step 3000
1 -6.64729355310598735e-01 8.42508740044931272e+01 3.89329815392262688e+01
1 3.45756566355425861e+01 7.24610303378770571e+00 3.62096285677998564e+00
1 -2.13912285521406282e+01 -4.93935742066730299e+00 -3.68391164977983010e+01
1 -1.37331290800921323e+02 5.24358041096390295e+01 1.99473008004781107e+01
1 -4.06567946410142689e+00 1.13796473664113016e+01 2.97190093925205936e+01
1 5.43697656402225675e+01 -1.64170776713121249e+01 -5.03622982114486462e+01
1 8.32514889283428232e+01 -7.66962103039652163e+01 6.84861106991924515e+01
1 -2.97748420792898827e+01 -2.85710693290234303e+01 -4.29901169165203427e+01
8
Step 4000
1 5.12300261125153966e+01 -1.11527361964185999e+02 -5.13341869206869461e+01
1 -2.11794882571547127e+01 -2.96071508212767860e+01 -4.56925149745318890e+01
1 -1.74078034257211520e+01 2.15262685893612691e+01 6.82579477922339635e+01
1 1.40647314300003529e+02 -4.35411215191915133e+01 -3.68042858019454115e+01
1 1.13315077492735501e+01 -1.05922939792629300e+01 -4.05058295045412748e+01
1 -2.83139959508130126e+01 4.93306982796066862e+01 7.23015045902414215e+01
1 -1.18471651097352137e+02 6.82420880390534847e+01 -5.03182360931055186e+01
1 2.25960023459250152e+01 1.01116338088368565e+01 1.65058405271266828e+01
8
Step 5000
1 -6.92967817234550267e+01 9.24425388275508908e+01 4.83859278714349585e+01
1 1.34756799177841220e+01 3.59582040114716008e+01 6.62733292361868536e+01
1 2.19368716223011511e+01 -1.55205872234754381e+01 -1.07871891342595148e+02
1 -8.42806137006418368e+01 2.41114706064165212e+01 2.82672186210078991e+01
1 -2.83713984341822751e+01 -2.51126369480564215e-01 4.13587748954645491e+01
1 -1.80614182865683084e+01 -7.99765364675144781e+01 -4.51620798635347498e+01
1 9.28791640476566585e+01 -3.27620256597811874e+01 2.47080999087351465e+01
1 -1.39097927775949746e+01 3.02904108277595441e+00 2.46209694593168642e+01
8
Step 6000
1 5.17823140298189770e+01 -2.75252439778111366e+01 -2.84611787129957570e+01
1 -1.44823067903559224e+01 -4.30298578396028262e+01 -6.98550607517030926e+01
1 1.40077791398222775e+01 -5.05695831238019622e+00 1.23064088390727434e+02
1 3.74739814952392507e+01 -1.99726663866346712e+01 -1.77027629840904908e+01
1 4.58973497227409908e+01 1.07066322661862632e+01 -3.58384721205566734e+01
1 6.00831828753813681e+01 8.41318616832385402e+01 -1.25124456020785964e+01
1 -3.73032260333990564e+01 6.21811098130608375e+00 -7.49826129632897675e+00
1 -1.61918701764916451e+00 4.25112002365596320e-02 -8.11127606541480901e+01
8
Step 7000
1 -1.27143736970008625e+01 -4.31504993849309741e+01 -5.47418273139097789e+00
1 3.52568055058073497e+01 5.97359248232798450e+01 5.49497621245985144e+01
1 -6.85215727751927233e+01 1.60094686058561990e+01 -9.88748197649350971e+01
1 -1.41502680154640039e+01 3.06286237173979075e+01 1.88066202096216841e+01
1 -6.80977930506318501e+01 -1.61677779858063566e+01 2.11788636131110124e+01
1 -7.94446890968241917e+01 -6.53050350424599770e+01 5.84948340697724660e+01
1 -1.39643735457672662e+01 -1.07765485507207934e+01 -5.61651141529629250e+00
1 3.33434008226126082e+01 -3.04363872002518789e+01 1.27615461607261025e+02
8
Step 8000
1 -3.30448830533935123e+01 8.54723036516784447e+01 5.84971701246323761e+01
1 -5.95357134027387929e+01 -6.30777908073703557e+01 -9.77000440825326777e+00
1 1.19354983901877077e+02 5.03479068009297492e+00 4.91316231123208169e+01
1 4.17474470049177615e+00 -4.56861957503688814e+01 -3.49135843790142388e+01
1 1.13209412330286042e+02 1.03950734147646475e+01 1.24731273727415228e+01
1 6.67514017490667584e+01 3.33878997135230691e+01 -6.96958987465664137e+01
1 4.38650545069829860e+01 5.34787189300545407e+01 2.29367303854506588e+01
1 -6.64738520983740244e+01 7.25643915316918395e+01 -1.19951100466169123e+02
8
Step 9000
1 7.22012151268138496e+01 -7.80320083455293201e+01 -6.55873763873065201e+01
1 8.16107912442359122e+01 5.37652841766859311e+01 -3.32987553226619752e+01
1 -1.71030155987935103e+02 -6.93556297176729828e+01 -1.00388936310043491e+01
1 1.24289866849006483e+01 3.91384443359639604e+01 5.11477446086804122e+01
1 -1.23848013331952302e+02 5.77840699662122592e+00 -6.04012302699513768e+01
1 -2.87858906582963563e+01 6.91002120106810391e-01 5.53032312581972363e+01
1 -2.39106223031724632e+01 -8.91243247671485648e+01 -3.06694346724222768e+01
1 7.86651803244811845e+01 -1.01580891276417745e+02 7.54098812165186700e+01
8
Step 10000
1 -7.20982129198781792e+01 -4.99925712625312979e+00 2.80841410514731820e+01
1 -6.97440264610243617e+01 -3.20457646053160801e+01 7.21721637887813188e+01
1 1.12615056085311195e+02 1.32984062127104181e+02 -1.62845494909871711e+01
1 -4.45924774050776378e+01 -1.48280240343410092e+01 -4.23699065214627240e+01
1 9.37094897104683895e+01 -6.58103024200374609e+00 7.41662423426572701e+01
1 -1.73330512772911192e+01 -3.17595974855738703e+01 -3.53245046138535841e+01
1 -5.80644581042423802e+00 7.63050590849072989e+01 3.10737110341510636e+01
1 -6.19995652135674931e+01 9.99228593317427851e+01 -3.07660606219253729e+01
8
Step 11000
1 5.93323510422170273e+01 6.13192124744513976e+01 2.64880049211881952e+00
1 2.30200787451251223e+01 1.38099467510612293e+01 -9.48242097738195753e+01
1 -2.28998893117644471e+01 -8.03741541145037672e+01 7.15438782434160281e+00
1 6.18534267791449111e+01 2.97030145284618019e-01 1.70685958011615817e+01
1 -7.22965164830296345e+01 -1.46496266068692327e+00 -6.65374103850315493e+01
1 5.19121548134349098e+01 5.29394491377368013e+01 1.85291069902104049e+01
1 1.44300620427183972e+01 -6.33461874363197595e+01 -3.20059889988087605e+01
1 4.06795769486016923e+01 -8.35731811135132858e+01 6.10210347322773927e+00
8
Step 12000
1 -4.01584982105429233e+01 -7.41046449930835820e+01 -1.57933066381681826e+01
1 4.19504837282578436e+01 -9.40695407175403808e+00 8.90258975535964936e+01
1 2.64733545554882488e+00 2.05861885855657505e+01 3.57582883022415920e+00
1 -4.36403774896896834e+01 6.64055126499287152e+00 2.99604543738546658e+00
1 6.49949227013569555e+01 2.47517560596423927e+01 4.25135950698868328e+01
1 -4.79073002312320000e+01 -5.71478223688682050e+01 -1.90611314991018759e+01
1 -1.44578540533003679e+01 2.39582184109902983e+01 2.04146299332182544e+01
1 -1.65512574342839365e+01 5.17649796879467843e+01 4.03548539017582697e-01
8
Step 13000
1 2.01984619180719598e+01 5.54150240236569189e+01 1.85836623822492726e+01
1 -1.11327183154244992e+02 2.04635874909447892e+01 -8.03166921662393491e+01
1 -1.91879957496761087e+01 3.03510784982193726e+01 -9.41409886121918615e-02
1 -2.43917652770740574e+01 -1.38792846317408003e+01 -2.19386973509590568e+01
1 -5.29730850903600370e+01 -6.13311627191571986e+01 4.33335070024418201e+00
1 5.70212638239770420e-02 5.43268086433040551e+01 4.46637661129582497e+01
1 9.53566123116874031e+00 1.56427806524348725e+01 -2.37791002536535512e-01
1 4.57607533624601770e-01 -2.19978497906898909e+01 1.52076002443347775e+01
8
Step 14000
1 -6.83137979771605419e+00 -1.67316923551132106e+01 -1.22556823728433315e+01
1 1.18758329420077104e+02 -3.25886083298374203e+01 6.98937005691591793e+01
1 4.16331557278929765e+01 -6.75562250155305861e+01 -8.19105918093205254e+00
1 8.94042218054642746e+01 2.02708562834339148e+01 3.85805007811321801e+01
1 2.89106412492775178e+01 9.34383697868968426e+01 -4.52536102999364616e+01
1 5.76157266490677671e+01 -3.77429041894100905e+01 -8.48941135629834349e+01
1 -6.74451392899425972e+00 -4.14532818097441336e+01 -3.59700699805385682e+01
1 -1.25358272295278805e+01 1.93958108298072780e+01 -6.05319580412819533e+01
8
Step 15000
1 6.72811033125492730e-01 -2.08332546251664823e+01 -3.62993013906458772e-01
1 -6.59716645372684383e+01 2.92293767641603743e+01 -3.65994751285547224e+01
1 -5.36341770350439688e+01 8.24584302578746389e+01 2.10440862624597358e+01
1 -8.28798378293922866e+01 -1.83853170207314243e+01 -3.59598027056714429e+01
1 -1.16951841349160777e+01 -1.18532982284501216e+02 4.97384123559648614e+01
1 -5.18514816381368746e+01 4.12048230884249111e+00 4.89522642284603435e+01
1 1.70498394136580878e+01 3.37891561656842470e+01 6.77208595645751359e+01
1 7.36549256391695764e+01 -4.58162676082312004e+01 1.03192616705964682e+02
8
Step 16000
1 -2.09824599278861612e+00 5.56608812433662905e+01 -4.66771599647382995e+00
1 3.43533272402352878e+01 -2.65822599998261033e+01 2.40080216466896985e+01
1 3.72277300968258373e+01 -6.24913798030396848e+01 -2.59604989254401062e+01
1 8.62899161845882361e+01 2.83891510994711176e+01 3.62829160043486212e+01
1 -1.02892907666355065e+01 1.10025320304941062e+02 -3.42996084361368325e+00
1 6.38832991471500620e+01 1.07734162075754902e+01 6.43171166976176933e-01
1 -1.69214052968568325e+01 7.17599123570954589e+00 -4.17100612532120394e+01
1 -9.09951304264673126e+01 8.05949926993904029e+01 -7.96061767434178620e+01
8
Step 17000
1 1.52980959125924993e+01 -4.65172659768891137e+01 4.01290902234714437e+01
1 -1.79095116326286075e+01 9.48084797850566119e+00 -2.67687649038237119e+01
1 8.37642587979024356e+00 2.09961867627613614e+01 4.95313080574269282e+00
1 -9.05890171876350081e+01 -4.20219143613121275e+01 -3.29048430304516373e+01
1 2.65275881572734065e+01 -5.87684595691484475e+01 -5.11155934252365824e+01
1 -6.82189676423079732e+01 -4.20061691600918508e+00 -5.14335482134871640e+01
1 -9.00921056652811814e+00 -3.08383960165700266e+01 4.36288770440289824e+01
1 7.40042050811445051e+01 -1.04036816722234164e+02 5.09484558389822766e+01
8
Step 18000
1 -2.25567856185027118e+01 2.44438855428730584e+00 -3.93452232034863982e+01
1 1.53383825583094335e+01 1.98180023819328888e+01 2.72601004715372710e+01
1 -4.05223037395839540e+01 -1.11569691326335430e+00 2.12980133102350813e+01
1 7.77403225952135983e+01 4.86296308166125613e+01 1.63797171271598216e+01
1 -1.19705563120132172e+01 -5.01446477322215589e+00 4.88698730739738991e+01
1 6.45928142322616026e+01 -1.63302092562598027e+01 1.06034556962900169e+02
1 2.84554926710631939e+01 3.01358539913146224e+01 -5.65325098083576165e+01
1 -4.81263081416965903e+01 1.00937823461635062e+02 -2.95305964343893592e+01
8
Step 19000
1 6.84421596044251146e+00 3.15364472592046070e+01 -2.71716325133799774e+00
1 -2.46413065272007508e+01 -5.02341346891498048e+01 -8.53059445147028406e+00
1 6.01039463001347869e+01 4.73183056395054447e+00 -4.36020543902990170e+01
1 -4.37356093074260244e+01 -4.28168745842323375e+01 1.93299547285212281e+00
1 1.19480070199222812e+01 7.81309964004490354e+00 -3.69439145140851721e+01
1 -4.45926815100064715e+01 3.35379538906085557e+01 -1.48693463726552267e+02
1 -2.99367014064763062e+01 -1.42580773719870457e+01 7.08618447019199067e+01
1 2.50964694418510774e+01 -7.52515738100492371e+01 1.59463126374702515e+01
8
Step 20000
1 1.42801550823063153e+01 -3.82181812971545511e+01 4.22803960174488225e+01
1 3.38141879311451490e+01 6.18004574090884020e+01 -3.44132286630440518e+01
1 -4.95111430390766074e+01 -3.10220138834151484e+01 6.86270809021500980e+01
1 2.94884727564281377e+01 5.99667703831481873e+01 -1.41101935696251264e+01
1 -6.62992570287513061e+00 2.06022734011436839e+01 -6.55650185304540134e+00
1 4.39881692049834783e+00 -1.75996510912860664e+01 1.29947718858772390e+02
1 1.71185919404984190e+01 -5.62154087739217445e+00 -7.97847709328479908e+01
1 -5.33778502528622933e+00 4.35615212116695574e+01 -8.49789453314986076e+00
8
Step 21000
1 -1.99220749293916093e+01 1.85526581372902122e+01 -4.80393210199120375e+01
1 -3.15471846528459388e+01 -4.02322348068269804e+01 6.73915658483029603e+01
1 1.26085326372254301e+01 6.05874363495863619e+01 -8.67785511119963360e+01
1 -2.07108672282381328e+01 -8.34583267586006627e+01 2.07923639910485321e+01
1 -7.98872822307638764e+00 -6.44967087305981295e+01 8.35546821119235972e+01
1 1.79335901804735691e+01 -2.62935145106612325e+01 -5.61851541309757181e+01
1 1.82417081165700878e+01 2.16679455827437195e+01 6.92960356789039622e+01
1 -4.58498353439011996e+00 6.90513481353176140e+00 3.92735323464498132e-02
8
Step 22000
1 2.11917297905501734e+01 2.02788601992838835e+00 2.44466756640824912e+01
1 2.22359655494946651e+01 9.94733446066909899e+00 -8.82786913626713243e+01
1 3.67724361396600656e+01 -8.14629682108978557e+01 8.74130524948449477e+01
1 7.56104198893595481e+00 9.32598952970551096e+01 -1.31384495503872412e+01
1 2.61193558641128547e+01 7.03407427917003929e+01 -1.26408873960239490e+02
1 -7.38564731522292295e+00 4.82815649048683682e+01 -2.76339740220868579e+00
1 -4.84530137831523149e+01 -9.90286402224784545e+00 -2.12318465536129075e+01
1 2.37975214246884592e+00 -6.74776481103757533e+01 1.31635708337258546e+01
8
Step 23000
1 -3.58789652963637309e+01 -1.71043498863710965e+01 -4.35766443965754480e+00
1 -7.55221229437111052e+00 1.68110315525997009e+01 9.80215005717080459e+01
1 -8.25808900764620404e+01 6.85302312431918068e+01 -5.98969512317236834e+01
1 1.50201226703794255e+01 -6.48723254993489036e+01 -2.11670365912664984e+01
1 -2.80230595503572069e+01 -3.01763156449946699e+01 6.39198074680585080e+01
1 -4.88411460432490419e+00 -6.22129389688117413e+01 1.92030352593808828e+01
1 3.31953687818577947e+01 -3.56249268036986066e+01 -2.64648066908294766e+01
1 -1.13807659597225612e+01 7.73803254338349120e+01 -1.00160828290038957e+01
8
Step 24000
1 6.17503355173766693e+01 3.91536258507470833e+01 -1.57292339159736780e+01
1 -3.22771589244674999e+01 -3.08045649275144591e+01 -6.28126353913852356e+01
1 8.84861369293853528e+01 -2.04792317917686866e+01 2.37733550694455538e+01
1 -2.82451753765327922e+01 8.34202936450220700e-01 5.99473372810653800e+01
1 1.72839776501726412e+01 -2.11994983394352126e+01 3.89600681702079541e+01
1 2.51163231781588081e+01 8.19154242574984153e+01 -1.90269947468158946e+01
1 2.75443879801278380e+00 9.77040459260439462e+01 4.58621099602864248e+01
1 2.84565989980589826e+01 -5.03787648335730864e+01 -1.07460381160929686e+01
8
Step 25000
1 -9.88446634116385496e+01 -5.71806009735162490e+01 3.82100122877749584e+01
1 7.55002222490996218e+01 1.45701475842318491e+01 -2.29462168919586667e+01
1 -5.59436857377059766e+01 -4.80659092482730870e+01 8.17429447066518478e+00
1 2.13375570727437172e+01 4.26648087851705284e+01 -6.93851992362202736e+01
1 -8.55241530522946292e+00 5.68527767439794403e+01 -1.08657263093404680e+02
1 -3.19163149714568277e+01 -8.66343210384162745e+01 1.92752809053108756e+01
1 -3.79001662789953144e+01 -1.43498244369378142e+02 -3.64357555503603763e+01
1 -5.01050164333452912e+01 1.55226360726765993e+01 4.66717468592941671e+01
8
Step 26000
1 1.47578490291351244e+02 6.18153758888198368e+01 -6.47958586508496239e+01
1 -7.92980609034468387e+01 1.50120524218048210e+01 7.59144601396033067e+01
1 1.04020264734866092e+01 1.08156564574956093e+02 -2.60109918070879864e+01
1 -1.18031565955857438e+01 -5.97508051452860514e+01 7.62710189592066001e+01
1 4.39426754737722192e+00 -6.78675690061187709e+01 1.24345272547436622e+02
1 9.75221940041077495e+00 6.83755366607583710e+01 -2.29301227459309835e+01
1 4.82693389093686704e+01 1.35805649614882725e+02 6.06316303826761338e+00
1 6.81269020581503071e+01 1.17726510007990068e+01 -9.68402152502489884e+01
8
Step 27000
1 -1.51037979796549592e+02 -3.87269679738761567e+01 6.99881022300793916e+01
1 4.30121266880433524e+01 -2.95644933207507989e+01 -6.67170844370991034e+01
1 3.30078286509794836e+01 -1.32475528589384254e+02 3.01566803803971126e+01
1 4.63353275987524871e+00 4.66827641452971918e+01 -7.01535431680565011e+01
1 -5.87683447486649513e+00 5.73393499627090080e+01 -1.08563150327209499e+02
1 3.14589067257833968e+01 -2.58561761417199421e+01 3.74574883343656282e+01
1 -2.55525215817371567e+01 -8.52803733872020899e+01 2.03191901565883839e+01
1 -6.19135723668029243e+01 -2.20188367977010344e+01 1.25211165444870005e+02
8
Step 28000
1 8.31093088752266738e+01 7.10655251162021351e+00 -3.83249429404168183e+01
1 -1.53967011070840201e+01 2.70432142818944783e+01 3.60569875390365979e+01
1 -5.66279175319326527e+01 9.90664519283279503e+01 -2.37704851366041048e+01
1 9.48448899640600906e+00 -1.53364823921583753e+01 4.20015973946161481e+01
1 1.81965143400478588e+01 7.15373489198642631e-01 5.80906277154732251e+01
1 -5.98317128539493126e+01 1.04215401690705107e+01 -3.40544674532771481e+01
1 -2.06311670981549078e+00 4.15929473882849479e+01 -3.58247604103400832e+01
1 2.56704110848430709e+01 2.03118155407615788e+01 -8.78661799551019698e+01
8
Step 29000
1 -4.02690220710485818e+01 7.28489920941825275e+00 1.14018805580937350e+01
1 -3.69240954102828756e+00 -1.15381545486999020e+01 -1.54863708214890838e+00
1 5.18387480995018279e+01 -3.29619519187077330e+01 2.05315244581861336e+01
1 -2.56206216540692644e+01 -1.63702159320692537e+01 -1.27781008052483145e+01
1 -4.19830708151809517e+01 -1.04955838633029884e+02 2.35997385017466108e+01
1 1.02173682554183301e+02 -3.17337762642747805e+01 3.46227271317402980e+01
1 3.21557486415489251e+01 -8.53394436720417993e+00 4.38873231765250154e+01
1 -1.96177383144771511e+01 -3.26319971085935947e+01 5.07756018955721800e+01
8
Step 30000
1 2.34131837846731266e+01 -8.11564217826431644e+00 1.38760107521805054e+00
1 2.79006683924656400e+01 -1.09058244000484716e+01 -3.11891725793100143e+01
1 -3.47284608367429044e+01 -4.56945247512885615e+01 -2.71019534706917469e+01
1 3.71832079458503131e+01 3.30768889981006566e+01 1.74414387455488962e+00
1 6.42661769558353484e+01 1.89450568060095065e+02 -8.37011784636398062e+01
1 -1.19907800416885166e+02 5.79031387611232731e+01 -2.89074396122572708e+01
1 -6.81187544040489286e+01 -1.34808073640778616e+01 -5.40982520992943492e+01
1 2.31414624265217377e+01 4.74244986093065535e+01 -8.21079425138673713e+00
8
Step 31000
1 -1.51155452089790643e+01 -1.07219117148503940e+00 -1.23479935304954971e+01
1 -5.48707866716004915e+01 3.19999526414469067e+01 4.96371669760974044e+01
1 -6.10099391033284988e+00 1.30730487755502736e+02 2.69483954841785582e+01
1 -4.07200551838341056e+01 -2.18095256843300582e+01 -2.28815962134992787e+01
1 -5.01242469238958464e+01 -1.65775898717211362e+02 6.59956077954923614e+01
1 8.97493991429471976e+01 -7.39255289261803767e+01 1.40700756109828120e+01
1 8.36553035586403837e+01 1.97876156111922228e+01 5.79202817224149413e+01
1 -4.37926423520964221e+01 -6.46661477382337324e+01 -3.43967914060751667e+01
8
Step 32000
1 1.49298874641635688e+01 2.31210158862461164e+01 2.07480421839850635e+01
1 6.68807798674008467e+01 -4.00520307916889564e+01 -3.54733430294050720e+01
1 6.00585776235446289e+01 -1.66734436795453803e+02 -1.67089703791660433e+01
1 2.16246087600685755e+01 -2.90288926197068520e+01 7.67507382189440506e+01
1 1.73102255354644718e+01 9.60035851326087766e+01 -2.20792606537528684e+01
1 -2.28046855269976980e+01 7.14199964734736881e+01 7.43810274218957979e+00
1 -5.09902396912259874e+01 -1.62118344185909500e+01 -5.48379705737232257e+01
1 8.01437459553369962e+01 8.70243631543854832e+01 5.58157521917842061e+01
8
Step 33000
1 -2.89569767853692497e+01 -4.40723418486409031e+01 -1.57789634038748350e+01
1 -6.50276669251375523e+01 2.12122008088572436e+01 -1.27175148430636753e+01
1 -9.39123486140743182e+01 1.21250365734336640e+02 7.89691798723332905e+00
1 1.15968533162684597e+01 8.42231175419027522e+01 -1.07337530946008187e+02
1 3.24418235192610069e+01 -5.60171987674972840e+01 -1.20563363709118736e+01
1 -4.92674691864873111e+01 -5.26896176815919901e+01 -3.28183644524585034e+01
1 1.37275911114691525e+01 1.36909194670343357e+01 6.05224246806969646e+01
1 -9.58975267282106643e+01 -9.88757906910733055e+01 -2.54711582531142469e+01
8
Step 34000
1 5.21257209318952732e+01 3.43906141124106242e+01 -5.64003287796686514e+00
1 4.55582941866819553e+01 1.49771429010614732e+01 5.73357030171346551e+01
1 7.32689341984875000e+01 -2.69770487880571146e+01 -4.05698649126845012e+00
1 -3.42494777329265645e+01 -9.40248265590822001e+01 7.30328041815447335e+01
1 -9.81426531591324647e+01 3.04914368535613107e+01 5.93032497593545127e+00
1 1.28252109868229297e+02 2.78512168952182186e+01 7.27516666839428154e+01
1 4.64833708168933823e-01 -6.73861589114593684e+00 -6.08171600964707508e+01
1 7.36425995768777426e+01 1.03277857020579077e+02 -4.84875288942133196e+01
8
Step 35000
1 -7.31766218488119193e+01 -5.35869572037342090e-01 4.23593725363221196e+01
1 -3.06579332755621898e+01 -3.27494726848667383e+01 -5.80210843614952410e+01
1 -5.88754104042975399e+01 -2.99816710704168301e+01 3.20786387687981067e-01
1 3.04020189287069869e+01 4.96900637339390840e+01 -2.24626244297452660e+00
1 1.38853891636031307e+02 -2.56078914502001460e+01 4.31228566982301160e+01
1 -1.58464406420872393e+02 -2.05390114722744954e+01 -9.17887363305698045e+01
1 5.58449825658059495e+00 -3.25149470978792410e+00 3.73672971121895756e+01
1 -3.40961163894744317e+01 -1.00907755505817477e+02 1.11208751021746991e+02
8
Step 36000
1 7.19733142024200703e+01 -4.91017576674704728e+01 -7.33764338816409918e+01
1 3.06635792606834876e+01 3.51616010891862416e+01 5.69512477121850651e+01
1 4.63585765237186962e+01 7.66169536400311841e+01 8.65065900784461483e+00
1 -1.68310627447190768e+01 6.09669154327677099e+00 -4.91388531521772407e+01
1 -1.07938773711024041e+02 3.79395474549403957e+01 -9.01606118099375919e+01
1 8.51809189752247278e+01 1.86253289308262104e+01 4.37321629364282103e+01
1 -1.65044400730427547e+01 8.50798379630888135e+00 7.44946559583978907e+00
1 -3.36821000026538808e+00 8.74524251136033541e+01 -1.33417468836464792e+02
8
Step 37000
1 -3.97496350922908874e+01 8.41919592343785013e+01 6.45947242925157497e+01
1 -3.60845307807505691e+01 -1.79064520220211634e+01 -5.47845244993267144e+01
1 -1.59373598719814442e+01 -8.04852272870045198e+01 -3.28311226122237230e+01
1 -9.51275017554725100e-01 -4.76531654867085521e+01 8.42720425790455181e+01
1 5.20628599594112558e+01 -4.95507593842839711e+01 9.07188213103393934e+01
1 9.65823107927029945e+00 -2.29474958492208145e+01 1.20703468030157612e+01
1 7.06054133707562581e+00 -1.08870802651806695e+01 -7.32527500239363007e+01
1 2.57423121301259634e+01 -6.18879558355504571e+01 1.15896381893413633e+02
8
Step 38000
1 2.22445221067132826e+00 -7.64396402291273489e+01 -7.77859298383904285e+00
1 5.85549797873727371e+01 1.80332863693573331e+00 3.89595725204963301e+01
1 -4.39694681955650069e+01 4.35214887673964235e+00 6.41927285903301339e+01
1 1.20603836759777501e+01 6.47851252481441833e+01 -1.08454991389014069e+02
1 -1.03672037547413343e+00 5.12592106610517249e+01 -8.64494318170236511e+01
1 -7.20452471511455457e+01 4.55972402653825455e+01 -3.46034406004794732e+01
1 3.80150248642144390e+01 1.13996880632802888e+01 1.39232527527735215e+02
1 -3.09734059601174749e+01 2.88534682958394377e+01 -7.78649294710411368e+01
8
Step 39000
1 5.14788021874955426e+00 3.30496624929866059e+01 -6.12579255032991199e+01
1 -9.29670979530060748e+01 5.36790781085013435e+00 -9.21456798580715031e+00
1 7.36327347703765582e+01 7.62926146731128654e+01 -6.28436852086093722e+01
1 -8.97246120723620422e+00 -6.93345250177841876e+01 1.50205405922794085e+02
1 -5.09612839900769146e+01 -1.79479956641957550e+01 6.72942500940203416e+01
1 8.24696758399524725e+01 -5.23089311095587064e+01 2.34664303761427107e+01
1 -9.09279628543114029e+01 -9.54572962009928894e+00 -1.47558825362532588e+02
1 3.51267171816710473e+01 7.53818270756448872e+00 4.57486508073095592e+01
8
Step 40000
1 1.81924602359328524e+01 4.08211580820268161e+00 6.73612556216799021e+01
1 8.33366391011755070e+01 2.57780629710975617e+00 -1.46197470997577295e+01
1 -4.32607686726602623e+01 -7.25371560013938108e+01 2.91594126581598694e+01
1 -2.22932152299747557e+01 2.86920923646802315e+01 -1.50660691168667114e+02
1 1.05208926666099046e+02 -5.05712287393439865e+01 -3.84527548635161409e+01
1 -7.47630142369994815e+01 4.54894665529371878e+01 -1.18760599596063487e+00
1 1.04021738602290213e+02 1.67945857886204237e+01 8.64590872081340791e+01
1 -5.66234871727700337e+01 -7.35135191498910245e+01 -4.23569354676560010e+01
8
Step 41000
1 -4.78946056720331512e+01 3.57539227122788628e+00 -6.54545751767632140e+01
1 -4.85361084648929761e+01 -1.59631640443572458e+01 -2.71555520015006735e+00
1 -2.36079597609465708e+00 4.05198195573181934e+01 -2.32512537055345447e+01
1 4.31238690949958468e+01 1.73095172282391516e+01 8.61213726269855755e+01
1 -1.34004068925935400e+02 1.30518841866141457e+02 -4.15906677144648296e-01
1 5.39006502497533120e+01 -2.32160588311362730e+01 -2.45250598863190987e+01
1 -7.85987550311887588e+01 -3.15306914746638185e+01 -1.75571091091821216e+01
1 5.73348536088378182e+01 1.06548083312077765e+02 1.00086886303005791e+01
8
Step 42000
1 7.35436863345057787e+01 -2.72255352192444384e+01 6.85535439275806056e+01
1 9.12592996861329198e+00 2.17482887877320898e+01 4.12138225614777340e+01
1 6.15585793492160747e+01 2.36250711430914642e+01 2.10979708623291051e+00
1 -4.07148077515532520e+01 -3.01104604639812692e+01 -2.95165505917144060e+01
1 1.03934962304969361e+02 -1.45849655036576280e+02 1.69433984454947257e+01
1 -7.91307285795219961e+00 -2.43979121211657848e+01 4.93740001375641242e+01
1 3.92163198611876709e+01 4.87163621152539505e+01 -2.51310504963651269e+01
1 -4.57286149720445394e+01 -9.20690248835715437e+01 2.48466247665904767e+01
8
Step 43000
1 -7.52682133945548912e+01 6.80588657076617096e+01 -7.45302654806994553e+01
1 7.31118702197297909e-01 -2.68608940303501171e+01 -6.63330003597728677e+01
1 -1.29501123792561884e+02 -1.30170619334257424e+02 4.72002229563005784e+01
1 2.01883625564135976e+01 2.41947440073258271e+01 7.28550027673577549e+00
1 -5.05822608196831851e+01 9.45920454557719239e+01 1.09665502456282589e+01
1 -4.54696565965127917e+01 9.02078217143035204e+01 -4.74192035910907990e+01
1 1.15582508686740120e+01 -5.44508809734637325e+01 2.80971133507486819e+01
1 3.27404365404618858e+01 6.64653083832676543e+01 -4.43588750591989438e+01
8
Step 44000
1 4.69434171823405535e+01 -1.14591573265910398e+02 7.34536519785122550e+01
1 9.56785366003876980e+00 3.97821127671913786e+01 7.43123992331675396e+01
1 1.13103803936557043e+02 1.72550308649616028e+02 -8.88271626634719098e+01
1 2.96462944856798103e+01 -1.48623882197703807e+01 -3.00014540515596506e-01
1 1.98650212031633266e+01 -2.51977304706770688e+01 -6.62229469826192059e+01
1 6.77112495778208086e+01 -1.07105008597486815e+02 -9.86066487749637055e+00
1 -6.02037239078916571e+01 6.33639685409489886e+01 -1.63908565057420006e+01
1 -1.33867595597452347e+01 -3.95703251338666462e+01 5.66142736447852712e+01
8
Step 45000
1 1.36107939541860059e+01 1.53636978965383406e+02 -6.18527101717729622e+01
1 -3.09028013411703775e+01 -4.68416736881694931e+01 -6.43657387903163709e+01
1 -4.37109313293287940e+01 -1.15158329541811611e+02 9.36582704195777040e+01
1 -4.51881559281056226e+01 1.25239525974814132e+01 -8.54017921567734284e+00
1 1.65716956913212449e-01 -3.12664735231454323e+01 1.14234171222547474e+02
1 -6.40727942140888160e+01 7.68963828114735861e+01 6.24546372431985830e+01
1 1.05756040263474745e+02 -6.18398497586206233e+01 1.31872307571135892e+01
1 -6.75875077326653795e+00 1.15187470675679524e+01 -7.14595253804721580e+01
8
Step 46000
1 -6.60609769468780854e+01 -1.43386201957184056e+02 4.18305939399089652e+01
1 7.02978020438119557e+01 5.47098972040676301e+01 4.32468775844610533e+01
1 -2.86209121614758963e+01 5.12898884556118944e+01 -1.00422689428950633e+02
1 2.11464875146120121e+01 -2.03150074078241580e+01 1.10896306369617719e+01
1 -1.36697952973467292e+01 6.93967973082366996e+01 -1.30648351844607959e+02
1 6.57207114387023097e+01 -4.27384513916999964e+01 -8.48937081392901263e+01
1 -1.10970047641693100e+02 2.23879707619436132e+01 -1.63626596658526005e+01
1 3.23007646223545990e+01 8.61677934071074780e+00 8.09453431156988472e+01
8
Step 47000
1 8.03115293411659792e+01 8.26531655497655464e+01 -3.35737668043534612e+01
1 -8.47158239728013314e+01 -1.87729659636483568e+01 3.24465998872865669e+01
1 8.34819446423129250e+01 2.21939750009377761e+01 7.55249292219848343e+01
1 -2.25886385829456016e+00 3.04376172378393299e+01 -6.46600572978695087e+00
1 2.36863956628069801e+01 -7.45709246773738386e+01 8.88445885150094483e+01
1 -7.32362404282715431e+01 1.06725150523320931e+01 7.93901127374894457e+01
1 9.74095480261892135e+01 2.98884501618082510e+01 2.35936780173288829e+00
1 -6.21971729016038424e+01 -1.90263981112912184e+01 -8.85487286867048340e+01
8
Step 48000
1 -6.02634510708571796e+01 -1.35495636595245248e+01 3.64437515039788735e+01
1 5.54441117142254569e+01 -1.50208110843665423e+01 -7.47921853815009854e+01
1 -8.54170303303068437e+01 -5.57239896934185950e+01 -2.87299686719478053e+01
1 7.51717239073067978e-01 -4.07907112098623230e+01 -5.51415232838380476e+00
1 -3.75057229000071501e+01 3.18691599009314892e+01 1.63649809914050604e+00