8
Step 0
1 -3.472934504792e+01   2.985585161505e+01   4.552711624413e+01 
1 -3.872914153085e+01   5.183552870333e+01   2.841252880511e+01 
1  6.597310272429e+01   3.473535297890e+01   3.212630301548e+01 
1 -6.209027598665e+01   1.844554586020e+01  -3.110501871492e+01 
1 -4.675834713363e+01   3.854789838996e+01   6.659078998682e+01 
1 -1.328434623653e+01  -5.953552595268e+01  -6.135440417252e+01 
1  6.150941286889e+01  -3.705897999201e+01   2.680974576907e+01 
1  1.897523860070e+01  -3.176705575740e+00  -2.894581516525e+01 
8
Step 1000
1 -4.068719434313e+01   5.079152551775e+00  -8.950717068654e+00 
1 -3.159136021613e+01   2.999215259510e+01   5.257205950167e+01 
1  3.193449116977e+01  -7.174346080301e+00  -7.252044318303e+00 
1 -6.194207600597e+00  -6.678710895586e+00  -2.033806239942e+00 
1  2.490771805835e+00   9.178778451492e-01  -3.164253909757e+00 
1  1.213914002318e+00  -1.141043168469e+01  -2.613119056833e+01 
1  2.795609860569e+00   1.526776840152e+01   2.531570502219e+00 
1 -1.774026452220e+00   5.918923541133e+01   2.001934921657e+01 
8
Step 2000
1 -1.979046200767e+01  -4.064897782807e+01   3.563857096037e+01 
1 -4.740688117662e+00   2.930825024775e+01   4.535650341939e+00 
1  3.799898659822e+01   2.493186474198e+01  -3.751224921083e+01 
1 -2.892105744117e+01   2.326775719863e+01  -1.464146059013e+00 
1 -5.572508381982e+01  -1.618798609065e+00   1.155947901793e+01 
1 -3.592442045116e+01  -5.290808622469e+01   1.126260465414e+01 
1 -2.881389835474e+00  -9.332801689315e+00   4.604595938304e+01 
1  7.572058565127e+00   1.351987217714e+01  -1.064764377519e+01 
8
Step 3000
1  1.712174859489e+01  -3.146259068490e+00   8.642593797561e+00 
1 -1.521859134260e+01   7.124422455955e+00   2.068976768003e+01 
1 -2.350820276744e+01  -4.320280065252e+01  -3.525452883514e+01 
1 -4.253106202676e+01  -3.649345490001e+01   3.644168839252e+01 
1  1.833978980985e+01  -6.479067180439e+01  -7.394593000310e+00 
1  4.752658850618e+01   5.315715278228e+01  -1.015505495605e+01 
1  1.300412977009e+01   6.322772228930e+01  -4.109342545884e+01 
1  1.666908658415e+01   2.137146769014e+01   1.809803345267e+01 
8
Step 4000
1 -4.935710144309e+01   5.987625382869e+01   4.361434752360e+01 
1 -2.589751837964e+01   4.422529894241e+01  -3.729296178147e+01 
1 -7.554308003858e+00   1.569459216627e+01  -2.109137232081e+01 
1  2.376620913013e+00   2.467939121347e+01   6.429279264046e+01 
1 -2.919754432078e+00   1.905759971554e+01  -2.935538089004e+00 
1  1.891481450687e+00  -1.826849878531e+00  -3.016936461291e+01 
1 -1.282784099542e+01  -1.070549162559e+01  -1.506057673774e+01 
1 -6.767341871301e-01  -6.693021108116e+01  -2.232792335399e+00 
8
Step 5000
1  4.221920499210e-01  -2.605842554179e+01  -5.687318276716e+00 
1 -3.783994228151e+01  -3.515651435131e+01   4.030171310752e+01 
1 -1.421138703374e+00  -1.743926106031e+01   2.185604357603e+01 
1  2.765891385949e+01  -2.732302134127e+01  -3.705845655486e+01 
1  2.493645483821e+01   2.208570742176e+01   6.754802604166e+00 
1  1.613262129713e+01   8.798045428809e+00  -4.790102004466e+00 
1 -2.563068675656e+00  -2.413808219973e+01  -4.466695441705e+00 
1  5.914344026157e+00  -6.660822306552e+00   4.384968431771e+01 
8
Step 6000
1 -2.712029919905e+01  -1.824311644747e+00   2.698634943325e+00 
1  3.529880674430e+00   4.162422957872e+01  -1.531435241032e+01 
1  4.009399811372e+01   4.238850200561e-01  -3.065141866376e+01 
1  4.468529036620e+01   7.448586479226e+00   3.564267355336e+00 
1 -2.129558166664e+01   2.865833208162e+01  -3.098363399364e+01 
1 -5.307902175922e+01  -1.012159824690e+01  -2.558241123595e+01 
1 -1.854359295464e+01  -3.605411984745e+01   3.856899288645e+00 
1 -1.467382219014e+00   1.493020708687e+01   9.426565817386e+00 
8
Step 7000
1  1.673736027199e+01  -3.510566432903e+01   2.441515592550e+00 
1  1.576033221121e+01  -1.564848307662e+01   3.094908107459e+01 
1  2.862256305575e+01   2.397161610613e+00   2.074168720558e+01 
1 -1.560561625974e+01  -1.269748716515e+01  -1.516713904157e+01 
1 -7.091319012001e+01  -1.745934210371e+01  -3.900570751382e+00 
1 -3.119827770324e+01  -3.545541070801e+01   4.684502242595e+01 
1  7.485398741647e+01  -1.852380685399e+01   3.007726464509e+01 
1  2.055731628393e+01   6.463006153861e+01  -3.744440880289e+01 
8
Step 8000
1 -2.815273090035e+01   5.248829266679e+01   7.252023340645e+00 
1 -5.372409137244e+00   1.345252491961e+01   1.151750650415e+01 
1 -2.505950262446e+01  -3.528243088061e+01  -4.505006145883e+01 
1 -3.988682760344e+01  -1.036882202662e+01   1.986522112316e+01 
1 -8.362655329249e+00  -4.381622140958e+01  -3.045736620497e+01 
1  5.792174375639e+01   3.881912169880e+01  -8.005180012677e+00 
1  5.663705751313e+01   5.266873973387e+01  -3.459654960980e+01 
1 -5.831136495206e+01  -1.140843654077e+01   5.054066251804e-01 
8
Step 9000
1  3.291138241340e+01  -6.620777643650e+01  -3.606578236215e+01 
1  4.960485932152e+00  -3.553929040784e+01  -9.109929877539e+00 
1  2.258998162660e+00   4.696270912709e+01   3.026172766395e+01 
1 -5.173734911785e+00   4.110786902802e+01   2.145078418378e+01 
1  2.883070242010e+01   1.266816117351e+01   5.438299280329e+00 
1  4.245364920749e+01  -2.212680901398e+01   3.910756537493e+01 
1 -3.921597799049e+01  -2.858974473395e+01  -3.639444069729e+00 
1 -3.408709806350e+01  -6.180355036344e+01  -1.655438203772e+01 
8
Step 10000
1 -2.905087972052e+01   1.221584982469e+01   8.582979695998e+00 
1 -1.429009675782e+01   3.136140121196e+01  -5.600836431308e+00 
1 -1.890089223019e+01  -1.821344981306e+01  -2.024066248419e+01 
1  2.703799732509e+01  -4.769425691965e+01  -2.063790799306e+01 
1  7.194929329338e+01  -1.307098415018e+01  -5.341956035741e+00 
1 -5.224200194296e+00   1.111264795718e+01  -6.330813746491e+00 
1 -9.503289165900e+01  -2.998587641158e+00  -2.687379479912e+01 
1  4.465260186017e+01   2.452498129598e+01   8.466135619243e+01 
8
Step 11000
1 -4.427526772798e+00  -7.071259822094e+00   2.309809348207e+01 
1  3.321523013624e+01   3.757300838749e+01  -3.644219596875e+01 
1  3.104110428275e+01   1.542198604665e+01   2.925571711824e+00 
1  5.076007126140e+01   3.877881863781e+01   1.057557727831e+01 
1 -4.643793169436e+01   4.879205974455e+01   2.917116448854e+01 
1 -8.844359667084e+01  -4.202748921382e+01  -9.871697844248e-01 
1  1.195126106241e+01  -3.625644669621e+01   3.747728600645e+01 
1  4.861807240968e+01   1.193489481836e+01  -8.012179410547e+01 
8
Step 12000
1  1.893284271680e+01   2.348514889559e+01  -3.220031473084e+01 
1 -3.434529858090e+01  -3.607672951249e+01   7.524735151331e+01 
1 -1.784065651849e+01  -5.597184166129e+01  -1.413345517671e+00 
1 -1.486747272782e+01  -4.276292177214e+01  -1.998215783680e+01 
1 -7.844264143563e+01  -4.160110762843e+01  -1.665978152696e+01 
1  1.580427943933e+01   3.069033686690e+01  -3.666880018532e+01 
1  6.156393047351e+01   3.151655438244e+01   1.113254152065e+01 
1 -5.430023712047e+01   3.536036795868e+01   2.008631563273e+00 
8
Step 13000
1 -1.244583365481e+00  -3.539486207021e-01  -1.345029030062e+01 
1  1.431918466607e+01   7.122576444130e+00  -4.311234282069e+01 
1  3.605579372292e+01   4.545077615269e+01  -4.256290124081e+01 
1  8.204526866035e+00   8.931501290828e+01   2.093642847837e+01 
1 -5.361728850066e-01   6.068848594960e+00  -2.901172726726e+00 
1  1.239492672927e+02   2.505298877713e+01  -1.457918435534e+01 
1 -1.597575036830e+01  -4.185717424715e+01   8.336506309961e+00 
1 -3.191340415466e+01  -7.166077648978e+01  -5.039958988288e+00 
8
Step 14000
1  2.682660908976e+01  -3.863901682278e+01  -2.101100815066e+01 
1 -6.712676268120e+00  -2.975635719301e+01   1.735336765106e+01 
1 -7.419148972815e+00  -7.051926325420e+00   4.008145675257e+01 
1 -4.045720882616e+01  -3.844440907133e+01  -4.009521312362e+00 
1  3.030666024100e+01  -4.660330204438e+01  -7.911016011013e+00 
1 -4.006337321916e+00  -1.834335607818e+01   3.509206110591e+01 
1 -8.611158028995e+01  -1.127988483286e+01  -1.985150330796e+01 
1  5.440407908397e+01   2.432591027673e+01   4.298626419284e+01 
8
Step 15000
1 -6.738646290202e+01   5.465316433091e+01   5.330300180351e+01 
1  2.175635920319e+00   5.431524422662e+01  -1.070921170266e+01 
1  7.211172334802e+00   1.419019729059e+01  -4.777072196221e+01 
1  2.875061917751e+00   3.377179205775e+00   1.920125206520e+01 
1  7.330449087955e+01   1.223500139165e+01  -2.987838862150e+01 
1 -8.616873676125e+01   1.347374794208e+01   1.576859582696e+01 
1  3.436632459054e+01   3.112822099113e+01  -2.981262015040e+01 
1  5.819300906083e+01   2.757514149206e+01  -2.430118214302e+01 
8
Step 16000
1  3.875736282566e+01   1.954090063486e+00  -1.210761042163e+01 
1  2.313016849747e+01  -2.325046642018e+01  -4.627772061026e-01 
1 -1.575991401403e+01  -2.864783875503e+01   4.914036195879e+01 
1 -9.583772686784e+00  -2.251535652266e+01   6.070193976757e+00 
1 -6.634759036338e+00   1.807761222873e+01  -4.192271349353e+00 
1 -1.923014173630e+01  -1.853753921542e+01   1.553933831138e+01 
1  9.985607778712e+01  -1.264427058526e+01   2.992215244108e+01 
1 -4.426599205348e+01   1.873149151425e+01  -1.712405235305e+01 
8
Step 17000
1 -2.309296130518e+01   4.588873567877e+01   1.722942787380e+00 
1 -2.372115783621e+01   1.195219112578e+01  -4.696509513207e-01 
1 -2.966322593133e+01  -2.500516379302e+01  -6.686719527195e+01 
1  2.257973251032e+01   6.320924053961e+00   1.805495966156e+00 
1 -1.879562186211e+01   2.491972357382e+01  -6.891587296242e+00 
1  6.006706629050e+01  -3.086529209770e+01  -3.712639218027e+01 
1 -1.659226358949e+01  -1.062368777897e+01   1.877774715630e+01 
1 -6.091391243975e+01  -5.193234197545e+01   3.875156369990e+01 
8
Step 18000
1  1.509765699494e+01  -3.330138927407e+01  -2.279735173070e+00 
1  2.597627682920e+01  -2.914748560630e+01  -2.385194311265e+01 
1  2.844802596568e+01   2.487704978374e+01   3.557339437457e+01 
1  3.125553873687e+01   4.580503832649e+01   3.008422124394e+00 
1 -3.836102780862e+01   2.619706005875e+01   4.617885707799e+00 
1  3.772629419623e+01  -4.667369404947e+00   1.369590736496e+01 
1 -1.034458192214e+02   2.737252604689e+01   2.908356093641e+01 
1  4.099526584978e+01   5.144971592694e+00   5.329525729201e+00 
8
Step 19000
1 -2.282038060168e+01  -2.324439770577e+00   8.599996852148e+00 
1 -3.104683064848e+01   2.243379642980e+01   1.785896562686e+01 
1 -4.571463392086e+00  -1.379583386489e+01  -1.104447486027e+01 
1 -6.177532309122e+00  -6.464580202185e+01  -3.527617752853e+00 
1 -3.580638017420e+01  -7.572632704816e+01  -1.223265740925e+00 
1 -4.191216085454e+01   6.559252868152e+01   9.574488860153e+00 
1 -4.970672910493e-01   4.991846132017e+01  -6.679667961745e+01 
1  5.804285315992e+01   4.823202850293e+01   1.510049636553e+01 
8
Step 20000
1 -3.944915761612e+00   7.261207564890e-01   3.519886730204e+01 
1  6.256248720663e+01   1.353864399293e+01  -5.023000078936e+01 
1  4.026385258717e+01   9.072410645472e+00  -7.970661513507e+00 
1 -5.219175649740e+00   2.112556082004e+01   2.815064348925e+00 
1 -3.483825657790e+00   3.141836536964e+01   3.318228230574e+01 
1 -7.115380941952e+00   2.847279377295e+01   4.601627993585e+01 
1  9.927895824088e+01  -4.445652070086e+01  -2.901351202154e+01 
1 -5.251966429163e+01  -2.849363788671e+01  -4.051113607901e+00 
8
Step 21000
1  2.013065392861e+01   3.689964225166e+00  -2.794138596987e+01 
1 -2.115176945566e+01  -1.435579363895e+01   1.770105511828e+01 
1 -3.737759990056e+01  -4.425264740233e+01   1.009271963035e+01 
1 -3.054498094125e+01  -4.524139861163e+01  -3.386547117814e+01 
1  6.802095477974e+00  -6.687826831345e+00   9.777466133274e+00 
1  5.023107281716e+01  -3.627347631126e+01  -7.100720647615e+01 
1 -1.798992789686e+01  -1.989327257900e+01   1.265093631086e+01 
1 -4.581076512494e+01   1.959451296576e+01   5.149021703228e+01 
8
Step 22000
1 -5.714843118375e+00   6.045129718556e+00   7.273707455134e+00 
1  2.671929474960e+01   6.613543356750e+00  -2.476270418319e+01 
1  1.372087380647e+01   1.426469770681e+01  -3.049836476424e+01 
1  4.847687547038e+00   7.541879910394e+01  -2.965311218497e+00 
1  6.306640796802e+01   3.786617281476e+01  -9.930684272634e+00 
1  1.669014826279e+01  -3.333419580743e+01  -4.193048456014e+01 
1 -8.578565495485e+01   1.309611361540e+01   4.358045271883e+01 
1  7.712912352601e+00  -3.954486798861e+00  -5.823991876659e+01 
8
Step 23000
1  2.541067388076e+01  -3.532522326177e+01  -2.077784329617e+01 
1 -1.783966212125e+01  -2.174684233433e+01   3.547746740937e+01 
1 -3.463706353747e+01  -2.533499687532e+00   4.575428391340e+01 
1 -1.302799985914e+01   5.709135506602e+00   1.367033330798e+01 
1  2.322793816286e+01  -4.970654518164e+01   1.241380574299e-01 
1 -3.557640602010e+01  -4.371893920365e+01  -1.540384933219e+01 
1 -3.830265587507e+01   2.601085284304e+01   2.344409583460e+01 
1  5.247255625943e+01   2.820446056638e+01   4.299262203635e+00 
8
Step 24000
1 -2.606550896796e+01   2.922466566337e+01   1.899950794628e+01 
1  7.762911163396e+00   2.995133575264e+01  -1.864297967513e+01 
1  3.514466223021e+01   2.548671631305e+01  -6.586937247134e+01 
1  2.169050285140e+01   1.444776806139e+01   6.200586603188e+00 
1  2.737739602934e+01  -5.035278613343e+01   1.962005516485e-01 
1 -7.386049386821e+01   4.610469582944e+01   2.751543427889e+01 
1  1.293689849462e+02   3.503097947090e+01  -5.583179680148e+01 
1 -2.218154246929e+01  -7.330642823381e+01  -2.865978292645e+01 
8
Step 25000
1  4.864641552410e+01  -2.751140858194e+01  -3.110428507486e+01 
1  1.084730133933e+01  -4.953610508124e+01   7.806402371423e+00 
1  2.547800641458e+00  -2.494700249991e+01   2.851191359099e+01 
1  1.526922790948e+01  -9.077525013430e+00   7.644153823912e+00 
1 -8.343453831312e+01   5.043021910180e+01   8.107318233484e+00 
1  2.546886699118e+01   1.744037530859e+01   3.221115708255e+01 
1  1.224051474729e+01  -2.289900127703e+01  -2.336742133210e+00 
1 -4.565175170011e+01   1.176160949395e+01   4.219540077182e+01 
8
Step 26000
1 -3.894494125567e+01   1.595137698502e+01   2.930738267211e+01 
1 -1.953818109293e+01   1.778669493634e+01   1.091128026889e+01 
1 -2.256773409742e+01   7.500519738933e-01  -8.288494365235e+00 
1 -1.734810068043e+00  -5.677681359709e+00  -3.747211969829e+01 
1 -3.653022910706e+01   2.963103438547e+01  -3.649644597768e+01 
1  7.414762310273e+01  -4.181454373459e+00  -5.822648506154e+01 
1 -1.532791624342e+02  -3.059326412849e+01   2.561810803216e+01 
1  9.069311366840e+00   5.026195094138e+01  -1.078112879520e+01 
8
Step 27000
1  1.245872106408e+01  -1.649491369920e+01   7.084628448672e+00 
1  2.116100193957e+01  -2.445464446500e+01   4.924746867470e-01 
1 -1.191207331469e+00   8.558770446743e+00   1.562059280398e+01 
1  9.949111567314e+00   5.985901780420e+01  -2.371933772029e+00 
1  7.348163913573e+01  -1.788120528944e+00   1.960910391153e+01 
1 -4.148492002532e+01  -4.596787544716e+01   2.694396408388e+01 
1  1.238259311826e+01   2.417656216388e+01   1.536160765408e+01 
1  4.701019019888e+01  -8.523320394174e+00  -3.341374033704e+01 
8
Step 28000
1 -2.225073708764e+01   2.319666955085e+01   8.740141006416e+00 
1 -2.492411561607e+01   4.523300017857e+01   4.822929760894e+00 
1 -3.429093115445e+01  -1.061882859025e+01  -2.173857963016e+01 
1 -1.355553217280e+01  -3.574801256148e+01  -2.463612368664e+01 
1  1.015194782870e+01  -7.016439430175e+01   4.856104307139e+01 
1 -8.937866175130e+01   1.323583671569e+01  -2.017599478736e+01 
1  8.509379322902e+01   4.974114501755e+01  -1.777214066923e+01 
1  4.051738726119e+00  -3.955699869383e+01   4.693132817040e+01 
8
Step 29000
1  1.864175720142e+01  -1.142241371792e+01  -7.239658999124e+00 
1  5.726933666544e+01  -4.036288568557e+01  -3.607214866717e+01 
1  4.850857191341e+01  -1.077426974478e+00  -3.049409974112e+00 
1  2.141185488619e+01   2.264806348645e+01   2.108401923293e+01 
1 -1.947622838939e+01   4.554571606330e+01  -1.162968285966e+01 
1  4.418258737112e+01   3.380541246248e+01   4.021162278199e+01 
1  8.779050236317e+00  -5.333051837590e+01  -1.460932664501e+01 
1 -2.883653112679e+01  -2.761069945229e+01  -7.284075572476e+00 
8
Step 30000
1  8.143487776307e+00  -1.247684461060e+00  -1.616187009023e+01 
1 -4.537558261924e+01   2.045016672166e+01   4.450188445003e+01 
1 -3.545177969806e+01  -2.083008074206e-01   3.089432332224e+01 
1 -1.392945215926e+01  -4.578547205621e+01   1.002324303544e+01 
1 -8.150431424522e+01   3.836689763723e+01  -6.088647792620e+01 
1  1.001805605482e+02   3.181061015126e+01  -3.933668644877e+01 
1 -9.319342459205e+01  -6.248440340626e+01   7.460388336746e-01 
1 -5.404267515713e+00   8.011568068252e+01   3.210033245183e+01 
8
Step 31000
1 -2.795445807002e+01  -2.767924666462e+00   3.820739563661e+01 
1  3.413365214466e+01   2.357583401138e+00  -2.975353264727e+01 
1  7.962471094379e+01   2.350999592946e+01  -2.334363142486e+01 
1  5.084786816826e+01   2.546136604704e+01  -7.437575838799e+00 
1  4.317424819183e+01   1.294698453210e+01   1.609666676871e+01 
1 -2.808089535272e+01  -3.057158775833e+01   9.464835651426e+00 
1 -1.631067739638e+01  -1.575864692433e+00   2.254472990529e+01 
1  5.998140927284e+01  -3.342147251479e+01  -6.037681146737e+01 
8
Step 32000
1  3.633721392069e+01  -1.266286418724e+01  -4.222179465455e+01 
1 -3.171143415655e+01  -1.931804627013e+01   2.790786046776e+01 
1 -2.777381648651e+01  -4.494227642371e+01   3.512321913991e+01 
1 -3.664957358944e+01  -3.430156092855e+01  -1.569460968262e+01 
1  5.613751570941e+00  -8.381049276293e+01   9.651171022064e+01 
1 -8.863791709638e+01   2.240188231590e+01  -1.703600019539e+01 
1  8.303819817120e+01   9.802274155892e+01   1.106983263171e+00 
1  3.970994317543e+01  -3.172971455455e+01   2.259255140715e+01 
8
Step 33000
1 -2.845886237446e+01   3.111746766528e+01   3.290502283869e+01 
1  2.753286156599e+00   3.605767769189e+01   1.785252664828e+00 
1  4.294495446973e+01   1.243454882154e+01  -3.180019263918e+01 
1  7.474263535370e-01   2.853256261642e+01  -2.461657526504e+01 
1 -6.085467787099e+00   1.428796945993e+01   1.084861763242e+01 
1  1.575034493515e+01   2.012208173517e+01  -7.016450797752e+00 
1  1.516921498436e+01  -5.173128004097e+01  -1.924990854697e+01 
1 -8.798333444332e+01  -4.343753492581e+00  -1.475613041872e+01 
8
Step 34000
1  2.914511739111e+01  -2.812137622959e+01  -2.739912525160e+01 
1  6.489640299846e+00  -4.357618148546e+01   1.661055826723e+01 
1 -8.585585953420e+00  -1.188823545127e+01   3.063516630314e+01 
1 -4.136379925463e+01   3.186183920873e+01   2.150846078659e+01 
1 -2.585234158909e+01  -1.491852885247e+00  -2.276053190376e+00 
1  5.113120123951e+01   4.665392706011e+00  -1.382872253018e+01 
1 -2.520922280383e+01  -1.323063677270e+02   9.605050425234e+00 
1 -1.676776218135e+01   3.071015180449e+01   9.665224568197e+00 
8
Step 35000
1 -4.087139396468e+01   1.108949666901e+01   3.187947534214e+01 
1 -2.174931913962e+01   3.357519837144e+01   6.999069610931e+00 
1  4.390424756473e+00   1.600285813094e+01  -2.667059367639e+01 
1 -1.774120648975e+01  -2.563100139151e+01   7.668177120851e+00 
1  2.671427171700e+00  -2.433879529079e+01  -3.441109171732e+01 
1  5.190944331180e+01  -4.148404665622e+01   2.883165305685e+00 
1 -3.129842544435e+01   3.004403214677e+01   1.103599247371e+01 
1  4.437987519880e+01   2.282439435335e+00  -1.444137359322e+01 
8
Step 36000
1  4.583677957870e+01  -2.536056769371e+01  -4.108610711664e+01 
1  3.023889208657e+01  -3.286019804927e+01  -5.319801220489e+00 
1  3.329714384134e+01  -2.840486812155e+01  -4.768624900004e-01 
1  1.576208674048e+01   3.368715750735e+01   2.973512682033e+01 
1  6.200848396931e+01  -3.641210015846e+00   3.098796330306e+00 
1 -4.931367054541e+01  -1.325742303337e+01   5.510138913164e+01 
1  1.973589703421e+01   5.336491991614e+01   2.198569168662e+00 
1  6.244647538859e+01  -5.214107395522e+01  -7.127313653178e+00 
8
Step 37000
1 -1.918759844421e+01   1.673158228992e+01   7.393171859124e+00 
1 -1.930676230345e+01   1.503467503003e+01   1.032189875536e+01 
1 -2.834703375808e+01   4.023990897595e+00  -1.508110200210e+01 
1 -2.819600926532e+01  -2.166848021925e+01  -6.516822083819e+00 
1 -1.898707772957e+01  -3.275788744319e-01  -3.666417856977e+01 
1 -8.882984466544e+01   4.717881120233e+01  -1.506718088107e+01 
1  8.083119034130e+01   2.213096151727e+01  -2.558402840473e+01 
1 -5.372866581716e+01  -1.331571555464e+01   3.198699703898e+01 
8
Step 38000
1  9.775899942939e+00  -1.786021538517e+01   8.100440871577e+00 
1  4.768108191954e+01  -4.638666129499e+01  -8.605702288341e+00 
1  4.020824129172e+01   1.102190811313e+01   1.006761966553e+01 
1  4.380407771053e+01   2.842424497541e+01   2.927274392604e+01 
1  2.942839021822e+01   2.091580381089e+01   9.337068884056e+00 
1 -1.669542124804e+01   1.885855123629e+01   4.364293920035e+01 
1  8.775565855070e+01  -2.812511417711e+01   8.943742882491e+00 
1 -3.966934036867e+01  -2.868554864937e+01  -6.938139806679e+00 
8
Step 39000
1  7.254728552622e+00   7.657865085480e+00  -4.171369154383e+01 
1 -5.173471443488e+01   2.731919808561e+01   2.464474697880e+01 
1 -6.663099769116e+01   2.669490327477e+01   1.278648367021e+01 
1 -2.654090614916e+01  -3.344159868580e+01  -1.040007599628e+01 
1 -1.165423926602e+02  -2.853249203104e+01  -3.061230773293e+01 
1 -2.014539598558e+01  -2.729582412851e+00  -2.223461120150e+01 
1  6.382345440933e+01  -2.367768951463e+01  -1.791411954936e+01 
1 -4.345891066544e+01   6.135961813146e+01   3.858208704456e+01 
8
Step 40000
1 -1.275111787283e+01   5.285760533263e+00   1.361621122861e+01 
1  1.707932050485e+01   8.784193460620e+00  -4.448132172932e+00 
1  2.192887109444e+01  -2.490246185121e+01  -2.801179322568e+01 
1  7.361466155849e+01   1.217784307859e+01  -6.106711914705e-01 
1  3.850088309658e+00   3.070941084382e+01   8.573624546691e+00 
1  1.136605398396e+02  -2.315685771676e+01   1.760069894224e+01 
1 -6.626271091561e+01   1.905374834891e+01  -2.448799728731e+01 
1  5.398537815676e+00   5.062946708351e+01  -2.417557987611e+00 
8
Step 41000
1  1.075683127759e+01  -7.532770071880e+00  -3.523375310820e+01 
1 -2.220985334873e+01  -1.806968724945e+01   7.754506460846e+00 
1 -3.961374534865e+01  -4.355885577145e+01   5.458123350819e+00 
1 -3.891027991401e+01  -5.749746477410e-02  -6.254225085675e+00 
1 -6.254490968263e+01  -3.200999382345e+00   1.475872924191e+01 
1  1.612533839046e+01  -7.081360830162e+00  -3.696315251935e+01 
1 -7.036549743613e+01   3.517944524177e+01   1.549154454198e+01 
1  6.028542840073e+01  -3.571263605376e+01   2.261047833226e+01 
8
Step 42000
1 -3.064335289695e+01   1.113834189194e+01   4.883179236590e+01 
1  3.661003702348e+01   1.240767303712e+01  -7.220922589614e+00 
1  2.036106652358e+01  -1.554884262342e+01  -2.820323803852e+01 
1  4.900803462192e+00   3.809188051721e+01  -1.115798658476e+01 
1  2.772926217783e+01   4.385450969896e+01   3.429055657414e+01 
1  2.080199868119e+00   2.425160134634e+00   5.676447693726e+00 
1  5.022282182263e+01  -9.546284791413e-02   6.919236413383e+01 
1 -4.764498650736e+01  -6.901019468799e+01  -6.336280343537e+01 
8
Step 43000
1  3.414763275989e+01  -2.455521017891e+01  -2.918384116235e+01 
1 -2.704778203794e+00  -4.105395443423e+01   8.664470601489e+00 
1 -2.275264399814e+01   6.902706083804e+00   2.331719526085e+01 
1 -2.677675685693e+01   4.086463786771e+01   1.738201372913e+01 
1  2.603760611482e+01  -3.989877789029e+01   1.298245210833e+01 
1  2.998241162743e-01  -4.179556105653e+01  -2.385030622305e+01 
1  4.934684769888e+01  -2.612054198258e+01   2.584313702028e+01 
1 -1.214513592139e+01   6.280503698039e+00  -5.823310966272e+00 
8
Step 44000
1 -4.103055307598e+01   3.254577794578e+01   1.968749789557e+01 
1 -2.087962641079e+01   6.668799614180e+01   7.196181875648e-01 
1 -1.073306006804e+01   5.228676027239e+01  -1.616854622907e+01 
1  3.329187997270e+01  -9.694375367504e+00  -1.380657058938e+01 
1  5.349106201173e+01  -5.469041172193e+01  -3.388560137311e+01 
1 -6.892586591875e+01   3.321627567083e+01  -5.367629655717e+01 
1  3.334741708340e-01   3.998400974554e+01   2.468528603907e+00 
1 -4.629886384224e+01   7.543681320707e+01  -2.881951244886e+01 
8
Step 45000
1  1.735424176793e+01  -2.077485574300e+01  -1.789794911318e+01 
1  1.164774525168e+01  -5.320605879057e+01   5.833086888656e+00 
1  1.429251638804e+01  -8.581938737362e+01   1.014026936908e+01 
1  2.614264229884e+01  -2.708553386522e+01   4.119773277440e+01 
1  2.099881218637e+00  -9.160114742290e-01  -2.605714902809e+01 
1  4.319451689561e+00   1.512506142650e+01   5.648565162973e+01 
1  8.739178011973e+00  -3.248310683188e+01  -8.053122258041e+00 
1 -1.078523201223e+01  -1.911621029975e+01  -1.970319744153e-01 
8
Step 46000
1 -2.053897575035e+01   9.587583514882e+00  -4.277951193650e+00 
1 -2.858993810996e+01   4.827452778342e+01   1.772682124546e+01 
1 -2.541527370080e+01  -1.099247370801e+01  -2.495599868221e+01 
1 -2.994054785737e+01   4.264927296545e+00  -7.748194331013e+00 
1 -4.275915973796e+01   6.008752742130e+01  -2.870659778423e+01 
1 -1.132157227889e+01   2.776512394711e+01   1.278452813422e+01 
1  3.515861928598e+01  -1.405126951162e+01  -6.206539932848e+01 
1  8.307892828591e-01  -5.224829239467e+00   7.065074572690e+01 
8
Step 47000
1  1.217984462145e+01  -1.968535242553e+01   5.955886461873e+00 
1  3.546548307038e+01  -2.853267950961e+01  -2.623290741980e+00 
1  2.599533952237e+01  -3.295975909222e+01   1.989146948724e+00 
1  8.461731380656e+00   5.227528939361e+01   3.198068369302e+01 
1 -1.920379314905e+01   6.308141427024e+01   4.460550492841e+00 
1  5.336277866822e+01  -5.388198990814e+01   5.001021615994e+01 
1  1.920513353946e+01  -5.242935524898e+01  -4.154013680998e+00 
1 -1.636015931850e+01  -2.490888249794e+01  -5.062349856273e+01 
8
Step 48000
1 -2.621246409542e+01   5.193901607313e+00  -4.733342249328e+00 
1 -4.578868529760e+01   1.580551124451e+01   4.746362144090e+00 
1 -3.711686009170e+01   3.684179543167e+01   3.542607173650e+01 
1 -5.184801783309e+01   2.049968540865e+01  -1.960002492269e+01 
1  1.307959839721e+01  -6.946484717441e+01  -3.469101783467e+01 
1  3.887591638663e+01  -7.131193789499e+01  -2.065314803041e+01 
1 -2.181930727662e+01   7.977000218635e+01  -6.682915148437e+01 
1 -2.092922746586e+00   5.671577859277e+01   1.544206829719e+01 
8
Step 49000
1 -1.022400223680e+01  -1.352728715014e+01   3.904950872254e+01 
1  2.445344737122e+01   3.903418252491e-01   4.260870099872e+00 
1  1.663561099537e+01  -1.060005998935e+01   1.048672489349e+01 
1  7.978268575846e+01  -4.152760171122e+01  -6.366981500511e+00 
1  7.377928088995e+01  -7.028861793989e+01  -9.860377599854e+00 
1 -3.838054855623e+01   3.950651361515e+01   3.317144589140e+01 
1 -7.617314020503e+01   3.232341978991e+01   6.057988893684e+01 
1  3.883826059847e+01  -3.765994170809e+01  -4.484934086911e+01 
8
Step 50000
1  1.560724234431e+01   5.867938625037e-01  -4.774612119855e+01 
1 -2.008053476218e+01  -6.117157991419e+00   6.324288854158e+00 
1 -4.617513176674e+01  -2.520272093790e+01   9.503874502214e+00 
1 -1.181356795230e+01   7.481477073253e+00  -1.175565589586e+01 
1 -2.518256808474e+01  -1.618950357281e+01  -2.443456858987e+01 
1 -2.928452399157e+01   4.302973279040e+01  -9.789623739675e+00 
1  2.216051477548e+01  -1.089770149536e+01  -1.305928169722e+01 
1  4.602799810663e+01  -1.784888245551e+01   3.667685839502e+01 
8
Step 51000
1 -5.102239614771e+01  -8.150599230752e+00   7.080358048973e+01 
1  2.422919460579e+01   2.836250887411e+01   1.119778270414e+01 
1  1.979264407884e+01  -1.293616862219e+01  -1.788912813854e+01 
1  1.757031600759e+01   6.924165848644e+01  -1.572958530263e+01 
1 -6.093228490307e+01   6.879852297233e+01   1.855117471234e+01 
1  5.396725222525e+00   2.300651400431e+01  -1.260395234688e+00 
1  8.142414597872e+01  -6.189258163550e+01  -3.036902415500e+01 
1 -6.405793568568e+01   1.163321064827e+01  -2.112652852239e+01 
8
Step 52000
1  2.173554976962e+01  -6.625452631887e+00  -3.443841710277e+01 
1 -2.185538748406e+01  -3.065757572738e+01   1.813637524301e+01 
1 -1.935531677410e+01  -3.655500168270e+01  -2.679424683339e+00 
1 -4.444187797159e+01   3.190821679600e+01   1.117811758700e+01 
1 -5.840921253596e+01  -5.292189615333e+01   1.274257305467e+01 
1  7.677778643369e+01  -9.340817968204e+01   1.637636823034e+01 
1 -2.847870321322e+00   1.010896906678e+01  -2.172625528694e+00 
1  5.069088912225e+00   1.955339608384e+01   2.884540420554e+00 
8
Step 53000
1 -1.789412258614e+01   9.748506725992e+00   2.485845549830e+01 
1  2.465840513822e+01   6.465086940475e+01  -1.579791057052e+01 
1  3.195449543672e+01   1.052521856057e+02  -3.146066289627e+00 
1  3.198580526690e+00  -1.796068250375e+01  -1.362106657805e+01 
1  8.638396608988e+01  -6.607042429424e+01  -1.150282249183e+01 
1  1.491988453331e+00  -9.898183881619e+00  -8.654051204640e+00 
1 -7.432778390169e+01   6.748365972652e+01  -1.250772285259e+01 
1  2.574104482601e+01  -1.761928970857e+00   2.434475986558e+01 
8
Step 54000
1  2.217670921857e+01  -2.082095296990e+01  -5.395094321463e+01 
1 -2.560802766290e+01  -5.156443577509e+01  -3.383082559400e+00 
1  7.830656569966e-01  -5.912833053405e+00   3.194026397254e+01 
1 -2.744081858139e+01  -2.449842786868e+01   4.593427689729e+01 
1  4.644277459301e+01  -1.465472935027e+01   8.126594344147e-01 
1 -3.150160215000e+01   4.813339563322e+01   4.772113440896e+01 
1 -6.306104944275e+00  -1.041266663017e+01   3.278649957036e+00 
1  4.468707719866e+01  -5.546246488609e+01  -3.229124497874e+01 
8
Step 55000
1 -1.357184275822e+01   1.210177353013e+01   1.298453794984e+01 
1 -2.260429502489e+01   2.374599229419e+01  -2.399288674158e+01 
1 -7.027028618010e+00   3.905302633595e+01   2.892665835676e+01 
1 -4.027078080436e+01   1.211133278666e+01  -2.416480808097e+01 
1 -8.481978120069e+00   6.434474088916e+01  -2.866621071583e+01 
1 -3.319427634372e+01   4.200414693147e+01  -5.262653305165e+01 
1  6.945288159618e+01  -6.250890747782e+01  -3.316863275894e+01 
1 -4.506117112574e+01   2.849836305970e+01   1.418228109029e+01 
8
Step 56000
1  2.465007235037e+01  -5.538027967949e+01   2.767922563364e+01 
1  2.689124626682e+01  -4.912064546491e+01  -2.470935934582e+01 