8
Step 0
1  2.086108577697e+01   4.693432203065e+01  -2.284201364120e+01 
1  9.091580979047e+00   6.922598102697e+01   4.061902542366e+01 
1 -3.244458265140e+01   6.111061475566e+01   4.971198066405e+00 
1  1.212382219856e+01  -1.902742052781e+01   7.102886472015e+00 
1 -5.665730473373e+01   6.058214040052e+01   2.055098169242e+01 
1 -6.201009357882e+01   6.982676963481e+01  -4.984931700386e+01 
1 -3.197718126494e+01  -5.533441737496e+00   2.967724491637e+01 
1 -8.215372080555e-01   3.172605093898e+01   4.379452421306e+00 
8
Step 1000
1 -2.538547862504e+01  -2.258067200147e+01   4.103846177461e+00 
1  7.029287778533e+00  -2.090012055964e+00   2.237957728549e+01 
1 -3.268940359907e+01   2.898805295562e+01  -1.501771141642e+01 
1 -1.600545663361e+01   1.507847586349e+01   9.508710079309e+00 
1 -1.822903003232e+01   5.465815204163e+01   5.755458075677e+00 
1  1.272663659796e+00  -2.149104203897e+01   1.145942120196e+01 
1 -1.756598456309e+01   1.604910575614e+01   2.334721358292e+01 
1  3.808760131383e+01  -4.859440250938e+01   5.775886755802e+00 
8
Step 2000
1 -9.593206507142e+00  -9.299119904623e+00   7.730808769857e+00 
1  6.130631885124e+00  -4.792903941717e+00   2.063671695892e+00 
1 -5.615385784237e+01   5.099097429002e+00  -2.632648038960e+00 
1 -2.926354491218e+01   2.414963710680e+00   5.827072177859e+01 
1 -1.869821975501e+01   2.329586399843e+01  -1.769672446847e+01 
1  2.905722891524e+01   8.587024899977e+00   1.789035449356e+01 
1 -2.305447404465e+01   2.123238263765e+01   7.941529660514e+00 
1 -7.323641498695e+00   9.319156120871e+00   3.331217989815e+01 
8
Step 3000
1 -4.136727229371e+01   4.052734118174e+01   3.750501296532e+01 
1  1.239965261928e+01  -5.323335542777e+01  -4.746910048341e+01 
1 -5.692048916882e+01  -1.760994343771e+01   1.642888205736e+01 
1 -1.098111268279e+01   9.521042170865e+00   6.665495316644e+01 
1  2.206928767561e+01   2.046600621826e+01   3.760756244020e+01 
1  5.301394633976e+01   4.186634546060e+01  -6.796975150280e+00 
1  5.364644360615e+01  -9.974507882757e+01  -3.127116537790e+01 
1 -1.490842431551e+01  -2.268838089591e+01   6.541257632359e+01 
8
Step 4000
1 -8.517063510735e+00  -4.099779405459e+01   5.076684068049e+01 
1 -6.920357214900e+00  -1.157729637062e+01   8.970349993600e+00 
1 -1.998846730093e+01  -7.363511008728e+00   3.897418582831e+01 
1  1.581373069538e+01  -3.733966986428e+00   3.680154080447e+01 
1  7.996242485791e+01   1.198118938037e+01  -4.862560066414e+01 
1  1.651669241444e+01   2.405714740286e+01  -5.871186236690e+01 
1  4.130961481690e+01   7.101196497570e+00   1.691677476699e+01 
1  1.375188316265e+01   2.829215030056e+01   2.295407320553e+01 
8
Step 5000
1 -4.500000222774e+01  -3.046996328372e+01   3.051478985276e+01 
1  2.794759726864e+01  -1.652091819340e+01  -1.657921834917e+00 
1  4.836728499610e+01   5.743324298988e+00   2.657869947025e+01 
1 -3.854925206413e+01  -3.585387140748e+01   1.792297163155e+00 
1  5.089848192053e+01   6.312914810148e+00  -9.440875766391e+00 
1  1.831819462987e+01  -1.580634740635e+01   8.237215472004e+00 
1 -1.418862217940e+00   6.759870006075e+01   3.409791964790e+01 
1 -2.262493334399e+01  -1.629827692594e+00   5.727302734932e+01 
8
Step 6000
1 -3.632298730781e+01  -7.720968280471e+01   2.396148493507e+01 
1 -8.875938205165e+00  -1.103394434396e+01   1.666301772326e+01 
1  3.474603704404e+01  -1.187898889741e+01  -2.042224704889e+01 
1  8.165835452002e+00  -4.688297297214e+01  -2.506594198245e+01 
1  2.751437473925e+01  -3.728571947325e+01  -1.518915490936e+00 
1  1.913158662991e+01  -6.738860568108e+00   3.375167194782e+00 
1 -2.856577322252e+01   3.300181078571e+01  -2.619875829011e+01 
1  5.041916282658e+01   6.201812519124e+00   6.165000719157e+01 
8
Step 7000
1  3.734308678077e-03   5.661895507165e+01   7.537464192606e+00 
1  3.521036358248e+01  -2.936797689398e+01   3.390959677416e+01 
1  5.242252727530e+01  -6.487190644338e+01   1.904451560343e+01 
1  6.814416280959e+01  -3.083319436123e+01   2.495933750687e+01 
1 -2.163629270444e+01   3.456712374563e+00  -5.831220166614e+01 
1  4.442192526634e+01   1.171747651877e+01   4.494004040269e+00 
1 -1.164343430482e+01  -5.705498473593e+00  -1.103292557085e+01 
1  3.440770809264e+01   7.513116823177e+00   2.156164258401e+01 
8
Step 8000
1 -7.485433297063e+00   3.759552609687e+01   5.671188846762e+01 
1  3.315433105059e+00   6.583533322558e+00  -1.197410508714e+00 
1  2.045575147287e+01  -2.652215846159e+01  -2.516138200171e+01 
1  6.975080610424e+01  -7.915866321834e+01  -1.877073742114e+01 
1  2.984243110291e+01   4.510909873040e+01  -4.475813844669e+01 
1  2.001774240848e+01   2.782548513627e+01   2.497304382165e+01 
1  4.965990209184e+00   5.179843002348e+01   1.657454424553e+01 
1  3.844441925755e+01  -4.168090501443e+00  -1.802027547200e+01 
8
Step 9000
1  2.591068845394e+00   2.858089229008e+01  -1.685092185731e+01 
1  6.110049285671e+00  -8.488818727722e+01   4.957396906594e+01 
1  2.479710824580e+01  -1.156442689592e+01  -6.629579908785e+00 
1 -1.241911183454e+01  -4.322368407667e+01  -6.189542120361e+01 
1 -1.557635025971e+01   2.404290593154e+01  -5.547965916327e+00 
1 -4.309935699440e+01  -2.053208812126e+00   2.620336018017e+01 
1 -7.436669694038e+01   1.004497107460e+02   1.000502506623e+01 
1 -1.418378873578e+01   2.079362205886e+01  -1.491334781146e+01 
8
Step 10000
1 -1.510035769886e+01   6.587023876316e+01  -1.350887287908e+01 
1 -6.169506134088e+00  -3.028420106649e+01   3.011176656326e+01 
1  8.745599208169e+00  -8.327681749250e+00  -3.289914480036e+01 
1  7.943115418748e+01   9.317926428802e+00  -4.306658663833e+01 
1  2.280948130376e+01   8.065873595897e+00  -3.736556296077e+01 
1 -2.278831630531e+01  -3.106957787419e+00   3.727439135633e+01 
1  3.187915921397e+00  -1.384284593866e+01  -1.240108278403e+00 
1 -1.744699665835e+01   1.269487996335e+01  -6.362814739173e+01 
8
Step 11000
1  3.540458304383e+01   8.773489070608e+01   2.894174500416e+01 
1  5.105008136630e+00  -6.453567715233e+00  -1.821079028976e+01 
1  1.293647630745e+00  -2.840914046370e+01  -5.350223425877e+00 
1  5.956606834184e+00   7.394965543977e+01  -2.948617599099e+01 
1  2.801108269586e+01   6.039971796206e+01  -4.235376367680e+01 
1 -4.910369778778e+01   5.796813931340e+01  -3.624247367035e+01 
1  4.180344584100e+01   5.731224217449e+00  -6.259736613878e+01 
1 -2.182048340880e+01   9.919336421859e+00   8.238448735390e+00 
8
Step 12000
1  2.674990077782e+01   3.701086409622e+01  -7.843241979752e+00 
1 -3.000495239736e+01  -8.058266408989e+01  -4.284090284679e+01 
1 -6.474988168622e+00  -1.750160829389e+01  -1.323956188867e+01 
1 -4.740238967863e+01   3.019423656457e+01  -2.656941561781e+01 
1  5.693810985614e+00   4.786670767602e+01   3.482583151589e+00 
1  1.351681134773e+01   1.412658845922e+01   1.552903537605e+00 
1 -5.492967251055e+01   5.070946991453e+01  -3.366366735827e+01 
1 -2.862231338792e+01   4.484692592089e+01   2.369897087935e+00 
8
Step 13000
1  6.633600498167e+01  -2.402869342476e+01  -3.080706307030e+01 
1  1.585813464388e-01   8.962320330773e+00  -1.725287564453e+01 
1  5.316073281861e+00  -5.356944390948e+00  -2.560780932479e+01 
1 -3.941316335610e+01  -7.088467638028e+00  -1.361569778010e+01 
1 -3.930454542145e+01  -5.492250325293e+01  -1.960989858652e+01 
1 -3.336988474001e+01  -3.729405600964e+00   1.344751552674e+01 
1 -2.381869732789e+01   3.525155696186e+01  -8.251372357038e+00 
1 -3.125207710381e+01   7.667100988296e+00  -3.995436923267e+01 
8
Step 14000
1 -7.013417454417e+00  -1.144917376592e+01  -3.125136038883e+01 
1  1.737202847809e+01   3.609084912062e+01  -1.873989535550e+01 
1  3.904230260361e+01   6.225050629222e+01   6.226710063700e+01 
1 -2.718872922238e+01  -1.717061037241e+01   6.207253872414e+00 
1  8.374057986859e+00   1.307912845528e+01  -3.304133060930e+01 
1 -2.621855281432e+01   1.195827596326e+01   1.548980860332e+01 
1 -2.346866424669e+01   3.156074014355e+01  -2.740501373298e+01 
1  2.803416241286e+01   1.450204799641e+01  -6.598257989925e+00 
8
Step 15000
1 -6.449878641527e+00   2.762933326179e+01  -2.317746751788e+01 
1 -1.164035229454e+01  -1.877412040660e+01  -1.917273789960e+01 
1  1.368257334422e+01   3.156906535867e+01  -1.758255679579e+00 
1  2.453608700104e+01  -2.258740390161e+01  -3.439753080404e+01 
1 -2.704511664689e+01   7.073660066397e+01  -1.222384826607e+01 
1  3.556804848492e+01   3.055563665632e+01   2.537197683663e+01 
1 -2.656828280207e+01  -3.464360750933e+00  -3.947833487992e+01 
1 -3.197722139198e+01   8.770702326305e+00  -6.244787239533e+01 
8
Step 16000
1 -1.318729070945e+01  -4.406667974259e+01  -7.205982504805e+01 
1  4.290766449723e+01  -6.270119154842e+00  -1.717430038758e+01 
1 -1.721587357457e+01  -5.633058732712e+01   2.359604142501e+01 
1 -2.972231829021e+01   1.310493809723e+01   3.716033208974e+01 
1 -6.218855411610e+00  -3.679359398355e+01  -1.283093926296e+01 
1 -2.366182694130e+00   8.435954550084e+01  -6.325767506090e+01 
1 -4.175509619096e+01  -4.611056415153e+01   4.012938527094e+01 
1 -6.221843032072e+01   5.172521006811e+01   2.037110647470e+01 
8
Step 17000
1 -3.781041606077e+01   1.893659417292e+01  -1.431670901634e+01 
1  7.473832012958e+00  -2.159573948134e+01  -1.081803178378e+01 
1  4.088957966248e+01  -6.161559744019e-01   2.738676680355e+01 
1 -5.586201709484e+01  -3.594720340435e+01   2.097261757144e+01 
1  5.875451217909e+01  -3.663166568473e+00   3.442384148313e+01 
1 -1.169050319898e+00  -8.299118218823e+00  -1.454370337183e+00 
1 -4.884528891074e+01  -7.874637791091e+01  -1.504190318167e+01 
1 -3.569936845875e+01   4.085694257600e+00   1.881710636130e+01 
8
Step 18000
1  1.297681092399e+01   1.408615659044e+01   4.290947102196e+01 
1  9.649617683002e+00  -2.200180026338e+01   6.087593125487e+01 
1  1.352452320615e+01   6.093306264689e+01  -2.022817355481e+01 
1  3.449234899030e+01   1.199657386034e+01   3.379132405556e+01 
1  3.742578405628e+01   3.632869458606e+01   4.898196216559e+00 
1  3.801890570152e+00  -6.933254422675e+01   2.766565145159e+01 
1  2.148985496893e+01  -6.058950652171e+00  -4.933971285278e+01 
1 -2.462272648484e+00  -4.616635544539e+01   4.984029367720e+01 
8
Step 19000
1 -1.262014987484e+00   1.709994981646e+01   3.523675764355e+01 
1 -2.431665563758e+01  -1.487687520095e+01  -3.499909571952e+00 
1 -5.774017359826e+00  -2.595120122921e+01   3.950305038581e+01 
1 -1.684627328056e+01   1.786259307839e+01   2.304185603574e+01 
1 -2.033420153242e+01   2.794260238499e+00  -4.839956413125e+01 
1  3.666305178451e+01   1.282721282525e+01   3.005433212545e+01 
1  4.970346650920e+01  -1.628544617473e+01  -8.103343716580e+01 
1  1.858515013769e+01  -2.751121955965e+00   3.314533319776e+01 
8
Step 20000
1 -1.173212357733e+01  -8.923067757659e+01   4.969349979987e+01 
1 -3.498752517730e+01  -5.579678268028e+00  -8.526887955769e+01 
1  1.671087344826e+01  -3.941848484181e+01   5.399717260346e+01 
1  3.812829163547e+01   2.453116390357e+00  -4.143110633886e+01 
1 -5.513654006308e+01  -7.614787417015e+00   3.107036178512e+01 
1  6.029326594856e+00   8.707379766223e+00   1.296453794964e+01 
1  2.645032460879e+01  -4.097786316077e+01  -2.306292232738e+01 
1 -1.331365072487e+01  -2.809944085766e+01   4.785682596699e+01 
8
Step 21000
1  1.688775416816e+01  -2.007223818676e+01   1.869830192357e+01 
1 -3.976766902650e+00   3.145588664057e+01   5.676297984657e+01 
1 -2.749732422790e+01   1.407905441967e+01   2.871842098196e+01 
1  2.667425464328e+00  -1.433394871928e+01   6.405616476468e+00 
1  6.241609274071e+00  -2.853265410691e+00   8.931333668554e+01 
1 -2.572947613776e+00  -1.762799233410e+01  -3.430760685239e+01 
1  4.413091308152e+01   7.485061450018e+00  -2.330643459887e+01 
1  2.639068357838e+01  -1.421100531038e+01   5.851863792092e-01 
8
Step 22000
1 -8.674840457757e+00  -1.633921477404e+01   2.663774269880e+01 
1 -2.329524080900e+01   1.934035979299e+01  -2.178186539593e+00 
1 -2.685579276305e+00   2.058178777298e+01   1.157708157417e+01 
1  3.681604985094e+01   2.976149985619e+01  -2.001505755029e+00 
1  7.318625629924e+01  -4.358593123871e+01   7.267174065918e+00 
1  4.011049628183e+01  -1.315054945623e+01   2.159886874172e+01 
1 -1.753320696995e+00  -1.829207648164e+01  -4.777090265235e+01 
1  8.939715550428e+01   3.324948340327e+00  -6.434400841091e+01 
8
Step 23000
1  1.782285027962e+01  -2.641161674909e+00   2.154838343218e+01 
1 -4.863755353764e+01  -3.804745914982e+01  -1.027360501017e+01 
1 -5.269863538025e+01   1.575247437327e+01   1.695844661184e+01 
1  8.725188002562e+00  -1.982363519433e+01  -1.035455825736e+01 
1 -6.802298248061e+00  -4.431436630559e+01  -1.461636583585e+01 
1 -2.786646098589e+01  -2.097781708266e+01   3.119630347537e+01 
1  4.247708638526e+00  -5.692394639585e+01   9.092970802828e+00 
1  1.274562799760e+01   2.215698088477e+01  -2.672494758260e+01 
8
Step 24000
1  1.135520085041e+01  -3.363756864036e+01  -3.661274733794e+01 
1  9.846884152556e+00  -2.420859002696e+01  -1.796306497732e+01 
1 -3.164349571731e+01  -3.572167722043e+01  -1.793488918783e+01 
1 -4.618691223173e+01  -4.992470834005e+01   3.692555295023e+01 
1 -2.767531383528e+01  -5.894705291547e+01   4.034191363356e+00 
1 -2.283434687924e+01   5.368310519107e+00  -7.216557037695e+01 
1 -3.630070981163e+00   1.030904169160e+01   3.901507096499e+01 
1  1.272564880678e+01  -1.989400792139e+01  -1.139261503142e+01 
8
Step 25000
1  6.067000876661e+00   2.613635448814e+00   1.485462669124e+01 
1  6.764614685290e+00   2.335287620636e+01   5.609838393319e+01 
1  4.604175567345e+00   3.000465743836e+01  -1.177214878859e+01 
1 -1.346214200089e+01   5.580830314821e+00   3.957834186749e+01 
1  2.584970788643e+01  -5.994352406484e+01  -4.435039490078e+01 
1  3.173021917176e+01  -6.258499947498e+01  -1.164296481829e+01 
1  1.488002157979e+01  -2.545559886000e+01   1.756074103723e+00 
1  3.090137507438e+00  -1.798949182912e+01   3.855872268440e+01 
8
Step 26000
1  5.012026966989e-02  -1.627515118763e+01  -2.855171342602e+01 
1 -1.344641123646e+01  -5.647586101643e-01   2.701122118731e+01 
1 -1.425334568378e+01   6.980048239569e+01  -1.213145787033e+01 
1 -6.599731840404e+00  -6.784338046353e+01   2.115118429953e+00 
1  2.773277499623e+01   1.686696632985e+01  -1.471318443772e+01 
1  7.511652260664e+00  -4.848402802703e+01   4.005450478148e+01 
1 -1.579662050409e+00  -2.894487640154e+01  -6.885645862132e+01 
1 -7.110543425116e-02   7.411884416582e+00  -2.972343562821e+01 
8
Step 27000
1 -4.591058838902e+01  -4.244808315690e+01  -2.526205250583e+01 
1  1.982217948338e+01  -5.201951462463e+01   4.472352545082e+00 
1 -3.021459365504e+01   4.494795388492e+01  -6.152664934259e+00 
1 -9.598332177676e+00  -4.253395001960e+01  -2.914322640682e+01 
1 -1.925988630379e+01  -2.555791164716e+01   2.308460606045e+01 
1 -2.958931899037e+01   2.275723016945e+00   1.250215350444e+01 
1 -2.651053155525e+01  -4.735694385225e+00  -3.695714934610e+00 
1 -2.672913264070e+01  -6.076397448471e+01  -1.088844018858e+01 
8
Step 28000
1  1.811256866872e+01  -2.206475371344e+01  -1.619270636401e+00 
1  1.866669472069e+01  -5.230468687708e+01  -5.998696199446e+01 
1 -1.939434541254e+01  -4.847066234653e+01   8.193440091644e+01 
1 -1.747802378514e+01   5.453510943832e+00   4.228040543515e+01 
1 -3.683726066004e+01  -1.139597938754e+02   3.458329820399e+01 
1 -6.410356716120e+00   5.565091699944e+01  -1.890797470121e+00 
1 -5.459261352616e+01   8.714118404340e+01  -4.033523754759e+01 
1 -6.199887979378e+01  -1.221429635779e+00  -3.097399361631e+01 
8
Step 29000
1  2.032111568452e+01  -2.002197571125e+01   9.115001731092e+01 
1  2.822528864685e+01   9.007237061269e+01  -7.941059907405e+01 
1  3.270418194703e+01   1.910016123133e+01   1.593860308914e+01 
1  7.773248113068e+00  -2.492470842598e+01  -1.326100809355e+01 
1  2.849311953851e+01  -4.008207547923e+01  -3.377402819094e+01 
1  4.001710528682e+01  -1.001094351589e+01   1.930059303502e+01 
1 -1.877160576713e+01  -2.786879374043e+01   1.151665530286e+01 
1  1.807121831009e+01   5.549389834063e+01   4.840255267215e-01 
8
Step 30000
1 -6.056798042157e+01   5.564017349969e+00   3.526685166728e+01 
1  2.545015073368e+01  -1.761539680105e+01   1.122961310502e+01 
1 -1.849675488122e+01  -1.349245073487e+00   9.966979070377e+00 
1 -1.426987632716e+01   9.545130443191e+00  -1.476420563780e+01 
1 -3.517460390345e+01   4.809278109512e+01  -3.891489955899e+01 
1  4.801736829491e+01  -3.030734480325e+01   2.469625393764e+01 
1  2.961354708177e+01  -2.873111927821e+01   1.422527549723e+01 
1 -9.768851324738e+01   2.688006431786e+01  -3.545128637899e+01 
8
Step 31000
1  2.919179809689e+01  -2.696849701837e+01  -6.115611634342e+01 
1 -8.481735493071e-01  -1.185808867179e+00   3.152129853786e+00 
1 -1.551100872424e+01  -2.512604792800e+01  -6.160296898950e+01 
1 -4.162240795525e+01   6.839873508916e+00  -5.551922490010e+00 
1  2.428039894691e+01   5.739228661012e+00  -3.559521776120e+01 
1 -3.510614626732e+01  -1.916620414803e+01   1.922467815523e+01 
1 -9.318675043897e+00  -7.134134419069e+00  -1.565244053041e+00 
1 -5.328791353372e+01  -1.203802425586e+01   2.157808641668e+01 
8
Step 32000
1 -1.554133847317e+01   4.450042251818e+01  -2.588253536953e+01 
1  2.488811351081e+01  -2.258572454993e+01   5.973127722829e+01 
1  4.052269056601e+01   1.769319033068e+01  -1.980166599231e+01 
1 -1.020429757349e+02  -3.317227557918e+01   3.378191762982e+01 
1 -2.272219036863e+01  -5.566578284663e+01   3.457736281583e+01 
1 -2.378981868647e+01   4.885703103465e+01  -2.781119177782e+00 
1  1.397821426032e+01   5.128771662922e+01  -7.777512217936e+00 
1  2.594729727360e+01  -9.157572566473e+00   6.072449678739e+01 
8
Step 33000
1  1.919193671617e+00   2.941114546873e+01  -1.389249915732e+01 
1  2.672165357776e+01   8.193880138453e+00  -8.468481440740e+00 
1  2.410898822205e+00   4.930820323826e+01   2.112699756636e+01 
1  7.366140330688e+00   3.641230064889e+01  -2.558694627235e+01 
1 -1.964779485927e+01  -1.578036071167e+00  -5.955852587280e+00 
1  4.702741949802e+01   2.268211439177e+01  -2.915519008976e+01 
1  4.136717673967e+01   3.835229090652e+01   3.032998583457e+01 
1  3.815498268874e+01  -9.531937453346e+01   6.237547504550e+01 
8
Step 34000
1 -4.332665794555e+01   4.445913321238e+00   2.618140968760e+01 
1 -5.683632898345e+01   1.585497300844e+01  -2.109184511398e+01 
1 -2.638450595169e+01  -4.798591556582e+01  -3.068010076033e+01 
1  6.640594564404e+00   2.976703109544e+01   5.329516913305e+00 
1 -2.893320893702e+01  -4.334668912479e+00  -2.155711515767e+01 
1  1.162791961295e+01   8.317146524589e+01  -2.769346642823e+01 
1 -5.446651656000e+00   1.435973511373e+01  -2.054974766876e+01 
1  2.346614784190e+01   3.333167278260e+01  -1.047592870614e+01 
8
Step 35000
1  6.484045205252e+01  -4.374476834498e+00  -3.051277828712e+01 
1 -1.544973709965e+01  -5.978375974199e+01  -1.705984824514e+01 
1  1.839749316019e+01   3.059589025890e+01  -3.163028739671e+01 
1  2.551439662074e+01   3.624664062683e+00   7.179566685188e-01 
1 -4.356278574012e+01  -1.018871862182e+01   4.324012208065e+01 
1 -5.068257744478e+01   5.447273549049e+01   4.721852780852e+01 
1 -2.186774944349e+01  -1.635227368286e+01  -1.670345655601e+01 
1  5.454925019199e+01   4.060891686366e+01  -5.212761323530e+01 
8
Step 36000
1  3.116971037353e+01  -1.049177029884e+01   2.795970403020e+01 
1  3.361476142707e+01   5.292791659642e+01  -1.957698490021e+01 
1 -2.264422835413e+01  -2.828974054295e+01   1.897367691103e-01 
1  8.290112386054e+00  -6.214715755618e+01   2.052465943600e+01 
1  2.260204757549e+01   4.649270897229e+01   3.655351770576e+01 
1  1.930401280722e+01   2.326218951777e+01  -2.198375580781e+01 
1 -1.785050418831e+01  -1.505075212301e+01  -1.920006035404e+01 
1 -1.277925958481e+01   2.586157851313e+01   5.242532715565e+01 
8
Step 37000
1  1.790481089734e+00   2.144123383772e+01  -4.908710136005e+00 
1  2.958897726177e+01   2.965381133796e+01  -2.426547837976e+01 
1  3.162422315217e+01  -1.017405642581e+01  -1.992829702725e+01 
1 -3.868046504863e+01   2.302557398648e+01   5.990895242129e+01 
1  1.919415104709e+01   5.286627861100e+01  -4.166343770131e+01 
1 -5.828853518213e+01   2.417671439077e+01  -5.474493581606e+01 
1 -2.994635744424e+01  -5.581848104072e+00  -5.614085446267e+01 
1 -1.523148147939e+01  -1.328680669917e+01   1.883735541166e+01 
8
Step 38000
1  3.976666544419e+01   2.122255379759e+01  -1.937355871566e+01 
1  1.029020118232e+00  -8.030825819664e+01  -1.088551649596e+01 
1 -1.536645261003e+00  -2.151368536671e+01  -2.165578479433e+01 
1 -1.572141481281e+01   2.861128515245e+01  -4.487749488501e+01 
1  2.346967338492e+01   4.798923231443e+01  -5.932037561078e+01 
1 -2.394233426043e+01   4.550966628383e+01  -1.380470295738e+01 
1 -2.353858613468e+01  -3.665256848452e+00  -2.895397907232e+01 
1 -5.702180204472e+01  -2.005641750391e+01   5.226121944519e+00 
8
Step 39000
1  3.397917709599e+01   2.633724492232e+01  -4.913719484699e+01 
1  6.591850713776e+01   2.900930828876e+01   7.653941942837e-01 
1  1.554731995433e+01  -3.385155747541e+01   2.018314073693e+00 
1 -4.447844798563e+01   1.275008987933e+01   3.029771744012e+01 
1 -2.524566909521e+01   8.783468161410e+00   3.060095561757e+01 
1  3.333722974178e+01   2.229493670307e+01   4.535966577320e+01 
1 -3.279300838010e+01  -5.011227648745e+01   4.168947566266e+01 
1 -4.002268293282e+00   2.063177145317e+01  -9.077635946556e+01 
8
Step 40000
1 -2.066852979243e+01  -5.980646661304e+00   5.584957633082e+00 
1  3.042804758047e+01  -1.081342427759e+01   5.021572527520e+01 
1  4.518176184367e+01   1.211214387707e+01   2.444773545441e+01 
1  4.442470147080e+01   2.810743749521e+01   1.421881104696e+01 
1  1.116061342829e+00  -3.059634983814e+01  -5.739480978715e+01 
1 -2.389588840321e+01  -1.291930908924e+01  -6.034502305232e+01 
1 -5.200119756687e+01   3.338776881822e+01   1.840233539073e+01 
1 -3.660208391078e+01   7.683701401114e-01   7.509290582405e+00 
8
Step 41000
1  5.343727199987e-01   2.153765620677e+00   5.008213136110e+01 
1 -7.545381428909e+00   4.748846448564e+00   2.922609594226e+01 
1 -3.592453427344e+01   5.548316763844e+01  -2.753397888486e+01 
1 -5.990409522022e+01   2.441824598873e+01   2.316270389447e+00 
1  1.554803529086e+01  -2.395568108102e+01   9.983890777380e+00 
1 -2.533898253162e+01   1.273815908855e+01  -4.442080672631e+01 
1 -5.228281689722e+01  -2.285919338871e+01  -4.929299613902e+00 
1  2.245241394059e+01  -1.657096774616e+01  -1.713246320223e+01 
8
Step 42000
1 -2.814708652215e+01  -5.003128273943e+01   4.765143074636e+01 
1  4.224827549741e+01   1.314374524098e+01  -1.384677416397e+01 
1  3.208970390650e+01  -5.928712109226e+01  -7.266839146380e+01 
1  1.083782274754e+01  -9.829766675846e+00  -4.379387802109e+01 
1 -5.764255289059e+00  -5.287349748153e+00  -1.516077357778e+01 
1 -4.473336412533e+00   8.218393761779e+01   1.081977680807e+01 
1 -3.298683798702e+00  -2.095288889812e+01  -5.013585697759e+01 
1  5.890675463756e-01  -1.957018426754e+01  -3.186913627775e+01 
8
Step 43000
1  2.736305841174e+01   5.995856946340e+00   3.738268578781e+01 
1  6.316480210151e+01   3.984355480330e+01  -2.238740326477e+01 
1 -3.938943183304e+01   1.213851899970e+01   6.430212583314e+00 
1 -2.235554797389e+01  -2.270255250812e+01   2.827971817889e+01 
1 -4.015510711626e+00   1.502638088427e+01   1.304704622647e+01 
1 -1.655354354133e+01  -3.261099194708e+01   8.326024965660e+01 
1  5.699942694194e+01   2.169423011160e+01  -2.428493246417e+01 
1  1.685369378140e+01   2.684651048135e+00  -3.089775304099e+01 
8
Step 44000
1  4.305919653294e+01   1.932141359137e+00   3.481182353289e+00 
1  9.398156625560e+00  -4.614396501823e+01  -2.213232430220e+01 
1 -3.228649386828e+01   5.601129783897e+01  -3.743136399987e+01 
1  3.273887489562e+00  -5.688025126412e+01  -6.578346691651e+00 
1  9.691575571669e+00   5.398417206000e+01  -7.062097800713e+00 
1 -4.156335602227e+01  -3.381849010860e+01  -4.957729088805e+00 
1 -7.272935743795e+00   3.133277108473e+01   1.286593216915e+01 
1 -5.787417636203e+01   5.569938354300e+01  -4.402407090267e+01 
8
Step 45000
1  5.237689455047e+01  -3.470145659864e+01   6.517816399821e+01 
1 -1.917725172949e+01  -3.715768993549e+01   4.817271756630e+00 
1 -1.287368173095e+01   6.396577740998e+01  -1.121824012919e+00 
1 -3.826685641808e+01  -1.800207702884e+01  -4.517545093191e+01 
1 -4.213005515937e+01  -3.740291813108e+01  -1.740926468868e+01 
1 -3.048005959805e+01   1.520875067275e+01  -4.090263120856e+01 
1 -1.188912246472e+01  -4.777903104428e+01   5.810468922856e+01 
1  5.673155173791e+00   5.327227842027e+01  -2.036330853573e+01 
8
Step 46000
1  7.414086269400e+01   1.943244769406e+01   1.751450657616e+01 
1 -3.485580874665e+01  -5.929736632527e+01  -2.085162640141e+01 
1  4.336508486515e+01   5.296065620332e+01   8.117903678232e+00 
1 -8.687371471893e+00   3.226026791021e+01  -2.651656779101e+01 
1  1.083645763410e+01  -5.768777098090e+01   1.213880391015e+01 
1 -3.044270178126e+01   6.485293773888e+00   6.109918601700e+00 
1 -2.685266735639e+01  -7.204013196294e+00  -6.918114649518e+00 
1 -1.386263159754e+00  -3.737279216096e+01  -5.031486927086e+01 
8
Step 47000
1 -1.836088174655e+01   4.658213236103e+00  -7.771600929727e+00 
1 -1.923203202941e+01   5.217255201304e+01   2.849803565335e+01 
1 -2.237295697489e+01   1.701598480905e+01   1.067049641220e+01 
1  5.024146998668e+00   3.972283286430e+01  -3.035734552420e+00 
1 -2.151946218140e+01  -1.592752429839e+00   2.376439617212e+01 
1 -6.116355601612e+01  -2.321158721102e+01  -2.053364340070e+01 
1 -7.768379075464e+00  -2.716870142184e+01   4.342826310550e+01 
1 -8.192393266625e+01  -5.633112499214e+01   3.405845534368e+01 
8
Step 48000
1 -1.817606185368e+01   1.944831719583e+01   1.240657800762e+01 
1 -1.667820716939e+01   6.100446382285e+01   4.955060622639e+01 
1 -3.146304402880e+01   1.633026920836e+01  -1.256713082616e+01 
1  5.512967072495e+01   2.319895738998e+01   1.599529973239e+01 
1  6.817657477203e+00   8.478555410432e+00   1.505463975797e+01 
1 -1.680687559818e+01   8.205030536356e+00  -4.166178559367e+01 
1 -9.209193918669e+00  -6.957056205029e+01   2.992977772358e+01 
1 -2.486864624810e+01   2.846808648872e+01  -2.913296896966e+01 
8
Step 49000
1  5.296695054506e+01  -4.307980040124e-01   1.981698684220e+01 
1 -4.997792627332e+01  -5.198044223799e+01   4.215786728364e+01 
1 -4.510482644234e+01   4.849980143795e+01  -3.288295696478e+01 
1  1.808429506525e+01   1.323787176183e+01  -7.702671239901e+00 
1 -3.692586502840e+01  -1.503295874601e+01  -5.180689171178e+01 
1 -6.028693256548e+01  -9.143693881743e+00  -2.246191096624e+01 
1 -5.850362207399e+01  -3.188002458301e+01  -1.192015693237e+01 
1 -9.831859287458e+00  -2.957117561974e+01   1.331188645330e+01 
8
Step 50000
1  4.628271580744e+00  -3.927930771743e+01   1.661487119094e+01 
1 -1.072286999822e+01  -5.698958922884e+00  -4.518618126714e+00 
1  4.658392818866e+01   5.124688438934e+01   3.937258375755e+01 
1 -1.267656325979e+01   6.687147574601e+01  -1.242396459871e+00 
1  6.080510626711e+00  -1.689636069887e+00   7.817116658326e+01 
1  1.422361237152e+01  -4.660379521335e+01   2.591114666557e+01 
1 -8.401337632620e+01  -6.440265459308e+00  -1.599323735311e+01 
1 -4.019527266977e+01  -1.439798709778e+01   8.063274891493e+01 
8
Step 51000
1  7.887925226615e+00  -1.042808380221e+01  -6.918529744598e+00 
1  4.460641494133e+01   4.856843700740e+01  -3.381111385674e+01 
1  4.281307448590e+01   1.840505068503e+01   3.521120536080e+01 
1 -8.301954324306e+01   2.142652147975e+00   9.113183321240e+00 
1  8.092719030500e-01   6.129323883624e+00   3.381222653232e+01 
1 -5.298229424008e+01  -3.133262293044e+01   3.548925411573e+01 
1 -4.981554785126e+01  -6.009290020501e-01  -2.864854066380e+01 
1 -6.920345053200e+01  -4.285321890675e+01   9.288834588798e+00 
8
Step 52000
1 -7.605541432469e+01  -3.620409639078e+01  -1.560476506501e+01 
1  2.482955567461e+01   1.424052397446e+01  -1.563961637157e+01 
1  2.891004579159e+01   8.412560188724e+01   8.012579202495e+01 
1 -3.557047278791e+01  -2.915831975976e+01   1.760421176675e+01 
1  1.985696357874e+01   2.505549383044e+01  -1.744778703404e+01 
1 -2.206314035817e+01   1.887150822920e+01   3.577391611283e+01 
1 -5.270938836202e+00  -1.305508805640e+01   2.851478550837e+01 
1 -7.043270181857e+01  -6.458312811616e+00  -8.792053742649e+00 
8
Step 53000
1  2.944235675188e+01  -2.726468117423e+01   2.270827198847e+01 
1  5.015661578613e+01   2.303525057421e+00   1.692391210427e+01 
1  7.059495685669e+00   3.846392094537e+01   1.972187714997e+01 
1 -1.309178903812e+01  -1.308401739198e+01   1.780837479057e+01 
1 -6.848706641158e+01  -2.096565353323e+01  -2.558928352526e-01 
1 -6.495318459762e+00   2.447197254441e+00  -9.022459708655e+00 
1  3.432322041360e+01  -3.058117965770e+01   2.777119290883e+01 
1  2.511631515876e+01   9.626569693441e+00  -5.954757401903e+01 
8
Step 54000
1 -1.123707444267e+01   2.638076346692e+00   2.539853734902e+01 
1  4.199404864732e+01  -2.318799283252e+01   2.128396649133e+01 
1  1.084728744252e+01   2.868380404890e+01  -2.122155260472e+01 
1  6.840988336648e+00   1.015215578139e+01   2.900240392733e+01 
1 -1.962567435930e+01  -3.876085633608e+01   6.209971811725e+01 
1 -1.203151035750e+01   9.690058540706e+01   4.337946665156e+01 
1 -2.324436093751e+01  -3.396325048460e+01   6.465360033735e+01 
1 -1.090633285639e+01  -1.487678461194e+01  -4.365115314498e+01 
8
Step 55000
1 -4.093856703718e-01   7.042980366381e+01  -2.750307706280e+01 
1  7.288396973492e+00  -5.643472349121e-01  -2.803265599525e+01 
1 -7.160948498776e-01  -2.716719595737e+01  -3.110790064236e+01 
1 -2.625483102151e+01   1.831195773698e+01   5.260490156940e+01 
1  3.181058002638e+01   9.271977631898e+00  -7.037470404207e+00 
1  4.069722722286e+01   5.765924751541e+01  -2.132683321940e+01 
1  3.140620446454e+01  -2.551723522434e+01   4.723546506570e+01 
1  2.828982928649e+01   3.880802719365e+00   9.804178425138e+00 
8
Step 56000
1  2.412417634096e+01   1.135540330741e+01  -2.108939768093e+01 
1  1.729993498120e+01   3.597684238330e+01   1.626588599360e+01 