8
Step 0
1  6.673994264557e+01  -6.348222162079e+01   4.533458352829e+01 
1 -4.190978114971e+01   6.511705803867e+01   6.576511494826e+01 
1  6.160288589397e+01  -4.968557995687e+01  -7.759770453232e+01 
1 -5.275475819101e+01   5.263914256172e+01  -6.287078783062e+01 
1  3.368236176707e+01  -5.535420352454e+01   6.567221809806e+01 
1 -2.932215654258e+01   5.697053922066e+01   5.504311202953e+01 
1  7.435867778535e+01  -5.503844031689e+01   6.929554136757e+01 
1  4.256782595794e+01   4.207458288030e+01   4.780089100214e+01 
8
Step 1000
1  6.790733838330e-01  -1.637298657758e+01   3.258219075881e+00 
1  2.118186125409e+01   1.654273392639e+00   2.760351828930e+01 
1  2.693843473977e+01  -3.885448313129e+01   3.002475162776e+00 
1  1.036717891615e+01  -3.481266437307e+01  -3.266037349969e+01 
1  3.243378499640e+00  -3.154673078693e-01   4.385913899768e+01 
1  1.766918238134e+00  -4.174338819652e+01   1.912146373200e+01 
1 -3.919885321703e+01   4.045909955114e+01   4.883204623046e+01 
1 -3.309420224002e+01   2.777404188028e+01   2.257994367656e+01 
8
Step 2000
1  1.133074400790e+01  -2.085957646890e+01   2.197338073213e+01 
1  4.393140146820e+01   1.388393667312e+01  -5.857404120828e+01 
1 -1.763336696487e+01  -1.172188126401e+01  -1.134083332550e+00 
1  1.320389307009e+01  -1.659691172259e+01  -4.877672962578e+01 
1 -5.948812645584e+01   2.150162885995e+01   1.843997236582e+01 
1  4.313848135832e+01  -5.511492505095e+01   5.485737586627e+01 
1 -1.165356612279e-01   3.331510658476e+01   4.794889969844e+01 
1  2.410746931390e+01  -3.573639355050e+00  -1.423916773021e+00 
8
Step 3000
1  2.685401972973e+01   2.688799213253e+01   3.982455022812e+01 
1  2.752006175143e+01  -1.186576355278e+01  -5.600261038018e+01 
1 -1.928554738508e+01  -3.478475427214e+01   8.803481097048e+00 
1  2.473581671494e+01   2.275352276611e+01   3.713928686899e+00 
1 -3.107281527122e+01  -6.892998700873e+00   1.032112593062e+01 
1  1.049650188396e+01   8.942944526074e+00  -2.267619522362e+01 
1  2.882957597076e+00  -5.146607536945e+01   2.012262983088e+00 
1  1.173827539942e+00   2.767135511548e+01  -1.080751961979e+01 
8
Step 4000
1 -1.175670192503e+01   2.621212560435e+01   2.415941297218e+01 
1  1.421229406762e+01   2.509233907867e+01  -2.702280494520e+01 
1  5.913605000061e+01  -6.518999135065e+01  -2.081695736981e+01 
1 -5.327702762925e+01   2.830173476247e+01   1.533103603330e+00 
1  4.407832794383e+01  -3.232851834527e+01   5.332910138694e+00 
1  8.817200879248e+00   6.904023383263e+01  -4.191517895272e+01 
1  2.898592891520e+01  -1.142030685718e+01   5.854963463657e+00 
1 -4.307278931106e+01   4.176187968918e+01   6.298290965290e-01 
8
Step 5000
1  4.223672955025e+00  -3.852686640801e+01   4.195895514629e-01 
1  5.687079125830e+00   1.498517209262e+01  -1.589931304375e+00 
1  4.874514833476e+01  -2.362970881004e+01  -1.163542558617e+00 
1 -9.577711333610e+01   8.835794477488e+01  -2.857721813197e+01 
1  2.957617917108e+01  -4.384939289948e+01  -2.229760644139e+01 
1 -1.358492386458e+01   2.507465335821e+01  -3.321322971134e+01 
1  6.830214526358e+01   2.804559633605e+01   2.430786770029e+01 
1 -6.545887615857e+01   7.594076557069e+01   2.546172108708e+01 
8
Step 6000
1 -3.220080505724e+01   1.736661047706e+01  -2.660149895061e+01 
1  1.399563466426e+01  -2.602775046109e+01  -4.740782136993e+01 
1 -3.380445813142e+01   3.607641622691e+00   1.506473689802e+01 
1  7.697080039292e+00  -7.806626895503e+00  -8.459806725782e+00 
1 -2.768589050729e+01  -2.843580053917e+01  -2.641400290758e+01 
1 -7.964758087794e+00   7.678395764011e+00  -3.430465378271e+01 
1 -1.814617686091e+01   3.593986233316e+01  -3.701095668859e+00 
1 -2.345216172368e+01   9.505018347491e+00  -2.433231309524e+01 
8
Step 7000
1  1.688680828031e+01   3.060460537591e+01  -1.096257173880e+01 
1 -1.779093958877e+01   4.823164895717e-01  -2.151882098235e+01 
1 -1.856773719953e+01   3.271445723387e+01   4.644575028195e+01 
1  2.704763672357e+01  -2.487617033600e+00   4.529180466202e+00 
1  2.597367762790e+01   2.092638646985e+01  -3.147406452594e+01 
1  9.272456935552e+01   2.876070317361e+01  -4.714150065933e+01 
1 -2.169450012675e+00   2.732291226545e+01  -1.863260952011e+01 
1  8.945804749869e+01   9.701100773368e+00  -4.475222119394e+01 
8
Step 8000
1  2.854948202035e+01   1.765708016397e+01  -1.122898229054e+01 
1 -3.468379294778e+01  -1.831875791238e+01  -1.053179062122e+01 
1  1.482784935540e+01  -1.374827843591e+00   1.449307020032e+00 
1 -1.556446508972e+00   2.860926284884e+01   8.210874321311e+00 
1 -3.594376649084e+01   8.972680933177e+00  -2.692104731867e+01 
1 -2.556906365024e+01   3.807131120921e+01  -3.726671265341e+01 
1 -3.298512785061e+01   4.731803241327e+01  -2.687658412033e+00 
1  1.740428221991e+01   6.533560497890e+01  -3.634369415260e+01 
8
Step 9000
1  6.273631031966e+00  -3.574480800981e+01  -3.776371941651e+01 
1 -1.107535999950e+01  -7.534883337298e-01   4.254910727001e+01 
1  2.352002291034e+01  -1.320983181634e+01  -4.189835131277e+01 
1 -3.451600160038e+00   1.863357603489e+01  -2.770913941728e+01 
1  4.544727358568e+00  -3.405159262525e+01  -1.297234184369e+01 
1 -2.161419299170e+01   5.032198359952e+01   2.265179947692e+01 
1  8.785832153919e+00   4.313128614787e+01   3.019339723145e+01 
1 -3.963085339081e+01   7.758667999169e+01  -4.144692405123e+01 
8
Step 10000
1  1.617374003904e+01   6.120453003228e-01  -1.422338207281e+01 
1  2.270571721052e+01   4.150235510216e+00   6.572592391868e+01 
1 -7.446250794696e+00  -1.840322695499e+01  -1.567191300745e+01 
1  6.177845025456e+01   6.451324930347e+01   1.602905497918e+01 
1  1.399287214464e+01  -8.768076212542e+00  -7.004889106168e+00 
1 -6.390553034186e+01  -3.600781848235e+00   5.035119722249e+00 
1 -1.494461369465e+00   2.982771346066e+00   2.138571689113e+01 
1 -2.277447598092e+01  -7.084383478556e+00  -4.322062022260e+01 
8
Step 11000
1  2.247700372721e+01   5.443045542288e+01   1.176712965831e+00 
1  5.099093080722e+01  -4.801572460529e+01   3.944661633010e+00 
1 -2.762976551584e+01   1.235580316222e+01  -2.920227890101e+01 
1  5.992947530200e+01   2.651088063541e+01   2.129463606362e+01 
1  2.259444579751e+01   4.379061320767e+01   3.541268023293e+01 
1 -2.464154336809e+01   7.345043697488e+01  -3.257003731510e+01 
1  8.639735272433e+01  -3.962152638382e+01  -2.271612387317e+01 
1 -2.341892035628e+01  -5.121927831332e+00  -2.329886166763e+01 
8
Step 12000
1  3.980183769517e+01   3.262092978821e+01   2.441872462821e+01 
1  4.339952151851e+00  -8.294203185149e+01   1.640485839143e+01 
1 -1.227156275321e+01   1.826572114576e+01   1.348924470459e+01 
1 -1.500376490605e+01   3.068328199419e+00  -3.792505727311e+01 
1  2.415274426954e+01   5.779032878462e+01   3.771106495437e+01 
1 -8.426896695263e-01   5.594167310507e+01   1.806916557954e+01 
1 -2.875211499553e+01   1.744649310632e+01  -2.313947461292e+01 
1 -6.431759530277e+01  -2.129823366496e+01  -2.009427369856e+01 
8
Step 13000
1  5.341014121924e+01  -5.093708358228e+00  -5.710735959102e+01 
1 -7.089209704534e+00  -4.635223691845e+01   1.210650594301e+01 
1 -2.122129461078e+01  -1.514488408214e+01  -8.382625387812e+00 
1  8.762544022040e+00  -1.069813146382e+01   2.422370613334e+01 
1  2.859316019790e+01  -4.488765401788e+01  -9.020204652548e+00 
1 -1.070537832911e+01  -2.908110043426e+00   2.297704100502e+00 
1 -4.214419208095e+01   1.626869193408e+01   3.476676554388e+00 
1 -2.098720110052e+01  -6.106223982767e+01  -2.199938718409e+01 
8
Step 14000
1  1.668540548136e+01   3.660852944729e+01  -1.939259005712e+00 
1  9.785103088175e+00   3.442691335054e+01   7.694395243543e+01 
1 -2.709044326129e+01   1.851257881429e+01   2.262082853285e-01 
1  5.030172754543e+01   3.845046738126e+01   3.406235390764e+00 
1  6.416709758309e+01  -3.252087637920e+01  -3.176908267359e+01 
1  1.179563039854e+01  -4.826938133056e+00   6.375271122952e+00 
1 -2.965617799712e+01  -5.429528714028e+01   3.463155977660e+01 
1  2.774842453734e+01  -1.868441751294e+01  -5.484182965639e+01 
8
Step 15000
1  3.640499319492e+00   2.084634017347e+01  -2.452296963701e+01 
1  3.635594980541e+01   1.695968390455e+01   3.136192943344e+01 
1 -6.079787895590e+01  -3.214833890336e+01   2.190925228163e+01 
1  4.583981175725e+01   4.077816886523e+00   8.508359780988e+00 
1  3.445835154118e+01   6.244807623758e+01  -4.514193039634e+01 
1  4.268006583854e+01  -2.057900787641e+01  -2.249153245230e+01 
1  1.404257731448e+01  -3.105796266954e+01   2.352671264577e+01 
1 -4.756790078521e+01   2.506528797425e+01  -6.591096409759e+01 
8
Step 16000
1  1.700389972653e+01  -4.770402325827e+01  -3.106392972240e+01 
1  4.254670462721e+01   6.375162774084e+00  -4.284536818433e+01 
1 -4.633547577203e+01   9.878118258107e+00  -2.085689556734e+01 
1 -3.625523295559e+01  -2.059214505776e+01   1.574301389237e+00 
1  1.847091083447e-01   1.098998125546e+01   2.583439595692e+00 
1  2.707266860006e+01   8.900740241704e+00  -8.557377704740e+01 
1  3.513151353919e+01  -1.113294663782e+01   5.956036746263e+01 
1 -8.579403908249e+01   1.599996202563e+01  -4.241700272334e+01 
8
Step 17000
1 -3.185428165533e+01  -6.959294406335e+00   5.962122655239e+00 
1  3.543213137906e+01  -6.222385686872e+00  -3.347190419808e+00 
1  1.963163515100e+00  -5.722737663273e+00  -1.415692480006e+01 
1 -5.044341512704e+01   6.274310400448e+00   4.956891850637e+01 
1  1.359054308780e+01  -2.614374155041e+01   5.155663430793e+01 
1  3.518178960963e+00  -4.934084834828e+01  -1.326242018507e+01 
1 -2.121852473747e+01  -2.579146564802e+01  -5.044718075166e+00 
1 -2.960954186645e+01  -2.428376635433e+01   6.348276454076e+00 
8
Step 18000
1 -3.865021885009e+01   6.225831511771e+01   1.890063618247e+00 
1  1.664573456113e+01  -8.327281835748e+00   3.566162906841e+01 
1  1.490014792591e+01  -5.035716222752e+00  -6.182323329597e+01 
1 -4.782472097354e+00   5.591535837526e+01  -1.587280770657e+01 
1  2.898514079136e+01  -3.229531300958e+00  -2.989610585537e+01 
1  3.394720775153e+01  -5.016591009519e+01   3.376986615366e+00 
1 -1.225322942268e+00   2.117575162020e+01  -7.616407015675e+00 
1  2.332717536800e+01   4.511283272753e+00  -3.453066194204e+01 
8
Step 19000
1 -1.355127592696e+01   3.249998305151e+01   2.222826179527e+01 
1 -4.722549164404e+00   1.679259784055e+01   4.238850948904e+00 
1 -3.485984517048e+01  -3.403456464790e+01  -2.973964250736e+01 
1  7.023713442456e+01  -1.165926009878e+01  -8.928408679709e+00 
1  5.197069710853e+00   8.983600806040e+00   3.787858800959e+01 
1 -7.088811360428e+01  -1.638145326377e+01   8.587605229032e+00 
1  2.484999858821e+01   2.148090511681e+01   2.915012090900e-01 
1 -9.207378931796e+00  -1.863170582369e+01   1.512686284222e+01 
8
Step 20000
1 -4.220046384082e+00  -5.161868384739e+01  -4.238853304214e+01 
1  3.176565730070e+01   2.959439909238e+01  -2.906066768167e+01 
1 -6.164906819010e+01  -8.858531229528e+01   7.301567395458e+00 
1  5.324207484781e+01  -2.872986236469e+01  -6.375998303151e+01 
1 -5.589612311819e+01   8.464225937991e+00   2.330753101431e+01 
1 -2.244482808652e+01  -5.190925074972e+01  -1.664663337989e+01 
1  2.405368591656e+01   3.066124336249e+01  -5.746830037028e+00 
1 -6.441404461903e+01  -5.801840042085e+01   4.652411776700e+00 
8
Step 21000
1  2.456411706298e+01  -3.936609347582e+01   1.354292555315e+01 
1  2.234853451535e+01   6.511597271374e+01   1.969272452112e+01 
1 -1.117814796283e+01   1.081496461413e+01   3.561790000254e+01 
1  2.860441016355e+01  -1.562126654336e+01  -2.954311871360e+01 
1 -2.497490818299e+01  -3.447718988725e+01   3.663718237134e+01 
1  2.694474533035e+01  -5.792031972290e+01   6.453384342006e+00 
1 -2.445167052144e+01  -2.054239369468e+01   3.080493773782e+01 
1 -1.580377506502e+01  -8.426207960016e+00   2.918801757127e+00 
8
Step 22000
1  3.199997902431e+01  -4.183883047930e+01   5.309406840358e-01 
1 -2.102130632216e+01   1.832234492591e+01   3.028274245436e+01 
1  6.070914322833e+00   5.250283740764e+01   3.564546187611e+01 
1  3.134367205364e+01   3.849646471668e+01  -9.608955498882e+00 
1  3.629330693882e+00  -2.238078938582e+01  -2.635566850418e+01 
1 -9.760746409398e+00  -3.971751902241e+01   3.809680550491e+00 
1  3.421861462213e+01  -4.069696696806e+01  -1.455158544703e+01 
1  7.758339476557e+01   2.855666536304e+00  -5.735853451002e+01 
8
Step 23000
1  6.323628077798e+01  -1.652866137895e+00   3.338748104480e+01 
1  4.903787738947e+00  -1.064061744576e+01   5.266440601786e+01 
1 -1.162186935529e+01  -1.991858987185e+01  -3.489993231256e+01 
1 -4.833789794278e+01   8.747408668788e+00   3.754367805829e-01 
1 -3.333758689107e+01  -6.608893220661e+01  -2.863850237243e+01 
1 -4.138362701860e+01  -4.231491269460e+01   3.836027331258e+01 
1  5.811353026159e+01  -5.052348222051e+00   5.876125450685e+01 
1  3.453514297933e+00  -3.398215371303e+01  -1.983843119017e+01 
8
Step 24000
1  1.208925619160e+01  -6.512824195065e+01  -1.067216308456e+01 
1  2.107857572295e+01  -2.914720061953e+01   3.470968351959e+01 
1  3.123722416250e+01  -6.765928253686e+01  -1.706096408563e+01 
1 -2.922795540488e+01   2.033903419612e+01   7.949855777089e+01 
1 -4.764518517537e+01  -4.452735465743e+01   1.825319654850e+00 
1 -5.344547288597e+01  -8.075664973056e+00  -2.864635841296e+01 
1 -1.276534547656e+01   1.122432831032e+01   6.474013033601e+01 
1  3.642105783408e+01  -5.691692787891e+01   2.806164252443e+01 
8
Step 25000
1  6.387978150634e+01   7.066934824507e+00   3.949845179709e+01 
1  3.518244193578e+01   2.870182291313e+01   6.746001785193e+01 
1  1.407364612764e+01  -2.034947676416e+01  -7.016926009191e+00 
1  6.565034125098e+00  -2.022960858737e+01  -5.838033655035e+00 
1 -2.807428895015e+01  -5.769983972715e+01   4.419688505092e+01 
1  7.292511584704e+01  -7.886158754676e+00  -2.864967079343e+00 
1  5.258372694122e+01  -2.262971941844e+01   5.339026062916e+00 
1  4.242578130914e+01  -3.152215565220e+01   3.148391298103e+00 
8
Step 26000
1  3.651266460256e+01   1.161228679974e+01   2.432279079353e+01 
1 -2.073593967375e+01  -5.316160017293e+00   5.560938111376e+01 
1 -2.773714774414e+01   2.057200634788e+01  -3.895384183546e+00 
1  6.147796469046e+01  -2.762011563718e+01  -2.519668706524e+01 
1  3.752070108838e+01   2.233859389824e+01   2.524735672205e+00 
1  3.128580211722e+01  -3.681292701001e+01   5.535633816336e+01 
1  9.501485584014e+00  -3.983275429250e+01  -3.468194069665e+01 
1 -4.646296140353e+01  -5.020875139720e+01   2.848556341757e+00 
8
Step 27000
1  7.126770063285e+01   1.398064021619e+01   2.868124210512e+00 
1 -7.016055024648e+01  -5.035440095302e+01   2.383870779854e+01 
1 -1.807515102572e+01  -3.188885165998e+01  -6.645016242106e+00 
1  1.244902535972e+01  -3.179676095878e+01   1.005080970349e+01 
1  1.029758476280e+01  -2.084422187984e+01   3.675018127404e+01 
1 -4.226403399518e+01  -7.275873522444e+01   8.267031173150e+01 
1  2.922553565110e+01   2.500686692084e+01  -1.586183457999e+01 
1  8.127925507843e+00  -4.161503897479e+01  -1.344438405531e+01 
8
Step 28000
1  4.343849486560e+01   2.621067040800e+00   1.035897666069e+01 
1  2.377659739080e+00  -2.799205632927e+01  -1.390152813791e+01 
1 -2.041962566923e+00  -7.954298355583e+01   4.043641124772e+01 
1 -2.802324041665e+01   4.213082018498e+01  -1.158041122521e+01 
1  6.362255768729e-01  -4.340773203907e+01   6.817653721124e+01 
1 -7.733119032491e+00   1.539422863530e+01  -1.226626899216e+01 
1 -2.491206728387e+01   8.623809053437e+01  -1.336295279937e+01 
1 -5.149583029127e+01   1.552158933407e+01   7.848265612328e+00 
8
Step 29000
1 -2.346759995629e+01   2.682735783701e+01   6.476160362406e+01 
1  4.274421240044e+01   7.694569627183e+01  -1.369095534007e+01 
1  7.237386632035e-01  -1.630879014951e+01   5.335060067898e+01 
1  8.077030201930e+00   8.217316846311e+01   2.399238180353e+00 
1  3.545979246981e+01  -4.660888930348e+01   2.190279373555e+01 
1  9.922471108010e+01  -3.790660618200e+01  -1.513782632754e+01 
1  6.099863960556e+00  -2.471274384255e+01   3.497580114213e+01 
1  1.076424093061e+01   4.434944545135e+01  -1.925021674228e+01 
8
Step 30000
1 -3.766847934879e+01   2.539625539403e+00  -5.787101189304e+00 
1 -1.927165511218e+01   1.383146526466e-01   8.843828610522e+00 
1 -1.431174959977e+01   6.483500709331e+00   3.402336174341e+00 
1 -3.790612669274e+01   3.665599906032e+01   2.914006116275e+00 
1 -5.733756274013e+01   5.032636508814e+01  -5.772246796437e+01 
1  6.657976073230e+01  -2.498191843621e+00   9.263965956717e+00 
1  1.425781717655e+01  -6.272760637546e+01  -7.834423210438e-01 
1 -2.724935774255e+01   2.687357130098e+01   5.654590452439e+00 
8
Step 31000
1 -1.633661312364e-01   3.751339118534e+01  -5.817030090420e+01 
1 -1.878658387547e+01  -6.792778223442e+00   1.172705559186e+01 
1 -1.308764289432e+00  -3.754729950436e+01  -3.464976404054e+01 
1 -2.758973460365e+01  -9.529026538812e+00  -2.369604989717e+01 
1 -1.627286790413e+01   4.738864994807e+01   1.311541490527e+01 
1 -1.740995719410e+00  -2.890069120934e+01   2.627439347178e+01 
1  3.558411549475e+01   1.016849118427e+00  -3.761493851037e+01 
1 -5.889213689462e+01   1.698449401226e+01   2.950023200350e+01 
8
Step 32000
1 -1.340109846120e+01   4.612907820211e+01  -1.249231133160e+01 
1 -2.033449845594e+01  -2.769946020339e+01   2.659542943441e+01 
1 -8.656926090436e+00  -4.060947854908e+00  -1.452904217383e+01 
1 -8.310514360826e+01  -2.785807760729e+01   1.235683240153e+01 
1  8.218191841825e+00  -8.961820714459e+00   1.897757673449e+01 
1 -4.222147923480e+01  -2.449442018926e+01  -3.312642699458e+01 
1  2.638523934923e+01   5.659177099148e+01   8.614594819411e+00 
1 -3.971787508157e+01  -5.181823628546e+01   3.693904480135e+01 
8
Step 33000
1 -2.368321145701e+01   6.159300621356e+01   7.188421314138e+00 
1 -8.689878576983e+00   2.422324002225e+01   2.578564068249e+00 
1  1.509173151287e+01   2.606675540535e+01  -1.576524158345e+01 
1 -1.837009767043e+01   9.635052774616e+00   1.726352611230e+01 
1  4.018742082523e+00  -1.021788377938e+01  -1.661753692372e+01 
1  2.337355488491e+00  -4.558461733899e+01  -6.110350928613e+01 
1  5.097733816335e+01   4.832103344047e+01   6.378815316225e+01 
1  5.589612138975e+01  -6.727361203046e+01   1.420417789522e+01 
8
Step 34000
1 -2.923238796209e+01  -1.653493783877e+01   1.180378420327e+01 
1 -5.082619916375e+01   1.027364532006e+01  -2.046184934540e+00 
1 -8.639384993059e+01  -3.613195955626e+01  -1.940767966274e+01 
1 -1.589094575468e+01   4.087472524872e+01   2.755783728877e+01 
1 -4.501231594003e+01   3.379173938959e+01  -2.127760655374e+01 
1  1.457208561678e+01   9.253946590298e+00  -6.757827447847e+01 
1 -7.042851172626e+01  -3.171595436914e+01   2.891569434356e+00 
1  9.603082518236e+00   4.445685590200e+00  -1.170870452449e+01 
8
Step 35000
1  2.132266783206e+01  -1.548070700174e+01  -6.059685884241e+01 
1 -2.401048038822e+01   1.715255101120e+01  -2.846811546614e+01 
1 -3.611212889879e+01  -2.002067823139e+00   1.302167141039e+01 
1  4.201002515133e+01  -2.288400539510e+01   5.708755986712e+00 
1 -7.060087024404e+01   7.059476434132e+00   2.636593155695e+01 
1 -2.187743402267e+01  -1.960925484513e+00  -2.278708849983e+00 
1 -4.037520974222e+01  -2.796785743360e+01  -9.001077103152e+00 
1  3.031588291173e+01   4.122652007112e+01  -4.698667575795e+01 
8
Step 36000
1  1.647557024261e+01   5.973912754068e+00  -2.776437496349e+00 
1 -3.512669161481e+01   7.977433998456e+00   1.129636538866e+01 
1  4.548689151442e+01   2.391429826238e+01   3.567061140416e+01 
1  2.923057450304e+01  -3.896281926469e+01   4.865678670608e+00 
1 -2.351911425489e+01   6.015400420562e+00   7.884070782643e+01 
1 -1.877626892239e+01  -1.853286828373e+01  -2.000152435985e-01 
1  7.253602913505e+00   1.331191614714e+01  -6.411245456535e+01 
1 -9.369028103279e-01  -2.699589280740e+01   6.706552326905e+01 
8
Step 37000
1 -1.200635686993e+00   1.948896944372e+01   1.288816772310e+01 
1 -3.552139229711e+01   1.226411969966e+01  -7.867504744956e+00 
1  1.762194789176e+01   5.298183152829e+01   3.193215865044e+00 
1 -3.914339501411e+01  -2.737855726938e+00  -9.314317812141e+00 
1  4.431496048943e+01   1.251826474893e+01   8.427073315801e-01 
1 -1.987187446770e+01  -2.856688941038e+01  -8.343615598373e+01 
1  9.973808418268e+00   2.053589050637e+01  -1.348118267473e+02 
1 -6.589897441512e+01  -3.001008180999e+01   8.405281722065e+00 
8
Step 38000
1  1.757919839966e+01  -1.477517809145e+01   3.668240221858e+01 
1  6.434720572778e+00   8.586249514477e-01  -2.682210810161e+01 
1  1.433502013743e+01  -3.833103937727e+01  -7.326789210538e-01 
1  1.755118936660e+01  -1.014674572380e+00  -3.828694772745e+01 
1 -4.437558643617e+00   5.906028977841e+01  -7.094294556695e+01 
1 -2.258024358678e+01   1.232309815474e+00   1.668409986168e+01 
1  1.770693763072e+01   3.569830604211e+01  -1.881951079927e+01 
1 -2.511489026396e+01  -2.934856010045e+01  -2.944541372286e+01 
8
Step 39000
1  4.186487767086e+01   1.550480229421e+00  -2.697032290800e+01 
1 -7.035648504045e+00   1.075292099824e+01  -1.606579031576e+01 
1 -2.843873869960e+01  -4.020608692150e+01   3.365179294949e+00 
1 -2.314377143860e+01  -2.898343953047e+01  -1.570167387471e+01 
1 -1.576400534452e+01  -1.422314625813e+01  -2.969707640599e+01 
1  5.816910493134e+01  -1.070555748753e+01   1.916427222419e+01 
1 -4.100799336844e+01  -2.921732263911e+01   4.695851263853e+01 
1  8.376473204958e-01  -1.017005477785e+01  -1.437115231948e+02 
8
Step 40000
1  3.741866961545e+01  -8.656167444104e+00   3.133876819114e+01 
1  5.380968537963e+01  -8.438026068324e-01  -1.194709221487e+00 
1  3.538287638782e+01   3.640761331702e+01   2.082564628845e+01 
1 -1.399213696491e+01  -1.811409351294e+01   3.140270126239e+00 
1  2.383978358667e+01  -2.634617992650e+01  -2.054269664720e+01 
1  6.121213146264e+01   2.753446121999e+01  -8.910513158105e+01 
1 -6.351726298161e+01  -3.130901628261e+01   2.126292486252e+00 
1 -2.218440325569e+01   3.591251585082e+01   6.396479501119e+00 
8
Step 41000
1  2.965870434064e+01   2.648452018350e+00   9.020145185079e+00 
1 -2.824558356952e+00   9.442831071158e+00  -2.228940005423e+01 
1 -1.259866488526e+00   2.869944562525e+01  -1.054929200253e+01 
1 -2.151422357879e+01   1.837966359931e+01  -4.364027787006e+01 
1  2.284615201628e+00  -3.097880357947e+01  -3.549306101905e+01 
1 -1.089426182547e+01  -1.324528125410e+01  -9.449473893168e+01 
1 -4.081087517355e+01   1.826184261467e+01  -6.432267715445e+01 
1 -5.643730698595e+01  -2.628967626231e+01   3.210152050259e+01 
8
Step 42000
1  7.707294097298e+01  -1.417237639007e+01   3.498480919256e+01 
1  6.362057988927e+01  -3.212782422097e+01   1.011129100975e+01 
1  2.643963097532e+01   3.404160976286e+00  -4.353884748111e+01 
1 -1.827593846092e+01   1.869896567902e+01  -3.635420031264e+01 
1 -1.979608314814e+01   1.098109120875e+01  -2.072148904081e+01 
1  4.824299698106e+01   1.732769765679e+01   1.195459070948e+01 
1 -7.654539327884e+00   2.108469256240e+01  -6.136155698479e+01 
1 -1.070870926767e+01  -4.350703098856e+01  -4.362902884275e+01 
8
Step 43000
1  2.839302432847e+01   1.765072921890e+01  -4.518646594212e+01 
1  1.085513204882e+02   2.881962574849e+01  -2.098728620822e+01 
1 -2.119975744224e+01   3.010442951172e+01  -2.889748596749e+00 
1 -5.254453913305e+01  -1.246647788231e+01   1.927376045886e+01 
1 -4.760786383545e+00   2.890689987466e+01  -6.558461102323e+00 
1  1.703034820740e+01  -2.187857609223e+01   3.751709197637e+01 
1  3.051888093778e+01   3.543156046696e+00  -7.194262655348e+01 
1 -1.764605733825e+01   6.624310427637e-01  -7.913540087916e+00 
8
Step 44000
1  7.273989280811e+01  -5.251260900658e+00   2.256477652046e+01 
1  3.011106097116e+01   1.125961499082e+01  -2.629642639272e+01 
1  1.629215675101e+01   5.940936480797e+01  -3.294151324527e+00 
1 -2.352246688974e+01  -1.287792163512e+01   2.323300443001e+01 
1 -1.677998912752e+01   2.973412405121e+01  -1.571543638165e+01 
1 -7.335417280569e+00  -3.946058294104e+01   6.209156673600e+00 
1  2.832841354007e+01   7.198799984465e+00  -1.678945856099e+01 
1 -1.148851216583e+01   3.229714970075e+01   2.471742565804e+01 
8
Step 45000
1  9.446166205041e+01   2.040762908946e+01   7.790137775963e+01 
1 -2.984094925438e+01  -2.618293328675e+00  -1.474996652174e+01 
1 -1.765275226247e+01   6.564172742968e+01  -3.235073731290e+01 
1 -3.088656874781e+01   3.416735725961e+01  -3.209064452278e+01 
1 -7.599146504308e+01  -1.264133509785e+01   1.112547902393e+01 
1  4.716000272619e+01  -1.530167290955e+01  -1.240984435581e+01 
1  2.375376425380e+00   9.272132892526e+00  -2.591936382443e+01 
1  1.216684111506e+01  -5.307368559935e+00   1.546821939738e+00 
8
Step 46000
1  9.897358931366e+01   9.214900700471e+00   4.104831216979e+01 
1  2.543077586922e+01  -4.364108709873e+01  -1.771175562179e+01 
1  1.909984123642e+01   7.497217599354e+00  -3.102995429506e+01 
1  4.641284816971e+00   7.486430897615e+01  -6.380953015262e+01 
1 -4.497253908349e+01  -4.777687326276e+01   5.386241616070e+00 
1  9.103134149015e+00  -2.956277134605e+01  -1.078081958639e+01 
1 -5.364406594333e+00  -3.281283162868e+01   2.956874507155e+00 
1  1.885264366917e+01  -4.858068221150e+01  -1.685022781967e+01 
8
Step 47000
1  2.450255648563e+01   4.965005871394e+01  -1.834038693608e+01 
1 -1.198589688929e+01   2.723016461208e+01   4.384338237472e+01 
1  1.469331894461e+01   4.055657285426e+01   5.331222588614e+00 
1 -2.924604491335e+01   4.748991401764e+01   2.178468447270e+01 
1 -3.671711542689e+01   1.792166391700e+01   2.741638251733e+01 
1  1.696148291891e+01  -3.343006954246e+01   3.887418411860e-01 
1  3.151365265498e+01  -1.011450326290e+01   5.111662821305e+01 
1 -3.913702512828e+01   6.455585954389e+00  -1.068933914840e+01 
8
Step 48000
1 -8.464636918212e+00  -7.968082216634e+00  -5.035337598920e+01 
1 -4.459544705905e+00   2.564866594597e+01   4.134597738510e+01 
1 -3.410258822968e+00   1.002929179729e+01  -1.030823319333e+01 
1  3.075863522815e+01   3.843315170358e+01   1.752689830061e+00 
1 -1.563423809915e+01   3.860465400782e+01  -7.333634351805e+01 
1 -7.091869178495e+00  -1.440258668936e+00  -6.006529817712e+01 
1  6.620711653107e+00   1.434766280170e+01   1.793312697837e+01 
1 -9.088385735651e+00  -1.124144791746e+01   2.644559817579e+01 
8
Step 49000
1  1.378697680183e+01  -2.528617213557e+00   1.396657306721e+01 
1  1.919715781238e+00   5.480186729359e+01   6.315348528641e+01 
1 -4.768749880192e+01  -4.044736112568e+01   1.309560902807e+01 
1  4.239259157194e+00   6.040106299942e+01  -1.298494111066e+01 
1 -2.669736917472e+01   1.737869143945e+01  -2.927369031169e+01 
1  3.789952333438e+01   8.450655567565e+00  -4.220594958853e+01 
1 -1.492569612214e+01  -8.148440706977e-01  -5.085537846311e+01 
1  7.435229766498e+00  -2.158083066453e+01   5.669549016450e+01 
8
Step 50000
1 -3.228426174665e+01   1.618124353315e+01   2.061240509066e-01 
1  2.597697403919e+00   2.566748580176e+01  -1.348957686650e+01 
1  1.884104409704e+01  -2.457800674427e+01   6.274116882605e+00 
1  3.783826995073e+01   5.536542809915e+01   3.414855544202e+01 
1 -2.622927721164e+01  -5.276531853944e+01   3.299088099167e+01 
1  2.831630201258e+01  -6.081062820024e+01   9.520773778051e+00 
1 -4.026286196245e+01   9.882941307622e+00  -4.684863644381e+01 
1  1.113297115379e+00  -3.233258909882e+01   4.189011887124e+01 
8
Step 51000
1 -2.211795023526e+01   5.970426812870e+01   8.298647493256e+00 
1 -3.110898346249e+01   3.903391824865e+01  -1.019632868941e+01 
1  8.152796445478e+00   2.483380542066e+01   3.994776189929e+01 
1 -3.381209768755e+00   7.574459763806e+00   4.638198597138e+01 
1  1.124175671867e+01   7.955303316357e+00   2.428705645016e+01 
1  1.302830637375e+01  -5.021945116697e+01   3.938210298390e+01 
1 -1.115972502646e+00   9.872786899113e+00  -5.389286870292e+01 
1 -2.821414206485e+01  -2.121789371936e+01   1.422720628929e+01 
8
Step 52000
1 -3.909405980296e+01   2.357931035380e+01   8.488763664164e+00 
1  2.807488907174e+01   5.612394829617e+01   5.585425109012e+01 
1  1.034215712062e+01   5.127301517577e+01   7.608047216206e+01 
1 -3.249838352836e+01  -3.335567798728e+01   2.054154727481e+01 
1 -1.449244191800e+01   4.023661039350e+01  -9.658421018277e+00 
1 -2.177037048001e+01  -3.201437210490e+01  -3.925531086890e+00 
1 -1.380848112616e+01  -2.049148333696e+01  -5.775959534628e+01 
1 -2.356635928317e+01  -2.097151270219e+01  -1.563766732033e+01 
8
Step 53000
1  2.945027831217e+01  -1.280238571094e+01   2.359788072949e+01 
1  7.467860714360e+01   2.579994795294e+01   3.583070664415e+01 
1 -1.530276460362e+01   1.380423375591e+01   5.306194969013e+01 
1 -4.416453471339e+00  -1.404829659741e+01   6.111410507410e+00 
1  9.863703127052e+00  -1.423775566143e+01  -4.092840330651e+00 
1 -3.809308992208e+01  -5.135121716560e+01   1.351835465360e+00 
1 -3.613556171091e+01  -4.031158435355e+01   1.814463356562e+01 
1  1.874747041067e+01   5.606642271335e+00  -5.450101323777e+01 
8
Step 54000
1  4.147768257481e+01  -2.047654327003e+01   5.549911720370e+01 
1  4.379520187016e+01   1.366512390331e+01   2.513654782657e+01 
1 -3.631671882621e+01   2.168190640320e+01   4.533548820625e+01 
1  4.525292417804e+01   2.958029730408e+01   5.969193099404e+01 
1 -4.096394165361e+01  -1.245706997418e+01   4.135721111398e+01 
1 -2.401961595396e+00   4.807459288531e+01   9.744116815293e+01 
1 -6.477373465709e+01  -6.006226118486e+01   1.610599137083e+00 
1 -5.429929414499e+01   2.282718432958e+01  -3.024661128429e+01 
8
Step 55000
1  3.890500951860e+01   2.531305897816e+01  -2.950009499843e+01 
1  4.131803850502e+00   1.332648973679e+01  -4.378387678727e+01 
1 -2.405020829009e+01   5.701667664249e+01  -2.059160119592e+01 
1 -1.043448655451e+01   1.586901836507e+01   3.451265941268e+01 
1 -1.620095749454e+01  -4.791738612824e+01   2.634626902253e+01 
1  3.783810235603e+01   2.862045808028e+01  -1.158225071481e+01 
1 -6.430381769646e+01  -2.231142980272e+01   1.125476713037e+01 
1 -8.216455551555e+01  -4.723042375501e+01  -2.732473292080e+01 
8
Step 56000
1  4.125851564113e+01   7.498090092948e+00   5.979553406912e+00 
1 -2.831601648134e+00   2.100596240568e+01   5.690080093835e+01 