8
Step 0
1 -8.19206160314889189e+01 1.17668904556741950e+02 -2.97033021598792288e+01
1 -7.93215895090458929e+01 1.05023888631320204e+02 1.14341465972535332e+02
1 7.67622396710342514e+01 -1.29821115290509368e+02 -1.21067231261382062e+01
1 6.05098360353093767e+01 -1.76383016719461523e+01 1.43337446912598296e+02
1 4.09961205751411057e+01 -1.00249624765939416e+00 -6.52395336848756102e+01
1 4.68569894558842748e+00 7.04339154594725301e+01 -1.42510060823431303e+02
1 6.68875296348806216e+01 3.46813864137929215e+01 -1.09812060627859424e+02
1 1.96611271123377378e+01 1.37028237639027111e+02 1.00395745506992483e+02
8
Step 1000
1 -1.43777152753093009e+01 8.54055053097027468e+01 -5.03875098217459296e+01
1 -9.91956553071008074e+01 3.21945231782183541e+01 1.35136530770256854e+02
1 2.36000288184552502e+01 -1.32517988689265735e+02 3.56078011451356744e+01
1 2.49648656747295163e+01 -1.76178521184091998e+01 1.54387397488376564e+02
1 8.16998865014757314e+01 -2.10039788901166737e+01 -2.14660178029430107e+01
1 9.10627199855986760e+01 1.39947275803355950e+02 -1.49974259320172109e+02
1 5.74807832660101923e+01 -9.98630248620898620e+00 -1.01916638480991523e+02
1 4.81488372178038304e+00 6.95779739933588814e+01 1.32253314255358106e+02
8
Step 2000
1 6.30765392085904466e+01 3.28712537441059141e+01 -5.68821722525763604e+01
1 -6.88756413439467252e+01 -6.52115578650655152e+01 1.04149393839456778e+02
1 -3.66694666958743554e+01 -9.39738983678361990e+01 6.47536196237488042e+01
1 -1.18386904332149818e+01 -1.40123217654470800e+01 1.16452048090247956e+02
1 1.03172743773606399e+02 -2.19931385654947036e+01 2.97770937419044337e+01
1 1.51802277167217369e+02 1.47969486022189216e+02 -1.12127710384701146e+02
1 2.90861785419076391e+01 -5.46763058471079049e+01 -6.60449959719370980e+01
1 -9.60454748183758156e+00 -1.90689351350177105e+01 1.06386920062987343e+02
8
Step 3000
1 1.19700086302115281e+02 -1.94861384673714433e+01 -4.22795546126356854e+01
1 -7.49028748917630605e+00 -1.37025422911904201e+02 3.37918075237270514e+01
1 -8.63982830663809125e+01 -2.85210435770011514e+01 6.43217759560479578e+01
1 -4.32155273486066918e+01 -5.98282317904296068e+00 4.71677271240405389e+01
1 9.37737553807263708e+01 -8.05997255840381044e+00 6.25581018582982438e+01
1 1.63967596576096923e+02 1.05425858403478045e+02 -4.61536004874876156e+01
1 -3.63792035349872522e+00 -8.10522206200715090e+01 -1.16359910936632520e+01
1 -2.33263268733655664e+01 -9.38237144246233470e+01 3.72258519928082663e+01
8
Step 4000
1 1.32334125020000897e+02 -5.30708389806449219e+01 -1.15353438811907854e+01
1 4.85849620076701925e+01 -1.46463586093173916e+02 -4.32301513749029525e+01
1 -1.10598991766822977e+02 4.11975633102652310e+01 3.95811684928846645e+01
1 -6.45769282618441167e+01 7.14319538895121298e+00 -2.49190785549011480e+01
1 5.37327675915482601e+01 4.44681261875356704e+00 6.23442064970746799e+01
1 1.23310677308175002e+02 4.20558359451774919e+01 2.21967263116376365e+01
1 -2.70589401349319161e+01 -7.91489125826463749e+01 4.64311449507890188e+01
1 -3.70695948204322789e+01 -1.24247357581202948e+02 -3.97918944863742254e+01
8
Step 5000
1 9.55803058982176026e+01 -5.99782468610639512e+01 2.42593831660706520e+01
1 7.20847989976984991e+01 -9.38100703453644797e+01 -9.57410114188876094e+01
1 -1.02936080879189987e+02 9.27788741037343527e+01 6.49743568377334313e+00
1 -7.20642889323958542e+01 2.37139821402189170e+01 -7.42583964686578781e+01
1 -8.50974528854031931e+00 4.82834892935807414e+00 3.26227759419646617e+01
1 4.69996522085970767e+01 -9.62330646178483562e+00 6.95399773222047060e+01
1 -3.56296540937507373e+01 -5.12922363195184232e+01 9.19704226855752296e+01
1 -4.58209359187355858e+01 -1.06950043093279803e+02 -9.22593852568989945e+01
8
Step 6000
1 2.38528827361150384e+01 -4.80391326062389439e+01 5.38767486811888148e+01
1 5.79754005076681977e+01 -7.64343070860077134e+00 -1.10532746993069097e+02
1 -6.72566396566695488e+01 1.12232092771397120e+02 -1.75487567137318017e+01
1 -6.24093281771079162e+01 3.84950815261679367e+01 -8.92718603245023417e+01
1 -7.25766725353751241e+01 -7.67037773607617801e+00 -1.22473144186552041e+01
1 -3.46914767065154095e+01 -3.19979894064116088e+01 8.57390188375209306e+01
1 -3.20860835152882089e+01 -9.59400146360970574e+00 1.11628861525762332e+02
1 -4.58322449159482943e+01 -5.81425541228543565e+01 -1.02621132531487035e+02
8
Step 7000
1 -5.16683513225098636e+01 -3.15579417993121680e+01 6.36082868588038082e+01
1 1.92698552663268075e+01 7.11218557829604805e+01 -8.94456753971004730e+01
1 -1.56376845763786658e+01 9.72184596630625748e+01 -2.22424505388598170e+01
1 -3.47273687081066811e+01 4.39780064455394353e+01 -7.36349702849895493e+01
1 -1.12140388188232180e+02 -2.69927060559713858e+01 -5.19601933908000575e+01
1 -9.46797155555998700e+01 -2.77581486300654454e+01 7.54911377390334053e+01
1 -2.40985235606447752e+01 3.06361173403062281e+01 9.89261012990270245e+01
1 -3.64546043614033266e+01 -2.35189165776091072e-02 -7.27571034625785273e+01
8
Step 8000
1 -9.79783245839718262e+01 -2.10144384118238463e+01 4.56001143436407403e+01
1 -2.32556598593806960e+01 1.08504284135663141e+02 -4.48900213152140708e+01
1 3.51456605153415893e+01 5.60246015884594257e+01 -1.02003441573568612e+01
1 6.91225012666066707e+00 3.36735484867860890e+01 -4.09447887790578591e+01
1 -1.11567056119027995e+02 -3.98034997774621004e+01 -6.89563650821595644e+01
1 -1.17988840084498221e+02 -1.13494696833930551e+01 5.08166509895828185e+01
1 -1.92853243919834085e+01 5.78624376909225262e+01 5.66987774811989382e+01
1 -1.64173050430667686e+01 4.41498245856492417e+01 -1.99671736114108676e+01
8
Step 9000
1 -9.86532978740145694e+01 -2.04277975297994665e+01 8.39100563337792238e+00
1 -4.98613747141295889e+01 9.22487053089583071e+01 5.38652115857090941e+00
1 6.87438842397485672e+01 4.46914919742047889e+00 6.31770722108031357e+00
1 5.17489190366899976e+01 6.41791421909156146e+00 -7.72028431829969097e+00
1 -6.97734384875859490e+01 -3.50265170449891698e+01 -5.79634506871706208e+01
1 -1.01877833534172737e+02 1.84206006366171549e+00 2.37770216629146809e+01
1 -1.98743606635778498e+01 6.75967190729657972e+01 -3.17272884300276425e+00
1 1.08510744031686137e+01 6.25309150808635081e+01 3.23592469014038215e+01
8
Step 10000
1 -5.92513333983494448e+01 -2.58860577724926095e+01 -2.92031409790900369e+01
1 -4.93802765349985648e+01 3.36078568671537425e+01 4.56686128014659829e+01
1 7.57341469452748015e+01 -3.92969428480593876e+01 1.45956172298159892e+01
1 8.42950032549607187e+01 -3.13755095174215413e+01 1.40116059492177651e+01
1 5.67553433662665446e-02 -1.04100272860279812e+01 -2.48079889812890713e+01
1 -5.43658538273596648e+01 1.92961270401495755e+00 2.51503088886960269e+00
1 -2.11684186865629513e+01 6.10770695332238560e+01 -6.26349723553418301e+01
1 3.68147575944123631e+01 5.72260096341227964e+01 6.42880566798732360e+01
8
Step 11000
1 -1.67344824940128256e+00 -2.55676060353917833e+01 -5.19148973242049578e+01
1 -2.47410777824205965e+01 -3.88557248627448431e+01 6.80247207194270658e+01
1 5.77402640114001784e+01 -6.27522283457509573e+01 8.54095620208876127e+00
1 8.98798288934087708e+01 -6.70881158535916171e+01 2.13204451186288821e+01
1 7.09271829412891748e+01 2.68783034924099553e+01 1.74484799946008948e+01
1 7.39327390581526256e+00 -1.22392064097085473e+01 -1.04856976293206543e+01
1 -1.55084575910829230e+01 4.23017576739386598e+01 -1.02416031476703111e+02
1 5.32476627560697935e+01 3.64606181546409260e+01 6.74129340827825985e+01
8
Step 12000
1 4.53522139383075711e+01 -9.79650095625083672e+00 -5.09780899533948215e+01
1 9.08395980040115170e+00 -9.09406725106270244e+01 7.12579662164981471e+01
1 2.60321400801822413e+01 -6.31451628185889788e+01 -9.79902811920140770e+00
1 6.03563577420089814e+01 -8.51001349895450687e+01 1.88926036796807040e+01
1 1.14315711905305776e+02 6.07967396857647628e+01 5.18657238443654549e+01
1 6.18597762980832826e+01 -3.26583441034439517e+01 -1.80806081909951750e+01
1 2.29655704419993745e+00 1.54532492640953514e+01 -1.07937260485885247e+02
1 5.45499623832350267e+01 1.07954789875185444e+01 4.61760692726466004e+01
8
Step 13000
1 6.00175154530686825e+01 2.08512643023831892e+01 -2.58931624443082420e+01
1 3.61722301247307527e+01 -9.86924959772587727e+01 5.73851092877140943e+01
1 -4.39112393952358548e+00 -4.66410609048684748e+01 -3.09189864649946919e+01
1 -1.80110378181764652e+00 -7.13446699875942159e+01 1.44669750384049891e+01
1 1.14212761464598515e+02 7.40329796713410246e+01 6.64582187932026756e+01
1 9.10984489303630909e+01 -4.63671121746413561e+01 -2.57576445817520394e+01
1 3.17052711857408660e+01 -1.64926455915740888e+01 -7.38814083253530072e+01
1 3.79021149904237333e+01 -1.02821873565347239e+01 1.17720213790474464e+01
8
Step 14000
1 3.95670432394169964e+01 5.72360371625999917e+01 1.04285558294795422e+01
1 4.56936412071300140e+01 -5.96156858639165179e+01 3.23621379463160252e+01
1 -2.15611947143322311e+01 -2.40201522407253094e+01 -4.25836999854841451e+01
1 -7.86775438997494803e+01 -2.09617358621689647e+01 1.44138120182210372e+01
1 6.97121773778770688e+01 5.71914030241996727e+01 5.80642342445170883e+01
1 8.72199776112394005e+01 -4.23156152369084637e+01 -3.71717197735456608e+01
1 6.39861120354247035e+01 -4.96975939598195211e+01 -7.55738979837188651e+00
1 6.56408567625213912e+00 -2.33013828433941015e+01 -2.22018512670744386e+01
8
Step 15000
1 -6.94695111547061539e-01 8.42963865308930309e+01 3.89725272408816608e+01
1 3.45195034835778856e+01 7.36378813984001823e+00 3.60120680030152895e+00
1 -2.13757923827167602e+01 -4.96707799617974111e+00 -3.68455809684329623e+01
1 -1.37484913812378352e+02 5.24795804262741044e+01 1.99112253311753875e+01
1 -4.14801258128623562e+00 1.12011037008015784e+01 2.96997583502173654e+01
1 5.43112955079190272e+01 -1.63289751123589575e+01 -5.04118361080696289e+01
1 8.33293231659096847e+01 -7.66621500554741857e+01 6.85266111002888607e+01
1 -2.98176944515682010e+01 -2.85598542652139891e+01 -4.29866183892214266e+01
8
Step 16000
1 -3.85996087415342899e+01 8.65136761282366678e+01 4.80065389755375307e+01
1 8.91368079448403705e+00 7.04379496323747389e+01 -2.37450768985054808e+01
1 -8.37263315451619050e+00 5.78862076456578567e+00 -1.40482511740586453e+01
1 -1.46960098182592930e+02 1.19239167850537740e+02 2.55558265501350554e+01
1 -7.63013976561093301e+01 -4.88755936322266109e+01 -7.97601922006095876e+00
1 6.85758483235980965e+00 2.59539739249729280e+01 -5.80607087261999197e+01
1 7.50548327888014200e+01 -8.77022720653259285e+01 1.23529716493697464e+02
1 -5.86722987069711408e+01 -2.75115437272475774e+01 -4.51096939631850091e+01
8
Step 17000
1 -5.43866094555809312e+01 5.68884149865220863e+01 3.47107748551859743e+01
1 -1.78307417640224308e+01 1.00864994775517928e+02 -4.59691923694195594e+01
1 6.67873281739386560e+00 9.28673654373625901e+00 1.91736705483218337e+01
1 -9.69457699346887694e+01 1.48083904436244467e+02 2.34130259260925371e+01
1 -1.15143148865337508e+02 -9.62572063404728482e+01 -3.99822182429700206e+01
1 -3.56123691180197639e+01 6.91822368977824738e+01 -5.07597092546572881e+01
1 3.49210168475903728e+01 -7.54452234644936084e+01 1.33577027658446269e+02
1 -6.92179912921372420e+01 -2.27649960933803008e+01 -3.18229534310515589e+01
8
Step 18000
1 -3.78953627439457037e+01 1.10846117300907943e+00 3.80796271676331033e+00
1 -3.38600583048712522e+01 8.65939343102508872e+01 -5.85803594902670284e+01
1 1.26490825877289019e+01 1.05740076100587910e+01 5.21379783973752708e+01
1 -4.77380048369332677e+00 1.21212778950470295e+02 8.84143668489561740e+00
1 -1.06699332176637014e+02 -1.08289408052933041e+02 -5.68879304284426937e+01
1 -5.72972125761631261e+01 9.46926069018478387e+01 -2.27860001919275135e+01
1 -2.69393402757734748e+01 -3.84689231494632793e+01 9.33993579117014434e+01
1 -5.61409937554708875e+01 -1.55106946770219984e+01 -1.13478500377946165e+01
8
Step 19000
1 4.22554977945839916e+00 -6.32220444686916352e+01 -3.04363290840292073e+01
1 -3.42286817470567044e+01 3.54048262817105481e+01 -5.86525178794958606e+01
1 3.84744160127130064e+00 1.43467274283200084e+01 7.19624458390776454e+01
1 8.90518013395854098e+01 4.61977070393637916e+01 -1.48777168406210603e+01
1 -5.69684809917739159e+01 -7.69390535836121927e+01 -5.63927242350281759e+01
1 -5.27562564986394449e+01 8.90323319917475402e+01 2.27221226508771430e+01
1 -8.69527962876789786e+01 1.51753527381004982e+01 2.08876361174909704e+01
1 -2.19353384252909258e+01 -4.39402085533154008e+00 6.87264785292031988e+00
8
Step 20000
1 5.12172455024610613e+01 -1.11508031856210508e+02 -5.13273907686600950e+01
1 -2.11511090687098111e+01 -2.96900304584773131e+01 -4.56926502994973234e+01
1 -1.74647245088246947e+01 2.15794092668778923e+01 6.82587616104382846e+01
1 1.40722720255849453e+02 -4.35696206532034438e+01 -3.67607434456043976e+01
1 1.14000927166419501e+01 -1.03726885383383411e+01 -4.05331161367857788e+01
1 -2.82438377050365901e+01 4.92596640016323306e+01 7.24209992829671876e+01
1 -1.18599697567097735e+02 6.82390410853748222e+01 -5.03533497393595511e+01
1 2.26410469220509185e+01 1.00906736697482788e+01 1.65038364786452192e+01
8
Step 21000
1 8.04334904797527770e+01 -1.23892843842479905e+02 -5.01465880803853494e+01
1 -1.17589255960747652e+00 -7.90398645796259274e+01 -2.14084842651915785e+01
1 -4.17853104950962901e+01 2.90406709573795361e+01 3.86635690625298949e+01
1 1.30021425869580980e+02 -1.09631239737678982e+02 -4.54431390149743351e+01
1 6.62124690985941982e+01 6.46660241846898316e+01 -1.68087616034076071e+01
1 1.48991486438280640e+00 -1.37447737982219618e+01 1.07312804451707493e+02
1 -1.08177248873210957e+02 1.02309563670715619e+02 -9.06012739629309891e+01
1 6.17475247975171797e+01 2.48053022906439331e+01 1.76490259199520985e+01
8
Step 22000
1 7.66550275778818531e+01 -9.44908970983811827e+01 -2.75726509946009024e+01
1 1.70751933020629600e+01 -9.17161477759895547e+01 9.31536665636769889e+00
1 -5.57470152367458027e+01 3.10994316130902995e+01 -9.54677789849579383e+00
1 6.84630882774739291e+01 -1.28152215809820802e+02 -3.62631610584919670e+01
1 8.42154183402229251e+01 1.14680379886996676e+02 6.13775972176961826e+00
1 2.05571522209734212e+01 -7.74217201189835862e+01 1.11341993107038391e+02
1 -6.01355233323977529e+01 1.05649056318870322e+02 -8.80465404578401660e+01
1 8.05582117973926017e+01 3.54283758910753903e+01 1.42876213745119482e+01
8
Step 23000
1 3.81863786387558690e+01 -3.27945821659921464e+01 6.98838877873523945e+00
1 2.64555094409638727e+01 -6.59038098949248621e+01 3.88702482395909712e+01
1 -4.90693162327061287e+01 2.33234750514220082e+01 -6.18041273981765329e+01
1 -1.06825414506843543e+01 -9.72380122637549675e+01 -1.32689225185649722e+01
1 6.29736290942738961e+01 1.18617690675660839e+02 2.40441599914199884e+01
1 2.03837844783111706e+01 -1.17650371023625354e+02 7.96164038020070137e+01
1 6.43913908323266337e+00 7.63740920345507703e+01 -5.17561917674899377e+01
1 7.14647394786528594e+01 3.71683472814872857e+01 1.25073878765338069e+01
8
Step 24000
1 -1.91610615488410581e+01 3.85558507642509127e+01 3.70424106873199790e+01
1 2.44766360519107664e+01 -1.60317989210731007e+01 5.97482615298007360e+01
1 -2.03934827343924994e+01 5.99411327872696820e+00 -9.97807111310894754e+01
1 -6.93236696976271247e+01 -3.66126555732618684e+01 1.23488589244843041e+01
1 1.73916186504835046e+01 7.47094134434568673e+01 3.58517495212863153e+01
1 3.57781430375176468e+00 -1.19034552716548930e+02 2.09123975315497290e+01
1 6.47516898090498216e+01 2.40898603365055735e+01 -5.88839995244643344e+00
1 3.62836461144990494e+01 2.61206977836239354e+01 1.67426815234012132e+01
8
Step 25000
1 -6.92878507892245636e+01 9.24397007543795866e+01 4.83643458369733636e+01
1 1.34597809998635647e+01 3.60119294509026204e+01 6.62796402766958153e+01
1 2.20196235607997686e+01 -1.55822232472328110e+01 -1.07840786675952813e+02
1 -8.42626294216953369e+01 2.41258074618921619e+01 2.82318856524593187e+01
1 -2.84788496535914142e+01 -4.89809370876842010e-01 4.13788699802426052e+01
1 -1.81179427277349951e+01 -7.99108849770448586e+01 -4.52740491143047876e+01
1 9.29960412105108816e+01 -3.27795905770183822e+01 2.47007518365663543e+01
1 -1.39553051234606773e+01 3.06878789128811258e+00 2.46246475923166130e+01
8
Step 26000
1 -9.12790527141728489e+01 1.11628961965767701e+02 3.75749950133025052e+01
1 -1.57412151622648500e+00 6.79844455904214868e+01 5.57980737952998780e+01
1 6.33810927730003471e+01 -3.34775403586364035e+01 -8.00619326308584647e+01
1 -5.63995046757520697e+01 6.14319589455558344e+01 2.76467491735658477e+01
1 -5.21874697072839879e+01 -7.52222978881948023e+01 4.08288675096863543e+01
1 -2.98852664113659259e+01 -1.41202164279391074e+01 -9.63379915290055635e+01
1 8.48424556401832746e+01 -7.50868181632249474e+01 2.80499853888862276e+01
1 -6.17936820391051498e+01 -2.43654009276847923e+01 2.79651428111683487e+01
8
Step 27000
1 -7.80068349727689281e+01 9.53524962289805273e+01 1.15517568599372336e+01
1 -1.51000468965304115e+01 6.72493906560831931e+01 2.99997699528420014e+01
1 8.79504665288175431e+01 -4.05944950876789434e+01 -2.37100404257890638e+01
1 -6.12282167421974144e+00 6.55283264556053382e+01 1.26741781778267804e+01
1 -4.47589769965301016e+01 -1.17809372540624679e+02 3.32297404562035226e+01
1 -2.22010757113477979e+01 5.34575656337068423e+01 -1.16091782803858791e+02
1 4.96585065739937548e+01 -8.99472334686810058e+01 8.91651694968925135e+00
1 -8.94859357363302905e+01 -4.47895028700195823e+01 1.88243662294975245e+01
8
Step 28000
1 -3.68069120551540720e+01 5.56383338523995121e+01 -1.66153052323101598e+01
1 -2.29603928031504836e+01 3.76026631683585961e+01 -5.17270475248206996e+00
1 8.61568980864764740e+01 -3.49518927357679274e+01 4.31065359112710098e+01
1 3.83780304959737677e+01 4.19642662911226907e+01 -7.23921130360084852e+00
1 -1.35936156603932048e+01 -1.12284728917336494e+02 1.68494224691576271e+01
1 3.68198147139513265e+00 9.86769105280723409e+01 -1.01561647768149953e+02
1 6.17848211087274990e+00 -7.46859476587205648e+01 -1.49757562279940917e+01
1 -8.67342973432813267e+01 -4.87699392148734603e+01 -6.38861492404162323e+00
8
Step 29000
1 1.35834574476873406e+01 9.77971270826303218e+00 -3.26250676131193202e+01
1 -2.29855068626818770e+01 -5.08687339089762691e+00 -4.14045714392281283e+01
1 5.84590691755760403e+01 -2.07009821920245578e+01 9.81099787556115359e+01
1 5.49608951053776948e+01 7.28914839184675412e+00 -2.02024904615200072e+01
1 2.33638014646378487e+01 -6.25174882127035332e+01 -7.76701919804513086e+00
1 3.63035077321963513e+01 1.08608912215154149e+02 -6.19832861956539745e+01
1 -2.64825553437605983e+01 -3.74707956824665942e+01 -2.37827034974915676e+01
1 -5.37981271150098763e+01 -3.24411469281410163e+01 -4.39006828066144195e+01
8
Step 30000
1 5.18087462839268582e+01 -2.76127849870428257e+01 -2.84300381931422415e+01
1 -1.44885893592486141e+01 -4.30207718375434354e+01 -6.98348670097153104e+01
1 1.39204632140296258e+01 -4.99992139524737667e+00 1.23035238804853620e+02
1 3.73787980941758136e+01 -1.99630666794692360e+01 -1.76728005001337287e+01
1 4.59856017049043402e+01 1.09294323366093291e+01 -3.58894302967511294e+01
1 6.00629665581432164e+01 8.40253493862902587e+01 -1.24579955083786817e+01
1 -3.73525294487644786e+01 6.23369938181062277e+00 -7.43110164320602262e+00
1 -1.59073595912106502e+00 -8.91058668987373265e-03 -8.11427355219150144e+01
8
Step 31000
1 6.46329466006974513e+01 -4.94414158949497988e+01 -7.42715153214421520e+00
1 8.64089343956666145e-01 -6.11338118799053589e+01 -8.21033719916339209e+01
1 -3.40677381720975276e+01 5.97925558987790229e+00 1.09958172771641571e+02
1 -3.17634782259081350e+00 -2.76439267173710128e+01 1.15758970398757066e+00
1 4.20939199648411062e+01 7.77459215234356691e+01 -5.92095483242763976e+01
1 6.26595718252824341e+01 3.64564446631464492e+01 3.22755012596760480e+01
1 -2.75096608739720381e+01 3.96164365019943361e+01 2.83472760129152981e+01
1 5.18111912556268379e+01 3.45297887986711061e+01 -9.99303372721227987e+01
8
Step 32000
1 5.23272034862127313e+01 -5.67349329314597242e+01 1.73080024063627889e+01
1 1.88674585008531359e+01 -5.06409369271781529e+01 -7.23358826685483791e+01
1 -7.24844407440750444e+01 9.95821731137518285e+00 6.36046219273058639e+01
1 -4.43037698106313940e+01 -1.49086515899836378e+01 2.75576389500281174e+01
1 1.37826860278169256e+01 1.10836125827123254e+02 -6.84238237089652586e+01
1 4.03561661447003317e+01 -1.58642306954655918e+01 6.21177535765515572e+01
1 -8.25953611402343668e+00 5.14332368244866558e+01 6.40958360182924309e+01
1 8.85457133776669139e+01 5.27783129114954761e+01 -8.39405165513213660e+01
8
Step 33000
1 2.61417489364368976e+01 -5.59719457572507153e+01 3.06933780576219384e+01
1 3.46139209510701704e+01 -1.58617643613182793e+01 -4.02671145799133114e+01
1 -9.23776461988303765e+01 9.66160496718369721e+00 -2.26219432126850112e-01
1 -6.43308446673754730e+01 8.63324738595480490e+00 4.68622026956386293e+01
1 -2.53537398870998985e+01 9.90618373815183162e+01 -5.65965653654223786e+01
1 -3.77870985242328539e-01 -5.51115803889385418e+01 7.39589222683945593e+01
1 5.72273274880269422e+00 4.06088244351018304e+01 7.70051963514721365e+01
1 9.70422278635704316e+01 4.39571201428519132e+01 -2.93313209897226876e+01
8
Step 34000
1 8.75292722141340129e-01 -5.19481768432809119e+01 2.30173364691816325e+01
1 4.23805924022745870e+01 2.68559809027203578e+01 6.56597505859813957e+00
1 -9.04304399798973293e+01 1.04362762955179793e+01 -6.04716937386349045e+01
1 -5.27611725085275225e+01 2.83420072476406872e+01 4.57136418518158365e+01
1 -5.78954518642483151e+01 5.00283357495202239e+01 -2.35613506730132549e+01
1 -4.54143661141575308e+01 -7.15190518147268079e+01 7.11246295673867905e+01
1 4.25464650745877826e+00 1.52292094119432466e+01 5.31073972593991357e+01
1 7.55547299743952863e+01 1.08508809267266315e+01 5.01599745007038322e+01
8
Step 35000
1 -1.26905833050716197e+01 -4.31471376349486775e+01 -5.51187303646204363e+00
1 3.54256042538151945e+01 5.96125583472732075e+01 5.48071857815816443e+01
1 -6.84906208972088848e+01 1.59805631410303715e+01 -9.88863176738727816e+01
1 -1.39628169232188082e+01 3.05897351733181750e+01 1.87736220870367667e+01
1 -6.80430135024626139e+01 -1.63323894255589792e+01 2.12246657925810780e+01
1 -7.93218315115377806e+01 -6.51691774776474944e+01 5.84755261448295727e+01
1 -1.40006976611232847e+01 -1.07748112108703005e+01 -5.75089473387050720e+00
1 3.33790594396283780e+01 -3.03870059057075785e+01 1.27708523021254948e+02
8
Step 36000
1 -1.24497375412025004e+01 -2.48076643122606058e+01 -4.28899808332520323e+01
1 1.22747406850494247e+01 7.05899401293366111e+01 8.92375842837007411e+01
1 -3.20342157805602525e+01 2.63286786725146200e+01 -1.05943133317768556e+02
1 3.40271805635269970e+01 1.03168402289170107e+01 -2.67385606651060606e+01
1 -4.75981127528572543e+01 -7.59960629682005617e+01 6.37856576974624971e+01
1 -9.10154589871856103e+01 -4.31234991854592806e+01 3.85811159459195494e+01
1 -3.98178077391001750e+01 -2.28947211606194969e+01 -7.86508118297400500e+01
1 -1.50529557634811937e+01 -5.70419774487278346e+01 1.72212496407756845e+02
8
Step 37000
1 -5.50232163529417484e+00 4.07987961960227707e+00 -6.78903456225935571e+01
1 -1.86681145329710709e+01 5.42390967698203355e+01 9.80374549085890266e+01
1 1.24894034985962872e+01 3.70269947944666811e+01 -8.25469448815380105e+01
1 6.76308330319745323e+01 -2.38993630336230005e+01 -7.21016696802419261e+01
1 -2.48907877153873169e+00 -1.05710398556272239e+02 9.09874858749352882e+01
1 -7.61337028218862031e+01 -1.50599055216254065e+01 1.27928053989318737e+01
1 -5.68800059892370768e+01 -1.39590605914966357e+01 -1.31998951777313835e+02
1 -5.69934261514320823e+01 -5.23754979078861069e+01 1.60406722700498676e+02
8
Step 38000
1 -2.82484963877376405e+00 3.92049991971387115e+01 -6.12761858785631333e+01
1 -4.63510082667950982e+01 1.55336643458866295e+01 7.85556286109234208e+01
1 5.81489918454113521e+01 4.07349619324079129e+01 -3.87144986741941395e+01
1 7.16052916586935311e+01 -5.43160008083281056e+01 -9.55849923957105148e+01
1 5.07438480664158789e+01 -9.43020830998156327e+01 9.18802889969454526e+01
1 -3.75427381381109626e+01 9.94795695272346059e+00 -1.67502449774807367e+01
1 -5.02494699265819378e+01 1.16888605554770777e+01 -1.36175925977496291e+02
1 -8.21661753736410674e+01 -1.56511319877975374e+01 8.97167729898642392e+01
8
Step 39000
1 -1.20678471576603972e+01 7.09775725611451520e+01 -1.60125683530817433e+01
1 -6.30372884448947204e+01 -2.92239501618185038e+01 3.84993139685455290e+01
1 9.69512923950058507e+01 3.07394571957429115e+01 1.01400353081914361e+01
1 4.62241046627693208e+01 -6.41991365543144923e+01 -8.30329931422104437e+01
1 9.48640936838430662e+01 -4.91510395705977388e+01 6.25312200194519932e+01
1 1.48340780468715518e+01 2.64116830869515340e+01 -4.64486405184174203e+01
1 -1.40658120139035940e+01 4.03708823288692713e+01 -7.93324957376311062e+01
1 -8.48105438339286763e+01 3.52757558719611239e+01 -1.67587668579864761e+01
8
Step 40000
1 -3.31796844730599787e+01 8.55153856822346228e+01 5.85323797136382709e+01
1 -5.99461728380089696e+01 -6.28677353890549497e+01 -9.53025831744702856e+00
1 1.19441163546429522e+02 5.01950020448546042e+00 4.91580179625890636e+01
1 3.93775613264774194e+00 -4.56260036456324798e+01 -3.48882902889654005e+01
1 1.12980139646083131e+02 1.06133260518427210e+01 1.23567856552379816e+01
1 6.66290652714394014e+01 3.32772814843083609e+01 -6.97182920306230329e+01
1 4.39830434448055456e+01 5.34646482649357395e+01 2.31294766186773586e+01
1 -6.65495724301160436e+01 7.25233770824049344e+01 -1.20031381675482578e+02
8
Step 41000
1 -5.55049549074364705e+01 7.06963064346428069e+01 1.34920215003850444e+02
1 -3.07875085170908918e+01 -7.81397409070045512e+01 -5.26455902396247168e+01
1 1.16416007103286461e+02 -3.18895094984667331e+01 6.88599501265736933e+01
1 -3.65867288633856731e+01 -2.85801400349793155e+00 3.20645826990837008e+01
1 9.18195318442073614e+01 6.34860729174321534e+01 -4.26022017461056492e+01
1 1.03226638660759249e+02 3.28823228013757785e+01 -7.79757122657789239e+01
1 1.00222737246897069e+02 3.77371595626593503e+01 1.26642392684673837e+02
1 -3.25117748778135223e+01 7.59613284753130529e+01 -1.82135009011534464e+02
8
Step 42000
1 -6.02932133894584439e+01 2.75129225302473905e+01 1.73401439948319137e+02
1 1.35835964695489810e+01 -7.11265754294634291e+01 -7.92402658433719580e+01
1 8.18743616946714212e+01 -7.07316619453529398e+01 6.70628183441039454e+01
1 -5.61673080636844730e+01 4.67091720798469794e+01 9.08058547015314588e+01
1 3.56611327272950476e+01 8.85874875616747488e+01 -8.65991134091267298e+01
1 1.13211553805463254e+02 2.83796051337983961e+01 -6.53030557607010564e+01
1 1.27738458387564634e+02 -3.26846272333567489e+00 1.81861588402263493e+02
1 9.79580465520564658e+00 4.15698661385972983e+01 -1.80882228001838200e+02
8
Step 43000
1 -3.50927355664517648e+01 -2.73123918190579218e+01 1.45227053701287616e+02
1 5.44263929734004961e+01 -4.08096592521253712e+01 -8.34474868335833833e+01
1 1.51169230070399898e+01 -9.90690330840539986e+01 4.74107344537371063e+01
1 -4.74089144985248012e+01 7.93940258931179841e+01 1.17295554836868305e+02
1 -3.35660233549467861e+01 7.88677033735411470e+01 -1.06040607068129489e+02
1 9.13084211847149589e+01 2.14121369536634916e+01 -3.23344492605404952e+01
1 1.11738896107058238e+02 -5.26729714032044853e+01 1.63187703952214463e+02
1 4.91440009182472437e+01 -1.79451168682544200e+01 -1.17794142285458051e+02
8
Step 44000
1 1.61813514933088456e+01 -6.91901630512420383e+01 5.28687872141454207e+01
1 8.06329518487237635e+01 5.33925113991222666e+00 -6.64541822481001248e+01
1 -7.69342710800171687e+01 -1.02148030975431453e+02 1.82495669552593114e+01
1 -1.88837942920869821e+01 7.74487760804402541e+01 1.01414502372594001e+02
1 -9.27612592517313601e+01 4.51116241393773976e+01 -9.54620842586312364e+01
1 4.00307746318518838e+01 1.22398040865487516e+01 1.27580712560805569e+01
1 5.37915986514534978e+01 -8.76918089802024525e+01 7.83018532252534385e+01
1 7.46709597708471478e+01 -7.47226726601442124e+01 -1.93735071142972970e+01
8
Step 45000
1 7.26180671830989013e+01 -7.78888882064362917e+01 -6.60726677402023341e+01
1 8.22355876441595370e+01 5.34518171271898197e+01 -3.36779003887321338e+01
1 -1.71065065325954151e+02 -6.92295931535198577e+01 -1.00623458898268758e+01
1 1.26277383730889170e+01 3.90020267359376049e+01 5.11155059090358037e+01
1 -1.23754938779321577e+02 5.61302168390331602e+00 -6.03535702292127283e+01
1 -2.87396876767514939e+01 7.60410457790248850e-01 5.53576801684660325e+01
1 -2.40431840766859608e+01 -8.91039948578075069e+01 -3.08260805773112416e+01
1 7.87485992771332661e+01 -1.01555657021298430e+02 7.54232875332348556e+01
8
Step 46000
1 1.07312549436858902e+02 -5.09010397795617777e+01 -1.61408135639082644e+02
1 4.92748347680620356e+01 8.98959055728521150e+01 8.00328971599975958e+00
1 -2.29921658908033692e+02 -3.71747942722686764e+00 -2.81129693906758469e+01
1 3.07654663222781188e+01 -2.02626467978067026e+01 -1.05016592636567161e+01
1 -1.12327399291400582e+02 -2.48207232952765970e+01 -1.07114904402919944e+01
1 -9.48467102963008557e+01 -1.34626019610582404e+01 7.95246259869733194e+01
1 -8.85719629076839965e+01 -5.53108469736164423e+01 -1.10324569317149837e+02
1 5.85766583771272522e+01 -8.81873582178519371e+01 1.34601737923169026e+02
8
Step 47000
1 9.97513310994019662e+01 -7.70594260308735812e+00 -1.94029528770343347e+02
1 -5.16682553427574209e+00 1.01612248722694105e+02 4.89229918858497328e+01
1 -2.21849953053200664e+02 7.52355972025970061e+01 -3.29780241811092623e+01
1 2.53284013660791381e+01 -7.38495531430645258e+01 -5.79844281125965111e+01
1 -6.24586045810970987e+01 -3.70315668243246208e+01 3.92743388889373719e+01
1 -1.36101163934662424e+02 -2.88575752018488707e+01 7.61518385699463920e+01
1 -1.17669605908626224e+02 -2.40877974735640965e+00 -1.31545674797380400e+02
1 2.09038817821000897e+01 -4.11868704314424718e+01 1.43116942653018896e+02
8
Step 48000
1 5.15449923036290443e+01 2.24614517945356233e+01 -1.54226845905224991e+02
1 -5.51431042373250975e+01 8.11723876284503660e+01 7.87746324491828460e+01
1 -1.40837933480618148e+02 1.39895518793092776e+02 -2.85133484014657483e+01
1 3.22791877386198522e-01 -9.54142716573101239e+01 -7.63984618430644673e+01