8
Step 0
1  2.130326814812e+00   3.841428738278e+01  -3.900125211552e+01 
1  3.567597752465e+00  -3.504277063756e+01   3.861701022475e+01 
1  6.258847992801e+01  -7.076539324116e+01   6.450599359103e+01 
1  5.978855273526e+01  -4.628740992298e+01  -3.331699604665e+01 
1  5.663920321690e+01  -5.214564811192e+01   5.649937483509e+01 
1 -4.885508989697e+01   7.742773658779e+01   3.518899981800e+01 
1  3.981944038262e+01  -7.472662646084e+01  -5.860625198879e+01 
1 -7.332626035848e+01  -1.421247514719e+01  -1.259120980933e+01 
8
Step 1000
1  3.720893113009e+00  -4.010270869642e+01  -2.284403140984e+01 
1 -2.214094544282e+00  -1.405899767619e+01   2.642320893212e+01 
1  1.966132543520e+01   2.943185078940e+01  -8.561932877459e+00 
1  8.088555833322e-02  -1.450094252097e+00  -2.112538456802e+01 
1 -2.129808061477e+00   7.291490246635e+00  -3.369693816211e+01 
1 -2.282884013987e+01  -3.636403465825e+01   4.949778395959e+01 
1  4.304079723787e+01  -2.159199938851e+01   1.725254056070e+01 
1  1.966017221453e+01  -1.156535112940e+01   1.814252208415e+01 
8
Step 2000
1 -1.068359736526e+01  -9.142925986959e+00  -3.750866361186e+00 
1  1.011993598324e+01  -7.397977737104e+01  -1.981171720698e+00 
1  1.481444513011e+01   3.171148597977e+01   1.915940834752e+00 
1 -2.632430627962e+00  -3.038202318662e+01  -9.026057030245e+00 
1 -8.025335861463e+00   2.858661543021e+01  -1.081490261244e+01 
1 -1.679461725567e+01  -6.049580640242e+01   1.821021389980e+01 
1 -1.314290164090e+01  -1.930470867328e+01  -2.220065784460e+01 
1 -1.467057009488e+01  -3.594468980724e+01  -8.908372518936e+00 
8
Step 3000
1 -1.012189851800e+01  -1.032882304233e+01   3.006673685461e+01 
1  4.253965366891e+01   1.439231680657e+01  -8.600827028574e+01 
1 -5.775059071833e+00   2.495823190358e+01  -7.005782193963e+00 
1  1.046942346940e+01   5.294464299292e+00   3.584197451296e+00 
1 -6.620178131601e+01  -7.247201442544e+01   2.072343766589e+01 
1  1.637036723716e+01  -2.098323990866e+01   3.568471547163e+01 
1  1.427041286506e+01  -3.704071661342e+00  -2.572127579574e+01 
1  5.221603043650e+01  -4.799825923749e+01  -2.129739896901e+01 
8
Step 4000
1  4.939022972226e+00  -2.307833788809e+01   2.842335889615e+01 
1 -2.059774741775e+01   1.155847443232e+01   4.405871528881e+01 
1 -4.749937497130e+00   5.963165626411e+00  -1.846829202899e+01 
1  2.765588980740e+01   4.163773122182e+01   3.543187552073e+01 
1  9.909746980889e+00  -4.231084635713e+00   1.089571628122e+01 
1  6.675078454652e+00  -3.351594173781e+01   1.329690024468e+01 
1 -2.183570303871e+01  -3.758417746346e+01  -5.434663162746e+01 
1  4.110293895140e+01  -6.009050951654e+00  -5.980160386461e-01 
8
Step 5000
1 -6.238110869625e+01  -3.617981515215e+01   2.314132847578e+01 
1 -4.988475130525e+00   1.360720213377e+01  -1.681760082940e+01 
1  2.245722820910e+01   2.679216845699e+01  -6.336170851649e+00 
1 -4.277234898332e+01  -3.132843120363e+01  -2.907477692962e+01 
1  2.629601775027e+01  -3.780506071992e+01   2.642563817235e+01 
1 -2.051993597751e+01  -6.311983247072e+01   1.344879285135e+01 
1 -8.692271257117e+00  -1.222937449074e+01   2.025374613778e+01 
1 -2.323403091175e+01   5.283145895507e+01   9.439897636647e-01 
8
Step 6000
1 -2.316847954222e+01  -7.365099019030e+01   5.431498800885e+00 
1 -8.567792390456e+00   2.790156131216e+01   1.519223333901e+01 
1 -5.990926915680e+01   3.100288572089e+01   3.859971927011e+00 
1  2.583122203844e+01  -4.155307096111e+01  -1.169164249437e+01 
1  1.316633267634e+01   2.942265211778e+01   1.433261612008e+01 
1  3.196248958782e+01  -5.355085641319e+01   4.213893904227e+00 
1  5.812404314819e+01   3.162641435112e+00  -1.205896586489e+01 
1 -1.309266069918e+01   1.291316809993e+01   1.374701925609e+01 
8
Step 7000
1 -4.058560329555e+01   5.710105308665e+01   1.003536515123e+01 
1  6.932181716543e+00  -8.380923359800e+00   3.910683892103e+01 
1 -9.488362412959e+01   1.015420682210e+00  -3.399251198480e+01 
1  8.863149105210e+01  -5.516199145205e+01   1.180083847588e+01 
1  6.990917171207e+00  -2.123945985503e+00   1.242768028241e+01 
1 -2.474164167618e+01  -2.551287947025e+01   2.570981591708e+00 
1 -5.991817626259e+00   2.861433352363e+01  -6.447940651731e+01 
1  4.027159745448e+01  -3.045739620074e+01  -1.444735736422e+01 
8
Step 8000
1 -2.921471554147e+01   2.510394962489e+01   5.362157856425e+01 
1 -7.914849210066e+00   3.129873067705e+01  -1.896746817799e+01 
1  2.061973651223e+01  -1.160407398504e+01   3.626455681185e+01 
1 -8.702728720859e+00   1.244944762402e+00  -3.337604909253e+01 
1  3.552458475862e+00   1.121761254812e+01  -2.641646477077e+01 
1  1.679955295601e+01   4.012157346539e+01  -2.889300603783e+01 
1  7.807696136421e+01   7.624016697661e+01   1.386747576305e+00 
1  4.492254628166e+01   8.258602762523e+00  -4.432671300502e+00 
8
Step 9000
1 -3.175744750104e+01  -5.038810066090e+00   5.208905981776e+00 
1  1.939239590661e+01   2.374520709453e+01   4.259520301700e+01 
1  1.815883838432e+01  -4.511671341565e+01   2.502255821200e+01 
1 -1.063153279161e+02   7.564259196958e+00  -1.135608350668e+01 
1  2.330714193498e-01   8.944407519146e+00  -3.275962874985e+01 
1 -1.541467519285e+01  -5.563748870658e+01   1.878184669552e+01 
1 -2.289020492527e+01   1.525911121277e+01  -5.134873256415e+00 
1 -4.108098994972e+01   5.053111408138e+01  -2.206057220854e+01 
8
Step 10000
1 -5.221766450908e+01   1.292829548935e+01  -3.720330242340e+00 
1  6.799322892357e+01   2.639240611208e+00  -2.836923445771e+01 
1 -2.948553049274e+01   5.991963454213e+01  -2.039915746827e+01 
1 -4.560822450154e+01   7.947921099882e+00   4.019920021139e+00 
1  2.545509745237e+01  -1.401068418581e+01  -5.759720960208e+01 
1  4.091431019498e+01  -2.605556269727e+01   2.113133847245e+01 
1  8.761409217527e+00  -1.704891343245e+01  -2.472018051831e+01 
1  1.050196219946e+01   5.869513317016e+00  -2.231739793678e+01 
8
Step 11000
1 -2.998594185476e+01   5.879152397096e+01   4.616252217526e+01 
1  2.740468871382e+01   1.178300093638e+01  -2.459104484574e+01 
1 -9.726095543856e+00   3.823747062606e+00   1.468589944853e+01 
1 -5.795551005146e+01   3.449976086753e+01   1.010723406375e+01 
1 -1.317901272279e+01   6.843915299282e+01  -3.053440974088e+01 
1  6.356550245226e+01   4.833120759410e+01  -2.031246540076e+01 
1  2.303654032221e+01  -3.922114205644e+01  -2.357117456672e+01 
1 -1.941853792268e+01   2.722386236390e+01   1.979516160219e+00 
8
Step 12000
1  7.813667781269e+00   2.383401731635e+01  -1.646031967238e+01 
1 -3.008605808028e+01  -1.413272910764e+01  -4.566048527154e+01 
1  7.836695868930e+00   3.264702852524e+00  -5.176401845345e+01 
1 -6.386914046060e+01  -2.583198685478e+00  -1.875297962296e+01 
1 -1.013778227425e+01   2.512405595573e+01   3.401129862955e+01 
1 -1.317666853583e+01  -2.483923076707e+01  -4.380261195153e+01 
1 -2.042944603493e+00   4.200353012623e+01  -1.892444515881e+01 
1 -2.014078498735e+01   3.176647150289e+01   7.536371511987e+00 
8
Step 13000
1  8.067552054239e+00  -1.163715800128e+01  -1.735366134746e+01 
1 -4.901657362627e+01   4.981373002996e+01  -2.707598969414e+01 
1 -3.337239287753e+00   4.409910819950e+00   1.576355085887e+01 
1  2.042836093819e+01   1.059499130973e-01   1.279090189282e+01 
1 -3.402195970120e+01   1.850352942283e+00  -5.075685199235e+01 
1  3.052141270417e+01  -5.813686421722e+01   5.956634164704e-01 
1 -4.428204575732e+01  -1.977270683819e+00   2.086486059250e+01 
1 -1.987102329766e+01   2.482658166870e+01   9.764982760379e+00 
8
Step 14000
1 -1.767681047511e+01   2.079569107213e+01  -3.455944659963e+01 
1 -2.635757069979e+01   7.669305456974e+01   7.300473270109e+00 
1 -2.511695867389e+01  -3.604389457782e+01  -1.893306456798e+01 
1  6.872887148845e+01  -9.609798207907e+00   5.173839217289e+01 
1 -4.562287411320e+01   1.247990390547e+01  -7.054016379307e+01 
1  9.167590381020e-01   1.577747986519e+01  -1.688113974181e+01 
1  6.254420035352e+00  -4.193876025173e+01   2.436261767319e-01 
1  5.784975415891e+01   4.507592227313e+01   1.446850057092e+01 
8
Step 15000
1 -1.567004349704e+01  -4.034414613287e+00  -3.281638901661e+01 
1 -2.342172861211e+00   9.096734805897e+01  -2.605942697439e+01 
1  2.783737522268e+01   2.703784060114e+01   1.748668253983e+00 
1  1.037182506699e+00   1.267605443312e+01  -4.152008685443e+01 
1  1.900023949878e+01   2.851248695569e+01  -5.287890807316e+01 
1 -6.886862362709e+01   2.083758084601e+01  -2.473192493405e+01 
1  3.420333637435e+01   5.311992111183e+01  -3.773332693815e+01 
1  4.658064374236e+01   4.737405448994e+00   3.220348481694e+01 
8
Step 16000
1  6.693993943873e-01  -8.432190918313e+01  -7.973168390420e+01 
1  8.168189190985e+00   2.348573894875e+01  -7.562921181280e+01 
1  2.981605713211e+01  -1.554581449564e+01   6.525957059159e+01 
1 -5.368323447686e+01  -8.029117454779e+01  -3.706176094831e+01 
1 -5.322577597180e+01   1.188456466479e+01   1.748086940050e+01 
1 -4.926524393335e+01   9.795226019762e+00   1.884698216659e+01 
1  3.172379465551e+01   3.916016295048e+01  -5.196199108408e+01 
1 -3.184930951482e+01   6.541343779243e+00   5.501769128543e+01 
8
Step 17000
1 -3.714369442470e+01  -5.611997461301e+01  -5.132225689795e+01 
1  2.895854820441e+01  -3.124562939528e+01  -4.091090772931e+01 
1  4.579775316135e+01   4.326916396015e+01  -7.008612357734e+00 
1 -2.422587091177e+01   3.466184055803e+01  -5.673941519009e+01 
1 -4.535540702093e+01  -1.811123189734e+01   3.244161704510e+01 
1  2.232977907352e+01   2.277464662135e+01  -1.540098892318e+01 
1  1.581687135258e+00  -7.780388507352e+00  -2.006872439947e+01 
1 -3.945384405667e+00   3.478647878121e+01   2.744154395128e+01 
8
Step 18000
1 -2.696927124020e+01   2.650304367212e+01   2.108664221695e+01 
1 -7.451388180539e+01  -3.865063598018e+01   3.325267247094e+01 
1  5.887258038971e+01   3.812340958578e+01  -1.914716733741e+01 
1 -4.469715690138e+00   3.602083657163e+01   8.409944239205e+00 
1  7.360115918058e+01   1.260890513604e+00   5.635225420615e+01 
1  2.675829012593e+01   4.442710884564e+01   4.492628449934e+01 
1 -3.422870005291e+01  -3.380878738537e+01  -1.682124317389e+01 
1  4.013704737025e+01  -1.565244687610e+01  -4.926692119719e+01 
8
Step 19000
1 -2.378853904074e+01  -1.356487203118e+01  -7.451899735592e+00 
1 -2.977544670397e+01  -4.222685710413e+01  -2.975238835841e+01 
1 -6.766997716844e+00  -2.480703471407e+01  -1.717623515747e+01 
1  1.477105372295e+01  -2.444151362299e+01   1.993882064008e+00 
1  4.145429578533e+01   4.198511775960e+01  -3.543821787292e+01 
1 -4.784043434861e+00   3.322170140990e+01  -2.029121003839e+01 
1  1.104159397501e+01   4.771125452545e+00   3.306449165245e+00 
1  3.850825495753e+01   5.192622836359e+01  -7.207287284870e+01 
8
Step 20000
1 -2.177097373931e+01  -6.130463259843e+01   2.569172329971e+01 
1  1.490794865837e+00  -1.599825400900e+01  -3.215350173036e+01 
1 -3.380080704508e+01  -4.932944732263e+00  -2.364883014534e+01 
1  3.990401390581e+01  -6.051249771302e+01   2.890396036909e+00 
1 -4.090577135958e+00  -3.144100184244e+01   4.219348862211e+01 
1 -2.359226586759e+01   4.900742202425e+01  -1.490598120457e+01 
1 -4.241201554528e+01  -1.918698796631e+01  -3.450038148779e+00 
1 -1.162165950339e+01   8.420158073996e+00   2.004245808350e+01 
8
Step 21000
1  1.106929292233e+01  -7.034726467451e+01  -7.294580010007e+00 
1 -6.638096431496e+01  -1.755228810909e+01   3.196865838795e+00 
1  5.047036312285e+01   4.604301529846e+01   3.105122614065e+01 
1  2.035705427642e+01   1.980662380635e+00   1.504566708428e+01 
1  1.199720793734e+01  -1.410250086425e+01  -6.275738860925e+00 
1 -1.467899353170e+01   3.234495350770e+01   1.645992625495e+01 
1 -1.280403095900e+01  -3.578923970903e+01  -6.386078938727e+01 
1  6.512654640588e+00   1.576046723161e+01   1.859917163207e+01 
8
Step 22000
1  1.982942521685e+01  -2.569971326714e+01   5.772342833241e+01 
1  8.561790479449e+00   1.646166117192e+01   2.008564279744e+01 
1 -1.518556763147e+01   5.411589581796e+01   4.033400598644e+01 
1 -1.661349095068e+01  -1.287959139778e+01  -2.479072555397e+01 
1  6.853598439210e+01   2.146071413620e+01  -6.750699624295e+01 
1  3.654662190726e+01  -6.005285374741e+01   1.698997514612e+01 
1  4.783485211041e+01  -1.283109771431e+01  -1.220353235878e-01 
1 -9.299279963117e+00   3.839818435956e+01   3.015380457902e+01 
8
Step 23000
1 -5.481061285979e+01  -5.656652710480e+01   2.825505308632e+01 
1  1.797894721184e+01  -5.874053618562e+01  -2.303437924831e+01 
1 -4.106463744919e+01  -1.952167883186e+01   1.022921159506e+01 
1  2.326586924093e+01  -1.980115803561e+01   4.530242871104e+00 
1 -2.495827602833e+01   2.483169565489e+00  -1.164197469136e+01 
1  7.415663713206e+00  -4.330437499182e+01  -1.383192343654e+01 
1 -3.664470063766e+01   4.771011552013e+00   6.370746797324e+00 
1  3.821686842837e+01   2.696341272230e+00   1.744533815078e+01 
8
Step 24000
1  2.040725232485e+01  -4.081873648544e+00   5.665272363049e+01 
1  5.647226926825e+01  -9.493223687990e+00   1.688779409382e+01 
1  7.733149849665e+00  -5.698734313611e+01   9.052597430991e+00 
1 -3.626658643390e+01  -2.273761910304e+01  -2.796816040884e+01 
1 -3.657672107132e+01  -7.631190596688e+01  -5.665309577224e+01 
1 -3.195390631506e+01  -2.910651213266e+01   4.105183122879e+01 
1 -5.519320926210e+00   1.493694880348e+01   2.137813809429e+01 
1 -3.662300983968e+00  -2.746851197897e+01   5.082761714996e+01 
8
Step 25000
1 -6.298278344152e+01  -8.773744176775e+00   1.741663724168e+01 
1  4.630198204452e+01  -1.732144733506e-01   1.266866416925e+01 
1  1.505753277064e+01  -1.005345237381e+01   1.119962413321e+02 
1 -8.466480346440e-01   1.946626055355e+00   2.839683068667e+00 
1  2.966422734029e+01  -1.754586985687e+01  -1.527810467878e+01 
1  4.706820866255e+01   1.514561942948e+00   3.165953211611e+00 
1 -2.955174854624e+01  -5.034751505024e+01  -1.279056795627e+01 
1 -5.691983016191e+00  -2.376108898041e+01   2.416767787691e+01 
8
Step 26000
1 -8.880393050185e+00   2.620693297741e+01   1.544135984071e+01 
1  7.653665139231e+00   8.164007460886e+00   1.900803118909e+01 
1 -2.952501844641e+01  -1.129651128266e+01   2.882221471371e+01 
1  3.815862028150e+01  -5.864011044886e+00  -3.832074961041e+01 
1 -1.727502600520e+01  -6.263793349219e+00  -4.073662433492e+01 
1  1.912335451354e+01   2.549906648556e+01   7.892423750097e+00 
1  8.526852426045e+00  -9.188777185503e+01   2.006952552271e+01 
1  5.678562174615e+01  -5.354250484132e+01  -2.694163786180e+01 
8
Step 27000
1 -2.136781623558e+01  -5.472046251960e+00  -6.627630196207e+01 
1 -1.652593170192e+01  -4.374216660492e+01   5.469098085471e+00 
1  2.718045357641e+01  -5.037687088267e+01  -2.826014009012e+01 
1 -2.965969567573e+01  -6.983543570226e+00   2.109539906363e+01 
1 -1.239919517793e+00  -4.122194845789e-01  -2.474293947804e+01 
1 -5.519707873931e+01   4.895355197031e+01   1.036864025250e+01 
1 -4.346719458316e+01  -1.985757278434e+01  -1.214109476379e+01 
1 -3.242646104070e+01  -2.992708830398e+01   5.554810227200e+00 
8
Step 28000
1 -5.245444908535e+00   3.522120099921e+00  -2.509972837562e+01 
1  1.480945360475e+01  -1.551603752662e+01  -1.682732099888e+01 
1  5.465939097369e+01  -3.042808703303e+01  -4.521285378404e+01 
1 -5.236856801979e+00  -1.713422169583e+01   7.372939627704e+01 
1  3.606058793476e+01  -4.000598574850e+01   6.388902287449e+01 
1 -7.035890392890e+01  -6.930107959391e+01  -1.698145264509e+01 
1 -5.142515894762e+01   2.823502634873e+01  -2.276293274216e+01 
1  2.273730669195e+01  -2.962901785511e+01   1.335316207281e+01 
8
Step 29000
1 -4.694059427555e+01  -1.568744577849e+01  -7.713401831845e+00 
1  4.418644964767e+01   2.024139037320e+01  -1.453189434384e+01 
1  5.606036229952e+01   3.001333981977e+01  -2.384158205067e+00 
1  3.938585651641e+01   2.051003363971e+00   4.637020177655e+01 
1 -2.700833418170e+01   3.224988453908e+01   4.922825599277e+00 
1 -1.968325887217e+01   3.840312293848e+00  -2.663393862921e+01 
1  2.255697802615e+01   6.416695331371e+01  -2.991679932934e+01 
1  1.451866116986e+01  -6.840835922514e+01   2.531279434413e+01 
8
Step 30000
1 -4.102668753617e+01  -1.705167153281e+01  -2.643243264972e+01 
1  2.242145537269e+00   3.852974999907e+01   1.626999579738e+00 
1 -3.364020528662e+00   2.335894446318e+01  -4.847468229580e+01 
1  7.725486959669e+00  -1.430155752817e+01   6.902921130160e+00 
1 -9.089337420466e+00   8.560140526280e+01  -7.873945831310e+01 
1  2.843893186643e+01   3.573436495948e+01   1.815729634334e+01 
1  5.290941803820e+01  -1.040232029767e+02   1.588312302084e+01 
1  5.380698308917e+00  -7.968215072743e+01   7.668902940866e+00 
8
Step 31000
1 -6.129491042037e+01   4.683566790313e+00  -5.325785990829e+01 
1 -5.157663510667e+01  -9.606608044688e+01  -3.849073771013e+01 
1 -1.434131301562e+01  -1.480486958096e+01   1.087724097834e+01 
1 -3.656990798116e+01  -5.173548626470e+01  -4.243808957331e+01 
1 -4.228933729230e+01  -5.178847946486e+00  -2.162782514984e+00 
1 -4.459922588354e+01   6.247118307363e+01   4.841879620642e+00 
1 -8.657942430917e+00  -3.283925653218e+01   1.741700814480e+01 
1  1.339957941475e+01   3.195738182059e+01  -1.697774624512e+01 
8
Step 32000
1  3.001881100255e+01   4.066578593192e+01  -2.651452600260e+01 
1 -8.762381661741e+00   2.797719077250e+01  -3.173750524864e+01 
1  3.847759650152e+01   1.605339484183e+01   5.003718053098e+01 
1  1.736004887789e+01  -1.293764905690e+01  -7.055425710599e+01 
1 -3.179744550612e+01  -2.675535276131e+01   4.371506051916e+01 
1 -5.917617566750e+01   8.856834850077e+00   1.010561605847e+02 
1  5.188810906510e+00   2.207644879619e+00   1.552779530308e+01 
1  6.602049072814e+01   1.020052589075e+01   1.611413886165e+01 
8
Step 33000
1 -1.317669372601e+01  -1.342178784260e+01   1.952235933160e+01 
1 -1.766374259560e+01   5.001689637335e+01   2.072850888130e+01 
1 -7.268755583822e+01   2.528329514074e+01   6.518980794406e-01 
1 -3.469481004279e+01  -1.500752745953e+01  -1.612780415985e+01 
1 -5.588466030168e+00  -3.659237141114e+01   4.273770556883e+01 
1  4.075047112858e+01  -2.215528129037e+00   3.472736979509e+01 
1  1.723178624781e+00   2.192423169533e+01  -5.142605480918e+01 
1  1.604302560392e+01   3.679182976137e+01   2.916446609162e+01 
8
Step 34000
1  7.919791712716e+00   1.706268391848e+00  -4.656036807237e+01 
1 -1.193742020465e+01  -6.725998813473e+00  -3.682091587462e+01 
1 -5.390879855861e+01   4.265644458347e+01  -1.727779954425e+01 
1  6.359945770223e-01   5.657836696338e+00   1.118468214277e+01 
1  4.732839603295e+00  -8.142837310071e+00  -4.678988415637e+01 
1 -7.543321637183e+01   3.768522030023e+01   7.518359488168e+00 
1  2.592044593885e+00   1.831976132975e+01   2.597768786165e+01 
1  2.079086458779e+01   2.005861013264e+01  -1.917247981494e+01 
8
Step 35000
1  2.324802015684e+01  -2.153244624260e+01  -9.430336818504e+00 
1  2.080906678715e+01   4.211683303535e+01  -2.559462000696e+01 
1 -2.971207709304e+01  -9.438949490968e+00   3.363829266148e+00 
1 -4.736990492884e+01  -1.078431830871e+01   2.223831836521e+01 
1  1.438262064153e+01  -3.454679975711e+01   1.795233805251e+01 
1 -5.239909916448e+01   3.522377076220e+01   3.897712427337e+01 
1  1.442451921361e+01   1.570589191734e+01   2.060755648653e+01 
1 -2.442152499050e+01   3.125051154967e+01  -1.264686993439e+01 
8
Step 36000
1 -3.650888063319e+00   9.533730971044e+00  -7.294184264002e+01 
1 -4.301788587748e+00   2.065396622241e+01   5.960733238940e+00 
1  2.520585675116e+01   4.243897008380e+01  -6.387513522008e+00 
1 -3.966605625014e+01  -6.203679574283e+00   5.228024791734e+01 
1  4.050077638002e+01  -1.543783716363e+01   3.712925572445e+01 
1 -2.152726576059e+01  -4.886232047352e+01   1.789402224591e+01 
1  9.067033081887e+00  -8.509488889107e+00  -4.630085117989e+01 
1 -3.025964524175e+01   4.557186386121e+01  -3.220481854144e+00 
8
Step 37000
1 -6.368834038410e+01   1.303024584592e+01   4.314619213773e+01 
1  1.543425139321e+01  -3.269343977870e+01   3.369643800917e+01 
1  2.206331168974e+01   3.936537299615e+01  -1.334185446007e+01 
1  6.160674897613e+00   3.458496469293e+01   2.506632835804e+01 
1  3.295250995581e+01   2.347239279022e+00  -6.505446650509e+00 
1 -1.976320259065e+01   3.471246854396e+01  -2.989790691126e+01 
1 -5.647966545501e+01   1.264936694125e+01  -1.354826963152e+01 
1 -2.562779155615e+01   1.099976686316e+01   1.280467877192e+01 
8
Step 38000
1 -5.889384773951e+01  -1.761071130188e+01  -2.587253054354e+01 
1  1.908181106511e+01   8.929402983791e+00  -5.396831163330e+00 
1 -5.804711450743e+01  -3.205242053381e+01  -3.341616444006e+01 
1 -3.888380515576e+01   2.803596575240e+01  -3.411508737651e+01 
1 -2.731348883886e+01  -1.444710065264e+01   1.280792213910e+01 
1  9.272679363573e+00   6.427072411364e+01  -1.436567833422e+00 
1 -3.250523811416e+01   3.506406132442e-01   2.045179408265e+01 
1 -4.311178701621e+01   7.727808769370e+00  -5.412497225400e+01 
8
Step 39000
1 -9.750798804539e+00  -1.880373071195e+01   1.911923579765e+01 
1  6.008300973178e+01  -6.321605706433e+01   2.979143429420e+01 
1  1.637234961570e+01  -2.678285952130e+01   7.620228414199e+00 
1  4.956830006189e+01  -1.637937984046e+01  -5.283401790279e+01 
1  2.156284773093e+01   1.097670558633e+01   5.462498052851e+00 
1 -2.933696784274e+01   3.982485558689e+01   3.700376192152e+01 
1 -2.460842064962e+01  -1.122418419656e+01   8.450893656198e+01 
1 -2.970235252880e+00   9.819944373605e+01   8.342051688592e+00 
8
Step 40000
1 -3.341601867477e+01   1.990219096438e+01  -5.242631629439e+00 
1 -2.141636937494e+01  -1.366762953102e+01  -2.983632520386e+01 
1 -2.829399777485e+01   2.494625424005e+01   5.552049139796e+01 
1  1.024684290688e+01  -3.570487374698e+01   6.854279693473e+01 
1  2.495270863476e+01   2.723385383901e+01   1.380622086887e+01 
1 -6.068873707623e+01  -2.734441481984e+01   7.398383223290e+00 
1 -5.056699857313e+01   2.270699616227e+01   1.935653225532e+01 
1 -1.546471856171e+01   3.261352776405e+01  -1.822597644393e+01 
8
Step 41000
1 -2.323522372983e+01  -9.167737562062e+00   2.700994076784e+01 
1 -3.927971353473e+01  -4.889895554447e+01   3.789642246563e+01 
1  1.822636006319e+01  -1.369069519966e+01   5.276911245750e+01 
1  6.346564489280e+01   5.615506328702e+01  -4.871671907628e+01 
1 -1.491129135440e+01   3.161014355063e+01   7.788998015712e+00 
1 -5.072476865644e+01   1.112034388140e+01   1.363807181269e+01 
1  1.052436825902e+01   3.820442975936e+01  -2.822862387738e+01 
1 -7.751865111363e+01   3.713472037620e+01   1.806843702232e+01 
8
Step 42000
1  2.165981206499e+01   1.298333845567e+01   2.276133189594e+00 
1 -2.288763696906e+01  -1.128244411506e+01   5.784032093448e+00 
1 -6.942589889951e+01  -5.143923261432e+01   2.279987857438e+01 
1  5.788799529719e+00   2.634105850407e+00  -3.224807708390e+01 
1 -2.721593384913e+01   1.287752219000e+01   5.986174043362e+00 
1 -5.806966192297e+01   2.449987085469e+01   4.336225166493e+01 
1  9.507374058478e+00  -1.486328847918e+01   6.030677610290e+00 
1  1.794034449165e+01   3.515586182198e+01  -5.972484759512e+01 
8
Step 43000
1 -4.013350481356e+00   5.865398607507e+00  -4.250117342444e+01 
1 -3.062600443501e+01  -1.563943748885e+01   5.255561632670e+01 
1  6.187250223082e+01  -8.662047331685e+00   4.888114021373e+00 
1  1.074764275677e+01  -9.341468631876e+00   3.209199652362e+01 
1 -1.770543504228e+01   2.466274406946e+01   5.232994138952e+01 
1  1.420072277741e+01   5.701043692814e+01   2.821765317874e+00 
1  1.543502690230e+01  -1.096808884248e+01   5.950474494596e+01 
1  1.403032421440e+01   3.177623156901e+01  -4.601153982732e+01 
8
Step 44000
1 -8.224560980558e+01   3.868208936083e+01  -4.042833203303e+01 
1 -1.743008356594e+00   3.140036734802e+01  -4.181821392690e+00 
1 -5.247193589854e+01   3.139716936100e+01  -4.106983920772e-01 
1 -4.179930641581e+01   5.409792582433e+01   4.880562797112e+01 
1 -1.833501030120e+01  -9.422664288043e+00   4.762604153815e+01 
1 -1.503887365337e+01   5.687962923484e+01  -5.106463386190e+01 
1  3.102549652210e+01  -1.242932417517e+01   3.730732878153e+01 
1 -2.300537178686e+01   1.204259579574e+01  -8.104460344130e+00 
8
Step 45000
1  2.065290249331e+01   3.835907309537e+00   2.678198074976e+01 
1  1.105542560463e+01  -9.133525268893e+00  -1.310052550086e+01 
1 -1.976184147831e+01  -4.841345525074e+01  -3.359834800839e+01 
1 -1.207369501213e+01  -6.376468391797e+00   6.690595996077e-01 
1 -3.599431590667e+01  -2.438590961412e+01  -4.435036926846e+01 
1 -1.029044086243e+01   6.004322428901e+01  -1.051239742043e+01 
1 -4.399026995365e+01  -3.294101866660e+01  -3.998475686806e+01 
1  2.908293847944e+01  -9.302672649946e+00   3.011744426106e+01 
8
Step 46000
1  3.918901500860e+01   4.648495793566e+01   4.595363131543e+01 
1 -3.946372747166e+01   3.244203227815e+00  -8.122947761486e+00 
1 -7.717323694048e+00  -1.003762851568e+01  -3.129540702548e+01 
1  4.254196990761e+00   1.446448535697e+00  -1.886483195421e+01 
1 -6.924748443726e+01   5.200452681619e+01  -3.943810442864e+01 
1 -8.386908087943e+00  -9.627896178154e+00   4.997445288149e+01 
1  1.733573158074e+01  -2.279022496716e+00  -3.283489520448e+01 
1  2.039815298334e+01  -1.505696674823e+01   4.981759080665e+00 
8
Step 47000
1 -3.713826675388e+01  -7.537938153867e+00  -4.175123430381e+01 
1  6.198063710854e+00  -4.214175299397e+01  -1.642590055501e+01 
1  3.856507484353e-01   1.098925269264e+01  -1.801764061324e+01 
1  4.341774826601e+01  -1.037231136246e+01  -3.303489093105e+01 
1  7.035113526141e+01   7.058979937141e+01  -2.648137645104e+01 
1 -8.843584311209e+01  -8.738853666293e+01   4.691702966077e+01 
1  1.118588987340e+00   1.630604605794e+01   3.458259247964e+01 
1 -6.584534626083e+01  -2.949315337706e+01   4.112341076693e+01 
8
Step 48000
1 -2.226648473908e+01  -2.777402441737e+00  -7.606801923511e+00 
1 -2.028673865129e+01  -1.156276234907e+01   6.011225509415e+00 
1  5.002849251772e+00   6.943849170466e+01   5.708641073628e+01 
1 -4.301221187010e+01  -3.755763359549e+01  -4.196258236901e+01 
1  6.399124384703e+01   4.846953200676e+01  -2.810876249812e+01 
1 -6.574880366436e+01   5.055625278760e+01   7.807205703390e-01 
1 -1.504984569351e+00   1.120728900490e+00  -1.801365469033e+01 
1  1.724542363588e+01  -3.190915055311e-01   2.174815431041e+01 
8
Step 49000
1 -3.979065633587e+01  -5.926447571080e+01  -1.738506266856e+00 
1  2.201249903204e+01  -4.750974942366e+01  -2.296576834159e-01 
1  2.280311724824e+01  -2.972778594958e+00   2.031181607150e+01 
1  2.361361289090e+01   2.469696771523e+01  -1.196496784785e+01 
1  6.633409006171e+01   5.111292003577e+00  -2.990296795909e+01 
1 -3.250597840300e+01   2.805174336183e+01  -3.949813768669e+01 
1 -3.282188599367e+01  -1.058124523629e+01  -6.387190373081e+00 
1 -2.003139919044e+01  -7.096666617319e+00  -3.270511023878e+01 
8
Step 50000
1  1.316675514482e+01   1.402163233666e+01   1.564143512763e+01 
1  4.746460552967e+01  -2.670933574504e+01   3.255504899392e+01 
1 -1.954758782700e+01  -1.371269506085e+01   1.169661070548e+01 
1  8.569493014187e+01   3.706209700396e+01   2.553221006963e+01 
1 -4.796239290608e+00  -8.441671854695e+00   3.531791115681e+01 
1  1.488178454596e+00   2.405375346401e+01   2.922238095439e+01 
1 -1.472640799575e+00  -6.159470894772e+00   3.899076359839e+01 
1 -4.760756776979e+01  -2.162628845546e+01  -5.345362112686e+01 
8
Step 51000
1 -2.828209618900e+01  -3.096438302315e+01  -2.825964537648e+01 
1 -4.362540203322e+01  -7.286169062610e+00  -1.135756002861e+00 
1  6.492814531819e+01   6.896367265057e+01   3.112930255797e+00 
1  5.036872366178e+01  -4.957819247524e+00   4.539097430684e+01 
1 -3.286610662841e+01  -8.073166218710e+00   6.474922985825e+01 
1  1.223706881284e+01   4.116776229227e+01   3.216127559713e+01 
1 -1.838394743643e+01  -4.080017432155e+01  -2.480393439205e+01 
1 -4.792895838773e+01   1.825983159222e+01  -3.502014017534e+01 
8
Step 52000
1  1.014704246377e+01  -8.912799743795e+00  -1.418804554793e+01 
1 -6.739841996941e+01   1.720378779702e+01   7.963822052786e+01 
1  5.040525183940e+01   2.887549092889e+01  -2.758299104766e+01 
1 -2.266052322084e+01  -1.830698744695e+00   7.853780753666e+01 
1  4.948246994404e+00  -2.539907280415e+01  -3.720215937716e+00 
1  9.487737899483e+00   4.398967349978e+01  -4.640270083273e+01 
1  5.049801269958e+00  -1.124333586789e+01  -4.007791010636e+00 
1 -2.783294429530e+00  -3.792014857100e+00  -1.290963119460e+01 
8
Step 53000
1 -3.809405091059e+00  -3.201365664986e+01   3.102812587320e+01 
1  2.500023529613e+01   8.298029030392e+00   8.473407001878e+01 
1  1.994736170846e+00   1.333867291804e+01   3.807218513792e+01 
1  5.896835257090e+00   5.347566346108e+01   6.159405586137e+01 
1 -1.636219586821e+01   3.894163227457e+01  -3.943838498340e+01 
1 -5.632454180289e+01   1.356134711315e+00   3.411745041334e+01 
1  3.805099891916e+01   1.452901949728e+01   2.991544519678e+01 
1  2.712721526335e+01  -4.793182573773e+01  -2.499811790440e+01 
8
Step 54000
1  3.160260960667e+01  -3.053977787548e+01   9.912133138014e+00 
1 -1.396208964573e+01   1.576509277812e+01  -2.202340122888e+01 
1 -2.991271524922e+01  -1.627424622573e+01   1.557141762959e+01 
1  1.351522990794e+01   6.146890924810e+00  -3.798366312805e+01 
1 -1.762644501274e+00   5.775646570262e+01   1.846891876174e+01 
1 -1.417302686437e+01  -7.411306873276e+01   6.644443329132e+01 
1  3.338645563712e+01   2.589748564051e+01   5.270059852257e+01 
1 -1.128798593090e+00  -8.445975935296e+00   4.539050387397e+01 
8
Step 55000
1 -7.491148864167e+01   1.759274269582e+01   1.678483390012e+01 
1 -5.430439353822e+01  -3.501866703755e+00  -2.217492401421e+01 
1 -1.301251059258e+01   3.300455466604e+01   5.459972963776e+01 
1 -3.790426323500e+01   4.090590764016e+01  -2.699725350608e+01 
1 -1.326073615919e+00   4.273816765035e+01   6.323411913544e+01 
1  8.554436964197e+00   2.692725968687e+01   1.222091987890e+01 
1  2.410803635874e-01   4.352513716580e+01   3.126453006750e+01 
1 -1.265233782046e-01   1.710234798742e+01   4.995957100171e+01 
8
Step 56000
1  2.494186785300e+00  -7.436643664701e+00  -3.098137657992e+01 
1  2.157483146372e-01  -3.999715055682e+01  -3.243724552919e+01 