8
Step 0
1  2.130326814812e+00   3.841428738278e+01  -3.900125211552e+01 
1  3.567597752465e+00  -3.504277063756e+01   3.861701022475e+01 
1  6.258847992801e+01  -7.076539324116e+01   6.450599359103e+01 
1  5.978855273526e+01  -4.628740992298e+01  -3.331699604665e+01 
1  5.663920321690e+01  -5.214564811192e+01   5.649937483509e+01 
1 -4.885508989697e+01   7.742773658779e+01   3.518899981800e+01 
1  3.981944038262e+01  -7.472662646084e+01  -5.860625198879e+01 
1 -7.332626035848e+01  -1.421247514719e+01  -1.259120980933e+01 
8
Step 1000
1  1.222736279544e+01   3.631606033679e+01  -1.435506862391e+01 
1  1.432207278682e+01  -3.922058372594e+01   3.358840495146e+01 
1  5.603237565738e+01  -4.761452607644e+01   6.741549872106e+01 
1  5.524703422242e+01  -4.881485945984e+01  -1.582989148639e+01 
1  2.863901105667e+01  -3.188261967133e+01   4.387574578112e+01 
1 -1.784146584060e+01   8.721256522360e+01   3.120055011266e+00 
1  3.860388539883e+01  -4.857160040769e+01  -6.295870055904e+01 
1 -5.252422577623e+01   3.529625525850e+00  -1.431760714440e+01 
8
Step 2000
1  1.181877231287e+01   2.716328986497e+01   1.931227095040e+01 
1  1.602240827488e+01  -2.187967289724e+01   1.780379274689e+01 
1  3.121289338896e+01  -2.466555974851e+00   5.104743602003e+01 
1  2.702260746967e+01  -3.323967931787e+01   1.085392581807e+01 
1 -1.038479469142e+01   4.468007333578e+00   2.727427062068e+01 
1  1.624580262339e+01   6.121441518006e+01  -3.030629027277e+01 
1  2.940189836264e+01  -1.819665134654e+00  -4.672540463483e+01 
1 -9.156914423484e+00   1.580214321243e+01  -1.703247598432e+01 
8
Step 3000
1  2.699149736492e+00   1.144252477613e+01   4.849089111016e+01 
1  1.105114826319e+01   9.113219544336e+00  -8.891453922757e+00 
1 -8.276343439542e-01   3.727995774191e+01   2.336312527820e+01 
1 -1.173504315219e+01  -4.992195455719e+00   3.941543530706e+01 
1 -3.920574815976e+01   3.732643470970e+01   1.232770860073e+01 
1  3.802650596236e+01   1.869865713452e+01  -4.774001642079e+01 
1  1.645388901876e+01   4.235812521565e+01  -1.836542625634e+01 
1  3.394639551739e+01   1.341324520301e+01  -1.788517299159e+01 
8
Step 4000
1 -9.401370572527e+00  -8.246741109126e+00   5.975012554017e+01 
1  5.794172854141e+00   3.796741151259e+01  -4.023279168119e+01 
1 -2.492196073259e+01   5.000190503632e+01  -2.885768289522e+00 
1 -3.962354453027e+01   2.085677156801e+01   5.620720458798e+01 
1 -4.709959664540e+01   5.236043349187e+01  -4.411896142832e-01 
1  4.278117767939e+01  -1.607866200195e+01  -4.327261273806e+01 
1  4.942391008818e+00   6.284434612671e+01   6.403899908723e+00 
1  5.561196668543e+01  -1.694418392563e+00  -1.423576532856e+01 
8
Step 5000
1 -1.610517508081e+01  -2.691153050644e+01   4.532850362711e+01 
1  4.221740789729e+00   4.913417881868e+01  -6.340581817903e+01 
1 -3.748513434551e+01   3.805187077407e+01  -2.250117347857e+01 
1 -4.682960912609e+01   3.376135157316e+01   5.574799770367e+01 
1 -3.666094692868e+01   4.770702042839e+01  -1.322143120432e+01 
1  3.350246948547e+01  -3.393434201090e+01  -2.219197586472e+01 
1 -3.713153648151e+00   5.834190909729e+01   2.005666019348e+01 
1  5.016087688514e+01  -1.915386918133e+01  -5.595261482945e+00 
8
Step 6000
1 -1.149608799079e+01  -3.915659050654e+01   6.838788309405e+00 
1  5.299773864213e+00   3.651497801644e+01  -6.866746042750e+01 
1 -3.955019437572e+01   1.078894886724e+01  -3.455594331280e+01 
1 -3.718200900657e+01   3.283814332317e+01   4.114348577755e+01 
1 -1.445233237488e+01   2.629972519416e+01  -2.570154863907e+01 
1  1.395725432668e+01  -3.240677985227e+01   6.537128267356e+00 
1 -1.044398061050e+01   3.615828634504e+01   2.276292522918e+01 
1  2.594887517365e+01  -2.809327943994e+01   6.052537728577e+00 
8
Step 7000
1  3.593766606195e+00  -4.027847649685e+01  -4.280379934454e+01 
1  6.265119523604e+00  -1.098401943734e-01  -4.863756024352e+01 
1 -3.167682327373e+01  -1.973475599274e+01  -3.700772426011e+01 
1 -1.831672896206e+01   2.088433934888e+01   1.747409005092e+01 
1  9.943722514129e+00  -4.086709880639e+00  -3.416468830912e+01 
1 -1.036047542024e+01  -1.468853923875e+01   3.055886973261e+01 
1 -1.584433057699e+01   5.208817271094e+00   1.684189009261e+01 
1 -1.386398708604e+00  -2.388613112621e+01   1.691255118357e+01 
8
Step 8000
1  2.054425137699e+01  -2.859767125834e+01  -8.053403608420e+01 
1  3.429405537181e+00  -5.095672263285e+01   6.776390480925e-02 
1 -1.586075717017e+01  -4.008936620497e+01  -2.856049903526e+01 
1  1.375184051124e+00   2.993708314394e+00  -8.734162352195e+00 
1  2.671508677778e+01  -3.183575578084e+01  -3.397304536401e+01 
1 -3.237374533524e+01   8.653619487092e+00   3.906379129202e+01 
1 -1.975516837860e+01  -2.369925547862e+01   6.388812944457e+00 
1 -1.988822742431e+01  -1.002641180951e+01   2.335821609290e+01 
8
Step 9000
1  2.977305408179e+01  -7.816196001919e+00  -8.863151077332e+01 
1 -4.642584845124e+00  -8.449727938883e+01   5.302391936751e+01 
1  3.909336902395e+00  -4.146060504240e+01  -1.063864461136e+01 
1  1.485315171916e+01  -1.408781440542e+01  -3.049986080660e+01 
1  3.060246635879e+01  -4.715993914764e+01  -2.251838782790e+01 
1 -4.568991564939e+01   2.540735690240e+01   2.946504332684e+01 
1 -2.158502249376e+01  -4.127329849598e+01  -3.490014940520e+00 
1 -2.628841243202e+01   7.679939302791e+00   2.336201793728e+01 
8
Step 10000
1  2.634055184300e+01   1.443534224428e+01  -6.234098628528e+01 
1 -1.371024941073e+01  -8.288902030674e+01   8.065536567259e+01 
1  2.252242944964e+01  -2.322825696450e+01   1.223150856602e+01 
1  1.887885829439e+01  -2.435617999032e+01  -4.262430608513e+01 
1  2.183540798543e+01  -4.488528153628e+01  -6.929416290841e-01 
1 -4.622979234370e+01   2.756259768971e+01   7.414845236431e+00 
1 -2.031553574515e+01  -4.313840039797e+01  -8.710688470204e+00 
1 -2.086467668164e+01   2.370514108839e+01   1.548275198885e+01 
8
Step 11000
1  1.141801186886e+01   2.856425493751e+01  -1.196183270176e+01 
1 -1.877666946745e+01  -5.388428827894e+01   7.740376170957e+01 
1  3.449603268744e+01   5.950012235694e+00   3.249536883593e+01 
1  1.433933650122e+01  -2.421837412215e+01  -4.237692546031e+01 
1  5.381943955941e+00  -2.537499282322e+01   2.580110146672e+01 
1 -3.227754598038e+01   1.357587130335e+01  -1.653744909243e+01 
1 -1.415535928571e+01  -2.990382357622e+01  -7.379373103422e+00 
1 -5.762561062213e+00   3.187872574668e+01  -4.632224582735e-01 
8
Step 12000
1 -5.728746915638e+00   2.875201673734e+01   3.442282329918e+01 
1 -1.661716134318e+01  -1.500107355483e+01   5.094625602520e+01 
1  3.654873046476e+01   3.205081977111e+01   4.237291012781e+01 
1  4.817525497283e+00  -1.328774484653e+01  -2.955582279818e+01 
1 -1.037765641704e+01   3.618300296893e+00   4.652108574277e+01 
1 -6.379030585071e+00  -1.014200995948e+01  -3.060587905813e+01 
1 -1.091618303346e+00  -6.539583479543e+00  -3.395243347732e-01 
1  1.361441741873e+01   2.758520893940e+01  -2.199727495552e+01 
8
Step 13000
1 -1.497266808007e+01   1.995176579350e+01   5.470974673046e+01 
1 -7.470084167424e+00   1.452264482295e+01   1.617465528043e+01 
1  2.833466226711e+01   4.377812450642e+01   3.755223915602e+01 
1 -4.824403053752e+00   4.748213511233e+00  -7.439269846962e+00 
1 -1.826221918328e+01   2.965746464174e+01   5.159320420729e+01 
1  2.258402387621e+01  -3.138111646412e+01  -2.835054669687e+01 
1  1.880819817315e+01   1.811088655406e+01   8.300858312414e+00 
1  2.970121933215e+01   1.101986529666e+01  -4.261950312130e+01 
8
Step 14000
1 -1.404076581358e+01   1.031689252073e+01   4.828518765865e+01 
1  5.075821162254e+00   2.716956065391e+01  -1.395043952174e+01 
1  1.102370963098e+01   3.583587389957e+01   1.768979066908e+01 
1 -1.007060804486e+01   2.237215081685e+01   1.700870648523e+01 
1 -1.654936119667e+01   4.285407528959e+01   3.708506208116e+01 
1  4.371018057755e+01  -3.933149044172e+01  -1.315882491739e+01 
1  4.141304848230e+01   3.445116255365e+01   1.239365674073e+01 
1  3.590769579232e+01  -1.210565159321e+01  -5.333898368642e+01 
8
Step 15000
1 -5.801103408437e+00   5.174351996753e+00   2.400902220449e+01 
1  1.626452598062e+01   2.601080151056e+01  -3.322613891359e+01 
1 -1.205498826792e+01   9.916126773183e+00  -1.287535486831e+01 
1 -9.026519349490e+00   3.140860667253e+01   3.599818679427e+01 
1 -8.407641959082e+00   3.862881708836e+01   5.794584194453e+00 
1  5.011216736874e+01  -3.050011707364e+01   5.521118949411e+00 
1  5.953103466130e+01   3.706534214738e+01   7.154289079070e+00 
1  2.894205225098e+01  -3.317237794685e+01  -4.664884568620e+01 
8
Step 16000
1  4.597614850515e+00   6.254358111736e+00  -5.048360371836e+00 
1  2.144039455668e+01   1.730978756298e+01  -3.922145358146e+01 
1 -3.331479028082e+01  -2.232110262986e+01  -4.238176981275e+01 
1 -3.000466052265e+00   2.669567843604e+01   4.421750294364e+01 
1  3.783925939422e-01   1.861772755248e+01  -3.130959582427e+01 
1  4.077563558528e+01  -9.571664201328e+00   1.859934445337e+01 
1  6.427424108390e+01   2.654067996947e+01  -8.239748125268e+00 
1  9.416300269661e+00  -4.392411853725e+01  -1.985418922897e+01 
8
Step 17000
1  1.144390494070e+01   1.108283979848e+01  -2.575084485278e+01 
1  1.726399586163e+01   7.875676051866e+00  -3.189059240328e+01 
1 -4.479646531839e+01  -4.501376130810e+01  -5.707260598669e+01 
1  5.020892873625e+00   7.776672348140e+00   3.939710670126e+01 
1  4.423489118313e+00  -7.914242807651e+00  -5.714157354384e+01 
1  2.041375953990e+01   1.329012058014e+01   2.082478577255e+01 
1  4.687572759857e+01   8.755495366735e+00  -2.882559124552e+01 
1 -1.614441847448e+01  -3.981688039050e+01   2.206498256066e+01 
8
Step 18000
1  1.100197671361e+01   1.416356338018e+01  -3.080145607930e+01 
1  3.196285476735e+00   2.606070756576e+00  -1.379903884620e+01 
1 -4.314706934944e+01  -4.951088897615e+01  -5.079788539542e+01 
1  1.165050550017e+01  -1.941766986634e+01   2.359566937087e+01 
1  2.434370703165e+00  -2.911022515701e+01  -5.928720015221e+01 
1 -2.287210178268e+00   2.795001476480e+01   1.303271376630e+01 
1  6.143931553559e+00  -6.801990015692e+00  -4.298256322453e+01 
1 -3.635280136009e+01  -2.426990013344e+01   6.221501818236e+01 
8
Step 19000
1  3.068814018763e+00   1.028710591653e+01  -1.940717778378e+01 
1 -1.668816476889e+01   2.242480905138e+00   9.878859533705e+00 
1 -2.878279573408e+01  -3.552913366269e+01  -2.592215044984e+01 
1  1.352077809967e+01  -4.213887360064e+01   3.975595558036e+00 
1 -2.863683811412e+00  -3.700046215429e+01  -3.604965383588e+01 
1 -1.932504354873e+01   3.002930293667e+01   1.125178847913e+00 
1 -4.335830415435e+01  -1.267987435545e+01  -3.899505907291e+01 
1 -4.347401102105e+01  -6.902096675451e+00   8.172811542101e+01 
8
Step 20000
1 -9.059441343521e+00  -2.732151656985e+00   4.101930636214e+00 
1 -3.378926275238e+01   3.958210878526e+00   3.201232359720e+01 
1 -7.056186818511e+00  -1.095474322608e+01   6.800204988425e+00 
1  9.099340503039e+00  -4.815387415439e+01  -1.214461381962e+01 
1 -7.283140263667e+00  -2.845093498072e+01   3.629318966492e+00 
1 -2.636301283701e+01   2.121492640615e+01  -8.406178423052e+00 
1 -8.007210710202e+01  -9.400859003193e+00  -1.589380814151e+01 
1 -3.746332451361e+01   5.237771244310e+00   7.384178768889e+01 
8
Step 21000
1 -1.975482509604e+01  -2.237646508495e+01   3.006557025667e+01 
1 -3.889874989676e+01   2.885295680583e+00   4.541337352904e+01 
1  1.305416426342e+01   1.143663552262e+01   3.247480016188e+01 
1 -2.128704462225e-01  -3.307699511571e+01  -2.183502178773e+01 
1 -7.828650816860e+00  -7.124265837834e+00   4.080915121455e+01 
1 -2.306511290110e+01   6.922361581942e+00  -1.176143525156e+01 
1 -9.108222845164e+01  -4.131255408159e+00   1.710370987330e+01 
1 -2.260415860473e+01   1.085003125232e+01   4.397859028543e+01 
8
Step 22000
1 -2.326693925618e+01  -4.247823886305e+01   4.656086378307e+01 
1 -2.572034481494e+01  -6.093666583769e+00   4.419461280671e+01 
1  2.593868591904e+01   2.479274706428e+01   4.282625628966e+01 
1 -1.085702056172e+01  -1.998511915752e+00  -2.515278725920e+01 
1 -4.142099409716e+00   1.706294517137e+01   5.725034655368e+01 
1 -1.246330993829e+01  -6.091694123757e+00  -8.347832618231e+00 
1 -7.369839341888e+01  -4.282097204051e+00   4.701042640100e+01 
1 -6.329511469867e+00   1.324007867329e+01   7.331256196647e+00 
8
Step 23000
1 -1.507159711963e+01  -5.492500599675e+01   4.421770632052e+01 
1  7.032540065709e+00  -2.443153238447e+01   2.525147718932e+01 
1  3.048292493326e+01   2.903411735234e+01   3.705789055223e+01 
1 -1.876779218574e+01   3.181930055216e+01  -2.398564264178e+01 
1  1.902181122485e+00   3.415402681899e+01   4.710786946758e+01 
1 -2.022191254003e-02  -1.227477126980e+01  -4.522826045211e-01 
1 -3.451342286775e+01  -1.225761412762e+01   6.050740863596e+01 
1  5.966532033967e+00   1.648099150771e+01  -2.036843472432e+01 
8
Step 24000
1  7.297412249188e+00  -4.834708346059e+01   1.631823649143e+01 
1  4.700086176583e+01  -4.397988335343e+01  -5.581393467830e+00 
1  2.652964876630e+01   2.523512171567e+01   1.851295609010e+01 
1 -2.027467526234e+01   5.365266317202e+01  -2.049671194998e+01 
1  7.721779298201e+00   3.789525522242e+01   1.701633182414e+01 
1  8.113876610761e+00  -9.592118159487e+00   8.114497552536e+00 
1  1.050636945312e+01  -2.290387284220e+01   5.011736991201e+01 
1  1.468837994865e+01   2.129186025690e+01  -3.412835232962e+01 
8
Step 25000
1  3.473334712977e+01  -1.691142539690e+01  -2.886058373449e+01 
1  7.102028720283e+01  -5.074243466172e+01  -3.344236570059e+01 
1  1.540965034059e+01   1.567709381418e+01  -5.236971098257e+00 
1 -1.318289904494e+01   5.429150726778e+01  -1.461426850719e+01 
1  1.118929805785e+01   2.697813080793e+01  -1.709220660085e+01 
1  7.144869497021e+00   4.077670003135e-02   1.378308563800e+01 
1  4.325270143016e+01  -2.746655465968e+01   2.085679504950e+01 
1  2.080868999874e+01   2.515744401523e+01  -3.286410405977e+01 
8
Step 26000
1  4.867509049799e+01   2.297611295238e+01  -6.314685962343e+01 
1  6.578013978195e+01  -3.724744000301e+01  -4.799410210211e+01 
1  6.962339617464e-01   3.695637625568e+00  -2.495768620848e+01 
1  2.517092910555e+00   3.091111138425e+01  -4.202350136322e+00 
1  1.191025583492e+01   6.806380215946e+00  -3.768779378148e+01 
1 -4.845814915103e+00   1.148701135705e+01   1.392491019028e+01 
1  5.495351882698e+01  -2.101766397886e+01  -1.323362956370e+01 
1  2.295761108325e+01   2.336659209053e+01  -1.628369828611e+01 
8
Step 27000
1  4.268381548521e+01   5.106792147248e+01  -6.955469991926e+01 
1  3.259164155557e+01  -5.062616582402e+00  -4.599478668116e+01 
1 -1.320928892131e+01  -8.935327235729e+00  -3.408825051237e+01 
1  2.246933409282e+01  -1.029115730504e+01   1.149502130739e+01 
1  1.096127358211e+01  -1.372166964370e+01  -3.661038092524e+01 
1 -2.382568605780e+01   1.695137005839e+01   7.639708676652e+00 
1  4.812539077027e+01  -4.956703825864e+00  -3.875842180134e+01 
1  1.905471014208e+01   1.160903901649e+01   1.097751052435e+01 
8
Step 28000
1  2.203756183396e+01   5.753331248250e+01  -4.912217133352e+01 
1 -1.073718369354e+01   3.163497328216e+01  -3.087619932312e+01 
1 -2.253568610630e+01  -2.184641452456e+01  -2.999022976704e+01 
1  3.755644243078e+01  -5.052612219097e+01   2.794801325283e+01 
1  9.514768333991e+00  -2.703815388296e+01  -1.751509427154e+01 
1 -3.852492733738e+01   1.024701518969e+01  -2.769311729271e+00 
1  3.080237275841e+01   1.488649990676e+01  -4.739664860186e+01 
1  8.567989758565e+00  -1.006267734665e+01   3.810716010070e+01 
8
Step 29000
1 -2.156618488707e+00   4.081487597734e+01  -1.363092684138e+01 
1 -4.025829366850e+01   5.411464423010e+01  -1.248706659328e+01 
1 -2.485741380697e+01  -3.379887019395e+01  -1.280978436014e+01 
1  4.020293001021e+01  -7.060978014215e+01   3.856755158827e+01 
1  7.805835853248e+00  -2.896880910070e+01   7.816398679709e+00 
1 -3.698966144262e+01  -7.473446368877e+00  -1.290547475422e+01 
1  1.153721559578e+01   3.052953558695e+01  -3.675380952178e+01 
1 -6.280955238996e+00  -3.510945105798e+01   5.232471567353e+01 
8
Step 30000
1 -1.692953446913e+01   1.071835462398e+01   1.844764609056e+01 
1 -4.640494746158e+01   5.530208378809e+01   2.580421675494e+00 
1 -1.885453880821e+01  -4.117631967852e+01   1.695648312595e+01 
1  2.761461514726e+01  -6.259608982856e+01   3.883615649211e+01 
1  4.496168883664e+00  -2.013235591901e+01   2.552282945167e+01 
1 -1.384972253978e+01  -2.775695948715e+01  -1.840884607278e+01 
1 -3.349738719640e+00   3.494049199797e+01  -1.109163519486e+01 
1 -2.112414719749e+01  -5.344072610643e+01   4.585329451224e+01 
8
Step 31000
1 -1.680127127525e+01  -1.684711800349e+01   3.435177604496e+01 
1 -3.007304791148e+01   3.614359946294e+01   1.269911264228e+01 
1 -4.221701604373e+00  -3.596085947302e+01   5.599404522632e+01 
1  7.342047570061e-01  -2.845805183594e+01   2.589304790946e+01 
1 -2.278881159880e+00  -5.381310908222e+00   2.677826317649e+01 
1  2.402534757541e+01  -3.855835374071e+01  -1.667436596507e+01 
1 -1.094819189128e+01   2.562639205883e+01   1.931095104793e+01 
1 -3.114897596380e+01  -5.584525896175e+01   1.892722358033e+01 
8
Step 32000
1 -5.819906506266e+00  -3.164027149969e+01   3.337112527871e+01 
1 -1.446459766088e-01   3.715826602100e+00   1.837303265986e+01 
1  1.324859895292e+01  -1.165376990190e+01   8.702948229667e+01 
1 -3.154877672334e+01   1.728027795619e+01   1.234587111980e+00 
1 -1.290995457862e+01   8.676223496269e+00   1.140859833954e+01 
1  5.825914640662e+01  -3.123308141926e+01  -8.833100230164e+00 
1 -1.196027840902e+01   6.425173308748e+00   4.214607725641e+01 
1 -3.200521163306e+01  -3.723738283410e+01  -1.994573146861e+01 
8
Step 33000
1  7.768258679956e+00  -3.064324666584e+01   2.068821971898e+01 
1  2.671854581685e+01  -2.819637520151e+01   2.107410803488e+01 
1  2.426348970084e+01   2.509374432713e+01   9.124159786741e+01 
1 -5.164287772047e+01   4.814724691893e+01  -2.338487385779e+01 
1 -2.498761328871e+01   1.613493341052e+01  -1.222339435264e+01 
1  7.045665112328e+01  -6.614437167787e+00   1.278230459125e+00 
1 -9.627492286939e+00  -1.477021246802e+01   4.904083855210e+01 
1 -2.194627305648e+01  -1.907304240422e+00  -5.385274061443e+01 
8
Step 34000
1  1.522720366562e+01  -1.633816846935e+01   3.081178036107e+00 
1  3.679750924211e+01  -4.763731196312e+01   2.155386259850e+01 
1  2.538231372677e+01   5.920371385439e+01   6.613695068003e+01 
1 -5.093999559337e+01   5.149026617503e+01  -3.685030085158e+01 
1 -3.319309717040e+01   1.460877203203e+01  -3.107698573914e+01 
1  5.133847588124e+01   2.532252752855e+01   9.548383214285e+00 
1 -7.577477036296e+00  -3.017280049021e+01   3.819841910277e+01 
1 -5.107166104574e+00   3.454664443401e+01  -6.552089784629e+01 
8
Step 35000
1  1.101104886301e+01   4.169970721745e+00  -1.273810790908e+01 
1  2.623165205075e+01  -4.946490834787e+01   1.888077773583e+01 
1  1.958114184815e+01   7.482703309953e+01   2.479798796198e+01 
1 -3.304329741114e+01   3.393669978847e+01  -3.751054678626e+01 
1 -3.125390464629e+01   6.419450009101e+00  -3.441487890352e+01 
1  5.925426957705e+00   4.796608107802e+01   1.224012758510e+01 
1 -8.111316193786e+00  -3.455735870100e+01   1.329047506218e+01 
1  1.077388583694e+01   5.596417555079e+01  -5.133779182812e+01 
8
Step 36000
1 -4.518545842618e+00   2.123788392754e+01  -2.200859180579e+01 
1 -2.418427175950e-01  -3.422013361888e+01   1.104754724855e+01 
1  1.235104327293e+01   6.422334933891e+01  -1.375301311554e+01 
1 -5.997310230519e+00   8.810919460138e+00  -2.741767932554e+01 
1 -1.490317731941e+01  -3.290579487989e+00  -1.844054827737e+01 
1 -4.192564638009e+01   4.717910660150e+01   8.435514250133e+00 
1 -1.157887209075e+01  -2.601124730820e+01  -1.899614446914e+01 
1  2.006967604958e+01   5.641880631720e+01  -2.255705295754e+01 
8
Step 37000
1 -2.509585652421e+01   2.726332059020e+01  -2.339834908487e+01 
1 -2.907206183169e+01  -8.566839011689e+00  -3.049600320374e+00 
1  7.173922221609e+00   3.299325897822e+01  -3.705555202826e+01 
1  1.981545353887e+01  -1.062992905369e+01  -1.066878740272e+01 
1  1.428867051520e+01  -8.813091069544e+00   1.141632918809e+01 
1 -6.673054942273e+01   2.481577513710e+01   1.879698880333e+00 
1 -1.647862330301e+01  -5.435261971926e+00  -5.117504573314e+01 
1  2.171361885757e+01   4.057951867607e+01   5.276449906973e+00 
8
Step 38000
1 -4.124410278575e+01   1.985248786958e+01  -1.772458262464e+01 
1 -4.352090746079e+01   1.629828622404e+01  -2.140257132357e+01 
1  4.281566415316e+00  -4.444460620353e+00  -4.299437514134e+01 
1  3.547211249982e+01  -1.754234334972e+01   7.547136530049e+00 
1  4.554343928554e+01  -6.664150642379e+00   3.984690714118e+01 
1 -6.172782496070e+01  -4.954327609589e+00  -3.044361217495e+00 
1 -1.924574424953e+01   2.271893694459e+01  -7.400715306370e+01 
1  1.807558448797e+01   1.746100602492e+01   2.222209530358e+01 
8
Step 39000
1 -4.320086300965e+01   3.782571518744e-01  -5.764743924922e+00 
1 -3.502062258368e+01   3.172097724113e+01  -3.844238864765e+01 
1  1.697588241929e+00  -3.431057185896e+01  -3.688658152331e+01 
1  3.602188932446e+01  -1.111668607301e+01   2.247720730243e+01 
1  6.465389158693e+01   1.431098406259e+00   5.133351927057e+01 
1 -3.485306488830e+01  -2.781821113753e+01  -4.261506593458e+00 
1 -1.451601897313e+01   4.852720516835e+01  -7.669081954752e+01 
1  1.187524023225e+01  -5.354242762540e+00   2.472028305469e+01 
8
Step 40000
1 -2.108473953275e+01  -2.685723867180e+01   1.194413107722e+01 
1 -7.191372217422e+00   3.472870419362e+01  -4.640474720699e+01 
1 -2.662248765891e+00  -4.825064600760e+01  -2.662902103625e+01 
1  2.135419761764e+01   4.509016609082e+00   3.024248883223e+01 
1  6.293031303601e+01   1.058038239899e+01   4.042606551228e+01 
1  8.832234650963e-01  -3.537028175396e+01  -1.681842686940e+00 
1  2.128912308851e+00   5.981741290136e+01  -5.319436874405e+01 
1  4.915217386738e+00  -2.235253347783e+01   1.309912378190e+01 
8
Step 41000
1  2.462401934496e+01  -4.730071489699e+01   3.024644140885e+01 
1  2.577857515872e+01   2.760361771235e+01  -4.017462323122e+01 
1 -9.062359051030e+00  -4.351142583798e+01  -1.785967473033e+01 
1 -3.072150917114e+00   2.077837538951e+01   2.849860541834e+01 
1  3.855885144467e+01   1.614152829749e+01   1.171909262447e+01 
1  3.244775618556e+01  -2.644419099894e+01   3.233807710229e+00 
1  2.892554702906e+01   4.987959804159e+01  -1.082498458317e+01 
1 -1.240657235201e+00  -2.968478780808e+01  -6.940912251296e+00 
8
Step 42000
1  7.043215450731e+01  -4.589768125686e+01   4.042469112240e+01 
1  4.651576814520e+01   1.610409048251e+01  -2.140679048021e+01 
1 -1.527662905554e+01  -2.222991940436e+01  -1.226364931555e+01 
1 -2.742308707834e+01   2.939617805542e+01   1.767031799822e+01 
1 -6.673298329031e-02   1.533513195761e+01  -2.046987757215e+01 
1  4.984656794754e+01  -5.552725460670e+00   8.131679900278e+00 
1  5.504101916761e+01   2.601776020389e+01   2.931712352575e+01 
1 -6.351729797284e+00  -2.648916965410e+01  -2.695004445744e+01 
8
Step 43000
1  9.197236897081e+01  -2.486128973934e+01   3.819409384713e+01 
1  4.643242655432e+01   5.862065892118e+00   2.676806383146e+00 
1 -1.731945310054e+01   8.452363934461e+00  -8.171740872604e+00 
1 -4.113136454497e+01   2.606956054198e+01   1.003904170118e+00 
1 -3.413233838781e+01   8.987448990812e+00  -3.848737350312e+01 
1  4.839458613417e+01   1.923741001229e+01   1.058719385069e+01 
1  6.839311172479e+01   4.504523490504e+00   5.089438186789e+01 
1 -1.125564879980e+01  -1.540934246573e+01  -3.963641439850e+01 
8
Step 44000
1  7.870954335123e+01   2.931229148076e+00   2.450715652323e+01 
1  2.935803946103e+01  -9.296323461477e-01   2.234678227418e+01 
1 -1.149381855477e+01   3.727723382990e+01  -1.593212530285e+00 
1 -3.655687086949e+01   9.805501915338e+00  -1.758485733816e+01 
1 -5.030132321460e+01   1.262712480910e+00  -3.602582511891e+01 
1  2.919759865225e+01   3.829442496682e+01   8.620633984626e+00 
1  6.277682218793e+01  -4.835200283247e+00   5.304113266501e+01 
1 -1.466129604557e+01  -9.130080559201e-01  -3.785799347096e+01 
8
Step 45000
1  3.613216332213e+01   2.172286577818e+01   4.681857694891e+00 
1  5.718694701454e+00  -5.447282181009e+00   3.093679483000e+01 
1  2.617758164718e+00   5.301385894893e+01   1.080736503766e+01 
1 -1.169482161865e+01  -1.656161383954e+01  -3.365079532219e+01 
1 -4.799932807425e+01  -4.272638628212e+00  -1.976313757012e+01 
1 -7.307017348802e-01   4.389375485067e+01   1.565623196353e+00 
1  3.653720997982e+01  -2.110115797127e+00   4.264644903710e+01 
1 -1.369681917002e+01   1.347172241249e+01  -1.664399745766e+01 
8
Step 46000
1 -1.296423578923e+01   2.190463359916e+01  -1.209135869316e+01 
1 -1.446132870751e+01  -9.864031744441e+00   2.748769566451e+01 
1  2.196750478684e+01   4.864354803303e+01   2.894246365701e+01 
1  2.750591395045e+01  -4.530146917240e+01  -4.160492213642e+01 
1 -3.247312853224e+01  -6.549299431884e+00  -8.650967016093e-01 
1 -2.975292939515e+01   3.414880042375e+01  -9.241019920398e+00 
1 -4.696213153629e+00   6.557845775754e+00   2.891346342668e+01 
1 -6.853820658892e+00   2.431922649156e+01   2.122369190943e+01 
8
Step 47000
1 -4.598330946668e+01   8.376489661126e+00  -2.032731040056e+01 
1 -2.513679480370e+01  -1.451043676658e+01   1.432941116631e+01 
1  4.113173901869e+01   2.115524932056e+01   4.926019994468e+01 
1  6.638900708227e+01  -6.546179836237e+01  -3.650729689468e+01 
1 -1.075415631466e+01  -6.087125393127e+00   1.139544183058e+01 
1 -4.684087358649e+01   1.352903546328e+01  -2.039152064291e+01 
1 -4.574182771241e+01   1.262466531776e+01   1.881665650412e+01 
1  5.821609148809e+00   2.790321199463e+01   6.426979777478e+01 
8
Step 48000
1 -5.593525608998e+01  -7.325759763986e+00  -1.998191217332e+01 
1 -2.429079988381e+01  -1.779714647047e+01  -4.235810056114e+00 
1  5.106253321170e+01  -2.699913306905e+01   6.331818944054e+01 
1  8.637324450159e+01  -6.662626756618e+01  -1.713934842516e+01 
1  9.459442833622e+00  -2.984023049455e+00   1.299312574474e+01 
1 -4.696799774518e+01  -1.045462045923e+01  -2.691989753772e+01 
1 -7.042578571622e+01   9.606670671698e+00   1.309992046754e+01 
1  2.192525928931e+01   2.267607856097e+01   9.504683096906e+01 
8
Step 49000
1 -4.458903072123e+01  -1.630515116581e+01  -1.274885873177e+01 
1 -1.375234636054e+01  -1.769458290817e+01  -2.058080988251e+01 
1  4.087391828148e+01  -7.781883179175e+01   5.792178220047e+01 
1  7.107033368744e+01  -4.101046305925e+01   1.599471226465e+01 
1  2.212886987914e+01   1.955787277377e+00   4.109595025159e+00 
1 -3.179661685440e+01  -3.073853864666e+01  -2.360655964248e+01 
1 -7.201238997340e+01  -1.856837683852e+00   8.121101025940e+00 
1  3.581323539228e+01   1.065080848638e+01   9.638397290935e+01 
8
Step 50000
1 -1.843940940839e+01  -1.397564868949e+01  -9.425258268828e-01 
1  1.730856765913e+00  -1.217796226449e+01  -2.665616400368e+01 
1  9.849422894430e+00  -1.032438091617e+02   2.721456138676e+01 
1  2.002418340419e+01   5.685584267261e+00   5.119693699313e+01 
1  2.515452133889e+01   6.177247863864e+00  -1.027278251311e+01 
1 -8.021446837510e+00  -4.204690046032e+01  -6.403448787860e+00 
1 -5.342374246332e+01  -1.563620290445e+01   8.581866296629e-01 
1  4.016877715975e+01  -4.700493336825e+00   5.733534663450e+01 
8
Step 51000
1  1.125157705959e+01  -1.642666975970e+00   1.119122151422e+01 
1  1.640066701699e+01  -3.192212617396e-02  -1.809361337216e+01 
1 -2.691719384231e+01  -8.885073097244e+01  -1.717819891374e+01 
1 -3.009230091450e+01   4.319824388485e+01   6.621530835726e+01 
1  2.014269025233e+01   7.335633379569e+00  -2.180552683925e+01 
1  1.451755328651e+01  -4.145916898909e+01   2.467274918493e+01 
1 -2.586137853170e+01  -2.444357740469e+01  -8.389046780628e+00 
1  3.110103430833e+01  -1.680413802081e+01  -8.855860476558e+00 
8
Step 52000
1  3.325758974699e+01   1.367210817361e+01   1.861845375121e+01 
1  2.529461450552e+01   1.825603376813e+01   4.861372534791e+00 
1 -4.766251592224e+01  -4.852613513560e+01  -5.134874974789e+01 
1 -5.248773991925e+01   5.688101892419e+01   5.856600513458e+01 
1  1.066668212704e+01   4.354042694523e+00  -2.240390846961e+01 
1  2.718655092027e+01  -2.896961898319e+01   6.109811257919e+01 
1 -1.015369405976e+00  -2.490021760517e+01  -1.685298082675e+01 
1  1.491030361906e+01  -2.007184610364e+01  -6.124405261244e+01 
8
Step 53000
1  4.154241322039e+01   2.356394116886e+01   1.829961727627e+01 
1  2.468266747150e+01   3.968395971278e+01   3.745853966569e+01 
1 -4.466800612175e+01  -8.954403252068e+00  -6.245287707085e+01 
1 -4.592956045665e+01   5.132039772974e+01   3.589541607930e+01 
1  3.820345994570e-02  -2.833221458785e+00  -6.343553595519e+00 
1  2.744013706657e+01  -7.732916579905e+00   8.664161067468e+01 
1  1.785713343077e+01  -1.756832804967e+01  -2.241360716476e+01 
1  2.752952932649e-01  -1.680572080674e+01  -7.859170705957e+01 
8
Step 54000
1  3.522300743365e+01   2.210459913969e+01   9.854101723902e+00 
1  1.336116409310e+01   5.679291959731e+01   6.710343013482e+01 
1 -2.367991360602e+01   1.711955305037e+01  -5.309616968183e+01 
1 -1.694182555990e+01   3.373036237059e+01   6.577076479427e+00 
1 -9.005643966235e+00  -1.281201009753e+01   2.672379325478e+01 
1  1.896837413355e+01   1.739648647640e+01   8.555355220689e+01 
1  2.970257777601e+01  -4.248005880210e+00  -2.278879833741e+01 
1 -8.934545019187e+00  -1.199211157619e+01  -6.401492882644e+01 
8
Step 55000
1  1.841105086126e+01   8.284878884248e+00  -4.445048983580e+00 
1 -5.460050294301e+00   5.846129931574e+01   7.518475481151e+01 
1  5.855269188812e+00   2.594617280596e+01  -2.927739987695e+01 
1  1.744241940100e+01   1.321767839528e+01  -1.846725058333e+01 
1 -1.446476156009e+01  -2.084150265677e+01   6.229608622593e+01 
1  7.526949421370e+00   4.058258538801e+01   4.940891982432e+01 
1  3.223181044372e+01   1.160367225439e+01  -1.549836600491e+01 
1 -1.177091059702e+01  -9.174757420942e+00  -2.927623012638e+01 
8
Step 56000
1 -4.484292631601e-01  -1.172288398441e+01  -1.873953882694e+01 
1 -2.466514130984e+01   3.741690779853e+01   5.106746837407e+01 