8
Step 0
1  2.130326814812e+00   3.841428738278e+01  -3.900125211552e+01 
1  3.567597752465e+00  -3.504277063756e+01   3.861701022475e+01 
1  6.258847992801e+01  -7.076539324116e+01   6.450599359103e+01 
1  5.978855273526e+01  -4.628740992298e+01  -3.331699604665e+01 
1  5.663920321690e+01  -5.214564811192e+01   5.649937483509e+01 
1 -4.885508989697e+01   7.742773658779e+01   3.518899981800e+01 
1  3.981944038262e+01  -7.472662646084e+01  -5.860625198879e+01 
1 -7.332626035848e+01  -1.421247514719e+01  -1.259120980933e+01 
8
Step 1000
1  1.217695893952e+01   3.632545071838e+01  -1.447370651914e+01 
1  1.423394133346e+01  -3.919045843029e+01   3.363242794472e+01 
1  5.607604305838e+01  -4.777964465847e+01   6.739025469565e+01 
1  5.528539612754e+01  -4.879081511528e+01  -1.596496530120e+01 
1  2.867539407214e+01  -3.190329369304e+01   4.389296519531e+01 
1 -1.749584170073e+01   8.731403568767e+01   2.762853009782e+00 
1  3.861632820987e+01  -4.871378562593e+01  -6.292913075370e+01 
1 -5.264002269280e+01   3.421751759664e+00  -1.430750184699e+01 
8
Step 2000
1  1.167757162916e+01   2.727487967241e+01   1.855615586632e+01 
1  1.561680478566e+01  -2.243631503944e+01   1.855581292808e+01 
1  3.128311227994e+01  -2.906407134647e+00   5.093605324478e+01 
1  2.777585937581e+01  -3.337723381776e+01   9.987822099512e+00 
1 -1.169838547146e+01   5.724246490580e+00   2.671566978042e+01 
1  1.958601590623e+01   6.004609879831e+01  -3.366022545854e+01 
1  2.954426436414e+01  -2.042223315112e+00  -4.656670983275e+01 
1 -9.546068518857e+00   1.539269381062e+01  -1.699111101650e+01 
8
Step 3000
1  2.715714307670e+00   1.162297382831e+01   4.692258990544e+01 
1  1.075112976446e+01   5.574564194596e+00  -5.754145684880e+00 
1 -4.136078121399e+00   4.123866340324e+01   2.035670012381e+01 
1 -1.078001566680e+01  -4.462852446326e+00   3.916724608309e+01 
1 -4.648254775350e+01   4.488499125649e+01   8.982473633581e+00 
1  4.827883668171e+01   9.452654666431e+00  -5.749806211992e+01 
1  1.603726169402e+01   4.656814052256e+01  -1.561573040182e+01 
1  3.564422996405e+01   1.263095797387e+01  -1.792180295172e+01 
8
Step 4000
1 -8.696601904588e+00  -8.456820607540e+00   5.767459076222e+01 
1  6.696478047162e+00   2.944269326625e+01  -3.410438819474e+01 
1 -3.686028462340e+01   6.213750895998e+01  -1.442909716657e+01 
1 -4.276170998276e+01   2.626553255166e+01   6.102011612614e+01 
1 -6.067623226765e+01   6.787453035994e+01  -8.063023576952e+00 
1  5.837569714693e+01  -3.765564867493e+01  -5.686269374558e+01 
1  2.287779085394e+00   7.657833385712e+01   1.672550825620e+01 
1  6.230492042729e+01  -4.354931191956e+00  -1.419418496075e+01 
8
Step 5000
1 -1.343723754869e+01  -2.760182575482e+01   4.358649030864e+01 
1  7.517908226980e+00   3.558948039175e+01  -5.634823803833e+01 
1 -5.669085320067e+01   5.291044052131e+01  -4.245923017423e+01 
1 -5.530883849936e+01   4.667988062519e+01   6.665189339615e+01 
1 -5.048372355647e+01   6.507958306775e+01  -2.410238480374e+01 
1  4.846095297745e+01  -6.128004434790e+01  -3.433731671291e+01 
1 -8.909562735229e+00   7.774000801582e+01   3.827193319176e+01 
1  5.970653539714e+01  -2.595682814859e+01  -4.447454399560e+00 
8
Step 6000
1 -6.175057386462e+00  -3.965430607328e+01   9.522103190275e+00 
1  1.174437612560e+01   2.049663428327e+01  -6.399830178382e+01 
1 -5.999366310124e+01   2.171944880630e+01  -5.661263102273e+01 
1 -4.621635739722e+01   4.996838164346e+01   5.320230201909e+01 
1 -2.300491898781e+01   3.759381151154e+01  -3.724877902384e+01 
1  2.500349908266e+01  -5.506827744371e+01  -1.728292258168e+00 
1 -1.682860884330e+01   5.304470264340e+01   4.345118124492e+01 
1  3.057882014634e+01  -3.901285765938e+01   1.040472014549e+01 
8
Step 7000
1  9.662792688232e+00  -4.090303317142e+01  -2.959549111909e+01 
1  1.484415606782e+01  -7.693942924352e+00  -5.219368368948e+01 
1 -4.783213540181e+01  -1.523574891649e+01  -5.452406302151e+01 
1 -2.228576378511e+01   3.615461389958e+01   2.425299895778e+01 
1  7.784490609406e+00  -2.984957682917e+00  -4.373458182036e+01 
1 -2.753730169771e+00  -2.563565011927e+01   2.727193746685e+01 
1 -2.162985654537e+01   1.507314042222e+01   3.377522915620e+01 
1 -1.073302303770e+01  -3.413015202750e+01   2.682780045876e+01 
8
Step 8000
1  2.480558649777e+01  -3.086895221589e+01  -5.706356954134e+01 
1  1.133422176624e+01  -3.484930840586e+01  -1.994087543034e+01 
1 -2.473489500635e+01  -4.060161022702e+01  -3.756430259726e+01 
1  4.601740261598e+00   1.182403538918e+01  -1.033345044957e+01 
1  2.842667750795e+01  -3.931400518228e+01  -3.996954851433e+01 
1 -2.631747746212e+01   1.067191007330e+01   4.138789863700e+01 
1 -2.336331927856e+01  -1.997555895728e+01   1.630992228141e+01 
1 -4.491993881640e+01  -1.180095754345e+01   3.882473489651e+01 
8
Step 9000
1  3.085016857495e+01  -1.262861063516e+01  -6.160122757463e+01 
1 -1.765846754690e+00  -4.822439365773e+01   2.513214335119e+01 
1  2.371726806432e+00  -4.421013621346e+01  -1.067172055721e+01 
1  2.292010195503e+01  -1.230605030469e+01  -3.823459659878e+01 
1  3.297294366598e+01  -5.787564994763e+01  -2.536757509446e+01 
1 -3.952977684820e+01   3.737075122256e+01   3.707791113880e+01 
1 -2.178826154254e+01  -4.001679420449e+01  -4.394495160746e-02 
1 -5.780427684856e+01   1.753282646016e+01   4.066974310337e+01 
8
Step 10000
1  2.331338450150e+01   7.053850964669e+00  -4.043243472328e+01 
1 -2.061960584736e+01  -4.102190023954e+01   6.597279551556e+01 
1  2.651323953047e+01  -2.659979824234e+01   1.860134293488e+01 
1  2.765632355727e+01  -2.708853613414e+01  -5.138100395333e+01 
1  2.380105652428e+01  -5.384078136840e+01  -3.109257681559e+00 
1 -3.968885569015e+01   4.440854025742e+01   1.865606641232e+01 
1 -1.662659157896e+01  -4.160279177913e+01  -9.116728715390e+00 
1 -4.683004162366e+01   4.004409223035e+01   3.023734783377e+01 
8
Step 11000
1  3.407418756178e+00   2.091758670491e+01  -1.993467930513e+00 
1 -3.580301049769e+01  -1.575522086967e+01   8.588188556588e+01 
1  4.223317239723e+01   2.565123529388e+00   4.175920437780e+01 
1  2.126549262265e+01  -2.897929683544e+01  -4.863864239661e+01 
1  8.367132396702e+00  -3.064329347637e+01   2.052404276336e+01 
1 -2.755605410450e+01   3.006190026579e+01  -4.952438668137e+00 
1 -7.721630670757e+00  -2.876234082151e+01  -9.646578711755e+00 
1 -2.024943952182e+01   4.617818724565e+01   1.006435331126e+01 
8
Step 12000
1 -2.045116494757e+01   2.496899191321e+01   3.657461766395e+01 
1 -3.848647123397e+01   1.609953866107e+01   7.629015687798e+01 
1  4.635742804014e+01   2.981676167618e+01   5.166369919281e+01 
1  9.916428009743e+00  -1.992825694103e+01  -3.390065122012e+01 
1 -4.959755425679e+00   1.624984377059e+00   3.766282243534e+01 
1 -6.795675174563e+00   2.119025161695e+00  -2.303991033511e+01 
1  4.397677800821e+00  -9.640488604839e+00  -4.575414546387e+00 
1  8.531795006797e+00   3.498488848670e+01  -1.374428202164e+01 
8
Step 13000
1 -3.698694937521e+01   2.010151138623e+01   5.915577794582e+01 
1 -2.444690394486e+01   4.055075728384e+01   3.810361731063e+01 
1  3.816036484796e+01   4.354170788053e+01   4.505283883436e+01 
1 -7.410160959798e-02  -5.361000977323e+00  -1.338536920425e+01 
1 -1.080738940896e+01   3.024126761080e+01   4.195502178974e+01 
1  1.599794552800e+01  -2.560265295503e+01  -2.800954767186e+01 
1  1.779652736854e+01   7.178357881721e+00   1.062817957679e+00 
1  2.841675444420e+01   1.325038643572e+01  -3.347904324404e+01 
8
Step 14000
1 -3.911798571513e+01   1.055143681744e+01   5.786418158397e+01 
1  2.607449361223e+00   4.825106297692e+01  -1.578552505601e+01 
1  1.992642952013e+01   3.790013591129e+01   2.378404759723e+01 
1 -4.542956987995e+00   8.194615968538e+00   6.831545960804e+00 
1 -8.849905274931e+00   4.520482159623e+01   3.148588146979e+01 
1  3.331763578746e+01  -4.053819947584e+01  -1.968309306528e+01 
1  2.900608943825e+01   1.591969028102e+01   2.695368619220e+00 
1  3.496055692146e+01  -9.648691088144e+00  -4.265540433341e+01 
8
Step 15000
1 -2.651177076182e+01   2.299597117776e+00   3.387704237208e+01 
1  3.033467530995e+01   3.774661719468e+01  -6.254125350378e+01 
1 -3.129498683236e+00   1.515093795611e+01  -5.437767064827e+00 
1 -2.754716213740e+00   1.534499277256e+01   2.251493157693e+01 
1 -3.329134804814e+00   4.235092521922e+01   9.715889360285e+00 
1  3.986941459830e+01  -3.624311285004e+01  -4.149230397203e+00 
1  3.393483688737e+01   1.525427947293e+01  -1.717803240112e+00 
1  2.940024643021e+01  -2.630059842251e+01  -3.761706215829e+01 
8
Step 16000
1 -4.804215925665e+00   1.385879715116e-01  -2.478491131758e+00 
1  4.537089391662e+01   1.582117533097e+01  -8.324192990659e+01 
1 -2.387761926809e+01  -1.421913628943e+01  -3.250429259778e+01 
1  2.666905985072e+00   1.344921893628e+01   3.152189092901e+01 
1 -4.206467280555e-01   2.467885422917e+01  -1.521233476747e+01 
1  3.352948922036e+01  -1.499006278407e+01   9.793370429690e+00 
1  2.927643118431e+01   8.092164681567e+00  -1.076536923870e+01 
1  1.589760734132e+01  -3.276577245774e+01  -1.825892564265e+01 
8
Step 17000
1  1.655560504553e+01   4.333308720077e+00  -3.557133053981e+01 
1  4.142068780062e+01  -6.317620037931e+00  -7.262749244116e+01 
1 -3.639565166576e+01  -3.755104594070e+01  -4.777152354523e+01 
1  7.406323357539e+00   3.716827304684e+00   3.334704352635e+01 
1 -3.607244949881e+00   1.255426575869e+00  -3.326814122042e+01 
1  1.590664081329e+01   1.278635177808e+01   1.428778070296e+01 
1  1.415801795188e+01  -1.281751531240e-01  -2.011391196067e+01 
1 -1.402420810923e-01  -2.886531416990e+01   1.106550984488e+01 
8
Step 18000
1  2.924183456103e+01   1.023343037085e+01  -5.274364817800e+01 
1  2.074302280185e+01  -1.952794018851e+01  -3.809606742466e+01 
1 -3.800043361107e+01  -4.641984100078e+01  -4.616894198810e+01 
1  7.700287342151e+00  -9.085173568354e+00   2.863825605720e+01 
1 -1.124043984540e+01  -1.769192814225e+01  -3.716671321547e+01 
1 -6.959516782951e+00   3.418122768983e+01   6.946076808087e+00 
1 -8.398699710777e+00  -4.180648766332e+00  -2.416568027380e+01 
1 -1.386188269096e+01  -1.773174419585e+01   4.109323762340e+01 
8
Step 19000
1  3.005551856364e+01   1.141361128454e+01  -4.901502673567e+01 
1 -6.418119978181e+00  -2.155814192399e+01   3.921449943084e+00 
1 -2.902021288126e+01  -3.773770339323e+01  -2.874923303213e+01 
1  1.814345755592e+00  -1.855572414552e+01   1.868679030779e+01 
1 -1.785512820885e+01  -2.590691596353e+01  -2.577066333763e+01 
1 -2.676689016943e+01   4.010746592450e+01  -7.146419927783e+00 
1 -3.148328808903e+01  -1.799052550233e+00  -1.842267503329e+01 
1 -2.263724382206e+01  -4.018783358456e+00   5.996476440793e+01 
8
Step 20000
1  2.143238025250e+01   2.565499876566e+00  -2.708005120060e+01 
1 -2.679025468014e+01  -1.608668991091e+01   3.567275716316e+01 
1 -1.273764052096e+01  -1.422942421070e+01  -2.036507435126e+00 
1 -9.098536939422e+00  -1.923158775482e+01   4.991715564142e+00 
1 -1.754552123564e+01  -2.228933613940e+01  -4.281564153729e+00 
1 -3.666839824168e+01   2.805581004051e+01  -1.877992672014e+01 
1 -4.647811769317e+01   5.376432062720e+00  -1.946600849557e+00 
1 -2.579272020951e+01   8.246148616372e+00   5.835009704771e+01 
8
Step 21000
1  9.135285696265e+00  -1.676816771149e+01   3.466003884406e+00 
1 -3.247214452447e+01  -8.426631367272e+00   4.754852181080e+01 
1  4.724687223085e+00   1.456700889732e+01   2.395799607409e+01 
1 -2.087506643496e+01  -9.077263884822e+00  -1.057626627348e+01 
1 -7.118217183233e+00  -1.056195013112e+01   1.767143562402e+01 
1 -3.320406999247e+01   3.858256665369e+00  -1.968540755171e+01 
1 -4.656924325513e+01   1.248334879402e+01   2.137740736507e+01 
1 -2.333782782208e+01   1.680683223532e+01   3.416819490486e+01 
8
Step 22000
1 -9.252648266862e-01  -3.971767371236e+01   2.995515484751e+01 
1 -2.312371434248e+01  -3.221071426124e+00   3.950521059844e+01 
1  1.759782798495e+01   3.776394768610e+01   3.974338901461e+01 
1 -2.810200031427e+01   9.156582512182e+00  -2.519012189602e+01 
1  1.078438260998e+01   2.021922446323e+00   2.999463580809e+01 
1 -1.755946491017e+01  -2.084009089529e+01  -6.584812432810e+00 
1 -2.981110973537e+01   1.381454156607e+01   4.361063238823e+01 
1 -1.614141281922e+01   2.153218188770e+01  -5.650497618613e+00 
8
Step 23000
1 -6.054802162749e+00  -5.451548950488e+01   4.270055052600e+01 
1 -4.171240367312e+00  -2.561984243690e+00   1.854400465480e+01 
1  2.323415180439e+01   4.838824217265e+01   4.009037414634e+01 
1 -2.675660825016e+01   2.843018456956e+01  -3.557064049165e+01 
1  2.832724476624e+01   9.051470663583e+00   2.698971787989e+01 
1  4.076036960640e+00  -3.491733413131e+01   1.624586194473e+01 
1 -9.607788314780e-01   6.148766167454e+00   5.533376254691e+01 
1 -5.692733793184e+00   2.350295791645e+01  -4.635752851699e+01 
8
Step 24000
1 -7.539285993282e+00  -5.022373009327e+01   3.835807322548e+01 
1  1.468114972452e+01  -4.153420395142e+00  -4.337974507915e+00 
1  2.178132997172e+01   4.334728036663e+01   2.579112824813e+01 
1 -1.521921467955e+01   3.980969713056e+01  -3.903248410859e+01 
1  3.674455188104e+01   8.132654769063e+00   1.004245234827e+01 
1  2.272122999145e+01  -3.290833569154e+01   3.803877002165e+01 
1  2.941750431984e+01  -8.581018631492e+00   4.919861574746e+01 
1  6.539615448368e+00   2.331911303547e+01  -7.129029387918e+01 
8
Step 25000
1 -8.830337942652e+00  -2.174881232712e+01   1.952653791998e+01 
1  2.386640008480e+01  -3.813346639948e+00  -1.926687921731e+01 
1  1.563750729309e+01   2.374171232303e+01   3.221223381122e+00 
1  4.994726014702e+00   3.612373749008e+01  -3.376185709527e+01 
1  3.080792760389e+01   8.677887249006e-01  -1.291706901298e+01 
1  3.068098189321e+01  -1.648429003096e+01   4.681096421429e+01 
1  4.904187192026e+01  -2.393795751779e+01   2.399767690716e+01 
1  1.847693901039e+01   2.033138341365e+01  -6.995278554142e+01 
8
Step 26000
1 -1.295151213387e+01   2.547515417559e+01  -5.966575338640e+00 
1  1.929398166375e+01   5.463110904938e-01  -2.171181367955e+01 
1  8.591089964058e+00  -3.828898629772e+00  -1.837961086625e+01 
1  2.850222062365e+01   1.553299315367e+01  -1.938598537131e+01 
1  1.153870924970e+01  -7.935495586471e+00  -3.053429374175e+01 
1  2.474110724380e+01   6.113983925843e+00   3.546409944081e+01 
1  4.956788594350e+01  -3.206720306953e+01  -1.371236470160e+01 
1  2.691866315550e+01   1.305428519083e+01  -4.219107324859e+01 
8
Step 27000
1 -1.983631514633e+01   7.411549068157e+01  -2.722906493957e+01 
1  3.789609744737e+00   8.008434395293e+00  -1.281255801675e+01 
1  3.408435042845e+00  -3.045261987254e+01  -3.089784320845e+01 
1  4.714443155764e+01  -1.631584013481e+01   1.571238569091e+00 
1 -1.344529826342e+01  -1.214385904625e+01  -3.306148207590e+01 
1  7.518024751932e+00   2.386967331343e+01   5.422672280975e+00 
1  3.078648878410e+01  -2.762428841264e+01  -5.138203684471e+01 
1  2.861838223557e+01   4.293292495844e-01   1.336068923979e+00 
8
Step 28000
1 -2.520516363896e+01   1.023239748429e+02  -3.596110883477e+01 
1 -1.472443899514e+01   1.543293942853e+01   1.601743145243e+00 
1  2.729010824250e-01  -4.852957771116e+01  -3.021465670215e+01 
1  5.337390222080e+01  -4.750433641719e+01   2.384676826908e+01 
1 -3.332754780873e+01  -7.837443635035e+00  -1.721743922916e+01 
1 -1.310557160210e+01   2.848097878715e+01  -3.272728565340e+01 
1  1.352989843555e+00  -1.091335175310e+01  -7.524011759398e+01 
1  2.193995925863e+01  -1.625801302832e+01   4.252214490909e+01 
8
Step 29000
1 -2.317464598846e+01   9.488078512489e+01  -3.015628939787e+01 
1 -2.641979946765e+01   1.842989219950e+01   1.321685999534e+01 
1 -2.532884913225e+00  -5.261812830190e+01  -1.770442836085e+01 
1  4.313088733194e+01  -6.476222997214e+01   4.163366244544e+01 
1 -3.915676401003e+01   4.480187726364e+00   1.131739694207e+01 
1 -2.717221617890e+01   1.850882325200e+01  -6.304175284648e+01 
1 -2.520999601626e+01   1.139104184750e+01  -7.571941427464e+01 
1  8.113302349813e+00  -3.269594287348e+01   6.461673780210e+01 
8
Step 30000
1 -1.000245632119e+01   4.948459727403e+01  -1.318216664433e+01 
1 -2.410054417910e+01   1.406540017799e+01   1.565066002652e+01 
1 -7.202556496289e+00  -4.038552468973e+01   3.196455654939e-01 
1  1.733453297345e+01  -5.918954386287e+01   5.015725405983e+01 
1 -2.831061183270e+01   1.957564059774e+01   3.942746288167e+01 
1 -2.738991261153e+01  -4.426890479489e-01  -7.149847600190e+01 
1 -3.727703872611e+01   2.937671407513e+01  -5.168893565701e+01 
1 -8.780051903456e+00  -4.299179988050e+01   6.032703726742e+01 
8
Step 31000
1  1.224219333025e+01  -1.840579363681e+01   7.281848239392e+00 
1 -6.966021531931e+00   3.128355047411e+00   7.479688191237e+00 
1 -1.457492362383e+01  -1.447788322267e+01   1.553716772711e+01 
1 -1.749643982836e+01  -3.017024299466e+01   4.649230522183e+01 
1 -6.557054296011e+00   2.926523284495e+01   5.259384611836e+01 
1 -1.247500303099e+01  -1.857271500170e+01  -5.205644915803e+01 
1 -3.017116881476e+01   3.517630924344e+01  -1.113264659803e+01 
1 -2.314303093457e+01  -4.187177255300e+01   3.380305139100e+01 
8
Step 32000
1  3.425283512286e+01  -7.844747535895e+01   2.179965526179e+01 
1  1.781952326258e+01  -9.891973232277e+00  -7.718118641915e+00 
1 -2.248902893796e+01   1.823376244730e+01   2.161008211940e+01 
1 -4.987684667586e+01   1.257055481651e+01   3.087556520287e+01 
1  1.475393305470e+01   2.653674597830e+01   4.219766993355e+01 
1  1.176445125997e+01  -2.596568939514e+01  -9.537687402229e+00 
1 -8.574911772603e+00   2.680767007146e+01   3.176804341481e+01 
1 -2.968216258135e+01  -2.725927953262e+01  -1.937005227758e+00 
8
Step 33000
1  4.541600741506e+01  -1.056666012174e+02   2.537780107836e+01 
1  3.817197269641e+01  -1.884333424734e+01  -2.302163246460e+01 
1 -2.662890554387e+01   4.862269453519e+01   1.685011303786e+01 
1 -6.774924158513e+01   5.196242820628e+01   7.582270902622e+00 
1  2.494709806746e+01   9.753382279599e+00   1.008087404547e+01 
1  3.354729826347e+01  -1.783176929426e+01   4.002640284085e+01 
1  1.510190385311e+01   9.099753950693e+00   6.261736788564e+01 
1 -2.568668299207e+01  -2.395037968749e+00  -3.107340831464e+01 
8
Step 34000
1  4.065155943808e+01  -9.419095274511e+01   1.908878442745e+01 
1  4.311179290838e+01  -1.909796944165e+01  -3.056385080386e+01 
1 -2.268977857009e+01   6.687430516664e+01   4.144697972613e+00 
1 -6.461491970833e+01   7.251254284003e+01  -1.694583011196e+01 
1  1.962125474962e+01  -1.527860866150e+01  -3.051575653646e+01 
1  4.114800617875e+01   1.521018172489e+00   7.607561163799e+01 
1  2.769516764845e+01  -9.085921235360e+00   7.255964124622e+01 
1 -1.292092351028e+01   2.465129313996e+01  -4.233528830669e+01 
8
Step 35000
1  2.180096794159e+01  -5.450441394888e+01   7.292825624326e+00 
1  2.740603059817e+01  -1.033963092038e+01  -2.511442172695e+01 
1 -7.711034412126e+00   6.500661517893e+01  -1.021036020931e+01 
1 -4.178124290031e+01   6.706863112635e+01  -3.671122771663e+01 
1  3.343270799636e+00  -3.716092478922e+01  -6.062690217113e+01 
1  2.936990977546e+01   2.144213833199e+01   8.430212356066e+01 
1  2.247315929448e+01  -1.969271795446e+01   6.080181345279e+01 
1  2.953228904388e+00   4.431614945162e+01  -3.404148259443e+01 
8
Step 36000
1 -3.148082482757e+00  -7.234435924730e+00  -4.244252218691e+00 
1 -5.460144195483e+00   2.399632260097e+00  -7.273391153839e+00 
1  1.725194748869e+01   4.063882740143e+01  -1.816875568279e+01 
1 -7.254723061494e+00   3.873286285172e+01  -4.746949585755e+01 
1 -1.275514428892e+01  -4.502796450154e+01  -6.650878069684e+01 
1  1.027812324595e+00   3.076038329728e+01   6.218234831763e+01 
1  1.743461201376e+00  -1.917977675684e+01   3.372082776320e+01 
1  1.545571407129e+01   4.970389814838e+01  -1.423916823124e+01 
8
Step 37000
1 -2.375066000824e+01   2.809718042062e+01  -1.155154899754e+01 
1 -4.232867192997e+01   1.186721386321e+01   1.683204044612e+01 
1  4.381684518913e+01  -9.658463225290e-01  -1.425359589399e+01 
1  2.657678077079e+01   1.100739761839e-01  -4.731727543045e+01 
1 -1.779039467197e+01  -3.401007356136e+01  -4.601647651886e+01 
1 -3.285138312341e+01   2.264006827968e+01   1.923295472844e+01 
1 -2.432406069198e+01  -9.951604653708e+00   1.871360199339e+00 
1  2.015847320428e+01   3.943786327032e+01   5.327580947067e+00 
8
Step 38000
1 -3.286840217808e+01   4.360022812787e+01  -1.414242007552e+01 
1 -6.617647960810e+01   1.284850876236e+01   3.899881171636e+01 
1  5.917624879303e+01  -4.695393849936e+01  -1.376693345398e-01 
1  4.819379606183e+01  -3.263847903551e+01  -3.742847720988e+01 
1 -7.596172470680e+00  -7.736780252201e+00  -8.409475400066e+00 
1 -5.589290249160e+01  -6.365441854012e-01  -2.556568052140e+01 
1 -4.228804059387e+01   1.415573795039e+00  -2.489562832409e+01 
1  1.621396780114e+01   1.811425020997e+01   1.597764676817e+01 
8
Step 39000
1 -2.873075043603e+01   4.150151335679e+01  -1.198151339786e+01 
1 -6.455898666832e+01   4.469572911223e+00   5.085784944924e+01 
1  5.464482200874e+01  -8.074143654045e+01   1.612041314363e+01 
1  5.280032424967e+01  -4.875386737160e+01  -2.116636870659e+01 
1  1.227978023322e+01   2.219398981012e+01   2.993916413061e+01 
1 -5.671576438437e+01  -2.673698348776e+01  -5.412210656012e+01 
1 -4.222325808712e+01   8.230076587502e+00  -4.047994749865e+01 
1  6.382213087796e+00  -5.672760700808e+00   1.467407848333e+01 
8
Step 40000
1 -1.440709941467e+01   2.916413061549e+01  -4.540807096476e+00 
1 -3.391895975628e+01  -9.458238241180e+00   4.617072087452e+01 
1  2.928531419045e+01  -8.837035738209e+01   2.531592802296e+01 
1  4.253498574616e+01  -4.626854969584e+01  -2.084323746319e+00 
1  3.037256007252e+01   4.231668577165e+01   5.350517314237e+01 
1 -3.469666080787e+01  -4.148427608629e+01  -5.866484627012e+01 
1 -2.265410716267e+01   7.341906276270e+00  -4.342339884873e+01 
1 -4.092209427855e+00  -2.328200557955e+01   4.745764818376e+00 
8
Step 41000
1  3.725167232701e+00   1.531530041322e+01   6.678906196804e+00 
1  1.764463796165e+01  -1.962447335315e+01   2.538762745205e+01 
1 -1.125488635615e+01  -6.562778321111e+01   2.102007643101e+01 
1  2.319000949518e+01  -2.933058970265e+01   1.664287255503e+01 
1  3.616145286131e+01   4.449367701795e+01   5.519558876658e+01 
1  2.775373348643e+00  -3.686977431858e+01  -4.286905739957e+01 
1  9.082489552608e+00   3.537004837991e-01  -3.640564214054e+01 
1 -1.032273119915e+01  -3.000207172404e+01  -5.478351116521e+00 
8
Step 42000
1  1.757137806227e+01   6.962709316173e+00   1.955199516282e+01 
1  6.901577437756e+01  -1.739578193953e+01  -3.108437759232e+00 
1 -5.094358471930e+01  -2.126870512095e+01   3.080373883154e+00 
1  1.582935998389e+00  -5.459624201604e+00   3.175637037352e+01 
1  2.441837192186e+01   2.798276303968e+01   3.812087439487e+01 
1  4.157449660330e+01  -1.387944308000e+01  -1.808907239608e+01 
1  4.028667682733e+01  -7.800591738842e+00  -2.393402850385e+01 
1 -1.086034251991e+01  -2.620461275686e+01  -1.049349212497e+01 
8
Step 43000
1  2.044709010235e+01   4.814843787319e+00   3.235030664544e+01 
1  9.678152968763e+01  -2.226292667046e+00  -3.043120892704e+01 
1 -6.991578046911e+01   2.631129049008e+01  -1.999158235792e+01 
1 -1.609048590994e+01   1.654084824836e+01   3.997704524518e+01 
1 -1.681208118085e+00  -4.269852056072e-02   1.236519639618e+01 
1  6.470796365130e+01   1.743944611035e+01   1.820106481354e+00 
1  5.857382879201e+01  -1.181704259336e+01  -9.954802289161e+00 
1 -6.477296440012e+00  -1.647163027002e+01  -8.292250424735e+00 
8
Step 44000
1  1.199921133769e+01   3.672112727406e+00   3.885077426623e+01 
1  8.758305861767e+01   1.898414968370e+01  -4.987185405176e+01 
1 -5.963457917663e+01   5.908530951309e+01  -3.491491195791e+01 
1 -2.613933036278e+01   2.887541400186e+01   3.832660797721e+01 
1 -3.025132229939e+01  -2.670932806778e+01  -1.104989227319e+01 
1  6.299262156969e+01   4.216186564215e+01   8.850983122405e+00 
1  5.672975560684e+01  -8.906521943792e+00   2.950925708929e+00 
1  9.301835726047e-01  -7.076670804604e+00   1.326162310256e+00 
8
Step 45000
1 -1.610536087667e+00  -2.386946604228e+00   3.120885542165e+01 
1  4.427647931341e+01   3.569811990486e+01  -5.524053018354e+01 
1 -2.700791484963e+01   6.671169456446e+01  -3.190474687739e+01 
1 -2.819115069490e+01   2.787450371219e+01   2.538011123908e+01 
1 -4.752980313436e+01  -4.086944201309e+01  -2.511117572665e+01 
1  3.917482335880e+01   4.911719828301e+01   4.946221329980e+00 
1  3.492971227945e+01  -1.764246927194e-01   1.356747142756e+01 
1  7.619636522012e+00  -2.066243116849e+00   1.220874345094e+01 
8
Step 46000
1 -1.312834491450e+01  -1.496954506226e+01   8.732070920227e+00 
1 -1.445042857341e+01   3.608961193332e+01  -4.653933638368e+01 
1  1.430186099309e+01   5.036992734506e+01  -1.045012546440e+01 
1 -2.464653638446e+01   1.461575691479e+01   3.066279528484e+00 
1 -4.584033909444e+01  -3.794297499150e+01  -2.822822029840e+01 
1  2.137559190070e+00   3.692357641343e+01  -2.555222361814e+00 
1  3.513837049373e-01   1.035028828931e+01   2.158016543868e+01 
1  1.063969531254e+01  -1.414092277604e+00   1.680509688453e+01 
8
Step 47000
1 -1.681284959370e+01  -3.123999524358e+01  -2.170404911130e+01 
1 -6.256325183986e+01   1.707959285833e+01  -3.071212281317e+01 
1  4.510330398493e+01   2.227238638243e+01   1.999515199480e+01 
1 -1.920513839418e+01  -4.916954895388e+00  -2.227893073774e+01 
1 -2.542753120393e+01  -2.002069794755e+01  -2.315019319274e+01 
1 -3.429512468973e+01   1.208736938769e+01  -5.491611941417e+00 
1 -3.569452285873e+01   1.775643857868e+01   2.637785272087e+01 
1  1.012641501938e+01  -1.894273896140e+00   1.324673650877e+01 
8
Step 48000
1 -8.550694016986e+00  -4.325951973819e+01  -5.213648280171e+01 
1 -8.467919175386e+01  -1.115585440586e+01  -1.176896690363e+01 
1  5.045766836357e+01  -2.873692026980e+00   4.499057247945e+01 
1 -1.363574903197e+01  -2.219294837334e+01  -4.137131191430e+01 
1  5.278498749071e+00   4.574738385547e+00  -1.462948155529e+01 
1 -5.620767401825e+01  -1.479629785932e+01   1.051283285769e+00 
1 -6.141745365983e+01   1.803699820764e+01   2.696584070185e+01 
1  7.412921070117e+00   7.398050944554e-01   4.297118621496e+00 
8
Step 49000
1  7.578311915385e+00  -4.275095298897e+01  -6.936560959893e+01 
1 -7.493131666580e+01  -3.435765036155e+01   7.806816671848e+00 
1  2.929949004680e+01  -1.601438411492e+01   5.245886975177e+01 
1 -9.479553282603e+00  -2.859729783823e+01  -4.642137381406e+01 
1  3.247191272448e+01   2.533792282198e+01  -6.071687383302e+00 
1 -5.679258925935e+01  -3.393170116134e+01   1.557154148613e+01 
1 -6.823959065576e+01   1.015740127266e+01   2.243963064326e+01 
1  2.860842645383e+00   9.212887682647e+00  -7.098441146000e+00 
8
Step 50000
1  2.167455681048e+01  -2.634342925449e+01  -6.161261655768e+01 
1 -4.049993477949e+01  -4.267859835305e+01   2.417189891986e+01 
1 -6.534478691747e+00  -1.557216504284e+01   3.783161459544e+01 
1 -6.040269401040e+00  -1.920227962672e+01  -3.453171887052e+01 
1  4.433790495522e+01   3.502399658312e+01   1.232999820408e+00 
1 -3.798585231406e+01  -3.976866616533e+01   3.072140732157e+01 
1 -5.339917632809e+01  -3.253117562615e+00   1.234079397237e+01 
1 -2.221889847350e+00   2.194432872462e+01  -1.514125107697e+01 
8
Step 51000
1  2.666853710681e+01   3.601653583200e+00  -2.843187392377e+01 
1 -1.729839347984e-01  -3.307780242840e+01   3.483948001418e+01 
1 -3.922934144473e+01  -6.778304465089e+00   6.764034100807e+00 
1 -9.818166475898e-01   3.120028985367e+00  -9.503703294462e+00 
1  3.644541491295e+01   3.107920893535e+01   6.863446910184e+00 
1 -7.375117418752e+00  -3.232680334255e+01   3.783464749411e+01 
1 -2.087093531114e+01  -1.693739771885e+01  -2.460349692603e+00 
1 -6.448259722419e+00   3.324936562051e+01  -1.437407325102e+01 
8
Step 52000
1  2.091160997068e+01   3.680427784725e+01   1.660183804988e+01 
1  2.746212683754e+01  -1.137685800662e+01   3.976710644270e+01 
1 -5.292306345600e+01   2.306744664030e+00  -2.806779851831e+01 
1  7.563328453618e+00   2.913646859858e+01   1.811331930311e+01 
1  1.298365841349e+01   1.607733873109e+01   1.121787542830e+01 
1  2.378318455374e+01  -1.599590045430e+01   3.121899724866e+01 
1  1.944761256760e+01  -2.516064996956e+01  -1.881991849960e+01 
1 -9.393478255416e+00   3.562953581030e+01  -3.789031201819e+00 
8
Step 53000
1  5.894268145754e+00   5.836317819642e+01   5.422400118147e+01 
1  3.576896534883e+01   1.169646185565e+01   3.744023312550e+01 
1 -4.113353562941e+01   5.796292828169e+00  -5.332288312290e+01 
1  2.008857403142e+01   4.661202468026e+01   3.566374532404e+01 
1 -1.467036724740e+01  -3.075425780465e+00   1.452935562574e+01 
1  4.430777291567e+01   2.795097725066e+00   1.087821203835e+01 
1  5.473289211521e+01  -2.394262066530e+01  -3.189094183654e+01 
1 -1.089010183288e+01   2.223234784281e+01   1.303625407462e+01 
8
Step 54000
1 -1.206054742581e+01   5.971173423149e+01   6.961974020588e+01 
1  2.887018859028e+01   2.665563662761e+01   2.650061662858e+01 
1 -8.797805063208e+00   1.552400349236e+00  -5.975540049886e+01 
1  3.363181748660e+01   4.638506490980e+01   3.484490373003e+01 
1 -3.343052390963e+01  -1.921012692792e+01   1.567801163735e+01 
1  4.803057429556e+01   1.805718615648e+01  -1.677691542918e+01 
1  7.369760795236e+01  -1.304048938003e+01  -3.711419501755e+01 
1 -1.031414732339e+01  -9.521781641284e+00   2.864178351115e+01 
8
Step 55000
1 -2.391036484155e+01   4.184932783353e+01   5.729401234098e+01 
1  1.456204007553e+01   2.847987120160e+01   9.200901218709e+00 
1  2.979948739009e+01  -7.593113440998e+00  -4.548379924964e+01 
1  4.285445397012e+01   2.606146465278e+01   1.583662684868e+01 
1 -3.498798041299e+01  -2.728103703172e+01   1.313566682030e+01 
1  3.554452074553e+01   2.605621849763e+01  -4.131532751850e+01 
1  7.035410801934e+01   3.759100177584e+00  -3.188195596848e+01 
1 -7.228624349058e+00  -5.229770090277e+01   3.299365035788e+01 
8
Step 56000
1 -2.414096075390e+01   1.245532209748e+01   2.339684064712e+01 
1  8.848643005736e-01   1.814051390491e+01  -1.029188378822e+01 