8
Step 0
1 -2.085286265275e+01   6.292774221803e+01   4.528091614985e+01 
1  7.223371578599e+01  -7.160191957723e+00  -4.811401682497e+01 
1  3.521294812006e+01  -5.574803034824e+01   6.932730076890e+01 
1  5.834431226767e+01   3.413925235964e+01  -3.833126681060e+01 
1 -5.863304183448e+01  -3.561420874390e+01   7.616396741191e+01 
1  7.540330238677e+01  -3.575458675880e+01  -1.940912708350e+01 
1 -7.609144493216e+01   6.472004551485e+01  -6.113465809600e+01 
1 -1.136950171554e+01   5.790460616002e+01  -3.822221383630e+01 
8
Step 1000
1  3.372085007845e+00  -1.931509196540e+01   5.639942439347e-01 
1  3.264423954375e+01   2.508518085630e+01  -1.620299796594e+00 
1 -5.009074691192e+00  -2.623164332007e+01   1.094411000949e+01 
1 -1.298143510376e+01   5.142438287641e+01  -8.515360042590e+01 
1  1.182811963951e+01  -1.549712143002e+01   7.809909784142e+00 
1  2.398956635680e+01  -3.188308159830e+01   4.527852825273e+01 
1 -3.692311653168e+00   7.048738486600e+01   1.129122750864e+01 
1  3.131674387891e+01   3.096972220638e+01   4.270334455237e+00 
8
Step 2000
1  2.935562685141e+01   7.869308774449e+00  -1.159739253146e+01 
1  1.477618384202e+01  -2.570477117994e+01   3.039095700083e+00 
1 -1.317296143256e+01  -8.801869282649e+00  -4.811413473335e+00 
1 -6.736081901000e+00  -1.947901223351e+01  -2.699428985128e+01 
1  4.740870484317e+01  -2.782537402742e+00   2.336749468720e+00 
1 -1.792296914768e+01   2.060923895950e+00   1.584755521833e+01 
1 -2.723548238430e+01   3.531478061425e+01   4.999264651668e+00 
1 -4.404066284037e+01   5.526481616831e+01   4.783020981970e+00 
8
Step 3000
1  5.904647525139e+01   4.247991116206e+01  -1.215543265868e+01 
1  1.575950282184e+01  -1.829643006969e+00  -5.062591579424e+01 
1 -1.689595102808e+01  -1.831136131849e+01  -2.936998684923e+01 
1  2.049791688453e+01  -2.879999514916e+01  -7.840554275269e+00 
1  6.689308059635e-01   1.541574818095e+01  -3.287007995839e+00 
1  2.407589036642e+01   9.178577643793e+01   2.887505660469e+01 
1  3.061847095308e+01   1.162124531079e+01   1.162399079726e+01 
1  2.001945487858e+00   2.906982996284e+01  -2.082554227841e+01 
8
Step 4000
1  9.335307483668e+01   5.049313853144e+01  -2.530834957958e+01 
1 -1.925991819501e+01  -2.263713856650e+00   2.605169162322e+01 
1  1.831176316478e+00  -2.657737864925e+01  -8.638547880322e+00 
1  4.416558057730e+01   5.152634919686e+01   2.871218900227e+00 
1 -4.098858533539e+01   6.107155668165e+01  -3.460613754565e+01 
1  1.373492084512e+01   4.441070504704e+01  -4.190753073919e+00 
1 -1.274861628419e+01   6.065598734856e+00  -2.560415370762e-01 
1  6.494874452812e+00   4.587912143221e+01  -2.022608212158e+01 
8
Step 5000
1  2.584626603328e+01   6.607445354716e+00  -2.637634543626e+01 
1  1.387036888672e+01  -2.688000578293e+00  -1.435970679276e+01 
1  3.065505663601e+01  -1.567213782866e+01   2.176785104757e+00 
1 -5.980495186894e+01   3.901553718823e+01  -4.962826781731e+01 
1 -1.406799732179e+01  -1.310163908935e+01  -7.359191083588e+00 
1 -5.463101848293e+01   2.279117437376e+01   2.793094803688e+01 
1 -2.218745922260e+01   3.856409777241e+01   2.754195219049e+01 
1 -3.953678117618e+01   5.346056882148e+01  -5.144982827135e+01 
8
Step 6000
1  2.717109499563e+01  -2.165405160513e+01  -2.472814645213e+01 
1  3.875162537847e+01   1.863325420133e+01  -1.936940016677e+01 
1 -1.737451278159e+01   1.359588751347e+00   1.799990658421e+01 
1 -3.863846525610e+01   4.121200651873e+01  -1.735140042237e+01 
1  3.230160103045e+01  -2.388624123590e+01  -1.576181258763e+01 
1 -2.690915404355e+01  -1.422653171824e+01   4.781912169260e-01 
1  3.216993515247e+01  -8.041149660375e+00   1.555089248251e+01 
1  4.702975044458e+00  -6.165684560122e+00  -3.231700689632e+01 
8
Step 7000
1  2.025828923767e+00   5.709474741906e+01   1.984778029674e+01 
1  4.681540423410e+01  -1.870860178208e+01  -3.504220356369e+01 
1 -6.419745785909e+01   5.314559374865e+01  -7.956169556836e+00 
1  2.328246464391e+01   1.367728041403e+00   5.509554338717e+01 
1 -8.769153318620e+00   1.779424097889e+01  -2.085553812111e+01 
1 -7.491141859936e+01   1.164660362405e+01  -5.588835917278e+01 
1 -2.469981349240e+01  -4.049474320839e+01  -3.088891398461e+01 
1  3.731122794085e+01  -5.063219493184e+01  -2.599659193476e+01 
8
Step 8000
1  2.410920341869e+01  -1.969219198766e+01   8.059069366591e+00 
1 -1.090790989409e+01   7.033402121176e+00  -4.207189948649e+01 
1 -1.239200293236e+01   8.272383735955e+01  -4.283465706475e+00 
1 -3.848834921971e+01   8.021386740306e+00   4.456376464951e+01 
1 -2.157359509768e+01   1.601306599782e+01  -1.923151932862e+01 
1  5.879348643786e+01   2.902239691955e+01  -3.107141273645e+01 
1 -1.071846559983e+01  -2.075139285199e+01   1.812221023067e+01 
1  1.066143172446e+01   5.110628212478e+00   1.198814727937e+01 
8
Step 9000
1  2.022771015585e+01  -5.965923859429e+01  -2.637348417724e+01 
1 -6.474131563127e+01   5.006875547451e+00   4.299101545459e+01 
1  2.634786963194e+01  -3.777864322920e+01   1.124628715738e+01 
1 -1.096645900206e+01   1.577088359710e+01   3.382353876337e+01 
1 -6.403075231382e+01  -5.475531247994e+01   3.101627701683e+01 
1 -9.071237299472e-01  -8.195525731103e+01  -1.546556554679e+01 
1 -1.026549510993e+02   6.739810086921e+00   1.389075406648e-01 
1 -3.795455241844e+01   4.848616373487e+00   3.501143526394e+01 
8
Step 10000
1 -1.239821441278e+01  -3.717796764610e+01  -3.352450966316e+01 
1 -4.593127675110e+01   2.719175854241e+01   3.547266723837e+01 
1  1.581735920193e+01   1.488222825597e+00   9.724103026322e-02 
1  7.105364292726e+01  -2.427612557793e+01   1.448773523930e+01 
1  3.886271047876e+01  -4.044800436643e+01   9.229065788410e+00 
1 -2.121339085679e+01  -4.384185754065e+01   1.750227030971e+01 
1  1.841674416875e+01  -3.803295055317e+01  -1.425734286303e+01 
1  5.069566350088e+01  -5.153970547483e+01   1.228288739233e+01 
8
Step 11000
1 -1.838911193669e+01   1.519064729837e+01   2.786550753038e+01 
1 -1.854944238081e+01   2.233478785829e+01   4.679009471038e+01 
1  2.183374533051e+01  -3.911477846613e+01   4.172656981305e+01 
1  2.752513045639e+01  -5.780845486354e+00   2.509486425851e+01 
1  2.365502938376e+01   4.541049089739e+01  -1.342961087568e+01 
1 -3.320842332265e+01   3.606450682232e+01  -4.184658065707e+00 
1  5.310971169850e+01  -5.934503429638e+01   1.198544087576e+01 
1  5.991397459820e+01  -9.717471813205e+01   2.164053201595e+01 
8
Step 12000
1  1.561414808951e+00  -2.071257050494e+01   4.879010949790e+00 
1  1.469288340848e+01  -8.135336925728e+00   2.301910947948e+01 
1 -9.341692951364e+00  -3.253719770321e+01  -1.869030565689e+01 
1  3.587351216459e+00  -3.461094206850e+01   3.247120411865e+01 
1 -4.236764670828e+01  -6.763430604789e+00   2.967948806734e+01 
1 -4.141800205141e+01   4.500022280420e+01  -2.867583291927e+01 
1  5.086634936285e+01   3.623713218750e+00   3.240273055294e+01 
1 -1.413459724988e+01  -4.601228186785e+01  -7.350819684087e+00 
8
Step 13000
1 -8.189964191978e+00  -6.101421946616e+01   1.738913786409e+01 
1  4.087732443476e+01  -8.974171463331e+00   4.547025354585e+01 
1  8.445515501076e+00  -6.938447753108e+00   5.851207905803e+01 
1 -1.605402416189e+01  -3.601145782662e+01  -9.202020497533e+00 
1 -8.365005654035e+00  -7.507716591615e+00   4.173152224810e+01 
1  4.268668081684e+01  -3.977834461682e+01   3.076332765516e+01 
1 -1.841016906847e+01  -2.963885203640e+01   1.839477927315e+01 
1 -5.140197125035e+01  -2.687928610198e+01  -7.538411817104e+00 
8
Step 14000
1 -6.452418940822e+01   4.190242724637e+00   3.778321775118e+01 
1  1.774016254852e+01  -2.767030840651e+01   1.210325384597e+01 
1 -1.390909926034e+00  -1.112978763891e+00   3.666304963534e+01 
1  2.430751494031e+00   3.252966343028e+00   4.775095898080e+01 
1  4.296335817890e+01   7.882091605730e+00   2.783502823593e+01 
1  7.212778861108e+01  -4.048560696882e+01   1.431468104776e+01 
1 -2.112097374239e+01  -7.823711394805e+01  -1.648695272185e+01 
1  1.574418024551e+00  -1.147335157702e+01  -7.595884473947e+00 
8
Step 15000
1 -1.868648849729e+01   5.287913498240e+01   5.427762971709e+01 
1  1.030663442499e+01  -4.287665654763e+01  -1.101045313881e+01 
1 -3.141636421836e+01   1.925302786843e+01  -2.902797784688e+01 
1  9.738288408478e-01   2.725185421343e+01   2.169469724408e+01 
1  1.080585829202e+02  -1.014071638833e+01   1.758139845665e+01 
1 -2.095351651363e+01   6.371834870810e+01  -1.276217987155e+01 
1  3.115942176294e+01  -3.604993809476e+01  -3.490377674481e+00 
1  2.522336058856e+01   1.732960692062e+00  -1.811905069431e+01 
8
Step 16000
1  3.570938917958e+01   1.459552691552e+01   2.194000043243e+01 
1 -9.959525353453e+00  -2.462653792992e+01  -1.615506237301e+01 
1 -7.038459353310e+01  -5.360184033236e+01   3.593761983311e+00 
1  1.146016740516e+01  -5.462230820384e+01   5.208775698546e+01 
1 -4.538770364439e+00   1.724593958168e+01  -5.949147823496e+00 
1 -3.784595953044e+01   1.299694684716e+01   3.598798709771e+01 
1 -9.194011202678e+00  -3.210647022712e+01   2.887262474602e+01 
1 -3.619935130248e+01  -1.108852196767e+01  -2.729695628265e+01 
8
Step 17000
1  2.130054935722e+01  -8.000899348112e+00  -3.729598432070e+00 
1  3.224953255812e+01   3.093379494234e+01  -5.586664837057e+00 
1 -1.893495137192e+01   1.569019847324e+01  -2.471273049533e+01 
1  3.609567936747e+01  -1.326049599618e+01   1.431610862342e+01 
1 -3.545827388651e+01   1.190994165300e+01  -5.124917260364e+01 
1  1.351598200626e+01  -4.689137167362e+01  -7.897971087269e+00 
1 -1.246904494177e+01   6.095275783935e+00   5.266799597136e+01 
1  2.579768565697e+00   2.180459111075e+01  -3.251167231763e+01 
8
Step 18000
1  2.991251773495e+01   4.391243619149e+01   3.099735525588e+01 
1 -1.788113298713e+01   7.370641004215e+01   5.942970712167e+01 
1  1.486574402511e+01   3.205467812158e+01   2.262073493211e+01 
1  4.319499289863e+01   1.556268760376e+01   5.921970393795e+00 
1  3.369036885968e+01   7.839047607529e+00   1.374524776628e+01 
1 -5.033115420865e+00  -4.759484336316e+01  -7.335937675562e-01 
1 -1.797664963551e+01   1.429721400301e+01   2.289721205054e+01 
1  1.483085592587e+01  -3.001353607212e+01  -3.840365744065e+00 
8
Step 19000
1  3.904146984976e+01   1.372752759807e+01  -3.759575604329e+00 
1  2.228630429212e+01   2.593148002150e+01  -1.495907476398e+01 
1 -1.761695882836e+01  -1.569983735241e+01   2.544040364049e+01 
1 -3.721654515804e+01   9.836993239534e+00  -8.040694384528e+01 
1 -2.717555708862e+01  -6.897814538586e+00  -3.996723739446e+01 
1  3.646037795773e+01  -1.133170605036e+01  -4.750825127942e+01 
1 -4.158632025350e-01   7.670946449763e+01   3.816691398458e+01 
1 -1.128833695714e+01   1.592304592111e+01   2.818090722962e+01 
8
Step 20000
1  2.476964227740e+01   1.217375112848e+01   9.366152672634e+00 
1  7.836914133125e+01   3.906380478393e+00  -4.024570419002e+01 
1 -4.425667660877e+01  -5.133220575542e+00  -3.268593891818e+01 
1 -2.732307804884e+01  -1.485333278237e+01   5.147885671305e+00 
1 -6.813345702928e+01  -6.015705317667e+01   2.020044358896e+01 
1  8.926481869493e+00   2.937896688735e+01  -1.989543783541e+01 
1 -4.601547751736e+01  -6.082021371143e+00   2.078859915566e+01 
1 -4.003101654238e+01   1.303470193525e+01   1.012588781185e+02 
8
Step 21000
1 -2.172542555544e+00   2.492377686218e+01  -2.626832518058e+01 
1  3.664162712716e+01  -9.137783145304e+00   4.705511154895e+00 
1  1.976621335743e+01   1.398001521365e+01  -1.253725247027e+01 
1 -1.098215062881e+00   2.400410189268e+01   4.322224716559e+01 
1 -4.837389342247e+01  -8.555245338582e-02  -7.909221001941e+00 
1  9.714564987521e+00  -1.993866365361e+01   3.012237227495e+01 
1  8.430672330557e+00  -1.039929559610e+01  -4.299951348181e+01 
1 -3.430047619739e+01   2.026960927656e+00   1.898034306877e+01 
8
Step 22000
1 -3.352724655231e+00   8.420466473877e+01   1.357084764152e+01 
1  1.247337883981e+01   1.105816679177e+01   1.910836591923e+01 
1  2.156732352903e+01   4.965231688939e+01   3.861453122543e+01 
1 -3.896181843029e+00   2.901285404623e+01  -6.964304033915e+00 
1  3.930738311774e+01   1.808110834088e+01  -1.100478389758e+01 
1  3.447173199806e+01  -6.085449155953e+01   3.759801766100e+01 
1  1.680437937064e+01   1.932654640828e+01   2.926580095566e+01 
1 -2.444575867797e+01  -3.702752823501e-01  -6.390654889817e+01 
8
Step 23000
1 -1.687480153229e+01   3.511017804892e+01  -5.307071247068e+01 
1 -3.323172302375e+01  -7.692964079370e+01  -4.849707980212e+01 
1  9.963745452481e+00  -8.226646052794e+00  -5.885708775878e+00 
1  2.517120971355e+01   1.046430038889e+01   3.398728975142e+01 
1 -2.398995752082e+01   1.493584626438e+01   2.337591168970e+01 
1 -3.954240178199e+01   4.441746376987e+01  -1.601353807229e+01 
1 -2.730243638894e+01  -9.846547291820e+00   2.952090496590e+01 
1  1.650944453150e+01  -2.824281669211e+01  -8.583105793708e+01 
8
Step 24000
1  4.932940720132e+01   2.302305098041e+01   7.163569653185e+00 
1 -1.667887626773e+01   7.655910646161e+00  -4.979845368810e+01 
1  1.367088640792e+00  -4.933266076426e+01  -7.169466272550e+01 
1 -1.288336094832e+00  -2.059589046003e+01   3.766369562656e+01 
1 -4.258389930271e+01  -2.925164454649e+01  -9.326865101174e-01 
1 -2.677008119144e+01   7.094753197013e+01   2.731218311729e+00 
1 -1.141394630213e+01   1.863419506618e+01   3.221044442143e+00 
1 -1.635196937925e+01  -1.037745133431e+01   1.066434511039e+01 
8
Step 25000
1 -5.605584323437e+00  -2.173392035944e+01   1.247789210514e-01 
1  1.193716976607e+01   5.389440489111e+01  -6.379512866805e+00 
1  1.686988371534e+01   3.124119094136e+01  -3.434364116289e+01 
1  5.591312995256e+01   2.132446890220e+01   6.162494895089e+01 
1  4.308664798116e+01   2.364590806878e+01  -2.847264972287e+01 
1  3.297752778935e+01  -6.805688108089e+00  -7.826411568060e+00 
1 -2.535255875168e+01   3.651940714853e+01  -3.942982021167e+01 
1 -4.259160733000e+00   1.687063379532e+01   5.490939547562e+01 
8
Step 26000
1  7.720621773064e+00   1.038859491349e+01   1.896921289866e+00 
1 -6.874901168475e+00   4.514799834941e+01   3.424710836332e+00 
1 -2.971358412469e+01   5.531317991480e+01  -2.759399455979e+01 
1  4.221098973872e+01   4.596671227413e+01  -2.924343807155e+01 
1  2.290966291095e+00   8.117109124534e+00  -1.340529863181e+01 
1  5.283576689134e+01  -1.281954863082e+01   3.309948925784e+01 
1  8.504255831477e+01   1.697471779212e+01  -3.701660307604e+01 
1  3.331880779928e+01  -1.229760742311e+01   1.914500105832e+00 
8
Step 27000
1  9.832252443623e+00  -2.020329612717e+00  -2.088219703537e+01 
1 -5.097547393423e+00  -3.137591795182e+01   6.174264046387e+00 
1 -6.413461599413e-01  -1.266491280583e+01  -1.720248883316e+01 
1 -2.367958920582e+01   4.666210558491e+01  -4.474063380640e+01 
1  2.007757054574e+00   2.857207950229e+01  -2.863703713926e+01 
1  9.635341730625e+00   4.326168222734e+01   3.425535645583e+01 
1 -8.394655835731e+00   4.427843344266e+01   4.473483635622e+00 
1 -3.882576742313e+01  -1.773693739900e+01  -2.941908981870e+00 
8
Step 28000
1  1.937447634169e+01   4.076564309112e+01   3.969184735568e+01 
1 -1.681529367584e+01  -7.492737636888e+00   9.225222351149e+00 
1  5.670547407301e+01  -4.475773118656e+01  -4.729166483606e+01 
1 -1.905645698231e+01   1.464949813846e+01   2.237433504551e+01 
1  8.877571012583e+00  -3.738213509064e+01   3.253976879385e+01 
1  5.650473614134e-01  -5.893018136759e+00  -1.065913015163e+01 
1 -2.538590349112e+01   1.098118358302e+02   2.126712949413e+01 
1  3.476718591792e+01  -5.228488430528e-01  -1.909528766263e+00 
8
Step 29000
1  8.166187755202e+00   3.822852278852e+01   5.483793566399e+01 
1 -1.620956622567e+01   5.525657838147e+01   2.515238009910e+01 
1  1.774024124871e+01  -3.255647803764e+00  -4.187831467002e+00 
1  2.620513237150e+01   5.756351212887e+01  -4.750379225474e+01 
1 -7.840013726754e+00  -6.117427913731e+00   2.969548688307e+01 
1  7.809546704830e+01   2.779147869095e+01  -2.478455608362e+01 
1  1.069798259498e+01   7.778237717562e+00  -1.958081890505e+01 
1  2.279990904812e+01   2.063533141589e+01   4.628393937730e+01 
8
Step 30000
1  2.357227632933e+01   2.192619137325e+01   2.326954923472e+01 
1 -3.517187125966e+01   5.853783367873e+01   2.093446220583e+01 
1 -4.803818820316e+01   7.854617834898e+00  -2.607216249519e+00 
1  1.577804772984e+01   3.344852060044e+01  -4.181365359399e+01 
1  5.549781740005e+01   3.243687277009e+01  -2.461548392075e+01 
1  1.645868845484e+01   4.958980201824e+00   2.718516493080e+01 
1  1.445846363191e+01  -9.391691402934e+01  -3.549150379548e+01 
1 -5.951513440687e+00   4.673989546317e+00   1.052900741071e+01 
8
Step 31000
1  2.795143291676e+01  -6.086508196415e+00  -3.975538276498e+01 
1 -3.746927854004e+00  -6.938188586948e+01  -7.028299276528e+00 
1 -4.994420527388e+01   5.557931479920e+00   1.836781817705e+01 
1 -2.713484360386e+01  -1.578938365436e+01   4.264372592600e+01 
1  1.636466004468e+01  -4.350689382115e+01  -4.509446942266e+01 
1 -5.783829307909e+01   5.657161383552e+01  -2.711622845005e+00 
1 -4.803770622257e+01   7.730116278021e+01  -4.156313726922e+01 
1 -2.189258447201e+01  -3.746572762657e+01  -1.586265677564e+01 
8
Step 32000
1  4.881288433239e+01   4.465302838983e+01  -2.338110762177e+01 
1  6.667218271647e+01  -2.201474424527e+01  -2.677928658562e-01 
1  6.800150323309e+01   8.518928503700e+00   1.195811526910e+01 
1  1.228382319608e+01   1.390368022701e+01   4.932244819989e+01 
1  1.573324369333e+01  -2.983524136599e+01   3.085682379207e+01 
1 -2.360041227604e+01  -4.680084722881e+00  -4.000984240433e+01 
1 -7.707703054539e+00   6.921512317216e+01  -3.166234979024e+00 
1  8.674370468751e+00  -5.524288025119e+01   3.679001899886e+01 
8
Step 33000
1 -2.682294657679e+01  -6.983618414283e+00   4.753644212187e+01 
1  1.236960507084e+01   5.859890955283e+00   2.088533947852e+01 
1  7.642996067419e+00  -1.554993741664e+01   1.509561175561e+01 
1 -4.154842276918e+01  -1.392309815994e+01   2.977026238522e+01 
1  8.861302132532e+01   2.325183190350e+01  -1.300512606154e+01 
1  4.600632258355e+01  -3.147092486948e+01  -1.253272104007e+02 
1 -2.966640029158e+01  -2.124110038439e+01   1.372552150569e+01 
1 -6.308297306993e+01  -3.218183980971e+01   2.617188829218e+01 
8
Step 34000
1 -3.344833034379e+01  -2.433557464942e+01   2.246155100954e+01 
1  2.799851515827e+01  -1.765051136957e+01  -3.633359849711e+01 
1  5.489132250754e+00  -1.143698391700e+01   2.493999813420e+01 
1  1.514153432789e+01  -1.218987001319e+01  -1.989428974128e+01 
1 -7.998536022017e+00   5.674094208128e+01  -5.363095997223e+01 
1  1.196921143437e+00   1.297699625406e+01  -2.768070751386e+01 
1 -1.595245050321e+01  -7.039266041712e+01   3.511872429138e+01 
1 -3.704521065726e+00   7.128558912214e+00  -7.822051018921e+01 
8
Step 35000
1  1.153951804674e+01  -4.966334844813e+01   1.779685726597e+00 
1  4.460367847250e+01  -8.686234376839e+00   5.105711457849e+00 
1 -2.633246376058e+01  -6.508171287604e+01   4.501598620614e+01 
1 -1.190988306433e-01  -2.921350412565e+01  -1.462412682018e+01 
1 -2.760281826192e+01   1.186538067521e+01   4.375715963869e+00 
1  1.541190578025e+00   3.690664846659e+01   7.329633207997e+01 
1 -7.646621191667e+00  -2.769392481525e+01   4.167526595811e+00 
1  3.151578442640e+00   3.262943653930e+00  -2.062172083024e+01 
8
Step 36000
1  1.240566366621e+01   5.651298167980e-01  -2.592767354240e+01 
1  1.544121155789e+01  -3.278592334212e+01   3.136941189167e+01 
1  1.756450755374e+01   1.932698396571e+01  -1.919710169552e+00 
1  9.643441087850e+00  -2.385712488535e+01   6.182555428245e+00 
1  4.866913055949e+01  -5.323694884028e+01  -2.151095382291e+01 
1 -1.324110497055e+01  -5.437424940357e+01   3.906525542946e+01 
1  2.036340532615e+01   1.302132995750e+01  -3.357861563282e+01 
1  2.824509368335e+01  -9.578701001774e+00   2.718950660707e+01 
8
Step 37000
1  5.951991594194e+00   1.826788732762e+01   6.386714461597e+01 
1 -1.343781528674e+01  -3.587545307316e+01   1.772089006049e+01 
1  6.615019997132e+01   4.880957004026e+01   2.685239439882e+00 
1  2.593445768104e+01  -4.131559002413e-01  -3.544970215891e+01 
1  3.424487518065e+01   1.063830387044e+01  -6.067656201416e+00 
1 -2.304970736770e+01  -5.137937593182e+01  -3.984193275480e+01 
1  4.006019696075e+00   2.989267351438e+01   3.324045999855e+00 
1  1.962408540562e+01  -4.516010041275e+01   2.629039352752e+01 
8
Step 38000
1  2.713939417429e+01   9.136199462100e+00  -4.906950687706e+00 
1 -6.961245008744e+01   2.724677630242e+01  -6.775827636341e+01 
1 -1.407930857636e+01  -1.921336386069e+01   4.022077752735e+01 
1 -2.549843727036e+01  -1.765166200846e+01  -6.774500429810e+01 
1  1.793003430844e+01  -3.234551844761e+00   4.273420609573e+01 
1  3.842882431427e+01  -1.906302864642e+00  -4.726572912873e+01 
1  4.132648634336e+01  -1.085903297351e+01  -7.789664827130e-01 
1 -6.529544085456e+00  -5.054011065417e+01  -5.651262884299e+01 
8
Step 39000
1  7.895663548078e+01  -6.203321302913e+00  -1.995298859260e+01 
1  3.687001797719e+01   1.269414697154e+01  -3.214572572590e+01 
1 -9.895776769055e+00  -3.075479449177e+01   5.650654741566e+01 
1  6.473884058800e+01  -6.703918717760e+01  -5.170798561817e+01 
1  4.617080721514e+01  -2.724692983111e+01   2.122307271564e+01 
1  2.312681394253e+01   5.866890158487e+00   3.571206310825e+01 
1  5.746391931611e+01  -6.214619115212e+01   7.517883528052e+01 
1  3.030796801236e+01   3.563155425924e+01  -2.708457098148e+01 
8
Step 40000
1  1.372281923513e+01   2.746945291783e+01  -7.142537287829e+01 
1  2.258510256800e-01   4.894954564649e+01   1.085386896438e+01 
1 -3.087221975911e+01   2.640605233403e+01  -1.723847724668e+01 
1  1.827521943726e+00  -6.189758901383e+00   9.377039672715e+01 
1  2.893907477263e+01  -5.203841816325e+01  -2.575187612869e+01 
1  6.997054739423e+01  -2.886679967548e+01   2.402412063663e+00 
1 -3.513580231753e+01  -3.420859564154e+01  -1.111985191650e+01 
1  1.345337101079e+01  -3.730811501331e-01   5.920332168044e+00 
8
Step 41000
1  4.096153610322e+00   2.064861045649e+01   2.072171559595e+01 
1  1.523338393792e+01  -6.356092198462e+00   8.376604976850e+00 
1  4.137113798898e+01   5.263084351902e+01  -1.045372714503e+02 
1 -3.877999542655e+01   9.903757018785e+00  -2.292198254338e+00 
1  7.569636068280e+01  -1.409852412571e+01  -7.301249260495e+01 
1  5.178554556900e+01   2.371416584765e+01  -8.332225512055e+00 
1 -1.759001537168e+01   2.572814438728e+01  -9.843586385703e+01 
1 -2.879011632036e+00  -3.763031574676e+01   7.655575534025e+01 
8
Step 42000
1  4.105018521285e+01   4.109084473731e+01   2.650750490360e+01 
1 -2.538654405249e+01  -2.429138327263e+01  -6.566171836147e+01 
1 -2.654351056826e+01   1.747696421811e+01  -2.878958898534e+01 
1 -5.482139615703e+01  -5.127549628736e+01  -7.443710688228e+01 
1  9.229524530778e+01   3.811764591222e+01   9.542665431858e+00 
1 -1.606213853637e+01  -9.329944924423e+00  -1.797595596043e+01 
1  4.547205893283e+01  -7.084225205126e+00  -5.202984255637e+01 
1 -1.244905023164e+00  -5.554941129377e+01   2.684031346145e+01 
8
Step 43000
1  3.852360524241e+01   8.096082954201e+00   1.781058558243e+01 
1  1.507171010828e+01  -2.464884242962e+01  -5.006173108808e+01 
1  7.132906999737e+01   3.346590411034e+01   1.802040951449e+01 
1  2.633111198945e+01  -2.089193337125e+01  -3.917246219495e+01 
1  3.200290914389e+01   5.288976566848e+01   5.648219190939e+01 
1  4.388038431823e+01   7.225235229607e+00  -1.509739939705e+01 
1  2.393531255175e+01  -1.377582279278e+00   2.924100283398e+01 
1 -1.919199327362e+01  -4.440659252859e+01   1.786547259821e+01 
8
Step 44000
1 -5.606886872500e+01   3.895114626494e+00  -3.888756127637e+01 
1  4.743185710608e+01   2.988375116545e+01  -1.308384324260e+00 
1 -7.291221704885e+01   2.789173412977e+01   2.886631285852e+01 
1  9.278419691948e+01   7.184121541575e+01  -3.649893047060e+01 
1 -4.214731331472e+01  -3.420431766363e+01   1.486910966461e+01 
1  4.344276529960e+01   1.581102774792e+01   4.017179170357e+00 
1 -6.403375324165e-01  -5.636034479851e+00   1.903053359068e+01 
1 -5.888472933023e+01   2.338931425587e+01   3.712074778160e+01 
8
Step 45000
1  1.897151198066e+01  -4.351723438560e+01   6.949593653547e+00 
1 -4.720957745152e+00  -2.162055221414e+01   4.254074939359e+01 
1 -1.293903525538e+01  -3.811783562147e+01  -2.321455692803e+01 
1  2.795540476111e+01   1.746002497899e+01  -3.111035184844e+01 
1 -1.727828473311e+01  -2.012003801686e+01  -3.523935380640e+01 
1 -1.774852726050e+01  -1.004695472845e+00   3.705834151391e+01 
1 -1.299698787412e+01  -4.931978542578e+01  -5.488391664179e+01 
1  1.717269603666e+01   3.032408568020e+01   2.508004190595e+01 
8
Step 46000
1  3.985405263077e+01  -8.284874339070e+00   1.022243450792e+01 
1 -3.004074259783e+01  -1.770419830992e+01   4.081408918876e+01 
1  5.595477820012e+01   1.788016898614e+01  -2.302951156243e+01 
1 -5.915557399672e+01   3.395873432571e+00   5.257142515351e+01 
1 -1.364213975087e+01   1.379471821460e+01   1.357952193157e+01 
1  2.449860936138e+01  -5.057319343090e+00   3.018066511625e+01 
1  3.608270668605e+01   4.784277227279e+01  -3.089518711096e+01 
1  1.709506334665e+01  -2.934055077446e+01  -1.366215016379e+01 
8
Step 47000
1 -4.363957274399e+01   4.391737442038e+00  -5.409276993720e+01 
1  1.889927632845e+01  -1.301633513766e+01   2.493128710555e+00 
1  5.630848056026e+01   2.462944037299e+01   1.183865656440e+01 
1 -2.667918691032e+01  -1.792297854926e+01   8.405854196203e+01 
1  3.041870146419e+01  -2.226666844681e+01  -1.925121741734e-01 
1  3.412712893781e+01  -1.311570099686e+01  -3.149974499587e+01 
1  2.879773173399e+01   6.695218269365e+01   1.430829428399e+01 
1 -1.376940878237e+01  -6.429619795123e+01  -9.709364619225e+00 
8
Step 48000
1 -2.877571660879e+01   5.215141033555e+01   8.858192357518e+00 
1 -1.515304449747e-02   1.722159929329e+01  -8.984692058226e+00 
1 -3.433248974781e+01  -1.302413313178e+00   3.040661661937e+01 
1 -6.984546586136e+01  -4.486349779811e+01   2.657609106318e+01 
1 -1.155076188006e+01  -1.518092128602e+01  -9.353883422968e-01 
1  6.779331216589e+01   6.012837431264e+01  -6.660195559063e+01 
1  5.097376589508e+01  -1.291519730038e+01  -1.721847323290e+01 
1  4.850667399020e+01   6.133906354264e+01  -6.423924952931e+00 
8
Step 49000
1  2.918061868848e+00   6.638631262066e+00   1.357770488904e+01 
1  2.806079000997e+01  -3.968295643460e+01   4.617758421653e+00 
1 -1.506927325269e+01  -2.679747662515e+01  -3.918286458472e+01 
1 -1.653823244856e+01  -2.015063008072e+01  -3.047874575219e+01 
1 -2.622119182637e+01  -5.915883906086e+01  -5.553412643850e+01 
1  2.230670105128e+01  -2.650692218520e+01  -2.437424302530e+01 
1  4.152687962213e+01  -7.554423260925e+00  -3.572829281494e+01 
1  3.541476736001e+01   4.082281055078e+01  -5.878150208745e-01 
8
Step 50000
1  7.930746920380e+01   7.330152531293e+01   1.288968908399e+01 
1  1.512004133427e+01  -9.760312366174e+00   3.590933936328e+01 
1 -5.568282610863e+01  -4.568705675103e+01  -4.991029690491e+01 
1  1.421972165739e+00   2.418388878427e+01  -3.845235564896e+01 
1 -4.896902474169e+01  -2.408776652502e+01  -1.686358137419e+00 
1  6.046172789287e+01  -7.030844010287e+01   6.541192603303e+01 
1  5.665016520649e+01   1.655507815726e+01  -2.439088181914e+01 
1  1.255655700971e+01  -4.904906193560e+01   1.387023317142e+01 
8
Step 51000
1  1.030049392958e+01   8.038063748974e+00  -7.062365130160e+01 
1 -1.733476569505e+01   6.711756577870e+01   8.773257677648e+00 
1 -7.517703611234e+00  -5.432864699873e+01  -2.446812599045e+01 
1  3.862719094421e-01   1.655227195106e+01  -5.003023358954e+00 
1  8.607476294076e+00   1.234016518838e+01   1.454436347028e+01 
1 -3.525604830421e-01  -6.806158878858e+01  -1.999729680120e+00 
1 -5.984387624025e-01   4.343331876084e+01  -4.419616682319e+01 
1  2.696803899101e+01  -3.331651378467e+01   3.644348891195e+01 
8
Step 52000
1  2.152495840387e+01   2.830469987895e+01  -6.069268530612e+01 
1  7.585482886912e-01   3.073698375925e+01   1.294608006281e-01 
1 -2.420660966398e+01  -5.626967194415e+01   6.809641873725e-01 
1 -3.221707097800e+01  -1.416538717306e+01  -6.049869991801e+00 
1  9.362713799130e+01   7.209841532928e+00  -7.261035261883e+01 
1 -3.408156959503e+01  -8.803483444838e+00  -5.898114838906e+01 
1 -4.220086171035e+00   1.706309752246e+01  -2.229926158268e+01 
1  7.121940781483e+01   7.754748297120e-01   4.850409769332e+01 
8
Step 53000
1  2.507624944898e+01  -1.309450939200e+00   1.175038497297e+01 
1  4.135482569555e+01  -5.019112255896e+01   2.242985767042e+01 
1 -3.190345682852e+01   2.656161224452e+01   4.774293542848e+01 
1  4.056686764672e+01  -3.551702875803e+01  -1.878224517542e+01 
1  5.503624013363e+01   9.867360930642e-01  -3.766372392475e+01 
1 -3.554158078094e+01  -1.895136945523e+01  -8.349959210931e+00 
1 -7.912045952194e+00  -4.017543116491e+01  -2.127523347845e+01 
1  3.215873108471e+00   1.987590304424e+01  -3.415992199538e+01 
8
Step 54000
1  5.524734315645e+01   1.360749107379e+01  -1.250048474556e+01 
1  2.645398600041e+01  -1.715645607805e+01  -4.121101513511e+01 
1 -4.322288166737e+01  -1.501546711724e+01  -2.346495537032e+01 
1  7.044440689705e+01  -4.315673472350e+01  -4.256599366334e+01 
1  7.823049443043e-01  -2.444065479683e+01   5.744416183656e+01 
1  6.958764894186e+01  -5.591121544365e+01  -1.736580009950e+01 
1 -6.492666988180e+01  -1.017285396000e+01  -5.791402189620e+00 
1 -2.059276188382e+01   2.772500446314e+01  -4.505803862420e+01 
8
Step 55000
1 -5.125807090277e+01   3.424804257224e+01  -2.730614706234e+01 
1  1.304722320055e+01   3.380785611779e+01   1.358834380215e+01 
1  2.087890802375e+01  -2.476020321376e+01  -1.024178455945e+01 
1  3.635473594579e+01   2.724637657755e+01   2.358786693315e+01 
1 -4.712560973509e+01   5.919745344324e+00   1.914599689876e+01 
1  3.775525441336e+01   1.369202341205e+01  -1.147620763405e+01 
1 -5.910946369682e+01  -3.327841344590e+00  -6.041594515882e+01 
1 -3.240898451700e+01   1.143427702010e+01  -4.394399318468e+01 
8
Step 56000
1  6.049728148863e+00   1.019137551495e+01  -6.866576360604e+01 
1  1.542119672858e+01   7.738948619146e+01   2.112958973927e+01 