8
Step 0
1 1.39748825551200468e+01 5.42081696338564996e+01 -4.12502637145741176e+01
1 6.76856145659056949e+01 -9.52436813211538436e+01 -3.53785538339906509e+01
1 -1.69244962808761841e+01 8.98277443199455661e+00 2.97571380721552714e+00
1 3.73764782190754659e+01 6.81734884372274905e+01 -4.57848032008425605e+01
1 1.32334743617293725e+02 1.44513687947378003e+02 4.09275922922765290e+00
1 4.85671606455685492e+01 -3.61856508787949736e+01 3.27324193705891275e+00
1 1.10101464733509715e+02 -2.55830189233402763e+01 -1.12892755091165839e+02
1 1.01490638462739952e+02 -1.72728486323217680e+01 -1.04865858063218212e+02
8
Step 1000
1 -1.49688624575822864e+01 -2.35639841665360450e+01 3.56882995118295554e+01
1 -7.11827074939195654e+01 6.01279737162981434e+01 1.84402932111671625e+01
1 -6.59782106729135442e+00 -2.37241416995175065e+01 1.38657398543553789e+01
1 -2.55917541755673454e+01 -3.37594064350810399e+01 1.18125258283360736e+02
1 -6.67162058451525297e+01 -8.49128499106935237e+01 2.20861460856317464e+01
1 -1.32597359591453579e+00 7.93493938617442325e+01 -6.43618718197137269e+01
1 -1.09550493885079661e+02 -2.82445899719022648e+01 1.06986105740033636e+02
1 -1.19865253778761627e+02 -4.96018086731964161e+01 9.04813036286612657e+01
8
Step 2000
1 2.57080805515809594e+01 -2.54444200218805641e+01 -1.91083767809372986e+01
1 5.06356008661034735e+01 -1.80476883791133531e+01 -2.62612118466012205e+01
1 -1.50785894247163927e+01 5.83955102410830804e+01 -2.72333985891244161e+01
1 -7.97497477880952843e+00 2.50991696575357786e+01 -1.14571399247595878e+02
1 -3.65355929261691870e+00 2.78425426671243308e+01 -5.65604602917557173e+01
1 -1.58320225097524805e+01 -8.55455822179987280e+01 1.11921593742699415e+02
1 6.27388632007330855e+01 7.59618856461379295e+01 -4.54436525627365384e+01
1 8.92085385400851010e+01 6.49047293280166286e+01 -5.46661260422367263e+01
8
Step 3000
1 -4.60259945425598715e+01 7.52192281113566708e+01 -2.77075297746847182e+00
1 -2.52276605309517983e+01 -2.28777915074302243e+01 4.38234656549499277e+01
1 7.08697595048253959e+01 -1.20131783511153614e+02 3.92905648908072678e+01
1 3.53158887696549471e+01 -3.25506176450028306e+01 6.02331831162773810e+01
1 6.56431471589630178e+01 1.41273059032325357e+01 7.97562643303536447e+01
1 1.93113599132715450e+01 7.99199273877434422e+01 -1.47235284875918353e+02
1 -2.04840332051519667e+01 -7.15712112727281209e+01 -8.74172484979598607e+00
1 -6.92496473350760624e+01 -6.29155743209421132e+01 4.42660160085688190e+01
8
Step 4000
1 4.33423022256089254e+01 -8.54810244346658408e+01 2.60615999250677923e+01
1 1.07773184183680311e+01 6.62063525143342986e+01 -6.75686164657599875e+01
1 -1.00037431420816830e+02 1.32472477931904450e+02 -1.98988502135463357e+01
1 -6.73728132169974288e+01 6.76461965586647551e+01 -1.04330412056735522e+01
1 -1.03448382375992168e+02 -4.72530158174062436e+01 -7.52084002150270265e+01
1 7.36605225023307852e+00 -4.02932446767577801e+01 1.29738570318986206e+02
1 1.94043191453439583e+01 5.80483027118610977e+01 5.72830019192743549e+01
1 5.00763505472799153e+01 4.58316238367032369e+01 -4.72127907637520110e+01
8
Step 5000
1 -1.24867679817108588e+01 5.22869107101955066e+01 -4.80798404914485076e+01
1 -8.75193408130005324e+00 -1.12518622493990833e+02 8.98311828168118609e+01
1 6.43363842471031830e+01 -7.88952738460659333e+01 -4.40557666429696138e+00
1 8.76150616967974116e+01 -9.79013538003824237e+01 -3.52648335279798033e+01
1 9.37747494795448802e+01 5.94620321135373615e+01 3.71905865162623712e+01
1 -4.51687549788396296e+01 -8.76445555886056482e+00 -5.22250660883013680e+01
1 -4.75887878037687813e+01 -2.57592820830746838e+01 -8.89592381858854395e+01
1 -3.01734477854282765e+01 -1.69304061949437212e+01 6.22661605953160091e+01
8
Step 6000
1 -2.88808089928894880e+01 -7.10225969892730546e+00 7.08799217147652740e+01
1 1.16897363077659246e+01 1.33219386979331205e+02 -8.28811086562929802e+01
1 -4.43728037451370794e-01 2.28358400197671720e+01 1.19470837855083669e+01
1 -7.35087839789767798e+01 9.70339128385779617e+01 5.44765523426259577e+01
1 -6.49738886009350836e+01 -6.72367175041170952e+01 1.01051761864832450e+01
1 8.34631866593456238e+01 4.28340439271894340e+01 -2.21935235486638405e+01
1 9.37506802345409369e+01 -1.79020973291714434e+01 8.64361926917451200e+01
1 6.57770967489232916e+00 -1.41208713859752777e+01 -9.44995305801064518e+01
8
Step 7000
1 6.33589063168147533e+01 -2.42148691926574458e+01 -8.42694519047130228e+01
1 -1.22704121573943716e+01 -1.06053155373811535e+02 3.96199414055861467e+01
1 -7.18420779701437056e+01 7.92639053956323281e+00 -7.43396164163807160e-01
1 3.58318405032959717e+01 -7.47726557825998412e+01 -3.37145841453134310e+01
1 1.33539631633879363e+01 7.62516371423443786e+01 -6.31430202583689493e+01
1 -1.36446064718615048e+02 -6.62899275132876937e+01 7.40740177443888683e+01
1 -1.29687308331903608e+02 5.38006102839262468e+01 -5.41151767912921713e+01
1 2.56801126547169822e+01 3.10001186718506254e+01 1.16794182001863945e+02
8
Step 8000
1 -6.60154437822158684e+01 1.37615926400725161e+01 7.08252149731818150e+01
1 1.47428818317337704e+01 6.14485028320514175e+01 4.31352116021834853e+00
1 1.54335928014416709e+02 6.32746945318071585e+00 -3.81509864477622855e+01
1 8.20555891266942616e+00 4.24216420832819381e+01 -3.14265569245022718e+01
1 4.55991479776988911e+01 -8.98004497778837418e+01 1.06840200322467140e+02
1 1.46246607732707957e+02 5.54702453538005500e+01 -5.98005433744047679e+01
1 1.24579270835784499e+02 -6.30891572948823125e+01 9.04252813226010765e+00
1 -4.09384665140369961e+01 -1.98468727217318452e+01 -8.28016771127756215e+01
8
Step 9000
1 3.07252962522746991e+01 3.73002407367421824e+01 -3.33947955862821955e+00
1 -2.34871616937254224e+01 -3.61680919273973416e+01 -2.46824165947514800e+01
1 -1.36548260510427156e+02 -7.47050264551323266e+01 8.17099808391043609e+01
1 -4.65043249167261692e+01 -2.29777031708745909e+01 1.44396858661590272e+02
1 -6.38998531388315101e+01 9.19187794305980361e+01 -1.18642138166293620e+02
1 -9.80310705779176317e+01 -2.90851290487625143e+01 -1.49643044553362579e+01
1 -7.45173334563587559e+01 5.22601394902297685e+01 4.09564554767324722e+01
1 2.55443875158024163e+01 -9.98034828077583569e+00 2.42952634995551868e+01
8
Step 10000
1 2.00322567373642926e+01 -8.68353846318432403e+01 -6.34264829780206938e+01
1 4.48046377929883803e+01 4.07732670773958858e+01 2.03130852300461591e+01
1 7.49348867650463202e+00 1.51234879727220061e+02 -7.95062233382280965e+01
1 4.09985126284424908e+01 -1.27132317423826180e+00 -1.92697242684663564e+02
1 2.75399154088891116e+01 -5.58913168142658492e+01 7.07112494791095259e+01
1 3.38880684747707406e+01 1.09002831454804845e+01 9.36996930666014407e+01
1 2.53143724191584525e+01 -4.07400597274621106e+01 -6.66297477001778731e+01
1 1.40180515197123690e+01 4.02585269523274931e+01 3.21782460179880303e+01
8
Step 11000
1 -4.42361375139565780e+01 7.62794224587648273e+01 6.01256174271729975e+01
1 -7.41684014143194332e+01 -6.94971142845296725e+01 -2.02222041208690495e+00
1 9.93776566056974673e+01 -1.54289462279713092e+02 4.13289880986896918e+01
1 -9.90135304388645920e+00 4.00794377895427303e+01 1.10217665633466737e+02
1 -2.07156260315852492e-02 3.45945029211309460e+01 -3.43092049109585133e+01
1 2.42518761929107640e+01 -1.62386210906824968e+00 -1.38647467258313156e+02
1 4.58962419252016196e-01 3.04142353775590486e+01 7.53858568621803471e+01
1 -7.06163358877527685e+01 -6.32871550334937254e+01 -8.71102216876511051e+01
8
Step 12000
1 4.80737142056356817e+01 -3.01044983420003973e+01 -2.33198153460385917e+01
1 8.88754537248623535e+01 8.95638712327134385e+01 -2.60531447833951226e+01
1 -1.10194879520251448e+02 9.10960473703992761e+01 -4.83160123900085381e+00
1 -8.78346974602469688e-01 -8.17928348364026760e+01 -2.49040627635011091e+01
1 -2.68330514099768251e+01 -9.97608481641402811e+00 -8.96472763834653108e+00
1 -5.22162313558665545e+01 1.90467126846005064e+00 1.22290622912121520e+02
1 -3.00359594720919132e+00 -3.05106271801456117e+01 -8.49545043161420068e+01
1 1.17339852526553230e+02 4.16426203230333272e+01 1.21355309151832586e+02
8
Step 13000
1 -4.67786748429272592e+01 -2.85719437492417647e+01 -2.50160310442075726e+01
1 -6.23603271974348061e+01 -7.40458016135748238e+01 4.47124610779360552e+01
1 7.19835813466943364e+01 -3.42067239986423104e+01 -3.80692587612756261e+00
1 -1.01064585076718831e+01 1.06685258368195917e+02 -5.51953406554399990e+01
1 6.00184015173498366e+01 -2.61781534823359472e+01 6.79572025810521723e+01
1 4.42124132669654557e+01 -5.28408292003560121e+00 -3.79333658137777903e+01
1 -2.07547776544612503e+01 2.61677491330975052e+01 6.72383508129585152e+01
1 -1.17665942336870913e+02 1.77242734189613067e+01 -1.11030036439452445e+02
8
Step 14000
1 3.65060814627068240e+01 9.14399049066006171e+01 7.08663169215692790e+01
1 -5.99001583339626542e+00 3.56758593448597807e+01 -2.55348579395602293e+01
1 -1.40197384482424194e+01 -1.14394208171564760e+01 -7.71268714687212942e+00
1 1.71222676584032634e+01 -9.02213698713792382e+01 1.04013723907299266e+02
1 -9.25834640326474272e+01 5.92703260311326332e+01 -1.06157699896259288e+02
1 -8.48222039427139585e+00 7.68833494357946368e+00 -8.71912825723431411e+01
1 4.14711184425557633e+01 -2.37854401279082346e+01 -2.42502767778969250e+01
1 7.92616967760491775e+01 -8.78332188127925946e+01 6.72975828720006746e+01
8
Step 15000
1 -2.06344903836202498e+01 -1.21859132987928021e+02 -8.78778351166908465e+01
1 5.25540429118474179e+01 -2.50506575353248522e+01 9.90916809344112615e+00
1 -7.22781254781441902e+01 5.07994607795583804e+01 4.11807890432655981e+01
1 -8.21569078657184804e+00 4.73615512982620785e+01 -9.85550159364244394e+01
1 1.01537733916818254e+02 -6.12391456306193334e+01 7.50331086258328668e+01
1 -2.77335104415446949e+01 -1.08536757521388463e+01 1.25265504011851007e+02
1 -3.84667020839468847e+01 1.26184863919392960e+01 -4.79605647147848870e+01
1 4.73355071963929053e+00 1.16401377732622848e+02 -6.86872287229446421e+00
8
Step 16000
1 9.59646403132908787e+00 9.05526851581384875e+01 4.61199915019781557e+01
1 -6.81757089055815868e+01 2.31146902620155466e+01 2.94996966109353949e+01
1 1.66110190790834764e+02 -6.19022992362675666e+01 -7.98116438963350419e+01
1 1.01395161526627575e+00 -1.39242814465434144e+01 7.12351639009835367e+01
1 -8.99638421654521352e+01 3.39498534389768238e+01 8.50187346320576509e+00
1 3.55139292749377091e+01 -6.66933762643290518e+00 -9.39402237701426657e+01
1 5.28337541785775073e+01 1.47587472715091597e+01 1.35058082970356850e+02
1 -5.61497240579564760e+01 -9.09011950440302741e+01 -2.62389820373082294e+01
8
Step 17000
1 -1.22783154143188113e+01 -1.63405103374492775e+01 3.61312193494393838e+01
1 5.66392778590860928e+01 -4.65243398906393892e+01 -9.71636876717314379e+01
1 -1.18660584232799764e+02 9.79236685110890237e-02 4.34329512675650875e+01
1 4.50668222462126788e+00 -9.82184203464506211e+00 -2.98149602924456758e+01
1 6.84068421162709086e+01 9.62829491774886392e+00 -8.79248223101794224e+01
1 -1.79289694458110098e+01 3.63158292034104235e+01 4.90812176386518715e+01
1 -9.07607984447494545e+01 -3.29646472904252263e+01 -1.58638008855286216e+02
1 4.19278937307091439e+01 3.62702904073453283e+01 3.49542470266215872e+01
8
Step 18000
1 4.32296036095921963e+01 -4.42377408392710478e+01 -9.73475413773368388e+01
1 -1.59222693042189203e+01 8.93507478856296444e+01 1.46728656327201833e+02
1 7.56980033112160982e+01 2.97499689543249524e+01 1.74836344487379458e+00
1 -1.53710805125921279e+01 2.24503379244672630e+01 -3.78015085225934655e+01
1 -4.38718531802916445e+01 -4.18279911379078655e+01 1.27569412134244416e+02
1 -1.07587507736653407e+01 -6.14524082928199817e+01 -9.37179311757390643e+00
1 1.00054248411661703e+02 2.61114571863860974e+01 1.08782926571609934e+02
1 5.18730889137152573e+00 4.76555536948091052e-01 -3.31645794786429775e+01
8
Step 19000
1 -8.43757991792496966e+01 7.18088883527777568e+01 1.04771579781118334e+02
1 -2.78088105322709076e+01 -1.19971495534873455e+02 -1.20464962280182860e+02
1 -4.29113396309953785e+01 -4.90480098230983828e+01 -5.79109408369287451e+01
1 3.79551362696837913e+01 1.27077897032190741e+01 1.18467744522682537e+02
1 2.28190301480730788e+01 4.57973519417142256e+01 -1.45963686879756239e+02
1 4.94886952617045495e+01 7.78087054680491690e+01 -2.50342372026790834e+01
1 -7.46607075634658059e+01 -9.56707152794087179e+00 -4.32868600753971222e+01
1 -5.65818138559351098e+01 -1.46830972231438235e+01 2.67360602909336968e+01
8
Step 20000
1 9.40713478234908820e+01 -4.21750588542516951e+01 -6.00639556675122677e+01
1 4.54662457459856668e+01 1.25496992281647266e+02 4.62199894581823685e+01
1 7.56956423572084525e+00 4.12246233983950390e+01 1.29225323517448430e+02
1 -1.74873445470780560e+01 -4.48216654099436482e+01 -1.22423602523981330e+02
1 9.23020699916129672e+00 -1.54278299414169311e+01 1.03054985540331401e+02
1 -1.07335911347231857e+02 -6.97473148951663688e+01 4.96653843137421376e+01
1 4.62585684690181580e+01 -6.30429712067086090e+00 -6.21537123476830433e-01
1 9.90666298715967457e+01 1.61995000814157102e+01 -1.97480847627243534e+01
8
Step 21000
1 -5.88828066055579598e+01 -1.30862597807003791e+01 1.88436207248886411e+01
1 -3.69634312471705684e+01 -1.08150534441012852e+02 2.18119320378615882e+01
1 2.32382161895033406e+01 -1.51572458329641768e+00 -1.86892770773328778e+02
1 -6.54906671853910716e+00 5.41088170090041984e+01 8.23247255730084504e+01
1 -4.06862423460992204e+01 -3.17465874640454011e+01 1.43415012331671488e+01
1 1.12432531706152346e+02 7.91881144430356976e+00 -4.09337389339783542e+01
1 -4.19946174663493876e-01 2.67436488500910059e+01 3.17032131155887171e+01
1 -1.08588334038720021e+02 8.56209801521772107e+00 -5.79539416839631905e+00
8
Step 22000
1 4.59942360971473576e+01 5.35973092193781255e+01 -5.04012334305946830e+00
1 1.07335135198552969e+01 7.73048217491794674e+01 -6.68099110570271506e+01
1 -3.29189288145148709e+01 -4.37031544312286258e+01 1.61850896465124720e+02
1 2.17867883577232639e+01 -7.36984806714536234e+01 -3.56894097758595095e+01
1 5.27036343010793331e+01 6.24420982621207585e+01 -1.44153986712961967e+02
1 -7.04012212258563892e+01 4.09638267064817896e+01 3.12394129209961271e+01
1 -4.47050254454381033e+01 -4.01041510738784552e+01 -3.86429756289663686e+01
1 3.93922949261137632e+01 -2.97238410430778295e+01 4.88185187665872107e+01
8
Step 23000
1 -4.79233809443943244e+01 -8.89158279124008857e+01 -6.89423826421623165e+00
1 2.79143631305809237e+01 -4.55289205750661310e+01 8.53323732131472497e+01
1 2.52872062654865069e+01 5.16973191017392395e+01 -7.03664350214195906e+01
1 -2.34226622557414146e+01 1.01308857820459963e+02 -2.71337048497267084e+01
1 -3.74738624549769455e+01 -5.68532760740185878e+01 1.97905333374703559e+02
1 3.31712830959433660e+01 -6.65765723907042286e+01 -5.20821866797205004e+01
1 3.92833932306667748e+01 2.71256045639980314e+01 1.83941925687602996e+01
1 1.38378834307235188e+01 2.18089090552790772e+01 -7.74833635021532814e+01
8
Step 24000
1 6.29542248151417922e+01 1.18300181316269018e+02 1.60044656470894751e+01
1 -1.15245150526929208e+02 2.31623201696653531e+01 -5.96356818911929736e+01
1 -2.10837135682107579e+01 -4.84011340932845613e+01 2.29086407038499260e+01
1 1.83079223536323248e+01 -1.22033012603509974e+02 8.37659309025474670e+01
1 3.32007107640277388e+00 2.43875061872118382e+00 -1.24118486281857315e+02
1 2.03793361246701199e+00 7.32932286600791087e+01 8.62922177383209288e+01
1 8.01967610507837669e+00 1.03039684305628443e+00 8.71036588291848446e+00
1 -2.81798989206939403e+01 9.07457426571473746e+00 9.52609549296651892e+01
8
Step 25000
1 -8.89369655029930328e+01 -1.24988320164240250e+02 -1.29772335925578570e+01
1 1.69096252620404044e+02 -3.28714740194964117e+00 -5.63302481553464318e+01
1 7.36750482786802774e+00 1.58073519305457708e+01 -3.39579580233589740e+00
1 -2.52608955315025057e+01 1.11647509135872923e+02 -9.99759404898341302e+01
1 1.66557594700967186e+01 4.19507504152730775e+01 1.98780789483831946e+01
1 -2.29680808118041000e+01 -4.99500516130888101e+01 -9.91276513682462053e+01
1 -5.41598437361007257e+01 -1.91416659804090870e+01 -2.85942216328856418e+01
1 1.86092447831523664e+01 -5.84149210943216985e+01 -1.10705159486000639e+02
8
Step 26000
1 1.11806320635364074e+02 9.85349055851792173e+01 -1.00736918630276815e+01
1 -1.18041126804987556e+02 -1.78298756968824978e+00 1.32260819473284783e+02
1 1.05270590524581067e+01 3.19023048361383523e+01 3.03089413153668552e+00
1 4.62014628650641868e+01 -8.33835540685584817e+01 1.13826306928036828e+02
1 -2.56929867399124525e+01 -7.40944315185313940e+01 2.62283815738621300e+01
1 2.26979488279861563e+01 1.56419814517275158e+00 7.28764730418804447e+01
1 7.22514502160472176e+01 1.68660278707578222e+01 3.53698431646429796e+01
1 2.85156333047214972e+00 8.66708850131879842e+01 7.44987244628445069e+01
8
Step 27000
1 -1.06311089625905097e+02 -5.58045269433183790e+01 4.03753531280905165e+01
1 2.98189536948577114e+01 -3.18469880055727028e+00 -1.28585049940122616e+02
1 -2.01108012765461623e+01 -6.45297095589688752e+01 -1.29680721236761851e+01
1 -6.15628911219485104e+01 8.17339227788353639e+00 -1.01635633498897647e+02
1 2.85957673021527548e+01 9.91093118347480555e+01 -4.27334528675859318e+01
1 -1.44546328234208818e+01 4.90050069803692452e+01 -5.46847813922268955e+00
1 -4.91426665176728292e+01 -4.09459399769287646e+00 -3.57149077688897307e+01
1 -8.04233289919497629e+00 -7.37137323818795807e+01 -2.54604928790234339e+01
8
Step 28000
1 6.35627179766715429e+01 2.37434758858886852e+01 -4.48002776404061009e+01
1 3.88816812003945387e+01 1.02934279506857127e+01 8.57435091752539762e+01
1 2.06323695943200605e+01 6.83392142157515963e+01 2.87337662950672907e+01
1 5.67759690684192222e+01 7.62289263206996850e+01 4.91089149971703236e+01
1 -1.06474561025752479e+01 -9.69239043404343903e+01 2.83563640199391145e+01
1 1.55749224085379057e+00 -7.84228335926581366e+01 -8.30369295279347739e+01
1 1.64090460587347771e+01 9.62155975683576692e-01 4.55662193185216182e+01
1 2.16219496174421089e+00 5.21178796723518332e+01 2.07203039289547863e+00
8
Step 29000
1 -3.04532963832755925e+01 -1.61952634706258394e+01 3.28338060817537070e+01
1 -8.39685093368178315e+01 -1.32699150861702915e+01 -3.02716325124617569e+01
1 -1.23532415861523432e+01 -5.06588869835416631e+01 -4.55389998161529661e+01
1 -3.85659373035565807e+01 -1.29001216750524037e+02 7.04951781818176570e+00
1 -2.70205777919311245e+01 5.55793627585101930e+01 3.97765814342905966e+00
1 2.05053976790250623e+01 5.09311727972523727e+01 1.29349277266588018e+02
1 2.93352413196878601e+01 -1.44259975361986559e+01 -6.45832961960049374e+01
1 -3.16343342477202283e+00 -4.49341395941811612e+01 -5.62133433337873623e+00
8
Step 30000
1 1.79972845885417136e+01 2.98348597432012319e+01 -2.27175391633351751e+01
1 1.33977245926058572e+02 1.81865469725577853e+01 -2.26184622312026953e+01
1 -1.14119897333559468e+01 -4.20154303964606779e+00 5.05277449656580870e+01
1 1.21160946908506695e+01 1.36024723807874068e+02 -3.92108316379855992e+01
1 6.74910218603419310e+01 -4.96274478541539388e-01 -1.89918735834822741e+01
1 -2.58438529789559510e+01 -2.09318935412825731e+01 -1.10220955197911167e+02
1 -7.85912202592233768e+01 5.07038521164010731e+01 8.35540263024159344e+01
1 4.55471782694467819e+00 1.49775257702968485e+01 2.44715436116001932e+01
8
Step 31000
1 -1.48800797822197239e+01 -6.08055001292582133e+01 4.57563254760823845e+00
1 -1.75891558846410931e+02 -1.97428946430177703e+01 7.11643684382874682e+01
1 3.30714426350859867e+01 6.26231523558592471e+01 -5.24636201268585012e+01
1 1.90762260314865841e+01 -9.97617085533833858e+01 3.17208055666552866e+01
1 -9.19287893299898826e+01 -2.09445121687443745e+01 -9.19235962977673360e+00
1 1.24454482147603951e+01 1.78102821702697298e+01 6.26995005473206675e+01
1 9.29150763308493168e+01 -9.37540377498182522e+01 -8.29751913952698033e+01
1 -1.65998203216097124e+01 2.45919206950261078e+01 -4.75456754610141488e+01
8
Step 32000
1 2.57569855773452758e+01 1.10399433259607790e+02 2.49473056228769110e+01
1 1.34512255639215141e+02 2.02664628959366695e+01 -6.84243293337701033e+01
1 -3.13624582166731862e+01 -7.53940979652056313e+01 5.99211878612342872e+01
1 -6.62771926018294124e+01 7.72694684883206673e+00 1.84278170935187937e+01
1 1.01485203158889746e+02 9.02095395217518803e-01 6.98229475977453120e+01
1 1.08626478050988702e+01 -3.31223602348307011e+01 -9.18205269605667063e+00
1 -5.09405449593227786e+01 1.04945019403720309e+02 4.93794962988088102e+01
1 3.45443907637767964e+01 -5.89444559116387481e+01 5.51293173010318824e+01
8
Step 33000
1 -6.59326832535715397e+01 -1.50909968795993763e+02 -5.34719992643556665e+01
1 -5.86522091059742294e+01 -2.47926377378911269e+01 2.24433316727168695e+01
1 1.55590402080395016e+01 3.36390023010676771e+01 -6.08834054847907638e+01
1 7.30520108890460307e+01 9.20740810704868693e+01 -7.28434814681240965e+01
1 -8.16106813704472387e+01 3.65047963344073452e+01 -1.34552878420635864e+02
1 -4.09467399854921652e+01 7.26987935220117265e+01 -4.23853585451471915e+01
1 -8.53936829467279002e-01 -7.83578602709293790e+01 3.59196074403794041e+00
1 -3.41841199270674139e+01 8.79309804023441330e+01 -4.06374548328710858e+01
8
Step 34000
1 1.16972755298386105e+02 1.36051628678080903e+02 5.06940791380708120e+01
1 9.53527916562556754e+00 3.07099493865103810e+01 3.04529180732554927e+01
1 -2.39294724856049301e+00 3.27129044923153671e+01 5.02291853498858956e+01
1 -4.61281230025235800e+01 -1.21384895131078579e+02 7.80671148359945306e+01
1 2.63756157577009063e+01 -4.81264186324044445e+01 1.24067609267327128e+02
1 7.97609127497376278e+01 -1.23067218670751387e+02 9.19212979178898593e+01
1 1.59408866447568744e+01 4.92870922765690338e+01 -4.54746030909282410e+01
1 3.00584640155580152e+00 -7.15968876523172213e+01 3.37140233768030306e+00
8
Step 35000
1 -1.27568912954121458e+02 -7.54110217642886624e+01 -2.54857851398608055e+01
1 -7.15499765296293777e+00 -3.16399693668889093e+01 -5.34688606768940744e+01
1 -1.50843969595668668e+01 -8.61830997355949933e+01 -3.39404586032272277e+01
1 2.52146373236781152e+00 6.91657609865649619e+01 -4.04450213349309848e+01
1 1.75923944126176002e+00 3.64250180228509564e+01 -7.25909496843604103e+01
1 -8.13703574655952053e+01 1.17212199147254793e+02 -9.01981568326223737e+01
1 -1.83540771792138435e+00 -2.20441765995757457e+01 6.81175085837439411e+01
1 2.95780632180727103e+01 1.97986687815375539e+01 1.75589574787446310e+01
8
Step 36000
1 9.07776543953176827e+01 1.45272134553160903e+01 4.33010520677490263e+00
1 2.25668959729811647e+01 2.35823369656963138e+01 5.14732281302682892e+01
1 4.19664805525156837e+01 1.34194781003347316e+02 1.82349558987727214e+01
1 3.53306927339380437e+01 2.14164934263504847e+01 -2.87972623950575057e+00
1 1.43326813722258684e+00 -1.65334168381160396e+01 3.00084597432318496e+01
1 5.21353551039869458e+01 -7.49491410773883757e+01 4.55347119906297877e+01
1 -3.01273079321954995e+01 -1.68868171135968979e+01 -7.66876920229437502e+01
1 -4.72210312041885985e+01 2.69227012651708115e+01 -1.20374578765087019e+01
8
Step 37000
1 -3.12245777025520503e+01 1.40820226954366028e+01 -6.14375609227869157e-01
1 -5.06077834387215475e+01 -8.96699215475150346e+00 -3.84788876873554955e+01
1 -6.35891990254454029e+01 -1.38615088689029534e+02 -8.40665418311218460e+00
1 -5.09521434303658793e+01 -8.28553116879582348e+01 3.11060375049232150e+01
1 -3.23960803196237066e+01 -4.05577185791372496e+00 -1.49678031143732966e+01
1 -3.67222519756373771e+01 4.41773119013914126e+01 -3.93291129873806034e+00
1 4.87691731405490643e+01 5.90109559012167182e+01 6.48826431576441536e+01
1 4.57590351977135583e+01 -4.98985228879101186e+01 -1.47258912344118791e+01
8
Step 38000
1 -2.51427029187161679e+01 3.38973745003757809e+00 1.32261138419422331e+01
1 9.44821218516377854e+01 -3.34775760110277476e+00 -6.79299013540861107e+00
1 4.43225037472720089e+01 4.00495532404923225e+01 -1.98519330408582717e+00
1 2.72035539285001242e+01 7.00480726361003434e+01 -2.93292960070423696e+01
1 7.69706172769722201e+01 1.77311426745449232e+01 1.61604105419280231e+01
1 1.91296127969458247e+01 9.78205029616039923e+00 -1.77399181423310175e+01
1 -3.90812571195703100e+01 -9.63152045220403892e+01 -3.45774311060472215e+01
1 -2.34786591524668964e+01 3.57866170974159914e+01 3.92056575084340579e+01
8
Step 39000
1 3.77403324175488351e+01 -5.63780795417994653e+01 -3.40027093443888333e+01
1 -1.12387514328420110e+02 4.86541187924935326e+00 7.90863307728665887e+01
1 -1.07619365397279143e+01 5.74776481421425771e+01 1.16338097516708281e+01
1 1.25467502671372824e+01 -3.62053250684742807e+01 2.20862987183197106e+01
1 -9.31814595164225494e+01 -8.56928072312601508e+00 -2.88477455855305820e+01
1 -2.56005596184111752e+01 -3.75369891312457540e+01 1.27877131213146278e+00
1 8.66678261290452134e+00 1.16881917208393688e+02 5.02345063476863452e+00
1 -9.39653707989099907e+00 1.07918269319973259e+01 -3.96566944390860670e+01
8
Step 40000
1 9.95982266148604078e-01 8.35362083862806202e+01 3.66336584206227727e+01
1 9.98610690382790835e+01 1.72026074938862550e+01 -1.34252459647501013e+02
1 5.43541677952334901e+00 -8.20335937933512582e+01 -1.26696188029259709e+01
1 -6.35389062830466074e+01 -2.00046566978767721e+01 -1.42414952535038164e-01
1 5.35051820587390807e+01 -1.85983434170620470e+01 4.25854545871376615e+01
1 4.31690855086558329e+01 3.93786317909454127e+01 4.05946728975606135e+01
1 1.50730785297844818e+01 -8.81336546476894824e+01 7.88734281757337841e-01
1 4.72579865011302829e+01 -8.33817443495652952e+01 6.31346692391738173e+00
8
Step 41000
1 -3.81629832306652261e+01 -7.50081210391703337e+01 -2.11691988056401250e+01
1 -6.24341325093257993e+01 -4.85066258853889138e+01 1.16660920758190628e+02
1 -1.88691102465905871e+01 6.09585121191971240e+01 -6.31055425973007567e-01
1 9.10045465753111671e+01 7.19903156712893946e+01 -4.06047571788469099e+01
1 1.29450970291625751e+01 3.97926517981107608e+01 -4.65302848742537662e+01
1 -6.40877774641992772e+01 -2.25859813850931452e+01 -9.55365236610189470e+01
1 -2.42180280262444896e+01 5.65206466607422442e+01 -7.69511549198749023e+00
1 -8.66200041917719545e+01 1.39895162471592357e+02 3.79041575966647670e+01
8
Step 42000
1 7.73075576546577850e+01 8.19424537268867681e+01 2.56930884299898210e+01
1 8.50104629539728585e+00 6.12446972882863818e+01 -4.04055577890411328e+01
1 4.08026835653094366e+01 -2.06723378760835033e+01 1.69764233499518156e+01
1 -7.11114788713060193e+01 -9.01550793943716400e+01 7.43234413871228412e+01
1 -7.91273791948594578e+01 -3.14925771024662886e+01 3.48615134672703988e+01
1 7.74546773852015633e+01 -1.08174141742103753e+01 1.48659182632202686e+02
1 3.77809047203656903e+01 -4.55043509869233134e+01 2.66728077718388654e+01
1 8.20964491093538413e+01 -1.00942298327969780e+02 -5.00945104750199519e+01
8
Step 43000
1 -9.15226510847514874e+01 -7.29782302326741075e+01 -4.31397988648318886e+01
1 7.34608487878683292e+00 -4.91437860138942497e+01 -1.93274283314871482e+01
1 -7.01533876456303460e+01 -5.31772570120417214e+01 -2.61801461933549895e+01
1 1.13241587029445334e+01 8.25651168895259815e+01 -8.68128504355714625e+01
1 1.46316113435392339e+02 -2.02983134298219952e+01 7.08411727533746483e+00
1 -4.46719507454658284e+01 4.54152127570355901e+01 -1.33654266059479738e+02
1 -4.55270610790366419e+01 3.35019100623394976e+01 -7.48466767847682206e+01
1 -5.63059834655923979e+01 3.98381867117436173e+01 5.09924877177246145e+01
8
Step 44000
1 5.96338389522844636e+01 4.32935825563068875e+01 6.58216610464234861e+01
1 -5.21990083015373085e-01 5.66353176524018025e+01 4.64041450288837822e+01
1 7.39284184513110603e+01 9.93705904566070330e+01 2.40991497322938670e+01
1 9.17464721390727505e+01 -7.62603307500644689e+01 9.14941869697086076e+01
1 -1.04699559498805968e+02 6.85846586289929405e+01 -5.43423491185044014e+01
1 -2.78406587284262983e+01 -4.44432579041962725e+01 5.06064723078236511e+01
1 3.55627038560249815e+01 -1.35286001523489645e+01 1.22454449822563532e+02
1 5.00702733252957017e+01 1.08141922483509898e+01 -5.56755532945181386e+01
8
Step 45000
1 2.86854875851707014e+01 7.59927697943713909e+00 -7.04699957858997976e+01
1 -2.29262570709082176e+01 -6.66433407998865306e+01 -4.33425006924291552e+01
1 -7.99822023931358643e+01 -9.57240105055890922e+01 -1.48453176172726096e+01
1 -1.89615584436438553e+02 7.70797362656122971e+01 -9.63985051612596351e+01
1 3.58926396755815986e+01 -7.31487203422318544e+01 6.25116768632844710e+01
1 8.57740478370751305e+01 1.74819277191542000e+01 2.52006827257051604e+01
1 -9.92364543434372948e+00 -1.44058777692725171e+00 -1.09402871682645653e+02
1 -4.78920727617368840e+01 -5.60195991382656686e+01 4.20111591033240686e+01
8
Step 46000
1 -8.48181410650370680e+01 -3.05414759706758474e+01 7.19243881050699940e+01
1 6.21677049982812449e+01 7.58047699071424148e+01 -1.68348857956564313e+00
1 8.05985441833802838e+01 5.27661669648861107e+01 1.00949593007056535e+01
1 1.48844458896782811e+02 -5.13212200031707297e+01 5.76253203628359074e+01
1 1.51990622671679709e+01 5.87958421604277177e+01 -3.90645605944958305e+01
1 -1.06534564531427208e+02 8.97967426370535371e+00 -5.68295004954585963e+01
1 1.50332995333598447e+01 -9.74559098660457224e+00 5.90806429725261992e+01
1 6.45909419423212512e+01 8.83480476542287647e+01 -1.74770795627065390e+00
8
Step 47000
1 1.04454796490930065e+02 1.09567783245027943e+01 -8.84522224828313028e+01
1 -8.04740401601111017e+01 -4.27359592850620444e+01 1.08895734081490104e+02
1 -6.97018592627212001e+01 2.07185523262588411e+01 -1.02271614123454366e+01
1 -6.26081701097220531e+01 1.13694143509169781e+01 -1.01704937181235842e+01
1 -4.76717700447755064e+01 -2.35696316650231701e+01 -2.19216046887596541e+01
1 1.00020355021968982e+02 -2.09478512018402512e+01 4.18017198786689832e+01
1 -4.88727390749252280e+01 3.30162727104632125e+01 -4.40081734646927600e+01
1 -9.91209947675780541e+01 -1.06368016730543985e+02 -6.71660837435843945e+01
8
Step 48000
1 -7.25433839864977728e+01 3.75570718221089450e+01 9.30163321490348949e+01
1 5.89949285352738002e+01 3.45015472732640616e+00 -1.74617416803260426e+02
1 6.31148633219492226e+01 -6.28868169636908831e+01 1.60824483174982333e+01
1 1.42298272068334004e+01 2.69337455199237112e+01 -2.27603858403621011e+01
1 5.34030065734804538e+01 -4.30484542664509249e+01 1.22830778448068827e+02