8
Step 0
1 -3.472934504792e+01   2.985585161505e+01   4.552711624413e+01 
1 -3.872914153085e+01   5.183552870333e+01   2.841252880511e+01 
1  6.597310272429e+01   3.473535297890e+01   3.212630301548e+01 
1 -6.209027598665e+01   1.844554586020e+01  -3.110501871492e+01 
1 -4.675834713363e+01   3.854789838996e+01   6.659078998682e+01 
1 -1.328434623653e+01  -5.953552595268e+01  -6.135440417252e+01 
1  6.150941286889e+01  -3.705897999201e+01   2.680974576907e+01 
1  1.897523860070e+01  -3.176705575740e+00  -2.894581516525e+01 
8
Step 1000
1 -6.056750023829e+01   3.913616140214e+01   4.700754067645e+01 
1 -3.271047304210e+01   5.696290654252e+01  -4.148505052391e+00 
1  5.458007204176e+01   4.068912405965e+01   1.578075994230e+01 
1 -3.805606100826e+01   4.671344691912e+01   1.033078904726e+01 
1 -3.832815130475e+01   7.108437707343e+01   6.404506306003e+01 
1 -2.765810057620e+01  -6.743973460901e+01  -6.682362728091e+01 
1  3.078923625881e+01  -4.533255939123e+01   4.088855152076e+01 
1 -7.845341711320e-02  -4.884240382991e+01  -3.031086442384e+01 
8
Step 2000
1 -6.047906268181e+01   4.077558909067e+01   2.687268269416e+01 
1 -9.852894395191e+00   3.324306181594e+01  -3.606795348512e+01 
1  2.277239933328e+01   2.635688243667e+01  -3.769714142119e+00 
1  6.898637577101e-01   5.184259902017e+01   4.139053446533e+01 
1 -8.129894844700e+00   7.696450739006e+01   4.027185844982e+01 
1 -2.994380455999e+01  -4.123615559271e+01  -4.643203127590e+01 
1 -2.084509435583e+00  -4.247129238603e+01   2.952131935713e+01 
1 -2.028222893569e+01  -7.170954082532e+01  -2.735134547298e+01 
8
Step 3000
1 -3.341478425496e+01   3.371927884563e+01  -4.942437497493e+00 
1  1.710620738149e+01  -2.933420978344e+00  -5.521297014503e+01 
1 -1.900684373223e+01   7.226625886836e-01  -2.088344008167e+01 
1  3.190131563383e+01   3.584138897393e+01   5.564808858559e+01 
1  2.418654926668e+01   5.504494189165e+01   4.920017834527e+00 
1 -1.620104630330e+01   8.461516909754e+00  -1.249226615334e+01 
1 -2.604830819577e+01  -2.658458198420e+01   1.865085758957e+00 
1 -3.393356917421e+01  -6.397592798962e+01  -2.049022275880e+01 
8
Step 4000
1  7.754298265813e+00   1.878764897562e+01  -3.115707220802e+01 
1  3.276275894069e+01  -2.827378359728e+01  -5.595459161852e+01 
1 -5.150739011449e+01  -2.028309859645e+01  -2.932692087658e+01 
1  4.386197916145e+01   9.998281527604e+00   5.645437521547e+01 
1  3.841955193155e+01   2.091441753410e+01  -2.379264210269e+01 
1  5.187855415784e+00   5.043932031655e+01   1.249020501701e+01 
1 -3.557579032797e+01  -1.989729482450e+00  -2.377698120113e+01 
1 -3.588710062811e+01  -3.218564430441e+01  -9.894170245759e+00 
8
Step 5000
1  3.968393718937e+01   1.184662363395e-01  -3.716312501026e+01 
1  3.213695136159e+01  -3.273021743161e+01  -4.265040738633e+01 
1 -6.258509514300e+01  -2.732233488342e+01  -2.751733965894e+01 
1  3.454134412035e+01  -1.518798360649e+01   4.755743063524e+01 
1  3.154246146670e+01  -7.339175583300e+00  -3.570819812627e+01 
1  2.127780373215e+01   6.477016086149e+01   1.857468175794e+01 
1 -3.276067523879e+01   2.156755848156e+01  -3.260298628817e+01 
1 -2.558442789397e+01   5.935191007105e+00   2.532212336799e+00 
8
Step 6000
1  4.813819965955e+01  -1.755720255327e+01  -2.436565528380e+01 
1  1.861939231476e+01  -1.912233600525e+01  -2.236009868685e+01 
1 -5.305709088266e+01  -2.161636435335e+01  -1.811735551170e+01 
1  8.343423473873e+00  -3.089833323965e+01   3.077528935305e+01 
1  1.181479048951e+01  -2.386161300605e+01  -3.277304517335e+01 
1  2.730137124821e+01   5.415338492049e+01   1.219571582023e+01 
1 -2.408758303521e+01   3.522748549021e+01  -2.291756584528e+01 
1 -9.472721146827e+00   2.984831777924e+01   1.284447961798e+01 
8
Step 7000
1  3.662740999475e+01  -3.168028834565e+01  -5.779315389251e+00 
1 -5.806647332321e-01   3.025829804213e+00  -1.952458087589e+00 
1 -3.051846560627e+01  -9.239002831897e+00  -5.332931971864e+00 
1 -2.353144028205e+01  -3.165304509193e+01   8.320047911205e+00 
1 -1.172032330955e+01  -2.798948165006e+01  -1.944504058720e+01 
1  2.101524519467e+01   2.453237944551e+01   2.663533942074e+00 
1 -1.530145814539e+01   3.574490133717e+01  -3.613149702239e+00 
1  4.270116710330e+00   3.259445094565e+01   1.835642445443e+01 
8
Step 8000
1  1.655854715267e+01  -4.120431526282e+01   6.740700636498e+00 
1 -1.711256331042e+01   2.111938742244e+01   1.366150785870e+01 
1 -4.874381356951e+00   3.100267953542e+00   6.381790398770e+00 
1 -4.692003042685e+01  -1.860662482017e+01  -1.560264633391e+01 
1 -2.937645216187e+01  -2.070034744556e+01  -1.679379170712e+00 
1  2.661011317153e+00  -1.405728583490e+01  -2.691570636244e-01 
1 -8.865577130329e+00   2.524303767640e+01   1.459545147017e+01 
1  1.260741414356e+01   2.051846667494e+01   1.890582251568e+01 
8
Step 9000
1 -2.167773445983e+00  -4.407078412011e+01   7.185167964236e+00 
1 -2.503211356571e+01   2.496532254634e+01   2.347453769390e+01 
1  1.589599700110e+01   1.123858509359e+01   1.380577405394e+01 
1 -5.199441670162e+01   1.087978855596e+00  -3.567244525485e+01 
1 -3.386260248221e+01  -6.001136288496e+00   1.334398918169e+01 
1 -2.139806027849e+01  -4.662228306997e+01   8.050448564057e+00 
1 -4.531647344607e+00   7.999457055639e+00   2.480576298795e+01 
1  1.570830231870e+01   2.189695586502e+00   1.466174688333e+01 
8
Step 10000
1 -1.254362642035e+01  -3.582708086920e+01  -5.391879519381e+00 
1 -2.213148353175e+01   1.101002447154e+01   2.839511990546e+01 
1  2.753327017683e+01   1.420114465049e+01   1.514958191241e+01 
1 -3.694457971387e+01   1.852260845546e+01  -4.714689405465e+01 
1 -2.360530839037e+01   9.946657941657e+00   1.987953055220e+01 
1 -4.148318142042e+01  -6.129572866847e+01   2.309963033171e+01 
1 -1.026431602583e+00  -1.125787007740e+01   2.387619048234e+01 
1  1.417212280469e+01  -1.378150186358e+01   5.861985658245e+00 
8
Step 11000
1 -1.132944507456e+01  -1.234664564249e+01  -2.572219649873e+01 
1 -1.015875883003e+01  -1.545698289008e+01   2.866182496505e+01 
1  2.838136621398e+01   1.264468064380e+01   9.496290930543e+00 
1 -7.461414253345e+00   2.656483362373e+01  -4.666179089170e+01 
1 -2.880136911628e+00   2.078646495898e+01   1.573935705927e+01 
1 -4.981184262628e+01  -5.459922669782e+01   3.497584644913e+01 
1  2.857557470578e+00  -2.698493914181e+01   1.171295761651e+01 
1  9.039897850279e+00  -1.959685914258e+01  -6.107568846667e+00 
8
Step 12000
1 -1.168960785794e+00   2.317850029244e+01  -4.206359542531e+01 
1  5.117922595298e+00  -4.116405328604e+01   2.390864095089e+01 
1  1.926701317046e+01   7.687838503028e+00  -2.467928773105e+00 
1  2.504852450121e+01   2.224165316821e+01  -3.329680328456e+01 
1  2.011175042287e+01   2.188227683424e+01   3.343514419876e+00 
1 -4.216074021874e+01  -3.011972091366e+01   3.430142529111e+01 
1  7.685581416093e+00  -3.344174711678e+01  -7.960603161875e+00 
1  1.988492942669e+00  -1.146915980819e+01  -1.844639468247e+01 
8
Step 13000
1  1.038913880264e+01   5.774112280401e+01  -4.292060634262e+01 
1  1.658974204944e+01  -5.207476880534e+01   1.428775779546e+01 
1  4.095690978126e+00   4.513067263084e-01  -1.727076528737e+01 
1  4.762003744042e+01   8.341518384872e+00  -1.003090896378e+01 
1  3.663545839040e+01   1.199174154745e+01  -1.076098021360e+01 
1 -1.907756042373e+01   2.162387733937e+00   1.759520960669e+01 
1  1.312635897608e+01  -2.726480146525e+01  -2.794426725859e+01 
1 -4.969423127130e+00   7.840945506157e+00  -2.742724395173e+01 
8
Step 14000
1  1.619919594920e+01   7.650178501582e+01  -2.526345011693e+01 
1  1.944526011162e+01  -4.097143186161e+01   1.036352189280e+00 
1 -1.096888705150e+01  -7.994458776015e+00  -2.898169795023e+01 
1  5.206781246884e+01  -7.903223481794e+00   1.662465390232e+01 
1  4.088413460572e+01  -6.138885535856e+00  -1.835603862715e+01 
1  1.118158195558e+01   2.735343318937e+01  -8.153856035283e+00 
1  1.801881415954e+01  -9.635250119407e+00  -4.005662463575e+01 
1 -9.980773466735e+00   2.887719394839e+01  -2.941954321452e+01 
8
Step 15000
1  1.334252871095e+01   7.053136908686e+01   4.896196693462e+00 
1  1.265160583789e+01  -9.995505507309e+00  -1.301726667019e+01 
1 -2.029455609487e+01  -1.654644163671e+01  -3.169652258323e+01 
1  3.840111366121e+01  -1.892470505980e+01   3.901393726497e+01 
1  3.134018950630e+01  -2.606335863980e+01  -1.302000124843e+01 
1  3.611667351928e+01   3.552721401202e+01  -2.930566361413e+01 
1  2.068091582821e+01   1.347388728789e+01  -3.818001571941e+01 
1 -1.188032682982e+01   3.895392000765e+01  -2.222505108663e+01 
8
Step 16000
1  3.757757646005e+00   4.056842435991e+01   3.489564032189e+01 
1  1.272482380705e-01   2.775730635019e+01  -2.335381407691e+01 
1 -2.127750400912e+01  -2.377990973439e+01  -2.228512342802e+01 
1  1.330273279061e+01  -2.037619128397e+01   5.065114193232e+01 
1  1.124549517408e+01  -3.851992991742e+01   5.477905043584e+00 
1  4.838625124961e+01   2.850741544642e+01  -3.691782040416e+01 
1  1.941729668010e+01   3.296760667558e+01  -2.063572028194e+01 
1 -1.045225909742e+01   2.728508577850e+01  -5.770448749909e+00 
8
Step 17000
1 -6.606406383330e+00  -1.185638941004e-01   5.058089489009e+01 
1 -1.058936278206e+01   5.404869320667e+01  -2.634336719788e+01 
1 -1.502680148539e+01  -2.731512208988e+01  -2.159835384123e+00 
1 -1.371144888405e+01  -1.250266564894e+01   4.786822685051e+01 
1 -1.143613468790e+01  -3.571524035012e+01   2.775335112036e+01 
1  4.679732923298e+01   1.411247494031e+01  -2.971534596737e+01 
1  1.306042431417e+01   3.983076240554e+01   8.457558784129e+00 
1 -6.640708469106e+00  -8.780159915951e+00   1.653210536313e+01 
8
Step 18000
1 -1.205058496782e+01  -3.340500147921e+01   4.636039442590e+01 
1 -1.357115584447e+01   5.770148005062e+01  -2.153032445261e+01 
1 -5.822746388921e+00  -2.406791742352e+01   2.185907373467e+01 
1 -3.412937353642e+01   4.482161250764e-01   3.107036620269e+01 
1 -2.839880580412e+01  -1.747455475335e+01   3.952959375098e+01 
1  3.309085935543e+01   5.641289384506e-01  -1.158306711126e+01 
1  1.463810768428e+00   2.954772802160e+01   3.940155196078e+01 
1 -2.652378849631e+00  -5.431064909398e+01   3.590685837210e+01 
8
Step 19000
1 -1.097854746767e+01  -4.879262376382e+01   2.704656624431e+01 
1 -7.150082369652e+00   3.711315908069e+01  -1.040072144224e+01 
1  1.243165110031e+00  -1.231143188901e+01   4.002705888905e+01 
1 -4.294951834290e+01   1.235234182379e+01   5.263913280484e+00 
1 -3.565111288683e+01   8.453250946408e+00   3.158061722493e+01 
1  1.144703896344e+01  -6.101655663855e+00   9.740318992774e+00 
1 -1.395575793930e+01   5.986836472930e+00   6.008473498081e+01 
1 -2.415520026839e-01  -8.319067412106e+01   4.345808338722e+01 
8
Step 20000
1 -5.301223537073e+00  -4.480688865207e+01   1.810892683061e+00 
1  5.619342172650e+00  -1.157060661463e+00   4.489084472746e+00 
1  3.573372842822e+00   6.564163903527e+00   4.503467923894e+01 
1 -3.947129605869e+01   1.824432955306e+01  -2.121545816209e+01 
1 -3.313755042034e+01   3.074369546154e+01   5.707536677474e+00 
1 -1.205195605083e+01  -4.427115666288e+00   2.544508115614e+01 
1 -3.008349410453e+01  -1.959556529176e+01   6.163778705664e+01 
1  8.817267722019e-01  -7.812795197005e+01   3.644387075092e+01 
8
Step 21000
1  1.241895020853e+00  -2.640305073993e+01  -1.961000613210e+01 
1  1.691716248306e+01  -4.095344759067e+01   1.875644475881e+01 
1  2.183736078436e+00   2.769782119477e+01   3.513403380015e+01 
1 -2.622967360832e+01   1.651014085708e+01  -3.998065138268e+01 
1 -2.304372005609e+01   4.006994176009e+01  -2.543251927389e+01 
1 -3.152059964900e+01   1.900688467250e+00   2.994739216105e+01 
1 -4.275575907787e+01  -3.478086049792e+01   4.204234122167e+01 
1  2.230954849493e+00  -3.499665667371e+01   1.755123846414e+01 
8
Step 22000
1  4.837292950026e+00  -2.962084575463e+00  -2.998144545761e+01 
1  1.907513732042e+01  -6.459159296382e+01   2.786492581290e+01 
1  3.556954769507e-01   4.353850247250e+01   1.425390648786e+01 
1 -6.900333645732e+00   8.716662117030e+00  -4.552253550379e+01 
1 -8.588911184296e+00   3.382805222662e+01  -4.596768615272e+01 
1 -4.291304122984e+01   6.556542433511e+00   2.337581306567e+01 
1 -4.740929012926e+01  -3.172954538634e+01   6.056909743439e+00 
1  4.937998685858e+00   2.739665708520e+01  -2.169776707092e+00 
8
Step 23000
1  3.547593207124e+00   1.552321114184e+01  -2.724599143933e+01 
1  9.793468459080e+00  -6.360646628021e+01   2.913433373610e+01 
1  1.292529895520e+00   4.671827472090e+01  -9.960644771436e+00 
1  1.436974140113e+01  -1.686043335754e+00  -3.647838546201e+01 
1  7.394112149621e+00   1.605845868176e+01  -4.559121289706e+01 
1 -4.450071309703e+01   4.745551465431e+00   1.083777782221e+01 
1 -4.008460121221e+01  -1.108042828766e+01  -3.470895083534e+01 
1  8.126004029192e+00   7.118931176523e+01  -9.011682608125e+00 
8
Step 24000
1 -1.648774450890e+00   2.232128260403e+01  -1.450014630430e+01 
1 -7.537682695734e+00  -3.769764946730e+01   2.051591454400e+01 
1  6.137577650322e+00   3.348764503755e+01  -2.962784935650e+01 
1  3.223521170186e+01  -1.042729524559e+01  -1.627045801522e+01 
1  2.242363276766e+01  -5.288686670026e+00  -2.313080140521e+01 
1 -3.683418040825e+01  -3.787982985179e+00  -1.053177809451e+00 
1 -2.009196090451e+01   1.647161784165e+01  -6.392245020102e+01 
1  1.035673151853e+01   8.196587225880e+01  -2.385187660557e+00 
8
Step 25000
1 -7.011822857967e+00   1.611761660489e+01   1.678680053011e+00 
1 -2.294461533109e+01   3.520249942337e+00   2.104216779125e+00 
1  1.310348740696e+01   5.654868998678e+00  -3.929784491511e+01 
1  4.110470748479e+01  -1.399732687095e+01   7.710394421164e+00 
1  3.323310187234e+01  -2.085523014675e+01   1.187471672787e+01 
1 -2.201456975783e+01  -1.509617836041e+01  -7.899387768764e+00 
1  8.552489227010e+00   3.647305147233e+01  -6.962403159630e+01 
1  1.087607360400e+01   6.370606837959e+01   1.102566400804e+01 
8
Step 26000
1 -7.633142724494e+00   1.178470397760e+00   1.393843563970e+01 
1 -2.458245103883e+01   3.932731346509e+01  -1.953982598080e+01 
1  1.784720361760e+01  -2.847411114985e+01  -3.723622804559e+01 
1  3.757024286109e+01  -1.130127074533e+01   2.732373585488e+01 
1  3.635102623437e+01  -2.449128661563e+01   4.253720323574e+01 
1 -3.018710852539e+00  -2.347692800188e+01  -8.726598075189e+00 
1  3.899915768666e+01   3.919056599393e+01  -4.981561278824e+01 
1  9.245195849123e+00   2.530299686557e+01   2.279074281492e+01 
8
Step 27000
1  3.356942865719e-01  -1.521571411291e+01   1.730032149536e+01 
1 -9.777497503649e+00   5.445805605013e+01  -3.534053244537e+01 
1  1.560979497867e+01  -5.614298387969e+01  -2.578081517381e+01 
1  2.178502244686e+01  -4.039155449315e+00   3.684131366515e+01 
1  2.961598503622e+01  -1.676655980991e+01   5.496391883059e+01 
1  1.600535214822e+01  -2.393788064411e+01  -5.113098126842e+00 
1  6.233656209594e+01   2.248869083165e+01  -1.124151942056e+01 
1  5.613498885010e+00  -1.731823280490e+01   2.563623855338e+01 
8
Step 28000
1  1.823902503062e+01  -2.484396596518e+01   9.957538415589e+00 
1  1.406800315152e+01   4.784195737375e+01  -3.918383822331e+01 
1  4.036497696502e+00  -6.593670175160e+01  -9.434785238116e+00 
1 -2.216266083410e+00   3.965591164512e+00   3.414618920779e+01 
1  1.220344132616e+01  -3.234660709636e+00   4.345806713533e+01 
1  2.975935898321e+01  -1.429537049405e+01   7.166584430122e-02 
1  6.881377728970e+01  -5.515298295526e+00   2.984681350344e+01 
1  6.288616877247e-01  -4.811106049666e+01   1.810380938632e+01 
8
Step 29000
1  4.065951218900e+01  -1.983526000898e+01  -5.114760007668e+00 
1  3.431162775841e+01   2.779655349630e+01  -2.907430659382e+01 
1 -1.529825227837e+01  -5.180067794725e+01   7.890537260187e+00 
1 -2.694973553884e+01   8.343308148408e+00   2.075792795884e+01 
1 -1.389282035788e+01   7.935505729038e+00   1.115101710529e+01 
1  3.337327780910e+01   3.523821872675e+00   3.785435184545e+00 
1  5.541413869885e+01  -2.888127064146e+01   5.489052291684e+01 
1 -5.109600880215e+00  -5.939014406252e+01   4.231278503090e+00 
8
Step 30000
1  5.419492169473e+01  -5.560988025258e-01  -1.873112514913e+01 
1  3.925073719412e+01   5.867738969019e+00  -8.199973818905e+00 
1 -3.550102566812e+01  -1.616319648577e+01   2.353926165558e+01 
1 -4.360804636354e+01   6.348714233539e+00   1.013588603846e+00 
1 -4.030335368729e+01   9.103642355354e+00  -2.723894292616e+01 
1  2.474736449268e+01   2.358882753418e+01   3.829311484893e+00 
1  2.859361720566e+01  -3.607431116529e+01   5.679940418964e+01 
1 -1.102217958059e+01  -5.143989069891e+01  -1.003114983786e+01 
8
Step 31000
1  4.835344364947e+01   2.193639849950e+01  -2.306116966960e+01 
1  2.433603975417e+01  -9.012760371085e+00   1.578380354553e+01 
1 -4.537988907357e+01   2.617303451592e+01   3.607074677447e+01 
1 -4.501576370070e+01  -1.822816834552e+00  -1.978032123677e+01 
1 -5.558751817511e+01  -7.078703604067e-01  -5.234508557516e+01 
1  6.204958545780e+00   3.775009034101e+01  -3.089366649661e-01 
1 -1.027009644282e+00  -2.593700308588e+01   4.081703647311e+01 
1 -1.600343471461e+01  -2.945357872671e+01  -1.926906702135e+01 
8
Step 32000
1  2.246037977487e+01   3.421437529385e+01  -1.729770664039e+01 
1 -5.172453038538e+00  -1.406003152063e+01   3.362617208012e+01 
1 -3.716029300960e+01   5.596188057895e+01   4.578619789578e+01 
1 -2.754420593988e+01  -1.289426954548e+01  -3.663410616762e+01 
1 -5.270402265589e+01  -1.497525531250e+01  -5.387191834239e+01 
1 -1.628666267884e+01   3.865629056952e+01  -7.279153720463e+00 
1 -2.328455244525e+01  -6.679874893068e+00   1.894688896675e+01 
1 -1.814191802777e+01  -1.478411713994e+00  -2.033982476798e+01 
8
Step 33000
1 -1.428366930817e+01   2.804649693452e+01  -6.325469380250e+00 
1 -3.616104807451e+01  -1.274020877901e+01   3.830812408476e+01 
1 -1.152977627183e+01   6.268048706003e+01   5.280649120417e+01 
1  5.834727960160e+00  -2.088645764582e+01  -4.466813032805e+01 
1 -2.959268710579e+01  -2.377560045269e+01  -3.203665303883e+01 
1 -3.627600413746e+01   2.091989787067e+01  -1.470574288334e+01 
1 -3.391859680073e+01   1.015569755610e+01   1.865674752516e+00 
1 -1.517347469064e+01   2.428389043835e+01  -1.363570338865e+01 
8
Step 34000
1 -4.606608076527e+01   5.750537111355e+00   3.024476633096e+00 
1 -5.455004769192e+01  -1.132382634419e+01   2.796657670653e+01 
1  2.299486859236e+01   4.643411758182e+01   5.403286200974e+01 
1  4.192392112578e+01  -2.022235725438e+01  -4.041738675660e+01 
1  8.978071685988e+00  -1.772271006580e+01   3.845651461367e+00 
1 -4.681176660995e+01  -1.907860412510e+01  -1.913991127236e+01 
1 -3.514266053076e+01   1.754141652298e+01  -7.172994518920e+00 
1 -5.366698875102e+00   4.226212514554e+01  -2.366569544007e+00 
8
Step 35000
1 -5.963967384696e+01  -2.046310837345e+01   6.707774184732e+00 
1 -5.047302149527e+01  -1.463961482173e+01   4.584856982511e+00 
1  5.141328297488e+01   1.678985885309e+01   4.374455596527e+01 
1  6.325302737028e+01  -1.054606208171e+01  -2.460125260013e+01 
1  4.608020308553e+01   3.898802448310e+00   3.460772201742e+01 
1 -3.990427674421e+01  -6.918852734006e+01  -1.567171315312e+01 
1 -3.062029376985e+01   1.377995893443e+01  -1.015902135454e+01 
1  1.170145098160e+01   4.987689600399e+01   9.604079822075e+00 
8
Step 36000
1 -5.133731545104e+01  -3.687956749001e+01   5.451482179556e+00 
1 -1.845894509350e+01  -2.383866783195e+01  -2.679898298386e+01 
1  5.961881991906e+01  -1.109133363795e+01   1.906588610058e+01 
1  5.875961967591e+01   3.382084197131e+00  -1.406972258142e+00 
1  6.323375737468e+01   2.924457639373e+01   4.447178019503e+01 
1 -1.783918826377e+01  -1.003352017674e+02  -3.563411395334e+00 
1 -2.272078566091e+01   1.005514623847e+00  -1.092804964876e+01 
1  3.406447199521e+01   4.574669995196e+01   1.865787491612e+01 
8
Step 37000
1 -2.534872580053e+01  -3.484715579909e+01   2.186385739019e+00 
1  3.134172629429e+01  -3.294997607982e+01  -5.170199998301e+01 
1  4.431019163059e+01  -2.537105646802e+01  -1.479127567703e+01 
1  2.870077332880e+01   1.539949372857e+01   2.331806358458e+01 
1  5.568005752756e+01   4.451606631338e+01   3.343230524586e+01 
1  7.870447244994e+00  -9.523603890047e+01   1.230547888080e+01 
1 -1.187928255794e+01  -1.503161643487e+01  -1.350848482805e+01 
1  5.447540946894e+01   2.917982851276e+01   2.058477060902e+01 
8
Step 38000
1  8.835753415995e+00  -1.306598273836e+01  -6.019746895069e-01 
1  7.016121015883e+01  -3.154081625938e+01  -5.494657317852e+01 
1  1.602302159841e+01  -2.377835284794e+01  -4.470277015754e+01 
1 -1.282281299525e+01   2.159064694348e+01   4.264908766123e+01 
1  3.108601977145e+01   4.230945585545e+01   1.218975313906e+01 
1  2.633132619233e+01  -5.576642871133e+01   2.509408799161e+01 
1  3.349769669521e+00  -2.608053583275e+01  -2.047895755668e+01 
1  5.992324767313e+01   3.431102303527e+00   1.202458611005e+01 
8
Step 39000
1  3.744233738967e+01   1.981591231664e+01  -1.717150701880e+00 
1  7.867423653476e+01  -1.466526978589e+01  -3.640828450986e+01 
1 -9.195347324115e+00  -1.343442474171e+01  -5.918930956116e+01 
1 -4.516790914835e+01   2.240133858514e+01   5.144009695488e+01 
1  3.928528239548e+00   2.456230893755e+01  -5.744671406855e+00 
1  3.152690139326e+01  -1.727730723216e+00   2.861197331560e+01 
1  2.396327684710e+01  -2.425240538465e+01  -3.137775056010e+01 
1  4.101651512839e+01  -2.316867609047e+01  -5.252209819834e+00 
8
Step 40000
1  4.901385215428e+01   4.763954526420e+01  -1.409635248992e+00 
1  5.508409903598e+01   1.411858196691e+01  -7.267031751238e+00 
1 -2.276007113025e+01  -2.636587053054e+00  -5.589032310955e+01 
1 -5.543317017202e+01   2.064214023639e+01   4.812085325373e+01 
1 -1.319622743545e+01   1.021595896568e+00  -1.225285550469e+01 
1  2.615096788610e+01   4.036231822517e+01   2.192454190668e+01 
1  4.752983753649e+01  -5.068628791840e+00  -4.198685147570e+01 
1  2.227365665292e+00  -4.152262275790e+01  -2.352800564231e+01 
8
Step 41000
1  4.095528777171e+01   5.608956547477e+01  -4.417507135249e-01 
1  1.496422512895e+01   4.148482523074e+01   1.521368640336e+01 
1 -2.318963347343e+01   3.864046435915e+00  -3.713091564284e+01 
1 -4.082920647731e+01   1.822532591349e+01   3.269023150073e+01 
1 -1.666893705572e+01  -1.821367597848e+01  -8.192428551957e+00 
1  1.769801777398e+01   5.919142072522e+01   9.161152016049e+00 
1  6.722501479192e+01   2.964086796775e+01  -4.437852658114e+01 
1 -3.865872115262e+01  -4.704235182056e+01  -3.381613801496e+01 
8
Step 42000
1  1.658774025862e+01   3.548765512862e+01   1.031542096141e+00 
1 -1.883664675645e+01   5.378176685638e+01   2.019042480828e+01 
1 -1.285923190879e+01   4.258797547398e+00  -8.313273246108e+00 
1 -8.498972145081e+00   1.501766462114e+01   7.614343549871e+00 
1 -1.033405575081e+01  -2.708766433903e+01   2.848479146881e-01 
1  1.122302409804e+01   5.739859527454e+01  -5.169131579972e+00 
1  7.294797666833e+01   6.874189984071e+01  -2.936232801645e+01 
1 -6.355940599101e+01  -4.127917971868e+01  -3.217311459810e+01 
8
Step 43000
1 -1.445339432269e+01  -1.468446683584e+01   3.374845883279e+00 
1 -3.488512819331e+01   4.681868903698e+01   9.562976709318e+00 
1  2.174192716222e+00  -2.817157347797e-01   2.128355725053e+01 
1  2.483557064075e+01   9.659536668818e+00  -1.987102844168e+01 
1 -1.357739851666e+00  -2.389195189202e+01   6.207213311157e+00 
1  7.997556805764e+00   4.163660300026e+01  -1.719547120395e+01 
1  5.619378777730e+01   9.319153659799e+01   6.612747614796e+00 
1 -6.365154010760e+01  -2.806984820169e+01  -2.036649558240e+01 
8
Step 44000
1 -3.308035816491e+01  -6.744308115304e+01   6.484996457734e+00 
1 -3.224267920009e+01   2.289727281357e+01  -8.435032657351e+00 
1  1.437110558039e+01  -6.115399099234e+00   4.182351753317e+01 
1  4.315201315544e+01   1.423268704002e+00  -4.087416255700e+01 
1  3.445994939361e+00  -1.081845000650e+01   5.020690238689e+00 
1  6.235660051590e+00   1.947851558200e+01  -2.355112529528e+01 
1  1.875263986094e+01   8.593631040825e+01   5.285529252802e+01 
1 -3.914214666506e+01  -1.081538449583e+01  -3.388231853868e+00 
8
Step 45000
1 -3.066613447888e+01  -9.108310291454e+01   9.728261655209e+00 
1 -1.643436185512e+01  -9.681943622133e+00  -2.258441926298e+01 
1  1.851594765296e+01  -9.261288209068e+00   4.760682146694e+01 
1  4.037401804235e+01  -9.251471925141e+00  -4.968719412293e+01 
1  3.242957452128e-01   7.029937883471e+00  -3.777075299376e+00 
1  2.446841344227e+00  -2.293684836908e+00  -2.210478729187e+01 
1 -2.077272902276e+01   4.984683521911e+01   8.449242969988e+01 
1 -2.926554276731e-01   6.793055401407e+00   1.191070262461e+01 
8
Step 46000
1 -1.400554284159e+01  -7.623456891382e+01   1.234422140593e+01 
1  2.572580349139e+00  -3.818719850946e+01  -2.348928503371e+01 
1  1.312465885774e+01  -7.058785917668e+00   3.782103712730e+01 
1  1.967047113469e+01  -2.090288000086e+01  -4.404271352819e+01 
1 -1.018781050026e+01   2.320820111725e+01  -1.678140075875e+01 
1 -6.338994334608e+00  -1.935958519316e+01  -1.260190244286e+01 
1 -4.251500163830e+01   9.773790889109e+00   8.631616262037e+01 
1  3.449031436677e+01   2.090654050410e+01   2.027413885666e+01 
8
Step 47000
1  4.640226750620e+00  -3.109856481301e+01   1.303734252298e+01 
1  1.591849867278e+01  -5.227739420673e+01  -9.065710482346e+00 
1  2.218119946938e-01   1.257357842866e+00   1.555265918433e+01 
1 -8.432719840570e+00  -3.069125317479e+01  -2.512640101285e+01 
1 -2.337640181822e+01   3.179281061769e+01  -2.808129211297e+01 
1 -2.058833648221e+01  -3.000151032810e+01   3.296983223168e+00 
1 -4.528261261814e+01  -1.745130809228e+01   6.488256233722e+01 
1  5.115385930104e+01   2.959450772471e+01   2.214265698992e+01 
8
Step 48000
1  1.336732863722e+01   1.871479866061e+01   1.052076779772e+01 
1  1.927095684500e+01  -4.763142728611e+01   1.518666744147e+01 
1 -1.472785045651e+01   1.389008779915e+01  -1.245449282539e+01 
1 -2.924966359207e+01  -3.491217978823e+01   1.276394436519e+00 
1 -3.113466211291e+01   2.860230331731e+01  -3.071005099617e+01 
1 -3.813079127204e+01  -3.418675103076e+01   2.306067604855e+01 
1 -3.597437608757e+01  -2.980569907208e+01   3.053396961437e+01 
1  4.735607027385e+01   3.269856677584e+01   2.197494478369e+01 
8
Step 49000
1  9.432352261003e+00   4.809875588514e+01   4.850526587734e+00 
1  1.281910365392e+01  -2.622945661872e+01   3.847972336948e+01 
1 -2.424678330970e+01   2.612890625030e+01  -3.750334741825e+01 
1 -3.192285043000e+01  -3.062247252814e+01   2.694504002677e+01 
1 -2.335416667142e+01   1.288794275397e+01  -1.840683954173e+01 
1 -5.691094322882e+01  -3.169503686013e+01   4.694073279422e+01 
1 -2.085898923384e+01  -2.933954709672e+01  -6.685063778534e+00 
1  2.964238248822e+01   3.027916770531e+01   2.368965068254e+01 
8
Step 50000
1 -1.394164303058e+00   5.061080045918e+01  -2.900248390402e+00 
1  8.502289775361e-01   3.716228874789e+00   4.899374190614e+01 
1 -2.167123972753e+01   3.143580790353e+01  -5.247788216045e+01 
1 -1.486693710712e+01  -1.610284825911e+01   4.517207558729e+01 
1  3.442608256688e+00  -7.803781469738e+00   7.039625598594e+00 
1 -6.764407618475e+01  -2.087482286992e+01   6.928255030183e+01 
1 -5.747210007991e+00  -2.107990647689e+01  -3.646853652945e+01 
1  9.451713814880e+00   2.260383693305e+01   2.732114637685e+01 
8
Step 51000
1 -1.154317338056e+01   3.191765294883e+01  -1.083868389827e+01 
1 -1.015168469794e+01   3.087510424469e+01   4.011909995455e+01 
1 -2.546743848616e+00   2.219326855569e+01  -5.178117763630e+01 
1  1.467345476084e+01   8.638955663693e+00   5.135823629908e+01 
1  3.696637449432e+01  -2.085545553424e+01   3.231029905051e+01 
1 -5.407154038518e+01  -5.057248204062e+00   7.205831217695e+01 
1  5.418190350586e+00  -1.125073979106e+01  -5.234366451244e+01 
1 -3.200240537523e+00   1.071398441692e+01   2.843909406928e+01 
8
Step 52000
1 -1.483193245263e+01   3.658569576972e+00  -1.602451099338e+01 
1 -1.479733337998e+01   4.598218609054e+01   1.390826752819e+01 
1  2.740310482836e+01  -3.850971770731e+00  -3.378114135514e+01 
1  4.351979237759e+01   3.874175937508e+01   4.238229250014e+01 
1  5.868630196341e+01  -2.061973360092e+01   4.416371102441e+01 
1 -1.510211878617e+01   1.063648628128e+01   4.959738019490e+01 
1  1.124705707542e+01  -3.915806920665e+00  -5.259640808974e+01 
1 -6.011137358792e+00  -4.079991951469e+00   2.190377821036e+01 
8
Step 53000
1 -8.941722565072e+00  -2.061534539924e+01  -1.570679941550e+01 
1 -1.106955923139e+01   4.501179301053e+01  -1.977204756123e+01 
1  4.999145327809e+01  -3.490478760840e+01  -8.243476629360e+00 
1  5.722287609348e+01   6.347261944493e+01   1.875518867713e+01 
1  5.615133642528e+01  -1.086800999974e+01   3.775282144742e+01 
1  3.130514774128e+01   2.151945634320e+01   1.344168252044e+01 
1  1.221360173046e+01   2.366936520747e-01  -3.827331909037e+01 
1 -2.495020323487e+00  -1.996969895253e+01   5.924286950171e+00 
8
Step 54000
1  3.858995978937e+00  -3.136713238246e+01  -8.991858262100e+00 
1 -9.670891198759e-01   2.989780927498e+01  -4.710720017331e+01 
1  5.312999794530e+01  -5.690713382291e+01   1.314325116914e+01 
1  4.654358430665e+01   7.070091992053e+01  -1.384532789056e+01 
1  2.607206706968e+01   2.101211660438e-01   1.616431855773e+01 
1  6.066194893655e+01   2.599291429718e+01  -1.621043121044e+01 
1  1.022339709880e+01   3.204215031718e+00  -1.224927835264e+01 
1  2.251089797338e+00  -3.339598654328e+01  -1.641525968981e+01 
8
Step 55000
1  1.845469505524e+01  -2.594476083631e+01   2.650028888295e+00 
1  1.077430228522e+01   6.221973086218e+00  -5.598633637417e+01 
1  3.623522437252e+01  -6.195026081156e+01   2.491058317112e+01 
1  1.282610051686e+01   5.281507173048e+01  -4.435878911150e+01 
1 -2.035336550673e+01   4.212604724148e+00  -8.731843267322e+00 
1  6.414904617253e+01   2.651923651084e+01  -3.003573831561e+01 
1  8.022203558537e+00   7.880718843260e+00   1.998445693551e+01 
1  3.916434023605e+00  -3.976763257714e+01  -3.774246137323e+01 
8
Step 56000
1  2.899974057422e+01  -7.800762293333e+00   1.566551568721e+01 
1  1.839464757461e+01  -1.993769445190e+01  -3.871293972885e+01 