8
Step 0
1 1.39748825551200468e+01 5.42081696338564996e+01 -4.12502637145741176e+01
1 6.76856145659056949e+01 -9.52436813211538436e+01 -3.53785538339906509e+01
1 -1.69244962808761841e+01 8.98277443199455661e+00 2.97571380721552714e+00
1 3.73764782190754659e+01 6.81734884372274905e+01 -4.57848032008425605e+01
1 1.32334743617293725e+02 1.44513687947378003e+02 4.09275922922765290e+00
1 4.85671606455685492e+01 -3.61856508787949736e+01 3.27324193705891275e+00
1 1.10101464733509715e+02 -2.55830189233402763e+01 -1.12892755091165839e+02
1 1.01490638462739952e+02 -1.72728486323217680e+01 -1.04865858063218212e+02
8
Step 1000
1 4.38897940491339611e+01 8.55883346343074436e+01 -4.75561875408402486e+01
1 8.25273718371536376e+01 -9.63355645679826864e+01 -1.03391844956228226e+02
1 -8.22093880175778224e+01 -1.18459695645098133e+01 -5.34357121313905310e+01
1 4.26803474184635405e+01 2.60551014610761129e+01 2.82912795584590455e+01
1 1.15136104806891197e+02 7.33185048883317876e+01 -2.67995822503448906e+01
1 7.54405530211702740e+01 5.47910373225233904e+00 -6.03241755749262243e+00
1 1.19178429654185820e+02 -4.13022302821099032e+01 -9.85854455326680323e+01
1 2.06933950321792643e+01 5.54830568269362701e+00 -1.26435047627636706e+02
8
Step 2000
1 4.61861360254332496e+01 9.86505440362453783e+01 -3.24592689023754986e+01
1 5.23679702841947829e+01 -4.92069936008658217e+01 -1.20764807881274493e+02
1 -1.04347480841060104e+02 -3.26461041343010905e+01 -8.29141639798896364e+01
1 2.81549376939303038e+01 -1.88187665525574062e+01 1.05126974949262419e+02
1 5.62665915396081857e+01 -1.40709920264772084e+01 -3.85477617517164504e+01
1 7.71876914389647197e+01 4.64744463830046257e+01 -3.71699196931125542e+01
1 9.29219691904654610e+01 -4.99151641027415565e+01 -4.85695609190006081e+01
1 -6.54774715984628415e+01 2.36997339821371149e+01 -9.40937092852868489e+01
8
Step 3000
1 2.62203608663580567e+01 8.38488558956706242e+01 -4.81178530603648014e+00
1 -4.37986808649513115e+00 1.54359349863998947e+01 -8.95735081825225450e+01
1 -8.61195486989350485e+01 -4.46627943000989092e+01 -7.55732094385367361e+01
1 3.90624992568749319e+00 -4.71826270276273760e+01 1.56959783605819013e+02
1 -1.19794600351954763e+01 -8.04804644711020103e+01 -2.68024055536174117e+01
1 5.79107237546383402e+01 7.64125360976068748e+01 -7.21934067039583596e+01
1 3.28894601235652573e+01 -5.14083500759854530e+01 1.99325121759552353e+01
1 -1.27192755598322975e+02 1.86446202126032610e+01 -2.46452605189188603e+01
8
Step 4000
1 -3.35803559410744953e-02 3.98055579991376263e+01 2.18143119379971644e+01
1 -5.46399979967346781e+01 5.92239652855321594e+01 -3.30470320538493354e+01
1 -4.57236954768242825e+01 -4.20978081197914236e+01 -3.72315394076751147e+01
1 -1.67919630254527910e+01 -5.10259072114743049e+01 1.63102343482136405e+02
1 -5.75948714510986406e+01 -1.03804331942753919e+02 -1.15948341747917660e+00
1 2.79074085309554043e+01 8.82262359670032197e+01 -8.68652664562042531e+01
1 -4.37956398937330604e+01 -4.47327654777438468e+01 7.96020547659679636e+01
1 -1.45701619363106545e+02 -1.12400378908861533e+01 4.75251035073901562e+01
8
Step 5000
1 -1.49114284751573845e+01 -2.36321320265443582e+01 3.56580925439140017e+01
1 -7.11421981585970400e+01 6.00708268167365418e+01 1.84003819283464622e+01
1 -6.66883630236354907e+00 -2.37052161957581831e+01 1.38532364810081035e+01
1 -2.55613458135545137e+01 -3.37599004749192559e+01 1.18071220177435464e+02
1 -6.66614920144690899e+01 -8.49030714041211070e+01 2.20635695116422177e+01
1 -1.30943884982022674e+00 7.93674955730298137e+01 -6.42487979752601461e+01
1 -1.09614156054304544e+02 -2.82343474922426765e+01 1.06992480101300018e+02
1 -1.19870035193398564e+02 -4.96417345568450017e+01 9.04494366091408324e+01
8
Step 6000
1 -9.13097037734440775e+00 -8.70977245323866356e+01 3.24218495310679842e+01
1 -4.76890325047611512e+01 2.31919815390824624e+01 4.39350349172366776e+01
1 1.34452472917749972e+01 6.31094899398079878e+00 5.50939854745892035e+01
1 -2.21035777511554272e+01 -5.93216866766345952e+00 3.49712085555515699e+01
1 -4.57364064217257251e+01 -4.06638565405719348e+01 2.92139190944144254e+01
1 -2.13178477869540437e+01 5.16226773551736855e+01 -4.61283647765712779e+00
1 -1.40225274755663349e+02 -1.58989225786840049e+00 9.49921745060675846e+01
1 -6.30506869981835791e+01 -7.34257120133600409e+01 8.98469555343986599e+01
8
Step 7000
1 1.29099653656136013e+01 -1.28913356744737825e+02 1.67166566008750976e+01
1 3.93114218906099044e-01 -2.56985202294385182e+01 3.90782825387412061e+01
1 1.06932593177894084e+01 3.93959764384140314e+01 7.00459999494656955e+01
1 -1.30298901612512719e+01 1.97104165114471250e+01 -5.59905457397734452e+01
1 -1.43092679823838722e+01 6.06630577676929761e+00 1.55369553586295197e+01
1 -2.89037532969405859e+01 1.12419759647051194e+01 7.18742813672172218e+01
1 -1.24539507610192075e+02 3.18246030236367190e+01 5.36857165923517883e+01
1 3.91386115367631415e+00 -6.65539481983494312e+01 5.25836960064937600e+01
8
Step 8000
1 3.62418524635255679e+01 -1.33542595683479107e+02 -1.92428568440434256e+00
1 4.58252724760787800e+01 -5.63799707629784805e+01 1.43584280736263175e+01
1 -5.43723659354755107e+00 6.50735933629474346e+01 5.46190123675985006e+01
1 -6.46603308399507526e+00 3.40762508096578784e+01 -1.21000853523057017e+02
1 7.42968078434809964e+00 3.63264891204082048e+01 -1.27180695167159694e+01
1 -2.65394063645944236e+01 -3.18320508695829290e+01 1.32777554851215854e+02
1 -6.89780940858954921e+01 6.33269850855621996e+01 3.90182225005989913e+00
1 5.96552305306233777e+01 -2.92604301456484848e+01 8.44405418589641243e-01
8
Step 9000
1 4.39260648352088765e+01 -9.64499709239680953e+01 -1.50658661785318273e+01
1 6.51404217984393341e+01 -5.21687269896160757e+01 -1.24221620311785976e+01
1 -1.86803338520983004e+01 7.35318066809254276e+01 1.69464150616619378e+01
1 -5.78831199669750696e+00 3.49347738940791075e+01 -1.40369507321692282e+02
1 9.58810168120016115e+00 4.22046874286471549e+01 -4.16642086328201842e+01
1 -2.03171137581296897e+01 -6.69950247425629328e+01 1.49909242248234108e+02
1 3.27251683345498146e+00 8.09445893183814746e+01 -3.27878125620415162e+01
1 8.94937189864904354e+01 2.20847344546768376e+01 -4.01704529915776973e+01
8
Step 10000
1 2.56323079719107483e+01 -2.53460671045634349e+01 -1.90669113021810972e+01
1 5.06118581977066384e+01 -1.79950315384726949e+01 -2.62207866029539112e+01
1 -1.49586300221694248e+01 5.83765312844625655e+01 -2.72290469079970556e+01
1 -7.99898058042519278e+00 2.50968240912740690e+01 -1.14479475017764969e+02
1 -3.69857475155518634e+00 2.78184958089830872e+01 -5.65518285787759822e+01
1 -1.58625099127037963e+01 -8.55944016790397768e+01 1.11772397724316193e+02
1 6.28257901022315792e+01 7.59521781996733552e+01 -4.54554202330543831e+01
1 8.92133779775082161e+01 6.49620424033399360e+01 -5.46322694738056427e+01
8
Step 11000
1 -1.60981225387898341e+01 5.97613515452534614e+01 -1.55867170479713604e+01
1 1.22803948813828612e+01 2.44372689267411012e+01 -2.09433511011322615e+01
1 1.04579734439348719e+01 1.92546798278103743e+01 -6.09083431401652504e+01
1 -6.82543788068546320e+00 9.28244271332097526e+00 -5.97237908976020222e+01
1 -1.82796617132791219e+01 5.27048629537963276e+00 -4.82627446925455672e+01
1 -1.52551776013056894e+01 -8.18216597337729326e+01 2.68763993991559751e+01
1 8.96297510145394511e+01 4.84338137717625301e+01 -3.80009882809605841e+01
1 6.31680607474341826e+01 8.18379871069553246e+01 -4.05423748928898746e+01
8
Step 12000
1 -6.42933950627326141e+01 1.30719411728262884e+02 -9.73376373189859834e+00
1 -2.85917144719938925e+01 4.98871030651562322e+01 -7.26840636523087169e-01
1 5.01900965153784711e+01 -3.62247960704566694e+01 -7.11705967562443220e+01
1 2.18683690231874284e+00 -7.83668780543547161e+00 -1.95807803873506131e-01
1 -1.89566330835837960e+01 -1.17449767540660837e+01 -1.74057153377200891e+01
1 -1.61698100977017774e+01 -5.45776002009455965e+01 -7.64178292114134194e+01
1 8.06504350886410464e+01 7.28809110619904388e+00 -2.29025686319631383e+01
1 2.12700839422379353e+01 6.61730566067181485e+01 -7.54748401508281841e+00
8
Step 13000
1 -9.52713583309207621e+01 1.62543013242662511e+02 -6.04771385625161351e+00
1 -5.19839947044057880e+01 4.48220547669358638e+01 2.36454929944214562e+01
1 8.65624688764358439e+01 -9.19328382107663060e+01 -5.29526776910289598e+01
1 1.76030746746906779e+01 -2.25400854869256513e+01 4.36012741896559177e+01
1 1.09553812185343769e+00 -1.44300721981874958e+01 2.53074315221834283e+01
1 -1.33130542774245519e+01 -1.01150002371011727e+01 -1.58006193761170607e+02
1 4.74240946315044525e+01 -3.39147217282218207e+01 -1.16015859788168072e+01
1 -2.30234376919447570e+01 2.46743420361363732e+01 2.76285129100375002e+01
8
Step 14000
1 -9.07015409003490589e+01 1.42833616478097127e+02 -4.96267788476481986e+00
1 -4.92589946972729180e+01 1.42676480830219550e+01 4.08716086140527324e+01
1 9.82877436497176404e+01 -1.26312223858409993e+02 -1.13180987468724261e+01
1 3.19265377879720837e+01 -3.18152448079993135e+01 6.28294360547238639e+01
1 3.52543824141053790e+01 -2.90996630646135168e+00 6.29910361602998137e+01
1 -1.84296053628042755e+00 3.93454348128181053e+01 -1.85333620010277542e+02
1 8.22822975006830504e+00 -6.26247061430815890e+01 -8.15579646907750799e+00
1 -5.62017461307598509e+01 -2.51183117349398337e+01 4.80897161619244216e+01
8
Step 15000
1 -4.59415517232349941e+01 7.51295136707028917e+01 -2.82299725048036754e+00
1 -2.51965475848329774e+01 -2.28850816818365850e+01 4.37850816198567827e+01
1 7.07453040628661398e+01 -1.20186677543054401e+02 3.92787350183203401e+01
1 3.53181668826841673e+01 -3.25599238968498597e+01 6.01967924877797742e+01
1 6.56848718724113922e+01 1.41647171159730760e+01 7.98350778566111074e+01
1 1.93760453262106829e+01 8.00083116536862349e+01 -1.47146355159868961e+02
1 -2.05220277125971471e+01 -7.15771069557989250e+01 -8.73303315342797326e+00
1 -6.92519421190166327e+01 -6.29883215427251457e+01 4.42264149011090453e+01
8
Step 16000
1 2.34141841048667452e+01 -1.71304654558906542e+01 4.76001906342951031e+00
1 6.66724853905634340e+00 -4.51696733376509485e+01 3.10673289540522326e+01
1 6.04558398102232086e+00 -6.72102498530130958e+01 7.89806133596071476e+01
1 2.10796990224948075e+01 -2.19458890909144451e+01 4.47773320050838137e+01
1 7.26326602557014667e+01 2.45333422805126879e+01 6.81878453000192195e+01
1 4.56070837398856952e+01 9.93033349054681338e+01 -5.62755613147874953e+01
1 -2.97287163283971303e+01 -5.97608937168587460e+01 -5.75945077811652784e+00
1 -6.00756126724917436e+01 -7.48311562689928138e+01 1.74602121128993701e+01
8
Step 17000
1 8.50545270734548637e+01 -9.67338629777225094e+01 1.81233372453060291e+01
1 3.17192860814675228e+01 -3.97777328564731505e+01 6.30721498037410999e+00
1 -7.20757412971527316e+01 1.67446691816120214e+01 9.03998564593952665e+01
1 -9.47317506234280948e+00 4.21789863934714904e-01 2.63375283230457065e+01
1 4.57028773081886541e+01 1.92051903485053046e+01 3.16658149247029392e+01
1 6.60632234773654545e+01 8.98245618325873778e+01 5.15906892513585689e+01
1 -1.95277769216886234e+01 -3.16058707929283393e+01 6.49547294922388740e+00
1 -3.33459686659141212e+01 -5.76816247844675587e+01 -2.06491045663819932e+01
8
Step 18000
1 1.11110787681161995e+02 -1.35750564563658912e+02 3.17526363597940744e+01
1 4.05272566673441688e+01 -8.19998471741035218e+00 -2.39135853489833927e+01
1 -1.28525743340976248e+02 9.70976080911984383e+01 6.91639440347275212e+01
1 -4.53518541255422747e+01 2.99455698929758611e+01 1.11017176818182453e+01
1 -8.64156796340003908e+00 -2.01669605399948715e+00 -1.60172425400668992e+01
1 6.89069506565174663e+01 5.46009833262734645e+01 1.32584908332184483e+02
1 1.16734527728624138e+00 4.21307067234412802e+00 2.73517800701426808e+01
1 1.14766556560930710e+00 -2.06153284478244458e+01 -5.29147605823442078e+01
8
Step 19000
1 9.33581711978371374e+01 -1.28065746262666011e+02 3.69014572020560720e+01
1 3.15825693888923560e+01 3.45315799737340683e+01 -5.13752123446502580e+01
1 -1.38694927559654246e+02 1.40797976080573648e+02 2.63165881402850914e+01
1 -6.95717238360960408e+01 5.65190413136347658e+01 -8.91264483616467512e-02
1 -6.75599998692585757e+01 -2.91584310599593124e+01 -5.64115226019859222e+01
1 4.82854799950077407e+01 6.00723506788254280e+00 1.59041693935086073e+02
1 1.82746120014215130e+01 3.71189447060570785e+01 4.84150824879270729e+01
1 3.19257902887021423e+01 1.94200158572733734e+01 -6.39433271544058996e+01
8
Step 20000
1 4.32727481295539889e+01 -8.53758949665516269e+01 2.60695438913335025e+01
1 1.07703518043924493e+01 6.62319950443924057e+01 -6.76199827200638879e+01
1 -9.98617948252816916e+01 1.32411201655664399e+02 -1.98720528019743945e+01
1 -6.73332572581860518e+01 6.76386888444786933e+01 -1.04087164050406535e+01
1 -1.03714780901047718e+02 -4.74067681535475813e+01 -7.55515742987243755e+01
1 7.29137135321522223e+00 -4.03541659058262852e+01 1.29731823031829634e+02
1 1.94058009956595363e+01 5.80767213750934133e+01 5.72447318702336574e+01
1 5.00620291958369705e+01 4.59026842880404899e+01 -4.71664496046832724e+01
8
Step 21000
1 -1.41509720513122339e+01 -2.96341906995802482e+01 -1.53961083694605483e+00
1 -1.20523515791019911e+01 6.78247073018812188e+01 -6.58461420063667049e+01
1 -2.97566486318200738e+01 7.79478517506799164e+01 -5.22429943636875862e+01
1 -3.42066577753794832e+01 5.40839393386627734e+01 -2.32031013886765933e+01
1 -1.00489254031614237e+02 -4.57813342897233966e+01 -6.99681506527291788e+01
1 -4.20997728897108345e+01 -7.07730383682196162e+01 6.54951429859575569e+01
1 4.85597686249506222e-01 6.22076017772549505e+01 4.42541111593669925e+01
1 5.17075073752794907e+01 5.00393446239899973e+01 -7.57452275383776907e+00
8
Step 22000
1 -5.32042803901008980e+01 1.76513353178858736e+01 -3.71307786079879421e+01
1 -2.75729394099978649e+01 3.29195156189457308e+01 -4.28845164262988305e+01
1 4.07693237942298481e+01 2.91650415628493365e+00 -6.11587776198314046e+01
1 1.96429302626442386e+01 1.57079920748040305e+01 -3.81344074554776640e+01
1 -5.87001813436636368e+01 -2.26028673727480545e+01 -4.54011827207033178e+01
1 -8.25489131994084033e+01 -7.81474042233844983e+01 -2.18270595016058078e+00
1 -3.14558823332774864e+01 4.97292795137538448e+01 8.94825621561391493e+00
1 3.83238223440352286e+01 3.38121722172952630e+01 4.00570151515649755e+01
8
Step 23000
1 -6.11330156473735684e+01 4.53967613225508799e+01 -6.55387816866078055e+01
1 -3.06945080386890723e+01 -2.69793271648933519e+01 -1.53342256675859101e+00
1 8.37539956937436614e+01 -5.99539585339823589e+01 -4.87766237324972067e+01
1 7.19322096548757060e+01 -3.55964885133948101e+01 -4.98701729486406506e+01
1 4.30644188658950089e+00 1.31505556194508895e+01 -1.27365032540260206e+01
1 -9.91736991812555431e+01 -6.44648991602636698e+01 -4.76582075532064664e+01
1 -6.05207836253042899e+01 2.56602782973886008e+01 -3.75302496872780935e+01
1 1.54715311523406438e+01 8.39651023062881841e+00 7.65225647069421484e+01
8
Step 24000
1 -4.22043243009550793e+01 5.44552059241951838e+01 -7.18220062506652681e+01
1 -2.24635610231224589e+01 -8.51694305593432546e+01 4.78987244166332573e+01
1 8.89075574211508410e+01 -8.85440273188839484e+01 -2.59067592268203271e+01
1 9.89114508452435928e+01 -7.97657561824161547e+01 -5.06922429925755935e+01
1 6.23785783789879815e+01 4.54519867249315297e+01 1.69824346007493610e+01
1 -8.55847101007221767e+01 -3.80518176851639254e+01 -6.20253537977837865e+01
1 -6.92452254437833972e+01 -2.07496948080635590e+00 -7.61336105392545051e+01
1 -9.53099207347608690e+00 -1.18642498520133071e+01 8.59614103035382300e+01
8
Step 25000
1 -1.25171558226593014e+01 5.22535169922766158e+01 -4.79928969118856728e+01
1 -8.81710382222178879e+00 -1.12575766862418689e+02 9.00086105849151039e+01
1 6.42152352097383528e+01 -7.87828906948815444e+01 -4.40435700219474047e+00
1 8.75359341225795049e+01 -9.78729857281025915e+01 -3.52625987074975882e+01
1 9.38200966116996113e+01 5.95421659225607200e+01 3.73727446552469331e+01
1 -4.50989044640941188e+01 -8.75534035497276442e+00 -5.22244495999635632e+01
1 -4.75628532222418201e+01 -2.57916377027590720e+01 -8.89003892148378441e+01
1 -3.01475238487266388e+01 -1.69869437115468997e+01 6.22182278338196895e+01
8
Step 26000
1 9.42514001565028892e+00 4.61565965568361136e+01 1.69509345592889460e+00
1 3.49178594657996211e+00 -9.25721717981122794e+01 1.09644433251238638e+02
1 2.79760616612845574e+01 -4.21332489167190616e+01 8.23943955643499848e+00
1 4.10475532911584793e+01 -8.01447367010245415e+01 -4.48755354918552563e+00
1 8.99581440241179706e+01 4.85467648365699276e+01 4.75102551777938515e+01
1 1.04128499097000127e+01 1.57298655818526374e+01 -3.34685254526579357e+01
1 1.72201291666064615e+00 -4.04005402391373423e+01 -6.75281629935868466e+01
1 -4.19894354759598443e+01 -6.22116261509802637e+00 1.12585494192746527e+01
8
Step 27000
1 1.24061530819804258e+01 3.91739170985988139e+01 5.99656948747853988e+01
1 1.04452670136282215e+01 -2.88716809591521795e+01 9.65206192487938068e+01
1 -1.04144471434583119e+00 1.09399398290241279e+00 1.10989978279409076e+01
1 -2.15617493236676658e+01 -3.09950957877929554e+01 3.26846877625722669e+01
1 5.57056336825488501e+01 1.57779772859201994e+01 4.91273202613311213e+01
1 6.40657005474687793e+01 3.19406208418849573e+01 -1.98553282849029245e+01
1 6.23094915043084541e+01 -4.43046438320346638e+01 -1.82862980807979234e+01
1 -4.31036085245069813e+01 1.14583228913280202e+01 -4.99634847001644857e+01
8
Step 28000
1 -1.93028283671239875e+00 2.96537236506459614e+01 1.02576271344426800e+02
1 1.20655816337421076e+01 5.34012960062058681e+01 5.00076980139234735e+01
1 -1.26497473016374276e+01 3.13682248025764956e+01 8.78968530540812054e+00
1 -7.30149255265982617e+01 3.05176316443507680e+01 6.17846843547974132e+01
1 6.46159682797287260e+00 -2.57878304682874138e+01 4.36995069022430087e+01
1 9.98382373733274733e+01 4.04704568876184752e+01 -1.70878168656000042e+01
1 1.09826047988481022e+02 -3.93777142708067416e+01 3.88104835915094952e+01
1 -3.38347616874055532e+01 2.19096788330696022e+01 -9.90174934047907698e+01
8
Step 29000
1 -2.09363574165005986e+01 1.44242487676536530e+01 1.08808541486042046e+02
1 1.14555566735973926e+01 1.17117455229858720e+02 -1.71924135750399252e+01
1 -8.83690210809188592e+00 3.81700875612331103e+01 7.70167156576182776e+00
1 -9.20623356383221250e+01 7.94459562240544273e+01 7.03800497249297621e+01
1 -3.85010901841687172e+01 -5.82843625632740441e+01 3.10754304754105632e+01
1 1.07325548533105305e+02 4.36463941578700627e+01 -2.10887705527303204e+01
1 1.23164045089137090e+02 -2.94834132902751627e+01 7.93310071383424287e+01
1 -1.62382948659983590e+01 1.38904227699076106e+01 -1.16804098844541400e+02
8
Step 30000
1 -2.87555531051254043e+01 -7.13294706439600468e+00 7.06991903744866192e+01
1 1.18354907847524036e+01 1.33251283703161477e+02 -8.31001414591478635e+01
1 -4.26048236055173279e-01 2.27409401732278660e+01 1.19362069988365462e+01
1 -7.34263490691220113e+01 9.70157873508143922e+01 5.44517742631837933e+01
1 -6.47540820906047543e+01 -6.71451326333622376e+01 1.00561034989309466e+01
1 8.33564867429748944e+01 4.28243765964481398e+01 -2.21749351845040401e+01
1 9.37139397901925264e+01 -1.79019065879031523e+01 8.63708142416202378e+01
1 6.54248161953451746e+00 -1.40940255189508576e+01 -9.44731885843900869e+01
8
Step 31000
1 -1.54041033949160973e+01 -3.06863977892431841e+01 -1.68219061081595500e+00
1 1.37813744519139671e+01 9.53143776293784413e+01 -1.25840086539143030e+02
1 1.70575088072481423e-01 -4.18256602687647394e+00 2.10113710603248016e+01
1 -2.79039298628961916e+01 7.72173640808396300e+01 1.99303569834736187e+01
1 -6.77287394592098622e+01 -4.74384561961369684e+01 -1.91529909364603981e+01
1 3.21554571476979021e+01 3.69346325771036561e+01 -1.14268610828415351e+01
1 2.81551807068584239e+01 -5.76028234818531804e+00 5.73443573558646165e+01
1 3.00583830903816072e+01 -5.10275010327228884e+01 -3.70329644710188219e+01
8
Step 32000
1 1.64751930424834612e+01 -4.80663468675934169e+01 -8.07727007404359796e+01
1 1.47401851821084851e+01 2.04798078873306721e+01 -1.30675625390689220e+02
1 -1.37103136647248309e+01 -2.78222592093470418e+01 3.00651136253558455e+01
1 2.27894081175655749e+01 2.90436445221648611e+01 -1.89903538972067985e+01
1 -5.21145085683289864e+01 -6.01531380278974304e+00 -5.18321983792006264e+01
1 -3.42805139584418797e+01 2.30404501510806128e+01 1.34569410067295294e+01
1 -5.21043789839307934e+01 7.64999675512071953e+00 6.05517539384681669e+00
1 4.83527563220496006e+01 -7.66678312522564198e+01 3.61946315452807568e+01
8
Step 33000
1 5.18042090126936685e+01 -5.22831780153504440e+01 -1.32885716630457949e+02
1 1.09983672444048253e+01 -5.78544331070975701e+01 -9.51093384706858558e+01
1 -3.89316788992825309e+01 -3.57696280712092118e+01 3.22843954395149382e+01
1 5.59336935004701417e+01 -2.63789038908888926e+01 -4.58010608459885304e+01
1 -2.78544691813638714e+01 4.04922636132854876e+01 -7.77623437576247909e+01
1 -9.71701705916189411e+01 -9.90126885905185050e-01 4.51926548080828070e+01
1 -1.17969579951344059e+02 2.32141258708260771e+01 -4.23432348845383828e+01
1 5.54687755770078041e+01 -7.23376225088905045e+01 9.86012796692604354e+01
8
Step 34000
1 7.17083117532106655e+01 -4.24397723615010989e+01 -1.35040448507536269e+02
1 1.04478077215645104e+00 -1.05772856617864164e+02 -3.10962719403793173e+01
1 -6.35090609914884325e+01 -2.26975136280168357e+01 2.23360824120477481e+01
1 5.93055934246363350e+01 -6.58884359854561126e+01 -5.03548486216755435e+01
1 -4.50969752034069504e+00 7.25164004702168086e+01 -8.44757422385666530e+01
1 -1.36105379703003706e+02 -3.32200619976413236e+01 6.97352203101700496e+01
1 -1.46566036448763185e+02 3.99753069764806739e+01 -6.52426748293294025e+01
1 4.77845854480890395e+01 -3.24382429812656241e+01 1.28400601936953137e+02
8
Step 35000
1 6.32688931221686843e+01 -2.42397206910310388e+01 -8.40784684690959239e+01
1 -1.23946012639563534e+01 -1.05880972133548397e+02 3.96751174926748433e+01
1 -7.18128135579933087e+01 8.02856729707039207e+00 -7.47309922429584494e-01
1 3.57699163842969199e+01 -7.47798947017088409e+01 -3.36814896585499284e+01
1 1.31370347763053221e+01 7.61169714109139761e+01 -6.31541206031761106e+01
1 -1.36266560594385368e+02 -6.62757235522728791e+01 7.39699321831878649e+01
1 -1.29648816900495291e+02 5.38639919024273368e+01 -5.40442738101053166e+01
1 2.57282172250436609e+01 3.10072017057490221e+01 1.16787614439691197e+02
8
Step 36000
1 2.60509187202507917e+01 -6.95060175921151924e+00 1.33972044131869450e+00
1 -2.34222941979261101e+01 -6.37349138389402370e+01 9.45261544809510639e+01
1 -5.17600247926068633e+01 4.55582493917192650e+01 -3.22242611798128920e+01
1 8.61224987865117086e-02 -5.19487789819765098e+01 -7.00819945187811921e+00
1 2.54325417127522115e+01 4.82593302957797832e+01 -1.42396846057488258e+01
1 -9.35025753008177816e+01 -8.84756474764906784e+01 5.28424168419718256e+01
1 -7.35714829926129852e+01 5.80364676363600296e+01 -1.66215863504588626e+01
1 -5.02551884565518847e+00 9.18317712278301173e+01 7.07220887572961630e+01
8
Step 37000
1 -2.52111317983964689e+01 1.99625827645412746e+00 8.50899388954361058e+01
1 -2.61442377334942968e+01 -2.32427690725523250e+00 1.17519761213988062e+02
1 -1.62060246261233232e+00 7.47743595070162144e+01 -6.21726917890027337e+01
1 -2.86152980156183254e+01 -9.99814818438914621e+00 1.35403546203175598e+01
1 3.49724473915685365e+01 -1.59641151437549955e+00 4.91512140110717084e+01
1 -1.78898264612286333e+01 -8.74731437574011466e+01 1.29595007112494081e+01
1 2.76049327928187305e+00 4.58224553791553362e+01 2.60827483171196199e+01
1 -3.46295244529898554e+01 1.22130093852686514e+02 9.71603176266870072e+00
8
Step 38000
1 -6.74889941508264428e+01 2.65340764210024682e+00 1.31383272970580407e+02
1 -1.80535724891596132e+01 5.02652169579123722e+01 1.04081260156713071e+02
1 6.60576607802891687e+01 8.12358504540491992e+01 -7.82715030771672673e+01
1 -3.63862896226180581e+01 3.05044173529062235e+01 1.54105304261762708e+01
1 4.30992266615360435e+01 -5.39750329647268003e+01 1.03882037858294879e+02
1 6.58049688306727489e+01 -5.71857444854744159e+01 -2.90612574164826682e+01
1 7.37206317517070175e+01 1.57928683931173204e+01 5.01781118726308790e+01
1 -5.32872229705877771e+01 1.07332690481061448e+02 -4.43204006130673775e+01
8
Step 39000
1 -8.28108037090253646e+01 3.07045239028425110e+00 1.23988368126370844e+02
1 -1.91119251426639480e+00 7.33874704668389626e+01 6.12007036100136190e+01
1 1.26850666095068988e+02 5.72306483799528323e+01 -7.08599160069988443e+01
1 -2.09833479154466538e+01 5.08898879710353498e+01 -3.13862246400586065e+00
1 4.80281801589667765e+01 -8.78374162018792646e+01 1.27155548197862885e+02
1 1.27467367466069689e+02 -3.85877384474935559e+00 -5.58001271315517329e+01
1 1.17631007499439434e+02 -2.50872046547868273e+01 4.27252919567916720e+01
1 -5.52678938278607319e+01 5.26936236429877525e+01 -7.65555410280828710e+01
8
Step 40000
1 -6.61362723406104465e+01 1.38265675721405756e+01 7.07494721377940436e+01
1 1.47827322432720898e+01 6.11552881115198659e+01 4.33685782770896644e+00
1 1.54251692126464718e+02 6.17033450788653948e+00 -3.81146791157608433e+01
1 8.28305715972031109e+00 4.24644572611459168e+01 -3.14791616164617025e+01
1 4.57041293936711668e+01 -8.96631411882639497e+01 1.06866827460511104e+02
1 1.46270264940865786e+02 5.55438346882805902e+01 -5.96929653947602787e+01
1 1.24509469869548468e+02 -6.31785768526390328e+01 8.96100195190469329e+00
1 -4.09657445258019450e+01 -1.98789219464537794e+01 -8.27702663496260840e+01
8
Step 41000
1 -2.66861288068185694e+01 3.98472394917528732e+01 -1.30304067958019765e+00
1 2.31881970683535563e+01 2.32683743744620024e+01 -4.75592439561804881e+01
1 1.32326627021528225e+02 -5.70807095526135413e+01 1.15545088126821742e+01
1 3.56658089051713247e+01 9.61308198097574440e+00 -5.09390539496511394e+01
1 3.23555240579994035e+01 -5.74386655427059694e+01 4.63818154603298396e+01
1 1.18173173321168420e+02 1.00443712974572051e+02 -4.57586680218508377e+01
1 9.72520349742091241e+01 -8.35532865588987050e+01 -3.10864718609948341e+01
1 -1.68921892043502275e+01 -8.20455428963705060e+01 -6.82955923759994050e+01
8
Step 42000
1 1.60064919199666313e+01 7.35870407436989922e+01 -5.74079806241912038e+01
1 1.83536640142143277e+01 -2.08162389065663973e+01 -7.86631124133425885e+01
1 6.55766854023774215e+01 -1.10533626512904817e+02 6.14442630782270385e+01
1 4.60490085117917900e+01 -3.20904013452129462e+01 -4.30017055067824856e+01
1 7.63592292681828866e+00 -2.01642020370734709e+00 -3.41464555213089014e+01
1 5.55147663385196566e+01 1.13950496204678359e+02 -2.66026570777552820e+01
1 4.83268795026397768e+01 -7.65899843296008811e+01 -5.36738965774815568e+01
1 7.43767598349751857e+00 -1.12192792602726328e+02 -4.32733590674588129e+01
8
Step 43000
1 4.30323764100443924e+01 9.63251732291553964e+01 -7.37165157376887663e+01
1 2.52070826403983750e+00 -5.14603373658589334e+01 -8.18074588499633393e+01
1 -2.08863529551801541e+01 -1.34522511236081499e+02 9.40345157418458371e+01
1 3.13900191452437518e+01 -6.16089118787125329e+01 1.51854757047120392e+00
1 -2.29387484144766169e+01 5.46878953074271976e+01 -1.03222221669828244e+02
1 -1.76547709638645500e+01 8.95813100747192550e+01 -1.41925697951303569e+01
1 -5.78672244639234812e+00 -4.27555320923272859e+01 -4.43359395240789382e+01
1 2.40323459289175467e+01 -1.03406353825856925e+02 -1.68369636327734753e+01
8
Step 44000
1 4.64974538224046583e+01 8.77490617392222276e+01 -4.92673509144024280e+01
1 -1.54037884009051798e+01 -5.67008588343096136e+01 -6.00882209046388951e+01
1 -9.53434751260503361e+01 -1.20990571387769748e+02 1.00157648264332778e+02
1 -4.89047713288418784e+00 -6.04194720684826549e+01 7.41045152962127389e+01
1 -4.96389063043280885e+01 8.99008201035866676e+01 -1.34090398145526223e+02
1 -7.48127188431602974e+01 3.52827632673281784e+01 -1.24474372009521339e+01
1 -4.99081665106659571e+01 6.41133086993477352e+00 -6.14185656479495279e+00
1 2.94288214692805141e+01 -6.35166856131770245e+01 6.03783995992817069e+00
8
Step 45000
1 3.15416706892300134e+01 3.73866422409624661e+01 -3.55857739147995167e+00
1 -2.34648002785604923e+01 -3.59534044149668901e+01 -2.48182537937459848e+01
1 -1.36536325069959076e+02 -7.45310326085316603e+01 8.16438177482844765e+01
1 -4.66873313179864056e+01 -2.31287324869798425e+01 1.44604453952755108e+02
1 -6.38990629810740387e+01 9.18524954457721634e+01 -1.18674983630715772e+02
1 -9.82137666631314090e+01 -2.91767564393935501e+01 -1.50920924322266483e+01
1 -7.43635250405986170e+01 5.22886046434891796e+01 4.10115023083264063e+01
1 2.55417161783222788e+01 -9.94411574017987299e+00 2.42595116784744746e+01
8
Step 46000
1 1.19830707376548453e+01 -4.49186104644519730e+01 3.41121184878605845e+01
1 -1.32571232509600314e+01 7.80857914301644196e-01 9.38141734247708037e+00
1 -1.40307969598755022e+02 -7.72057343304478927e+00 4.72562317398751048e+01
1 -7.21281278365897975e+01 3.50672400828255633e+01 1.72689185891432743e+02
1 -6.20463683223387790e+01 6.32656051467532023e+01 -6.82637492597734479e+01
1 -8.53846902312306639e+01 -8.06750785908811423e+01 -1.04944374596054892e+01
1 -7.69900074764044859e+01 7.77916793788000263e+01 7.16858274576421195e+01
1 1.81253691447713052e+01 3.83044292275815579e+01 3.84819414184461905e+01
8
Step 47000
1 1.58735980112503650e+00 -1.27789127400597621e+02 4.07941617212829470e+01
1 1.32961127273865571e+01 3.79779639371395348e+01 3.10267090820408811e+01
1 -1.16223271942685201e+02 6.31093405378830781e+01 7.41061643239520507e+00
1 -6.67005595792970922e+01 8.46862736403614917e+01 1.31406013594355187e+02
1 -4.58763499808765758e+01 1.84531184924193532e+01 -6.06849242268774969e+00
1 -4.77964951487735732e+01 -1.01753951006533114e+02 9.78889172095765403e+00
1 -6.13405099980492210e+01 7.46125823631755907e+01 6.92813081069530909e+01
1 1.30631853487203031e+01 6.81204082830233091e+01 4.88196080370121592e+01
8
Step 48000
1 4.83025064624718325e+00 -1.74025991308465336e+02 1.37291167000683831e+01
1 4.31391745772706585e+01 6.12419459306348699e+01 3.64278550419893818e+01
1 -7.85193568426423383e+01 1.21517594177945128e+02 -2.98368874976357290e+01
1 -3.21130116604626679e+01 9.71505498848538309e+01 2.51618061253274341e+01