8
Step 0
1 -4.335052367192e+01   6.226770353478e+01  -1.571831079641e+01 
1 -4.197517804778e+01   5.557624918835e+01   6.050689884240e+01 
1  4.062082842113e+01  -6.869837660098e+01  -6.406602060552e+00 
1  3.202042668263e+01  -9.333787405458e+00   7.585091136361e+01 
1  2.169421302650e+01  -5.304981751903e-01  -3.452327492586e+01 
1  2.479565131470e+00   3.727202342153e+01  -7.541307749490e+01 
1  3.539535683763e+01   1.835259957186e+01  -5.811004072382e+01 
1  1.040422054410e+01   7.251222155371e+01   5.312714128624e+01 
8
Step 1000
1 -5.619741146846e+01  -1.877728210978e+01  -5.419537924252e-02 
1 -1.273143476631e+01   1.200555094433e+01   1.547835501952e+01 
1  3.470173461744e+01  -2.141844241950e+01   5.522898384408e+00 
1 -1.846866000605e+01   7.356891313322e+00  -4.005368293632e+00 
1  2.687362748487e+01   7.255394409879e+00  -4.073776212511e+01 
1  6.269486469227e+00  -7.287900064178e+01  -1.625285908380e+01 
1  7.669205074978e+00   1.993925701083e+01   4.006161536274e+00 
1  7.446397825866e+00  -5.779783267230e+00  -7.463827718942e+00 
8
Step 2000
1  1.578448333593e+01  -1.266448469608e+01  -1.405620794010e+01 
1 -3.028798119088e+01   1.642955850557e+01   9.779815514751e-01 
1  6.234271591694e+00   3.687859428647e+01   1.728686888060e+01 
1 -9.348959612171e+00  -5.160229756398e+01  -6.711637825116e+00 
1 -6.605700678039e+00  -6.115666592171e+00  -3.477015698851e+01 
1 -1.110640378297e+01  -5.049801349728e+01  -3.996594127977e+01 
1 -4.784012252495e+01   4.094086768591e+01   2.422128634768e+01 
1 -1.375019672556e+01   7.351922622100e+00  -1.261665992894e+01 
8
Step 3000
1  1.945723049829e+00   6.042020945305e+01  -1.802166432906e+01 
1 -2.874523387315e+01  -1.524899661913e+00  -2.044439311092e+01 
1  7.579350949900e+00   7.266805967406e+01  -4.634162991603e+00 
1  2.985732560843e+01  -4.494060531153e+01   2.009981753439e+01 
1 -2.816385893544e+01  -1.340217253381e+01   1.058798906660e+01 
1 -1.726528253712e+01   3.021934333328e+01  -2.000379811700e+01 
1 -3.947495474718e+01  -5.969273832499e+01  -3.450540945723e+01 
1  2.414492138743e+01  -6.622773607463e+01  -7.262134107308e+00 
8
Step 4000
1  3.477331930202e+01   2.756231280164e+01  -2.526939149426e+01 
1 -5.833649005072e+01   4.821819796537e+01   6.158139501611e+01 
1  3.036604010126e+01  -1.464541537961e+01  -3.446160936541e+01 
1  3.940706783703e+01   3.728446963173e+01   7.976040656645e+00 
1 -3.523872886284e+01   1.766960360220e+00  -5.349130835743e+01 
1 -3.028573455777e+01   3.897946375879e+01  -2.257995492192e+01 
1 -2.927744236518e+01  -4.238976357489e+01  -1.579045572985e+01 
1  2.703531408474e+00   9.025861652634e+00   4.472250109495e+00 
8
Step 5000
1 -9.695094175619e+00   6.327810733616e+00  -3.582383723185e+01 
1 -2.106293313772e+00   3.176848855677e+01   2.833303828883e+01 
1  3.330231408205e+01  -5.870832264357e+01  -3.201230812164e+00 
1 -1.314845040633e+01   3.101777741231e+01  -3.349975644822e+01 
1 -2.092679932153e+01  -8.556129761714e-02  -1.332741989967e+00 
1 -4.999832731507e+01   4.132808150027e+00   4.743348085532e+01 
1 -6.550380987087e+00  -2.953331692921e+01   4.930690024448e+01 
1 -7.596185168956e+01   4.924478617344e+00   5.402729135070e+00 
8
Step 6000
1 -2.377242894416e+01  -2.399244929742e+01  -1.199137819233e+01 
1  1.446572932201e+01   7.235108403016e-01  -5.962445303680e+01 
1 -5.110190609906e+01  -1.258315093715e+01   1.683960399488e+01 
1 -1.696573733314e+00  -9.698963955779e+00  -5.654430826949e+01 
1  5.596074337679e+00   1.280617068140e+01   4.416387763577e+01 
1 -4.270574078885e+01  -1.348304510426e+01   1.752988201056e+01 
1 -7.394403525727e+00  -3.172263141672e+01   2.271358498163e+01 
1  7.604369870862e+00  -4.922530430196e+01  -2.509893501875e+01 
8
Step 7000
1  6.918120439595e+00   5.779847468351e+01  -7.054841877929e+00 
1  2.177616180410e+01  -5.721079756114e+01  -7.628941002255e+01 
1 -4.315249079600e+01   4.245158076361e+01   4.245060910547e+01 
1  2.037869987453e+00  -2.335643600743e+01   4.898065763077e+01 
1 -7.666443214755e+00   6.403172466738e+01   2.750417223061e+01 
1 -1.008003302087e+01   1.754868923600e+01  -2.351812401130e+01 
1  2.455765731805e+01  -2.749812730262e+01   1.918623142210e+01 
1  1.587443402542e+01  -7.480014913074e+01  -2.623106421068e+01 
8
Step 8000
1  2.190403258778e+01  -5.257164891852e+01   1.509197207854e+01 
1 -2.714698146029e+01  -7.720613429911e+00  -3.019851512469e+01 
1  1.032925913944e+01   5.942645079820e+01  -4.056898784722e+01 
1 -5.440801556850e+01   1.519257362222e+01   1.283725229799e+01 
1 -3.547420055286e+01   2.168341820754e+01   2.341618247024e+01 
1  5.539286056899e+01   1.670205586417e+01   1.721425182971e+01 
1  3.052956152001e+01  -7.837313243442e+00  -6.842773725555e+00 
1  3.479419363365e+01  -1.065624265548e+01   2.939621782599e+01 
8
Step 9000
1  3.674429084454e+01  -1.000802999024e+02  -4.416391598106e+01 
1 -2.307167261686e+01  -6.157270829959e+00   1.014693960887e+01 
1  3.419785062425e+01  -4.094826142374e+01  -4.225788896805e+00 
1 -7.471403738226e+01   6.568001338671e+01  -1.409757312577e+01 
1 -1.300074530017e+02  -7.593351163623e+01   6.904230670904e+01 
1  7.056622789661e+00  -4.098281373655e+01   4.741465027071e+01 
1 -4.742369491957e+01   3.971905115879e+00  -1.912842553723e+01 
1 -5.155943155932e+00   5.159248205064e+01   7.364110223521e+01 
8
Step 10000
1 -1.779286262963e+01  -6.741488120104e+01  -3.148661236809e+01 
1  1.752849599315e+01   5.959149487706e+01  -1.673946751735e+01 
1  9.446422022921e+00  -1.081075477744e+01  -1.634832688670e+01 
1  2.465120372196e+01   1.064380135525e+01   8.963644022598e+00 
1  3.071001871849e+01  -4.833046026867e+01   3.675315532710e+01 
1 -1.630799633405e+01  -6.265422422901e+01   4.669302936348e+01 
1  4.480261394764e+01  -5.002468004214e+01   2.490867283986e+01 
1  7.612723237959e+00  -3.383351924884e+00   4.357579924396e+00 
8
Step 11000
1  8.620103052235e+00  -2.629887333018e+01   1.238751421054e-01 
1  2.514344941693e+01   1.581640091660e+01  -1.014670265641e+01 
1  3.182068268148e+01   6.502127395261e+01  -1.040421674263e+01 
1  1.918845382915e+00  -4.533557426053e+01   3.518735462298e+01 
1  1.333416015749e+01   2.595353703124e+00   3.976500451889e+01 
1 -5.067828352802e+01   9.973130260689e+00  -6.215256789222e+00 
1  5.844902099724e+01   2.222130454505e+01   1.266357356749e+00 
1  3.422121640769e+01  -4.063007548387e+01   5.095716350405e+01 
8
Step 12000
1 -5.555829110958e+00  -3.114406812155e+01  -3.523609548002e+00 
1 -8.735526595983e+00  -3.262472409985e+01  -1.364485498962e+01 
1  3.605201500049e+00   4.258483180623e+01  -1.529915602897e+01 
1  1.592553177306e+01  -4.891887417854e+01   4.212186824122e+00 
1 -5.152443215837e+01   4.887916416631e+00   3.846905908791e+01 
1  3.603170203497e+01   1.609291386293e+01   8.748795217543e+00 
1 -5.676710354909e-01   2.695031437024e+01   3.735068096119e+01 
1 -1.795526738669e+01  -7.803219600650e+00   9.774947898936e-02 
8
Step 13000
1  1.258573930651e+00  -5.281755849070e+01   1.352145791278e+01 
1 -1.855568146731e+01   7.215760900766e+00   1.405001015043e+01 
1 -3.007017082527e+00  -2.045594992403e+01   3.499401339799e+00 
1  3.595422472991e+01  -2.685905042809e+00  -2.063675090403e+01 
1 -2.070861809255e+01  -4.015474378731e+01   1.628407123861e+01 
1  1.329575189889e+01  -4.799940928626e+01   1.956855627605e+01 
1 -2.103227472055e+01  -6.574994243119e+00   1.474034977200e+01 
1 -1.061200243835e+00  -2.843015598085e+01   1.295466157481e+01 
8
Step 14000
1 -5.002897071101e+01   1.660992104267e+01   5.977448436283e+01 
1 -9.268029067774e+00   1.389387865027e+01   2.636479285829e+01 
1  1.689445707864e+01  -2.672773424674e+01   2.697892737179e+01 
1  7.349299375275e+00   7.350712195949e+01   7.951816609679e+00 
1  7.839617679940e+01  -9.167484859360e+00   2.210528089258e+01 
1  4.107243513291e+01  -4.365624601945e+01   2.092360976716e+01 
1  4.998984463195e+00  -2.423050246531e+00  -4.587578939599e+01 
1  5.858704132443e+01  -1.153459769795e+01   6.646630365722e+01 
8
Step 15000
1 -3.512973036466e+00   4.207654891394e+01   8.087716040228e+01 
1 -1.622218570771e+01  -2.666063745096e+01   2.854007561233e+01 
1 -2.973041184693e+01  -2.409647116252e+01  -3.703579388964e+01 
1  1.475653875780e+00   5.520523928236e+00  -4.887919522271e+01 
1  5.263485289128e+01   1.953600536934e-01   3.370081638728e+01 
1 -2.666629276237e+01   8.316198735381e+00   1.438314446627e+01 
1  5.315546514850e+01  -2.071610803211e+01  -4.837340798200e+01 
1  3.043193433186e+01   1.540217108960e+01   1.164532020613e+01 
8
Step 16000
1  3.698304722349e+01  -4.533621454407e+01   3.929786781729e+01 
1  2.404504171602e+01  -1.489129155671e+01   1.500747029192e+01 
1 -4.607348375657e+01  -1.081719979026e+01  -4.958550810220e+01 
1 -1.853088012044e+01  -2.003259421158e+01   2.722520436577e+01 
1 -3.758741797368e+01   8.294823253589e+00  -8.647878165543e+00 
1 -9.389742374640e+01  -5.833925592062e+00  -2.394924083276e+01 
1  4.428106113644e+01   3.851882916166e+01  -6.896597405841e-01 
1  2.080299514259e+01   7.888083265123e+00   4.170055144035e+01 
8
Step 17000
1  4.119379926904e+00  -2.286184635048e+01   1.618113931692e+01 
1 -4.972952770331e+01   1.448820978892e+01  -6.137454359599e+00 
1  2.142532054001e+01   2.835159618039e+01  -1.290771687868e+01 
1 -1.049111878055e+01  -1.199347177050e+01  -2.774524686435e+00 
1 -3.322963040531e+01  -3.034653437981e+01  -5.444764090440e+01 
1 -1.085365321747e+00  -3.956588982210e+01   3.810440262203e+01 
1 -6.849712826841e+00   1.177631971580e+01   4.299258581874e+01 
1  2.434438999421e+01  -1.444341111736e+01  -4.186414783025e+01 
8
Step 18000
1  3.069532179429e+01   1.406954083022e+01  -8.542860931156e+00 
1 -3.516090478980e+01   1.546711465019e+01   6.807944338109e+01 
1  1.541904151387e+01   1.323702264197e+01  -1.145968560177e+01 
1  2.153334952881e+01   4.874299831130e+01  -5.548414774180e+01 
1  4.662374127360e+01  -2.886342825716e+00   7.720682335694e+00 
1 -1.855030670932e+01  -3.449500702194e+01   8.814619943896e+00 
1 -1.200289756440e+01   1.588909000790e+01  -1.377141052309e+00 
1  5.114971169226e+01  -3.362331124248e+01  -2.322904459702e+01 
8
Step 19000
1  7.344039989613e+00   6.778340474177e+01  -3.543104739324e+01 
1 -1.086785987412e+01  -4.039117182872e-01   1.827288818526e+01 
1  4.674871217923e+00  -6.190494533190e+01   9.607526776337e+00 
1 -4.717679339361e+01   9.772554423983e+00  -4.777979335999e+01 
1  2.846278955493e+01  -3.587556422368e+01  -1.710364581054e+01 
1 -2.767978080013e+00   5.186817559616e+01  -5.654196672410e+01 
1 -2.036038006350e+01   4.098246165300e+01   1.737420412102e+01 
1  2.419863630193e+01  -2.222231197473e+01   2.371450865128e+01 
8
Step 20000
1 -2.230286285742e+01   1.546161889927e+00  -3.482566937498e+01 
1  3.831213834088e+01  -9.880022651941e+00  -3.992987561070e+01 
1  1.743784659548e+01  -4.283087287743e+01  -5.181900512680e+01 
1 -1.189437427916e+01  -3.258435267108e+01  -2.915521848657e+01 
1 -7.905855204819e+00  -7.165734083830e+00  -8.506857138123e+00 
1 -1.448566903221e+01   5.152934327279e+01  -1.824808768661e+01 
1 -2.740914480265e+01  -2.167860840422e+01   3.262374486845e+01 
1 -8.696375064728e+01  -1.682208715346e+01   7.098951872727e+01 
8
Step 21000
1 -7.327166240630e+00   4.626042200140e+01  -4.465776486438e+01 
1  4.130171628945e+01   2.023117862961e+01   7.228683122813e+01 
1  5.152573747998e+00   1.307389643803e+01  -1.338316821971e+00 
1 -6.536411260504e+01  -2.546965498450e+01   4.504194031620e+01 
1 -5.218189229848e+01   6.955588436415e+01  -7.483059012788e+00 
1 -1.929301183652e+01  -2.369143188848e+01   9.635542845074e+00 
1  1.147141276718e+01  -3.067949240897e+00   6.232469093184e-01 
1 -6.157874693404e+01   8.012717696268e+00   3.476970942391e+01 
8
Step 22000
1 -4.217930534921e+00   4.326605763029e+01  -2.502408756352e+01 
1 -3.968047806851e+01   1.523870878274e+01   6.736108440572e-01 
1  7.032891143953e+01   2.110451344360e+01   6.441258191012e+00 
1 -3.756824993848e+01   1.919175449851e+01   3.128898731610e+00 
1  4.167281155545e+01   6.577754015605e+01  -5.809600634910e+01 
1  4.226335812534e+01  -1.350181893889e+01   1.236736552823e+01 
1  1.433157372210e+01  -2.584859734722e+01   4.853307258392e+01 
1 -9.882122878764e+00   5.253222146916e+00  -3.844619687870e+01 
8
Step 23000
1 -2.147279074858e+01   3.725429038542e+01  -1.298208742164e+01 
1 -4.124758673045e+01  -2.585913176579e+01  -6.549104312774e+00 
1  3.785058084634e+01  -3.682656822579e+01  -2.327726603594e-01 
1 -7.703852096715e+01  -2.538550775130e+00  -4.715780604283e+01 
1  1.551830440288e+01   5.273656157664e+01   9.730333855001e+00 
1 -6.005432152577e+01   5.004992357334e+01  -1.202779307891e-01 
1 -1.623206640550e+01   1.166609157012e+01   3.579590694881e+01 
1 -1.917036464315e+01  -9.350337093303e+00  -1.837105212884e+01 
8
Step 24000
1 -2.460037438691e+01  -2.454621624785e+01  -3.710982755399e+01 
1  2.185221116120e+01  -3.402452075333e+00  -4.579228672876e+01 
1 -1.827796765143e+00  -8.548722059854e+01  -5.752210041282e+01 
1 -2.927035484999e+01  -4.786909795606e+01  -2.826763297184e+01 
1 -2.463874715995e+01   2.702503155339e+01   5.808576620309e+01 
1 -1.970718383918e+01   9.139808245583e+01  -4.341549580088e+01 
1 -2.865063259757e+01   8.801320345648e+01   2.272018081373e+00 
1  2.953945399552e+00   1.034799438593e+01  -9.783809029513e+00 
8
Step 25000
1  1.348679758558e+00   2.417379739640e+00   4.811501474755e+01 
1  1.601045826075e+01   5.284616239724e+01  -2.312976679567e+01 
1 -9.161758642070e+00   4.363999909203e+01   4.162907629294e+00 
1  6.099132307800e+01   1.895283887721e+01   3.307195263255e+01 
1  9.868154935427e-01   4.748805073375e+01  -1.965022156673e+01 
1  7.026121519601e+01   3.600642777951e+01   1.317534609011e+01 
1 -1.146078118862e+01   8.878796934738e+00  -1.698583306474e+01 
1 -3.851354367989e+00   1.550336552410e+01   2.547074842048e+01 
8
Step 26000
1  1.143130948681e+01   1.601886708368e+01  -1.758504675303e+00 
1 -2.248127589592e+01   3.674747155131e+01  -3.992257767834e+01 
1 -3.311284498336e+01   4.554496012645e+01   1.498020754247e+01 
1  1.827453989815e+01  -1.317179069191e+01  -1.264582014005e+01 
1  2.055788228849e+01   4.397408817357e+01  -3.322539876244e+01 
1  3.316664451419e+01   2.278697030707e+01   4.181469320497e+01 
1  2.398870790054e+01  -2.166534961504e+01  -1.319877285999e+01 
1  1.340204123368e+01   4.722037695162e+01  -2.200082270525e+01 
8
Step 27000
1 -1.354534345039e+01  -2.984149940439e-01  -1.758350878230e+01 
1  6.478108868890e+00  -1.941719603540e+01   4.418359575152e+00 
1 -6.470463275960e+00  -3.144184395662e+01   2.752034626711e+00 
1 -2.528833029596e+01   2.479048009569e+00  -3.552629165715e+01 
1  1.432117374030e+01   4.051853206474e+01   1.501484356783e+01 
1 -5.026817225995e+01   6.970750424679e-01  -2.884140326393e+01 
1  2.285256990088e+01   2.958220422616e+01   5.294220294780e+01 
1 -5.449693647063e+00  -1.200132037944e+01   6.950103833710e+00 
8
Step 28000
1  2.520730380808e+01   8.546789726047e+00  -3.616951217759e+01 
1  1.702467941440e+01  -2.571965174724e+01   4.176894369176e+01 
1  2.374552629602e+01  -9.195772707894e+01  -2.913730213013e-01 
1 -1.283272942922e+01  -9.183850255020e+00   5.629685201194e+01 
1 -1.602916707145e+01   1.691311574620e+01   3.184958960159e+01 
1 -5.658171890215e+01  -1.315243044577e+01  -3.676016970744e+01 
1  1.638939803394e+01   9.490141356056e+01   4.032273397633e+01 
1  4.954068181699e-01   5.523277469977e+01   1.561379076909e+00 
8
Step 29000
1  3.205445203400e+01  -2.345895604009e+01   2.705172511641e+01 
1  2.247182387235e+01   5.546121826977e+01   3.424269804391e+01 
1  1.689731567127e+01   6.692313467252e+01  -1.063244594817e+00 
1  4.691868641358e+01  -1.114484549326e+01  -3.762085328990e+01 
1  3.427531125865e+01  -2.291159005296e+01  -1.058584620254e+01 
1  6.760225016657e+01   1.643355188504e+01  -2.403150236520e+01 
1 -1.406490287540e+01  -5.912828205567e+01   9.028895032771e+00 
1  8.362600045169e+01   6.157226816985e+01   4.885714352895e+01 
8
Step 30000
1 -4.900315745809e+01  -8.468491655985e+00   2.163202094623e+01 
1  8.052118918260e+00  -7.540252637826e+00  -9.161839129272e+00 
1 -4.377279890159e+01   1.295532159083e+01   5.704398868296e+01 
1  3.875970393600e+01  -3.253930471862e+00  -4.104238910135e+01 
1 -4.478735405437e+00   3.647185230960e+01  -1.800178354293e+01 
1  1.918722291720e+01   2.251470111863e+01   2.019299633132e+01 
1  9.755966530296e+00  -5.675458219518e+01  -1.692365927704e+01 
1  3.673569469182e+01   4.586432132591e+01  -2.420463074238e+01 
8
Step 31000
1  7.436214581455e+01  -4.828378973220e+01  -2.114857356793e+01 
1 -2.245283507997e+01  -3.409954245963e+01  -2.708514513088e+01 
1 -1.438406958518e+01  -1.532154585920e+01  -2.078538248800e+01 
1  4.707783728776e+01  -3.271305136168e+01  -1.928340543555e+01 
1  2.981163163057e+01   1.705803413937e+01  -2.401479668444e+01 
1 -2.760981349104e+01  -2.092130654576e+01   5.350755434832e+01 
1 -4.771569336232e+01   1.468652442263e+01  -3.551475140130e+01 
1  8.643216418981e+00   1.313737360986e+01  -4.110830443668e+01 
8
Step 32000
1  1.648923727707e+01   3.558031994784e+01   5.133652748130e+01 
1 -1.393607068261e+01  -4.976350149997e+01   4.130264349802e+01 
1  6.539310156459e+01   8.056424482929e+00  -3.168154009637e+01 
1  5.833765345163e+01  -1.688016037193e+01   2.438105512360e+01 
1  5.146697781140e+00  -3.071906807186e+01   4.190208260674e+01 
1 -2.882532214634e+01  -1.807853260782e+01   8.903572619473e+00 
1  5.313975642629e+00   4.718979887720e+01  -1.206283037927e+01 
1  5.679404784959e+00  -1.067436678725e+00  -2.277054796141e+00 
8
Step 33000
1  3.381563785833e+00  -7.045577450893e+00   5.633501695193e+01 
1  3.171304454286e+01  -5.489889207526e+00  -3.085239580535e+00 
1  4.118564878624e+01   6.119332690002e+01  -1.331311037068e+01 
1  3.115914889542e+01   8.884548691063e+00   2.802798454538e+00 
1  4.889510007343e+01   5.046606327708e+01   2.136406889870e+00 
1  4.060330421846e+01  -1.789739594505e+01  -6.039635113576e+01 
1  3.380409552761e+01  -8.194827547341e+01   2.618730840535e+01 
1 -1.707540413560e+01  -4.881625849236e+01   1.503017536215e+01 
8
Step 34000
1 -7.656901331816e+01  -5.196213427516e+01   5.815066604237e+01 
1 -1.082956532492e+01   6.535288892759e+01   1.001200794467e+01 
1 -7.126642503226e+00  -2.150430313250e+01   1.231265912874e+01 
1 -1.042582314164e+01  -2.794671514201e+00   1.495063150796e+01 
1 -7.530262075218e+00   6.588573767728e+01  -4.565571105178e+01 
1  5.564942597028e+01   3.338207400168e+01  -1.608045487390e+01 
1 -4.683289910109e+01  -7.710621669413e+01   4.609910886873e+00 
1 -3.675154014510e+01   2.413191265042e+01  -3.841365575451e+01 
8
Step 35000
1  1.782564465125e-01  -1.358525644535e+01  -5.508031974784e+01 
1  1.437072795855e+01  -2.625737833707e+01   1.693849377053e+01 
1  4.396576152865e+01  -1.563276879772e+01   1.674078171888e+01 
1  1.370287701845e+01   5.191835488359e+01   4.652805703640e+00 
1 -5.685999910696e+01  -3.163377257135e+00  -4.431952100824e+01 
1  9.131185830829e+00  -1.615417404901e+01   8.518476564856e+01 
1  1.463679937288e+01  -1.410205710771e+01   2.056086695492e+01 
1  2.997248950384e+00   1.342920414060e+01  -2.017614899729e+01 
8
Step 36000
1 -1.951312457888e+01   2.295672119692e+01  -2.285460748020e+01 
1 -9.109985602843e+00  -1.864055591732e+01   5.642487516308e+01 
1  3.766861477144e+01   6.013366286418e+01   1.740040195156e+01 
1 -5.883123180017e-02   3.258619891452e+01   1.742699457618e+01 
1 -2.237163946333e+01  -5.723706545760e+01   3.006144796416e+00 
1  3.278877681104e+01  -6.770685904814e+01   1.273203720957e+01 
1  6.754640598745e+01   2.285126261428e+01  -4.094045435263e+01 
1 -3.668297686433e+01  -1.028762034046e+01   9.109325751503e+01 
8
Step 37000
1 -4.373624008729e+01   4.474652223548e+01   1.228142818299e+01 
1 -5.724550596603e+01  -8.191305978591e+00   4.256408339084e+01 
1  5.971758345989e+01   6.217507091219e+01  -5.369795005885e+01 
1 -3.490856070290e+00   5.330356151131e+01   2.336631764290e+01 
1  4.484354659300e+00   7.623031151505e+00   3.118486331849e+01 
1 -4.432115857056e+01  -9.038336330657e+01  -5.823456815893e+01 
1  3.157950236395e+01   3.469700338647e+01  -4.050217395095e+01 
1  3.129710928519e+00  -3.904798913437e+01   2.746758946715e+01 
8
Step 38000
1 -1.706146334037e+00  -1.860914765543e+01   3.881326038202e+01 
1 -8.784973710685e+01  -5.487535372302e+01   4.598836843483e+00 
1 -3.389386244612e+01  -3.219303901158e+01  -3.575180383796e+01 
1 -3.368548885872e+00   1.546151921074e+01  -6.556280159606e+01 
1 -8.840609834780e+00  -9.761843599923e+00   4.951368630011e+00 
1  6.424444430698e+00  -1.260839463520e+00  -1.425510613450e+01 
1  3.070733208979e+01   2.375419137076e+01   3.543516881166e+01 
1  3.670974183573e+01  -3.700485793796e+01   5.257988160513e+00 
8
Step 39000
1  2.659411970083e+01  -5.032415481207e+01  -6.794288565632e+00 
1  3.895379559603e+01   7.989680109472e+01  -4.146283223908e+01 
1 -7.601592805597e+01  -4.660418281446e+01   1.712377374290e+01 
1  7.864867240204e+00  -3.126380493758e+01   1.704160389758e+01 
1 -8.368467818619e+01  -1.845605852638e+01   6.119826878190e+01 
1  3.945524804204e+01   1.469562180542e+01   1.006926346636e+02 
1  3.861075771634e+01  -5.465780577795e+01   9.273723889558e+01 
1  6.417834422576e+01   3.024844568984e+01  -3.547576206390e+01 
8
Step 40000
1 -1.050899625556e+01  -3.066701628261e+01  -2.740641906270e+01 
1  5.138820186744e+01   4.576967048736e+01  -4.230876161646e+00 
1 -1.520227190472e+01  -2.816632156441e+01   1.536886800983e+01 
1  6.670988484267e+01   8.183594591883e+00   8.384840355942e+01 
1 -2.256334331250e+01  -2.824239443941e+01  -6.682053964589e+01 
1  2.394026374264e+01  -3.346307079287e+01   2.629882366784e+01 
1 -9.655885611298e+00  -5.016541569272e+00  -5.863181780001e+00 
1  1.488352262578e+01   2.902952230090e+01   4.475123439874e+01 
8
Step 41000
1 -9.608196158658e+00   1.755291450950e+01   2.003996883727e+01 
1 -7.008421270598e+00  -1.283069719938e+01   4.357892939057e+01 
1  5.233614827059e+00   3.190763971935e+01  -3.773340249763e+01 
1 -7.007625837005e+01   2.341020946050e+01   3.993271382595e+01 
1  3.150288703603e+00  -2.261940419395e+01  -2.928511834924e+01 
1 -1.814760282188e+01  -1.859286815585e+01   1.411361731195e+01 
1 -2.757428564400e+00  -3.623681130654e+00  -6.386082494877e+01 
1  4.156726516483e+01  -8.542031468387e+00   6.361033598261e+01 
8
Step 42000
1 -6.769805078766e+00  -1.097192984614e+01   9.864547452289e-01 
1 -1.371988104002e+01  -5.712365201252e+01   1.587432563302e+01 
1  6.509672922977e+01  -4.021567788696e+01   8.359931778247e+00 
1  9.024575743381e+00  -2.473449684435e+01  -7.507845329729e+01 
1  2.982162476792e+01   3.455167867769e+00   1.469811046581e+01 
1 -4.655881755053e+01   9.027539701810e+00  -4.555415367406e+01 
1  3.589859607755e+01   3.086443461536e+01  -1.097252360024e+01 
1 -2.350183528823e+00  -4.355878601276e+01   1.585558615774e+01 
8
Step 43000
1  1.208458893427e+01   3.136656626873e+00  -5.032090761393e-01 
1 -6.765102937856e-01   2.363992490818e+01  -1.888969156354e+01 
1  1.078286590881e+01   5.275749580551e+00   8.289176386786e+01 
1  2.482858172733e+01  -9.086773087440e+00   2.219022639736e+01 
1  1.472905639667e+01   2.790338574683e+01   7.438926343859e+01 
1  2.024073800326e+00  -4.351881177518e+01  -1.254626740629e+01 
1  1.570997977585e+01   6.951660331028e+00   4.498840492940e+01 
1  2.777496146168e+01  -2.205561914603e+01  -2.628231671339e+00 
8
Step 44000
1 -8.428393846985e+01  -2.529463647670e+01  -6.252718970208e+01 
1  4.245203127146e+01   5.701015298587e+01  -2.556690125822e+01 
1 -2.720665669449e+01  -3.404448497084e+01   3.378061949609e+01 
1  9.632048437662e+01  -2.848098370868e+01   1.165927540651e+00 
1  7.751539794699e+01  -5.868645601017e+00   1.984172365783e+01 
1  3.703726844175e+01   1.557418991948e+01  -7.248169403834e+00 
1 -3.027453493558e+01  -1.902707797274e+00   2.978928116909e+00 
1 -3.226314010032e+01   3.268270502927e+01   7.335123459753e+00 
8
Step 45000
1 -3.663885343797e+01  -4.662300779228e+01   2.455570990677e+01 
1  3.237806822189e+01   7.422988425125e+01   2.243773708905e+01 
1 -2.407763933208e+01  -7.995859735283e+01  -1.022868503423e+01 
1  2.387335910287e+01  -8.744989314127e+00  -1.372140655033e+00 
1  1.535945430568e+01  -2.776779072936e+01  -2.888036154116e+01 
1  5.590205176065e+00   3.622566277198e+01   1.711604474228e+01 
1  8.630902913652e+00  -2.690395672688e+01  -2.140826998975e+01 
1  2.948297522788e+01  -4.362443682080e+00  -7.440621917670e+00 
8
Step 46000
1  6.368057942113e+01   2.612909720384e+01  -3.078298770269e+00 
1  3.047095468738e+01  -4.415601498666e+01   2.918026078249e+00 
1  2.782505077793e+01  -2.857335440234e+01  -3.986031769268e+01 
1  5.194068611252e+01  -5.778860296147e+01   2.919303697288e+01 
1  2.187647960225e+01  -1.095956975694e+00   3.552563522518e+01 
1  2.600403950788e+01  -3.269151140840e+01   3.288304103732e+01 
1 -2.559691592062e+00   3.750044995477e+01  -1.304221718702e+01 
1  3.483700178704e+01   7.926329367552e+00  -6.630546299474e+01 
8
Step 47000
1 -2.440770010239e+01   2.290771056314e+01  -2.841748018137e+01 
1  3.237027058133e+01  -4.166543363125e+01  -1.142213282025e+01 
1  6.713693659657e+01   1.497435310307e+01   1.903255317380e+01 
1 -7.704570869607e+00  -8.443276855780e+01   4.441635009032e+01 
1  1.467579600966e+01   2.374242463693e+01   3.447387137523e+01 
1  2.192655025981e+01  -3.141762477901e+01   1.380975884574e+01 
1 -1.487210400924e+01   5.211662510812e+01   3.354389655536e+01 
1  6.692879718638e-01   1.761917861727e+01   6.707208307795e+00 
8
Step 48000
1 -5.053099385710e+01  -9.428329968763e+00   1.974089533398e+01 
1  2.536628379905e+01   3.090641420398e+01  -6.039546502665e+01 
1  4.145009987478e+01   5.907609624493e+00   2.985314285096e+01 
1 -2.789919895181e+01  -3.832378844316e+01   3.487111924094e+01 
1  5.424114134493e+01  -3.893527399436e+00  -4.463578092163e+00 
1  4.911076125510e+01   5.717311722959e+01   4.070624150261e+00 
1  1.881231465764e+01  -1.078757555493e+00   1.550290255240e+01 
1  8.925830363934e+00   7.202712432481e+01  -2.051370700688e+01 
8
Step 49000
1  2.640342713480e+01  -2.524853190294e+01   4.042941731329e+01 
1  2.479902429964e+01  -2.380416595291e+01  -4.283202755683e+01 
1 -2.484251450541e+01  -4.628579552522e+01  -9.391809764486e+00 
1 -2.999370201844e+01  -1.560874453210e+01  -4.603175461149e+01 
1  1.194493287848e+01  -3.920052333059e+01  -8.713108067908e+01 
1 -3.809903696917e+01   2.566359819008e+01   1.061755290053e+01 
1  2.807154778346e+01   1.472534388251e+01   1.625389161655e+01 
1  3.145614463994e+01   5.588103263987e+01  -5.967442021427e+01 
8
Step 50000
1  3.633337843676e+01   8.739422013490e+00   8.254082416942e+00 
1 -1.884294073956e+01  -2.619152499293e+01  -2.694061258684e+01 
1 -3.143010834376e+01  -1.310119309740e+01  -1.238703454439e+01 
1  4.048955568020e+01  -1.499543373755e+00  -4.608234402021e+01 
1  4.151161655067e+00   5.597076885927e+00   5.152416864403e+01 
1  1.202234077814e+01  -1.244602359741e+01   5.017653414919e+01 
1  4.700166056238e+01   2.823617338820e+01   3.064646412870e+01 
1  3.918387722472e+01   4.818837129207e+01  -7.910678016067e+00 
8
Step 51000
1  4.778546864496e+00   4.836761997985e+01  -2.357363141221e+01 
1 -3.372849607671e+01   3.839201373971e+01  -1.311772846752e+01 
1 -2.154064970033e+01  -3.358818864907e+01  -6.341449599611e+01 
1 -1.605449358412e-01  -3.342640302131e+01  -1.719925496207e+01 
1 -4.285428131283e+00  -1.662097162339e+01   1.727329261674e+00 
1  5.125578887656e-01   8.564949050593e+00  -3.607920057557e+01 
1  2.499038707301e-01   3.844986188694e+01   9.528643940852e-01 
1  4.174225693369e+01  -1.762983249429e+01   1.194019241884e+01 
8
Step 52000
1 -4.468454219032e+01   2.755134776048e+01  -8.794738908104e+00 
1 -4.673041249042e+01   5.472725154397e+00  -1.023768853707e+01 
1 -5.353987189787e+01  -1.130953118080e+01  -4.390357127482e+01 
1 -2.654483526754e+01  -3.545043924861e+01   7.616053884922e+00 
1  8.703968070160e+01   3.451553257519e+01  -4.160639606117e+01 
1  1.043763959996e+01   4.740538959087e+01  -4.827841366588e+01 
1 -1.806048112875e+01   1.301820346634e+01  -1.361607822561e+00 
1  4.495195359797e+01   1.761929294147e+01   8.210990771648e+01 
8
Step 53000
1  5.841852626862e+01  -6.780599528282e+00   4.793132710283e+01 
1 -3.292289976728e+00  -2.702318339179e+01  -3.393941542051e+01 
1  1.143354091654e-01  -1.375169939602e+01   1.442171077779e+01 
1 -2.294638666228e+01  -4.361966278812e+01  -4.840567573106e+01 
1  4.606998079364e+01   3.771586489620e+01  -6.303238915999e+01 
1  9.223394423523e+00  -2.203191519945e+01  -3.934997753338e+01 
1  4.657563741351e+01  -5.643739526245e+01  -1.142860782894e+01 
1  3.064358384846e+01   5.329266806288e+01   1.248802546514e+01 
8
Step 54000
1 -2.317133345005e+01  -1.766092643956e+01   5.064360677108e+01 
1 -1.437579059666e+01  -4.184807842605e+01  -6.232317070628e+01 
1  1.687184089905e+01  -2.010559308059e-01   1.444629468708e+01 
1  2.102478341455e+01   3.437037155909e+01  -3.708977365567e+01 
1 -1.189367640030e+01  -1.673027174005e+01   2.440677580311e+01 
1  3.465323720288e+01  -4.776681519464e+01   2.896971065737e+01 
1  2.120615395145e+01   4.794879637754e+00   4.198831582520e+01 
1 -5.166436496167e+01   3.147721810235e+01  -2.451294682981e+01 
8
Step 55000
1 -5.096662734942e+01   3.230348987819e+01  -1.958295090421e+01 
1 -3.315611781156e+00   4.466321667824e+00  -7.063759009627e+01 
1  1.152775674785e+01  -2.904833410306e+01  -8.784633756190e+00 
1  4.432562455230e+01   7.048463205146e+01   1.412116446703e+01 
1 -4.634688409434e+01  -1.478327328557e+01  -2.068615780560e+01 
1  7.308307456603e+01  -1.657930664404e+01  -3.382643114270e+01 
1  2.380486449260e+01   1.329293842300e+01  -6.066383916045e+01 
1 -5.028497972504e+00   2.141685384226e+01   1.227632090512e+01 
8
Step 56000
1 -5.540245987348e+01  -2.820631089959e+01  -3.206338816581e+01 
1 -1.284647345381e+01   1.018720747442e+01   2.500773099183e+01 