8
Step 0
1 4.02573418348032419e+00 7.25924814801329035e+01 -7.37016840553729082e+01
1 6.74178258713448031e+00 -6.62212382901105627e+01 7.29755721256853462e+01
1 1.18275084079295254e+02 -1.33727210584591177e+02 1.21898659695395679e+02
1 1.12983988585053169e+02 -8.74705266328554671e+01 -6.29599970029564844e+01
1 1.07032580602187579e+02 -9.85409922385121604e+01 1.06768343259554399e+02
1 -9.23227384961577116e+01 1.46317214693880771e+02 6.64975713889727160e+01
1 7.52478357784244452e+01 -1.41212856387992275e+02 -1.10749764006389398e+02
1 -1.38566548014815197e+02 -2.68576852312545071e+01 -2.37939378072723002e+01
8
Step 1000
1 2.30111171266394514e+01 6.86451523167840350e+01 -2.73513409729615198e+01
1 2.68982504436999044e+01 -7.40592321666842821e+01 6.35560768935051783e+01
1 1.05968362152145048e+02 -9.02904415598340648e+01 1.27349123184023185e+02
1 1.04474256011042868e+02 -9.22012767636166188e+01 -3.01694116152656377e+01
1 5.41886406059044674e+01 -6.02884867677085197e+01 8.29456819359778166e+01
1 -3.30623487033454566e+01 1.64999612135322394e+02 5.22103544304906730e+00
1 7.29742833043586927e+01 -9.20557121271228169e+01 -1.18918820835587240e+02
1 -9.94752247871765718e+01 6.46617360795851948e+00 -2.70372596660533766e+01
8
Step 2000
1 2.20674118922413989e+01 5.15420519913105650e+01 3.50660520562509106e+01
1 2.95114836020608386e+01 -4.23984901178493985e+01 3.50654039969027309e+01
1 5.91165137646316694e+01 -5.49231341956856589e+00 9.62551892476573556e+01
1 5.24887664124013043e+01 -6.30738298912167750e+01 1.88742481036053533e+01
1 -2.21067443532862384e+01 1.08172579960826560e+01 5.04852984630337360e+01
1 3.70122054530241584e+01 1.13470680102339117e+02 -6.36086065808931096e+01
1 5.58305674742085998e+01 -3.85924270059608565e+00 -8.79983269620733495e+01
1 -1.80394548324717654e+01 2.90879752432449052e+01 -3.21085459558686921e+01
8
Step 3000
1 5.13195620734659919e+00 2.19642370029788019e+01 8.86708428238992070e+01
1 2.03166905203844728e+01 1.05343994546533573e+01 -1.08737592839209398e+01
1 -7.81605477764635292e+00 7.79297785622255077e+01 3.84685875338307781e+01
1 -2.03712769639615487e+01 -8.43356874827035519e+00 7.40153671883345083e+01
1 -8.78392836842804741e+01 8.48203394756563398e+01 1.69744148679399203e+01
1 9.12337777550696813e+01 1.78629282374410394e+01 -1.08655588687441309e+02
1 3.03060319957237603e+01 8.80010305739455134e+01 -2.95094533108752834e+01
1 6.73578316774745645e+01 2.38690509512198723e+01 -3.38672987969274502e+01
8
Step 4000
1 -1.64341956004104119e+01 -1.59810746250858280e+01 1.08989179470187963e+02
1 1.26545093437989298e+01 5.56386259195338013e+01 -6.44479524961399903e+01
1 -6.96558419062743184e+01 1.17422872470657026e+02 -2.72670415151027896e+01
1 -8.08079194350555809e+01 4.96346623932643212e+01 1.15311306068605063e+02
1 -1.14661459765839709e+02 1.28264271546420503e+02 -1.52369060982809206e+01
1 1.10314078504248542e+02 -7.11588621134537789e+01 -1.07454916487337712e+02
1 4.32327584870378434e+00 1.44712076184318022e+02 3.16066294874972229e+01
1 1.17739234289879121e+02 -8.22962713714323435e+00 -2.68231217885601936e+01
8
Step 5000
1 -2.53926985076503122e+01 -5.21598905365369419e+01 8.23665283436354230e+01
1 1.42067873939291172e+01 6.72543699817219505e+01 -1.06482736110044144e+02
1 -1.07130184924583503e+02 9.99862404156098563e+01 -8.02363154461526022e+01
1 -1.04518555672934170e+02 8.82121887623002010e+01 1.25953822565126231e+02
1 -9.54004100298399749e+01 1.22982586700241171e+02 -4.55469056358752056e+01
1 9.15779276723583422e+01 -1.15802499213391670e+02 -6.48881235963535232e+01
1 -1.68366332403498156e+01 1.46907322161702439e+02 7.23234710499272211e+01
1 1.12828998280558210e+02 -4.90512956256143724e+01 -8.40447065740903554e+00
8
Step 6000
1 -1.16691671121957938e+01 -7.49357771640601271e+01 1.79941669255561010e+01
1 2.21936540927608235e+01 3.87330247672587404e+01 -1.20939261236562587e+02
1 -1.13371590997013158e+02 4.10438092868768507e+01 -1.06982366433328707e+02
1 -8.73362568204532721e+01 9.44265549663999337e+01 1.00537778705562872e+02
1 -4.34729958396457121e+01 7.10420068118297934e+01 -7.03899899144873871e+01
1 4.72497648078192611e+01 -1.04063961167425106e+02 -3.26599898868823857e+00
1 -3.18014613578722063e+01 1.00239959051977237e+02 8.21108312743639885e+01
1 5.77855945377439681e+01 -7.37236153545137114e+01 1.96620712221334344e+01
8
Step 7000
1 1.82600315418417729e+01 -7.72955293532052963e+01 -5.59273720100700160e+01
1 2.80513891538375546e+01 -1.45394447560585878e+01 -9.86317663231617416e+01
1 -9.03896346875318386e+01 -2.87913923805362728e+01 -1.03035544969794117e+02
1 -4.21139894831613262e+01 6.83223175214517795e+01 4.58315251337924536e+01
1 1.47105550797988407e+01 -5.64075244080286087e+00 -8.26463807385266875e+01
1 -5.20379577417386585e+00 -4.84443571208452397e+01 5.15364920286700681e+01
1 -4.08745044530435422e+01 2.84841068648349776e+01 6.38259320699452033e+01
1 -2.02824737662399173e+01 -6.44966390833377261e+01 5.06971947325152641e+01
8
Step 8000
1 4.68757642306394828e+01 -5.83338646820172357e+01 -1.07834516721437893e+02
1 2.14185746948588012e+01 -6.58556476615101047e+01 -3.76827927575600157e+01
1 -4.67421766742685421e+01 -7.67259225480192271e+01 -7.09862430463330440e+01
1 8.69602867776348631e+00 2.23441882822628131e+01 -1.95273910176181005e+01
1 5.37186344230508084e+01 -7.42927016884881368e+01 -7.55314990327498492e+01
1 -4.97328240463375835e+01 2.01669870023656337e+01 7.82117922784910036e+01
1 -4.41502742233222065e+01 -3.77483351236695341e+01 3.08212858241553995e+01
1 -8.48863807917532398e+01 -2.23005774748497601e+01 7.33681148595249653e+01
8
Step 9000
1 5.82983687454762602e+01 -2.38646151239936515e+01 -1.16409447539810614e+02
1 -3.33696670093883707e+00 -9.11308953516918763e+01 4.74928672396813170e+01
1 4.48191404818499972e+00 -8.35450482871252120e+01 -2.01666288688642297e+01
1 4.33127148790850640e+01 -2.32550644486771887e+01 -7.22529151156781921e+01
1 6.23098322394286441e+01 -1.09369126260493459e+02 -4.79377687497043539e+01
1 -7.47004510372137105e+01 7.06204839618878566e+01 7.00670964124622344e+01
1 -4.11738465105627682e+01 -7.56207804465608291e+01 -8.30439220158520480e-02
1 -1.09234250652355556e+02 3.31322397685313135e+01 7.68546750227264255e+01
8
Step 10000
1 4.40559111718122480e+01 1.33298462734454883e+01 -7.64062271831318611e+01
1 -3.89654073414667366e+01 -7.75201555542626153e+01 1.24670513575718829e+02
1 5.01027607362875358e+01 -5.02663329932890903e+01 3.51514432390972331e+01
1 5.22628764562273460e+01 -5.11899137434688214e+01 -9.70960242148155857e+01
1 4.49774777215061619e+01 -1.01744329796258725e+02 -5.87564539246815531e+00
1 -7.50010664768060877e+01 8.39199775873485549e+01 3.52548556226995728e+01
1 -3.14197040607940608e+01 -7.86178814578941285e+01 -1.72281202000925298e+01
1 -8.84959519203130611e+01 7.56723662385002740e+01 5.71403053962561884e+01
8
Step 11000
1 6.43908815717864336e+00 3.95285095452796540e+01 -3.76710837780272501e+00
1 -6.76578833960657704e+01 -2.97730520886749304e+01 1.62293240671055429e+02
1 7.98091281648508044e+01 4.84738088320872862e+00 7.89134584279671003e+01
1 4.01859564383803018e+01 -5.47629335895703804e+01 -9.19137120054381711e+01
1 1.58115884722036046e+01 -5.79074314722632764e+01 3.87848192874458135e+01
1 -5.20733946542944324e+01 5.68087575478585762e+01 -9.35875260982738588e+00
1 -1.45917670130904149e+01 -5.43529461474952100e+01 -1.82293915673077933e+01
1 -3.82658943747581120e+01 8.72641256887951187e+01 1.90188711319088455e+01
8
Step 12000
1 -3.86471001768320548e+01 4.71845557090837602e+01 6.91160095970853519e+01
1 -7.27288891877403074e+01 3.04237184057859160e+01 1.44167500625417517e+02
1 8.76028416963152239e+01 5.63455127569572696e+01 9.76302407871977493e+01
1 1.87393328287824552e+01 -3.76589472689694418e+01 -6.40629454176497717e+01
1 -9.37257927752166253e+00 3.07077538941988282e+00 7.11724185557185507e+01
1 -1.28419647444940352e+01 4.00437715461213628e+00 -4.35391199019188733e+01
1 8.31040651960151422e+00 -1.82178829333174939e+01 -8.64628028662736092e+00
1 1.61227557041931391e+01 6.61118568789005678e+01 -2.59729284620464362e+01
8
Step 13000
1 -6.98952035937038829e+01 3.79863507160045231e+01 1.11788217550027554e+02
1 -4.61979524487928899e+01 7.66298244140284197e+01 7.20054001363060934e+01
1 7.21126374387153390e+01 8.22819018204086490e+01 8.51375254243819626e+01
1 -1.40031745709318839e-01 -1.01308234689725225e+01 -2.52946815434119117e+01
1 -2.04230058389784404e+01 5.71477127012145729e+01 7.92834997021441126e+01
1 3.02317352106437589e+01 -4.83820015183628200e+01 -5.29303732847045865e+01
1 3.36305622576945353e+01 1.35651302442297457e+01 2.00843483417488677e+00
1 5.36998825504976267e+01 2.50396010826601199e+01 -6.32662218212940175e+01
8
Step 14000
1 -7.39222785853154249e+01 1.99393255464153825e+01 1.09347454194363792e+02
1 4.92736511233052532e+00 9.11812930602289384e+01 -2.98303187005498636e+01
1 3.76554939440036875e+01 7.16208760251157912e+01 4.49453355081295598e+01
1 -8.58494439139136922e+00 1.54855796752230859e+01 1.29097507054818390e+01
1 -1.67238969805652822e+01 8.54247312162456183e+01 5.94996919949738796e+01
1 6.29612059378516449e+01 -7.66060935964989795e+01 -3.71956546941834745e+01
1 5.48135642703997803e+01 3.00838542279570937e+01 5.09350842886188904e+00
1 6.60658768850278335e+01 -1.82333833801025911e+01 -8.06070308749026765e+01
8
Step 15000
1 -5.00999851658347453e+01 4.34560869294601027e+00 6.40183311613241415e+01
1 5.73242276682323819e+01 7.13307676994948565e+01 -1.18185839072810182e+02
1 -5.91389534162651476e+00 2.86311228951373558e+01 -1.02758903481243316e+01
1 -5.20565912719824020e+00 2.89978333466134863e+01 4.25470538406375098e+01
1 -6.29115293107529272e+00 8.00316487459128751e+01 1.83603697088428142e+01
1 7.53422733581343067e+01 -6.84895562979600356e+01 -7.84090897650761587e+00
1 6.41275469653030115e+01 2.88264100566951420e+01 -3.24617761750371292e+00
1 5.55584130256065052e+01 -4.97009272846374799e+01 -7.10859441658374607e+01
8
Step 16000
1 -9.07865222476459088e+00 2.61893306911546109e-01 -4.68366938030120927e+00
1 8.57385624145665162e+01 2.98976879556084469e+01 -1.57304447558850939e+02
1 -4.51221603367784425e+01 -2.68702729655896064e+01 -6.14242100840593679e+01
1 5.03972184623675012e+00 2.54153400484987735e+01 5.95677400099089382e+01
1 -7.94907100885994145e-01 4.66362749549635609e+01 -2.87471460520228170e+01
1 6.33615508993847172e+01 -2.83271128836904715e+01 1.85067877079540644e+01
1 5.53244361238460769e+01 1.52919748042558812e+01 -2.03435992265090668e+01
1 3.00421235204530994e+01 -6.19183354000556321e+01 -3.45043683448690928e+01
8
Step 17000
1 3.12855589558355582e+01 8.18876658768662935e+00 -6.72200717328013582e+01
1 7.82737548167787907e+01 -1.19385714755609360e+01 -1.37246068043619687e+02
1 -6.87778128792953822e+01 -7.09611915964329683e+01 -9.02750948801889024e+01
1 1.39959225537816501e+01 7.02378556685390265e+00 6.30167785095777475e+01
1 -6.81670493088306273e+00 2.37241236705386349e+00 -6.28676747627142021e+01
1 3.00591943082073989e+01 2.41627026788122130e+01 2.69999921054592349e+01
1 2.67547760479422223e+01 -2.42215932229890241e-01 -3.80097844051889311e+01
1 -2.65019120958396914e-01 -5.45475375715639714e+01 2.09107827636784798e+01
8
Step 18000
1 5.52590579818576231e+01 1.93383804643218049e+01 -9.96710485711851675e+01
1 3.91986315815454205e+01 -3.69024582534663637e+01 -7.19911329197366427e+01
1 -7.18104112061530770e+01 -8.77207850970284824e+01 -8.72466546842934036e+01
1 1.45514339679631171e+01 -1.71684896151496034e+01 5.41184599297718094e+01
1 -2.12413525513383341e+01 -3.34328983697342110e+01 -7.02349080144799842e+01
1 -1.31515805081297223e+01 6.45931580955221420e+01 1.31261826368461545e+01
1 -1.58712420495183686e+01 -7.90028108867078593e+00 -4.56665167376474841e+01
1 -2.61951615162431253e+01 -3.35081398054231840e+01 7.76549636704493338e+01
8
Step 19000
1 5.67966978787443324e+01 2.15685991396463059e+01 -9.26249753146024517e+01
1 -1.21284888356992369e+01 -4.07389834612625563e+01 7.41046630728952316e+00
1 -5.48402537092656388e+01 -7.13139230562442776e+01 -5.43281760158071592e+01
1 3.42861652876626488e+00 -3.50652362221819587e+01 3.53129153698527176e+01
1 -3.37413017951050307e+01 -4.89569752667926466e+01 -4.86994951234388509e+01
1 -5.05820909690009657e+01 7.57921251623909171e+01 -1.35047762590919351e+01
1 -5.94947912156646268e+01 -3.39971655944683926e+00 -3.48138098422236126e+01
1 -4.27781904826027670e+01 -7.59439980271914283e+00 1.13316980382020603e+02
8
Step 20000
1 4.05013283482725157e+01 4.84809207629394034e+00 -5.11738795431118376e+01
1 -5.06262434947002262e+01 -3.03994377872559838e+01 6.74117402701870390e+01
1 -2.40706517448666055e+01 -2.68897143189284584e+01 -3.84844125300247031e+00
1 -1.71937427262392752e+01 -3.63424333247189182e+01 9.43297518533564450e+00
1 -3.31562294170902305e+01 -4.21207402543039535e+01 -8.09098353012655913e+00
1 -6.92932292024928387e+01 5.30177964901889496e+01 -3.54889176791333369e+01
1 -8.78309120836613602e+01 1.01599839937988374e+01 -3.67854243168960604e+00
1 -4.87411765699077861e+01 1.55829622648372581e+01 1.10265701328596137e+02
8
Step 21000
1 1.72631878111884554e+01 -3.16872441735775858e+01 6.54979800306345616e+00
1 -6.13634590308663661e+01 -1.59240252298133278e+01 8.98536826822823400e+01
1 8.92836475979957278e+00 2.75276569121985801e+01 4.52740504849125145e+01
1 -3.94481578813868907e+01 -1.71535424797359006e+01 -1.99862464175530938e+01
1 -1.34514807966244607e+01 -1.99591928296791394e+01 3.33941731231721377e+01
1 -6.27465976910054692e+01 7.29104832104632550e+00 -3.72000284396084879e+01
1 -8.80031144364717477e+01 2.35901100314708785e+01 4.03974446481121916e+01
1 -4.41021023526940823e+01 3.17603095334094725e+01 6.45685297016065931e+01
8
Step 22000
1 -1.74849709240086471e+00 -7.50555246455397338e+01 5.66070379448795222e+01
1 -4.36974865219217037e+01 -6.08694274391119983e+00 7.46540275538766025e+01
1 3.32550748464759423e+01 7.13635175814551701e+01 7.51041195233550383e+01
1 -5.31050834560776508e+01 1.73034329600739021e+01 -4.76024308090906487e+01
1 2.03795292904570893e+01 3.82087961899290063e+00 5.66816461465460009e+01
1 -3.31825791427866221e+01 -3.93820636911995052e+01 -1.24434919178850052e+01
1 -5.63348321369021150e+01 2.61056997569357740e+01 8.24121502615442836e+01
1 -3.05028490953598634e+01 4.06899261031290322e+01 -1.06778928278813705e+01
8
Step 23000
1 -1.14419176772839020e+01 -1.03019343371656220e+02 8.06923448133592274e+01
1 -7.88250179148291164e+00 -4.84144849308950320e+00 3.50430895946918923e+01
1 4.39061830761119225e+01 9.14405241667824811e+01 7.57598263830979164e+01
1 -5.05626609578050648e+01 5.37252618089200880e+01 -6.72187677307939992e+01
1 5.35307337758443964e+01 1.71048003563574866e+01 5.10031743092604444e+01
1 7.70259342908654254e+00 -6.59841976503590644e+01 3.07002293339494123e+01
1 -1.81560883417144248e+00 1.16194839094341447e+01 1.04565655296106755e+02
1 -1.07577076293309108e+01 4.44141530019230686e+01 -8.76030315700596276e+01
8
Step 24000
1 -1.42471855168687682e+01 -9.49090935966116405e+01 7.24862521198915175e+01
1 2.77433518124284220e+01 -7.84882692497276224e+00 -8.19758364874198087e+00
1 4.11607477402742461e+01 8.19144870728369057e+01 4.87381681989471147e+01
1 -2.87601472014547319e+01 7.52294237007080397e+01 -7.37607039678322423e+01
1 6.94371387224089034e+01 1.53684899793875243e+01 1.89774843105281228e+01
1 4.29369013389375809e+01 -6.21877408638559075e+01 7.18828565218050102e+01
1 5.55910257100708165e+01 -1.62157748725174287e+01 9.29719082618378252e+01
1 1.23580819967446232e+01 4.40667365319684876e+01 -1.34719129020154213e+02
8
Step 25000
1 -1.66869200820505306e+01 -4.10992982985637738e+01 3.68998083500294740e+01
1 4.51009591532817851e+01 -7.20618067385775962e+00 -3.64091245224922133e+01
1 2.95506056707002429e+01 4.48653334355217197e+01 6.08722989723692187e+00
1 9.43866411233145719e+00 6.82639695645448228e+01 -6.38006625373991838e+01
1 5.82185448799820122e+01 1.63988300273047827e+00 -2.44097224493274219e+01
1 5.79786522572263578e+01 -3.11507931114743037e+01 8.84599008419041013e+01
1 9.26757053605812615e+01 -4.52361831020668035e+01 4.53490363908300864e+01
1 3.49163538960452158e+01 3.84207458858839885e+01 -1.32191604605316542e+02
8
Step 26000
1 -2.44748105138488725e+01 4.81410637471312768e+01 -1.12751931450452787e+01
1 3.64603407229018330e+01 1.03237832642560989e+00 -4.10293809885843643e+01
1 1.62348069325290894e+01 -7.23556967493469827e+00 -3.47324303618030825e+01
1 5.38613902204701915e+01 2.93531025736034721e+01 -3.66342025303913559e+01
1 2.18050000294648925e+01 -1.49959131261897447e+01 -5.77014518288476452e+01
1 4.67539161015166727e+01 1.15537549996468645e+01 6.70174343262966659e+01
1 9.36697277892633906e+01 -6.05982305944827147e+01 -2.59126134693324239e+01
1 5.08689003420481711e+01 2.46690234419554351e+01 -7.97295723048786726e+01
8
Step 27000
1 -3.74852024598486295e+01 1.40057977155266258e+02 -5.14554746949055470e+01
1 7.16132444344324881e+00 1.51337474969220711e+01 -2.42122252920102312e+01
1 6.44100866061933797e+00 -5.75471105865142434e+01 -5.83884607447192465e+01
1 8.90900627841351849e+01 -3.08324689461826438e+01 2.96921053333701179e+00
1 -2.54079310506614853e+01 -2.29485673944153312e+01 -6.24771455835184426e+01
1 1.42070075941716834e+01 4.51071446588699203e+01 1.02473653411043291e+01
1 5.81780313826637467e+01 -5.22023388072850736e+01 -9.70979760966023377e+01
1 5.40809038503400643e+01 8.11314688433080189e-01 2.52480431704151753e+00
8
Step 28000
1 -4.76308555833138456e+01 1.93364285916289788e+02 -6.79566459500123159e+01
1 -2.78251566769791729e+01 2.91640284378121244e+01 3.02685582706206002e+00
1 5.15708298176835722e-01 -9.17076096227569479e+01 -5.70974253725953389e+01
1 1.00862056085489925e+02 -8.97701843907493355e+01 4.50638603987361606e+01
1 -6.29799369431589966e+01 -1.48106217944036000e+01 -3.25362442865146519e+01
1 -2.47659407119020010e+01 5.38212489676312273e+01 -6.18456058813906893e+01
1 2.55678022040110298e+00 -2.06232456463062483e+01 -1.42183213984412760e+02
1 4.14605136439694562e+01 -3.07231915537648668e+01 8.03552070626859489e+01
8
Step 29000
1 -4.37937333826566331e+01 1.79298696039004369e+02 -5.69871271543165321e+01
1 -4.99261846107754792e+01 3.48274483095785214e+01 2.49762452932368291e+01
1 -4.78645872881686163e+00 -9.94338503852422235e+01 -3.34565203590862623e+01
1 8.15055635073332354e+01 -1.22382876272554896e+02 7.86762185617389491e+01
1 -7.39955589412957835e+01 8.46632767941055420e+00 2.13867803854941947e+01
1 -5.13480461081068995e+01 3.49766063795945854e+01 -1.19131645743738645e+02
1 -4.76399874528284712e+01 2.15259490854186843e+01 -1.43088953431496634e+02
1 1.53319192076327830e+01 -6.17863766121205202e+01 1.22107935921486771e+02
8
Step 30000
1 -1.89019027742580796e+01 9.35123350167299066e+01 -2.49106843623339174e+01
1 -4.55434273594433705e+01 2.65797538232836636e+01 2.95754607343404210e+01
1 -1.36108589977610102e+01 -7.63175800683796126e+01 6.04042567863057656e-01
1 3.27575193912447347e+01 -1.11852025884756060e+02 9.47834721011857368e+01
1 -5.34993020872306815e+01 3.69925989617776310e+01 7.45071056642765370e+01
1 -5.17594327387264386e+01 -8.36561048093182658e-01 -1.35112536211008091e+02
1 -7.04433930114335425e+01 5.55139433200142136e+01 -9.76779307922818418e+01
1 -1.65918932413152120e+01 -8.12427263201567627e+01 1.14001576859911935e+02
8
Step 31000
1 2.31343922574203766e+01 -3.47819086266955466e+01 1.37606986742186592e+01
1 -1.31638727020512896e+01 5.91173418315974786e+00 1.41345619948423469e+01
1 -2.75426135774603935e+01 -2.73592337986367902e+01 2.93609913739884654e+01
1 -3.30634790007249322e+01 -5.70134956303477551e+01 8.78577226268626106e+01
1 -1.23910366422895510e+01 5.53032743296862392e+01 9.93879637092434507e+01
1 -2.35743388252428865e+01 -3.50973442865708947e+01 -9.83724306472493311e+01
1 -5.70152451767605299e+01 6.64735896789927807e+01 -2.10376528383667285e+01
1 -4.37339895901624516e+01 -7.91261814466595155e+01 6.38785084732075887e+01
8
Step 32000
1 6.47284765306690417e+01 -1.48244241664917269e+02 4.11953775192060263e+01
1 3.36740181988531120e+01 -1.86931199975359803e+01 -1.45851302405229823e+01
1 -4.24981049477188009e+01 3.44568167978701396e+01 4.08371362041776109e+01
1 -9.42535789490678013e+01 2.37549055282483295e+01 5.83463614161091755e+01
1 2.78808923711169037e+01 5.01471814842541406e+01 7.97420382326107244e+01
1 2.22315905981447486e+01 -4.90680409544951956e+01 -1.80236168176326821e+01
1 -1.62042345818854372e+01 5.06591538142359639e+01 6.00329007869062465e+01
1 -5.60911573344293757e+01 -5.15125719999857949e+01 -3.66040933472993091e+00
8
Step 33000
1 8.58238145700276220e+01 -1.99680934218877297e+02 4.79570930583833643e+01
1 7.21345730928899371e+01 -3.56087405382253621e+01 -4.35045797329695532e+01
1 -5.03213378206925199e+01 9.18835749154692962e+01 3.18420983955873496e+01
1 -1.28027510078634265e+02 9.81947568007875304e+01 1.43284152219562522e+01
1 4.71431823373356025e+01 1.84312210570365558e+01 1.90500907945280424e+01
1 6.33952051129601983e+01 -3.36971598445435703e+01 7.56389381374611816e+01
1 2.85384618709189581e+01 1.71960425442022711e+01 1.18329674406789408e+02
1 -4.85407952725401088e+01 -4.52596576003510176e+00 -5.87202307081409174e+01
8
Step 34000
1 7.68203128758486002e+01 -1.77995101786303223e+02 3.60725741498171573e+01
1 8.14694802767640454e+01 -3.60899313108970858e+01 -5.77573065805577954e+01
1 -4.28774667671218666e+01 1.26374119892768377e+02 7.83234393546302154e+00
1 -1.22104500222236538e+02 1.37028844782177686e+02 -3.20229774487380112e+01
1 3.70787972151083736e+01 -2.88723855593223249e+01 -5.76664215881886761e+01
1 7.77584612389531031e+01 2.87430773912714077e+00 1.43762068885782639e+02
1 5.23362811491477231e+01 -1.71699025010047741e+01 1.37117847869610330e+02
1 -2.44170063934785908e+01 4.65841920453315765e+01 -8.00020992641817799e+01
8
Step 35000
1 4.11978581244931590e+01 -1.02998413604398550e+02 1.37814429250373607e+01
1 5.17898913187556929e+01 -1.95390704146125174e+01 -4.74593782238222843e+01
1 -1.45717429865922732e+01 1.22844697376274027e+02 -1.92947841779344031e+01
1 -7.89551051991492727e+01 1.26741342730726814e+02 -6.93741651791541472e+01
1 6.31786608943956729e+00 -7.02239694743306444e+01 -1.14568239394935645e+02
1 5.55010850573232162e+01 4.05197684457669780e+01 1.59307923178005922e+02
1 4.24681156682377434e+01 -3.72138430984892068e+01 1.14898773809065702e+02
1 5.58079373989585203e+00 8.37453842702254292e+01 -6.43290781413909087e+01
8
Step 36000
1 -5.94901363261944649e+00 -1.36711023857399834e+01 -8.02047419264315131e+00
1 -1.03181769959670770e+01 4.53464771230767916e+00 -1.37447170989182013e+01
1 3.26014554451984466e+01 7.67962528138723570e+01 -3.43339718182912250e+01
1 -1.37094395175774633e+01 7.31945018586218197e+01 -8.97043452758475155e+01
1 -2.41037290720378223e+01 -8.50905197484292444e+01 -1.25683378761998810e+02
1 1.94228377568912891e+00 5.81286991628713992e+01 1.17507606575124811e+02
1 3.29466413657723756e+00 -3.62445247295777051e+01 6.37231283377292073e+01
1 2.92070662746476195e+01 9.39267536027277430e+01 -2.69081278488630851e+01
8
Step 37000
1 -4.48822421097926565e+01 5.30959751772510273e+01 -2.18292636360848107e+01
1 -7.99895961243998102e+01 2.24257837715813899e+01 3.18079461472885328e+01
1 8.28018359735589229e+01 -1.82518500427215735e+00 -2.69353921797182849e+01
1 5.02228362765461469e+01 2.08009665725585019e-01 -8.94166903618163644e+01
1 -3.36189731409166654e+01 -6.42697236718307465e+01 -8.69585367077357887e+01
1 -6.20801161094166218e+01 4.27835279339006149e+01 3.63450165304594179e+01
1 -4.59658123476148575e+01 -1.88058070509941793e+01 3.53635821119248384e+00
1 3.80939929502705894e+01 7.45267595501541678e+01 1.00676687655344672e+01
8
Step 38000
1 -6.21122774612100486e+01 8.23924890591886907e+01 -2.67253003338702371e+01
1 -1.25055420721545261e+02 2.42801623543065013e+01 7.36970723693871435e+01
1 1.11826901844278524e+02 -8.87300830800426894e+01 -2.60157334649431971e-01
1 9.10730742761218011e+01 -6.16777856977135599e+01 -7.07295702667718871e+01
1 -1.43546853779450814e+01 -1.46203955725486754e+01 -1.58916051508133993e+01
1 -1.05622276643129396e+02 -1.20289416095588186e+00 -4.83121337455604163e+01
1 -7.99128140280956956e+01 2.67504674696064537e+00 -4.70459186199282016e+01
1 3.06399581383702042e+01 3.42309714037171773e+01 3.01933761143937680e+01
8
Step 39000
1 -5.42932489715503763e+01 7.84264929798298880e+01 -2.26417785854380931e+01
1 -1.21998802096672506e+02 8.44626858619116483e+00 9.61074054941061888e+01
1 1.03263746379779036e+02 -1.52579199981980963e+02 3.04631654603024735e+01
1 9.97781508230729344e+01 -9.21314556480539864e+01 -3.99986393870579064e+01
1 2.32054212089814769e+01 4.19405618073132942e+01 5.65768198697904694e+01
1 -1.07177260238589483e+02 -5.05255755320929865e+01 -1.02275957353644429e+02
1 -7.97903928342708753e+01 1.55525905324015365e+01 -7.64960133148227044e+01
1 1.20606346477699198e+01 -1.07199639553707708e+01 2.77299891033893928e+01
8
Step 40000
1 -2.72254717891877256e+01 5.51122188078927806e+01 -8.58088168527609341e+00
1 -6.40975435362832684e+01 -1.78734796643767275e+01 8.72500162923963387e+01
1 5.53412225723885030e+01 -1.66995770811256278e+02 4.78401699307024941e+01
1 8.03794727276484480e+01 -8.74348859693845810e+01 -3.93880098426888159e+00
1 5.73958194928562051e+01 7.99669455681869152e+01 1.01110122172163742e+02
1 -6.55671855114755999e+01 -7.83939192598720211e+01 -1.10860491149126929e+02
1 -4.28100575774928771e+01 1.38741919140215231e+01 -8.20583301551560709e+01
1 -7.73315496248315437e+00 -4.39966136040250575e+01 8.96819564174640860e+00
8
Step 41000
1 7.03954574649924236e+00 2.89417229202090738e+01 1.26213033595523054e+01
1 3.33435328811764506e+01 -3.70848794942007984e+01 4.79756622132136954e+01
1 -2.12686524997436237e+01 -1.24018534819172984e+02 3.97221870556668222e+01
1 4.38227662022960445e+01 -5.54267808894930027e+01 3.14504706462226977e+01
1 6.83352412859465943e+01 8.40808627457893607e+01 1.04304544697079024e+02
1 5.24469545417549021e+00 -6.96737748309388394e+01 -8.10107766503708149e+01
1 1.71634175605401644e+01 6.68397035817694829e-01 -6.87966921402412055e+01
1 -1.95071345703124166e+01 -5.66956979909959031e+01 -1.03525830898543134e+01
8
Step 42000
1 3.32050917372336443e+01 1.31576135214855068e+01 3.69479155662514458e+01
1 1.30420910152977200e+02 -3.28732631610395956e+01 -5.87409596384690058e+00
1 -9.62694216716232063e+01 -4.01920271802635298e+01 5.82106292475431797e+00
1 2.99131547078569460e+00 -1.03171943499620102e+01 6.00108419361114613e+01
1 4.61440347402435265e+01 5.28797576661945214e+01 7.20380112987986791e+01
1 7.85644113256175842e+01 -2.62283458417446766e+01 -3.41833922316624523e+01
1 7.61307846828685655e+01 -1.47409818043345364e+01 -4.52287583418600434e+01
1 -2.05230727148114909e+01 -4.95195406670307605e+01 -1.98298259486952340e+01
8
Step 43000
1 3.86393998354640402e+01 9.09873597231930198e+00 6.11332188108949452e+01
1 1.82890582648640134e+02 -4.20708335915533382e+00 -5.75066497639772791e+01
1 -1.32121675154349191e+02 4.97211323637866940e+01 -3.77786149620648573e+01
1 -3.04066111856979440e+01 3.12576726510632881e+01 7.55456658006985435e+01
1 -3.17702286027722280e+00 -8.06885087349721308e-02 2.33668343614904828e+01
1 1.22280327789718342e+02 3.29557764842700749e+01 3.43950272259432577e+00
1 1.10688493045195926e+02 -2.23309738134855635e+01 -1.88118497061673615e+01
1 -1.22403161401276446e+01 -3.11268696307973940e+01 -1.56700820553571347e+01
8
Step 44000
1 2.26752228442486796e+01 6.93928726312180100e+00 7.34173221361046444e+01
1 1.65507991787635177e+02 3.58748431435877535e+01 -9.42441442569964209e+01
1 -1.12693020732593823e+02 1.11655051513460862e+02 -6.59796204060625939e+01
1 -4.93961748230748157e+01 5.45666234876150895e+01 7.24267914189985618e+01
1 -5.71667133086722146e+01 -5.04733143631543015e+01 -2.08812698308295133e+01
1 1.19038801087656864e+02 7.96743779286735645e+01 1.67259338170690484e+01
1 1.07203699816861743e+02 -1.68308869774069549e+01 5.57644133132357567e+00
1 1.75779217494232731e+00 -1.33729695205686614e+01 2.50608353052623389e+00
8
Step 45000
1 -3.04347207985689217e+00 -4.51067529731561123e+00 5.89761886414229295e+01
1 8.36704185746664137e+01 6.74596689051409157e+01 -1.04389471665669490e+02
1 -5.10375615979327222e+01 1.26066830393687283e+02 -6.02912328881038420e+01
1 -5.32735532571789108e+01 5.26751771894693519e+01 4.79614586293967520e+01
1 -8.98183095108687866e+01 -7.72320512645708135e+01 -4.74532441723340312e+01
1 7.40296861640086092e+01 9.28180515542831870e+01 9.34700354363983621e+00
1 6.60075889599669523e+01 -3.33394346516368678e-01 2.56388048676679645e+01
1 1.43990260081599892e+01 -3.90463354685529662e+00 2.30711811474522293e+01
8
Step 46000
1 -2.48089760347299304e+01 -2.82883400092773947e+01 1.65012223250037380e+01
1 -2.73073520313604234e+01 6.81994816092571199e+01 -8.79465986409178697e+01
1 2.70265999972234674e+01 9.51853663590628258e+01 -1.97478748383455240e+01
1 -4.65752030803076522e+01 2.76197773131414266e+01 5.79442845487113356e+00
1 -8.66256852196170684e+01 -7.17018301530837761e+01 -5.33436046544423519e+01
1 4.03940139176989632e+00 6.97754460538104837e+01 -4.82867038842361218e+00
1 6.64018958334729126e-01 1.95592099228293463e+01 4.07806018717948504e+01
1 2.01061099281470987e+01 -2.67224708479648143e+00 3.17570301957338188e+01
8
Step 47000
1 -3.17716806925986752e+01 -5.90350343756678697e+01 -4.10147080812988847e+01
1 -1.18227409902656774e+02 3.22757524017621833e+01 -5.80375000664606162e+01
1 8.52328907365548929e+01 4.20887098561563562e+01 3.77853605980435319e+01
1 -3.62924512775847887e+01 -9.29169799833705667e+00 -4.21010768952025671e+01
1 -4.80510693746384447e+01 -3.78336354516947821e+01 -4.37475242963565591e+01
1 -6.48083922289286107e+01 2.28418174122563364e+01 -1.03776424167682855e+01
1 -6.74528714731899726e+01 3.35548054251878867e+01 4.98469167485869775e+01
1 1.91361507615617334e+01 -3.57965882208430752e+00 2.50327037204400824e+01
8
Step 48000
1 -1.61584696570129189e+01 -8.17486435227250752e+01 -9.85236723125928648e+01
1 -1.60020478784166158e+02 -2.10815092385515293e+01 -2.22401239278306981e+01
1 9.53511728517848240e+01 -5.43049082674548877e+00 8.50198590683634166e+01
1 -2.57678308387595933e+01 -4.19385937770528372e+01 -7.81804479156909906e+01
1 9.97491685493730174e+00 8.64500252783947865e+00 -2.76457131244982435e+01