8
Step 0
1  7.395189469585e+00   2.868572838882e+01  -2.182869978595e+01 
1  3.581768520100e+01  -5.040078629445e+01  -1.872152468762e+01 
1 -8.956057854562e+00   4.753479582038e+00   1.574679953468e+00 
1  1.977878075509e+01   3.607585693886e+01  -2.422827477529e+01 
1  7.002853144553e+01   7.647335132185e+01   2.165794942044e+00 
1  2.570063494682e+01  -1.914862205628e+01   1.732125061436e+00 
1  5.826318678326e+01  -1.353795077675e+01  -5.974027404880e+01 
1  5.370653369435e+01  -9.140397982714e+00  -5.549262301199e+01 
8
Step 1000
1  9.428697842803e+00   1.363788543511e+01  -6.528259452111e+01 
1 -1.404098922819e+01  -3.243474975622e+01   5.075890967398e+01 
1  3.226490676433e+01   7.611954709860e-01   2.311172099177e+01 
1  1.940768942581e+01  -1.527327869348e+01  -6.146635040048e+01 
1  4.200614726590e+01  -3.735239553703e+01   2.929690830376e+01 
1 -3.442969539902e+01   3.969258959490e+01   2.354564342058e+01 
1  7.983941844825e-01  -5.842566303786e+01  -2.222283266974e+01 
1 -5.700939711852e+01   5.931327664122e+01   2.122227529125e+01 
8
Step 2000
1  1.097624008021e+01  -5.094921746908e+01   2.395422586642e+01 
1  5.100971873894e+01  -1.034881497780e+01  -2.572381365431e+01 
1 -1.193352837238e+01   7.091756968930e+00  -5.490277885760e+01 
1 -2.034902817049e+01   2.530993830489e+01   6.726733594109e+00 
1 -4.040439223959e+00   6.557704886051e+00  -2.473551966320e+01 
1 -3.331982599584e+01  -5.887400797279e+01   4.748157271060e+01 
1  8.229769968565e+00   6.445159653170e+01   4.633418938350e+00 
1  2.291960981730e+01  -1.336727017693e+01  -2.643936482339e+01 
8
Step 3000
1  5.513225763905e+01   1.160059984318e+01  -4.152332895896e+01 
1 -1.999241064640e+01  -5.260443974360e+01   2.612117099184e+01 
1 -7.534285138687e+00   1.989992530744e+01  -1.504840945720e+01 
1 -4.270355953148e+01  -3.688382659959e+01   4.565359727503e+00 
1  4.959682528373e+01  -4.693610362600e+01   4.163996826958e+01 
1 -3.455170062919e+00   6.108433555503e+01   3.028876916120e+00 
1  1.327014693379e+01  -7.062621890064e-01  -2.371753467144e+01 
1 -1.793736516633e-01   1.236814724005e+01  -3.195659165659e+01 
8
Step 4000
1 -2.623938373127e+01   5.937039520644e+01   4.638444417364e+01 
1  5.270445826778e+00  -5.335440956357e-01  -1.410112296659e+01 
1 -5.709018040474e+01  -3.320530187707e+01  -6.588921380684e+00 
1  3.832682337509e+01   3.652709108956e+01   5.447577808767e+01 
1  3.400590850385e+01   2.524652678987e+01  -2.376391767950e+01 
1  4.832414014579e+00   1.930386393440e+01   3.696159071519e+00 
1 -2.639311390684e+01   2.601007601957e+01  -4.010276572497e+01 
1  1.882847498898e+01  -6.988556706766e+01   2.854480914244e+01 
8
Step 5000
1  1.585767883683e+01  -6.193353735453e+00  -2.941750584044e+01 
1 -4.786979532714e+01  -3.597017064237e+01   8.744025508649e+00 
1  8.391276729637e+00   6.397892816182e+01   5.231205330837e+01 
1  1.848253579110e+00  -4.496292630827e+01  -7.908410258664e+01 
1  2.467252855822e+01   4.093830351557e+01   4.953098729841e+01 
1 -2.356986842329e+01  -8.280650195160e+00  -2.778603184643e+01 
1  8.485722401632e+00  -3.995638931881e+01   2.919340278011e+01 
1 -4.500393587952e+00  -2.126429891383e+01   1.150982757088e+00 
8
Step 6000
1 -1.119313597150e+01   1.076467609852e+01   6.440299076254e+00 
1  2.925420080413e+01  -5.939453501685e+00   1.563642974965e+01 
1  1.196703421586e+01  -5.330700388748e+01  -2.058464432303e+01 
1  6.361192948948e+01   3.138598696552e+01  -6.938738403242e+00 
1 -3.499572447681e+00   1.435952557591e+01  -4.569143326462e+01 
1 -5.843342824795e+01   2.020633991931e+01   1.771868932379e+01 
1 -2.289366591246e+01  -5.325837468307e+01  -9.576639822894e+00 
1  1.350947207866e+01   5.338950765837e+01   3.963556720643e+01 
8
Step 7000
1  1.861918716053e+01   3.401541627031e+00   1.506321673195e+00 
1  1.480399953067e+01   4.298710917528e+00  -1.254639978604e+01 
1  1.133019880820e+01   5.113529115151e+01   4.093960840834e+01 
1 -4.341026200641e+01  -2.752301159496e+01  -3.291132720855e+01 
1 -9.199017012529e+01  -2.163161670674e+01   3.385505982961e+01 
1 -2.444480025156e+01  -4.988462448298e+01   2.981575386093e+00 
1  7.400889382005e+01   3.741065587553e+01   4.645512215419e+01 
1  1.556761799348e+01   5.327403755575e+01  -7.721121063279e+01 
8
Step 8000
1  2.904961479828e+00   3.647534099697e+01  -3.853812681874e+00 
1 -6.991708209702e+00  -3.814609804923e+01   7.259902257675e+01 
1 -3.959113712802e+01  -4.842801013055e+01  -2.842749783685e+01 
1 -2.580838019798e+01   4.578901083671e+01   1.610387666723e+00 
1  2.460775574756e+01  -5.472445563296e+01  -2.351897588970e+01 
1  3.104456540882e+01   8.644980283455e+01   1.696709343998e+01 
1  4.483664469703e+01  -1.359322886019e+01  -5.622062796068e+01 
1 -4.535568816992e+01  -1.542261085045e+01   1.955833430375e+01 
8
Step 9000
1  1.929503453883e+01  -1.861113320638e+01  -1.321452489404e+01 
1  5.749854627609e+00   6.175318678530e+00  -6.089158590333e+01 
1 -2.026564976766e+01   4.614218851799e+01   3.349970836994e+01 
1 -1.912611455485e+01   9.452488040815e+00   2.918605933946e+01 
1  2.866157020539e+01  -1.210897670376e-01   1.023233041953e+01 
1  6.084725291615e+01  -3.957586341413e+01  -5.812148528866e+00 
1 -4.822684391244e+01   4.343996544779e+01   1.131009882489e+01 
1 -2.753897076279e+01  -5.588553092025e+01  -1.060824833086e+01 
8
Step 10000
1  2.329416721704e+01  -1.186980702315e+01  -2.323314381527e+01 
1 -1.427708822562e+01   1.733981074709e+01   9.782059849014e+00 
1 -1.919619360411e+01   8.294043183259e+00   3.722479687907e+00 
1  5.059501146909e+01  -1.082144911751e+00  -7.836591243597e+01 
1  9.225275728079e+01  -7.989656499223e+00   3.461861517827e+01 
1 -3.771929537632e+01   3.880373122808e+01   5.504669585652e+00 
1 -1.019323865171e+02  -5.527103947854e+01  -3.129086620397e+01 
1  4.981145165629e+01   9.673317638107e+00   7.407929963076e+01 
8
Step 11000
1 -4.748100379132e+01   1.093060151167e+01   8.569772979119e+01 
1  2.520503062862e+01   2.123700835887e+01  -4.411992096651e+01 
1  6.569289841303e+00  -3.461287126219e+01   4.624030579108e+00 
1  5.616915069469e+01  -3.132884849277e+00   5.204427747602e+01 
1 -5.363754268438e+01   4.510201168861e+00  -2.103479060787e+00 
1 -9.540014691526e+01  -3.985577355477e+01  -3.319295601985e+01 
1  6.217832577664e+01   2.876523086195e+01   4.980809653086e+01 
1  3.753698892126e+01   3.959682727515e+01  -4.429680291863e+01 
8
Step 12000
1  4.638788294370e+01   5.510309184621e+00  -4.712054732908e+01 
1 -3.353779418430e+01  -2.184412443641e+01   5.833309974561e+01 
1 -2.011793934502e+00   2.018682299295e+01   1.956114782199e+01 
1 -1.133198785192e+01  -1.748275679339e+01  -8.419982723108e+01 
1 -7.548543552818e+01   7.323476987128e+00   5.065683876971e+01 
1  3.217002344465e+00   4.773265272048e+00  -2.524100203178e+01 
1  8.148398151491e+01   2.343635684548e+01   6.604471307282e+00 
1 -4.033154891574e+01   9.502420873088e+00  -2.276778686146e+01 
8
Step 13000
1 -2.851148113197e+01   1.838520497861e+00   2.104923912809e+01 
1  6.282504652999e+00  -1.605750463864e+01  -2.712526844299e+01 
1  8.655535089149e+00  -1.834693295020e+01  -3.172751391908e+01 
1  2.133509925398e+00   4.139321383294e+01   7.407650520317e+01 
1 -1.771847591654e+01  -3.346759731970e+01  -5.812076611405e+01 
1  9.646604067551e+01   5.256351365765e+01  -2.446571257434e+01 
1 -2.854130678358e+01  -1.957208838556e+01   6.646706019620e+00 
1 -5.590593765692e+01  -4.441002878493e+01   3.878747976095e+01 
8
Step 14000
1  2.611286189737e+01  -4.626803471524e+01  -2.311964516770e+01 
1 -1.155441904191e+01  -2.716549038954e+00  -9.120348348405e+00 
1  4.564204187927e+00   6.769759582377e+01   4.891684296512e+01 
1 -3.888571679662e+01   4.879785181000e+00  -4.361230164948e+01 
1  6.829853593820e+01  -1.296503081198e+01   3.790790328261e+01 
1  2.174530709738e+00  -3.982105014007e+01   2.849985839557e+01 
1 -1.093110344588e+02  -2.150650942614e+01  -3.490628755839e+01 
1  7.691344138599e+01  -6.500123103509e+00   8.914956163364e+00 
8
Step 15000
1 -3.452721956931e+01   4.674183687234e+01   4.226338239798e+01 
1  4.394204236354e+00   2.432742247256e+01   3.692093090248e+01 
1 -8.478648743068e+00  -3.420761544845e+01  -7.686760148298e+01 
1  1.363018989843e+01  -3.711350113983e+01   4.832504876910e+01 
1  4.182591291027e+01  -5.378392056636e+00  -6.351832068404e+01 
1 -9.622239423774e+01   5.001313647310e+01   9.297350663328e+00 
1  3.762209414555e+01   1.972916166328e+01  -2.034634897569e+01 
1  3.338245434117e+01   5.989818051974e+01  -2.005632734956e+00 
8
Step 16000
1  1.861383816564e+01  -2.541910574673e+01  -8.550370066268e+00 
1  1.010172940904e+01   8.772847068810e-01  -4.855286533857e+01 
1 -2.586757921958e+01   2.752853527926e+00   5.728783653289e+01 
1 -1.440855224760e+01  -1.435394299588e+01  -5.194916790475e+00 
1  3.886122365970e+00   3.159587615765e+01   1.909450014366e+01 
1 -2.876310224190e+01  -4.412653094406e+01  -3.385863888972e+00 
1  7.392318506337e+01   1.576608106800e+00   3.690821657362e+01 
1 -2.704234611144e+01  -2.225524601605e+01  -6.539977895154e+01 
8
Step 17000
1  3.582984203641e+00   3.626956448686e+01  -6.398689770170e+00 
1 -3.336611943327e+01  -4.731533510438e+00   5.944120311702e+01 
1 -7.950584946987e+00  -2.276146243481e+01  -5.501753757071e+01 
1  4.630503549130e+01  -8.116779927521e+00  -1.000456451896e+01 
1 -3.719761571600e+01   5.581467234125e+01  -1.883548977134e+01 
1  8.159343853280e+01  -3.079942168106e+01  -2.242622115320e+01 
1 -6.898085543913e+00  -4.396101281489e+01   3.770611713012e+01 
1 -7.592090578516e+01  -3.132774353696e+01   3.154610271976e+01 
8
Step 18000
1 -2.005958154374e+01  -5.243543558733e+01   9.547111307315e+00 
1  2.245950693091e+01  -1.834461566744e+01  -6.578107645302e+01 
1  2.059848007939e+01   3.355945425008e+01   3.025589723764e+01 
1  1.331470996798e+01   3.224802186494e+01   2.228083531750e+01 
1 -3.860706351684e+01  -2.414361026210e+01  -1.332096807942e+01 
1  1.673078017899e+01  -1.746335303880e+01  -2.692646999845e+01 
1 -1.219258090810e+02   6.878483254875e+01   1.013028820304e+01 
1  5.526575986457e+01  -1.398118048982e+01  -1.595144824860e+01 
8
Step 19000
1  2.659101046001e+01  -1.039731586631e-01  -1.616566132791e+01 
1 -3.200055980815e+01   2.358030039640e+01   4.936525055497e+01 
1  2.541646265505e+01   8.765710068458e+00   1.290532419449e+01 
1  2.057723135050e+01  -3.471274582189e+01  -4.699178260570e+01 
1 -4.224816767393e+01  -2.762716115659e+01   1.686080744999e+01 
1 -2.162513630734e+01   7.407194552438e+01   3.259420913597e+01 
1  4.625934225805e+01   7.423642142853e-01  -6.478922532780e+01 
1  5.277852104452e+01   5.463463676276e+01   4.556415737735e-01 
8
Step 20000
1 -5.176676470306e+01   1.645047531081e+01   4.530530069908e+01 
1  3.784506524581e+01   2.983349791970e+01  -5.609136829675e+01 
1  1.618278846419e+01  -1.370349248398e+01  -2.495552438034e+01 
1 -1.882800213726e+01  -7.541799198344e-01   4.330323493503e+01 
1  1.468027665258e+01  -3.722416017235e+01  -1.128910924750e+01 
1 -2.986377748839e+01   2.322568945442e+01   1.984439214743e+01 
1  7.925700745663e+01  -9.328350136004e+00  -1.806726841878e+01 
1 -2.874199695291e+01  -4.627974992477e+01   1.958268964300e+00 
8
Step 21000
1  6.515360317115e+01  -1.100973061901e+01  -5.958307279323e+01 
1 -3.016564409725e+01  -2.641694885304e+00   2.923256650599e+01 
1 -1.578543847289e-01   5.591235383125e+00   1.631561597471e+01 
1 -2.238818646180e+01   1.356834708020e+00  -7.991940966606e+01 
1  8.510249332238e+00   6.036302915114e+01   4.712750571298e+01 
1  1.164116689896e+02  -4.275287632994e+01  -5.777182203449e+00 
1 -5.724445185467e+00  -5.655442085819e+01   1.253771832478e+01 
1 -5.517563586277e+01   1.547453345049e+01   1.253946869786e+01 
8
Step 22000
1 -3.210336395113e+01   7.130636155228e+00   2.772696561028e+01 
1  1.468780120956e+01  -4.754740378305e+00   4.462156985160e+00 
1 -3.538070454512e+00  -1.654043624243e+01  -5.448458515515e+01 
1  8.398547917138e+00   3.683989895376e+01   6.078057330056e+01 
1  7.753300837028e+01   4.786131166101e+00  -4.563981078394e+01 
1 -1.350610704366e+01  -2.292847587489e+01  -7.561837079608e+01 
1 -8.244319994886e+01   2.845297529130e+01   5.408031439840e+01 
1  5.044181396822e+01   1.856757737379e+01  -7.970032345510e+00 
8
Step 23000
1  1.939489595957e+01  -3.225885545323e+01  -2.826611787664e+01 
1 -2.988509107844e+01  -1.380259573905e+00   2.195206238657e+01 
1 -9.115335752534e+00   6.185760831122e+01   7.090717010678e+01 
1 -2.028650818409e+01   2.671298660197e+01  -3.761981501154e+01 
1  2.089089327417e+01  -4.299178653507e+01   1.642827406295e+01 
1 -3.452828858636e+01  -5.019643101019e+01   3.195924798064e+01 
1 -1.200293014283e+01   8.249400997699e+00   1.284489345221e+00 
1  4.322382546665e+01   7.470329957077e+00  -4.135077819252e+01 
8
Step 24000
1 -3.304842718017e+01   4.341887095248e+01   2.621838701366e+01 
1  5.054953512891e+00   1.373665061816e+01   2.030711261010e+01 
1  2.679222463038e+01  -3.026369006558e+01  -6.776797760461e+01 
1  2.919572095687e+01  -4.087562296706e+01   5.449061912117e+01 
1  1.528213044948e+01  -3.991237913407e+01  -3.247154116543e+01 
1 -6.486139973693e+01   6.165276939861e+01   2.939606126643e+01 
1  1.333476292139e+02   2.999352955990e+01  -4.669872541170e+01 
1  7.091309980797e+00  -3.114593818132e+01   4.308158473548e+01 
8
Step 25000
1  9.972911367179e+00  -1.691531506151e+01  -1.884097198411e+01 
1  6.023474283737e+00  -2.716976690927e+01  -5.037745616738e+01 
1  8.795274084658e+00   2.282330642170e+01   4.650960686080e+01 
1  1.035340650367e-01   3.554039392338e+00  -1.355752405619e+01 
1 -1.167057174814e+02   4.451602074923e+01   3.375570049062e+01 
1  5.912583180048e+01  -1.310247923806e+01   3.402693278040e+01 
1  5.596805699547e+00  -5.262686165162e+01  -1.627739297884e+01 
1 -6.349613025292e+01  -5.164535640364e+00   3.574167936975e+00 
8
Step 26000
1  6.171220632372e+00   1.153362335111e+01  -5.567122054067e+00 
1 -2.596166251837e+01   1.209853679557e+01   4.905791708045e+01 
1 -1.135226731982e+01  -4.122180673101e+01  -9.682319810548e+00 
1  1.119828881626e+01  -1.764172615057e+01  -1.782135548566e+01 
1 -1.403593785956e+01   6.284084550941e+01  -6.871958873530e+01 
1  8.248310733998e+01   3.184888255108e+00  -2.623952164993e+01 
1 -1.342001850943e+02  -1.713949048887e+01   3.559342792965e+01 
1  1.689902400441e+01   5.720810107884e+01   2.007847224103e+01 
8
Step 27000
1 -2.190870201059e+01  -1.333302674493e+01   2.542002986330e+01 
1  1.569920425103e+01  -2.207001611393e+01  -5.316130222538e+01 
1 -9.480373335548e+00   3.822720298817e+01   2.303109602957e+01 
1 -1.001839338260e+01   4.961370717393e+01   1.403074689426e+01 
1  6.397559806522e+01  -4.557627297776e+01   3.490302317057e+01 
1 -4.301456442436e+01  -7.154930387761e+01   6.104659553657e-01 
1 -4.393226788932e+00   7.151359468469e+00   2.012726215710e+01 
1  2.533904222241e+01  -1.799485324735e+01  -9.648176133711e+01 
8
Step 28000
1  2.760940575930e+01   1.234298036272e+01  -3.867648000729e+01 
1 -1.122035049583e+01   2.160494848374e+01   2.134493681090e+01 
1  2.383239990285e+00  -1.890918978994e+01  -9.594505469120e+00 
1  1.515177995874e+01   3.872622938156e-01  -5.842972924003e+01 
1  4.384409175151e+01  -3.559837302667e+01   5.161401555203e+01 
1 -1.076354443980e+02   8.771793333122e+00   1.182838274260e+01 
1  8.097904752835e+01   7.859309319294e+01  -1.746656509707e+01 
1 -3.681391493930e+00  -5.429035885235e+01   5.285826507498e+01 
8
Step 29000
1 -2.692014799963e+01   3.618508060749e+00   2.892644214608e+01 
1  2.117181740692e+01  -2.996856636589e+01  -4.993153643530e+01 
1  1.479105154925e+01   1.965010172014e+01  -4.371063146204e+01 
1  5.062919874817e+00  -2.609658583005e+01   6.363885322791e+01 
1 -3.494246452642e+01   1.771030495109e+01  -3.666101296486e+01 
1  4.395969160715e+01   1.166054005224e+01   2.273000361286e+01 
1  2.990780070660e+01  -6.811647430867e+01  -6.786691959440e+00 
1 -4.514807031134e+01   8.840585865954e+00   2.160290910292e+01 
8
Step 30000
1  3.313439649185e+01  -6.363532867541e+00  -4.136714182031e+01 
1 -4.616443645781e+01   1.106289733167e+00   5.703070235308e+01 
1  2.166969434777e+00   9.131353640207e+00   4.061114011771e+01 
1  1.698150128992e+01   4.969571284497e+00  -2.901685292727e+01 
1 -5.661448133009e+01   8.019961924835e+01  -5.011597840669e+01 
1  8.908022464666e+01  -1.122148109268e+01   1.158508906334e+00 
1 -8.061185620300e+01  -3.829765033862e+01  -1.798932546764e+00 
1 -2.012429172167e+01   5.968899632217e+01   9.498880830426e+00 
8
Step 31000
1 -4.278258747465e+01  -4.808112236282e-01   5.437176122261e+01 
1  1.520162679022e+01   1.312868595793e+01  -4.684147861895e+01 
1  2.509047501860e+01   1.936630631365e+01  -4.526418957530e+01 
1  1.978549786288e+01  -3.518366482517e+01   1.386484045669e+01 
1  5.923841889306e+01  -1.791051418966e+01  -7.728596135097e+00 
1 -2.962683998754e+01  -4.261566143938e+01  -5.182981148963e+00 
1 -4.644980003771e-01   4.677026917329e+01   2.855934020403e+01 
1  6.213759047735e+01  -3.442490505478e+01  -2.865235219624e+01 
8
Step 32000
1  3.628794537786e+01  -1.008482490989e+01  -5.313637230620e+01 
1 -2.017550830998e+01  -3.558514473418e+01   4.554521127326e+00 
1  1.639866754151e+01  -7.844995606068e+00   5.853166347194e+01 
1 -3.313337136801e+01   3.453434738264e+01  -5.123923300503e+01 
1  5.932361856464e+00  -6.176745733521e+01   1.144344716970e+02 
1 -7.766167736869e+01  -2.844078908154e+01   1.671808656419e+01 
1  7.115041979331e+01   8.426981040965e+01  -4.718709678315e+00 
1  2.814940689289e+01  -3.483553523909e+01  -1.223532697122e+01 
8
Step 33000
1  8.157458233261e-01   2.270782921680e+01   1.263182443436e+01 
1 -1.333426997300e+00   4.650676817096e+01   4.189713588174e+00 
1  3.733162212752e+00  -1.888294212588e+01  -4.575854070038e+01 
1 -1.436118471954e+01  -2.250924236175e+01  -1.788905704939e+01 
1  7.831388526361e-01   1.799559641072e+01  -3.155329113543e+01 
1  3.043978093567e+01   2.896864231785e+01  -1.486754225286e+01 
1  1.013400972132e+00  -2.736578945145e+01  -1.600026629502e+01 
1 -5.695983519973e+01   2.142922223223e+01   5.355612233442e+01 
8
Step 34000
1  1.139600600197e+01  -1.245457828108e+01  -1.360156663979e+01 
1 -1.924825161480e+01  -3.702106229496e+01  -2.350323538278e+00 
1  9.602098489427e+00   4.557570383224e+01   3.219025151527e+01 
1 -3.898180711540e+01   9.519629784448e+01   6.439522513444e+00 
1 -1.451605123229e+01  -3.579433965264e+01   1.044043585253e+01 
1  5.613158387411e+01  -2.779125415214e+01  -2.104123858671e+01 
1 -1.828677563925e+01  -1.516290001362e+02   1.008995277874e+00 
1 -5.570692413401e+01   2.573526946314e+01  -3.535228966013e+01 
8
Step 35000
1 -3.478218144398e+00   1.642016332096e+00   7.698152261455e+00 
1 -2.354271258340e+01   4.449075959830e+01   3.358065532067e+01 
1 -2.572711120585e+00  -3.498910833226e+01  -3.597533349609e+01 
1 -7.932821473540e+00  -8.244258525058e+01   1.042973530099e+01 
1  2.545393052930e+01   3.540186644976e+01  -2.132263939561e+01 
1  5.234331490701e+01  -1.905602437771e+01  -3.066738048929e+00 
1 -5.518319320429e+01   5.444863725891e+01   8.143870774878e+00 
1  7.613289794556e+01   1.757011039882e+01   2.838388109255e+01 
8
Step 36000
1 -1.954914548740e+01   3.222477968324e+00   2.145021465634e+01 
1 -1.927058039988e+01  -2.539252862041e+01  -2.269177628386e+01 
1  2.400930260404e+01   1.385070744733e+01  -2.606751355812e+00 
1 -9.032860349622e+00   6.806076381956e+01   3.158601095860e+01 
1  3.755194696894e+01  -5.031875844859e+01  -5.258001659203e+01 
1 -6.064119109324e+01  -4.078417522963e+01   5.213436549373e+01 
1 -2.763963537501e+01   3.696658908744e+01  -1.236265692920e+01 
1  4.126147663524e+01  -4.987599095069e+01  -6.476240151775e+01 
8
Step 37000
1  2.001089578472e+01   9.178063609429e+00  -2.157886763254e+01 
1 -3.392552835960e-02   7.273624450338e+00   3.028951014726e+01 
1 -3.207942305840e+01  -3.087095096914e+01  -4.546692318522e+00 
1  2.309778404460e+01  -2.360701569370e+01  -7.436069205775e+00 
1 -9.305585277386e+00   2.123977295882e+01   5.339511104318e+00 
1 -8.431489754019e+01   7.088533566501e+01  -2.308363246302e+01 
1  9.451097252014e+01   3.271672123140e+01  -1.633893225127e+01 
1 -5.342444121515e+01  -1.521298171938e+01   3.788572236925e+01 
8
Step 38000
1 -3.275922701629e+01  -9.207876030509e+00   5.623481440124e+01 
1  9.114088921502e+00  -2.535560075689e+01  -3.794277682098e+01 
1  2.926928689938e+01   4.209178019626e+01   2.309973830573e+00 
1  1.156638958688e+01   2.004193855319e+01   3.737943257371e+01 
1  4.218925029397e+00   4.884905365845e+00  -5.294778672005e+01 
1 -3.762445361319e+01  -5.309275862696e+00   8.314469966792e+01 
1  4.855049161569e+01  -7.483746961306e+01  -4.500759423735e+01 
1 -7.590578630809e+01  -1.122467558079e+01  -9.562291004839e+00 
8
Step 39000
1  4.345521776369e+01   6.430819855133e+00  -7.035436189186e+01 
1 -2.388285040237e+01  -9.122497064631e+00   3.601269952393e+01 
1 -3.196624373367e+01   1.569142679871e+01   3.009831719033e+01 
1  4.527469263629e+01   4.825346930736e+00  -2.671478245956e+01 
1 -7.000860364274e+01  -2.916355794130e+01   4.968549950464e+01 
1  2.155708282762e+01  -1.552270630899e+00  -9.582503569730e+00 
1  7.615400050221e+01  -2.137030718336e+01  -2.564532581868e+01 
1 -5.012337044878e+01   6.148203545748e+01   3.351737157190e+01 
8
Step 40000
1 -3.045196640905e+01   2.270554889812e+00   5.601988489445e+01 
1  7.603260183714e+00   3.448101315385e+01  -4.141374850339e+01 
1  3.761201618110e+01  -2.717373385292e+01  -5.222722642067e+01 
1  2.842293698902e+01  -3.637177073865e+01   1.035708078347e+01 
1 -2.060506626555e+01   2.696581949621e+01  -4.210074773766e+01 
1  6.207412546993e+01  -9.596674876991e+00   1.483626406327e+01 
1 -7.960573100291e+01  -1.174665713706e+01  -2.719485933246e+01 
1  1.442148464256e+01   3.802390589632e+01  -1.561643428806e+01 
8
Step 41000
1  1.957245075265e+01   2.992783243658e+00  -4.567198101770e+01 
1 -3.636286404545e+00  -3.922420810205e+01   1.960395700218e+01 
1  1.110028846754e+00  -8.620784253614e+00   2.457507829297e+01 
1  1.081262731380e+01   6.397170780446e+01  -1.554384001755e+01 
1 -4.636342417525e+01  -2.363014265807e+01   5.458491703947e+01 
1  1.155120379826e+01  -1.253210862584e+01  -2.639860498979e+01 
1 -7.075943401322e+01   2.980088304397e+01   1.044945435705e+01 
1  4.371707089409e+01  -5.254833907272e+01  -2.920509870789e+00 
8
Step 42000
1  4.197616832115e+00  -3.752438971531e+01   8.298703404357e+01 
1  1.125779053041e+01   3.579610170868e+01  -1.073580730053e+01 
1  8.015811117393e+00  -4.528555712108e+01  -3.980994655481e+01 
1 -1.960584927304e+01  -1.769103649231e+01  -1.068446580270e-01 
1  3.639994575741e+01   3.065478461880e+01  -1.988449991595e+01 
1 -1.419950614003e+01   1.907092044907e+01   1.847591594630e+01 
1  7.143818181855e+01  -2.128556632212e+01   8.080475210798e+01 
1 -2.709535709269e+01  -6.539314290251e+01  -2.130230742415e+01 
8
Step 43000
1  5.699369355221e+00  -3.166238826667e+00  -1.578213478602e+01 
1  2.619865215676e+00  -3.694102017065e+01   9.404599453718e+00 
1  1.159833512494e+01   1.005147876870e+02   4.086875196277e+01 
1 -1.016502576189e+01   8.642633930176e+01   2.050584309090e+01 
1  1.952442373554e+01  -7.397506910025e+01   3.112201581028e+01 
1 -1.954723792662e+01  -3.952720549394e+01  -2.381209385001e+01 
1  5.412002045656e+01  -1.676133852076e+01   1.093506972067e+01 
1 -3.893850113276e+01   1.534408313128e+01  -2.576582334878e+01 
8
Step 44000
1  1.038252890825e+01  -4.403594023360e+00   1.170401282763e+01 
1 -3.345023225230e+01   4.501271616136e+01   1.465114594675e+01 
1  1.086039338354e+01   1.641074387883e+01  -2.812208872659e+01 
1  1.560696666125e+01  -6.920804797074e+01  -9.876060459832e+00 
1  6.244473497882e+01  -5.393487473159e+01  -2.800402970675e+01 
1 -3.865155442745e+01   4.204355085958e+01  -4.109708124357e+01 
1  7.292886296169e+01   2.068505804601e+01   7.066040549550e+00 
1 -6.954401194847e+01   4.884414745203e+01   3.727638930245e+00 
8
Step 45000
1 -1.796888989459e+01  -1.975136547250e+00   4.405756894208e+00 
1  1.146963286279e+01  -3.834742906469e+01  -1.793559620865e+01 
1  2.752663638476e+01   3.511817444693e+00  -8.701757047668e+00 
1  2.376644024789e+01  -2.714185824105e+00   5.191663552233e+01 
1 -1.255157936289e+01  -6.566953873636e+00  -2.782513118583e+01 
1 -1.550990622964e+01   2.250275824878e+01   7.513372079971e+01 
1 -1.612959060974e+01  -2.015743041955e+01  -8.478140531381e+01 
1 -1.689299871455e+01  -4.135188677110e-01   3.338439419566e-01 
8
Step 46000
1  2.929926029055e+01   5.578936854605e+00  -1.143998968679e+01 
1 -2.420658205827e+01   1.736777441864e+01   3.752065137910e+01 
1 -3.952176674408e+00  -4.496399657222e+01  -3.089471811438e+01 
1 -2.593333894264e+01   2.859617735161e+00   2.012916804645e+01 
1 -2.650379540650e+01   7.294341298160e+01  -2.293973004069e+00 
1  2.040354459133e+01   3.246512278763e+01   2.003750665100e+01 
1  6.991385146172e+01  -2.599900446881e+01  -4.681818348435e+01 
1  3.200763413365e-01  -3.070122908270e+01   1.199326804883e+02 
8
Step 47000
1 -2.885386672381e+01  -1.840638935529e+01   3.618701792193e+01 
1  3.228676967385e+01  -1.726693110232e+01  -4.890010731203e+01 
1  2.845337248509e+00   2.805488640909e+01  -1.893394752670e+01 
1  2.673445255976e+00   5.653446541630e+01   3.687843387588e+01 
1 -6.615929508415e+01   6.442241751530e+01  -1.031013226098e+01 
1  2.921679096685e+01  -4.455651823051e+01   3.354920534808e+01 
1  3.259319817796e+01  -4.081660819859e+01  -3.589555206931e+01 
1 -4.109912046026e+01   6.647025723518e+00  -3.791788737041e+01 
8
Step 48000
1  3.571999057383e+01   3.143420637921e+01  -3.545294843601e+01 
1 -2.743095866766e+01  -1.652879779125e+01   2.114339941927e+01 
1 -4.838823720241e+01   1.665314011444e+01   7.978744851577e+00 
1 -2.444538400811e+01   1.399250443560e+01  -1.113619859823e+01 
1  6.899226153194e+01  -4.959847898075e+01   4.982109440210e+00 
1  7.112660238840e+01  -4.980058537780e+01  -2.496133072552e+01 
1 -4.052889683763e+01   3.003373789973e+01  -3.763738794009e+01 
1 -2.428550192594e+01   4.992348205017e+01   2.528625948914e+01 
8
Step 49000
1 -1.619935938878e+01  -1.672109911651e+01   1.803058321251e+01 
1  3.238062170457e+01   2.097449115685e+01  -1.692907034369e+01 
1 -1.411092308275e+01   6.000077422768e+00  -2.652589244486e+01 
1  7.945024693664e+01  -6.496423345255e+01   1.419213010077e+01 
1  1.129485449342e+01  -8.548890810242e+01  -1.915615364720e+01 
1 -4.202607768726e+01   5.214326720910e+01  -9.141126778896e+00 
1 -4.726621398077e+01   2.723142192913e+01   5.848229266481e+01 
1  4.168446668705e+01  -3.075005353376e+01  -2.852745145124e+01 
8
Step 50000
1  2.898891981989e+01   3.548786884280e+01  -4.430761782190e+01 
1 -1.178899343864e+01  -2.664351596797e+01   2.155291707692e+01 
1 -3.300468775586e+01  -1.139949610137e+01   5.279749955931e+00 
1  2.683902240159e+01   2.447599619732e+01   1.197934428815e+01 
1  2.951517762885e+00   4.210861063840e+01   3.011243409534e-01 
1 -3.225907736727e+01   8.086400268698e+01  -2.569400893284e+00 
1  1.297623542517e+01  -5.495622475705e+01  -1.024696607953e+00 
1  1.710471524833e+01  -1.892960157717e+01   1.295484149960e+01 
8
Step 51000
1 -2.785125786642e+01  -4.662031463687e+01   4.593522764643e+01 
1  1.719387093515e+01   2.581301608446e+01   9.306529615488e+00 
1 -1.736929579045e+01  -4.802109783274e+01  -9.069420410169e+01 
1  8.993620338760e+00   3.250380866825e+01  -6.328699462080e+00 
1 -8.121336074903e+01   5.382563955121e+01   3.267270260915e+01 
1  1.080487348503e+00   1.462891219635e+01  -5.182497435853e+01 
1  1.182181554690e+02  -6.481707886596e+01  -2.594667294111e+01 
1 -3.952198444889e+01   6.933411255681e+00   2.384497076013e+01 
8
Step 52000
1  2.780416299717e+00   3.358329891431e+01  -1.436501903944e+00 
1 -1.590314301481e+00  -3.814511987602e+01   1.362280209142e+01 
1  1.369950543094e+00  -2.159738240710e+01  -9.665177464335e+00 
1  1.969935032924e-01   3.069519007300e+01   3.712075713300e+01 
1 -3.845313414373e+01  -5.547622761206e+00   3.077992258294e+01 
1  7.334573426070e+01  -5.088387026542e+01  -2.028240519874e+00 
1 -4.756481944168e+01  -7.436056908948e+00   2.254391324009e+01 
1 -2.783707188492e+01   3.432807000609e+01  -3.154581357402e+01 
8
Step 53000
1  1.868100255355e+01  -1.378459292875e+01   2.543621631407e+00 
1  1.783788009103e+01   5.148079425894e+01  -7.675711292937e-01 
1  1.875538163549e+01   3.534820714679e+01  -4.184192877867e+01 
1 -3.184646425764e+00  -7.662408555620e+01  -3.491827285595e+01 
1  7.007788154289e+01  -8.412132772889e+01  -4.553945233285e+00 
1 -6.554258479040e+00  -1.151997107222e+01  -1.043634989091e+01 
1 -6.860977002697e+01   7.639914183913e+01   1.174597969175e+01 
1  5.167953524632e+01  -2.031393813084e+01   4.943581962042e+01 
8
Step 54000
1 -2.811203287595e+01   1.032435565731e+01   3.134088639163e+00 
1 -2.676910968557e+01  -2.912557017613e+01  -3.121206077181e+01 
1  3.747457342692e+01   9.591740628185e+00   2.038957169916e+01 
1  1.659875299883e+01   3.073874614439e+00   7.693996709472e+01 
1  7.711158056689e+01   1.835587364022e+01  -2.596307714304e+01 
1 -3.293977643591e+01   7.367025604749e+01   3.246172891519e+01 
1 -2.351817408213e+01  -3.440736860152e+01  -6.570774619672e+00 
1  1.835348110368e+01  -4.157589549784e+01  -9.174828056018e+01 
8
Step 55000
1  1.169227179997e+01   1.015618134125e+01  -6.315261959375e+00 
1 -4.231350456007e+01   3.678921455942e+01   1.791722154942e+01 
1 -1.051976670721e+01  -2.939560116239e-01   2.496194471189e+01 
1 -5.306005730030e+01  -3.971036880738e+01  -4.434205481562e+01 
1 -1.968023834437e+01   4.405768652271e+01  -2.883305198024e+00 
1 -2.702346283525e+01   1.709523276250e+01  -3.364960374366e+01 
1  6.228489216740e+01  -4.404745371310e+01  -8.244403163457e+00 
1 -3.512288646414e+01   1.910242714398e+01   2.057986231494e+01 
8
Step 56000
1 -3.210887412378e+01  -3.307434494968e+01   5.412542244028e+01 
1  7.276610023450e+00  -1.481303576857e+01  -3.110877547830e+01 