8
Step 0
1  7.395189469585e+00   2.868572838882e+01  -2.182869978595e+01 
1  3.581768520100e+01  -5.040078629445e+01  -1.872152468762e+01 
1 -8.956057854562e+00   4.753479582038e+00   1.574679953468e+00 
1  1.977878075509e+01   3.607585693886e+01  -2.422827477529e+01 
1  7.002853144553e+01   7.647335132185e+01   2.165794942044e+00 
1  2.570063494682e+01  -1.914862205628e+01   1.732125061436e+00 
1  5.826318678326e+01  -1.353795077675e+01  -5.974027404880e+01 
1  5.370653369435e+01  -9.140397982714e+00  -5.549262301199e+01 
8
Step 1000
1  2.322547910469e+01   4.529139679783e+01  -2.516565101199e+01 
1  4.367160502104e+01  -5.097858603317e+01  -5.471260885703e+01 
1 -4.350333522809e+01  -6.268617216278e+00  -2.827696147679e+01 
1  2.258546750159e+01   1.378776610064e+01   1.497110060472e+01 
1  6.092740360992e+01   3.879848242998e+01  -1.418172837341e+01 
1  3.992142195695e+01   2.899416869065e+00  -3.192217939675e+00 
1  6.306650982605e+01  -2.185619930958e+01  -5.216917178244e+01 
1  1.095047320994e+01   2.936036964666e+00  -6.690654673587e+01 
8
Step 2000
1  2.444065096282e+01   5.220362042745e+01  -1.717670560955e+01 
1  2.771193681677e+01  -2.603921996996e+01  -6.390598504263e+01 
1 -5.521830959580e+01  -1.727557455776e+01  -4.387628661100e+01 
1  1.489895159618e+01  -9.958462526690e+00   5.563080011927e+01 
1  2.977499836596e+01  -7.446048412242e+00  -2.039859731615e+01 
1  4.084596780399e+01   2.459321823570e+01  -1.966947468901e+01 
1  4.917218912861e+01  -2.641396766587e+01  -2.570190511683e+01 
1 -3.464918624898e+01   1.254135929124e+01  -4.979224729197e+01 
8
Step 3000
1  1.387521761294e+01   4.437090427849e+01  -2.546287160894e+00 
1 -2.317726408338e+00   8.168345130228e+00  -4.740025984852e+01 
1 -4.557250317860e+01  -2.363453322685e+01  -3.999162071082e+01 
1  2.067098467703e+00  -2.496797129892e+01   8.305954159485e+01 
1 -6.339257332158e+00  -4.258842827598e+01  -1.418322240118e+01 
1  3.064503567720e+01   4.043577325709e+01  -3.820310610303e+01 
1  1.740435300310e+01  -2.720412766484e+01   1.054783133702e+01 
1 -6.730750853170e+01   9.866308251023e+00  -1.304171039333e+01 
8
Step 4000
1 -1.776995932960e-02   2.106419443492e+01   1.154363689955e+01 
1 -2.891424212045e+01   3.133997317682e+01  -1.748773647877e+01 
1 -2.419593795991e+01  -2.227720097626e+01  -1.970208243812e+01 
1 -8.885924275191e+00  -2.700174761383e+01   8.631004434036e+01 
1 -3.047789383398e+01  -5.493088757294e+01  -6.135722089456e-01 
1  1.476796480239e+01   4.668731408589e+01  -4.596712002666e+01 
1 -2.317565487069e+01  -2.367156037996e+01   4.212359387213e+01 
1 -7.710197756337e+01  -5.947971979054e+00   2.514920204965e+01 
8
Step 5000
1 -7.890788233891e+00  -1.250558587646e+01   1.886945020440e+01 
1 -3.764683048967e+01   3.178811300576e+01   9.737062915280e+00 
1 -3.528996240441e+00  -1.254426035379e+01   7.330817138530e+00 
1 -1.352648186081e+01  -1.786497020649e+01   6.248059979562e+01 
1 -3.527574287854e+01  -4.492877110822e+01   1.167553832888e+01 
1 -6.929252074257e-01   4.199947049100e+01  -3.399900015947e+01 
1 -5.800531413219e+01  -1.494097345231e+01   5.661798294541e+01 
1 -6.343249172110e+01  -2.626927497950e+01   4.786378121630e+01 
8
Step 6000
1 -4.831901500087e+00  -4.609013154466e+01   1.715690413075e+01 
1 -2.523594954039e+01   1.227266826610e+01   2.324941954140e+01 
1  7.114918554480e+00   3.339610430306e+00   2.915448195090e+01 
1 -1.169670977776e+01  -3.139168511068e+00   1.850596684649e+01 
1 -2.420266430237e+01  -2.151838646911e+01   1.545934042738e+01 
1 -1.128091938136e+01   2.731754477814e+01  -2.441007973408e+00 
1 -7.420402076029e+01  -8.413347616188e-01   5.026769461779e+01 
1 -3.336498712601e+01  -3.885521399813e+01   4.754496195740e+01 
8
Step 7000
1  6.831659554056e+00  -6.821801145930e+01   8.846073830951e+00 
1  2.080270886379e-01  -1.359907143656e+01   2.067933683021e+01 
1  5.658629214990e+00   2.084745320415e+01   3.706674737120e+01 
1 -6.895121023756e+00   1.043030337119e+01  -2.962892121762e+01 
1 -7.572138619657e+00   3.210150813268e+00   8.221802809746e+00 
1 -1.529520775362e+01   5.948997563565e+00   3.803423224520e+01 
1 -6.590347014321e+01   1.684085488560e+01   2.840925814188e+01 
1  2.071126156154e+00  -3.521883314114e+01   2.782609395430e+01 
8
Step 8000
1  1.917836265453e+01  -7.066769924143e+01  -1.018288144723e+00 
1  2.424969019377e+01  -2.983499606794e+01   7.598153019967e+00 
1 -2.877261733088e+00   3.443546308798e+01   2.890313700361e+01 
1 -3.421677397584e+00   1.803237559647e+01  -6.403089501863e+01 
1  3.931617806595e+00   1.922315044514e+01  -6.730112642629e+00 
1 -1.404404922205e+01  -1.684479611600e+01   7.026285706231e+01 
1 -3.650163591745e+01   3.351119777917e+01   2.064755442633e+00 
1  3.156818891935e+01  -1.548395301607e+01   4.468401101036e-01 
8
Step 9000
1  2.324467277835e+01  -5.103912727033e+01  -7.972513148086e+00 
1  3.447082717355e+01  -2.760650180448e+01  -6.573525142706e+00 
1 -9.885207095408e+00   3.891135687914e+01   8.967656773996e+00 
1 -3.063042838164e+00   1.848668645370e+01  -7.428034534830e+01 
1  5.073804971631e+00   2.233375907156e+01  -2.204775000611e+01 
1 -1.075135373223e+01  -3.545224079964e+01   7.932855573526e+01 
1  1.731741353128e+00   4.283403257138e+01  -1.735056342929e+01 
1  4.735803722375e+01   1.168673833455e+01  -2.125728855181e+01 
8
Step 10000
1  1.356403341834e+01  -1.341256127254e+01  -1.008977507491e+01 
1  2.678264230870e+01  -9.522560723733e+00  -1.387544290305e+01 
1 -7.915766217215e+00   3.089153040986e+01  -1.440899128609e+01 
1 -4.232878288777e+00   1.328066754821e+01  -6.057993008498e+01 
1 -1.957201496849e+00   1.472091421555e+01  -2.992593930876e+01 
1 -8.394078862912e+00  -4.529460733968e+01   5.914740645447e+01 
1  3.324597681232e+01   4.019216234547e+01  -2.405397281281e+01 
1  4.720968714858e+01   3.437643286153e+01  -2.891015236219e+01 
8
Step 11000
1 -8.518759696863e+00   3.162434574262e+01  -8.248135562064e+00 
1  6.498505196802e+00   1.293164598126e+01  -1.108274426708e+01 
1  5.534121290876e+00   1.018913790089e+01  -3.223130756365e+01 
1 -3.611866227960e+00   4.912057209413e+00  -3.160446950360e+01 
1 -9.673180527738e+00   2.789021274236e+00  -2.553954495974e+01 
1 -8.072692440087e+00  -4.329815825361e+01   1.422237825850e+01 
1  4.743002227388e+01   2.563007081913e+01  -2.010925725213e+01 
1  3.342709864008e+01   4.330679832752e+01  -2.145410114878e+01 
8
Step 12000
1 -3.402259992214e+01   6.917373461067e+01  -5.150886010358e+00 
1 -1.513008391639e+01   2.639911840407e+01  -3.846275058185e-01 
1  2.655945563507e+01  -1.916933679990e+01  -3.766185838056e+01 
1  1.157224267749e+00  -4.146996649639e+00  -1.036170288771e-01 
1 -1.003141835401e+01  -6.215174121830e+00  -9.210708016215e+00 
1 -8.556695119839e+00  -2.888122262848e+01  -4.043857425233e+01 
1  4.267837285448e+01   3.856691774643e+00  -1.211951754911e+01 
1  1.125564384290e+01   3.501727398839e+01  -3.993956592483e+00 
8
Step 13000
1 -5.041543233748e+01   8.601405952040e+01  -3.200312392495e+00 
1 -2.750874568775e+01   2.371881023760e+01   1.251265619627e+01 
1  4.580688644584e+01  -4.864876354873e+01  -2.802135065554e+01 
1  9.315146081059e+00  -1.192769972692e+01   2.307280096817e+01 
1  5.797338153151e-01  -7.636065458474e+00   1.339211620255e+01 
1 -7.044965022934e+00  -5.352627683505e+00  -8.361327800953e+01 
1  2.509575045373e+01  -1.794689808656e+01  -6.139294990325e+00 
1 -1.218347870199e+01   1.305709966970e+01   1.462037959366e+01 
8
Step 14000
1 -4.799718906372e+01   7.558429577604e+01  -2.626136075892e+00 
1 -2.606673776547e+01   7.550114317108e+00   2.162832413335e+01 
1  5.201163472829e+01  -6.684155119539e+01  -5.989280005643e+00 
1  1.689479644059e+01  -1.683590273109e+01   3.324790616731e+01 
1  1.865581600112e+01  -1.539887873942e+00   3.333342126158e+01 
1 -9.752527291021e-01   2.082070772734e+01  -9.807432940164e+01 
1  4.354191726551e+00  -3.313956776227e+01  -4.315861684441e+00 
1 -2.974068365292e+01  -1.329203831970e+01   2.544798220331e+01 
8
Step 15000
1 -2.431122252227e+01   3.975682701885e+01  -1.493865830863e+00 
1 -1.333343894908e+01  -1.211026385350e+01   2.317006767269e+01 
1  3.743680317633e+01  -6.360005163873e+01   2.078541171566e+01 
1  1.868956928874e+01  -1.722996993948e+01   3.185477116910e+01 
1  3.475893774892e+01   7.495645594339e+00   4.224690438292e+01 
1  1.025336175767e+01   4.233857576169e+01  -7.786649883275e+01 
1 -1.085978952854e+01  -3.787697431697e+01  -4.621322187077e+00 
1 -3.664655005771e+01  -3.333198474780e+01   2.340361119059e+01 
8
Step 16000
1  1.239025280165e+01  -9.065052049549e+00   2.518893644655e+00 
1  3.528156032272e+00  -2.390276206570e+01   1.644012270035e+01 
1  3.199185311047e+00  -3.556613302479e+01   4.179474123769e+01 
1  1.115489648076e+01  -1.161326453125e+01   2.369514397091e+01 
1  3.843554907545e+01   1.298248581131e+01   3.608345426357e+01 
1  2.413422968539e+01   5.254906248343e+01  -2.977974496663e+01 
1 -1.573175939539e+01  -3.162410347026e+01  -3.047770138814e+00 
1 -3.179064557159e+01  -3.959894307910e+01   9.239546468083e+00 
8
Step 17000
1  4.500891799793e+01  -5.118935647749e+01   9.590457180703e+00 
1  1.678512355916e+01  -2.104947000334e+01   3.337634475374e+00 
1 -3.814084025042e+01   8.860897450489e+00   4.783754453060e+01 
1 -5.012988423213e+00   2.232015866928e-01   1.393721996169e+01 
1  2.418492145935e+01   1.016294919592e+01   1.675682784119e+01 
1  3.495915279858e+01   4.753311172058e+01   2.730061740236e+01 
1 -1.033365466122e+01  -1.672510677231e+01   3.437256303558e+00 
1 -1.764592692344e+01  -3.052380172157e+01  -1.092703570448e+01 
8
Step 18000
1  5.879729749256e+01  -7.183610607043e+01   1.680277176666e+01 
1  2.144610092825e+01  -4.339245098753e+00  -1.265452456257e+01 
1 -6.801289527672e+01   5.138184210463e+01   3.659998347630e+01 
1 -2.399916798818e+01   1.584651336137e+01   5.874776075654e+00 
1 -4.572920892292e+00  -1.067189607002e+00  -8.475959844163e+00 
1  3.646398843542e+01   2.889359644568e+01   7.016091291335e+01 
1  6.177325260450e-01   2.229461016781e+00   1.447393887937e+01 
1  6.073184709728e-01  -1.090916215203e+01  -2.800128578546e+01 
8
Step 19000
1  4.940301729327e+01  -6.776947530262e+01   1.952741045491e+01 
1  1.671277620016e+01   1.827332541670e+01  -2.718659193237e+01 
1 -7.339419588884e+01   7.450708125404e+01   1.392613889404e+01 
1 -3.681577125706e+01   2.990858903501e+01  -4.716368597632e-02 
1 -3.575121276531e+01  -1.542997742369e+01  -2.985169258232e+01 
1  2.555157596384e+01   3.178891939886e+00   8.416124111060e+01 
1  9.670508335267e+00   1.964249988718e+01   2.562015865047e+01 
1  1.689440088101e+01   1.027662996096e+01  -3.383735196037e+01 
8
Step 20000
1  2.289895246171e+01  -4.517897856549e+01   1.379540870570e+01 
1  5.699424802564e+00   3.504846286686e+01  -3.578295432341e+01 
1 -5.284458675005e+01   7.006899129756e+01  -1.051583761370e+01 
1 -3.563122574123e+01   3.579285317829e+01  -5.508055588077e+00 
1 -5.488349920184e+01  -2.508658167633e+01  -3.998017188773e+01 
1  3.858427606633e+00  -2.135450524064e+01   6.865112517197e+01 
1  1.026910778004e+01   3.073287783615e+01   3.029260794474e+01 
1  2.649168532722e+01   2.429065476105e+01  -2.495941057526e+01 
8
Step 21000
1 -7.488372019264e+00  -1.568173858613e+01  -8.147269791882e-01 
1 -6.377829876564e+00   3.589128990804e+01  -3.484427822972e+01 
1 -1.574654053401e+01   4.124822732283e+01  -2.764580240686e+01 
1 -1.810138399178e+01   2.861998854684e+01  -1.227855263717e+01 
1 -5.317662386714e+01  -2.422643910656e+01  -3.702555129695e+01 
1 -2.227824068774e+01  -3.745147953887e+01   3.465853754465e+01 
1  2.569672325791e-01   3.291884563443e+01   2.341826741948e+01 
1  2.736243489217e+01   2.647968116860e+01  -4.008264877030e+00 
8
Step 22000
1 -2.815449307183e+01   9.340684513955e+00  -1.964876211848e+01 
1 -1.459097136352e+01   1.742025768652e+01  -2.269350908912e+01 
1  2.157419733697e+01   1.543347555122e+00  -3.236383178485e+01 
1  1.039459118580e+01   8.312311543352e+00  -2.017985963970e+01 
1 -3.106279864773e+01  -1.196092247059e+01  -2.402527155692e+01 
1 -4.368300421919e+01  -4.135382594514e+01  -1.155038261979e+00 
1 -1.664573629653e+01   2.631560177623e+01   4.735213328330e+00 
1  2.028009368344e+01   1.789263122169e+01   2.119725983123e+01 
8
Step 23000
1 -3.235019913593e+01   2.402293185375e+01  -3.468163015085e+01 
1 -1.624283436562e+01  -1.427684528721e+01  -8.114522875874e-01 
1  4.432070642076e+01  -3.172626897304e+01  -2.581147804039e+01 
1  3.806488657530e+01  -1.883685075493e+01  -2.639015937211e+01 
1  2.278870936158e+00   6.958974435211e+00  -6.739867356452e+00 
1 -5.248046221156e+01  -3.411335598332e+01  -2.521963767829e+01 
1 -3.202621989785e+01   1.357883467736e+01  -1.986015311281e+01 
1  8.187181810285e+00   4.443241923064e+00   4.049399789046e+01 
8
Step 24000
1 -2.233356691266e+01   2.881645436563e+01  -3.800656944446e+01 
1 -1.188720472407e+01  -4.506972230491e+01   2.534691372291e+01 
1  4.704785387742e+01  -4.685548202932e+01  -1.370926676984e+01 
1  5.234168636674e+01  -4.221022093224e+01  -2.682518011080e+01 
1  3.300932255684e+01   2.405215587853e+01   8.986717493477e+00 
1 -4.528947877723e+01  -2.013615501483e+01  -3.282240415570e+01 
1 -3.664299574620e+01  -1.098026576871e+00  -4.028817220615e+01 
1 -5.043583868306e+00  -6.278290727960e+00   4.548881994250e+01 
8
Step 25000
1 -6.623793692990e+00   2.765137074218e+01  -2.539674766194e+01 
1 -4.665810469688e+00  -5.957253109983e+01   4.763050612727e+01 
1  3.398123950859e+01  -4.169011090807e+01  -2.330685384615e+00 
1  4.632202207642e+01  -5.179215428527e+01  -1.866016387639e+01 
1  4.964745769860e+01   3.150835770462e+01   1.977680503817e+01 
1 -2.386531279009e+01  -4.633126649927e+00  -2.763598894039e+01 
1 -2.516917833872e+01  -1.364834708202e+01  -4.704406062595e+01 
1 -1.595338279380e+01  -8.989103612183e+00   3.292446870148e+01 
8
Step 26000
1  4.987569370847e+00   2.442501934901e+01   8.970048389176e-01 
1  1.847773572361e+00  -4.898708431773e+01   5.802133613503e+01 
1  1.480429447489e+01  -2.229595543858e+01   4.360123700697e+00 
1  2.172143004807e+01  -4.241076878867e+01  -2.374711101882e+00 
1  4.760380037304e+01   2.568984194935e+01   2.514134465190e+01 
1  5.510242944573e+00   8.323886504956e+00  -1.771078118287e+01 
1  9.112500042523e-01  -2.137904548132e+01  -3.573436541602e+01 
1 -2.221985264212e+01  -3.292097524132e+00   5.957767858143e+00 
8
Step 27000
1  6.565053571510e+00   2.072994446052e+01   3.173247957722e+01 
1  5.527397337439e+00  -1.527823580314e+01   5.107651275431e+01 
1 -5.511088164289e-01   5.789166921611e-01   5.873336790946e+00 
1 -1.140998651798e+01  -1.640189855440e+01   1.729599213482e+01 
1  2.947815224786e+01   8.349346122658e+00   2.599705865381e+01 
1  3.390210917205e+01   1.690224887188e+01  -1.050698738029e+01 
1  3.297276335672e+01  -2.344500815861e+01  -9.676692342238e+00 
1 -2.280944763609e+01   6.063483428275e+00  -2.643953782517e+01 
8
Step 28000
1 -1.021461701096e+00   1.569207497883e+01   5.428102588223e+01 
1  6.384830920069e+00   2.825874924742e+01   2.646293450354e+01 
1 -6.693958082940e+00   1.659934992832e+01   4.651301215244e+00 
1 -3.863783514796e+01   1.614923540737e+01   3.269504736946e+01 
1  3.419329831965e+00  -1.364633238028e+01   2.312478348171e+01 
1  5.283212068317e+01   2.141604377884e+01  -9.042483387196e+00 
1  5.811744251639e+01  -2.083778928111e+01   2.053762372839e+01 
1 -1.790458505463e+01   1.159410288775e+01  -5.239780167337e+01 
8
Step 29000
1 -1.107904336851e+01   7.632983831706e+00   5.757900125634e+01 
1  6.062019608872e+00   6.197588911423e+01  -9.097833582888e+00 
1 -4.676287271521e+00   2.019874073879e+01   4.075549131571e+00 
1 -4.871729063716e+01   4.204099008002e+01   3.724351890199e+01 
1 -2.037389978588e+01  -3.084275682242e+01   1.644440984088e+01 
1  5.679423517149e+01   2.309667742742e+01  -1.115969692789e+01 
1  6.517560671313e+01  -1.560195061616e+01   4.198016164265e+01 
1 -8.592935698987e+00   7.350495275430e+00  -6.181006805406e+01 
8
Step 30000
1 -1.521678358844e+01  -3.774593082244e+00   3.741240086301e+01 
1  6.263072084760e+00   7.051354357817e+01  -4.397470165605e+01 
1 -2.254550202038e-01   1.203398745100e+01   6.316368810716e+00 
1 -3.885555111353e+01   5.133854443288e+01   2.881463840881e+01 
1 -3.426638500183e+01  -3.553167447566e+01   5.321460871462e+00 
1  4.411035374014e+01   2.266168446128e+01  -1.173447050581e+01 
1  4.959128192715e+01  -9.473281121483e+00   4.570546717941e+01 
1  3.462132220926e+00  -7.458237211705e+00  -4.999305909168e+01 
8
Step 31000
1 -8.151500577209e+00  -1.623854260638e+01  -8.901769472390e-01 
1  7.292789389909e+00   5.043819717015e+01  -6.659170688236e+01 
1  9.026445053200e-02  -2.213318653363e+00   1.111873887984e+01 
1 -1.476612397050e+01   4.086166989006e+01   1.054669085825e+01 
1 -3.584050591205e+01  -2.510335026655e+01  -1.013532645628e+01 
1  1.701593535047e+01   1.954496610758e+01  -6.046834555993e+00 
1  1.489908019308e+01  -3.048210186749e+00   3.034532748204e+01 
1  1.590621153530e+01  -2.700259102773e+01  -1.959700110562e+01 
8
Step 32000
1  8.718296816921e+00  -2.543561570515e+01  -4.274307305193e+01 
1  7.800170184509e+00   1.083744775887e+01  -6.915056387838e+01 
1 -7.255185640250e+00  -1.472290572128e+01   1.590977318107e+01 
1  1.205963558294e+01   1.536923500298e+01  -1.004926264034e+01 
1 -2.757781065115e+01  -3.183167022348e+00  -2.742841853071e+01 
1 -1.814046700125e+01   1.219248130778e+01   7.121106602025e+00 
1 -2.757245030586e+01   4.048203999046e+00   3.204260868200e+00 
1  2.558717706341e+01  -4.057086963675e+01   1.915337442039e+01 
8
Step 33000
1  2.741360719561e+01  -2.766706667985e+01  -7.032009381172e+01 
1  5.820085378725e+00  -3.061524794895e+01  -5.032969511861e+01 
1 -2.060175752416e+01  -1.892847226442e+01   1.708416655700e+01 
1  2.959883630780e+01  -1.395911496957e+01  -2.423687795072e+01 
1 -1.473995050466e+01   2.142758340126e+01  -4.115006071918e+01 
1 -5.142024052672e+01  -5.239525907512e-01   2.391492333629e+01 
1 -6.242681410356e+01   1.228438654196e+01  -2.240707522881e+01 
1  2.935281233455e+01  -3.827942182144e+01   5.217755084679e+01 
8
Step 34000
1  3.794640490662e+01  -2.245816066228e+01  -7.146032883154e+01 
1  5.528741822196e-01  -5.597258598369e+01  -1.645543866933e+01 
1 -3.360754820050e+01  -1.201100711263e+01   1.181974594733e+01 
1  3.138316892836e+01  -3.486665923991e+01  -2.664663869630e+01 
1 -2.386429186929e+00   3.837402704562e+01  -4.470263824930e+01 
1 -7.202386615870e+01  -1.757929998302e+01   3.690228986633e+01 
1 -7.755940739177e+01   2.115402172647e+01  -3.452493714794e+01 
1  2.528651398109e+01  -1.716557917111e+01   6.794667329670e+01 
8
Step 35000
1  3.348045683561e+01  -1.282710795550e+01  -4.449241002127e+01 
1 -6.558940612587e+00  -5.602979825148e+01   2.099516829062e+01 
1 -3.800170488093e+01   4.248534905175e+00  -3.954593855848e-01 
1  1.892862483314e+01  -3.957181662555e+01  -1.782347698883e+01 
1  6.951819513053e+00   4.027936715851e+01  -3.341972183333e+01 
1 -7.210915941436e+01  -3.507160299700e+01   3.914320291347e+01 
1 -6.860720021833e+01   2.850359737447e+01  -2.859899845279e+01 
1  1.361478641007e+01   1.640830473038e+01   6.180134488257e+01 
8
Step 36000
1  1.378555268949e+01  -3.678100100968e+00   7.089495357654e-01 
1 -1.239454447813e+01  -3.372706438194e+01   5.002108743746e+01 
1 -2.739022591295e+01   2.410838766090e+01  -1.705234487676e+01 
1  4.557406429774e-02  -2.749011032973e+01  -3.708579487725e+00 
1  1.345832166511e+01   2.553773813876e+01  -7.535316682004e+00 
1 -4.947943265472e+01  -4.681929697457e+01   2.796300312621e+01 
1 -3.893235267937e+01   3.071157647469e+01  -8.795764820340e+00 
1 -2.659390080740e+00   4.859528120389e+01   3.742451816551e+01 
8
Step 37000
1 -1.334115658264e+01   1.056374400742e+00   4.502765712737e+01 
1 -1.383493498528e+01  -1.229954387176e+00   6.218878027561e+01 
1 -8.575859023233e-01   3.956888752662e+01  -3.290037206397e+01 
1 -1.514256379039e+01  -5.290792239356e+00   7.165247185990e+00 
1  1.850662241029e+01  -8.447846036394e-01   2.600970268182e+01 
1 -9.466888593658e+00  -4.628879484567e+01   6.857872530442e+00 
1  1.460790153283e+00   2.424819945026e+01   1.380239618700e+01 
1 -1.832515540373e+01   6.462846327449e+01   5.141502656215e+00 
8
Step 38000
1 -3.571363815678e+01   1.404122873733e+00   6.952503485589e+01 
1 -9.553539261145e+00   2.659920766185e+01   5.507743167473e+01 
1  3.495620914602e+01   4.298816132880e+01  -4.141949623131e+01 
1 -1.925479550852e+01   1.614224270539e+01   8.154901615730e+00 
1  2.280712885404e+01  -2.856235777488e+01   5.497200777313e+01 
1  3.482249032316e+01  -3.026139316458e+01  -1.537855534539e+01 
1  3.901127880475e+01   8.357226157334e+00   2.655311363516e+01 
1 -2.819838439581e+01   5.679801452764e+01  -2.345334628816e+01 
8
Step 39000
1 -4.382159071043e+01   1.624813453275e+00   6.561181968454e+01 
1 -1.011359537378e+00   3.883497744294e+01   3.238601806368e+01 
1  6.712648256013e+01   3.028515528253e+01  -3.749745320605e+01 
1 -1.110390967000e+01   2.692976933061e+01  -1.660887503224e+00 
1  2.541541875247e+01  -4.648155952436e+01   6.728781922304e+01 
1  6.745282687585e+01  -2.041975207280e+00  -2.952815602830e+01 
1  6.224764927544e+01  -1.327557716157e+01   2.260925112734e+01 
1 -2.924651028943e+01   2.788426515514e+01  -4.051144820833e+01 
8
Step 40000
1 -3.499780859280e+01   7.316704559534e+00   3.743900882662e+01 
1  7.822685119961e+00   3.236198521655e+01   2.294966359256e+00 
1  8.162648128026e+01   3.265200447772e+00  -2.016941985178e+01 
1  4.383205142650e+00   2.247122334879e+01  -1.665805516284e+01 
1  2.418558403446e+01  -4.744769159312e+01   5.655149043055e+01 
1  7.740289184812e+01   2.939253190623e+01  -3.158815734977e+01 
1  6.588757485519e+01  -3.343266352337e+01   4.741958081600e+00 
1 -2.167813871323e+01  -1.051947260847e+01  -4.380013926337e+01 
8
Step 41000
1 -1.412169139582e+01   2.108625133121e+01  -6.895394414991e-01 
1  1.227066561040e+01   1.231309361418e+01  -2.516726839735e+01 
1  7.002423632797e+01  -3.020581107104e+01   6.114382826528e+00 
1  1.887353352699e+01   5.087023977166e+00  -2.695578684639e+01 
1  1.712180620144e+01  -3.039523322597e+01   2.454420006176e+01 
1  6.253455107657e+01   5.315252457728e+01  -2.421444463399e+01 
1  5.146356129294e+01  -4.421449571919e+01  -1.645025269059e+01 
1 -8.938961685691e+00  -4.341663212270e+01  -3.614047156146e+01 
8
Step 42000
1  8.470270860929e+00   3.894058548681e+01  -3.037899546616e+01 
1  9.712340859458e+00  -1.101547938961e+01  -4.162672697030e+01 
1  3.470168793371e+01  -5.849187695132e+01   3.251490418544e+01 
1  2.436808620667e+01  -1.698150930191e+01  -2.275552288069e+01 
1  4.040756449741e+00  -1.067043633311e+00  -1.806952633046e+01 
1  2.937714959777e+01   6.030000654840e+01  -1.407752005847e+01 
1  2.557348364011e+01  -4.052967481880e+01  -2.840300325930e+01 
1  3.935848683837e+00  -5.936986984660e+01  -2.289927575613e+01 
8
Step 43000
1  2.277175322394e+01   5.097308717340e+01  -3.900910070390e+01 
1  1.333901386047e+00  -2.723163815426e+01  -4.329064346942e+01 
1 -1.105258214679e+01  -7.118624822723e+01   4.976092341734e+01 
1  1.661088299793e+01  -3.260203257960e+01   8.035807784373e-01 
1 -1.213866306576e+01   2.893958828606e+01  -5.462284807826e+01 
1 -9.342502579535e+00   4.740438843212e+01  -7.510384597604e+00 
1 -3.062201684356e+00  -2.262525351813e+01  -2.346156912585e+01 
1  1.271736995585e+01  -5.472028662030e+01  -8.909737571373e+00 
8
Step 44000
1  2.460539324847e+01   4.643480435563e+01  -2.607115968521e+01 
1 -8.151333889554e+00  -3.000480272475e+01  -3.179731756080e+01 
1 -5.045359490248e+01  -6.402545394688e+01   5.300114564980e+01 
1 -2.587929082889e+00  -3.197260813008e+01   3.921442123079e+01 
1 -2.626777833271e+01   4.757346586026e+01  -7.095758382420e+01 
1 -3.958918641340e+01   1.867083450206e+01  -6.586900186727e+00 
1 -2.641026469956e+01   3.392730232140e+00  -3.250130569078e+00 
1  1.557306186821e+01  -3.361158297659e+01   3.195087351510e+00 
8
Step 45000
1  1.669113354006e+01   1.978415932392e+01  -1.883118083345e+00 
1 -1.241703772762e+01  -1.902572251871e+01  -1.313325449320e+01 
1 -7.225191262901e+01  -3.944012447546e+01   4.320404832652e+01 
1 -2.470587209331e+01  -1.223919830868e+01   7.652138262405e+01 
1 -3.381392836828e+01   4.860624798788e+01  -6.280009766003e+01 
1 -5.197248779235e+01  -1.543967479699e+01  -7.986391484050e+00 
1 -3.935148328670e+01   2.766993832783e+01   2.170235268927e+01 
1  1.351609430505e+01  -5.262199500859e+00   1.283758089518e+01 
8
Step 46000
1  6.341168033640e+00  -2.376990531297e+01   1.805135595463e+01 
1 -7.015367597960e+00   4.132122185864e-01   4.964432328303e+00 
1 -7.424778098728e+01  -4.085551569111e+00   2.500692123577e+01 
1 -3.816856201361e+01   1.855678454292e+01   9.138318293399e+01 
1 -3.283352456334e+01   3.347871691392e+01  -3.612362090981e+01 
1 -4.518363281919e+01  -4.269141363443e+01  -5.553417217239e+00 
1 -4.074135795468e+01   4.116558446158e+01   3.793450672965e+01 
1  9.591532415608e+00   2.026983128803e+01   2.036376669531e+01 
8
Step 47000
1  8.399946432052e-01  -6.762309490280e+01   2.158734100211e+01 
1  7.035999940619e+00   2.009707329392e+01   1.641862758949e+01 
1 -6.150270769012e+01   3.339602524296e+01   3.921529385870e+00 
1 -3.529641654380e+01   4.481404667076e+01   6.953706867591e+01 
1 -2.427671924565e+01   9.764969903532e+00  -3.211307936472e+00 
1 -2.529281632337e+01  -5.384587269368e+01   5.180058486231e+00 
1 -3.246000041913e+01   3.948327874774e+01   3.666208986951e+01 
1  6.912740078427e+00   3.604776813054e+01   2.583422435506e+01 
8
Step 48000
1  2.556058598253e+00  -9.209058990531e+01   7.265135778179e+00 
1  2.282826838094e+01   3.240784256017e+01   1.927679098150e+01 
1 -4.155065479735e+01   6.430434240070e+01  -1.578900111378e+01 
1 -1.699347416563e+01   5.140985769570e+01   1.331505456020e+01 
1 -1.125959696746e+01  -1.267073671906e+01   2.352426192863e+01 
1 -2.391006455329e+00  -4.580379696540e+01   2.326543720318e+01 
1 -1.787245430666e+01   2.383513994583e+01   1.765746069650e+01 
1  6.777130367269e+00   3.992472058500e+01   2.831258980052e+01 
8
Step 49000
1  7.890788172617e+00  -8.491303781166e+01  -1.580414423619e+01 
1  3.082475889479e+01   3.295801523072e+01   1.588242656987e+01 
1 -1.938451194683e+01   8.148690148216e+01  -3.167229400174e+01 
1  6.523010679871e+00   3.292455576737e+01  -5.454024425041e+01 
1  2.610424506391e+00  -2.660944690882e+01   3.720980820229e+01 
1  1.377717396359e+01  -2.269641091294e+01   4.152380955835e+01 
1 -1.172017361839e+00   4.585269037922e-01  -1.074229209624e+01 
1  7.973769893716e+00   3.373826949314e+01   2.595790277396e+01 
8
Step 50000
1  1.025752912242e+01  -4.692551534200e+01  -3.390057141089e+01 
1  2.369831957362e+01   2.147905724816e+01   1.083872947495e+01 
1  4.045806747947e+00   8.002767810458e+01  -4.201570797314e+01 
1  2.177513024454e+01  -5.877934791055e-01  -1.019421517433e+02 
1  1.449481906971e+01  -2.953629809387e+01   3.733648333560e+01 
1  1.805549396220e+01   5.785470630916e+00   4.962645659632e+01 
1  1.329658689358e+01  -2.153914474775e+01  -3.524595646515e+01 
1  7.428987385787e+00   2.127906595152e+01   1.703730201730e+01 
8
Step 51000
1  4.721379207401e+00   6.875139077375e+00  -3.623063666098e+01 
1  7.343218974990e-01   1.404535143694e+00   8.085900333513e+00 
1  2.907981560852e+01   5.817173751352e+01  -4.483908670440e+01 
1  2.205830460459e+01  -3.102389706835e+01  -1.096518020157e+02 
1  2.240726305278e+01  -2.274779153538e+01   2.737223604267e+01 
1  1.192730021550e+01   2.867563336774e+01   3.967671874087e+01 
1  2.227405033212e+01  -3.418795951044e+01  -4.449671575542e+01 
1  1.962407536344e+00   6.345386989303e+00   1.397285886828e+00 
8
Step 52000
1 -8.009889220007e+00   5.343417033857e+01  -2.141686498791e+01 
1 -3.003458113724e+01  -2.097995815873e+01   8.611676555280e+00 
1  5.326674088955e+01   1.946243806089e+01  -3.830098910556e+01 
1  1.029395570146e+01  -4.384947169483e+01  -7.850061104551e+01 
1  2.499353307915e+01  -1.002565210907e+01   1.251696879074e+01 
1  2.118392229730e+00   3.824164553580e+01   1.112678626662e+01 
1  2.431593155482e+01  -3.374086809426e+01  -3.442530696918e+01 
1 -9.427230449017e+00  -8.270716913431e+00  -1.846236590064e+01 
8
Step 53000
1 -2.158329872914e+01   7.504171468304e+01   2.080556029903e+00 
1 -5.452253660231e+01  -3.825563461811e+01   9.919150575883e+00 
1  6.988679074619e+01  -2.583501535698e+01  -2.242094303702e+01 
1 -4.129847527392e+00  -3.375946019597e+01  -2.480513265621e+01 
1  2.164909198816e+01   3.715653312313e+00  -2.060339711795e+00 
1 -3.264641123251e+00   3.278587009877e+01  -2.727360264264e+01 
1  1.977484933237e+01  -2.131488509226e+01  -9.363983726723e+00 
1 -2.399561842334e+01  -2.074290945208e+01  -3.730041934904e+01 
8
Step 54000
1 -2.827405929155e+01   6.819076900404e+01   2.258915754456e+01 
1 -5.958085421074e+01  -4.444399358264e+01   7.743020602508e+00 
1  7.099830913263e+01  -6.354134020827e+01  -4.407835569949e-01 
1 -1.086389535452e+01  -7.258137091990e+00   2.711126732809e+01 
1  1.280920940269e+01   1.406142710865e+01  -1.272648692571e+01 
1  7.055972342768e-01   1.700554753410e+01  -6.026842730731e+01 
1  1.069415555486e+01  -2.212121997429e+00   1.972427656996e+01 
1 -3.564845757665e+01  -2.963756878146e+01  -4.843161796044e+01 
8
Step 55000
1 -2.342397549677e+01   4.166247570821e+01   3.196989962081e+01 
1 -3.933522896502e+01  -3.669644552328e+01  -1.122106249594e+00 
1  5.253030574870e+01  -8.169101347116e+01   2.183515306693e+01 
1 -5.251698485543e+00   2.117215167897e+01   5.826340992700e+01 
1  8.958948355962e-02   1.847419254048e+01  -1.815621275971e+01 
1  1.284533261413e+01  -7.641118141126e-01  -7.337506623559e+01 
1  3.527194381051e-01   1.605724030698e+01   3.984980754840e+01 
1 -3.737095013627e+01  -3.345550064904e+01  -4.611815877961e+01 
8
Step 56000
1 -7.833178409678e+00   9.848206033901e+00   2.855584597832e+01 
1  1.227469314582e+00  -1.620082054137e+01  -1.616514221766e+01 