8
Step 0
1 -4.335052367192e+01   6.226770353478e+01  -1.571831079641e+01 
1 -4.197517804778e+01   5.557624918835e+01   6.050689884240e+01 
1  4.062082842113e+01  -6.869837660098e+01  -6.406602060552e+00 
1  3.202042668263e+01  -9.333787405458e+00   7.585091136361e+01 
1  2.169421302650e+01  -5.304981751903e-01  -3.452327492586e+01 
1  2.479565131470e+00   3.727202342153e+01  -7.541307749490e+01 
1  3.539535683763e+01   1.835259957186e+01  -5.811004072382e+01 
1  1.040422054410e+01   7.251222155371e+01   5.312714128624e+01 
8
Step 1000
1 -7.742288546431e+00   4.526265463797e+01  -2.662528823802e+01 
1 -5.241973633820e+01   1.731577574045e+01   7.143741114066e+01 
1  1.260948420252e+01  -7.011988788537e+01   1.874039630175e+01 
1  1.309939131589e+01  -9.321641510230e+00   8.172703601259e+01 
1  4.322351676801e+01  -1.111117993175e+01  -1.137009915135e+01 
1  4.667685706700e+01   7.282442469343e+01  -7.921573942079e+01 
1  3.038950580543e+01  -5.422790549629e+00  -5.390866369942e+01 
1  2.597628155309e+00   3.704365019740e+01   6.988376322933e+01 
8
Step 2000
1  3.134529179315e+01   1.867028731075e+01  -2.977847549586e+01 
1 -3.689201754256e+01  -3.122128987638e+01   5.558656128810e+01 
1 -1.827889829028e+01  -5.009685332355e+01   3.363788044982e+01 
1 -7.203431930103e+00  -7.339541488860e+00   6.117061820144e+01 
1  5.450928314144e+01  -1.160784490056e+01   1.570356617231e+01 
1  7.331555358223e+01   7.431913298605e+01  -6.042662257115e+01 
1  1.507448356405e+01  -2.975445684927e+01  -3.458008962498e+01 
1 -4.610288029958e+00  -7.701130211359e+00   5.639541529291e+01 
8
Step 3000
1  5.641281740584e+01  -5.185083365269e+00  -2.228666445858e+01 
1 -8.990276149997e+00  -6.098123904407e+01   2.354071447301e+01 
1 -4.196319350065e+01  -1.764440036454e+01   3.300269738444e+01 
1 -2.517063301300e+01  -2.844775256810e+00   2.235367348391e+01 
1  4.933370357976e+01  -3.744004829303e+00   3.354480152654e+01 
1  7.508447209527e+01   5.237661298485e+01  -3.004240655914e+01 
1 -2.758550775001e+00  -4.450009834413e+01  -5.017905781953e+00 
1 -1.047567189245e+01  -4.105823581934e+01   2.343390798561e+01 
8
Step 4000
1  5.887965751825e+01  -1.808428981846e+01  -8.167376078003e+00 
1  1.284261231463e+01  -5.977512972433e+01  -7.080431198892e+00 
1 -5.134225941621e+01   1.382051725934e+01   2.125481038434e+01 
1 -3.653633314514e+01   4.017160609285e+00  -1.798147634332e+01 
1  2.713315846715e+01   5.205591782446e+00   3.483908774767e+01 
1  5.491141220151e+01   2.413683477389e+01  -7.792160895915e-01 
1 -1.562215259775e+01  -4.372720313875e+01   2.632343883183e+01 
1 -1.525756371143e+01  -5.043385694296e+01  -8.629309176261e+00 
8
Step 5000
1  4.033792658282e+01  -1.930754871060e+01   6.996714062980e+00 
1  2.157899955013e+01  -3.432372446433e+01  -2.816153306221e+01 
1 -4.582078988721e+01   3.363423491962e+01   7.621308734566e+00 
1 -3.817820425429e+01   1.151586147162e+01  -4.364998812966e+01 
1 -9.049753557536e+00   9.490728493668e+00   1.901878095660e+01 
1  2.251301926610e+01   3.002392774123e+00   1.833925144074e+01 
1 -2.056149687241e+01  -2.860077815574e+01   5.033713658038e+01 
1 -1.787383590561e+01  -3.985226970070e+01  -2.833499584869e+01 
8
Step 6000
1  9.487373957991e+00  -1.532260613404e+01   1.911324115334e+01 
1  1.707630313858e+01   3.990935227146e+00  -3.773737460587e+01 
1 -3.000198541097e+01   3.886389279254e+01  -8.927859766660e-01 
1 -2.963686624016e+01   1.708268228949e+01  -4.883035360542e+01 
1 -5.000918969146e+01   6.567741608094e+00  -9.165251664978e+00 
1 -1.228830730391e+01  -7.054856734646e+00   2.565325756327e+01 
1 -1.863594259164e+01  -5.555360875242e+00   5.971302651114e+01 
1 -1.732326552805e+01  -1.795084605869e+01  -3.311579128874e+01 
8
Step 7000
1 -1.963039820102e+01  -1.374755473361e+01   2.321714896005e+01 
1  3.576214973572e+00   3.878525055819e+01  -3.532871415564e+01 
1 -1.014978837249e+01   3.241444132125e+01  -2.340931528076e+00 
1 -1.263635955144e+01   1.804136261007e+01  -3.679171008178e+01 
1 -7.973303885028e+01  -2.411998000965e+00  -3.837766317309e+01 
1 -4.189284139448e+01  -8.654518106310e+00   2.435901166986e+01 
1 -1.267528947747e+01   1.752483119232e+01   5.095393633681e+01 
1 -1.289054138831e+01   6.896883728999e+00  -2.397998942874e+01 
8
Step 8000
1 -3.515818663218e+01  -1.722324465003e+01   1.667909165107e+01 
1 -1.148457269592e+01   5.445705910237e+01  -2.313281809675e+01 
1  8.123382363007e+00   1.917072665269e+01   1.041380804229e+00 
1  9.127149455201e+00   1.212030220759e+01  -1.505271711279e+01 
1 -8.401401518394e+01  -1.266922315578e+01  -5.575256648645e+01 
1 -5.950014865588e+01  -7.395991670809e+00   1.975663644769e+01 
1 -5.695035332106e+00   3.397767089499e+01   2.522761165670e+01 
1 -3.902970604306e+00   2.568481408994e+01  -5.491771029164e+00 
8
Step 9000
1 -3.358576709766e+01  -2.491398666821e+01   4.074183439856e+00 
1 -2.066494063411e+01   4.494330072530e+01  -6.500233090914e+00 
1  2.061502577130e+01   3.941101931873e+00   4.811713283870e+00 
1  2.948729367966e+01  -7.868437639950e-01   7.126458442944e+00 
1 -5.465484885139e+01  -1.851283751216e+01  -5.302526680211e+01 
1 -6.007970523420e+01  -8.756197445101e+00   1.624589685329e+01 
1  2.397201092812e-01   3.919683880037e+01  -1.094822795360e+01 
1  8.637981229512e+00   3.255631033273e+01   1.442615405954e+01 
8
Step 10000
1 -1.759333640456e+01  -3.226340469745e+01  -8.440543226164e+00 
1 -1.925749222515e+01   1.500803949563e+01   9.077972474306e+00 
1  2.452448266724e+01  -9.206297856492e+00   4.543813368014e+00 
1  4.130618461123e+01  -1.752577054421e+01   2.220883100970e+01 
1  4.000742561404e+00  -1.480707947209e+01  -2.822562233210e+01 
1 -4.155960473549e+01  -1.543099346826e+01   1.490200303012e+01 
1  4.608902831116e+00   3.193881058519e+01  -4.605319307884e+01 
1  2.147921624469e+01   2.711148783298e+01   2.745101698681e+01 
8
Step 11000
1  6.333477384903e+00  -3.027730488823e+01  -1.809816383513e+01 
1 -7.882653506783e+00  -2.139152525454e+01   2.030979495538e+01 
1  1.868357646932e+01  -1.759941311989e+01  -2.656100262627e+00 
1  3.916798389725e+01  -3.276209837687e+01   2.731949655130e+01 
1  5.818127818664e+01  -3.157674248816e+00   4.263460064220e+00 
1 -6.767613014361e+00  -2.578650834066e+01   1.349362157349e+01 
1  8.145031215762e+00   1.512235767574e+01  -6.768189724258e+01 
1  3.032463419477e+01   1.259052687969e+01   2.837844152157e+01 
8
Step 12000
1  2.858864920945e+01  -1.312538581309e+01  -2.253063477831e+01 
1  6.922498462442e+00  -4.674622375780e+01   2.585547601689e+01 
1  4.529754167773e+00  -2.021347565218e+01  -1.704605245380e+01 
1  2.031420858641e+01  -4.000011521419e+01   2.336619123984e+01 
1  7.851492448328e+01   7.465812401432e+00   2.521459214334e+01 
1  3.345651856963e+01  -3.356524501036e+01   8.719094510610e+00 
1  1.185837806851e+01  -6.359054406342e+00  -6.736868941844e+01 
1  3.077985871944e+01  -5.742171870233e+00   1.675616938251e+01 
8
Step 13000
1  3.937788492910e+01   1.477376660760e+01  -1.865787584064e+01 
1  1.779874450527e+01  -4.987181460686e+01   2.546569789137e+01 
1 -1.315815921419e+01  -1.744394453206e+01  -3.432918826840e+01 
1 -1.402314990198e+01  -3.222743782039e+01   1.314816894327e+01 
1  6.634661020125e+01   1.119888781557e+01   3.043037185701e+01 
1  6.372596437775e+01  -3.166900510544e+01  -2.635811890451e-01 
1  1.643866616155e+01  -2.794987591070e+01  -4.229958780690e+01 
1  1.932724747672e+01  -2.165022858098e+01  -3.632297324318e+00 
8
Step 14000
1  3.414278882912e+01   4.188134563094e+01  -7.578530475767e+00 
1  2.023329182765e+01  -3.036393170278e+01   2.039499250703e+01 
1 -2.718889977261e+01  -1.064111768306e+01  -4.562059093243e+01 
1 -5.267785245573e+01  -6.625601566494e+00   1.574754428020e+00 
1  3.454569177406e+01   6.656952946686e+00   2.395164704555e+01 
1  7.328906463668e+01  -1.676337376736e+01  -1.122212648188e+01 
1  2.067859023724e+01  -4.452671509093e+01   2.180112323778e+00 
1 -3.708246739524e+00  -3.016642919083e+01  -2.505870649455e+01 
8
Step 15000
1  1.592423625691e+01   5.627526030646e+01   5.769586064694e+00 
1  1.288374180444e+01   2.453268099959e+00   1.214722012234e+01 
1 -3.068105750809e+01  -1.464873925843e+00  -4.123763357310e+01 
1 -7.551387040996e+01   2.804401405421e+01  -5.983166652196e+00 
1  6.862461818573e-01  -3.731373325060e+00   1.259150305154e+01 
1  5.871254415120e+01   1.019552757092e+01  -2.056537100869e+01 
1  2.089595754110e+01  -5.064927137266e+01   4.802067439663e+01 
1 -3.212626824104e+01  -2.909755777833e+01  -3.800931583793e+01 
8
Step 16000
1 -6.731147231513e+00   5.138023000945e+01   1.598340410628e+01 
1 -1.166514821339e+00   3.241166771024e+01   1.734422900804e+00 
1 -1.969366309294e+01   8.272551908312e+00  -1.513431522779e+01 
1 -6.933199936958e+01   5.634011710693e+01  -8.295773199243e+00 
1 -1.996253616099e+01  -1.414366545528e+01   3.239172946880e+00 
1  2.399039849608e+01   4.254934215061e+01  -2.448307296871e+01 
1  1.380416436027e+01  -4.462639376672e+01   7.496781599538e+01 
1 -5.588200672342e+01  -1.963637795962e+01  -3.626967348158e+01 
8
Step 17000
1 -2.389143119421e+01   2.939212368765e+01   1.936898600846e+01 
1 -1.485825510762e+01   4.527771755710e+01  -9.912770112861e+00 
1  3.066862065132e+00   1.607097417577e+01   2.865130577914e+01 
1 -3.518199011353e+01   6.557535513467e+01  -8.422472449484e+00 
1 -2.254789772000e+01  -1.865878677758e+01  -8.628668114248e-01 
1 -1.694001390530e+01   6.669965002087e+01  -2.096939701783e+01 
1 -1.533131629359e+00  -2.835281715849e+01   7.373903096270e+01 
1 -6.499681171232e+01  -5.622110672991e+00  -2.039396580926e+01 
8
Step 18000
1 -2.892543767098e+01   7.673436277542e-01   1.558587701234e+01 
1 -2.196739968777e+01   3.541385544513e+01  -2.212761576854e+01 
1  2.591514646676e+01   1.906218966582e+01   7.045449026110e+01 
1  1.180968755882e+01   5.051791186959e+01  -1.028871105465e+01 
1 -1.141335862694e+01  -1.385981620131e+01  -7.927311652356e-01 
1 -4.720250004626e+01   7.012941415914e+01  -1.181664918363e+01 
1 -2.327234920213e+01  -3.991611022630e+00   4.643114025634e+01 
1 -5.172953561530e+01   8.419132493150e+00   2.438954326849e+00 
8
Step 19000
1 -2.234273662979e+01  -2.195206798338e+01   8.143501816334e+00 
1 -1.954299715655e+01   4.979950967583e+00  -3.390985361787e+01 
1  3.721052163415e+01   1.584083361703e+01   8.941155905131e+01 
1  4.675384246318e+01   1.924318878020e+01  -1.473027298068e+01 
1  4.405855324956e+00  -2.620364299960e-01   6.722145672297e-04 
1 -5.833594170010e+01   4.864685210401e+01  -3.348753473747e-01 
1 -4.379364827892e+01   2.434401333458e+01   6.328747940465e+00 
1 -1.581137544966e+01   1.966301069756e+01   2.164492429204e+01 
8
Step 20000
1 -1.009580849386e+01  -3.202974857838e+01   1.424533806125e+00 
1 -7.380839116683e+00  -3.396090557700e+01  -4.102182246560e+01 
1  3.253558263992e+01   6.960282356950e+00   7.693791952940e+01 
1  5.395403014825e+01  -1.133086985188e+01  -1.856875936964e+01 
1  1.562952745893e+01   1.832202020175e+01  -1.144898369472e+00 
1 -4.982603781070e+01   4.433999258507e+00   1.090250662486e+01 
1 -5.194612679527e+01   4.839377957917e+01  -2.608324591659e+01 
1  2.871109054508e+01   2.643255012605e+01   2.854607045388e+01 
8
Step 21000
1  1.558011262242e+00  -2.961811734024e+01  -2.086836726495e+00 
1  1.041560439750e+01  -6.155306442242e+01  -3.685702046489e+01 
1  1.346407253718e+01  -4.916626840184e+00   3.615588804781e+01 
1  3.734680496815e+01  -2.901246724839e+01  -1.774744089376e+01 
1  1.567595353745e+01   3.728006877163e+01  -5.446027206017e+00 
1 -2.829581247714e+01  -4.873626186774e+01   1.928045250520e+01 
1 -4.246552273590e+01   6.049740505975e+01  -3.767737740687e+01 
1  6.319095906237e+01   2.834752002373e+01   2.286020293932e+01 
8
Step 22000
1  8.313862238191e+00  -1.841990246080e+01  -2.038745918555e+00 
1  2.636075424140e+01  -6.328882302598e+01  -1.733179754842e+01 
1 -1.013780602129e+01  -1.449408160499e+01  -1.398427657040e+01 
1  1.145846926506e+01  -3.111450416634e+01  -1.052666969308e+01 
1 -3.708020096823e-01   5.135213245582e+01  -1.322751866988e+01 
1 -8.007996962059e+00  -8.555326614074e+01   2.306701863780e+01 
1 -1.786608246919e+01   5.667533594049e+01  -2.839741397128e+01 
1  7.631628948282e+01   2.634034109668e+01   1.239980133455e+01 
8
Step 23000
1  8.555510038696e+00  -3.878131835526e+00  -5.819297499094e-02 
1  3.325618979460e+01  -3.649681354462e+01   1.587052204700e+01 
1 -2.587634521324e+01  -1.704638875365e+01  -4.951873680989e+01 
1 -9.726983410355e+00  -2.170370160783e+01   1.924292717156e+00 
1 -2.949114164391e+01   5.003673789856e+01  -2.100718977668e+01 
1  1.454689904274e+00  -9.229506266135e+01   2.323485403113e+01 
1  1.319915678981e+01   3.650261929466e+01  -7.460600371645e+00 
1  6.413347889593e+01   2.061086089209e+01   7.745611250575e+00 
8
Step 24000
1  3.888262824469e+00   8.051384494784e+00   8.495700777003e-01 
1  2.799486128634e+01   6.578049282057e+00   5.046864203306e+01 
1 -2.943886327334e+01  -1.167918110163e+01  -6.138476228876e+01 
1 -1.824263098612e+01  -7.151747217735e+00   1.557296159137e+01 
1 -5.360722601494e+01   2.835026905192e+01  -2.222715357552e+01 
1  6.500355744647e-01  -7.024803223737e+01   2.095274774093e+01 
1  3.712005072036e+01   6.589035156766e+00   1.123780519969e+01 
1  2.894844794483e+01   9.850398910921e+00   1.419238062138e+01 
8
Step 25000
1 -1.509892073739e+00   1.329524799911e+01  -2.441574434783e+00 
1  1.457331582971e+01   4.197586174817e+01   6.858840845628e+01 
1 -2.173978681190e+01  -3.242954733561e-01  -5.149772551415e+01 
1 -1.245514129201e+01   7.011502331190e+00   2.468809245127e+01 
1 -5.610635755201e+01  -5.774367743085e+00  -1.415506564038e+01 
1 -3.911459111312e+00  -2.862742886771e+01   1.576566116831e+01 
1  4.444072954250e+01  -2.100343737768e+01   1.771494299471e+01 
1 -1.604598617318e+01  -5.120338303710e+00   2.706571720685e+01 
8
Step 26000
1 -2.976039451827e+00   1.121165901675e+01  -1.162561355342e+01 
1 -1.920431555593e-01   5.373437618816e+01   6.247970649804e+01 
1 -5.607605973986e+00   1.280828588321e+01  -2.650294259884e+01 
1  3.765957268769e+00   1.637417772187e+01   2.401791089126e+01 
1 -3.246308647725e+01  -3.768337699069e+01   5.750387491294e-01 
1 -3.942721411278e+00   1.566735904629e+01   6.961884934213e+00 
1  3.571917981575e+01  -3.708410188465e+01   1.131465240264e+01 
1 -5.041316267313e+01  -1.834703413287e+01   3.483928457091e+01 
8
Step 27000
1  2.982919056908e+00   3.603874931279e+00  -2.606467278762e+01 
1 -1.109088381859e+01   4.108910288001e+01   3.541423838829e+01 
1  1.310472222936e+01   2.203913949462e+01   2.463413597033e+00 
1  2.229295692998e+01   1.800057600138e+01   1.177337590620e+01 
1  6.475354926959e+00  -5.346047730710e+01   1.520430424488e+01 
1  4.480558073582e+00   4.554922313050e+01  -4.409802051838e+00 
1  1.749724664140e+01  -3.801828298024e+01  -1.924341916324e+00 
1 -6.237663659890e+01  -2.441505586820e+01   2.968114211938e+01 
8
Step 28000
1  1.710781204730e+01  -5.660635225961e+00  -4.010236344609e+01 
1 -1.528282186754e+01   1.575427629595e+01  -2.746333985953e-01 
1  2.713092807527e+01   2.265524505979e+01   2.471835410095e+01 
1  3.352516262786e+01   1.171223312418e+01  -8.475127319830e+00 
1  4.034841056803e+01  -4.886832961782e+01   2.327632056316e+01 
1  1.827549629984e+01   5.470507447562e+01  -1.582237022306e+01 
1 -1.720134027364e+00  -2.559536447251e+01  -1.316786419355e+01 
1 -5.147532751805e+01  -2.187063042919e+01   1.071564068779e+01 
8
Step 29000
1  3.222449737212e+01  -9.854241234874e+00  -4.114017711723e+01 
1 -1.406161835993e+01  -4.084499901694e+00  -2.661905130399e+01 
1  3.178882455323e+01   1.249998578325e+01   3.499313449947e+01 
1  3.044886081361e+01   2.530011306821e-01  -2.843891756437e+01 
1  5.366608811997e+01  -3.085354854286e+01   2.299738721826e+01 
1  3.039080571583e+01   4.711790375673e+01  -2.422408625477e+01 
1 -1.453856629159e+01  -6.404359615059e+00  -1.510085833295e+01 
1 -2.442799081673e+01  -1.202379344849e+01  -1.646045560539e+01 
8
Step 30000
1  3.766715005139e+01  -6.057697384568e+00  -2.161232996401e+01 
1 -1.090016020370e+01  -1.067979381106e+01  -3.629798952215e+01 
1  2.599104456479e+01  -7.605881188389e+00   3.363476134203e+01 
1  1.198662127917e+01  -1.177262825025e+01  -3.844052704699e+01 
1  4.180074167822e+01  -9.674004887262e+00   1.601509215873e+01 
1  3.408731350433e+01   3.067879214187e+01  -2.654777869038e+01 
1 -1.753457582911e+01   1.105086922945e+01  -5.568588577722e+00 
1  5.757964505617e+00   4.809662857717e-01  -3.962135382550e+01 
8
Step 31000
1  2.790377571798e+01   2.170144274759e+00   1.322078771935e+01 
1 -7.187913942534e+00  -7.391744038415e+00  -3.210971794190e+01 
1  1.148460794447e+01  -3.204283056876e+01   2.447192648549e+01 
1 -1.601290759311e+01  -1.930498519227e+01  -3.197830427378e+01 
1  1.150910088339e+01   5.965703737346e+00   5.611736728377e+00 
1  2.606109063641e+01   1.251176784367e+01  -2.078007054974e+01 
1 -1.202788838688e+01   1.977886157373e+01   1.155097540056e+01 
1  2.598445166516e+01   9.237403895815e+00  -4.698399559297e+01 
8
Step 32000
1  6.275368806382e+00   7.942650181071e+00   4.630294817418e+01 
1 -2.613196769761e+00   8.937664676567e-01  -1.645041459861e+01 
1 -7.821400335650e+00  -4.998068498806e+01   1.309740006747e+01 
1 -4.213301858298e+01  -1.888071793956e+01  -9.982412184504e+00 
1 -2.047370980076e+01   1.214483043959e+01  -3.930193718412e+00 
1  7.976612830580e+00  -2.873672408199e+00  -7.419499808954e+00 
1 -2.946554840940e+00   1.704739015052e+01   2.791343824072e+01 
1  3.200901750118e+01   1.071502349841e+01  -3.643111488018e+01 
8
Step 33000
1 -1.691392855095e+01   6.322820613044e+00   5.963221261722e+01 
1  3.400041213719e+00   8.551324778896e+00   7.423229255597e+00 
1 -2.617027648554e+01  -5.118040753571e+01   4.367517468205e+00 
1 -5.460067611919e+01  -1.061886377665e+01   1.771872150775e+01 
1 -3.815988032030e+01   1.246483866275e+01  -1.028308996202e+01 
1 -1.389136826669e+01  -1.348662196830e+01   9.680582769620e+00 
1  3.665022203309e+00   5.397536186482e+00   3.456766638521e+01 
1  2.728410948765e+01   6.204232442923e+00  -1.448086515984e+01 
8
Step 34000
1 -3.181007673101e+01  -2.557666027665e+00   4.539715335064e+01 
1  1.032251087311e+01   1.156240714906e+01   3.349848951375e+01 
1 -3.806364072832e+01  -3.088457785727e+01  -8.313269237767e-01 
1 -4.761520263605e+01   1.389965086564e+00   3.760140614659e+01 
1 -3.622625733731e+01   1.332287661940e+01  -1.411127448300e+01 
1 -3.141561166038e+01  -1.967423154046e+01   2.449435243021e+01 
1  3.352286139672e+00  -9.224018975191e+00   2.567691133793e+01 
1  1.770043216335e+01  -9.185924868834e-02   9.705642945302e+00 
8
Step 35000
1 -3.302936793024e+01  -1.384876243834e+01   7.938712005983e+00 
1  1.588303741094e+01   9.078934489221e+00   5.305288815091e+01 
1 -4.025430492866e+01   8.325260349923e+00  -5.104787794516e+00 
1 -2.310202189008e+01   1.099567817595e+01   3.982024141278e+01 
1 -1.849645931045e+01   1.752867532517e+01  -1.586582205103e+01 
1 -3.876434771737e+01  -2.293269544844e+01   3.161638608758e+01 
1 -5.376005118465e+00  -1.986431235870e+01   3.567788186555e-01 
1  7.753269827280e+00  -4.111375167639e+00   2.832577689901e+01 
8
Step 36000
1 -2.183616198524e+01  -1.986872288605e+01  -3.534131941093e+01 
1  1.705945300176e+01   2.170878789254e+00   5.793743872817e+01 
1 -3.155085091814e+01   5.170137192218e+01  -1.112223253628e+01 
1  9.879673932431e+00   1.317893053867e+01   2.285789878112e+01 
1  4.019086557629e+00   2.367071718515e+01  -1.499303213029e+01 
1 -3.416181605418e+01  -2.416029361370e+01   2.805670356720e+01 
1 -1.947970145801e+01  -2.047002465466e+01  -3.491014627997e+01 
1 -6.247522758062e-01  -3.206728971334e+00   3.553783268738e+01 
8
Step 37000
1 -6.331046269157e+00  -1.563240049019e+01  -6.258998357199e+01 
1  1.101611014260e+01  -7.068388355440e+00   4.316577198177e+01 
1 -1.397258097893e+01   7.928127675466e+01  -1.887345086711e+01 
1  3.794416350189e+01   7.524613267263e+00  -3.898433583127e+00 
1  1.949762724706e+01   2.695267935558e+01  -1.114749460529e+01 
1 -1.918398079744e+01  -2.292955651417e+01   1.356669891360e+01 
1 -3.076658653449e+01  -9.122094972079e+00  -6.613265661956e+01 
1 -7.351606238967e+00   3.889529959347e+00   2.798395662335e+01 
8
Step 38000
1  4.826003622401e+00  -2.626068730879e+00  -6.271142119465e+01 
1 -3.143499177448e+00  -1.432295386144e+01   8.310093959899e+00 
1  7.465808958428e+00   7.940139938997e+01  -2.622058789660e+01 
1  5.144589117175e+01  -9.340508982351e-01  -2.480352406767e+01 
1  2.262564379024e+01   2.261972109160e+01  -4.506216986352e+00 
1  1.915104524843e+00  -1.785811490838e+01  -8.684707314910e+00 
1 -2.934597254365e+01   1.061797510844e+01  -7.924239755706e+01 
1 -1.243006851137e+01   1.559472633889e+01   6.772385564882e+00 
8
Step 39000
1  7.334498507102e+00   1.345051326702e+01  -3.754357945573e+01 
1 -2.044794175697e+01  -1.488379132841e+01  -3.736796955109e+01 
1  2.737680731373e+01   5.078003052707e+01  -2.919057339804e+01 
1  4.862811613605e+01  -5.252061819094e+00  -2.799814998939e+01 
1  1.452038884944e+01   9.425532341370e+00   4.055078518417e+00 
1  2.296032159215e+01  -7.666519206707e+00  -3.167133405912e+01 
1 -8.682069215641e+00   3.217189282771e+01  -6.587503428692e+01 
1 -1.576608202544e+01   2.686400124344e+01  -2.183496191548e+01 
8
Step 40000
1  2.429858141357e+00   2.476426298294e+01   8.599354625473e-01 
1 -3.132293756827e+01  -8.181247442853e+00  -7.516525538792e+01 
1  4.043403194625e+01   4.291058630806e+00  -2.360865782313e+01 
1  3.242011740082e+01  -6.027036477179e-01  -1.027809030421e+01 
1  3.946809191864e-01  -9.539362094769e+00   1.242567768573e+01 
1  3.806098989311e+01   7.955646284245e+00  -4.713141712794e+01 
1  2.877052636718e+01   4.593603210107e+01  -2.559182699840e+01 
1 -1.694467078252e+01   3.101776705531e+01  -4.821488826391e+01 
8
Step 41000
1 -3.439330400608e+00   2.442026373842e+01   3.452992493599e+01 
1 -2.888860710178e+01   2.253722892004e+00  -9.087164783449e+01 
1  4.195053231525e+01  -3.799836085446e+01  -9.766557472326e+00 
1  8.632859928248e+00   1.266410539688e+01   2.059670447050e+01 
1 -1.211217579729e+01  -2.764407334011e+01   1.784676158172e+01 
1  4.397509083026e+01   2.783684027646e+01  -4.866069890551e+01 
1  6.361493394729e+01   4.271991878036e+01   2.291592169518e+01 
1 -1.371871670078e+01   2.264768246376e+01  -6.170763370308e+01 
8
Step 42000
1 -2.782107495071e+00   1.246385751567e+01   5.007505009426e+01 
1 -1.201817175040e+01   1.215114468090e+01  -7.953831409135e+01 
1  3.244696860244e+01  -5.929754561278e+01   6.789459730472e+00 
1 -1.479850833234e+01   2.727832834769e+01   4.685318888548e+01 
1 -1.690984197168e+01  -3.732081632679e+01   1.808778476681e+01 
1  4.002560672484e+01   4.823245142372e+01  -3.301716253445e+01 
1  7.491978572547e+01   2.549690128374e+01   5.311183769372e+01 
1 -3.855568717759e+00  -1.203306044291e+00  -5.336008681770e+01 
8
Step 43000
1  7.206005891819e+00  -4.134720380348e+00   4.427654372483e+01 
1  1.425428975176e+01   1.754844605270e+01  -4.241568634181e+01 
1  1.702725999029e+01  -5.721903518281e+01   2.048731762469e+01 
1 -3.202543037038e+01   3.385860074571e+01   5.274259645623e+01 
1 -1.230301351724e+01  -3.297148036830e+01   1.176597320327e+01 
1  2.681809312321e+01   6.183531616337e+01  -2.016610383312e+00 
1  6.111433214801e+01   4.478270491757e+00   5.802071859487e+01 
1  1.091488929916e+01  -3.684217246839e+01  -2.145937427862e+01 
8
Step 44000
1  2.272680267611e+01  -1.704350585451e+01   2.300176633254e+01 
1  3.768719810579e+01   1.629859749640e+01   8.223494964862e+00 
1 -6.206146668308e-01  -3.753979839545e+01   2.720270092426e+01 
1 -4.046139395779e+01   2.645466019627e+01   3.259165199192e+01 
1 -1.047543476024e-01  -1.233549638831e+01  -1.483968110097e+00 
1  6.707938026650e+00   6.043007751035e+01   3.477794026794e+01 
1  3.056918156063e+01  -1.251154965182e+01   4.335444862905e+01 
1  2.447248778696e+01  -6.772412538969e+01   2.125429838734e+01 
8
Step 45000
1  3.485277554754e+01  -2.028012048704e+01  -2.411183150447e+00 
1  4.530186219187e+01   1.044409158902e+01   4.949905861079e+01 
1 -1.711863500810e+01  -1.098396817746e+01   2.457701142268e+01 
1 -3.873192356849e+01   4.938766708970e+00  -7.930898339878e+00 
1  1.474775244054e+01   2.105787137793e+01  -1.905965110887e+01 
1 -1.549694037263e+01   4.030467567709e+01   6.251675568686e+01 
1 -6.315817426601e+00  -2.006522425250e+01   1.754402833195e+01 
1  3.086121866767e+01  -7.548528832640e+01   5.473471410085e+01 
8
Step 46000
1  3.470684434699e+01  -1.340508633232e+01  -2.105564067547e+01 
1  3.511197207195e+01   5.005915581353e+00   6.645945858770e+01 
1 -2.744830803898e+01   1.100569219710e+01   1.386356642177e+01 
1 -2.749689909225e+01  -2.175288814511e+01  -4.920866125898e+01 
1  2.415061418011e+01   5.475734464264e+01  -3.446919175936e+01 
1 -3.387838609186e+01   5.508671154512e+00   6.939976244539e+01 
1 -3.693355697921e+01  -1.622916294092e+01  -7.682435765375e+00 
1  2.654205111314e+01  -5.559336947412e+01   6.614372516179e+01 
8
Step 47000
1  1.822182401691e+01  -1.570313062819e+00  -2.694794846071e+01 
1  1.687655719679e+01   2.417485395453e+00   6.255588345080e+01 
1 -2.871717451744e+01   2.241096946622e+01  -6.818076000053e-01 
1 -1.099969308671e+01  -3.976597388909e+01  -6.914253404218e+01 
1  2.184853558981e+01   7.312305979880e+01  -4.074026136938e+01 
1 -4.362584125763e+01  -3.255976301972e+01   5.327656774668e+01 
1 -5.193500778827e+01  -3.463598840195e+00  -2.234142868104e+01 
1  1.269333555661e+01  -1.607160353845e+01   5.329370234537e+01 
8
Step 48000
1 -1.097298387356e+01   7.593982880059e+00  -1.957676641544e+01 
1  6.483955030991e-02   9.910794908505e-01   4.750169940919e+01 
1 -2.116615834239e+01   2.302052309402e+01  -1.477643162717e+01 
1  5.782606594525e+00  -4.235897304409e+01  -6.197224140354e+01 
1  7.261432454250e+00   6.542996221293e+01  -3.335345914085e+01 
1 -4.303990515964e+01  -5.885992746012e+01   2.329569356263e+01 
1 -4.737031880205e+01   1.242276970702e+01  -2.200946296846e+01 
1 -2.574909631321e+00   2.414192314851e+01   2.830289094976e+01 
8
Step 49000
1 -4.145762584745e+01   8.539054556186e+00  -4.342159502633e+00 
1 -1.019424477868e+01  -2.713157104807e+00   2.785242271158e+01 
1 -5.150691412654e+00   1.584862314441e+01  -2.473169126912e+01 
1  1.816534265717e+01  -3.129605066219e+01  -3.663282229552e+01 
1 -1.437782689716e+01   2.902410870238e+01  -1.125970279178e+01 
1 -3.400644823910e+01  -6.472627224342e+01  -5.362676735270e+00 
1 -2.426464775401e+01   2.391560062658e+01  -7.406156297827e+00 
1 -1.113657150457e+01   4.719620316179e+01   7.990742869068e+00 
8
Step 50000
1 -5.919042759427e+01   1.164735961132e+00   1.025168897654e+01 
1 -1.239799298278e+01  -1.090895604502e+01   7.340040728848e+00 
1  1.668231657836e+01   6.533504578205e+00  -2.671167197797e+01 
1  2.325459401846e+01  -1.338140914082e+01  -7.571355543699e+00 
1 -3.117791951196e+01  -2.103603345447e+01   1.730843211970e+01 
1 -2.055969835161e+01  -5.241492080081e+01  -2.231192998284e+01 
1  1.071672417415e+01   2.422160044728e+01   1.580709105401e+01 
1 -1.202067977222e+01   5.034299442479e+01  -3.981014786049e+00 
8
Step 51000
1 -5.474694977257e+01  -9.451088763964e+00   1.774388226674e+01 
1 -8.115357325625e+00  -2.224996288052e+01  -1.165534821529e+01 
1  3.654790111818e+01   9.295347818368e-01  -1.896086861893e+01 
1  2.154317059252e+01   3.971727331467e+00   1.426897284302e+01 
1 -3.326681868146e+01  -5.736670348902e+01   3.806235990626e+01 
1 -6.599122504027e+00  -2.953620604513e+01  -2.576522983414e+01 
1  4.319247576770e+01   1.120671561446e+01   3.397653180260e+01 
1 -5.765629881159e+00   3.567089256397e+01  -8.211225153592e+00 
8
Step 52000
1 -2.583602748305e+01  -1.617634982051e+01   1.567022065373e+01 
1 -1.349536067141e+00  -3.214005350636e+01  -2.746158207114e+01 
1  4.696766618972e+01   9.560420658109e-01  -3.170253394489e+00 
1  1.449679810756e+01   1.609976352478e+01   2.493405608575e+01 
1 -2.212387309711e+01  -6.695607803281e+01   4.499937754199e+01 
1  4.889149421279e+00  -3.861123416994e+00  -1.945689851760e+01 
1  5.897196847216e+01  -9.865528849248e+00   3.393850746381e+01 
1  5.699358533036e+00   6.675497627214e+00  -5.036438355463e+00 
8
Step 53000
1  2.017868180794e+01  -1.269896764469e+01   5.737205696956e+00 
1  3.280550964580e+00  -3.424983720110e+01  -3.878818333673e+01 
1  4.255041751043e+01   5.052157101488e+00   1.896507848561e+01 
1  3.797680439188e+00   2.017108108625e+01   2.504951180026e+01 
1 -4.962402095082e+00  -5.239482863556e+01   4.025502910442e+01 
1  1.192996604522e+01   1.848780012839e+01  -9.045141762091e+00 
1  5.264198218664e+01  -2.932859488799e+01   1.348621553604e+01 
1  1.759703969114e+01  -2.862646438294e+01   1.111650729828e+00 
8
Step 54000
1  6.311138886171e+01   1.777071123688e+00  -5.518680563419e+00 
1  3.054874238309e+00  -2.314041004273e+01  -4.358320361329e+01 
1  1.821375093284e+01   9.104659835360e+00   4.449431839737e+01 
1 -7.612807793593e+00   1.539658342554e+01   1.816914366141e+01 
1  1.022438527651e+01  -2.356208733943e+01   2.877038698865e+01 
1  1.382989361093e+01   3.389998369222e+01   5.229759748208e-01 
1  2.836463396301e+01  -3.739773368068e+01  -1.808525216575e+01 
1  2.408691043415e+01  -5.787365731092e+01   5.105945375753e+00 
8
Step 55000
1  8.233871811601e+01   1.991576087828e+01  -1.140383317638e+01 
1 -2.211696408884e+00   3.408433393893e+00  -3.865999115374e+01 
1 -2.259769134658e+01   7.520857418125e+00   6.370619107125e+01 
1 -1.606936843600e+01   4.067606370245e+00   1.005752401100e+01 
1  1.760908486154e+01   6.361986239819e+00   1.584668320748e+01 
1  1.157578372728e+01   4.075509300661e+01   6.174036545762e+00 
1 -1.239387447213e+00  -2.960220554717e+01  -4.375703536831e+01 
1  2.110199376368e+01  -6.984706571904e+01   4.596140687768e+00 
8
Step 56000
1  7.061766493943e+01   3.187347681795e+01  -1.009885286456e+01 
1 -9.937567109130e+00   4.046093483444e+01  -2.131186846553e+01 