8
Step 0
1  7.395189469585e+00   2.868572838882e+01  -2.182869978595e+01 
1  3.581768520100e+01  -5.040078629445e+01  -1.872152468762e+01 
1 -8.956057854562e+00   4.753479582038e+00   1.574679953468e+00 
1  1.977878075509e+01   3.607585693886e+01  -2.422827477529e+01 
1  7.002853144553e+01   7.647335132185e+01   2.165794942044e+00 
1  2.570063494682e+01  -1.914862205628e+01   1.732125061436e+00 
1  5.826318678326e+01  -1.353795077675e+01  -5.974027404880e+01 
1  5.370653369435e+01  -9.140397982714e+00  -5.549262301199e+01 
8
Step 1000
1 -3.270530276303e+01   2.547906775935e+01  -3.581506623421e+01 
1  1.116276419622e+01  -4.425819313060e+01   9.523355965594e+00 
1  2.887408382850e+01  -5.559079990680e+00   3.269686916257e+01 
1  9.714404041848e+00  -1.531229146586e+01  -6.337527926693e+01 
1  3.582133481980e+01   2.215390740369e+01   1.592034894006e+01 
1  1.189447928208e+01  -4.616472351696e+01   2.556441188350e+00 
1 -5.444116802963e+00   2.280519835887e+01  -4.524726588636e+01 
1 -4.933496045704e+01   1.850745168639e+01  -3.930795432303e+01 
8
Step 2000
1  1.759130971339e+01  -3.731762989281e+01  -2.950626554139e+01 
1  2.619082986796e+01  -5.910941444107e+00  -2.821601049842e+01 
1 -1.138638541206e+01   1.374979608916e+01   2.037815594710e+00 
1 -1.767327692186e+01   2.721469224256e+01  -3.519225131320e+01 
1 -1.505921421076e+01  -1.564985387937e+01  -2.215418442494e+01 
1  1.109313554171e+01  -1.268194980278e+01   3.974928869297e+01 
1  1.323492525046e+01   3.191227721651e+01   1.090260014367e+01 
1  2.420124908469e+01  -1.474471830135e+01  -3.769210930987e+01 
8
Step 3000
1  4.939694562241e+01   2.902892748275e+01  -9.910521557472e+00 
1 -5.070885001332e+00  -6.137682490215e+01  -9.493549672642e-01 
1 -6.814431905156e+01   8.727806220166e+01  -2.095575030656e+01 
1  1.110137753476e+01   5.357274435766e+00   3.257019287804e+01 
1  2.274855860138e+01  -8.708873961246e+00  -1.729134724570e+01 
1 -9.574564932778e+00   9.791158757107e+00   2.370280745541e+01 
1 -4.122510093351e+01  -3.156892830328e+00  -3.707684089124e+01 
1  3.327782741193e+01  -2.467558528638e+01  -2.505664654167e+01 
8
Step 4000
1  4.649750216715e+01   2.529138489470e+01   3.760175611655e+00 
1 -1.753583376171e+01   7.824766506371e+00  -9.327084033859e+00 
1  1.359931524347e+01   2.243546288711e+01  -1.112672873043e+01 
1  2.662192006864e+01  -9.989383759362e+00  -1.262118336995e+01 
1 -4.152313177875e+00   2.191036936191e+00  -2.387946310346e+00 
1  6.095386605150e+00   9.942331608608e+00   6.992030086168e+01 
1 -3.023797393704e+00   3.981796710315e+00  -1.420254691750e+01 
1  1.874078316807e+00   1.872198718902e+01  -2.012981485098e+01 
8
Step 5000
1  3.686030554547e+01  -5.440920524256e+01  -1.458553182818e+01 
1  2.320450746577e+00   3.465607691948e+01   5.300975535374e+01 
1 -1.062032522857e+01  -1.465199046138e+01   5.193041996422e-01 
1  4.191733784288e+01   4.298600178910e+01  -2.116450347487e+01 
1 -1.657036634376e+01   2.484306148381e+01  -1.521083879957e+01 
1 -2.643529389937e+01  -5.256348543503e+01   6.559856105572e+01 
1 -2.689937829242e+01  -3.160615536325e+01   2.451233994674e+01 
1  5.175724599103e+00   6.504167446013e+01  -4.763251896875e+00 
8
Step 6000
1 -3.088829901042e+01  -8.780587631533e+00   7.764745186929e+00 
1  4.249534295392e+01  -6.277524900142e+00  -2.023060434767e+01 
1 -7.367847291934e+01   3.934414062398e+01  -9.330542391133e+00 
1  2.506077907253e+01  -4.086960514368e+01  -2.708930316900e+01 
1  7.633362999942e+00  -5.481591194736e+00   1.080325455722e+01 
1 -7.205370635290e+01  -4.305543217512e+01   2.079276055118e+01 
1 -6.841686436827e+01  -4.875513691193e+01   3.003269567078e+01 
1 -6.650078289718e+00  -2.265775204582e+01  -3.099892041055e+01 
8
Step 7000
1  9.953375564841e+00  -5.613346427283e-01   4.127938847060e+01 
1  1.127727730066e+01   1.578650511450e+01  -6.581684889371e+00 
1 -1.165635905849e+01   5.964226023553e+01   1.932579786866e+01 
1 -1.704991897867e+01  -5.530231423141e+01   2.005593126733e+01 
1  2.321751759992e+01   3.698828425317e+01   2.100477797890e+01 
1  5.803962706655e+01  -2.095772271542e+01  -1.425494285878e+01 
1  6.009012999521e+01  -1.928490308928e+01  -2.355835445175e+00 
1  1.576868477113e+01  -9.878072452152e+01  -8.584804628699e+00 
8
Step 8000
1 -3.498148259391e+01   1.836451281748e+01   5.571353064468e+01 
1 -9.857310548782e+00  -4.384232251600e+00   5.988422021286e+01 
1 -2.310089336889e+01   2.380140661134e+00  -4.298562060468e+01 
1 -2.110697963249e+01  -1.048648232979e+01   5.581593383113e+01 
1 -4.119209047981e+01   6.644186369247e+00   1.836073504434e+01 
1 -1.527548531108e+01  -2.277443818983e+01  -1.804576879928e+01 
1 -1.564071015655e+01  -8.219664508178e+00  -7.825469106198e+01 
1  2.160644998650e+01  -7.091004833712e+01   3.873322292457e+01 
8
Step 9000
1 -3.950469190612e+01  -6.204440081229e+01   1.321746024591e+01 
1 -2.630839071393e+01   1.847983338068e+01   4.835252711356e+00 
1 -3.037616529350e+00  -3.841341297547e+00   2.727141407714e+01 
1 -4.795200711620e+01   3.927980012740e+00   1.030547651047e+01 
1 -4.313314678957e+01  -9.015001610959e+01  -5.107110657838e+01 
1  4.382861897648e+01  -2.775225905899e+01   4.256616721182e+01 
1 -8.683040375738e+00  -4.197191396913e+01  -9.879761103964e+00 
1  7.805224590057e+00   2.594491430183e+00   3.697741727823e+01 
8
Step 10000
1 -7.938098507419e+01  -1.210389867820e+01   1.006186906814e+01 
1 -1.520117569443e+01   5.821174057163e+01   1.844165557609e+01 
1  1.313158078967e+01  -3.304490758098e+01   6.458563817735e+01 
1 -5.895743439668e+01  -1.855264273732e+00   1.328231643142e+01 
1  3.152209575362e+01  -8.173852328296e+00  -2.347800553782e+01 
1  3.071862256090e+01  -7.749433581938e+01   5.128754832490e+00 
1 -7.044105444018e+00  -7.519794286729e+01  -7.709642791566e+00 
1  2.286570593293e+01  -6.054421206248e+01   1.132106763583e+01 
8
Step 11000
1 -5.421487349759e+01   2.510115538613e+01   1.683417148736e+01 
1  2.135948018055e+01   4.505826748384e+00  -2.807773694739e+01 
1  1.263045735382e+00   5.293411410783e+01  -1.884824634401e+01 
1 -2.394233100725e+01  -5.580131777690e+01   5.522389983982e+01 
1  1.481565370992e+01   5.901881430422e+00   1.287547465529e+01 
1 -4.394401909133e+00  -1.653133489968e+01  -3.788240551525e+01 
1  6.759623511255e+01  -3.127386916096e+01  -3.551296642823e+01 
1  3.941625957088e+01  -3.283753706448e+01   6.181584698460e+01 
8
Step 12000
1 -3.054345267977e+01  -5.950917060839e+00   2.529022334529e+01 
1 -2.350027347294e+01   3.010958353523e+01  -1.650459146339e+01 
1 -7.144928911558e+00   5.636002998933e+00  -1.218280101514e+00 
1 -1.874947788912e+01  -3.864915348586e+01   3.084758557007e+01 
1 -7.048442206969e+01   9.083092777401e+00  -3.078617827302e+01 
1  2.682362623611e+01   1.569067561341e+00  -2.430164694761e+01 
1  2.002105626593e+01  -3.468118435457e+01   2.234614993058e+01 
1 -2.987624179660e+01   4.264321990180e+01   2.575043694111e+01 
8
Step 13000
1 -4.417658932295e+01  -6.117122211246e+01  -4.100331382735e+01 
1 -4.246384788493e+01   4.932425026944e+01  -8.808854786485e-01 
1  3.978451610828e+01  -8.191290492243e+01  -2.551175875696e+01 
1 -1.527633681439e+01  -1.513701990407e+01   4.232151575378e+01 
1 -4.076383583423e+01  -2.355154594391e+01   1.997547791430e+01 
1 -1.859613532108e+01  -5.323088727948e+01  -2.517808317037e+01 
1  4.808135752303e+00  -3.848423175210e+01   3.615468384743e+01 
1  1.215872027844e+01   2.819073311120e+01   1.438895064302e+01 
8
Step 14000
1 -7.838727654352e+01  -4.587762802372e+00   4.532295922206e+01 
1 -2.572650394139e+01   5.179735797039e+01   8.976966157702e+00 
1  3.960781425963e+01   7.550334622032e+00   2.609187544481e+01 
1  6.441583361429e+00   3.663530903310e+01  -1.693991924955e+01 
1  2.056232360888e+01   2.054910556807e+01  -9.466429837474e+00 
1  6.561084518840e+00  -5.470557076085e+01   3.292922129819e+01 
1  5.394086954114e+00  -2.158522134277e+01   2.435902083888e-01 
1  8.992176006611e+01  -4.051880709844e+00   2.047304978523e+01 
8
Step 15000
1 -2.882435241920e+01   3.681921339329e+01   1.650441108458e+01 
1  7.021735373929e+00   3.213294163949e+01  -5.717970545393e+01 
1 -2.942898071866e+01  -3.038890241178e+01   3.015179619867e+01 
1  2.418762724885e+01  -2.956233523233e+01   1.031569975406e+01 
1 -3.595108645034e+01   3.002592389185e+01  -2.435426396741e+01 
1 -1.182711830177e+01   4.037617301004e+01   4.752213552524e+01 
1  2.587973248100e+01  -1.364807262430e+01  -4.086566175287e+01 
1  2.376857535317e+01   3.116412427870e+01   1.985542158543e+01 
8
Step 16000
1  2.236607206103e+01  -6.023437637879e+01  -4.535110517767e+01 
1  9.718198998068e+00   4.944288649291e+00  -3.108676158435e+01 
1 -4.082921285787e+00   3.288865199571e+01  -4.621379320525e+01 
1 -2.387552230603e+01  -2.204918428708e+01  -1.946009937572e+01 
1 -1.048099032876e+01  -1.744959992214e+01   6.440597358767e+00 
1 -6.291944417114e+01   4.765223315598e+01  -8.659939406128e-01 
1  1.166729990315e+00   6.379027077467e+01   2.406428866380e+00 
1  6.807292673033e+00   5.270552127833e+01   5.362998799922e+01 
8
Step 17000
1  1.171255661857e+01  -4.080904816602e+01  -3.040705533823e+01 
1 -2.248698798344e+01   2.781220089433e+01  -2.993524977831e+01 
1  3.768211475711e+01   4.326630143440e+01   4.712634984432e+01 
1 -3.746309117661e+00  -3.921533868968e+01   3.201039996572e+01 
1  4.814183557897e+00   2.415117339360e+01   1.417735913364e+01 
1 -2.665959931405e+01  -2.319176194270e+01   3.293027138865e+01 
1 -3.180554117285e+01   1.567507045283e+00   3.673932596439e+01 
1 -2.640907565977e+01  -1.087300676581e+00  -1.192477588721e+01 
8
Step 18000
1  1.183547471587e+01   4.757893586457e+00  -1.654080407163e+01 
1  1.425846308635e+01  -3.003203241324e+00  -1.763818050686e+01 
1 -4.110904269535e+00   6.246044571162e+01   4.365685225208e+01 
1  3.392541055986e+01   2.110040340054e+01  -1.974161776732e+01 
1 -3.347209553721e+00   5.860732906796e+01  -4.488373837263e+01 
1  6.129159266496e+01  -2.629221503313e+00  -3.412860138109e+01 
1  3.447167056748e+00   4.781894665118e+00   2.246001876675e+01 
1  3.341434628242e+01   5.152934760347e+01  -3.343838600390e+01 
8
Step 19000
1  1.816862174350e+01   1.178602774955e+01   2.219704981665e+01 
1 -1.027282745180e+01  -3.204492462990e+01  -9.881736579140e+00 
1 -9.363916762333e+00   1.917610686423e+01  -2.209354013283e+01 
1  1.279872818184e+01   1.867906421586e+01   2.488137807821e+01 
1  3.618006283208e-01  -4.670523384452e+01   1.511155001345e+01 
1  2.228649577730e+01   1.069598538543e+02  -3.107693844268e+01 
1 -4.528051937628e+01   2.145560536294e+01  -1.937584616351e+01 
1  4.841624600371e+01   2.086292799126e+01   2.315636513866e+01 
8
Step 20000
1 -6.715521599589e+00  -4.446751900576e+01  -1.772248460753e+01 
1 -5.595862852572e+00  -4.802581117100e+01  -4.814495869610e+01 
1  4.223129427144e+01  -3.986834315513e+01  -2.456398478999e+01 
1 -3.546364006403e+01  -1.811287895246e+00   1.679002352422e+01 
1 -3.413537649770e+01  -1.372301133526e+01   9.695541692751e+00 
1 -2.028859509833e+01   4.783584311980e+01  -1.694995766931e+01 
1  1.253988504257e+00   4.212507111468e+01  -5.265823601407e+01 
1 -3.210961337988e+01   2.478728794454e+01   5.504346290565e+01 
8
Step 21000
1 -2.751555040651e+01   1.285170993042e+01   2.363644902335e+01 
1  4.210221111187e+01  -3.431659306899e+00  -5.903379418848e+00 
1  1.393053560271e+01   4.701444765961e+01   9.145088354463e+00 
1 -2.999049116237e+01  -2.375128138378e+01   6.103342137271e+01 
1 -2.632657198674e+01   8.791724327794e+00   2.629313952602e+01 
1  3.482438679173e+01  -3.395983049997e+00  -1.029066418874e+01 
1 -1.763463289145e+01  -2.141209480691e+01  -5.447533553163e+00 
1 -4.381304387126e+01   5.332667692280e+01   3.871037542132e+01 
8
Step 22000
1 -1.509042219923e+01   1.981067781870e+01  -5.174455504915e+00 
1 -5.143048500467e+01  -2.600901354706e+01  -2.953757029735e+00 
1  2.306431225117e+01   6.763275273435e+01   1.787817205877e+00 
1  2.713356307556e+01   1.229366657726e+01   3.515828224946e+01 
1  2.871892903113e+01   4.348400004139e+01  -3.205034168515e+01 
1  5.432065523514e+01   3.029582512190e+01   2.665769363807e+01 
1 -3.242487083107e+01  -1.474275539566e+01  -3.753443960452e+01 
1  2.929426103717e+01   3.822710224431e+01  -5.557492681822e+01 
8
Step 23000
1 -3.711397889588e+00   7.600173167936e+01   2.286875137566e+01 
1 -2.700132537336e+01  -3.677413634849e+01  -3.998757080162e+01 
1 -1.096225448898e+01   2.053953116590e+00  -6.587037121434e+00 
1 -6.298955212173e+01  -3.687606452518e+01  -4.061338905566e+01 
1  2.578711896579e+01  -4.187297619219e+00  -4.485082142371e+01 
1 -7.461887531680e+00   2.508286534781e+00   4.067210663013e+01 
1 -1.295337975083e+01   5.526320642008e+01   1.297005712711e+01 
1 -5.033869330525e+01   1.764739525434e+01  -3.443202934120e+01 
8
Step 24000
1 -8.009401695937e+01  -1.160552645641e+01  -1.109711922310e+01 
1  4.457716878176e+01  -2.679266532338e+01  -9.120260791817e+01 
1 -5.733838805127e+01  -5.198203423126e+01  -5.820471312164e+00 
1  3.098973074122e+01  -2.066732318566e+01   5.482774301489e+00 
1 -6.070664918954e+00  -8.030060114738e-01   1.113126925447e+01 
1 -4.990582500143e+00   3.869763452602e+01  -1.844032666891e+01 
1 -5.144161815817e+01   3.476324270221e+01  -1.850320381276e+01 
1 -2.680142923567e+01   3.310462589868e+01   2.059151154958e+01 
8
Step 25000
1 -2.023938424092e+01   4.700666284803e+01   4.449785655173e+01 
1  4.473814088023e+01   6.688261802351e+01  -2.047060032781e+01 
1 -2.821674260946e+01   2.254678036178e+01  -1.200223331150e+01 
1  6.898601502140e+01   4.168231357367e+01  -2.864792364835e+01 
1 -3.021937430785e+01  -3.060050620149e+01  -3.970846462502e+01 
1  6.252127473205e+01   5.001136099983e+01   7.848786280428e+00 
1  2.029084481259e+01  -5.084613237094e+01  -4.453170225078e+01 
1  2.587745510587e+01   4.953493314331e+01   4.350945195008e+01 
8
Step 26000
1 -6.801155326499e+01   2.755151919844e+01  -7.149314111882e+00 
1 -7.544142131996e+00   1.809361100907e+01   9.786697588743e+00 
1  1.726555522331e+01   5.012941035063e+01  -2.266682723382e+01 
1  1.540506021663e+00   4.898711763762e+01  -3.277883601618e+00 
1  2.532652975928e+01   5.625158593622e+01  -9.531834791937e+01 
1  4.340878730134e+01   2.899244059773e+01  -1.834351586723e-01 
1 -9.821447374537e+00  -5.077188270336e+01  -3.384662385410e+01 
1 -2.909167083003e+01  -1.409366764317e+01   1.400462818080e+01 
8
Step 27000
1 -4.804634013344e+01   2.175898857060e+01  -3.551599490869e+01 
1 -1.513729214953e+01  -2.525750978066e+01  -1.691879245027e+01 
1  3.887658086394e+01  -8.787675518604e+00  -4.168358158287e+01 
1 -6.786986520688e+00   1.996033469249e+01  -3.012772719389e+00 
1 -3.630990788632e+01   2.692832453609e+01  -6.466803309600e+00 
1 -4.557463951405e+01  -1.865889063925e+01  -3.094429798950e+01 
1 -2.265925253857e+01   4.937235693456e+01   6.046537971334e+00 
1  5.322344724907e+01  -7.157086436720e+01  -1.900048748303e+00 
8
Step 28000
1 -1.348076172844e+01  -4.876846589949e+00  -6.332826352130e+01 
1  3.616493266070e+01  -8.306097809326e+00   7.239983964461e+00 
1  8.070456927449e+01  -3.832050521422e+01  -3.625586240872e+01 
1  9.220818302277e+00   1.297639301331e+01   4.438515040364e+00 
1 -2.909530688792e+01  -5.630160955568e+00   1.571883264155e+01 
1 -5.063707356890e+01   7.016216303018e+01  -6.497825353453e+01 
1 -2.440104307719e+01   9.974803997760e+01  -5.001517845562e+01 
1 -2.664030776645e+01  -3.337144234147e+01   3.836254007593e+01 
8
Step 29000
1 -2.143353375924e+01   4.449054961829e+00   1.392771007402e+01 
1  3.316233504560e+01   6.464959221156e+01   1.463391269577e+01 
1  2.684717505448e+01   5.008896691107e+01  -2.935130703255e+01 
1  4.258263778960e+01   3.463274027398e+01   1.580764676748e+01 
1  7.423933167569e+01  -2.699096434743e+01   6.698425342605e+00 
1  3.754565851373e+00   2.441494981355e+01  -2.401505815292e+01 
1 -6.118631468109e+00  -5.665804542480e+01  -1.384445600521e+01 
1  4.883936210539e+01  -4.172731480378e+01   2.396371969910e+01 
8
Step 30000
1 -2.628196878736e+01  -1.198371772578e+01  -2.549764608058e+00 
1  7.881321684223e+00  -2.898696734670e+01  -1.922995822333e+01 
1 -1.693628834632e+01   2.006744352625e+01   6.309658985859e+00 
1  1.355003989353e+01   1.067726900948e+01  -2.764576527258e+00 
1 -3.078758225480e+00   3.257771395013e+01  -3.895166298093e+01 
1 -1.458340613927e+01   6.511732144056e+01  -1.053343283177e+01 
1 -4.475771599047e+01  -8.934190153813e+00  -1.834045718616e+01 
1  4.272028742408e+01  -6.236469353282e+01  -1.038149475014e+01 
8
Step 31000
1  4.993817895606e+01  -1.884498008164e+01  -5.116579407815e+01 
1  2.397849331677e+01   7.964131514033e+00  -2.544746235823e+01 
1 -5.458475931025e+00  -2.739059992517e+01  -2.430329128046e+01 
1  5.139647293252e+00  -3.729118849046e+01  -2.871007129436e+01 
1  1.383584605245e+01   1.559681273472e+01   9.855173331491e+00 
1 -2.120762550006e+01   3.758979866159e+00   5.272027089144e+01 
1 -5.068622484655e+01   2.462993967366e+01  -3.409250654702e+01 
1  4.960797352600e+00  -1.504005942156e+01  -4.994878665580e+00 
8
Step 32000
1  2.992972366143e+01   7.551044484731e+00  -1.182488882329e+01 
1  3.035634979159e+01  -3.283916187909e+01   7.168511516623e+00 
1  1.138141991466e+01  -5.007584703361e+00  -3.010213192997e+00 
1 -8.026422595156e+00  -2.858756658809e+01   2.516571994068e+01 
1  8.396249941971e+00  -5.481469239485e+01   4.774554402902e+01 
1  8.164781773485e-01   5.011977881311e+00   4.947840631892e+00 
1 -2.061343409306e+01   3.816382755212e+01  -1.533328914129e+01 
1 -1.010831883898e+01   6.077282035122e-03   1.978768568183e+01 
8
Step 33000
1  1.355124551779e+01   2.859935780875e+01   2.060006106692e+01 
1  1.055539389163e+01   3.804761391757e+00  -2.684767483146e+01 
1  3.869066738858e+01   6.018292653512e+01   6.469883223094e+01 
1  7.121826847590e+01  -5.399403765229e+00  -5.634794729582e+01 
1  3.035936043501e+01  -3.960706115732e+01   2.927327009473e+01 
1  2.710612126361e+00   3.242176701026e+01  -3.867884925930e+01 
1  4.585505620819e+01  -6.427462131961e+00   4.949098997440e+01 
1  4.104959730958e+01  -4.458848101402e+01   1.623341946484e+01 
8
Step 34000
1 -1.638099988215e+01  -8.485319696943e+01   5.420296748622e+01 
1  2.303178741108e+01   5.209814001301e+01  -2.589714161825e+00 
1 -5.250266956942e+01  -5.132455858585e+01   4.022598611071e+01 
1 -4.058774639357e+01  -4.836942326931e+01  -2.404715313426e+01 
1  1.516656922511e+01   4.474067589377e+01  -1.911892113211e+01 
1  2.719652085235e+01   9.070332927963e+01   2.864652286208e+01 
1  7.049445263746e+00  -2.364227783412e+01   9.332413337070e+00 
1 -3.315186655296e+01  -9.736741966843e+00  -2.399253891962e+01 
8
Step 35000
1  3.176923851761e+01  -3.557966618255e+01  -5.047941836379e+01 
1  6.296208606103e+01  -2.536641889774e+01  -1.222986987403e+01 
1  5.403981719676e+00  -1.686265515629e+01   1.473752013570e+01 
1 -9.346172978952e+00  -3.744098522964e+01   4.205153063147e+01 
1  2.671415106026e+01   1.636361550600e+01  -7.289718533078e+01 
1 -3.458042473827e+01   1.490858994964e+00   7.005489651030e+01 
1 -2.461616463150e-01  -7.499735374005e+00   7.321857001274e+01 
1  1.495130343006e+01   6.848229195209e+01  -6.212525367562e+01 
8
Step 36000
1  1.634821843344e+01  -4.687928711152e+00   1.977267119180e+01 
1  3.665864084713e+01  -3.502171300921e+01   4.544518853588e+01 
1  4.484359479443e+01   1.395082562744e+01   2.153106742540e+01 
1 -8.006051852580e+00   1.289384271691e+01   4.856953405693e+01 
1  6.433290132626e+01  -6.082190165085e+01  -1.465217371600e+01 
1  6.087867252586e-01  -2.455170552466e+01  -3.592847313980e+00 
1  6.415353426090e+00   9.148224449777e+00   9.045746754990e+01 
1  1.192010461244e+01   1.350799450183e+00   7.775839622225e+01 
8
Step 37000
1 -3.742508698639e+01   1.739441994117e+01   6.860479159523e+00 
1 -2.819573370428e+00  -1.625194007031e+01   2.878959721069e+01 
1  7.089436703438e+00   1.729493777803e+01  -3.113909196603e+01 
1 -4.915269953708e+01   3.581796135392e+01  -1.818261263253e+01 
1  7.382580309729e+01  -4.261418774166e+01   4.998836946363e+01 
1  1.237721082218e+01  -2.534488014168e+01  -6.113428600617e+01 
1  2.071846038409e-02  -1.278096455542e+00  -5.285883234393e+01 
1 -2.432240179461e+01   4.281429057075e+00   1.826039391383e+01 
8
Step 38000
1 -4.029276392025e+01  -6.169604073923e+00   3.986536363382e+01 
1 -3.167034838717e+00  -7.642828933521e+01   8.486222860037e+00 
1 -1.415757855952e+01   6.813965540012e+00  -2.418810916862e+00 
1  3.919876977283e+01  -1.428592124591e+01  -6.263752107883e+01 
1  3.788454815521e+01   2.608417676904e+01   1.140015386500e+01 
1 -3.853983626133e+01   2.596796018151e+01   2.099116657728e+01 
1 -2.063669980119e+01  -4.865868061833e+00   1.010582884402e+02 
1  4.497540344357e+01   1.230617861578e+01   2.963148124791e+01 
8
Step 39000
1 -2.316974345239e+01  -1.453743936676e+01  -3.679925378216e+01 
1  1.501197898634e+01   1.474937485719e+01  -7.013708697217e+01 
1 -7.095988972714e+01  -3.703769168297e+01   5.432213904148e+01 
1  3.618731037032e+01  -2.470554569663e+01   3.084153610663e+01 
1 -2.935099367947e+01  -1.715068787116e+01   9.023440873074e+01 
1  2.245962640415e+01   1.618647574240e+01   7.436591324748e+01 
1  1.504974360102e+01  -3.281401283868e+01   1.091838961199e+02 
1  3.768817994838e+01   2.613870208880e+01  -7.495091902866e+01 
8
Step 40000
1 -3.342146329052e+01  -2.097361865795e+01   1.030680371859e+01 
1  4.180770835141e+01   1.166438006902e+01  -2.165281039534e+01 
1  8.109186116337e+00   6.840833915308e+00   3.332471629841e+01 
1  4.414922437553e+01   1.690397412084e+01   3.563088240815e+01 
1  2.755208976158e+01  -8.617865330367e+00   6.247580850806e+00 
1 -1.133885044198e+01   3.131528453537e+01   9.258644631076e+01 
1  4.406130000349e+00  -2.333263679725e+01   1.382987300000e+01 
1  1.240096913206e+01   6.150779009355e+01   6.442076478679e+01 
8
Step 41000
1 -2.237664110032e+01   4.761401144635e+01  -1.161035947794e+01 
1 -8.077050382989e+01  -9.326672232005e+00  -4.174288160564e-01 
1 -2.359023537247e+01   2.737247573477e+01  -1.573665832445e+01 
1 -4.150945303084e+01  -5.283461330586e+00   2.780441904823e+01 
1  5.189223715086e+01   2.719104001451e+01   1.155411501537e+00 
1 -5.789546292158e+01  -1.147351170044e+01   3.314493888189e+01 
1  1.572639994346e+01   7.254065319229e+00  -2.042954904839e+01 
1  1.892330801713e+01  -3.740372206298e+00   5.197522768187e+01 
8
Step 42000
1 -7.518747497757e+00   2.437247942678e+01   2.962584867453e+01 
1 -8.294691068965e+01  -8.352048475155e+01   2.606851699283e+01 
1  3.109242654015e+01  -1.258675468021e+01  -1.701407416890e+00 
1  1.789423812166e+01  -1.903517927277e+00  -4.704182124739e+01 
1  3.486330704317e+01   3.798260472728e+01   4.502889258966e+01 
1  2.281416209090e+01   2.378448668350e+01  -2.516356761814e+00 
1  2.926470645648e+01   3.978833202863e+01   6.224017390533e+01 
1  7.616492537131e+00  -2.645174088409e+01   4.831098402203e-01 
8
Step 43000
1 -4.883478844645e+01   3.899036015862e+01  -4.423310198595e+01 
1 -4.218003806437e+01  -1.924346347860e+01  -2.041827801548e+01 
1 -3.850653727936e+01  -1.654951280578e+01   4.679968538416e+01 
1  2.912234094000e+01   8.007541792057e+00   1.674871730242e+01 
1  3.249395326308e+00  -2.523512113914e+00   6.291911646617e+01 
1 -5.062205485409e+00   4.430803871343e+01   1.165011235550e+01 
1  4.893954589013e+01  -8.334815723117e+00   2.869634790106e+01 
1 -2.717231159724e+01   2.070124347639e+00   3.439738921795e+01 
8
Step 44000
1 -7.917637079539e+01  -4.778690441255e+00  -5.260970472036e+01 
1 -4.610882732020e+01   4.886260438057e+00  -2.039602344882e+00 
1 -1.760076262502e+01  -1.752433834601e+01   3.681053275958e+01 
1  7.983752262480e+01  -8.914586367211e+00   3.367180127925e+01 
1 -5.167453980607e-01   1.883277687616e+01   3.428573390076e+00 
1 -1.463633288548e+01   7.494829964406e+01  -1.094524176391e+01 
1 -1.156225394994e+01  -5.536284136546e+01   4.397009845794e+01 
1 -3.290047851489e+01   3.643278721747e+01   4.269160121063e+01 
8
Step 45000
1 -5.260782116370e+01  -1.042553451087e+01  -1.545395132657e+00 
1 -3.668494884444e+01   2.281198880494e+01   3.016304672399e+01 
1 -7.877890759790e+01  -2.162087630236e+01  -1.579640227109e+01 
1 -9.488719103655e+00  -3.503403925574e+00   1.007183313993e+01 
1 -2.854447078044e+01  -2.091277854698e-01  -2.234395523010e+01 
1  2.613235690868e+01   6.128130171890e+01   9.725159023828e+00 
1  1.818742863185e+01   2.789915475335e+01   3.771882893707e+00 
1 -1.273413581150e+01  -3.393313496154e+01   4.911687430214e+00 
8
Step 46000
1  5.667013539507e+00  -1.110360691192e+01  -1.320893573112e+01 
1 -1.080080141863e+01  -6.123427244494e+01  -5.846581659147e+00 
1  1.161497004761e+01  -4.381080128081e+01  -2.857502487730e+01 
1  7.490717948660e+00  -5.004499650082e+01   4.643773535134e+00 
1  2.018898265528e+01  -1.509499238022e+01  -2.711918573665e+01 
1 -4.348709036036e+00   5.646340154660e-01   3.239553011279e+01 
1 -1.572845539724e+01   2.582141909386e+01  -4.775570261687e+01 
1  3.122498198949e+01  -4.882123577903e+01   2.622676737347e+01 
8
Step 47000
1 -5.838305744928e+01   3.018009683427e+01  -1.533548266944e+01 
1 -8.252212118394e+01  -1.322230972549e+01  -1.082594729165e+01 
1  7.262033664669e+01   4.362294099154e+01  -1.803289276012e+00 
1 -6.833147941423e+01  -7.340986887324e+01   6.761653102716e+01 
1  3.694946873400e+01   6.247967114599e+00   3.369079125976e+01 
1  5.589879841261e+00   2.561869731629e+01   7.566651275064e+01 
1  2.331114645870e+01   2.348390484469e+01  -3.453854005900e+01 
1  2.801355683422e+01   1.575405016690e+01   3.067960961197e+01 
8
Step 48000
1 -6.513143857034e+01  -2.024977800445e+01  -1.537567745596e+01 
1  2.068840414751e+01  -5.215383284326e+01  -2.124729084625e+01 
1  6.473473892246e-01   1.743500182523e+01  -1.952329982363e+01 
1 -6.333511388926e+00  -4.280677512244e+01   1.887331248392e+01 
1  5.192092076647e+01  -1.121290359543e+01  -5.857722914964e+01 
1 -1.285345120866e+01   9.124830529805e+00  -2.546429404785e+01 
1  4.720385741154e+01   3.036138177677e+01   2.622345330333e+01 
1 -1.472317140756e+01  -1.039564737817e+01  -3.557285651201e+01 
8
Step 49000
1  2.625754896427e+01   6.290134723573e-01   3.366330998878e+01 
1  4.750276120655e+01  -6.043444347444e+01   1.200463529455e+01 
1 -3.730696929212e+01  -9.994249328676e+00   2.399851767665e+01 
1 -1.970992237777e+01  -2.749241253354e+01  -5.899876739853e+01 
1 -2.430776300463e+01  -3.789405799513e+01  -4.135471331325e+01 
1 -4.253709471099e+00   5.856434688212e+01  -8.048718662910e+00 
1  4.077429624379e+01  -2.088343682929e+01   1.557779221294e+01 
1  2.307583339065e+01  -2.360271439917e+00  -4.993548627357e+01 
8
Step 50000
1  5.803776818460e+01  -4.881221883753e+01  -3.559325336965e+01 
1  2.898333789898e+00  -5.445916966034e+01  -1.234796990737e+01 
1  4.341763933898e+01  -2.956729863585e+01  -8.317965346491e-01 
1  3.387199855115e+01   4.940299065225e+00  -4.628775679063e+01 
1 -2.020023146627e+01  -6.147592720618e+01   3.342837803210e+01 
1 -4.364120062894e+00  -5.402904766795e+00  -2.055211589622e+00 
1 -8.001178844872e+00  -2.761871638984e+01   2.554459572894e+00 
1  3.428853313201e+01   1.854397084460e+01  -3.278478732575e+00 
8
Step 51000
1  3.866532180198e+01   2.730212795724e+01  -6.486097769009e+01 
1 -7.703962219287e-01   1.503165895914e+01   3.264312862086e+01 
1 -1.956513897366e+00  -6.121187562825e+01  -6.262379109050e+01 
1  4.455566352078e+00  -1.282172326644e+01   2.616559496629e+01 
1  1.153104553866e+01   3.938894184877e+00  -1.672760693965e+01 
1  1.691623111390e+01   1.221107930092e+01  -1.229721216982e+01 
1  1.656701673657e+01   3.789809424393e+01  -9.329367706977e+00 
1 -1.142002742669e+00  -2.267390310301e+01   3.075298926223e+01 
8
Step 52000
1 -9.111987054106e+00  -2.177917686666e+01  -4.679597075148e+01 
1 -3.269906519477e+00   1.070022425697e+01   5.313781964785e+01 
1 -3.135758032086e+01  -2.410603914542e+01  -4.482861716538e+01 
1  1.222314742943e+01  -4.033354024782e+01   2.530169932172e+01 
1  1.750166768476e+01   4.188619250560e+01  -3.879549697244e+01 
1  1.313192476243e+00   7.860783583186e+00  -4.860855020923e+01 
1  2.152831126733e+01   3.980611596154e+01  -4.358027722267e+01 
1  1.876983221536e+01  -3.860672347991e+01   3.871255813837e+01 
8
Step 53000
1  7.711250447909e+01  -3.797809389904e+01   6.659985603514e+00 
1 -4.577105282781e+00  -3.928326819187e+01   3.302663228199e+00 
1 -2.856196357699e+01  -5.173057833470e+01  -2.678397371498e+01 
1  9.308710758985e+00  -3.221065389412e+01  -4.993162221364e+01 
1  9.614664543619e+01   9.004963499371e+00  -2.469897367615e+01 
1  9.665599988991e+00  -1.417306338082e+01  -5.059857218522e+01 
1  7.738338288367e+00  -2.772192143113e+01  -8.739840265229e+00 
1  4.838508621871e+01   3.037742861023e+01   1.279021855144e+01 
8
Step 54000
1 -2.212877794702e+01  -7.286867555066e+00   8.585172522410e+00 
1 -1.872645843242e+01  -4.113873156571e+01   1.313243104821e+01 
1  4.125998827140e+00  -1.922401512676e+01   2.662744618174e+01 
1  3.702613084804e+01   5.865207629627e+01  -2.577062425684e+01 
1 -2.146079156568e+01   7.901822797269e+00   1.850208612739e+01 
1  2.407578443364e+00   3.298101823691e+01   5.631324680401e+01 
1  4.707282485920e+01   1.727533235490e+01   3.321136992924e+01 
1  4.097872529112e+01   3.794741913066e+01  -5.772021545404e+01 
8
Step 55000
1 -4.348818941828e+01   2.320591193280e+01  -8.638974163299e+01 
1 -2.817456304649e+01   2.405852052701e+01  -7.143548055793e+01 
1 -3.375193463290e+01  -2.445385382926e+01   2.056607096871e+01 
1  3.138684847100e+01   2.584027959902e+01  -6.094031403359e+01 
1 -4.895983494481e+01   9.389941121847e+00  -7.266054349333e+00 
1  4.002165513617e+01  -3.313741565167e+01   4.894157945228e+00 
1  2.744508951093e+01   5.045501626883e+01  -2.943972578831e+01 
1  5.187460750746e+01   1.434980349102e+01   9.675064865868e+00 
8
Step 56000
1 -6.586955703956e+01  -1.660503563552e+01  -1.739779929650e+01 
1 -1.197036683162e+01  -2.824695463890e-01   2.668120156399e+01 