8
Step 0
1  2.130326814812e+00   3.841428738278e+01  -3.900125211552e+01 
1  3.567597752465e+00  -3.504277063756e+01   3.861701022475e+01 
1  6.258847992801e+01  -7.076539324116e+01   6.450599359103e+01 
1  5.978855273526e+01  -4.628740992298e+01  -3.331699604665e+01 
1  5.663920321690e+01  -5.214564811192e+01   5.649937483509e+01 
1 -4.885508989697e+01   7.742773658779e+01   3.518899981800e+01 
1  3.981944038262e+01  -7.472662646084e+01  -5.860625198879e+01 
1 -7.332626035848e+01  -1.421247514719e+01  -1.259120980933e+01 
8
Step 1000
1 -1.850615063953e+01  -1.504993535963e+01  -6.919332555325e+00 
1  2.487759839321e+01   1.297953592536e+00  -1.035902501894e+01 
1 -3.344024285883e+00   1.491340037808e+01  -1.885551931975e+01 
1 -1.638072159125e+00   2.642820329678e+01  -2.819742831374e+01 
1  2.273266023437e+00   6.599358606317e+01  -3.135276359913e+01 
1  3.871509698069e+00  -8.457888939130e+01   1.291267498918e+01 
1  3.661127275420e+00   5.195933583894e+01   1.616463987613e+01 
1  3.936541799664e+01  -1.390333075201e+01  -3.303377389955e+01 
8
Step 2000
1  4.083224091334e+01  -2.538507482456e+01  -4.696559337263e+01 
1 -3.468233994228e+00  -5.393385851673e+01   3.668573296994e+01 
1  3.996433922317e+01   8.764206560220e+00   8.969653196076e+00 
1 -2.090898336675e+01  -2.138198565307e+01  -5.636763314048e+01 
1  1.539656642952e+01  -4.261305745568e+01   4.039005207948e+01 
1 -4.815306079454e+00   3.221572251568e+01   1.812891475108e+01 
1 -1.655272741943e+01  -4.624232881693e+01   1.043847703612e+01 
1 -2.261823819256e+01   5.487858377282e+01   2.664672810918e-02 
8
Step 3000
1  1.162451663539e+01  -2.341652557090e+00   2.615898491257e+01 
1  7.069865354390e+01   5.336927645700e+00  -6.154824427547e+01 
1 -3.484900998626e+01  -4.031851438639e+01  -4.560008755110e+01 
1 -4.708317836435e+00   3.308517556861e+01   6.968367514063e+01 
1 -5.327630444945e+00  -1.692261217805e+01  -5.335161491058e+01 
1  8.778168136024e+00  -1.554097475229e+01   2.395142786306e+01 
1 -6.384498922723e+00   7.112228114999e+01  -8.791796465290e+00 
1  2.751716399844e+01  -2.841972290710e+01  -3.452956751726e+01 
8
Step 4000
1  2.530516551243e+01   3.178033253399e+01  -2.108760687630e+01 
1 -4.582816286946e+01  -2.403082419290e+01   2.196902633597e+01 
1 -1.123652654592e+01   4.935909366412e+01   3.877181556667e+01 
1 -4.465717915444e+01  -3.300116827670e+01  -3.692607864499e+01 
1  4.134158583418e+01  -4.096678295283e+00   6.416825663409e+01 
1  2.034937054173e+01   2.484022353566e+01  -1.939827434296e+01 
1  1.363198106304e+01  -7.601546536560e+00  -1.130667929666e+01 
1 -4.090755727984e+00  -2.117641778411e+01  -4.555625824563e+00 
8
Step 5000
1 -3.765780395319e+01   2.462353196358e+01   2.595650398229e+01 
1  1.074109097807e+01  -4.461592803781e+00  -9.186433191012e+00 
1 -2.176691644329e+01  -5.522685243612e+01  -2.086369843542e+01 
1  4.941716084259e+01   3.544111099792e+01   2.198532372818e+01 
1  2.651735075394e+01   2.963961164395e+01  -3.636517458189e+01 
1  8.742891717357e+00   1.468745165382e+01   9.767476838349e+00 
1 -6.130779465205e+01  -9.479631133601e+00  -3.911251535684e+01 
1  3.151073405999e+00  -3.516445162528e+01   7.608785304697e+01 
8
Step 6000
1  2.794028406097e+01  -4.426844586951e+01  -2.721228172125e+01 
1 -1.849858594646e+00   5.973409970112e-01  -1.355177161936e+01 
1  2.939987424711e+01   6.066988879479e+01   4.729800930355e+01 
1  3.317456681799e+00  -1.963968425082e+01  -5.302170264488e+01 
1 -2.317170202415e+01   3.233140827155e+01   4.265804774426e+01 
1 -4.379133657493e+01  -4.921472096864e+01  -8.563338047538e+00 
1  1.408371456616e+01  -2.280142198798e+01   5.392606954153e+01 
1  1.500114018825e+01   2.782681671540e+01  -5.213934087375e+01 
8
Step 7000
1 -3.468659655605e+01   7.237453710935e+01   3.235331451696e+01 
1  9.319755672231e+00   1.798520265355e+00   4.163447586775e+01 
1 -8.120548041439e+00  -7.315326426526e+01  -3.790993965506e+01 
1  7.732076982631e+00   2.077385094684e+01   1.340013379073e+01 
1 -1.161374533259e+01  -3.871862997581e+01  -5.758748234594e+01 
1 -4.036649401014e+01   6.455258772667e+01   1.749849607621e+01 
1  1.390712163986e+01  -1.705565517645e+01  -2.544336971075e+01 
1  9.730071560617e+00   6.830391537144e+01   3.625707589817e+01 
8
Step 8000
1  1.264947249736e+01   8.918492497236e+00  -1.530726492585e-02 
1  9.703059150179e+00  -1.266659627463e+00  -4.383662524196e+01 
1 -5.300553342150e+00   4.265362903915e+01   3.619329813779e+01 
1 -6.014276979548e+01  -4.488703978869e+00   1.278822337841e+01 
1 -5.576538681166e+01   3.077654107127e+00   1.650824009436e+01 
1  3.477678232033e+01  -7.086062003319e+01  -7.319472208787e+00 
1  6.236711880512e+01   6.745708077773e+01   3.105693572618e+01 
1 -2.783596888778e+00  -2.209364728933e+01  -7.610720417620e+01 
8
Step 9000
1  2.115571111976e+01  -8.869175108325e-01  -3.259642147674e+01 
1 -3.144349494872e+01  -3.713243747187e+01   6.534704923817e+01 
1 -3.237727099928e+01  -1.973539344690e+01  -1.759141230419e+01 
1 -2.806257537080e+00   3.060516251034e+01  -2.475636839149e+01 
1  7.276252115904e+01  -2.331300278584e+01  -6.143935980148e+00 
1  4.775746468750e+01   7.282279213264e+01   1.542432908407e+01 
1 -4.850206385130e+01  -3.838354571542e+01  -5.193258476258e+01 
1 -3.476639600567e+01  -2.962462804644e+01   7.177109259996e+01 
8
Step 10000
1 -1.518023643209e+01  -2.952321668042e+01   3.155303418395e+01 
1  3.579395294024e+01   3.847530558160e+01  -9.638114417196e+01 
1  6.563141675288e+00   2.389146397050e+01   6.584410633301e+00 
1  2.963077058592e+01   3.842920590433e+00   4.649997738246e+01 
1  2.498801630997e+01   2.493164822480e+01   7.120044299737e+00 
1 -7.788111153446e+00  -5.330247660404e+01  -1.408408929805e+00 
1 -9.671770181675e+01   7.893192353362e+00   6.237710577018e+00 
1  4.598677204045e+01  -1.003232388322e+01   1.779782346405e+00 
8
Step 11000
1  2.739904534204e+01   1.408495612854e+01  -7.433137118027e+00 
1 -2.551364945440e+01   3.354438060038e+00   8.358195915408e+01 
1  8.176423558790e-01   6.539212771717e+00   1.809679476616e+01 
1  2.494342521448e+01  -3.138533024847e+01  -7.353040207959e+01 
1 -1.454147916013e+01   5.525579510102e-01   1.775329282889e+01 
1 -8.000917886920e+01  -3.208788396081e+00  -6.430080135427e-01 
1  3.239109220866e+01  -1.184499199116e+01   1.118520418786e+01 
1  3.301092550069e+01   4.579226983666e+01  -1.663910763380e+01 
8
Step 12000
1 -3.377479667214e+01   2.424303094336e+01   3.690764269133e+01 
1  6.495607058733e+00  -3.044832488284e+00  -2.505629969628e+01 
1 -7.582663217135e+00  -5.580108945118e+01  -2.789293639061e+01 
1  8.379232348823e+00   1.032336793957e+01   7.049599319381e+01 
1 -9.398395871270e+01  -1.333873830995e+01  -3.611227165671e+01 
1 -7.547905958757e+00   1.153986422591e+01  -3.115550695242e+01 
1  9.674567724259e+01   4.364676239380e+01   2.377799794403e+01 
1 -5.063327096423e+01   1.382893119827e-01  -3.167701281595e+01 
8
Step 13000
1  4.880195829127e+01  -3.107796319837e+01  -5.251633666524e+01 
1 -1.499608477266e+01  -2.819945554881e+01   1.763054284993e+01 
1  7.757570172756e+00   6.691760610423e+01   4.402344773635e+01 
1 -2.397929731851e+01   1.115815272887e+01  -7.202689318113e+01 
1  1.768657250185e+01   1.600589156053e+01   5.860047732127e+01 
1  9.150792857247e+01  -1.415406750926e+01   2.711930394028e+00 
1 -5.710542593807e+01  -2.908548227743e+01  -2.104993234241e+01 
1 -1.977319883597e+01  -4.692831356548e+01   2.985753646880e+01 
8
Step 14000
1 -1.944210573841e+01  -3.861739397589e+00   1.911542401662e+01 
1  1.330897761079e+00   9.820045510842e+00   8.706837391871e+00 
1  9.536829810554e-01  -3.039654577147e+01  -6.804524650429e+01 
1  8.340452909872e+00   2.089616143177e+00   6.571726276473e+01 
1  2.212162451990e+01  -1.923832290534e+01  -4.741892661015e+01 
1  1.192231302333e+01   2.510771527728e+01  -2.948792287716e-01 
1 -4.432224363239e+01  -7.003980758568e+00  -2.855930139271e+00 
1  1.894458370946e+01   1.030563398696e+01   4.952683635944e+01 
8
Step 15000
1  1.108997210001e+01  -3.911361609237e+01  -7.488765116705e-01 
1  6.192066225486e+00   2.323240160364e+01  -2.946387816446e+01 
1  2.367279560949e+00   4.514401737985e+01   5.753289978381e+01 
1 -2.729721570247e+01  -4.829127478304e+00  -3.881772307195e+01 
1  4.420427756902e+01   4.111195387215e+00   2.700775974107e+01 
1 -8.129008497547e+01  -3.235602798101e+01   1.749686315771e+01 
1 -1.718899914779e+01   2.660650967238e+01  -9.386418924648e+00 
1  7.574646303451e+01   3.048077916287e+01  -6.738329615783e+01 
8
Step 16000
1 -9.416893744381e+00   5.619584788775e+01   1.314934588106e+01 
1 -1.738920449579e+01   4.344054755306e+00   6.549049573147e+01 
1 -1.721155717344e+01  -4.638693319319e+01  -6.414379584553e+01 
1  1.593961064642e+01  -3.685689253767e+01   2.337480006837e+01 
1 -2.397585906758e+00  -6.258294362648e+00  -3.402995736083e+01 
1 -2.392382824606e+01   2.800465604805e+01  -7.372875361945e+00 
1  1.229312456083e+02  -1.181750596837e+01   3.494463826256e+00 
1 -8.489491715995e+01   1.808756904379e+01   2.514415616103e+01 
8
Step 17000
1 -2.248652731064e+00  -2.686706537787e+01  -5.329581565636e+00 
1  2.209814410321e+01  -1.355801283660e+01  -7.460737726386e+01 
1 -6.441817927541e+00   2.141529598642e+01   2.995618245477e+01 
1  9.096182910826e-01   4.228065241266e+01   9.974781771996e+00 
1 -1.675018627567e+01   3.237239291257e+01   8.582713735895e+00 
1  6.928014749262e+01  -6.957948578069e+01  -1.696003262083e+01 
1 -3.025625789111e+01  -2.121930395843e+01   4.530869241591e+01 
1 -4.629757954571e+01  -9.173589345675e+01  -4.897427136873e+01 
8
Step 18000
1  2.170480097892e+01  -9.089397265406e-02  -1.965068558155e+01 
1 -3.954073260840e+01  -3.795560763810e+00   6.934618390993e+01 
1  2.496806399464e-01  -1.084084001462e+01  -1.430122556004e+01 
1  4.181898614642e+01  -8.206656997516e+00  -3.531750083627e+01 
1 -3.995788905678e+01   4.641383412932e+00  -1.776167530552e+01 
1  5.355575544998e+01   2.367600090679e+01  -2.499285096885e+01 
1 -8.194473334274e+01   3.220940368964e+01   1.921646299924e+00 
1  1.688985331509e+01   3.713953810137e+01   3.382065800222e+01 
8
Step 19000
1 -4.898721833032e+01  -3.409418618576e+01   3.950337569565e+01 
1  2.865976718238e+01   8.372809723773e+00  -5.552237178833e+01 
1  2.133239274046e+01   2.952229499867e+01  -9.082465073815e+00 
1 -2.810641701194e+00   2.359954892968e+01   5.385797533935e+01 
1 -1.484606852124e+01  -3.767266361144e+01  -1.630992489823e+01 
1 -6.015877471345e+01   1.802434933128e+01   1.195877105583e+01 
1 -4.649769739339e+00   7.554178526263e+01  -2.663864105123e+01 
1  8.338948516707e+01  -2.348252356947e+01  -5.148772365288e+01 
8
Step 20000
1  3.087377296892e+01   1.374934138604e+01  -1.864673628873e+01 
1 -2.712740001635e+01   2.623098686327e+01   3.363525483831e+01 
1  5.717305761037e+00  -6.390945045822e+00   2.893159301435e+01 
1 -1.010801378352e+01  -5.007033087480e+01  -6.116202981686e+01 
1 -3.639353441215e+01   1.371375007683e+01   4.814036196209e+01 
1  1.268130491290e+01   1.367619597198e+01   3.292021113769e+01 
1  1.053449139001e+02  -6.536508960609e+01  -5.489494997823e+01 
1 -2.732132654535e+01   1.229338974878e+01   2.145473676761e+01 
8
Step 21000
1 -3.279087449484e+01   1.868823197209e+01   2.778510887953e+01 
1  3.404376195689e+01   2.129258150496e+00  -3.606398546056e+01 
1  1.168950757772e+00  -2.387795017518e+01  -6.119604193440e+01 
1  7.626010877865e+00   2.807448158785e+01   4.024092375810e+01 
1  4.037677643041e+01   1.706948420748e+01  -2.565750034242e+01 
1 -9.286396518076e+00  -1.360371934377e+01  -6.021876691217e+01 
1 -1.823129748313e+01   1.875487571762e+01   4.316073451611e+01 
1 -2.747573697197e+01  -3.396529926000e+01   1.826865856917e+01 
8
Step 22000
1  4.606513891162e+01  -2.720904108225e+01  -4.947067175597e+01 
1 -1.805818874755e+01  -1.723412156663e+01   1.464071146407e+01 
1 -7.682059575837e+00   3.114825472063e+01   6.104273568595e+01 
1 -1.420361709977e+01   3.554262922965e+01  -5.854414391630e+01 
1  2.162994680476e+01   3.757835194627e+01   2.139281157924e+01 
1  6.333601667003e+01  -7.240925543537e+01  -1.247567064930e+01 
1 -6.114660228451e+01  -1.711567702911e+01   1.137968413971e+01 
1  1.072261371277e+01   3.665058532861e+01  -1.715498852528e+01 
8
Step 23000
1 -7.098893084391e+01   2.770137136826e+01   5.945006037011e+01 
1  2.560511736724e+00   8.072004933381e+00   1.885198724704e+01 
1 -6.821376753118e+00  -2.684983653283e+01  -4.818733913150e+01 
1  1.079884046079e+01  -4.718619976098e+00   7.125307775138e+01 
1  4.920045862697e+01  -4.421664052199e+01  -4.644884973509e+01 
1 -3.579117888509e+01   1.698114089518e+01  -3.481168208572e+01 
1 -3.287719412789e+01   3.351674474610e+01   3.297595206643e+01 
1  7.915774548673e+01   2.211278697523e+01   1.445614432222e+01 
8
Step 24000
1  2.155795461458e+01  -2.009382456722e+01  -2.352042822548e+01 
1 -4.478298085657e+00   2.559952030892e+00  -2.113273996929e+01 
1  2.559235023885e+01   5.266009897101e+01   5.471988197216e+01 
1 -2.957521263861e+00   2.431127060236e+01  -2.498199950368e+01 
1 -1.675551267976e+01  -3.005925563838e+01   4.793350908388e+01 
1 -6.385077252558e+01  -2.473116165054e+00   6.263063535547e+01 
1  1.128638865836e+02   6.830284287670e+00  -4.437824619973e+01 
1 -3.941710147639e+01  -5.397180951451e+01  -2.852198562385e+01 
8
Step 25000
1 -7.631314766346e+00   3.491720595424e+01   3.912230939561e+00 
1 -1.959621319172e+01   1.674539096767e+01   4.012797041150e+01 
1  5.551763836281e+00  -4.214265040558e+01  -4.572103232545e+01 
1  1.670400138178e+01  -6.181657936748e+01   1.650408583666e+01 
1 -2.926210890399e+01   1.347939558628e+01  -4.178702397360e+01 
1  4.738849971315e+01   4.169475663078e+01  -3.806697990491e+00 
1  1.803937130906e+01  -1.341663767093e+01  -2.110452025389e+01 
1 -3.565204864088e+01   2.177130958967e+01   8.920960727068e+01 
8
Step 26000
1  7.018430496640e-01  -3.189795736330e+01  -1.333329257613e+00 
1  4.018945133410e+00  -3.438594146980e+01  -3.003495808395e+01 
1 -5.596889497542e+00   3.505589707897e+01   4.262981809208e+01 
1 -3.460990038664e+00   4.219336559960e+01  -1.229925347200e-01 
1 -6.592797103871e+01   4.761974231996e+01  -8.641555779586e-01 
1  7.412046243578e+01  -3.343502553125e+01  -1.042967240168e+01 
1 -1.397179557657e+02  -7.490971572989e+01   3.767969407590e+01 
1 -5.714171406050e+00   3.432229722174e+01  -6.848627567430e+01 
8
Step 27000
1  8.386304169124e+00   1.204313957907e+01  -8.705858592363e+00 
1 -2.639393745903e+01   3.639110031845e+01   5.691081732477e+01 
1 -1.933132995881e+01  -2.774153660190e+01  -4.816748013854e-01 
1  4.435194382959e+00  -1.908146747698e+01  -2.911467503499e+01 
1  5.687403738291e+01  -1.161823228405e+01  -1.590930689072e+00 
1 -5.421514589204e+01  -2.024140473863e+01  -6.083705465152e+00 
1 -2.816126270610e+01   3.327979479542e+01   2.805557480691e+00 
1  4.077139140480e+01  -2.618301838490e+00   7.302478199294e+00 
8
Step 28000
1 -3.433878680499e+01  -3.731165527872e+00   3.979965445131e+01 
1  3.628886707893e+01  -5.120783273540e+00  -7.341916321604e+01 
1  8.360753026460e+00   2.197760893106e+01  -1.647605111933e+01 
1 -1.758044208271e+00   3.133307544763e+01   3.741336363911e+01 
1  5.791948137981e+01  -7.632643833804e+01   5.562904249182e+01 
1 -9.139995166920e+01  -3.040678535566e+01   2.793579885327e+01 
1  1.032680486123e+02   2.158618253197e+01  -1.037707802586e+00 
1 -1.362269828394e+01  -6.601481693466e+01  -3.832501363741e+01 
8
Step 29000
1  5.203630547331e+01  -2.739293766502e+00  -6.536412654130e+01 
1 -3.225648769672e+01  -1.039759159184e+00   5.600269645214e+01 
1 -1.920007690352e+00  -3.424311631778e+01   4.042970479749e+01 
1  9.877364898008e+00  -1.796530836315e+01  -3.648339051120e+01 
1 -5.010511197221e+01   3.964807445065e+01  -9.619384781384e+00 
1  4.589545524706e+01   2.468438434469e+01   1.249353815342e+01 
1 -7.264767852368e+00   2.464258946855e+00  -3.043203012642e+01 
1 -4.733019907136e+01   1.527951664688e+01   5.726131945662e+01 
8
Step 30000
1 -4.014812205741e+01   6.860080901438e+00   4.781750871041e+01 
1  1.499516407229e+01   1.095998478518e+01  -4.116789973695e+01 
1  5.826214738486e-01   2.948815083481e+01  -3.091936193788e+01 
1  1.138972686311e+01  -2.096780738148e+01   4.685622065198e+01 
1 -1.243778503399e+01   4.965436540756e+01  -1.049636269141e+02 
1  1.059130894065e+02  -1.026864501102e+01  -7.043295419513e+00 
1 -6.512821467009e+01  -7.354578307082e+01   9.577407368555e+00 
1 -3.230680337104e+01   3.330548658083e+01  -1.544442466365e+01 
8
Step 31000
1  2.213779891159e+01  -1.594447216193e+01  -3.008039021852e+01 
1 -1.829163426122e+01  -2.892280314474e+01   2.357346524720e+01 
1  2.017612200645e+01   1.149239351720e+01   5.981399439851e+01 
1  1.905065682941e+01   3.691796914557e+01  -3.984149798204e+01 
1  1.883344061117e+01  -1.223460971460e+01   4.598119072899e+01 
1 -5.263089027056e+01  -5.927183328450e+01   1.083822789041e+01 
1 -6.034035358573e+00   6.259684052940e+01   1.729639082473e+01 
1  4.548677797684e+01   2.529398215942e+00  -1.709088288241e+01 
8
Step 32000
1 -3.144681539830e+01   1.588778129356e+01   3.927592671859e+01 
1 -2.223867104895e+00   3.818926542267e+01  -2.011567882921e+01 
1  1.178096176447e+00  -2.624261782705e+01  -5.011371870643e+01 
1  4.855386542573e+00  -6.495058728114e+01   4.031050569837e+00 
1  4.402296451192e+01  -4.314441295177e+01   2.206877611170e+01 
1 -5.489367570540e+01  -1.908279055409e+00  -4.056319070328e+00 
1  5.223110942592e+01   8.023385744082e+01   3.544925730731e+00 
1  5.239200210153e+01  -3.594531007843e+01   8.918651223770e+00 
8
Step 33000
1  4.855569389149e+01  -2.491267148870e-01  -5.281400926148e+01 
1  7.907500893367e+00  -4.279837192948e+01  -1.040748351549e+01 
1  1.228435148750e+01   3.174566849726e+01   5.230731515048e+01 
1 -1.866689000889e+01   7.289160255937e+01  -2.040020332415e+01 
1 -2.815967785174e+01  -1.752325556222e+01   3.338221767194e+01 
1 -5.768805853655e+00  -8.791730169181e+00   4.337446576238e+00 
1  1.119275567909e+01  -4.023525233974e+01  -1.544635430488e+01 
1 -6.927071276740e+01   1.319996536474e+01   5.139499351118e+00 
8
Step 34000
1 -1.659151906568e+01   6.438803917520e+00   2.023562791166e+01 
1 -1.327053559536e+01   5.153187694032e+01   1.702157584048e+01 
1 -2.758066387620e+01  -1.776629517929e+01  -3.509950607608e+01 
1 -4.553818448597e+00  -4.318084006797e+01  -1.166842290535e+01 
1  5.284401432910e+00   7.253557201073e+01  -3.709683930510e+01 
1  1.173895868514e+02   2.189596240003e+01  -2.352849145477e+01 
1 -9.085386016240e+01  -9.571355616542e+01  -2.280514184288e+00 
1 -1.760941588280e+01   4.958458398677e+01   3.855899385430e+01 
8
Step 35000
1 -8.261840664955e+00  -1.395498574552e+01   7.314575028555e+00 
1 -6.000826717545e+00  -4.630533763489e+01  -2.189087563250e+01 
1  4.172088524263e+01   3.981752127437e+01   1.791715455849e+01 
1 -1.157643910579e+01   7.021078963800e+01   2.962694131937e+01 
1 -1.161453823550e+00  -7.677468102351e+01  -1.884779338649e+00 
1  1.839814575402e+01  -7.384151011847e+01   2.399230143658e+01 
1 -1.779627862783e+01  -1.216761869450e+01   8.363399853696e+00 
1  3.718296669480e+01  -7.439150229022e+00  -4.364825957837e+01 
8
Step 36000
1  1.423531487991e+01   1.691861938049e+01  -1.699263691475e+01 
1 -1.252797316339e+01   4.972980869623e+01   3.412560050970e+01 
1 -3.681203441759e+01  -3.802391948977e+01  -1.738629314265e+01 
1  3.073217419431e+00  -6.416128071814e+01  -1.733178345700e+01 
1  1.313222196376e+01   3.183405839331e+01   4.003098328323e+00 
1 -6.131770830587e+01   3.404581613336e+01  -1.360795632517e+01 
1  2.211427669200e+00   1.063357707124e+02  -5.597054485821e+00 
1  5.524285455166e+01  -3.029742728080e+01   2.737661870502e+01 
8
Step 37000
1 -2.688767597484e+01   4.534699919785e-02   3.605664327955e+01 
1  8.100203365621e+00  -2.308644289359e+01  -4.034533785449e+01 
1  4.583197383748e+01   2.542429719470e+01  -1.336825290439e+01 
1 -1.437430161271e+01   5.579044269290e+01   2.583667751386e+01 
1  3.324838625845e+01  -1.021266905763e+00  -4.441996898534e+01 
1 -4.477661617608e+01  -7.618168049148e+00   4.581964238165e+01 
1 -2.756938788937e+01  -3.850295570090e+01  -2.629843298378e+01 
1 -5.271453695050e+01  -1.865957599248e+01  -2.371432935899e+01 
8
Step 38000
1  3.496121152377e+01   1.516150627167e+00  -4.401193451649e+01 
1 -1.368399257519e+01  -1.664218754900e+01   4.757323360979e+01 
1 -4.001051157542e+01  -4.961579780874e+00   2.633886644861e+01 
1  1.109753165903e+01  -9.614523926611e+00  -1.273834270965e+01 
1 -2.271544445502e+01  -3.071201793019e+00   2.956154639444e+01 
1 -4.033466545082e+01   3.042734667213e+01  -3.400873685470e+01 
1  6.587565027805e+01   1.778421296389e+01   2.968020859533e+01 
1  7.464378601810e+00  -9.946570547573e+00   2.452161992937e+01 
8
Step 39000
1 -3.714273807552e+01  -4.587406119935e+00   6.345630803216e+01 
1  7.360199751422e+00   2.554821858933e+01  -4.584370086866e+01 
1  1.928009640663e+01   2.735072665145e+01  -2.281683703826e+01 
1  2.211602121993e+01  -5.279441200538e-01   2.653811809425e+01 
1 -9.067513937190e+00   2.258100821257e+01  -6.411538551261e+01 
1  3.794321102247e+00  -1.143751623253e+01   6.693336270937e+01 
1  4.725289874327e+01  -5.766381151672e+01  -2.098877304621e+01 
1 -7.360243557786e+01   1.603526965887e+01  -4.792310582980e+01 
8
Step 40000
1  1.938406127498e+01   1.019686935491e+01  -4.864693427316e+01 
1 -1.937832048145e+01  -2.847259530426e+01   3.022516706099e+01 
1 -2.919279180936e+01  -2.362779493294e+00   4.318775998814e+01 
1  2.734639464901e+01   1.923670882293e+01  -2.330109861791e+01 
1 -4.168931762438e+01  -2.154877365260e+01   3.894036007754e+01 
1  6.892567025709e+01  -2.843297700399e+01  -3.823147267930e+01 
1 -5.669985051247e+01   2.713727930572e+01  -4.086793303982e+01 
1  2.130403892955e+01   4.189259007931e+01   2.231966880743e+01 
8
Step 41000
1 -1.367113390281e+01  -1.148599492178e+01   5.272743620308e+01 
1  1.098413251022e+01   4.368327418212e+01  -2.014958583311e+01 
1  8.662261279641e+00  -3.476940102263e+01  -3.163417279479e+01 
1 -2.769995652786e+00  -4.980612012506e+01  -2.767164727161e+00 
1 -9.104863890294e+00   4.446169242616e+01  -2.342591418203e+01 
1 -7.656247310466e+00   3.007591491642e+01   2.516135430684e+01 
1 -5.145266246330e+01   1.034084276321e+01   2.007981167733e+01 
1  3.974340508594e+01  -3.928180510104e+01  -9.516660389617e+00 
8
Step 42000
1  2.205332344018e+01  -4.949264795421e+00  -4.890589170537e+01 
1  2.344278564689e+01  -6.734554382844e+01   1.813877508527e+01 
1  2.021315590502e+01   1.659805538216e+01   3.536475520638e+01 
1 -1.457509979738e+01   9.560562998935e+01   5.763517855192e+00 
1 -1.976845999053e+01  -3.565643684533e+01   8.014182515168e+01 
1 -1.436554712674e+01  -3.178906683782e+01  -1.557324813600e+01 
1  5.622456066425e+01  -1.270789783020e+01   3.832556627404e+01 
1 -2.697973272912e+01  -8.922246910718e+01  -1.726141111740e+01 
8
Step 43000
1 -2.074902980315e+00  -1.538780164989e+01   4.218249941678e+01 
1 -2.740730758598e+01   6.230694335607e+01   8.388409764822e+00 
1 -1.293766533120e+01   1.597091433296e+01  -2.647721693325e+01 
1 -1.216128357177e+01  -3.186228407646e+01  -1.634677258862e+01 
1  2.756493759231e+01   1.483511438213e+01  -1.887827388094e+01 
1 -4.805736417466e+00   8.640256307598e+00  -2.892019624393e+01 
1  6.735187266496e+01  -1.427721539872e+01   4.305274160802e+01 
1 -1.211039078283e+01   2.434300287743e+01   8.578255208029e+00 
8
Step 44000
1 -5.333139267610e+00   6.960028972845e+00  -1.031118558326e+01 
1  2.004994725339e+01  -3.295519874170e+01  -1.836757630853e+01 
1  2.343879337003e+01   6.168029106254e+01   2.345151273478e+01 
1  3.513413707731e+01   4.221741453040e+01   2.877977488869e+01 
1  1.959356091144e+01  -9.023923877606e+01   1.117140967794e+01 
1 -6.990575287104e+00  -4.414996263784e+01   2.193968413514e+01 
1 -4.117286645717e+01  -1.034809209925e+01  -3.828305352308e+01 
1 -2.135652932703e+01   3.122158301509e+01  -5.932997559324e+01 
8
Step 45000
1  2.112568201056e+01   7.466985534265e-01  -1.339873985113e+01 
1 -3.465481982427e+01   1.665252734251e+01   3.279445441765e+01 
1 -3.002229085077e+00  -7.071716268729e+01  -3.686725045651e+01 
1 -8.218318925272e+00  -7.623534962672e+01  -2.741024366944e+01 
1  1.632938693117e+01  -1.441972906590e+01  -1.983118735192e+01 
1 -2.042051273494e+01   4.469628727055e+01  -1.634479787723e+01 
1  4.502975641991e+01   3.670301324898e+01   9.580064050073e+00 
1 -7.722919329859e+00   3.926664481718e+00   4.586274069777e+01 
8
Step 46000
1 -3.141264237325e+01  -1.693609306381e+01   3.378287855695e+01 
1  3.021663938465e+01  -1.903609990513e+01  -3.028047400339e+01 
1  2.522578865155e+01   8.945048553754e+00  -3.024266303618e+00 
1  1.315845257403e+01   3.601375179994e+01   4.165393646941e+01 
1 -4.643453850673e+01   5.599895392205e+01   1.933918449977e+01 
1 -7.500130595165e+00   1.491715382696e+01   6.227528989766e+01 
1  1.558143465186e+01  -3.945553465318e+01  -2.440200892210e+01 
1 -2.035563071022e-02  -4.021524699714e+01  -1.225034599022e+01 
8
Step 47000
1  3.940503293442e+01   2.397734559299e+01  -3.409404477605e+01 
1 -2.651560991687e+01   3.446802737156e+00   3.191443001518e+01 
1 -2.170174545255e+01  -9.993151255731e+00  -1.223763949958e+01 
1 -5.866811961121e+01   3.227785310255e+01  -1.158047344743e+01 
1 -1.829772721744e+01   5.666714608601e+01   4.173601672363e+00 
1  4.343477799038e+01  -5.494946847327e+00  -1.625689345408e+01 
1  3.868451229507e+01  -3.145201197314e+01  -3.755227278566e+01 
1  5.740131907588e+00   2.155611655180e+00   3.468703191563e+01 
8
Step 48000
1 -5.322596183434e+01  -2.743233034334e+01   5.636682819273e+01 
1  2.464240693780e+01   2.053647004917e+00  -3.479094108606e+01 
1  1.702947072889e+01   4.272709600344e+01  -1.312554180156e+01 
1  1.910289192910e+01   1.510030198966e+00   1.809105515721e+01 
1 -3.344738936224e+01  -2.786035361188e+01  -1.785620683465e+01 
1  4.161122553919e+01  -6.845116654358e+01   1.217300165276e+00 
1 -4.329903940230e+01   4.740084191836e+01   5.257487079228e+00 
1 -3.593345857453e+01   3.048710160899e+01  -4.951093164167e+01 
8
Step 49000
1  4.029063587193e+01   2.839689784926e+01  -4.726404752272e+01 
1 -2.338723022177e+01  -3.580761046814e+01   2.204294810902e+01 
1 -2.737549853716e+01  -7.253726960872e+00   1.769811914835e+01 
1  4.351553242089e+00  -2.870959546603e+01  -1.080277633837e+01 
1  8.615301632559e+01  -4.048867021590e+01   5.845225569844e+00 
1 -4.730205263173e+00   3.627905482540e+01   3.600880182773e+00 
1 -5.615350741075e+01   2.496902621151e+01   8.375127092367e+00 
1  2.952537306993e+01  -7.164228993966e+00   2.272034085126e+01 
8
Step 50000
1 -1.552077022229e+01  -1.901069698492e+01   1.435494426862e+01 
1  1.769678035291e+01   3.464681388602e+01  -9.379044879624e+00 
1 -1.013697600308e+01  -2.082575275511e+01  -4.771278875376e+01 
1  3.019763991276e+01  -6.161650489702e+00  -7.080496882544e+00 
1 -2.043630377961e+01  -8.401645911761e+00   1.046964113490e+00 
1 -5.210550493994e+01   6.004980804958e+01  -1.968099267589e+01 
1  3.044842748448e+01  -4.480443030285e+00  -1.086094065141e+00 
1  2.483092081263e+01  -3.598839505887e+01   1.975628219258e+01 
8
Step 51000
1  1.276899457796e+00   3.112588008077e+01  -1.314820024564e+01 
1 -1.818533994678e+01  -5.496604708946e+01   2.253128302827e+01 
1 -6.614143773924e+00  -3.120961276889e+01   2.898198192685e+01 
1 -6.898592482838e+00   7.369492263213e+01   2.464981606243e+01 
1 -4.219741592309e+01   7.456486091823e+01   1.371792719322e+01 
1  3.065301432332e+01   2.362910978451e+01   3.357307385619e+00 
1  5.244174481775e+01  -9.647475214666e+01  -1.077843933491e+01 
1 -5.034189875942e+01   2.135638731718e+01  -3.707303665448e+01 
8
Step 52000
1 -8.136900225408e+00  -3.406389904774e+01   3.523992040135e+01 
1  9.015642977463e+00   3.837908512411e+01  -2.302611426711e-01 
1 -8.099405778225e-01  -1.326753686305e+01  -2.687660344560e+01 
1 -2.166770211274e+01  -1.100725702089e+01  -3.003231620440e+01 
1 -4.231947102236e+01  -9.638794509695e+00   3.116133005643e+01 
1  5.719354830281e+01  -7.241745115841e+01  -2.870964661261e+01 
1  7.585424579154e+00   2.425725466196e+01  -1.633399441746e+01 
1 -1.457772459562e+01   2.605221054306e+01   3.829456045338e+01 
8
Step 53000
1  3.724801848441e+00   2.889964743375e+01  -1.547286084126e+01 
1  1.272006552726e+01  -3.330108983701e+01  -2.123833986713e+01 
1  4.073620555564e+01   2.205165849670e+01  -3.885721563037e+00 
1  4.834198652694e+01   7.768000693716e-01   5.776219809094e+01 
1  8.480471703208e+01  -5.560137104128e+01  -1.592535638015e+01 
1  3.711133447834e+00   1.023415580042e+01   5.657278615083e+01 
1 -1.028828919460e+02   3.823536911369e+01   2.244369896032e+01 
1  2.609587358285e+01  -1.745633069965e+01  -3.102697458642e+01 
8
Step 54000
1 -1.263482232900e+00  -2.137721694377e+00  -4.861932844584e+00 
1 -2.233073197532e+01   4.492418360063e+01   2.212962288744e+01 
1 -1.826517366646e+01   2.982420700689e+01   5.579305409524e+00 
1 -4.556448602259e+01  -6.826883828556e+01  -4.965271144254e+01 
1  3.647932288417e+01  -5.145835668501e+01   1.357438635468e+01 
1 -2.184456089454e+01   4.889653283174e+01  -3.175193525524e+01 
1  1.411354239848e+01   3.040361362024e+01  -7.046554089075e+00 
1  4.930861307360e+01  -3.689628403616e+01   5.834571711267e+01 
8
Step 55000
1 -2.441375368593e+01   5.668799609032e-01   1.760075845449e+01 
1 -6.845912208495e+00  -3.698553245789e+01  -3.635046795203e+01 
1  9.914165946717e+00  -8.534960880506e+00   6.569737820105e+00 
1  2.284490580831e+01   1.189831496199e+01   2.167501346996e+01 
1  6.413914227565e+00   8.539047487592e+01  -1.570072507512e+01 
1 -4.139972244475e+01   6.905969640656e+01   4.469037581283e+00 
1  3.086300745386e+01  -8.758590587065e+01  -1.594579756379e+01 
1 -3.744106542024e+01   1.231796718349e+00  -6.051211054506e+01 
8
Step 56000
1  4.916718200792e+01   1.592895961814e+01  -1.177266145501e+01 
1 -2.128263846391e+01   1.245964778993e+01   1.580844069616e+01 