8
Step 0
1 -6.56289497729523390e+01 5.64193820346903010e+01 8.60337798242653662e+01
1 -7.31874695814452423e+01 9.79549514979741502e+01 5.36918972500275515e+01
1 1.24671094116073675e+02 6.56403031169460291e+01 6.07099133048670012e+01
1 -1.17333615088171030e+02 3.48570294407624601e+01 -5.87799657065690582e+01
1 -8.83604689712744005e+01 7.28449696876566293e+01 1.25838353857706409e+02
1 -2.51037758046036004e+01 -1.12505837270005017e+02 -1.15943018914769283e+02
1 1.16235942894024276e+02 -7.00313217302731914e+01 5.06630763141690750e+01
1 3.58580036374638098e+01 -6.00310343849119477e+00 -5.46996624035566725e+01
8
Step 1000
1 -1.14544140115132436e+02 7.39866776664484576e+01 8.88531213244725109e+01
1 -6.17966882078185265e+01 1.07660100013257946e+02 -7.93747224320581335e+00
1 1.03282882973159957e+02 7.68109420281963509e+01 3.00280623852548700e+01
1 -7.08675891221091803e+01 8.94915637957443977e+01 2.13094484685171075e+01
1 -7.23672806826078272e+01 1.34638547282402612e+02 1.21017110511669287e+02
1 -5.21806255775631342e+01 -1.27420692861801825e+02 -1.26271632407693176e+02
1 5.79873219664426927e+01 -8.57214665645478249e+01 7.73632469994453800e+01
1 -7.90054644717163468e-01 -9.38330208071024714e+01 -5.73262434742838849e+01
8
Step 2000
1 -1.14382931288944292e+02 7.70214172249613256e+01 5.13550473661350040e+01
1 -1.78918415317249249e+01 6.21722572340280379e+01 -6.94858072605311321e+01
1 4.44511781611859078e+01 4.99145204297090856e+01 -5.85572538621858119e+00
1 1.15775174518462585e+01 1.03113275214797127e+02 8.97000160732606702e+01
1 -1.45380109789495187e+01 1.46421327574170363e+02 7.55282322513344724e+01
1 -5.59087175209445562e+01 -7.89511165494402860e+01 -8.86911962053639371e+01
1 -5.18263645801192485e+00 -8.04018792095177872e+01 5.58570094426467634e+01
1 -4.26731219550832535e+01 -1.43104197804997739e+02 -5.15676910855572785e+01
8
Step 3000
1 -6.46046241343277217e+01 6.38423375521934418e+01 -6.09997563886858618e+00
1 3.81023298606894727e+01 -1.26291130895239210e+01 -1.10536256213282783e+02
1 -3.49515762278228124e+01 8.68126110561406317e-01 -3.82098700270872556e+01
1 8.85489152180504391e+01 7.18560533845588907e+01 1.29831666436685254e+02
1 5.04365731670878930e+01 1.03152047963094105e+02 4.05518577542349412e+00
1 -2.85943141668174690e+01 1.35096720193641371e+01 -2.61363989627974398e+01
1 -5.27894122814862925e+01 -4.95321252789371087e+01 1.82501961179802086e+00
1 -7.42211028217052160e+01 -1.32938695394614172e+02 -3.75335188471726511e+01
8
Step 4000
1 1.24082088319337327e+01 3.56151586343030289e+01 -5.41464083794743232e+01
1 7.76943537135323652e+01 -7.55271485384599970e+01 -1.16941943449694151e+02
1 -1.06584175819988943e+02 -4.40761499084701427e+01 -5.83280776709113553e+01
1 1.23243932678574552e+02 1.45940521223885042e+01 1.37873627704775032e+02
1 8.46194462799683578e+01 2.57643658450680171e+01 -6.48482962816518693e+01
1 2.03741736483160913e+01 1.04565565776809080e+02 2.78689001585201090e+01
1 -7.39898423794549842e+01 2.01052610002725052e+00 -5.22804287070810716e+01
1 -8.22755418088908499e+01 -6.99346943264936414e+01 -1.48968449329502786e+01
8
Step 5000
1 8.13076663733109086e+01 -3.12493590538650068e+00 -6.96412554921897708e+01
1 8.23617694595027956e+01 -9.62692180205321790e+01 -8.86422060138262111e+01
1 -1.44533791310860209e+02 -6.38995742391207955e+01 -6.11911021466331349e+01
1 1.01882580214797542e+02 -4.04416798424724675e+01 1.18626290248199311e+02
1 7.10405612405379827e+01 -4.97148904251019488e+01 -1.04110795522874795e+02
1 6.81889405412675984e+01 1.50239395035600694e+02 5.05084845460123546e+01
1 -7.02041756350706123e+01 5.89683730077406736e+01 -7.53368280115152373e+01
1 -6.20115007467555728e+01 1.48401384787041302e+01 1.41185405429396607e+01
8
Step 6000
1 1.13532784317974233e+02 -4.52732387799173068e+01 -4.88214196656759682e+01
1 5.21857620248071470e+01 -6.99751987625290752e+01 -3.80523784029188690e+01
1 -1.36682641356584270e+02 -5.25736383504317644e+01 -4.69410663873029392e+01
1 3.66168455995591557e+01 -6.96541986464524570e+01 7.95097906314355498e+01
1 2.16617188164918808e+01 -9.38547268141218609e+01 -1.03228451608530875e+02
1 9.31861563686074135e+01 1.33996397082085394e+02 4.20665626571667488e+01
1 -5.13599877741883901e+01 1.01282114028977517e+02 -5.42780904187181932e+01
1 -2.12357599801529453e+01 8.02466590430111495e+01 4.28489643629539430e+01
8
Step 7000
1 1.00541746078160983e+02 -8.20340843470916212e+01 -7.08728350178176481e+00
1 4.16146155251789462e+00 -1.61130762054446421e+01 1.49278860895675152e+01
1 -8.72912713758370842e+01 -1.83101624560382774e+01 -2.05210907421061144e+01
1 -4.17505575424639019e+01 -6.32554914240749682e+01 2.83493725242176104e+01
1 -3.49602744936761738e+01 -9.61255913155857087e+01 -6.98102312986013516e+01
1 8.41074638552234575e+01 6.77853403840180135e+01 1.91817853811334409e+01
1 -2.91092660597573705e+01 1.12377903456078016e+02 6.52704746203637054e-01
1 2.28338416291006752e+01 9.85906886400976958e+01 6.24935658707489097e+01
8
Step 8000
1 5.43634811340220239e+01 -1.03614069581755032e+02 3.11358048710217403e+01
1 -3.70630122960016379e+01 3.34638555276847427e+01 5.12505926552765914e+01
1 -1.58471320693758777e+01 2.15178705667995800e+01 8.90217356791998071e+00
1 -9.89838819079412815e+01 -2.83898818910834621e+01 -2.65697421369572631e+01
1 -7.10355987439509704e+01 -6.43379694424641002e+01 -2.23253493173088202e+01
1 4.37778263028725902e+01 -1.66992939219143040e+01 2.55691119180254445e+00
1 -1.14948711443191041e+01 8.67883750401180833e+01 6.18308003961240757e+01
1 5.27582776181732882e+01 6.90294483160378576e+01 6.61971732406115621e+01
8
Step 9000
1 -7.36575324146038435e-01 -1.01742548674343809e+02 4.58279935118688613e+01
1 -5.41393583681452881e+01 5.45016929209166321e+01 6.26789126750299985e+01
1 5.00875924779347130e+01 4.89760526350763001e+01 3.08996319388727869e+01
1 -1.13460282340080298e+02 1.65924602753365242e+01 -7.62912979819066663e+01
1 -7.22713662055616624e+01 -1.71702170994585437e+01 1.94242130074958474e+01
1 -1.17127609381111899e+01 -8.33687663074188237e+01 4.38998585435853261e+00
1 -6.02428285669001751e-01 3.41402322214061442e+01 9.85875599940915208e+01
1 5.85045227182665926e+01 1.39392003679524876e+01 5.19650916256688618e+01
8
Step 10000
1 -4.16277739475811828e+01 -7.34052053379841141e+01 3.19165912192003951e+01
1 -4.49200254205442349e+01 4.19395639446032646e+01 5.33701792033588802e+01
1 8.87839160092648285e+01 5.49059572449805842e+01 3.88834768877907209e+01
1 -8.24064689991170525e+01 5.18750800129079366e+01 -1.10795861972728346e+02
1 -4.16193553148458477e+01 2.52898414063648822e+01 4.20996533978746115e+01
1 -6.18480075069656507e+01 -1.10073677434873289e+02 2.18352112865590726e+01
1 6.16651943815141479e+00 -2.45378132304745336e+01 9.36602977430216441e+01
1 4.12716250356198273e+01 -3.47550273746676908e+01 2.41129868543042498e+01
8
Step 11000
1 -5.72663188393092071e+01 -2.35320242287060672e+01 8.65211753798517891e-01
1 -1.99020693067708301e+01 8.17156482702976383e+00 3.42419661112067004e+01
1 9.36939422843827856e+01 4.14035215354840318e+01 3.27305151070873492e+01
1 -1.97780995953027592e+01 6.33341054702647384e+01 -1.19855380028255155e+02
1 5.02231906527995609e+00 4.87419144492148675e+01 4.23197492191499975e+01
1 -9.05924438765609779e+01 -9.42725299300459625e+01 4.09147690446452756e+01
1 1.23259154253180743e+01 -6.68842504350982381e+01 5.15337649075603537e+01
1 1.20645365030144553e+01 -5.31278735722628142e+01 -8.05838780278740963e+00
8
Step 12000
1 -5.15921606600977825e+01 3.47951343458151001e+01 -2.71526402632215813e+01
1 5.08226821428397901e+00 -2.54217523402285224e+01 1.64817226041786462e+01
1 7.25784019299292851e+01 1.74028787951952708e+01 1.75956427124411654e+01
1 4.94680582522397359e+01 4.69265686144963112e+01 -9.70605634644818593e+01
1 4.70011804755528289e+01 4.83840690529692665e+01 2.61365528630253792e+01
1 -8.92464169248666224e+01 -4.78679093957738857e+01 4.46128526250879673e+01
1 1.91383570350754155e+01 -7.96512365330472392e+01 -5.88591414671521385e+00
1 -1.49437134392981026e+01 -3.67045005643269278e+01 -3.42381743164522021e+01
8
Step 13000
1 -3.74919050487957008e+01 8.45138283908805903e+01 -3.60948716099262015e+01
1 1.76611507694445713e+01 -4.01766860608259364e+01 6.20553849591490181e+00
1 4.08201976305637473e+01 -7.28711723793728705e+00 9.72104553049785935e-01
1 9.86983506939407533e+01 1.01700076862686775e+01 -4.51707898524965970e+01
1 6.77355632704385187e+01 2.92053090122782670e+01 5.35679575177787104e+00
1 -5.74844200973904833e+01 9.01089604889404683e+00 2.14884491352440747e+01
1 2.51289213291727513e+01 -6.37286148084628650e+01 -5.29746951570180542e+01
1 -2.95673081694943001e+01 4.10595888500619455e-01 -4.70549395913458426e+01
8
Step 14000
1 -2.62037469234933553e+01 1.11399761824836901e+02 -2.27581466586738870e+01
1 1.47795509065260564e+01 -2.90320279678289275e+01 2.30318307226054930e+00
1 1.28257559740717166e+01 -2.62891806585601735e+01 -1.06189620109501739e+01
1 1.10388442607016060e+02 -3.10954055126021451e+01 2.19155600864451614e+01
1 6.10802174551657373e+01 2.90877184662134614e+00 -8.14117611045196199e+00
1 -4.54861188687254270e+00 5.48298551112615371e+01 -2.62320131106681202e+01
1 2.77964435419179523e+01 -3.07634108188922859e+01 -7.36705918636502872e+01
1 -2.91687574003826704e+01 3.55135582922074278e+01 -4.43162265821932095e+01
8
Step 15000
1 -2.07368293395688355e+01 1.07746959662224498e+02 4.28320299697357054e+00
1 2.80295675021649693e+00 1.41965001740625940e+00 -1.35994330915837702e+00
1 -4.46569454786692521e+00 -3.76040042751720947e+01 -1.39446835859765734e+01
1 8.28003414453102522e+01 -5.98526319304775072e+01 8.32134760344501530e+01
1 3.27525662326179869e+01 -1.74634208775179438e+01 -7.93707099582973985e+00
1 5.25539511235619159e+01 7.49876828667422046e+01 -8.05053844228894917e+01
1 2.54593642477804316e+01 4.44812340403953055e+00 -6.55115140381624741e+01
1 -1.77649371438060300e+01 4.94981880731895743e+01 -2.90191765834671500e+01
8
Step 16000
1 -1.63146815544027284e+01 7.29274646427942486e+01 3.07734875308080547e+01
1 -7.23141736463898344e+00 3.48892142267783214e+01 -1.07705635070743391e+01
1 -1.27582749140613583e+01 -4.14606092514684050e+01 -9.49714493393340042e+00
1 2.90321786273226579e+01 -6.51438934075235494e+01 1.18767968573776045e+02
1 -3.55213340123301480e+00 -2.32777108460679045e+01 3.92619750734961359e+00
1 9.53113397438181522e+01 6.74487932893514710e+01 -1.15204589796295167e+02
1 1.80500555344392986e+01 2.95975534828246651e+01 -3.63093226143688312e+01
1 -2.53605855798420032e+00 3.48748909362273309e+01 -7.45960410250256256e+00
8
Step 17000
1 -5.27228061579255325e+00 1.44571483939376950e+01 4.32568969873059146e+01
1 -6.53742220833892596e+00 5.37679469571630690e+01 -2.69519431075964704e+01
1 -1.89765665243600345e+01 -3.75911950746783674e+01 -6.32120103147990497e-01
1 -3.00029021119760948e+01 -4.58508460301445950e+01 1.17334462647098178e+02
1 -3.33979453012919336e+01 -1.40170118267943309e+01 1.81293813271073567e+01
1 1.10149074627219264e+02 4.11564191702767843e+01 -1.08798488220670194e+02
1 7.02559193863060027e+00 3.77586029214571113e+01 8.87046361030051522e-01
1 9.62772662131319201e+00 -2.21304831545929925e+00 1.32741687100702030e+01
8
Step 18000
1 1.63561062875980063e+01 -5.14593818346851819e+01 3.48929494845311226e+01
1 6.21678268139088352e+00 4.79551930291431177e+01 -4.45095519208943387e+01
1 -2.97032954056342788e+01 -2.46382741553638880e+01 7.83790940450894436e+00
1 -7.41835104355285750e+01 -1.01721705294101739e+01 8.04499701406993069e+01
1 -4.82437904408412948e+01 3.01367236354916734e+00 2.31802115593504503e+01
1 9.15092552941416670e+01 9.76859404653978025e+00 -5.50156354018393401e+01
1 -5.26746131040400467e+00 2.88011028145165824e+01 3.26850341211864972e+01
1 1.45154942133618992e+01 -4.49756159080357278e+01 2.76181586014550895e+01
8
Step 19000
1 4.43593875425268109e+01 -1.03658380841278145e+02 8.65346966905454629e+00
1 2.39849060633671165e+01 1.95771910429722134e+01 -5.40045683057903219e+01
1 -4.60216348052808186e+01 -2.17678097874050502e+00 1.15080273007158400e+01
1 -9.10164533911363236e+01 2.81263207603489498e+01 2.19277432768324410e+01
1 -4.78023828303639675e+01 1.67357992160870204e+01 1.17979940995275605e+01
1 4.39144026626533162e+01 -1.43200176535946575e+01 3.02502162330167081e+01
1 -1.64866446559840405e+01 9.12795686195860867e+00 4.96363903049638040e+01
1 1.16158452023675753e+01 -7.32459832956989914e+01 3.30801584778518247e+01
8
Step 20000
1 6.71666557839152176e+01 -1.23859938432529546e+02 -2.41591618164205357e+01
1 3.50300858346081725e+01 -1.82352494560888445e+01 -4.70330669724503636e+01
1 -6.14091120875473351e+01 2.67541655993084859e+01 8.38892200085982509e+00
1 -7.89555898133941412e+01 5.53289443282787516e+01 -3.75760445855195115e+01
1 -3.75279754893811273e+01 1.79079511575071813e+01 -1.45813371927316329e+01
1 -1.72641826247821371e+01 -2.49967891328964527e+01 1.11686135454124752e+02
1 -2.50230268434618459e+01 -1.08083972311531156e+01 4.88699747790650534e+01
1 3.48801620530279255e+00 -7.21692083632655965e+01 3.02333591817616956e+01
8
Step 21000
1 7.13583501939626217e+01 -1.04113285153020954e+02 -4.91589908334738013e+01
1 2.95609778202243234e+01 -4.79532764160956333e+01 -2.14817265025037365e+01
1 -6.42816418602531314e+01 5.47369275870335485e+01 3.45405893065414624e-02
1 -4.59502619478326508e+01 6.29829088070116114e+01 -7.91608127277439593e+01
1 -2.36870492854511063e+01 3.95637883270775514e+00 -4.52830827371576063e+01
1 -7.19421311231023139e+01 -2.47213614987717456e+01 1.53379988989772528e+02
1 -3.01637030153959422e+01 -2.07899921481546670e+01 3.41466811168521218e+01
1 -5.81324435132875550e+00 -3.84732365650334600e+01 2.14253433787498118e+01
8
Step 22000
1 4.89399068688738055e+01 -5.07205064105068999e+01 -5.49759579453874565e+01
1 5.62686058703996927e+00 -5.63431576372678435e+01 1.62832628933449470e+01
1 -4.44906340892397552e+01 7.14773078241664734e+01 -9.07679661284487871e+00
1 -4.46093257544407518e+00 5.01128876292273020e+01 -9.26023127577633431e+01
1 -9.22042774863346359e+00 -1.91121793211930644e+01 -6.46239886657612033e+01
1 -1.04199857590808875e+02 -2.08088493270450208e+01 1.38153161990680104e+02
1 -3.15993247977609819e+01 -1.54489133661493181e+01 1.33544224694381661e+01
1 -1.23108505508024884e+01 1.71741281231276943e+01 9.35104535272164306e+00
8
Step 23000
1 3.62590570282364588e+00 1.63053016259657682e+01 -3.83962400282278509e+01
1 -2.86659258887698911e+01 -4.09226368312956410e+01 5.33259723104063070e+01
1 -5.98531630643436841e-01 6.77959946566422360e+01 -1.37507383102917036e+01
1 3.34129368783199538e+01 2.23138268560127386e+01 -7.84649978425644719e+01
1 7.16737091972363149e+00 -3.90801895418138443e+01 -5.93943472200674236e+01
1 -1.05523254717158821e+02 -1.94198050593380742e+01 7.27404107761771144e+01
1 -2.86453582053278346e+01 2.81175485795317348e+00 -5.36216797884789198e+00
1 -1.34909767793244857e+01 7.32792105791341157e+01 -3.84537497284675212e+00
8
Step 24000
1 -4.81742459823779043e+01 7.08003598354403181e+01 -6.55572603520357156e+00
1 -5.78443590327950190e+01 -1.10859822431122783e+01 7.53697341419986202e+01
1 5.60747808739679741e+01 4.07716938346107298e+01 -1.09618959369152176e+01
1 5.87444670641451054e+01 -1.07434609918814399e+01 -4.60811927284191540e+01
1 2.80951828781385409e+01 -4.32039922624458157e+01 -2.59909397379959977e+01
1 -7.60248937543104830e+01 -2.19132706471173044e+01 -1.50265286859236369e+01
1 -1.99010458317785250e+01 2.42665932968765787e+01 -1.70198646542935741e+01
1 -9.09451815053443724e+00 1.06721645229618005e+02 -1.66790244382775654e+01
8
Step 25000
1 -8.50639265303645260e+01 9.37245573591157779e+01 2.66875161253373356e+01
1 -6.62320386281986373e+01 1.73402735408790747e+01 7.31850684172861747e+01
1 1.04066200611691741e+02 -3.07223852117384189e+00 -1.96794786019390311e+00
1 6.70319414692019251e+01 -3.86300621421551398e+01 -8.79889165201906565e+00
1 5.26105904337672712e+01 -2.48589119255948781e+01 2.58516274931491168e+01
1 -2.57823935054534630e+01 -2.44952436929763984e+01 -8.76224721502177317e+01
1 -3.93756338473703549e+00 3.59983265842188089e+01 -2.12711187639720798e+01
1 -8.09933873653307046e-01 1.02827469464847454e+02 -2.76622033608565516e+01
8
Step 26000
1 -9.16301280804739662e+01 8.20738660183070721e+01 4.80480319078747300e+01
1 -4.58415295439418031e+01 3.08828849428224679e+01 4.65933019996859272e+01
1 1.21423305767456469e+02 -4.94945707423810219e+01 8.04203858912706693e+00
1 5.82951047055439986e+01 -5.35423024760446822e+01 2.17871280089746513e+01
1 7.29955168749672367e+01 1.14188390293419779e+01 7.51705831680952059e+01
1 2.87971981007273961e+01 -2.12771383963412966e+01 -1.17604330995343005e+02
1 1.90641055912539841e+01 2.80300026995171834e+01 -2.13900842203539412e+01
1 8.56356809040657296e+00 6.09170930616673019e+01 -3.45463844328078977e+01
8
Step 27000
1 -6.49890965515695171e+01 4.79660360225452109e+01 5.02264602106590132e+01
1 -1.30247107273339524e+00 2.52867684318631873e+01 4.79251107404760202e+00
1 9.65873232910129786e+01 -8.22918348183117274e+01 1.28430468065622652e+01
1 3.61317575751038760e+01 -5.23439221873702110e+01 3.98336514053905830e+01
1 7.67226087961861509e+01 5.03414365055456230e+01 9.92289090222421919e+01
1 7.15889115611823712e+01 -8.55863332623070150e+00 -9.95009778172784678e+01
1 4.55349711629033251e+01 -1.16333561555091247e+00 -2.15014457325727477e+01
1 1.58298082549197172e+01 -4.86346212186083093e+00 -3.44347315905433504e+01
8
Step 28000
1 -1.61398164778666668e+01 1.14582121335406217e+01 3.41701482480911594e+01
1 4.99611406203297648e+01 7.83126082024850678e+00 -3.66600238909298213e+01
1 3.44990610558899533e+01 -8.94085324751941783e+01 8.70391903739842476e+00
1 6.53577953751254093e+00 -3.67722913328584653e+01 4.57028756125576123e+01
1 5.30138043344926615e+01 7.28429294693729048e+01 8.51719792457004559e+01
1 9.07931255062316467e+01 1.23578799989298886e+01 -4.82241443813985100e+01
1 6.78292813986402052e+01 -4.20662162995695041e+01 -2.36095976401142309e+01
1 1.82123790040755971e+01 -7.02776111527370375e+01 -2.52751646872788172e+01
8
Step 29000
1 3.42972678994251794e+01 -9.94066511608870762e+00 8.24492903796444310e+00
1 8.47947732162606513e+01 -6.92117338992683351e+00 -6.26525038284959663e+01
1 -4.32351466417298056e+01 -6.78418474205483193e+01 -3.04197849837141643e+00
1 -2.30680201889991388e+01 -1.23867511108241395e+01 4.35212152904671044e+01
1 4.81036372033817550e-01 6.51055470572987360e+01 3.66608358914181238e+01
1 8.16227503060865729e+01 3.47874735710245915e+01 9.39333502079292515e+00
1 7.59319553114404329e+01 -7.65577192743973711e+01 -2.60573225906237340e+01
1 1.42969366658226953e+01 -1.11639378907645423e+02 -7.80615094668203291e+00
8
Step 30000
1 6.60532460715933354e+01 -1.08176938580533548e+01 -1.62940094909198869e+01
1 8.58108284165374755e+01 -6.61949322150152319e+00 -6.55370581364384890e+01
1 -1.06219540999762216e+02 -2.57997264249869858e+01 -1.58805527873710552e+01
1 -4.51942772707563947e+01 1.33736944499926160e+01 3.77276050223318009e+01
1 -6.68107692510071871e+01 2.66770206351044017e+01 -2.57498546207529380e+01
1 4.81179243913949648e+01 4.93358986899124190e+01 4.73126562006525404e+01
1 6.14657292786375038e+01 -8.54416275346846703e+01 -2.42915756450148308e+01
1 4.59090504518478859e+00 -1.15756908368635180e+02 1.37907067453250143e+01
8
Step 31000
1 6.88523079501070470e+01 -1.30980653077692244e-01 -3.09313563578834483e+01
1 4.96474686802642609e+01 1.08906738860931025e+01 -4.74667149604692042e+01
1 -1.29973374349371454e+02 2.10707531106915802e+01 -2.15142377897394752e+01
1 -5.42413100292012160e+01 3.36140825915284154e+01 3.03733741321126018e+01
1 -1.21650882095677915e+02 -2.62853787572128788e+01 -7.35666261021638235e+01
1 1.84673136556683226e+00 4.83595499631210686e+01 5.21949503500346452e+01
1 2.22044667722181011e+01 -5.74695243024718820e+01 -1.35705115943199424e+01
1 -8.32665256815388588e+00 -8.34907063924820818e+01 3.29302548521341549e+01
8
Step 32000
1 4.59176145341048070e+01 5.18376075083649646e+00 -3.30902360420656620e+01
1 -9.95855241294510307e+00 3.51217563384608482e+01 -1.88215384102985546e+01
1 -1.06867034805264197e+02 5.71182648949935370e+01 -1.45931661274397886e+01
1 -4.80690448579133260e+01 4.38390800133724454e+01 2.03296044089961470e+01
1 -1.37923201887011459e+02 -6.93131596562928252e+01 -8.71724482254597319e+01
1 -4.19607453589494810e+01 2.97505404870775116e+01 2.83753865668265028e+01
1 -3.39974237415734564e+01 3.09827359563789173e+00 7.36091916328854090e+00
1 -2.00102254195956810e+01 -2.80660230937483064e+01 4.28687562750708437e+01
8
Step 33000
1 1.10541099092544570e+01 -8.67235753925378816e+00 -2.59882762659188522e+01
1 -6.63907358865481569e+01 4.78408584734769207e+01 6.55567792645434810e+00
1 -4.79610205653973196e+01 7.22935943192984070e+01 4.07841238725628497e+00
1 -2.84476784792144812e+01 4.24109347535406869e+01 4.68160308378348233e+00
1 -1.03833375923128116e+02 -8.26994211642158916e+01 -6.52987996729655293e+01
1 -6.94023751698396012e+01 -1.30283578385916310e+00 -5.22928129649878048e+00
1 -8.86433308593575049e+01 7.39165937885135662e+01 3.34885468510231874e+01
1 -2.52700609067386601e+01 3.05851293152349157e+01 3.96713487908820710e+01
8
Step 34000
1 -1.84381861253438259e+01 -4.28863087748716723e+01 -1.56960616856354633e+01
1 -9.34537213164398679e+01 3.44494811985437153e+01 1.87193742065428239e+01
1 2.15604076477911022e+01 6.50636022013739677e+01 2.68025709340458782e+01
1 -5.93190985678717531e-01 2.99677410855564652e+01 -1.84328218450387773e+01
1 -2.76152772237903008e+01 -5.95910375113482260e+01 -2.31203033297029563e+01
1 -7.29919575103625249e+01 -3.38356189573172088e+01 -2.53843844391540188e+01
1 -1.20280350558473245e+02 1.24154900831335894e+02 5.50886565506062666e+01
1 -2.03172420818601829e+01 7.42930992972279540e+01 2.43897651346112596e+01
8
Step 35000
1 -2.99145769628096581e+01 -8.35354228015094833e+01 -7.09483079000411898e+00
1 -7.84055189619569006e+01 -6.16135995821513927e+00 1.63976189121075926e+01
1 7.34315611092275162e+01 4.23175611076296789e+01 4.18415838123903896e+01
1 2.76286948479776804e+01 8.95154484165633768e+00 -4.68676277099986294e+01
1 6.13965766435533737e+01 -1.04511007846161359e+01 1.53892733473366938e+01
1 -5.41298457823166075e+01 -5.57400180318751879e+01 -1.72005457468549814e+01
1 -1.15260917891703585e+02 1.30886568142995031e+02 6.29298731961432480e+01
1 -4.90185689781345690e+00 9.32569103235169052e+01 2.82567434154570307e+00
8
Step 36000
1 -2.10419335399889036e+01 -1.07430008465244015e+02 -1.02295080590253229e+00
1 -2.80538495618546335e+01 -5.85152285975803181e+01 6.76150079345089150e+00
1 8.99132907542263951e+01 1.49897218634084659e+01 3.91817747479039582e+01
1 4.70295904458098875e+01 -1.61592943316722604e+01 -7.27430444371707381e+01
1 1.25197695314902234e+02 4.06478183569192808e+01 3.15561353102286262e+01
1 -2.18226928478160822e+01 -5.88062311340154977e+01 1.77652506262540193e+01
1 -7.25712164279239573e+01 8.82480661106064019e+01 5.21816944754343268e+01
1 1.66055021425454186e+01 8.72751747900639145e+01 -1.69446028817145198e+01
8
Step 37000
1 -2.04042009539388836e-01 -9.32933254816299637e+01 5.71930511779853123e+00
1 3.28161470299868512e+01 -9.62626932801199615e+01 1.17755675856890440e+00
1 7.06718042973251670e+01 -7.69455039812971986e+00 1.56700761246300928e+01
1 5.00233460658101592e+01 -3.86668578481514302e+01 -8.39036177494275677e+01
1 1.39009850982993612e+02 7.02657761047552185e+01 2.35158897800545255e+01
1 1.10250088043406755e+01 -4.22649416109788447e+01 6.10785378751844092e+01
1 -5.44092996741710166e+00 1.06985260333619863e+01 2.47737638904664585e+01
1 3.58425500826973931e+01 6.27519594734624278e+01 -2.79541360096111546e+01
8
Step 38000
1 1.79673381343630894e+01 -3.31930386014757630e+01 1.71200750661294911e+01
1 7.39624615349267742e+01 -9.66244109870085026e+01 8.18041261615430670e+00
1 3.09213357277368495e+01 -2.16649332271434503e+01 -2.23950820916154711e+01
1 3.47848776413803833e+01 -5.09141469973929901e+01 -6.99615190457998182e+01
1 1.01037310466127749e+02 6.66395190009258869e+01 4.24148367021849904e+00
1 3.30701670845539439e+01 -1.33941564661051249e+01 8.59498331527443469e+01
1 6.08873428981722640e+01 -6.96601593264224164e+01 -9.81995137905050619e+00
1 4.31757447506071514e+01 2.83139927420819291e+01 -2.71764575969861859e+01
8
Step 39000
1 1.98674355765181723e+01 5.86324030441581598e+01 3.31316965567533472e+01
1 7.54960269998735498e+01 -5.31043402775066156e+01 2.81363175290154430e+01
1 -6.60320726160267579e+00 -2.85183004880335673e+01 -6.03038575488794208e+01
1 7.68379100002236104e+00 -4.73819715921788784e+01 -3.02330079056023635e+01
1 3.05542699377900924e+01 3.28948606307154918e+01 -8.07258477015090037e+00
1 3.94061976991064853e+01 1.60790094068579670e+01 7.16791432609491324e+01
1 1.01955716230175668e+02 -1.20058739786432923e+02 -3.94540680427423425e+01
1 3.19451883472184122e+01 -8.53034337893712902e+00 -1.66857712320009419e+01
8
Step 40000
1 1.52871003703353092e+00 1.46338125558537627e+02 4.71999720439283834e+01
1 3.70803348314732020e+01 1.97318978400419027e+01 5.19688568202219585e+01
1 -2.31847926926816186e+01 -3.31962151766165121e+01 -8.05467990600599677e+01
1 -1.87712668398248148e+01 -2.81955666284464996e+01 2.27625849040707919e+01
1 -3.98180507878377483e+01 -1.41468872491294526e+01 -1.31695080059543801e+00
1 3.25574843306913593e+01 3.55452985090672016e+01 1.54871489600120622e+01
1 1.06660907324212602e+02 -1.24569474360810005e+02 -5.61310841375446472e+01
1 2.60504156832492884e+00 -4.23175093918739265e+01 -2.75509750922405550e+00
8
Step 41000
1 -2.75389742108008946e+01 1.90620843240933681e+02 4.95976272515879373e+01
1 -2.01709852231276550e+01 8.98463549878949266e+01 6.43820914104568374e+01
1 -1.28906331167377619e+01 -3.98811940935153046e+01 -6.96590554530322663e+01
1 -3.21998677066685275e+01 -1.98894145439433401e-01 6.85288437713987832e+01
1 -8.03436766050103586e+01 -5.21530040308172929e+01 2.21638685914076241e+01
1 2.01580293080596071e+01 3.99967544375229238e+01 -6.31846183476486090e+01
1 7.83333668567447887e+01 -8.65052702037898342e+01 -5.76400897785095410e+01
1 -3.54440669226082221e+01 -6.85905624801413154e+01 7.05199402447878754e+00
8
Step 42000
1 -5.00415793786342178e+01 1.69726264868949244e+02 3.38095325377248273e+01
1 -6.42782638513332500e+01 1.24248461969095047e+02 5.24787699280376643e+01
1 1.56384431421509102e+01 -4.85910734089012095e+01 -2.25365886854439061e+01
1 -2.67795281831962910e+01 2.58589345746890622e+01 8.92247645803761600e+01
1 -7.93796679240957701e+01 -6.49170466409447187e+01 4.71074662416355210e+01
1 1.07543010464758222e+01 3.20460608657456447e+01 -1.29863243665335460e+02
1 3.11552993697598879e+01 -2.39298883280740711e+01 -4.60961833531241325e+01
1 -6.64996845693493412e+01 -8.27127783332989281e+01 7.82887431505595277e+00
8
Step 43000
1 -5.04323432688446758e+01 8.82136717258943861e+01 1.82066940834211799e+00
1 -7.07813827569283376e+01 1.06786538493827507e+02 1.35396472905024297e+01
1 4.24069942721516853e+01 -5.37634235832680645e+01 5.35043514823374906e+01
1 -5.87303963505665205e+00 3.99374543854837114e+01 7.80631229349852447e+01
1 -4.62928019315778556e+01 -4.89708323799441345e+01 5.51658156639771349e+01
1 8.90926833558893883e+00 1.95301553676177804e+01 -1.53006407321610311e+02
1 -1.52333409307335952e+01 3.75511917055507354e+01 -2.62221909561465587e+01
1 -7.52753027340848035e+01 -8.00157541231901348e+01 -2.22065156604540653e-01
8
Step 44000
1 -2.43853905547011038e+01 -2.17474992483014020e+01 -3.32781379208292094e+01
1 -3.45274082004904272e+01 4.43409329944213439e+01 -4.24258990060417744e+01
1 4.38147296590956827e+01 -4.59264698280255388e+01 1.33723053307277638e+02
1 1.93543834937022332e+01 3.66866050788921569e+01 4.20969043746616762e+01
1 -4.29370784396225069e+00 -1.40288431377163736e+01 3.64465610015971464e+01
1 1.28293878771908361e+01 1.00135404514781694e+01 -1.19037629490414318e+02
1 -4.46377325158490095e+01 7.64712116682397749e+01 -3.00154026188596834e+00
1 -5.39578388634459856e+01 -5.76828347777462440e+01 -1.18879883926209065e+01
8
Step 45000
1 1.62679615123645895e+01 -1.14130122166102680e+02 -5.33723082367541295e+01
1 2.60766751681069913e+01 -3.42747834764729120e+01 -9.40685534589206753e+01
1 7.02256851828273199e+00 -1.78968539989385178e+01 1.80969032648569879e+02
1 3.43658441156684020e+01 1.80325115455493687e+01 -6.43003175301843033e-01
1 2.29234725818616205e+01 2.22308450298289522e+01 -3.20735282473009908e+00
1 1.58806621840731879e+01 6.45087418765248000e+00 -3.81916770473913800e+01
1 -5.10778067478763944e+01 8.41307628063975272e+01 2.00207800408354899e+01
1 -6.79722488646806511e+00 -1.78867252485885153e+01 -1.90827771285431176e+01
8
Step 46000
1 5.13742298133179460e+01 -1.57325312298251959e+02 -4.82089834535394672e+01
1 7.78037016467384035e+01 -9.21024355857150425e+01 -1.18589093007972338e+02
1 -5.79610294548330316e+01 2.79090445283785016e+01 1.65108184950493410e+02
1 2.80497562179046369e+01 -6.99040306923085009e+00 -2.99046151312343405e+01
1 2.47008135454548601e+01 4.42088261045213926e+01 -4.57567475060697149e+01
1 1.08653234148004945e+01 5.91824307075107647e+00 5.72508895543755472e+01
1 -3.90312966947369162e+01 6.46390503604079782e+01 4.01583500701149987e+01
1 4.95580381093238245e+01 2.99778525497084196e+01 -1.50865997617514473e+01
8
Step 47000
1 6.48557786729069932e+01 -1.46546092128460884e+02 -2.12351548205757119e+01
1 9.36243914480383665e+01 -1.05906478877590772e+02 -1.04557725428601415e+02
1 -1.19338066965557701e+02 7.68866419664207541e+01 8.35738683628770787e+01
1 -1.13686977425842883e+00 -2.62581945115356952e+01 -3.41515378901356641e+01
1 6.37619666625617842e+00 4.57800002007935944e+01 -7.27502941070900846e+01
1 -5.09114751941262700e+00 2.25747225842627675e+00 1.28114522352981652e+02
1 -1.95763766872835703e+01 3.02248283282777663e+01 5.40488885905117868e+01
1 9.25261276334223766e+01 7.12925429396345720e+01 1.13378373349640116e+00
8
Step 48000
1 5.12502667793470792e+01 -9.72218544937396700e+01 1.26890144705687700e+01
1 6.52002030642444907e+01 -7.39477390500069589e+01 -5.53101654686029889e+01
1 -1.41311654504515019e+02 1.08486080855092624e+02 -3.07476697596012194e+01
1 -4.29219661987421617e+01 -3.04053678405664307e+01 -1.70358688168821786e+01
1 -1.79944325748051028e+01 2.97608568040435735e+01 -7.34496519222259252e+01