8
Step 0
1 -9.321326070699e+00  -6.620647350791e+01   2.192230498819e+01 
1 -8.248198198250e+00  -1.617199106698e+01  -7.593054286380e+00 
1  2.400492857207e+01   3.392125150928e+01  -5.637948731377e+00 
1  2.126464604586e+01   2.348679313380e+01   6.886595029720e+01 
1  6.973119689275e+00   6.026314038082e+01  -5.613207189903e+01 
1 -4.185591075337e+00   2.039818970777e+01  -4.194277105585e+01 
1 -4.494768800927e+01   3.092602338611e+01  -2.494547172582e+01 
1  6.436472496678e+01  -6.150106059053e+01  -2.602981437612e+01 
8
Step 1000
1 -9.940361231268e+00  -1.959431202849e+01  -3.342639815795e+01 
1  5.569677815935e+00   7.335234835667e+00   1.637683869626e+01 
1 -4.855347395316e+00   3.285035513066e+00   2.228075893335e+01 
1  2.470030343887e+01  -1.720255884801e+01  -1.041664551095e+01 
1  2.073749153023e+00   3.106982646402e+01  -2.324294608960e+01 
1 -1.443904237033e+01  -2.232099631584e+00  -9.581557765022e+00 
1 -5.814567577955e+01   8.397500613927e+01  -6.377579128118e+00 
1  3.343366510086e+00   1.017430942353e+01   2.639933241133e+01 
8
Step 2000
1 -1.157292546792e+01  -1.879616729622e+01  -5.181946747966e+00 
1  2.078749372334e+01  -8.311928107881e+00  -2.851392944860e+01 
1 -2.815090411030e+01   8.169065331322e+00  -1.166597527605e+01 
1  1.695512676775e+01   7.570760480035e+00   2.067124802737e+01 
1 -7.755678169867e+00   6.418056337225e+01  -3.230893080221e+01 
1 -2.839574108931e+01  -1.086869405413e+01   1.106497108771e+01 
1 -2.060890523744e+01   1.168805673763e+01   8.678407180929e+00 
1  1.876763464786e+01  -5.282488476845e+01   1.524073693648e+01 
8
Step 3000
1  5.913980647068e+01  -9.607754620701e+00   2.237311806817e+01 
1 -1.112313696776e+01   1.178319324767e+01  -3.498703895658e+01 
1 -5.320220131742e+01   1.237282139768e+01  -3.963180020424e+01 
1  3.321452462546e+01  -1.386744507133e+01   4.938702861920e+01 
1 -1.442664768056e+01   4.467835083437e+01  -6.207261450304e+01 
1 -2.019531490286e+01   4.781866486707e+01  -3.066943052368e+01 
1 -1.590536562253e+01  -1.562646299234e+00   2.576924630891e+01 
1 -7.496254370759e+00   1.350037914971e+01   8.683570954995e+00 
8
Step 4000
1  1.262812630850e+01   5.588200054002e+01   8.213142545284e+00 
1 -1.002265357922e+01   5.837637455033e+00  -8.400766621300e+00 
1  1.539597764763e+01  -1.321325632520e+00  -3.210800368600e+01 
1 -4.553133285769e+00   1.619989445589e+01   3.189295531470e+01 
1 -7.589968451884e+00   7.165856196039e+01   3.318960160505e+00 
1  1.525877610351e+01   5.776923002589e+01  -4.570012271940e+00 
1 -1.530265190975e+01  -2.899226865469e+01   5.747810653095e+00 
1 -2.392707877412e+01  -5.717911006562e-01   4.454135010194e+01 
8
Step 5000
1  1.445305949024e+01  -4.742461614340e+01   4.940758199429e+00 
1 -2.590598104350e+00  -1.394513513380e+01  -1.050467467530e+00 
1  1.585545137783e+01   1.805521455636e+00  -1.665821385438e+01 
1 -2.950512785752e+01   4.527190344104e+01  -3.453811275934e+01 
1 -4.609785129464e+00   1.825966130990e+01  -1.840059492186e+01 
1 -3.707990651039e+01   3.365270360385e+01   2.834714322935e+01 
1 -1.599553530106e+01   1.345914012863e+01   2.926441393213e+01 
1 -1.489942596392e+01   5.336425729091e+01   5.605419562737e+01 
8
Step 6000
1  1.463998597885e+00   1.552984903498e+01  -1.696645099785e+01 
1  4.869674966312e+01  -3.710826698718e+01  -4.432706266349e+01 
1 -1.399031951352e+00  -5.740567477608e+00   2.587678958553e+01 
1  6.839330888592e+00   4.266469759943e+00  -2.321651831755e+00 
1 -3.011113150457e+00   3.808301782321e+01  -3.364023777926e+01 
1 -1.575130892130e+01  -1.125167471525e+01   3.551548915580e+01 
1 -1.437033770862e+01   1.695180167523e+01   4.516591386466e+01 
1 -2.570528911855e+01  -2.565186342452e+01   1.452953467136e+01 
8
Step 7000
1  2.144745112643e+01   1.042957900240e+01   4.372703920829e+01 
1  8.838825708859e+00  -1.659588421257e+01  -3.957271369965e+01 
1 -1.250554257493e+01   4.772205672488e+01   6.167430288279e+00 
1  1.232004698086e+01  -2.591320887746e+01  -3.355515612121e+01 
1  5.620547014212e+01   7.032771997106e+01   2.467017735088e+01 
1  3.164303329753e+01   2.263755481577e-01  -6.528806137825e-01 
1 -2.061964513820e+01   1.574433121050e+01  -1.303464018652e+01 
1  9.641433979000e+01  -5.609430862388e+01   2.692939398716e+01 
8
Step 8000
1  4.346618634401e+01   2.362064094088e+01   1.798696745975e-01 
1 -2.742975527297e+00  -4.857668876239e+01  -2.863963872361e+01 
1  3.009639643170e+01   1.798511121981e+01  -9.221851641457e+00 
1 -3.375285951380e+00   9.623979607640e+00  -7.739197982397e-01 
1 -3.586268420205e+01   1.920720969040e+01  -5.849779698522e+00 
1 -2.254510435465e+00   3.084283126581e+01  -1.425088621496e+01 
1 -4.750353340579e+01   3.631127150553e+01   6.199865059169e+00 
1  1.580548665956e+01   4.097815627083e+01   4.588651556051e+01 
8
Step 9000
1  2.604746621291e+01  -5.984026434318e+01  -1.663384690671e+01 
1 -1.724511223621e+01   9.891232658181e+00  -1.123101773300e+01 
1  3.591754345833e+01  -4.355862687416e+01  -7.347808387204e+01 
1  1.574278855955e+01   1.358834240134e+01  -4.017872721787e+00 
1 -9.054338082607e+00  -4.633996844733e+01  -1.176711638089e+01 
1 -1.252434491500e+01  -5.330890455497e+00   4.302618687726e+01 
1 -2.572872945778e+01   4.010526550610e+01   4.044319447441e+01 
1 -4.364074597580e+01   6.090470966405e+01   7.236719790695e+00 
8
Step 10000
1  3.938963528156e+01  -3.531758067746e+01  -2.637004380009e+01 
1  7.370168514632e+00   3.905340274180e+00  -1.242850972683e+00 
1  3.382037137166e+01  -2.490904200678e+01  -3.187283007255e+01 
1  2.316810892064e+01   9.723053096733e+00  -2.451851150531e+01 
1  9.262515415542e+00   1.159295798574e+00   1.263751260457e+01 
1 -5.504796662597e+01  -2.707914151949e+01   1.251039965358e+01 
1 -2.356210557730e+01   3.774789774801e+01  -1.391220146569e+01 
1  4.045770706564e+01  -2.008103370855e+01   2.565061393216e+01 
8
Step 11000
1 -2.377078374652e+00   4.234169015768e+01   3.462249211960e+00 
1  2.202922205839e+01  -1.989437924401e+01  -2.648450892648e+01 
1  2.325825431358e+01  -3.878674470576e+01  -4.870184633203e+01 
1  4.729745564707e+01   5.078639709682e+00  -1.725767048855e+01 
1 -7.134690193317e+00   8.273004739033e+01   1.134171141122e+01 
1 -2.451393673270e+01   3.236241810587e+01   2.319136464946e+01 
1  4.533954319937e+01  -1.371467185558e+01  -3.155609129241e+01 
1  4.551379313698e+01  -6.889071311647e+00   4.236372279586e+00 
8
Step 12000
1  4.539725708769e+01   1.258102749360e+01   1.788283479143e+01 
1  1.878049439674e+01  -1.668487069826e+01  -3.118091078467e+01 
1  1.998540748931e+01  -3.681422779188e+01  -2.502125097151e+01 
1 -1.043601585374e+01  -7.822655858557e+00  -3.077795656162e+01 
1 -4.004827008928e+01   3.366270450653e+01   2.759101924122e+01 
1 -8.147585402983e+01   4.471222146174e+01   1.135269739604e+01 
1  3.614465032206e+01   3.927919089220e+01  -2.833580926232e+01 
1 -2.282973992728e+01  -6.959240877486e-01   9.396936326753e+00 
8
Step 13000
1  2.896224007108e+01  -3.253096060651e+01  -3.617890894509e+01 
1  2.819984395851e+00  -4.821520127921e+01   3.987773260584e+00 
1  7.920191205139e+01  -1.366986203186e+01   2.604157997102e+01 
1 -4.567707029920e+01  -1.373192374211e+01  -5.134702811151e+01 
1  3.709748567318e+00  -2.353875500889e+00   3.076724590776e+01 
1 -1.002573697251e+01  -3.732399117497e+01   3.416654780368e+01 
1 -5.427076957552e+01   2.209688424227e+01  -1.156076868540e+01 
1 -1.198043975665e+01  -6.782594523458e+00   3.464436447213e+01 
8
Step 14000
1  1.188862728406e+01   1.528248102241e+01   2.451974318668e+01 
1 -7.189237886063e+00  -3.700390065971e+01   3.713289132639e+01 
1  1.681735763851e+01   1.583913877820e+01   2.495039910579e+00 
1  1.021205825286e+01   2.772597744084e+01  -3.594836860136e+01 
1  4.212640867732e+01  -2.657185286851e+01   4.321336576748e+00 
1  2.828258270597e+01  -6.681447684942e+01   1.544014971282e+01 
1 -7.486860608264e+01  -5.498318501280e+01  -1.161235672074e+01 
1  5.289817550510e+01   2.322359118494e+01  -1.699338324078e+01 
8
Step 15000
1  2.900245173807e+00   3.082156641351e+01   3.194071990970e+01 
1  3.505476173958e+01  -2.720185213449e+01   3.944462004287e+00 
1 -2.893460006022e+01  -1.431159245054e+01   3.450977196011e+01 
1 -7.120870751458e+00   2.523390332900e+01   2.811333657706e+01 
1  7.671753343010e+01  -1.857355658247e+01  -6.233815945505e+01 
1 -9.825158591953e-01   2.050233813985e+01  -2.612726719424e+01 
1  1.641531247185e+01  -2.049296216561e+01   9.591873350739e-01 
1  2.972749597566e+01   3.379094916323e+01   1.798255735902e+01 
8
Step 16000
1  6.110500409622e+01  -1.325758602888e+01   3.317155546697e+01 
1 -2.312426631261e+01  -4.029944822133e+01  -3.235688706104e+01 
1 -1.408414361646e+01  -1.180152151670e+01   3.626664670543e+01 
1 -5.492475958891e+01  -8.085258349407e+01  -2.212043843297e+00 
1  2.842109359639e+01  -1.015913435496e+01  -2.832023706549e+00 
1  2.533811487752e+01  -1.514494807270e+00   3.035269855297e+01 
1  5.527616450039e+00  -4.199178375573e+00  -9.490965374750e+00 
1 -4.170412269058e+01  -8.535791071974e+00  -1.328968854233e+01 
8
Step 17000
1  3.554628801465e+01  -3.596999422898e+01  -1.016029557420e+01 
1  2.072882185421e+01  -3.764637773842e+01   3.917773910620e+01 
1  3.047825224986e+00  -6.549616147939e+00   1.653946868318e+01 
1 -4.858969504124e+01  -3.095228263370e+01   2.982525082304e+01 
1  8.728517320929e+00  -4.442014495594e+01  -1.096607651885e+01 
1  3.655932077009e+00  -4.462479234263e+01   3.611741729081e+00 
1  4.255727604125e+00  -2.312981917677e+01  -2.025908724028e+01 
1  1.561827554265e+01  -2.314644994705e+01   2.948731800487e+01 
8
Step 18000
1  1.915403126125e+01   5.196710358533e+01   3.106696447925e+01 
1 -4.143889647305e+01  -2.877848402110e+01   4.761248613849e+01 
1  4.820912343951e+01  -1.621227087159e+01   5.720566378640e+01 
1 -3.004869885839e+00  -1.733529095050e+00   1.661520546301e+01 
1  2.739767838528e+01  -2.347964879703e+01  -4.039340939022e+01 
1  1.591930995364e+01  -1.631313778049e+01  -6.815029619547e+00 
1  9.147884374045e+00  -4.160889769215e+01  -4.892259073417e+00 
1  5.338828557176e+01  -2.053226596180e+01   4.974813079368e+00 
8
Step 19000
1  4.318285512662e+01  -1.033239324331e+01   2.182649678642e+01 
1 -2.246453746365e+01  -4.009421774945e+01   5.934997487173e+00 
1 -7.244707997469e-01  -2.030362213709e+01   7.989237842117e+00 
1  5.662614322881e+01  -1.679121086837e+01  -5.871284201635e+01 
1  2.487142756070e+01   1.102932979243e+01   9.064424534820e+00 
1 -5.107702343198e+01  -5.746755096613e+00  -1.808396930743e+01 
1  2.548578681548e+01  -1.114326150275e+00  -1.962774675638e+01 
1  9.153739786734e+00  -4.847731182997e+01   4.644210131747e+01 
8
Step 20000
1  4.386118215573e+01   3.973347403697e+00  -3.351456090585e+01 
1  1.905984178534e+01  -2.468493402630e+01   2.310995285131e+01 
1 -3.495992449747e+01  -8.804696220951e+01   3.270170892013e+01 
1 -4.209164000449e+01  -2.344184054174e+01  -8.009260097818e+00 
1 -4.215521220351e+01  -1.846668148258e+01   2.492033722059e+01 
1 -1.809937873966e+01  -4.427079820809e+00  -2.264891588475e+01 
1  3.914233092780e+00   1.451430503995e+00  -3.380582697644e+01 
1 -1.966765655269e+01  -3.898487283674e+01   9.316758357176e+01 
8
Step 21000
1 -1.976642209748e+00  -2.215176282918e+01   6.680528588439e+00 
1  2.743090578796e+00   1.406921701018e+01  -1.760443577883e+01 
1  3.606829791816e+01   1.173959955077e+01   4.475983074929e+01 
1 -8.560607571389e+00   1.142084803926e+00  -1.857587620277e+01 
1 -2.498180153042e+00  -2.086639313818e+01  -1.266705116610e+01 
1  6.373246369830e+01  -5.492894019945e+00   1.603066336102e+01 
1 -2.845128564326e+01  -7.414316464305e+01  -2.308190247138e+01 
1 -1.422296898419e+01  -6.557016208277e-01   1.808112776187e+01 
8
Step 22000
1  7.693659471141e+00   3.565613652333e+01   8.375106863579e+00 
1 -1.770745452529e+01   2.597143875804e+01   6.290227028304e+01 
1 -8.892246550709e+00   8.910412519507e+01   8.210908865007e+01 
1  4.772925879333e+00   1.934557962986e+01  -2.457027153088e+01 
1  4.418615602090e+01   3.130276692493e+01  -4.605025423451e+00 
1 -2.591192703356e+00  -2.713872305970e+01   8.639281866644e+00 
1  4.067926330266e+01  -4.551930515720e+01  -1.134104189218e+01 
1  2.207815822078e+01   7.504074895727e+00  -6.236382562817e+01 
8
Step 23000
1  1.773945401087e+00   6.796516894646e+00  -3.568619887303e+01 
1 -3.148122044283e+01  -1.367669256404e+01   3.775156509877e+00 
1  3.577002690155e+00   1.627797791192e+00  -2.654274813961e+01 
1 -5.204868205690e+01  -3.055591748384e-01   2.493426136212e+01 
1  1.471975277554e+01   4.036008994636e+00  -1.952496257173e+01 
1 -2.821491136020e+01   3.325015286956e+01  -2.649210730909e+01 
1  3.873559359750e+00  -2.874685794135e+01   2.153100787808e+01 
1  9.713170976541e+00  -4.258474821535e+01  -5.395719945281e+01 
8
Step 24000
1  9.022603179655e+00  -1.311038079236e+01   2.485664714493e+01 
1 -4.307018916807e+01   4.590471826007e+01  -3.674396077835e+01 
1  1.250141735386e+01  -1.674190636804e+01  -1.295642107022e+01 
1 -2.346920723072e+01   2.428014310993e+00   1.079317470514e+02 
1 -1.722571123938e+01   6.409516599175e+00  -7.017058119920e+00 
1 -3.995103291981e+01   6.652799712499e+01  -3.464049852365e+01 
1 -4.782556947616e+01  -5.133379754634e+01   1.921095962525e+01 
1  1.090967265547e+01  -6.611839762583e+00   3.703629529976e+01 
8
Step 25000
1 -9.589954822265e+00  -1.315110405776e+01  -8.225244552983e+00 
1  1.735881243880e+01   8.746268127897e+01   2.819309494131e+00 
1 -1.021229665840e+01   6.134620477011e+01   2.198896381200e+01 
1  2.030076258760e+01  -4.924815304902e+01   3.348377896419e+01 
1  4.916841119226e+01   1.292500344239e+01   4.819790512780e+01 
1  2.497429488528e+01   5.319313974339e+01  -8.342326023168e+01 
1 -4.477969831608e+00   4.942032612719e+00  -5.138246051570e+01 
1  4.472973094679e+01   4.841608065291e+01  -2.806995590123e+00 
8
Step 26000
1 -3.999422890470e+01   1.818650566636e+01   1.771898663111e+01 
1 -8.375878410439e+00   5.166291322911e+01   2.909832807821e+01 
1 -4.093033838004e+01   1.197969206813e+02   1.273193161045e+01 
1  4.709888720829e+01   7.921069278606e+00  -2.652533113918e+01 
1  4.316863262227e+01   1.632160461016e+01  -4.603264828608e+00 
1  4.091533840105e+01  -8.999670335742e+00   1.936509943271e+00 
1  2.583756453364e+01   7.537097202004e+00  -1.512051000614e+01 
1 -2.603623723831e+01  -4.018846813927e+01  -8.021619873352e+00 
8
Step 27000
1  7.879917149767e+00  -5.330049735161e+00  -4.068407831065e+01 
1 -5.032316129256e+01  -1.525763432736e+01  -1.673195784569e+01 
1 -1.121334879507e+01   1.609702157199e+01   1.646462310995e+01 
1 -1.386205378579e+01  -2.633617398112e+01   2.094460460037e+01 
1  1.832420967464e+00   6.609579709854e+00  -2.374648544360e+01 
1 -1.446914499163e+01  -9.866013454359e+00   9.037296822313e+01 
1 -1.727073482429e+01   5.576364833520e+01  -3.603411533159e+00 
1 -4.637506648194e+01   2.200185322337e+01  -3.758350353187e+01 
8
Step 28000
1 -1.400337257024e+01  -1.015309911649e+01   3.170519339472e+01 
1  4.606976609649e+01   3.338496654338e+01  -3.832530974663e+01 
1  1.710686767232e+01   8.412040993580e-01   9.766482468835e+00 
1 -9.365181990694e-01  -6.708924760197e+01  -3.283733446255e+01 
1  1.604624611228e+01  -4.670313068726e+01   2.210960278729e+01 
1 -1.566291638866e+01  -7.444582412779e-01  -1.254372445725e+00 
1 -5.379446269598e+01   8.214297760367e+01   6.100393718582e+01 
1  7.713904268946e-01   3.728395661030e+01  -3.509009776607e+00 
8
Step 29000
1 -4.425005913773e+01   8.170262863214e+00   7.691833794008e+01 
1  8.381938890966e+01   6.298097396656e+01  -3.107986928851e+00 
1 -1.683283609349e+01  -1.571956107378e+01   7.039363669779e+01 
1  3.787829018126e+01  -1.425533123760e+00  -3.890185627328e+01 
1  1.615699373462e+01  -3.692877429232e+01   2.134470595233e+01 
1  5.374647065924e+01   1.847161208025e+01  -7.344951924910e+00 
1  9.116221825454e+00   3.210473273835e+00   4.545627967220e+01 
1 -4.013458653567e+01   8.133137911248e+01  -1.941377359323e+01 
8
Step 30000
1  4.743381225074e+01  -4.363336985179e+01   2.491672464754e+01 
1 -9.625214234176e+00   4.267472140448e+01   3.688697670657e+00 
1 -1.457908649346e+01   3.940546080252e+01  -3.859707319838e+01 
1 -2.553841472055e+00  -2.121567428701e+01  -4.178180910163e+01 
1  3.917142600413e+01   1.998133363886e+01  -6.447018689656e+01 
1  2.398986118940e+01   2.915211339512e+00   4.690473998173e+01 
1 -3.852527361832e+01  -1.081130891447e+02  -8.846595735337e+00 
1  4.146092938126e+00   5.166763338751e+01   8.520782576112e+00 
8
Step 31000
1 -9.322952110584e+00  -1.020695708043e+00   1.378970605044e+01 
1  4.185290704659e+01  -6.704937116560e+01   7.370200434923e+00 
1 -1.793330294906e+01   2.676710394905e+01  -2.048875069409e+01 
1 -1.948541287479e+01  -5.608243930060e+01   1.877877230273e+00 
1 -5.053255555354e+01   4.584640602645e+00  -7.960821210601e+00 
1 -1.181986466360e+01   3.004585880516e+01   4.724533681755e+01 
1 -1.215768033274e+00   4.033716601199e+01  -6.515931165467e+01 
1 -4.209847619468e+01   2.461999930093e+01   9.812812975414e+00 
8
Step 32000
1  5.766956121717e+01   1.692447380479e+01   5.813849036760e+00 
1  9.844679904804e+01  -4.778946105233e+01  -3.461055554891e+01 
1  4.011140485521e+01   2.596669785001e+01  -1.263082421704e+01 
1 -7.614658423999e+00   2.529469931750e+01   1.779102260013e+01 
1  6.905693396018e+00  -1.607210433511e+01  -2.096657298516e-01 
1 -1.956521121372e+01  -1.827629856112e+01  -1.363149198935e+00 
1  1.808580768329e+01   4.474968953693e+01  -2.631184508731e-01 
1 -1.536378665723e+01  -4.121320563616e+01   4.620342390165e+01 
8
Step 33000
1 -7.040616066741e+00   3.213539966910e+01   6.012558748080e+01 
1 -1.892555200814e+01   2.118626153738e+00   1.863146819585e+01 
1  4.256379453664e+01  -1.023909513464e+01  -1.348433799669e+01 
1 -3.244608559527e+01   1.737889430921e+01   3.934661047225e+01 
1  3.556689396995e+01  -2.463533219004e+01  -3.755340849994e+01 
1  1.738553582631e+00   2.647805936857e+00  -5.712291022572e+01 
1  2.654992900513e+00   1.579896598448e+01   2.842224049780e+01 
1  3.959765300488e+01  -6.161518543642e+00   5.201253926076e+01 
8
Step 34000
1  3.325567151293e+01  -5.034538567937e+00   4.325018291600e+00 
1  3.223497702821e+01  -8.652700853172e+01  -1.776193413213e+01 
1 -2.587915685916e+01  -9.304045378890e+00   2.012381712162e+00 
1  4.717704920677e+00   5.434841772901e+01  -3.597486076259e+01 
1 -4.971269275906e+01   7.125729843854e+01  -4.429418322442e+01 
1 -6.882529493247e+00   3.368987716279e+01  -5.394286221501e-01 
1 -2.805861155652e+01  -8.696523337330e+01   2.625809521758e+01 
1  3.548900238465e+01  -1.527301268961e+01  -2.922185765583e+01 
8
Step 35000
1  2.893650660147e+01  -1.530257930053e+01  -2.348773068563e+01 
1  3.506523544071e+01   1.018790884750e+01   7.646421977228e-01 
1 -5.621657656657e+01  -6.743612282521e+01   3.173689037128e+01 
1  3.695701782335e-01  -1.876333325049e+01   1.122427002365e+01 
1 -4.806966803591e+01   5.111935533808e+01  -1.396432614415e+00 
1  6.967113337466e+00   4.394729696473e+01   1.999869054943e+01 
1 -3.053407865541e+01  -5.628051573594e+01  -1.535125483076e+01 
1  2.751747880470e+01   3.103821099219e+01  -1.159012301841e+01 
8
Step 36000
1  4.025723917809e+01   4.928415990090e+01  -6.243063042737e+01 
1 -2.840322889690e+01  -6.912483036645e+01   5.434355363173e+01 
1  6.039101571568e+01   1.251984596073e+00  -2.147061351095e+01 
1  8.059664072303e+00   4.281646061748e+01   2.965332021141e+01 
1 -1.671000999100e+01  -3.569384796629e+01   1.816436491233e+01 
1 -3.809964360962e+01  -1.383316395595e+01   2.104400056715e+01 
1  1.494531469943e+01  -9.048512337321e+00  -6.332366095019e+01 
1  7.659180257385e+01  -3.263054666207e+01   5.624148212080e+01 
8
Step 37000
1  2.200499630492e+01   3.360556320413e+01   2.712084571560e+01 
1 -2.481518042750e+01  -3.660622239025e+01   8.255487490362e+00 
1  3.467091080048e+01   3.002826657842e+01  -1.657094898797e+01 
1 -1.546567521438e+01   3.383587352248e+01  -4.596189951186e+01 
1  1.946192867024e+01   1.244717045108e+01  -1.690234877698e+00 
1 -1.505817303557e+00  -2.079017610010e+01  -6.259602556149e+01 
1  1.528932676402e+01  -1.060841337350e+01  -7.119763393654e+01 
1 -3.184558470593e+01  -4.464394154061e+01   3.814585200424e+01 
8
Step 38000
1  3.983118259464e+00   2.239116490492e+01  -2.089348184057e+01 
1 -2.208661208113e+01   6.712255929706e+01  -7.420704610853e+01 
1 -5.194680332713e+00  -5.821377259187e+01  -8.168829317698e+00 
1  2.629623203203e+00   1.498132656196e+01  -6.213330903532e+00 
1 -4.197625888803e+01   8.890043322529e+01   6.455272828926e+00 
1 -1.536025753122e+01  -2.367957093161e+01  -9.436459306075e+00 
1  4.175233414043e+01  -1.974216148713e+01  -2.618883998374e+01 
1  1.806116741964e+01  -5.149449151688e+01  -4.852652513103e+01 
8
Step 39000
1  3.254481995551e+01   1.051271010683e+01  -3.595144410275e+01 
1 -1.981803353492e+00  -1.910751738999e+01  -2.144372792772e+01 
1 -3.257721880584e+01  -7.221328456291e+01   2.022005605264e+01 
1  7.385567939771e+01   1.946733232622e+01   1.264674257345e+01 
1  6.975924654236e+00  -2.695954385868e+00  -3.185301411674e+01 
1 -3.819876929816e+00  -1.761187872121e+01   2.149681359866e+01 
1  2.813512534869e+01  -4.621757805276e+01   5.546959114558e+01 
1  4.366383415057e+01   3.426651547592e+00  -7.781417729636e+01 
8
Step 40000
1  7.555936167882e+00   1.390628979393e+00  -1.007971760061e+01 
1  5.758177348626e+01   4.926257267261e+01   1.041956757486e+01 
1 -2.344647407110e+01   2.540690177159e+01  -1.689910265214e+01 
1 -4.236237385384e+01   1.588843285089e+01   8.379488734490e+01 
1  1.014828078599e+01  -5.464309521674e+01   2.474111741760e+00 
1  4.684084818037e+01   3.040177209440e+01   2.886557465999e+00 
1 -3.976840194677e+01  -9.527758495334e+01   1.136221818970e-01 
1  4.400025597943e+01   2.682628804124e+01  -2.546185780675e+00 
8
Step 41000
1 -3.514793175228e+01  -4.393663851253e+01   2.995935549598e+01 
1  2.937853987881e+01   8.570103272102e+00   1.183546827836e+00 
1  3.229114029404e+01   9.104591708265e+00  -6.550498772490e+01 
1  2.294967404798e+01   9.815530395852e+00  -2.649975750107e+01 
1  2.199615254012e+01  -3.207620802837e+01  -8.095179543422e+01 
1 -5.079322305829e+00   4.046996299025e+00  -5.881704234816e+01 
1 -2.760105783400e+01   3.617595250536e+01  -6.256745961292e+01 
1 -2.347305766346e+01  -5.804201073007e+01   4.358973371518e+01 
8
Step 42000
1  3.753759151194e+01  -2.044650470147e+01   7.556078375554e+01 
1  3.742248151259e+01  -1.992082462318e+01  -6.396319263590e-01 
1 -5.555241112433e+01   4.317249076539e+01  -2.981213324699e+01 
1 -3.363244414973e+01  -3.511929414971e+01  -2.197923764379e+01 
1  4.288787167508e+01   1.662672819030e+01   3.308287813964e+00 
1 -3.782126762283e+01  -6.628162213441e+01   1.203070602883e+01 
1  1.487391679528e+01   6.633052551270e+00  -1.213406227543e+01 
1  5.072464864401e+01  -7.145630012911e+01  -5.301714092300e+01 
8
Step 43000
1 -2.288906580141e+01  -3.871457307156e+01  -5.863199460199e+00 
1  1.178253309219e+02   2.533131419249e+01  -3.347091076790e+01 
1  4.646683141595e+01   2.670384531660e+01   3.849892105751e+00 
1  2.292100344771e+01  -5.441094419472e+01  -2.654314272153e+01 
1  6.163908519267e+01   1.002348419346e+01   2.485062963669e+01 
1 -5.503378800798e+01  -4.762591485235e+00   4.602718572352e+00 
1  1.356933189581e+01  -2.477138026803e+01  -7.531370324205e+00 
1 -9.305248695975e+00  -1.252918091602e+01  -2.575460276268e+01 
8
Step 44000
1 -1.671857670925e+00  -2.561308339637e+01   1.985314865851e+01 
1  4.409995575516e+01   7.694368945009e+01  -4.034102083161e-01 
1 -5.848524764315e+00   5.068710813439e+01   5.905876670795e+01 
1  1.119139191932e+02  -9.882957626630e+00   3.588894059433e+01 
1 -2.391267133229e+01  -3.890489562571e+01  -1.367337999317e+00 
1 -5.505978655712e+01  -2.243688276117e+01   1.888023231519e+01 
1  1.099466062603e+01  -3.582051076637e+01   3.067679748084e+01 
1  1.201442562613e+01   6.371803685047e+01  -1.980942670444e+01 
8
Step 45000
1  7.695958336793e+01  -1.292814615394e+01   5.099897360373e+01 
1 -9.425316153929e+00  -2.551950512258e+01  -1.011174280000e+01 
1  1.239894080491e+01   2.765966604926e+01  -3.375952180185e+01 
1  5.208534251656e+01  -1.808303729101e+01  -2.278403965157e+01 
1 -6.686601986853e-01   3.260241125230e+00   2.392699185572e+01 
1 -3.309606102038e+01  -6.061589661633e+01   2.218344149296e+01 
1 -4.826557394159e+01   4.696175117279e+00  -2.717853350967e+01 
1  9.522948143741e+00   4.247957796826e+01  -4.373641323464e+01 
8
Step 46000
1  7.965149083436e+01  -2.436381918922e+01   6.857995703798e+01 
1  6.092324552089e+00   3.376183196893e+00   1.127749395292e+01 
1  7.178475042184e+01   5.235822875724e+01  -4.546695316208e+00 
1 -3.163272645605e+01   4.600776491066e-01   4.388907570953e+00 
1  6.013631170587e+00  -2.403002220416e+01   2.155471995493e+01 
1 -1.397261456626e+01  -1.412291132428e+01   1.437142505043e+01 
1 -1.501297306292e+01  -3.178929642317e+00   1.237761183838e+01 
1  2.473647905875e+00  -4.783227546680e+00  -4.030993420712e+01 
8
Step 47000
1  4.750307083650e+01   4.243320629953e+01  -2.478725332580e+00 
1 -1.721835070180e+01   4.708573219494e+01  -1.053661474146e+01 
1  6.966455632641e+01   9.332370694948e+01   6.376501540880e+00 
1 -7.114912619176e+00  -2.380558359330e+01   8.686494212557e+01 
1  7.203448368011e+01  -4.442816210840e+01   3.531317306168e+01 
1  5.527509395960e+00  -5.012396932625e+00   1.618348156453e+01 
1 -2.964667354136e+01   1.399510519281e+01   7.793831035351e+01 
1 -1.886705514366e+01   3.029655641506e+01  -7.417224923198e+01 
8
Step 48000
1  6.152370480826e+01   3.516429109056e+01  -5.204068962032e+00 
1  5.580855225079e+00   1.075727636690e+01   3.739234838513e+00 
1 -4.857510050512e+01   3.941051654354e+01   1.047509292888e+01 
1 -2.702905774410e+01  -3.984685453434e+01  -2.916348242916e+00 
1  7.722385124784e+00  -1.088502242978e+01  -9.571547257875e+00 
1 -2.674768841651e+01   2.570051852208e+01  -5.213127271040e+01 
1 -9.340073517163e+00   2.734989840246e+01   4.566184914211e+01 
1  4.234152116552e+00   4.145662567022e+01  -1.441792165662e+01 
8
Step 49000
1  3.993894818343e+01   4.445858742931e-01   3.439146080072e+01 
1  3.242189524162e+01   3.285371063933e+01   1.285175551473e+01 
1 -3.966478632723e+01  -1.002065603688e+01  -3.955126902507e+00 
1  1.722597279036e+00   5.923792333043e+00  -5.156340128467e+01 
1 -1.104685009125e-01  -1.491894485644e+01   2.885466211523e+01 
1  3.909311495381e+01   3.081456122313e+01  -2.261734577849e+01 
1 -7.182377546380e-01  -1.702808058608e+00  -2.224075760980e+01 
1 -6.777599953950e+00   4.384980377245e+01   3.247384982317e+01 
8
Step 50000
1  1.093452153572e+02   4.233809905172e+01   4.218267976743e+01 
1 -1.109267210687e+00   5.905749521162e+00  -1.318996632039e+01 
1 -6.255423588936e+00  -2.425534078207e+01  -4.191222954155e+01 
1 -1.197530032999e+01   1.017638581728e+01  -1.488707859691e+01 
1 -4.374605189117e+01  -7.359217444215e+01   1.303469260062e+00 
1  1.159825458630e+01   3.378520629927e+00   5.829218775033e+01 
1 -4.048137421031e-01   5.868653578350e-01  -2.154545648550e+01 
1 -6.668828062183e+00  -1.666255119042e+01   4.882620486261e+00 
8
Step 51000
1 -1.283645823356e+00   2.644100808122e+01  -2.646981556804e+01 
1 -6.988059760082e+01   2.570172455017e+01  -3.260291640517e+01 
1  7.891021567408e+00   2.109355226437e+01   1.372980954462e+01 
1 -2.715896292395e+01  -1.432820520299e-01   1.864919930908e+01 
1  4.453338485027e+01   5.514045092674e+01   4.047615196626e+01 
1 -4.366515494912e+00  -1.684759173028e+01   3.964442312528e+01 
1  2.142919296243e+01   4.124606829536e+01   1.498976379414e+01 
1 -6.246392028196e+00   2.435342299517e+01   3.625542550269e+01 
8
Step 52000
1  2.928907411328e+01   3.714750043742e+01  -3.409121110894e+00 
1  1.220457138693e+01   2.882896825874e+01  -8.267297526696e+00 
1 -6.524276913755e+00   2.681346241087e+01   3.575589122305e+01 
1 -8.812097866124e+01  -2.964941986846e+01  -1.125567666880e+01 
1  3.585600820778e+01   3.551106708724e+01  -3.785594703476e+01 
1 -4.835445064624e+01  -3.000035521035e+01  -5.151979079958e+01 
1  5.126312734981e+01   1.314659126603e+01   1.226066077486e+01 
1  5.245240648572e+01   1.048461264683e+01   2.281858120652e+01 
8
Step 53000
1  1.279618158972e-01   5.927420478608e+00   3.527897132586e+01 
1  6.540690230277e+01  -4.775262973476e+01   2.901518586440e+00 
1 -3.879681802668e+01   5.306524072453e+01   3.367120394959e+01 
1 -1.128529116404e+01  -4.421314411108e+00  -8.966644803845e+00 
1  1.138455244144e+02  -2.746100132993e+01   1.221664978156e+01 
1 -3.922818493376e+01  -1.303838855075e+01   4.893276443483e+00 
1 -1.982909124446e+01  -5.389450757148e+01   5.703273855961e+01 
1  2.350425366940e+01   2.970739215304e+01  -1.988704726328e+01 
8
Step 54000
1  5.649149940737e+01   3.530636306238e+01   2.808375722544e+01 
1  2.756860981756e+01  -1.107237003480e+01  -4.816600539099e+01 
1 -1.757521587051e+01  -5.345733266876e+00  -5.643918424218e+00 
1  4.184577378712e+01   2.832405898324e+01   4.615767249279e+01 
1 -1.048675601756e+01  -1.998673311494e+01   5.167040945955e+01 
1  7.242233954565e+01   8.441517516771e+00   1.297233659627e+01 
1 -3.346884494509e+01  -7.124943619118e+01   7.042177295911e+00 
1 -4.968388817010e+00   4.680948997187e+01  -2.206671609452e+00 
8
Step 55000
1 -2.458749058476e+01   4.294043160508e+01  -1.520451936863e+01 
1  1.072789167902e+00   2.833744366348e+01  -1.438207535015e+01 
1  5.837781236874e+01   1.742855176101e+01  -4.865356304894e+01 
1 -1.932590569856e+01   3.900267646765e+01   5.114116809686e+01 
1 -4.558259031212e+01  -2.652966679547e+01   4.731430988733e+01 
1  3.584561998210e+01   1.661228670540e+01  -1.785249836108e+01 
1 -4.896140519482e+01  -1.544079615918e+01  -1.335195372053e+01 
1 -5.393530071160e+01  -4.705108820416e+01  -2.815078032036e+01 
8
Step 56000
1  1.926317515504e+01   3.690860929067e+01  -1.793060898307e+01 
1  7.962151714504e+00   4.502386087879e+01   1.487946963124e+01 