8
Step 0
1 4.02573418348032419e+00 7.25924814801329035e+01 -7.37016840553729082e+01
1 6.74178258713448031e+00 -6.62212382901105627e+01 7.29755721256853462e+01
1 1.18275084079295254e+02 -1.33727210584591177e+02 1.21898659695395679e+02
1 1.12983988585053169e+02 -8.74705266328554671e+01 -6.29599970029564844e+01
1 1.07032580602187579e+02 -9.85409922385121604e+01 1.06768343259554399e+02
1 -9.23227384961577116e+01 1.46317214693880771e+02 6.64975713889727160e+01
1 7.52478357784244452e+01 -1.41212856387992275e+02 -1.10749764006389398e+02
1 -1.38566548014815197e+02 -2.68576852312545071e+01 -2.37939378072723002e+01
8
Step 1000
1 -2.54307064347091405e+01 -5.21013683220234540e+01 8.24062250755082744e+01
1 1.41402816904852457e+01 6.73213226876675606e+01 -1.06430682784371086e+02
1 -1.07113740574061907e+02 1.00052204343482572e+02 -8.02030104438245957e+01
1 -1.04545846357977567e+02 8.81977480671418164e+01 1.25940045062295880e+02
1 -9.54471297822032767e+01 1.23034196694638354e+02 -4.54710959372525707e+01
1 9.15898420462479237e+01 -1.15848660348710766e+02 -6.49480063857080125e+01
1 -1.68078254978498371e+01 1.46937310665299748e+02 7.23152385736838994e+01
1 1.12893654498000345e+02 -4.90398979741913266e+01 -8.45367739304915844e+00
8
Step 2000
1 4.41137738176083118e+01 1.32747050749744169e+01 -7.64842786882111625e+01
1 -3.88510301280005095e+01 -7.76189471073502943e+01 1.24556866841738426e+02
1 5.00575694169914343e+01 -5.03384352523331771e+01 3.50961378115768170e+01
1 5.22903113688199142e+01 -5.11573236725724243e+01 -9.70647743846641902e+01
1 4.50084693025502816e+01 -1.01769411317249620e+02 -5.98776846232267079e+00
1 -7.50313022888944516e+01 8.39705110770000545e+01 3.53166000741172539e+01
1 -3.14524754020696413e+01 -7.86315928389017529e+01 -1.72357006183620882e+01
1 -8.85880721752995868e+01 7.56804629815300274e+01 5.72288763577356150e+01
8
Step 3000
1 -5.01794992643220965e+01 4.34204924981471585e+00 6.41658952202587045e+01
1 5.71788578640635663e+01 7.13892900451855184e+01 -1.18022805661335852e+02
1 -5.87659306659232694e+00 2.87146476531604478e+01 -1.02275906156403398e+01
1 -5.25394102497386761e+00 2.89824928551871537e+01 4.25231984961709841e+01
1 -6.27848323211644654e+00 8.00210046473173264e+01 1.84629774351019194e+01
1 7.53915947763562144e+01 -6.85394746585347150e+01 -7.88857924118752507e+00
1 6.41369861000245720e+01 2.88512866133830599e+01 -3.19819771405760944e+00
1 5.55840828417988249e+01 -4.96705893147304565e+01 -7.11490377952574562e+01
8
Step 4000
1 4.06064377481622216e+01 4.87982641699097908e+00 -5.13838692947529481e+01
1 -5.05463428646483308e+01 -3.04074030765279630e+01 6.73310607101421681e+01
1 -2.40912735394990349e+01 -2.69696671465002353e+01 -3.87068556583755585e+00
1 -1.71154552291350974e+01 -3.63319574100535974e+01 9.47714134782809836e+00
1 -3.32030661276798469e+01 -4.20949515355146318e+01 -8.19064715241725949e+00
1 -6.93595613785468572e+01 5.30663503647907433e+01 -3.54582505838528164e+01
1 -8.78218392957172682e+01 1.01035716679998586e+01 -3.75754834328803611e+00
1 -4.87261585685963325e+01 1.55396120776247582e+01 1.10338839601108333e+02
8
Step 5000
1 -1.67416511300176793e+01 -4.12571800477458979e+01 3.71156047215307154e+01
1 4.51253883148552077e+01 -7.23509644116577899e+00 -3.64362673437293765e+01
1 2.95389683383601991e+01 4.49426493163155598e+01 6.07769687499660805e+00
1 9.31196029064199848e+00 6.82630228456381332e+01 -6.38795043483483056e+01
1 5.83417564253019023e+01 1.63574537033679102e+00 -2.42692156674385018e+01
1 5.80809666770978694e+01 -3.11964202016180217e+01 8.84180293453286339e+01
1 9.26577427369222306e+01 -4.51545973232311155e+01 4.54390747728715283e+01
1 3.48803985082127639e+01 3.84468720208397556e+01 -1.32256676233266546e+02
8
Step 6000
1 -1.89265878255418301e+01 9.37701619118132186e+01 -2.50952452340455743e+01
1 -4.56786039094164309e+01 2.66179184758844336e+01 2.97026931863093644e+01
1 -1.35437711414154283e+01 -7.63979060895672859e+01 6.34423462698877838e-01
1 3.29326654250389623e+01 -1.11879585052110713e+02 9.48767804093633202e+01
1 -5.36858619379871200e+01 3.69316172648152730e+01 7.43026105983338994e+01
1 -5.18538934161111627e+01 -7.81219987523317894e-01 -1.34929684509648865e+02
1 -7.04345345450034728e+01 5.54651625230302514e+01 -9.77648917626730452e+01
1 -1.65619680843180426e+01 -8.12143678917042564e+01 1.14031081086023292e+02
8
Step 7000
1 4.11520492037712629e+01 -1.03006375769107436e+02 1.38886123932168442e+01
1 5.20124452822536796e+01 -1.95953334131253456e+01 -4.76180024140984628e+01
1 -1.47156423715446198e+01 1.22968544628938659e+02 -1.93328366234377889e+01
1 -7.91087883888936716e+01 1.26787689039558046e+02 -6.94142808823223874e+01
1 6.44996574145711143e+00 -7.01176570405965975e+01 -1.14346963830676174e+02
1 5.55478099720993370e+01 4.04543252652254353e+01 1.59059287098853105e+02
1 4.24863091393931214e+01 -3.72453486650713685e+01 1.14973994994317977e+02
1 5.58185269620297220e+00 8.36672659812271746e+01 -6.43296996911256542e+01
8
Step 8000
1 -2.71840847181929313e+01 5.51440104607999046e+01 -8.61815195974989479e+00
1 -6.44336795368644601e+01 -1.78187921487890968e+01 8.74269846385427627e+01
1 5.55520650189359060e+01 -1.67094710592279711e+02 4.79077311242458279e+01
1 8.04130872507393946e+01 -8.74841402456752348e+01 -3.97239011481001958e+00
1 5.74340769808704792e+01 7.98862359022431292e+01 1.00985475881650842e+02
1 -6.56780294794009620e+01 -7.84015745520054850e+01 -1.10804425316543202e+02
1 -4.28735828175235199e+01 1.39606214637302450e+01 -8.20960062413617777e+01
1 -7.76745748491254151e+00 -4.39305530361192353e+01 8.97072474524307850e+00
8
Step 9000
1 -3.11090016085639043e+00 -4.53927006134236333e+00 5.90731305921837730e+01
1 8.40089250545948403e+01 6.75123415589788607e+01 -1.04238072509037167e+02
1 -5.11481198430178878e+01 1.26051578766170593e+02 -6.03517058046990300e+01
1 -5.32280719850022450e+01 5.27441767594985578e+01 4.80710789607897340e+01
1 -8.99957240139633541e+01 -7.72040152316791506e+01 -4.74214570798235613e+01
1 7.42886299855533423e+01 9.32135022881545154e+01 9.65995161901625110e+00
1 6.61200085606398460e+01 -4.32800934055215636e-01 2.56795820267296264e+01
1 1.44377787323083258e+01 -3.93326679749480235e+00 2.29665636841448269e+01
8
Step 10000
1 4.07784899204957583e+01 -4.97105435828617956e+01 -1.16501315999338331e+02
1 -7.63598442948780729e+01 -8.09616284280173915e+01 4.53067358398639826e+01
1 -1.23887625716651950e+01 -2.94191551950467129e+01 7.15457004410563826e+01
1 -1.16692381303099886e+01 -3.63133109503565024e+01 -6.55162706380714610e+01
1 8.40388190598642808e+01 6.62179914508152905e+01 2.29871797551997359e+00
1 -7.30168866159963557e+01 -7.62378870690443478e+01 5.78923799410700965e+01
1 -1.01080819411579057e+02 -6.02544922372515135e+00 2.33194352274887819e+01
1 -4.24600550710807401e+00 4.14607024469865948e+01 -2.84271568104553189e+01
8
Step 11000
1 -4.47061334147853842e+01 7.93904146001409146e+01 1.08455288095190696e+02
1 2.76456880904736479e+01 5.47726051736772490e+01 1.77690044667868676e+01
1 5.64340775302206126e+01 -1.44527427473092640e+01 -8.60408214106254263e+01
1 8.11273320837555190e+01 4.92282728877815146e+01 3.02134654978582518e+01
1 -6.63859744743974858e+01 -5.15922276106057254e+01 2.47559986938261183e+01
1 6.80953499855559556e+01 4.97478014431230946e+01 -7.78945611519975216e+01
1 1.33065268442860599e+02 6.95267073354980258e+00 -6.03030868137526141e+01
1 -1.35276409371417614e+01 -9.86228487425946554e+01 6.17891274237529444e+01
8
Step 12000
1 3.30476922981657637e+01 -5.71322814904195511e+01 -5.18573862275541302e+01
1 2.20305084663126527e+00 -3.86808430361920657e+01 -4.72726863147805503e+01
1 -6.72254377314988147e+01 1.10430094902440956e+01 8.84238196506979790e+01
1 -1.05337199357540385e+02 -7.12329058001468809e+01 3.14703812209135982e+01
1 5.30385377943743990e+01 3.67131080705857542e+01 -5.38283344519596980e+01
1 -5.03389529484127323e+01 -1.52203130603384285e+01 6.04046235389373720e+01
1 -1.34279686715794099e+02 -1.51314519974511419e+00 7.29850212483191143e+01
1 2.83279830878482990e+01 8.71145716066168916e+01 -8.48334916567290236e+01
8
Step 13000
1 -1.29832472352355985e+01 9.65980450244069999e+00 -5.64455902230671125e+00
1 -3.76794835153332652e+00 4.68185767811286482e+01 7.41472317456048273e+01
1 5.78845697166843038e+01 1.40101555591990579e+01 -7.61818092660094663e+01
1 5.69284026360978714e+01 5.96006873973646591e+01 -5.78786381899307969e+01
1 -4.54392382716193026e+01 -4.26826134777661270e+00 7.81387160752970260e+01
1 1.17923667071996103e+01 -2.85304833087847172e+01 -1.33808089503783787e+01
1 1.03839289125821523e+02 -3.69157039859718239e+00 -5.76723579727404214e+01
1 -1.54280520240815608e+01 -2.67018939603739440e+01 6.59334868964121767e+01
8
Step 14000
1 -1.86521532991106014e+01 3.24885129129486003e+01 4.43973391530585673e+01
1 -2.38940340319691558e+01 -7.54332060149386621e+01 -9.61629542774976613e+01
1 -4.72948037693873360e+01 -3.99419809463070905e+01 5.20882567609130476e+01
1 -1.08943451711618753e+01 -1.52157964678725488e+01 6.34488463876196320e+01
1 -3.15960345496645711e+00 -3.59307324671560266e+01 -5.55624141045989859e+01
1 6.44654347213086254e+01 8.44954521199913700e+01 -4.79111695421889650e+01
1 -8.22719109413563103e+01 -4.28123208867739269e+00 7.36900929946313887e+00
1 -1.95282792028186734e+01 -3.15650083008015478e+01 -4.91826139707020431e+01
8
Step 15000
1 5.58274807501134234e+01 -5.44014731378716547e+01 -6.94973872349165163e+01
1 5.89656976627409435e+01 1.12135172311727217e+02 9.32317001414683943e+01
1 3.48586426241023801e+01 6.17727665655950418e+01 -1.51563784228790208e+01
1 -1.92261808294558527e+01 -2.56938882392848136e+01 -6.15795018222025092e+01
1 5.90420097136845072e+01 5.75114869814438379e+01 1.86662543567477002e+01
1 -1.84457845255936121e+02 -1.63496071615915412e+02 9.51537479380270952e+01
1 8.63035397770199921e+01 9.45422775817137051e+00 2.59218412176333075e+01
1 8.73881105357930181e+01 4.09535090413894522e+01 4.17495235207172115e+01
8
Step 16000
1 -1.05616472601292799e+02 5.83245572128497827e+01 7.05717269313748545e+01
1 -5.13987226768449332e+01 -1.25747249343705263e+02 -4.92160994315567848e+01
1 -1.35799143528489825e+01 -8.14542532991492436e+01 -2.68704176473676029e+01
1 3.11658870662812681e+01 6.69114006594000301e+01 5.74662343768022339e+01
1 -7.32118616130041460e+01 -5.60186687166091133e+01 2.90761143449890156e+01
1 1.90948138904514337e+02 1.25726675429538176e+02 -4.65951430902186488e+01
1 -9.59324501590087664e+01 -9.40863163482070597e+00 -4.02205234577425159e+01
1 -1.26229756849930425e+02 -1.12938841637216623e+01 -1.59756702101183272e+01
8
Step 17000
1 1.28987655646796441e+02 -1.23505475689833908e+01 -7.22850872190698190e+00
1 1.30643651710089674e+01 1.11345856278089855e+02 -1.10326822826976354e+01
1 2.26633751761291702e+00 6.76552128675598397e+01 6.96884321789151926e+01
1 -2.64602730265349635e+01 -1.24789634800785876e+02 -5.58215425012372677e+01
1 4.86187500452397217e+01 3.50894482943664983e+01 -4.74852112868597089e+01
1 -1.45462114532267861e+02 -4.32708646268515622e+01 -2.25414099997007753e+01
1 9.17967287370987179e+01 1.47061073003903537e+01 5.21153033193653172e+01
1 9.56783820974502675e+01 -2.93251361025343478e+01 7.12844016435601091e+00
8
Step 18000
1 -1.09118130334616680e+02 -4.89422185976766002e+01 -4.93442003705690553e+01
1 2.97902995408765889e+01 -8.55937711462305799e+01 4.74013516615641137e+01
1 5.64765889727204229e+00 -2.27061148758543787e+01 -8.83664136578180006e+01
1 6.90886496411195061e+00 1.69211416890102953e+02 4.21323199518993405e+01
1 -1.96049641526801857e+01 -1.51973827582427727e+01 3.54591216949346304e+01
1 1.09537653803784977e+02 -1.25276474590380751e+01 5.46775421873022935e+01
1 -6.54442848777788555e+01 -1.96258358994557938e+01 -6.21581671483062550e+01
1 -2.68906539070286570e+01 4.23384457846622553e+01 -8.08593323112533291e+00
8
Step 19000
1 8.21458206651089711e+01 7.97272894683875535e+01 4.34629973946616701e+01
1 -6.79825766558281970e+01 6.69366656366588870e+01 -3.78098012457281953e+01
1 -8.04224195163108746e+00 -2.09855527292249882e+01 1.00880135249224793e+02
1 2.12190255407144583e+01 -1.48038861509864347e+02 -2.99317134303150922e+01
1 -1.32653096100505810e+01 -7.69135679144170670e+00 -6.33422224059101335e+00
1 -6.64529538391873587e+01 3.09333248189798411e+01 -5.34346466979997956e+01
1 3.93634689903090162e+01 1.58049281496258125e+01 6.95596642005578332e+01
1 -1.25361139551086929e+01 -3.98471946507555685e+01 1.61288987269404736e+01
8
Step 20000
1 -6.54056025188207002e+01 -7.25054359525564962e+01 -7.46128551942597618e+00
1 8.46305631278083013e+01 -5.08200451459202043e+01 1.16719578356454505e+01
1 3.27020858739599785e+00 4.11003927447599935e+01 -1.22987390966230066e+02
1 -2.86004123226826188e+01 9.90052845395261159e+01 4.53388078344203578e+01
1 6.69017325990183593e+01 5.40466007825148225e+01 -4.64780051495254369e+01
1 2.80029324799925305e+01 -2.29921577104793329e+01 1.66024157511401285e+01
1 -1.74570057312911331e+01 3.74460381222487260e-01 -7.10557405261402550e+01
1 1.60195511167378548e+01 2.60283242106866872e+01 -2.90130210593184010e+01
8
Step 21000
1 6.22707197051854706e+01 4.04318216299745785e+01 -1.58289364728606472e+01
1 -7.81384943819106610e+01 4.49101013555766926e+01 1.69892655566744288e+01
1 9.12156373592852532e+00 -2.64223395103911223e+01 1.38702825154298466e+02
1 3.26617749958287433e+01 -5.50555276849266306e+01 -6.33359530235932695e+01
1 -1.11489965344775882e+02 -1.08086076120396910e+02 1.02212752474595362e+02
1 1.35760610599869391e+00 -2.16585116913880160e-01 6.87418369686435540e+01
1 3.63530646403558633e+00 -1.85268554757516668e+01 6.04143778906944320e+01
1 3.93106681824914617e+01 3.27463804368119638e+00 4.13327019577901851e+01
8
Step 22000
1 -7.22026533458196411e+01 -1.84725941949968018e+01 3.06339098812489254e+01
1 6.04670591242090012e+01 -6.71535244214754812e+01 -4.84788886137925061e+01
1 -2.49254614303561937e+01 -5.93320833434441308e+00 -1.41058957952443279e+02
1 -2.88352899244355925e+01 9.60608762825283513e+00 6.00747681659722446e+01
1 9.65235361443979798e+01 1.16905019318097217e+02 -1.09576710102720625e+02
1 -1.99148343054220405e+01 1.12789098487076611e+01 -1.53103228081436896e+02
1 1.83137143267375002e+01 3.28338547992048078e+01 -2.87267206514821005e+01
1 -1.19046500731187962e+02 -3.08296919845452599e+01 -3.03346362146153830e+01
8
Step 23000
1 8.70502429234243351e+01 7.01019111953682916e+00 -5.03187787416756152e+01
1 -4.76432800200028339e+01 1.19997220430117494e+02 8.69049661342097011e+01
1 3.51971467783799170e+01 3.08255239179581899e+01 1.22214318025972716e+02
1 1.90320023830683702e+01 1.78782427890546600e+01 -1.77314444967883666e+01
1 -5.87226667712932411e+01 -8.70510386400884357e+01 6.47283388634253640e+01
1 2.81554828071454182e+01 -2.12390292950168691e+00 1.15509546959412887e+02
1 -6.57042194043949195e+01 -5.09870758282817462e+01 -2.68013218249917395e+00
1 1.49880399560723475e+02 2.74596112293223449e+01 1.16830918919171864e+01
8
Step 24000
1 -1.11947019071268031e+02 -8.89801951899858778e+00 7.69448888153052621e+01
1 -3.62226190817509419e+00 -1.29350948508266612e+02 -6.93968820742917671e+01
1 -2.80929880033708912e+01 -4.09972582917491621e+01 -7.22021552994104781e+01
1 -1.17193555893858381e+01 -1.83672871591679261e+01 -3.01219441167720099e+01
1 2.64294089399194050e+01 4.76284565381452225e+01 1.95351967668854365e+00
1 -2.65425171567338438e+01 -9.53312025110011874e+00 -2.84537169322398462e+01
1 1.24166197246072130e+02 6.28837611763308573e+01 2.46675701314593709e+01
1 -1.14046381753976505e+02 6.88197142707828391e-01 -7.58124686455853780e+00
8
Step 25000
1 1.36411937076834590e+02 3.60207604289669234e+01 -9.42981446285323699e+01
1 5.13399376496602642e+01 1.03978362573473689e+02 1.48962348351771183e+01
1 -1.01898120564491101e+01 2.48875136009855247e+01 -6.20754384706572715e+00
1 2.58244132864660569e+00 -9.47365234336110262e+00 8.41990135632775889e+01
1 -8.59167567766269957e-02 -1.16998735725868777e+01 -5.43377848515753428e+01
1 2.30909109320660342e+01 2.13551119817002366e+01 -3.10066103969709914e+01
1 -1.41348806695039826e+02 -4.24120865417786916e+01 -2.31525950632026323e+01
1 4.80875955044029126e+01 -2.32641720891783166e+01 2.18661565866646725e+01
8
Step 26000
1 -1.23963276365505706e+02 -8.11282127406789755e+01 7.85607287188716015e+01
1 -6.22880134854517209e+01 -7.99163028660307759e+01 1.76188219371949621e+01
1 6.48104974765106334e+01 8.29103419635232264e+00 6.13724534065462848e+01
1 6.81292142605687800e+00 6.35991577495485316e+01 -1.32419967700558232e+02
1 -2.05171360802709728e+01 -1.32496592641901039e+01 6.74649127623965938e+01
1 -1.73641142029545428e+01 -2.87606073096134196e+01 5.56364852302327506e+01
1 1.06676458893283936e+02 2.12024881104442287e+00 8.20190647834268738e+00
1 7.58457596975088078e-01 1.91665690263371964e+01 -4.65750379075093122e+01
8
Step 27000
1 8.00005574149831062e+01 1.14944628646401227e+02 -3.71973832803554743e+01
1 6.41881826086155769e+01 6.51523115269617961e+01 -1.47533451338879189e+01
1 -1.05445733634636412e+02 -4.02897400803545906e+01 -8.03427053801645741e+01
1 -4.82247219448081310e+00 -1.02498739166118114e+02 1.48494837146446883e+02
1 3.86256567893165226e+01 1.99651943468934121e+01 -4.27189222851845116e+01
1 7.82969686585720304e+00 2.11481857132546303e+01 -4.46143378642643711e+01
1 -7.20748052976938567e+01 3.59193610516661792e+01 1.60168949210563483e+01
1 -1.64670968479369044e+01 6.60214370552407814e+00 5.16346414401673997e+01
8
Step 28000
1 -3.97741083940932896e+01 -8.77590038332872098e+01 2.48511411084932021e-01
1 -6.56461293420163656e+01 -5.09447435553507901e+01 -8.86065366504031182e+00
1 1.22184740468492166e+02 5.33154450663642692e+01 6.82565612551130272e+01
1 -3.04868802459233423e+00 9.51274833571338263e+01 -1.38313082476440144e+02
1 -4.33436268760756889e+01 2.63785523126207511e-01 -8.55877259575103189e+00
1 8.19061782837833086e+00 4.12590524465461570e+01 -5.98153001795450390e+00
1 3.15707323954534296e+01 -4.96163811251360727e+01 -2.53952557910574725e+01
1 2.11164618143291740e+01 -3.24345553485483364e+01 -5.77167177820689332e+01
8
Step 29000
1 3.41715169350191132e+01 7.24135363775686187e+01 8.46913268779687023e+00
1 6.50942180847514464e+01 3.91994702119920007e+01 3.65813385295989377e+01
1 -1.02465907706183671e+02 -3.76567969576875612e+01 -2.11785470822853235e+01
1 1.03240116155961967e+01 -6.63124678033739912e+01 1.33865506765297084e+02
1 4.05337170436140894e+01 -3.27124607178476623e+01 6.71101179455344266e+01
1 -2.51509710613725090e+01 -1.15248153490585580e+02 4.81768637863665390e+01
1 1.67594190262875813e+01 3.53449438593414911e+01 1.71124853273081960e+01
1 -1.89307812592037585e+01 6.09766779703091473e+01 5.62462381778594462e+01
8
Step 30000
1 -3.98559163879501668e+01 -6.77190886589775261e+01 -7.71320845982710335e+00
1 -7.45309632352119991e+01 -3.06509154383118130e+01 -5.97553752635840283e+01
1 5.37815899283383914e+01 4.44853557104977959e+00 -3.29978719927903725e+01
1 -1.86871849059540907e+01 5.44827121873858911e+00 -1.08794157436165307e+02
1 -4.19863657716886394e+01 6.49665090749283962e+01 -1.23294022219688856e+02
1 3.02422181787541966e+01 1.37439216047933598e+02 -4.32139037236788752e+01
1 -6.63272079658516134e+01 1.34507445994766384e+00 1.00400086157105850e+01
1 1.40003251949182452e+01 -8.50335656649001379e+01 -4.36447369161570933e+01
8
Step 31000
1 5.29080745263634000e+01 7.00842418560329463e+01 -2.64035974258722428e+00
1 1.03902762998384219e+02 2.54242110392498013e+01 7.04806990514031071e+01
1 -6.95289690573480179e+00 2.13385521177113588e+01 7.17466711185716122e+01
1 2.03291060354263458e+01 8.13880754129728814e+01 4.80973192423540894e+01
1 4.53857724755221952e+01 -7.98430326201547018e+01 1.50284089412129163e+02
1 -2.48954228603717063e+01 -1.11279844598531042e+02 1.26616923308794025e+01
1 8.71163407132349334e+01 -5.46277597902602849e+01 -4.90996368777807675e+01
1 -2.37956528332101023e+01 1.01518938119713169e+02 2.52307656736660739e+01
8
Step 32000
1 -6.69951958719253184e+01 -7.52616295809068845e+01 2.12329046082127526e+01
1 -1.60153771353292228e+02 -1.93465294724004302e+01 -5.32861492290829304e+01
1 -2.89090709067575133e+01 -2.68067590096141366e+01 -8.59709665192981021e+01
1 -9.79990964821722166e+00 -1.41700963172155383e+02 1.67799719081066492e+01
1 -4.24434151906340063e+01 3.69376620956413433e+01 -1.01305881303674028e+02
1 1.03942027917532336e+01 6.79288370220649114e+01 1.93707295308848373e+01
1 -4.87341031574752037e+01 8.29666637229383213e+01 7.58302400974238395e+01
1 4.65020302784510946e+01 -9.63220762714989860e+01 -3.19996199535948307e+01
8
Step 33000
1 4.28588609090606099e+01 6.80572152810649555e+01 -3.47376096385842104e+01
1 2.00752943088059112e+02 6.50977093528641859e+00 -8.12333173000632680e-01
1 6.05248553536329510e+01 9.41667723352784236e+00 8.48538649008044530e+01
1 -7.86141643536356316e+00 1.49147038621959467e+02 -5.15625719830727647e+01
1 2.27280145774630249e+01 3.12096613788614583e+01 1.23829122139193348e+01
1 1.50050931510219900e+01 -2.14533117535912510e+01 -3.85550118486729758e+01
1 -1.22455451519683791e+01 -6.84168397535248971e+01 -7.74403281242162933e+01
1 -4.89141000021676575e+01 6.36092025279859001e+01 5.36437938137338577e+01
8
Step 34000
1 3.20698067458600677e+00 -7.43218083506485812e+01 1.51392416114043353e+01
1 -1.39017702581801473e+02 6.73075855342676732e+00 5.10991163185678232e+01
1 -7.64025974701463326e+01 1.50077177137862030e+01 -6.24859421411218463e+01
1 2.62024491834089268e+01 -1.10822069614743100e+02 5.34721247841008633e+01
1 -6.93491978124137010e+00 -5.56491518138478014e+01 3.08673011610884238e+01
1 -5.34430898171820274e+01 -1.48190260874221824e+01 2.87034279797707974e+01
1 5.29632927119756047e+01 4.69382817555857415e+01 8.60891618841447723e+01
1 2.51166264166601323e+01 -1.32309617663347954e+01 -6.45172997155499957e+01
8
Step 35000
1 -2.86934623095816015e+01 9.10497845939678569e+01 2.02490529863471274e+01
1 7.34604812027791212e+01 -9.56639685151069585e+00 -6.14668663623710643e+01
1 6.69684212023906866e+01 -2.70535188122521149e+01 5.40923042732881001e+01
1 -4.99181925291125523e+01 4.83408028745333382e+01 -3.16580763604021911e+01
1 -1.16807450498287082e+01 3.99935373918969290e+01 -2.43147857387542565e+01
1 1.16130165757133142e+02 1.91060478794399771e+01 2.22163431253352108e+01
1 -8.01232515424845104e+01 -6.34285141881056944e+01 -1.34675690916850129e+02
1 5.35746849938944703e+00 -3.66841762036582253e+01 6.13134889445627138e+01
8
Step 36000
1 2.10760676609732087e+01 -1.16097144253440064e+02 -4.83956279025722722e+01
1 -5.49858333535050789e+01 5.93010559673243076e+00 6.29127527372071143e+01
1 -5.13323687629325036e+01 2.70595296958868730e+01 -5.77751932424237395e+01
1 7.96109912606543446e+01 4.21501576579754840e+01 -5.26215936696142084e+00
1 3.28668315190213534e+01 -1.27275674255474804e+01 8.60450659522885353e+00
1 -1.62742042939338489e+02 1.82027166991422718e+01 -1.07092669975706897e+02
1 2.69000829178249923e+01 5.41170886833237503e+01 7.53832373467470660e+01
1 -3.19926716843045895e+01 8.15983321181750227e+01 -3.78077678041538690e+01
8
Step 37000
1 1.66561575786760052e+01 1.34621803143536965e+02 6.10559352559861210e+01
1 5.56992544436327250e+01 4.40381488066506677e+00 -5.77150094207642823e+01
1 2.67576025873582886e+01 1.31885542791093222e+01 5.42495245973846281e+01
1 -8.89775440656492833e+01 -1.04726521561113657e+02 3.43378379966364164e+01
1 -5.11232258781633959e+01 -1.41914773062833977e+01 6.66662417544207564e+00
1 1.25164794881145269e+02 -5.26889671308309744e+01 1.27875572914323300e+02
1 2.53208173409860215e+01 -3.12673818296757382e+01 8.38419775324044991e+00
1 4.61271838631893161e+01 -1.19697477773810377e+02 -1.58996677019436863e+01
8
Step 38000
1 -6.48386187006004633e+01 -1.21709071359162152e+02 -5.58910454418352458e+01
1 -7.31478847615046845e+01 -2.93961143534380547e+01 4.27545410570912736e+01
1 -1.26720025018025542e+01 -7.70492013464158134e+01 -4.10234401062726945e+01
1 6.71611014653186658e+01 9.81737972622948973e+01 -4.62990784359377940e+01
1 5.68796775924042990e+01 2.81550987611549992e+01 -1.62606780450601462e+01
1 -5.61459957990726934e+01 5.84742456235053183e+01 -8.73912114880611597e+01
1 -4.42304562891284405e+01 2.09074198335080403e+01 -5.14307335599385382e+01
1 -3.47077307750756177e+01 1.28288022903035966e+02 8.50551823179755075e+01
8
Step 39000
1 7.94873632186109944e+01 7.09227131870500926e+01 4.09128025604880108e+01
1 8.56152030573386185e+01 5.85397392223688087e+01 3.59288092108019930e+00
1 1.39984384293142270e+01 1.17278862626321953e+02 3.41888728338503398e+01
1 -3.19406618665518565e+01 -5.39430736263981530e+01 4.79072073327993948e+01
1 -3.34251097985180934e+01 -2.26152105599232627e+01 2.33800622993060117e+01
1 7.19539173125365927e+00 -4.52366039321682081e+01 4.11205160211218725e+01
1 3.93888472938801257e+01 -1.90576977322608343e+01 6.76213951174189418e+01
1 4.90413051533734379e+00 -9.13270811510810319e+01 -1.18086104933765753e+02
8
Step 40000
1 -5.13346962954102963e+01 -2.46234957664566743e+01 -4.41121499566030906e+01
1 -6.33178294226132294e+01 -6.33681229530518308e+01 -5.14270774484326765e+01
1 -3.20346728738621280e+01 -1.20747895422107717e+02 -2.51328148881163678e+01
1 -6.61182108416004666e-02 1.01682883639351793e+01 -4.58517030273233317e+01
1 -5.08105726882256832e+01 -1.50029236851312913e+01 -1.70888280340843437e+01
1 3.25305863662762818e+01 1.31953245482192276e+01 9.18342795632093889e+00
1 -3.35614759767703177e+01 2.32547039843863423e+01 -7.71980268702709509e+01
1 1.76043841126205223e+01 4.11060814402109500e+01 9.42813013068152088e+01
8
Step 41000
1 1.39003302450873534e+01 6.45184827717859211e+00 6.21419905179157865e+01
1 3.90051367828944180e+01 6.13866310995212245e+01 4.89484204293153340e+01
1 5.80686970583339956e+01 9.22319556100528359e+01 -3.08280364085185221e+00
1 1.31659199523808912e+01 6.95580023948436477e+00 4.00494973165307968e+01
1 1.45736248438986422e+02 4.36979904545758586e+01 4.90496472260139482e-01
1 -6.00479906818899352e+01 3.94196529698970934e+01 -5.93269316318533129e+01
1 3.09219626639397198e+01 -3.70549920906176666e+01 9.69538974940360418e+01
1 -1.74663952412287031e+01 -1.01334595292535141e+01 -3.62592693788732063e+01
8
Step 42000
1 2.60890421068031557e+01 -1.78962680476825375e+00 -9.85482894151151640e+01
1 -2.90444918549557975e+01 -5.47077329642327470e+01 -1.05523905061104362e+01
1 -8.09844120847361069e+01 -5.14438686760138424e+01 4.25169092979358467e+01
1 -5.06983331069820320e+00 2.29607599520327099e+01 -6.65740275222554772e+01
1 -1.85494906853837989e+02 -2.93565167743381750e+01 3.86166965983834132e+00
1 6.19598862438049593e+01 -8.68088070943560837e+01 8.25859652638233399e+01
1 -6.79367089297792504e+00 4.34941239469927368e+01 -1.06357760175153430e+02
1 -3.40635526907397557e+00 1.08829550573885623e+01 -1.34141149278069847e+01
8
Step 43000
1 -5.85290136929324873e+01 3.23578632035035296e+00 1.19096695530924691e+02
1 1.85967440326931346e+01 5.30739196649190035e+01 -3.52110433578471316e+01
1 1.04701452752435046e+02 -1.02390765778662818e+00 -8.92101096780667575e+01
1 -5.09477805709809584e+00 -6.33876565672081540e+01 6.81323642942300580e+01
1 1.37541315486668992e+02 -1.52698319431666167e+01 9.93164763275323814e+00
1 -4.10757465610749932e+01 1.01612854464366407e+02 -4.95859225842253082e+01
1 7.77466886118388345e+00 -4.02571581637040623e+01 6.98288356888085531e+01
1 3.26023552652235651e+01 -2.60490822969078621e+01 3.97737385968259005e+01
8
Step 44000
1 5.91180445656068656e+01 -1.08415840648212622e+01 -1.15773630923412327e+02
1 -1.62907877004921779e+01 -5.93714046726596649e+01 6.81697677199259005e+01
1 -9.71111568139676820e+01 5.61947210562664239e+01 1.09994096986649112e+02
1 -1.45490799550343439e+01 7.93286053575033918e+01 -6.53976604922408882e+01
1 -2.08478660208430462e+01 5.36454871150393586e+01 -2.92877212592684302e+01
1 1.93985316147232254e+01 -8.41916379140054403e+01 -2.77825959121660304e+01
1 -2.98442870827709221e+01 5.00909819064511623e+01 -4.65074875476656544e+01
1 -7.13450203339207576e+01 4.91801763745814924e+01 -6.51359345833641044e+01
8
Step 45000
1 -1.20572054224563630e+01 4.06480099295928312e+01 9.89195524398901256e+01
1 1.60350544810683289e+01 7.14364598188587365e+01 -8.83021338192206429e+01
1 6.74564332955012560e+01 -6.29288431073703762e+01 -8.46906673871590243e+01
1 5.43869484188154004e+01 -6.44792050937574430e+01 6.06092034237570232e+01
1 -7.95160332775142678e+01 -7.10492181168885963e+01 4.22226355319316653e+01
1 -1.52649058951588756e+01 4.74968873196653050e+01 1.01294073331946478e+02
1 4.52754376901815689e+01 -6.97690496421233917e+01 3.43574933358081793e+01
1 1.16502720864577441e+02 -5.91869239730444150e+01 9.35625714635746704e+01
8
Step 46000
1 -6.11671851558220752e+01 -1.02745928712878325e+02 -1.05680097876904682e+02
1 9.28756370019966759e+00 -6.95169209877899448e+01 1.09824465134820358e+02
1 -6.20688882185390653e+01 1.83245469751345702e+01 4.38131401018134596e+01
1 -1.12794168531300500e+02 3.39725771133306651e+01 -5.63826881447593777e+01
1 1.26394545212518750e+02 6.83726152317460389e+01 -3.97371799365728364e+01
1 3.43562903537081539e+01 -9.39501051006368471e+00 -1.29103288271979153e+02
1 -5.15382427460525676e+01 7.66400258758561534e+01 -3.62744000277776593e+01
1 -1.16770200312296410e+02 2.23907663670192463e+01 -9.51854080252782211e+01
8
Step 47000
1 1.01483248436756085e+02 1.36930092285370705e+02 7.19731387855997582e+01
1 -3.48429871313611272e+01 3.87075018561064539e+01 -8.33761637445285970e+01
1 8.74209109583586610e+01 7.47162651013949102e+01 2.51723591012558963e+01
1 1.49796007278837948e+02 -1.27122865140383867e+00 4.09340671979448061e+01
1 -1.24127196862776231e+02 -4.13152072893722462e+01 2.55851359639083427e+01
1 -6.56007359853073382e+01 -1.39608820577681563e+01 9.11630547252527350e+01
1 5.86091739590725211e+01 -8.90556676929206361e+01 4.15114181449446846e+01
1 7.21983432400926830e+01 2.53407039857511904e+01 5.52111228536497975e+01
8
Step 48000
1 -6.85445349286928263e+01 -1.06898118856717190e+02 -2.13139618127463528e+01
1 4.41960614913067218e+01 -1.91126215145403555e+00 3.41994345475893269e+01
1 -1.23207773764881352e+02 -1.62198670138287781e+02 -7.69012524264687301e+01
1 -1.31495228990122342e+02 -3.08701523907315334e+00 -1.63628993900607185e+01
1 8.11316731647857239e+01 1.82044903879537290e+00 -1.48267260212604501e+01