8
Step 0
1 1 -3.567806084495e+02   1.250349871688e+02   1.349215040121e+02 
2 1 -3.715941391501e+01   2.035910927754e+02  -2.934454057728e+02 
3 1 -5.894608363078e+00   1.640287187557e+02  -1.356203740973e+02 
4 1  9.980405381862e+01   3.579602250797e+02   4.123904540523e+02 
5 1 -6.056234710672e+01   4.194574330581e+02   8.432933744934e+01 
6 1 -1.761637115772e+02  -2.392440180721e+02  -1.953219266841e+02 
7 1 -2.534551509443e+02  -1.234561750903e+02   2.630611908943e+02 
8 1 -1.563495904539e+02  -4.994924455812e+02  -3.797918227023e+01 
8
Step 1000
1 1 -1.399583847616e+02   5.707751589463e+01  -1.028947208541e+02 
2 1  1.566326541480e+02  -1.050550327527e+02  -3.435725092295e+02 
3 1 -2.199831364485e+02  -4.803943498885e+01  -1.830558042933e+02 
4 1  3.725091469345e+02   1.955990767317e+02   4.126384891550e+02 
5 1  2.183959604937e+02   2.101014845403e+02  -1.381510664043e+02 
6 1 -9.411918885225e+01   9.182922301216e+01   8.404524421063e+01 
7 1 -3.419476426208e+02  -3.432045415901e+01   1.062040083110e+01 
8 1 -2.209526963248e+02  -3.925233066382e+02   9.011649728965e+00 
8
Step 2000
1 1  1.422560800160e+02  -2.646055194263e+01  -2.752777829826e+02 
2 1  2.890682355792e+02  -3.522717205390e+02  -2.888429616570e+02 
3 1 -3.874987377984e+02  -2.219364648558e+02  -1.888699067281e+02 
4 1  4.609324256241e+02  -5.487413046477e+01   2.960809533662e+02 
5 1  3.613848119567e+02  -9.044318980159e+01  -3.301906836912e+02 
6 1  6.226339279736e+01   4.040651995709e+02   2.927828882050e+02 
7 1 -3.079005449907e+02   9.514577503274e+01  -2.236554701599e+02 
8 1 -2.079924114130e+02  -1.099427813660e+02   5.188622823677e+01 
8
Step 3000
1 1  3.640190498941e+02  -1.120807624198e+02  -3.054396141007e+02 
2 1  2.764728480574e+02  -4.002233501763e+02  -1.322822165659e+02 
3 1 -4.264018323122e+02  -2.723560420119e+02  -1.454619912849e+02 
4 1  3.195058643796e+02  -2.578646560305e+02   1.257683015027e+02 
5 1  2.902609161447e+02  -3.480419816990e+02  -3.994909290478e+02 
6 1  2.182771350069e+02   5.315753042138e+02   3.374106692574e+02 
7 1 -1.861037167049e+02   2.273993152426e+02  -3.178062254312e+02 
8 1 -1.137900537820e+02   2.114735804705e+02   9.724713648089e+01 
8
Step 4000
1 1  4.178025375211e+02  -1.825576096314e+02  -1.812687529213e+02 
2 1  1.255301172664e+02  -2.375647692883e+02   6.421679204242e+01 
3 1 -3.077761513484e+02  -1.838607472441e+02  -6.292502268240e+01 
4 1  3.542062993838e+01  -3.220002727654e+02  -3.580673734737e+01 
5 1  5.581166783205e+01  -4.369122099509e+02  -3.043091729134e+02 
6 1  2.782136772343e+02   3.905820631863e+02   2.127727719134e+02 
7 1 -3.991733955903e+01   3.040756625145e+02  -2.257336706369e+02 
8 1  3.330859854925e+01   4.267189056721e+02   1.405960127119e+02 
8
Step 5000
1 1  2.849964279013e+02  -2.210986361152e+02   2.046557216608e+01 
2 1 -7.586630116469e+01   2.216612059159e+01   2.239520988771e+02 
3 1 -8.309106985408e+01  -2.083361043034e+01   3.242849872590e+01 
4 1 -2.501600555152e+02  -2.388601962892e+02  -1.612017219625e+02 
5 1 -1.876064231313e+02  -3.349064962844e+02  -1.019679187171e+02 
6 1  2.080104018551e+02   7.858074719122e+01   2.799676000301e+01 
7 1  7.056159856502e+01   2.802823416267e+02  -6.344646249679e+00 
8 1  1.739606445034e+02   4.317627546257e+02   1.603578346023e+02 
8
Step 6000
1 1  4.855628049096e+01  -2.172066223086e+02   1.853315173511e+02 
2 1 -2.277508094227e+02   2.379603584443e+02   2.931977776125e+02 
3 1  1.623913627726e+02   1.330419593873e+02   1.140271165267e+02 
4 1 -4.119868244907e+02  -6.132142374985e+01  -2.459262199352e+02 
5 1 -3.081909764601e+02  -1.231021719846e+02   1.038856641420e+02 
6 1  4.631973635430e+01  -2.392477917339e+02  -1.016020264844e+02 
7 1  1.181225468462e+02   1.522311984043e+02   2.196439660360e+02 
8 1  2.414536909647e+02   2.347985911831e+02   1.355424152033e+02 
8
Step 7000
1 1 -1.746854418842e+02  -1.629791429098e+02   2.335638756847e+02 
2 1 -2.571943672485e+02   3.018973872381e+02   2.496229117896e+02 
3 1  3.425840657906e+02   2.134850436800e+02   1.572508013585e+02 
4 1 -3.856045195991e+02   1.221491027265e+02  -2.882278262011e+02 
5 1 -2.653689646831e+02   9.146801955331e+01   2.326189247338e+02 
6 1 -1.399633893262e+02  -4.321960522645e+02  -1.211295657956e+02 
7 1  1.100540689099e+02  -4.005046049451e+01   3.360189000902e+02 
8 1  2.089105111780e+02  -4.093348964460e+01   6.608008392190e+01 
8
Step 8000
1 1 -2.913416394566e+02  -5.775186497776e+01   1.522837439418e+02 
2 1 -1.630908645024e+02   2.003558786277e+02   1.274556780733e+02 
3 1  3.877950441214e+02   1.912474633994e+02   1.444137942950e+02 
4 1 -2.005712286319e+02   2.296978832796e+02  -2.851684423077e+02 
5 1 -1.035194415882e+02   2.275822858947e+02   2.517464338499e+02 
6 1 -2.717327515380e+02  -4.281696663320e+02  -4.338663851795e+01 
7 1  7.465386277510e+01  -2.219390133491e+02   2.827966129739e+02 
8 1  9.858298453790e+01  -2.509553951215e+02  -2.879980948150e+01 
8
Step 9000
1 1 -2.703734910908e+02   8.046145415628e+01  -1.393237816305e+00 
2 1 -1.607953034038e+01   1.812383491105e+01  -2.236211210997e+00 
3 1  2.899645860453e+02   9.107849780600e+01   8.234459150940e+01 
4 1  4.953825974673e+01   2.282938785848e+02  -2.321879672158e+02 
5 1  8.739249911165e+01   2.532624991053e+02   1.780539391393e+02 
6 1 -2.965741953614e+02  -2.574820923037e+02   5.978900433573e+01 
7 1  4.330000306919e+01  -3.157388107650e+02   9.020744686806e+01 
8 1 -3.659838944514e+01  -3.022285244823e+02  -1.179053586366e+02 
8
Step 10000
1 1 -1.523956441147e+02   2.151557109818e+02  -1.349938658401e+02 
2 1  1.037385909456e+02  -1.393979357728e+02  -8.608139116854e+01 
3 1  1.139789946286e+02  -2.599071232289e+01   2.188761922256e+00 
4 1  2.663363695087e+02   1.322761963819e+02  -1.235901741280e+02 
5 1  2.222366480837e+02   1.831794042541e+02   5.900585613161e+01 
6 1 -2.197426241952e+02  -2.353468608964e+01   1.117691814494e+02 
7 1  3.174641305861e+01  -2.845696807131e+02  -1.379783766833e+02 
8 1 -1.354140968146e+02  -1.909245732568e+02  -1.682669156789e+02 
8
Step 11000
1 1 -1.716802084598e+01   3.007629852147e+02  -1.745786822394e+02 
2 1  1.462270393746e+02  -1.979933109719e+02  -1.059885212128e+02 
3 1 -5.454715218000e+01  -1.084781529903e+02  -6.249338416824e+01 
4 1  3.736339033205e+02  -1.473258665563e+01   3.390597946085e+01 
5 1  2.523630073666e+02   6.076134732156e+01  -5.100263430627e+01 
6 1 -7.673527646709e+01   1.797516419133e+02   7.440437980796e+01 
7 1  3.459081238181e+01  -1.514197017547e+02  -2.872041000966e+02 
8 1 -1.605154413290e+02   2.801524357769e-01  -1.627607653034e+02 
8
Step 12000
1 1  6.477348396232e+01   3.007802863278e+02  -1.069298570288e+02 
2 1  1.067285598850e+02  -1.402416694106e+02  -7.637694956306e+01 
3 1 -1.545485097278e+02  -1.364759794532e+02  -9.076631228580e+01 
4 1  3.347080440924e+02  -1.519908934593e+02   2.051233004931e+02 
5 1  1.767004133195e+02  -5.986158055903e+01  -1.093281912433e+02 
6 1  9.143075989966e+01   2.930438143798e+02  -4.615728791062e+01 
7 1  3.602335421065e+01   1.514794915603e+01  -2.965787289956e+02 
8 1 -1.160202027736e+02   1.601297402104e+02  -1.076093970363e+02 
8
Step 13000
1 1  7.393413052734e+01   2.125638304614e+02   1.491538895279e+01 
2 1  2.371736556289e+01  -9.540111826892e+00  -3.357321795178e+01 
3 1 -1.682353637805e+02  -1.191267207491e+02  -7.919899372219e+01 
4 1  1.702271980268e+02  -2.223661121035e+02   3.314090712995e+02 
5 1  3.719370860919e+01  -1.322972559714e+02  -9.960031011813e+01 
6 1  2.364463968092e+02   2.891432909194e+02  -1.968818906202e+02 
7 1  2.499394908998e+01   1.423229331749e+02  -1.873191550522e+02 
8 1 -3.652881714356e+01   2.114828258815e+02  -2.610420943865e+01 
8
Step 14000
1 1  4.297142189139e+01   6.520981793712e+01   1.180740491388e+02 
2 1 -4.815253457456e+01   1.213213124491e+02  -1.364090625933e+01 
3 1 -1.218401827731e+02  -8.044531956900e+01  -4.059790320337e+01 
4 1 -4.792860568809e+01  -1.986706747552e+02   3.593109987374e+02 
5 1 -1.022222938470e+02  -1.339722378842e+02  -3.730446716906e+01 
6 1  3.081766093884e+02   1.823254009435e+02  -2.914906602577e+02 
7 1  1.691095403101e+00   1.930263633492e+02  -2.992947539570e+01 
8 1  3.685435023119e+01   1.424571301100e+02   5.225655858849e+01 
8
Step 15000
1 1  1.955620797180e+01  -1.045382247574e+02   1.549781618376e+02 
2 1 -6.819807063315e+01   1.858025836766e+02  -3.087863021024e+01 
3 1 -6.300368149233e+01  -3.978827264009e+01   4.878171740901e+00 
4 1 -2.318113631000e+02  -9.567689974956e+01   2.711191900913e+02 
5 1 -1.848118802206e+02  -7.366564060806e+01   3.755692878844e+01 
6 1  2.792109912650e+02   2.940926754751e+01  -2.586353794523e+02 
7 1 -2.647360618954e+01   1.685491624957e+02   1.089370355417e+02 
8 1  7.719340576450e+01  -1.208689262620e+00   1.038589021002e+02 
8
Step 16000
1 1  3.464136560680e+01  -2.574615059926e+02   1.129730910322e+02 
2 1 -2.976043744625e+01   1.520468661636e+02  -6.974974784246e+01 
3 1 -3.138864794974e+01  -8.520969980392e-01   3.911102212446e+01 
4 1 -3.180004875793e+02   4.059736344012e+01   9.489234896411e+01 
5 1 -1.860494750409e+02   1.255595596414e+01   7.929030338354e+01 
6 1  1.611282993811e+02  -1.006709146167e+02  -8.869004228693e+01 
7 1 -5.059899773781e+01   9.137999101927e+01   1.881829084469e+02 
8 1  7.769286343497e+01  -1.478802283259e+02   1.178567867240e+02 
8
Step 17000
1 1  8.616891444808e+01  -3.467400661622e+02   1.279494072719e+01 
2 1  3.836321980205e+01   3.841562416601e+01  -9.652604584548e+01 
3 1 -4.072117660988e+01   4.321400809941e+01   5.030082198102e+01 
4 1 -2.884348897053e+02   1.560165169553e+02  -1.086732855652e+02 
5 1 -1.220766017066e+02   7.862176730312e+01   6.028708406702e+01 
6 1 -9.160717696164e+00  -1.650358836842e+02   1.626938043620e+02 
7 1 -6.392474659058e+01  -5.108583417877e+00   1.932805389173e+02 
8 1  4.723094510237e+01  -2.291524803724e+02   9.652125925172e+01 
8
Step 18000
1 1  1.389378867344e+02  -3.314575112289e+02  -9.854910703210e+01 
2 1  9.006511003427e+01  -9.794993592888e+01  -8.049255469630e+01 
3 1 -7.396883441953e+01   9.450284195763e+01   3.526473244145e+01 
4 1 -1.678172746372e+02   2.089255157404e+02  -2.690181868941e+02 
5 1 -3.505154520959e+01   9.132837363298e+01  -1.367537998450e+01 
6 1 -1.843250501986e+02  -1.557713558036e+02   3.924456552186e+02 
7 1 -6.404314265790e+01  -8.382162574178e+01   1.346763185846e+02 
8 1  4.114983906828e+00  -2.048119201350e+02   5.309558791305e+01 
8
Step 19000
1 1  1.466976663727e+02  -2.041721002643e+02  -1.686786677286e+02 
2 1  8.699076968208e+01  -1.901797730850e+02  -1.206994417868e+01 
3 1 -9.275312925134e+01   1.406249989145e+02   1.710533135204e+00 
4 1 -9.113378307553e+00   1.838084456995e+02  -3.313003039935e+02 
5 1  3.443582591473e+01   4.529679632401e+01  -1.055811827554e+02 
6 1 -3.052326898754e+02  -9.349356684413e+01   4.768856526025e+02 
7 1 -5.326088177046e+01  -1.147742994319e+02   4.219169506132e+01 
8 1 -3.239150922247e+01  -8.072783370444e+01   5.350528728679e+00 
8
Step 20000
1 1  8.218164611486e+01  -2.279625579632e+00  -1.653517273018e+02 
2 1  2.071262102824e+01  -1.937213718675e+02   8.791829725510e+01 
3 1 -5.926582250890e+01   1.588968922235e+02  -3.329303783011e+01 
4 1  1.292494488500e+02   9.644329258546e+01  -2.811354950260e+02 
5 1  6.837866790832e+01  -3.535318073541e+01  -1.638002829109e+02 
6 1 -3.235795443764e+02  -2.208130838319e+01   3.513474381271e+02 
7 1 -3.650369499237e+01  -8.677602874073e+01  -4.674903890461e+01 
8 1 -4.991715768153e+01   9.523734960160e+01  -3.327672229095e+01 
8
Step 21000
1 1 -4.547888849277e+01   2.057099302074e+02  -8.873680182208e+01 
2 1 -8.052253013541e+01  -1.085247516506e+02   1.767108131395e+02 
3 1  3.850973519567e+01   1.278128265264e+02  -5.096941875859e+01 
4 1  2.086189670769e+02  -1.618965290508e+01  -1.497960495747e+02 
5 1  7.542414703191e+01  -1.067819563094e+02  -1.465863018274e+02 
6 1 -2.408900562199e+02   1.794653316556e+01   7.452491358811e+01 
7 1 -1.770905993138e+01  -1.384985478521e+01  -1.017517634342e+02 
8 1 -4.488791116878e+01   2.517326421541e+02  -5.748443941667e+01 
8
Step 22000
1 1 -1.886743298193e+02   3.410694297122e+02   3.026001847485e+01 
2 1 -1.654037910881e+02   2.204619025165e+01   2.110844491743e+02 
3 1  1.726195800987e+02   4.076811891079e+01  -4.060777958790e+01 
4 1  2.195814760201e+02  -1.148609604105e+02   6.844753368061e+00 
5 1  7.910837882791e+01  -1.260528488164e+02  -4.579132424247e+01 
6 1 -9.293800701939e+01   1.771115330370e+01  -2.295407896786e+02 
7 1  3.079990016122e+00   6.822487382505e+01  -1.107997442696e+02 
8 1 -2.158142318522e+01   3.173604008766e+02  -6.840212399400e+01 
8
Step 23000
1 1 -2.756667112256e+02   3.438769826218e+02   1.385688527056e+02 
2 1 -1.831977989061e+02   1.323454662896e+02   1.677444741109e+02 
3 1  2.817207227901e+02  -8.263601178730e+01  -5.977404946028e+00 
4 1  1.732786846154e+02  -1.705229041409e+02   1.341111058839e+02 
5 1  9.712337404216e+01  -7.343016940115e+01   1.046705009025e+02 
6 1  7.907324407748e+01  -4.253640760006e+00  -4.372808776616e+02 
7 1  2.948027632846e+01   1.160717666426e+02  -8.275473130523e+01 
8 1  9.281859037584e+00   2.550618032213e+02  -7.002158047224e+01 
8
Step 24000
1 1 -2.525911613784e+02   2.152145366870e+02   1.854498314253e+02 
2 1 -1.110361985524e+02   1.686134284703e+02   5.704928912904e+01 
3 1  2.982109184414e+02  -1.974590905590e+02   3.435670712548e+01 
4 1  9.083728557669e+01  -1.698202224715e+02   1.963006153356e+02 
5 1  1.238637070147e+02   3.613192576072e+01   2.401278598184e+02 
6 1  2.238728721798e+02  -1.848533702921e+01  -4.564370326451e+02 
7 1  6.448170143818e+01   9.902586488433e+01  -4.041881073088e+01 
8 1  3.567369409598e+01   8.547115320877e+01  -6.457196325411e+01 
8
Step 25000
1 1 -1.236863530571e+02   2.492250386254e+01   1.541887269065e+02 
2 1  2.974784209621e+01   1.197310513719e+02  -8.033842321245e+01 
3 1  1.892908639373e+02  -2.534315948879e+02   5.596538778255e+01 
4 1 -3.012038638019e+00  -1.182497950677e+02   1.876734007697e+02 
5 1  1.286098261859e+02   1.540187307937e+02   2.891525060131e+02 
6 1  2.927059440098e+02  -3.227217531202e+00  -2.865787231322e+02 
7 1  1.044807812797e+02   1.582566870928e+01  -7.727548783919e+00 
8 1  4.948200619888e+01  -1.273714524228e+02  -4.968534934696e+01 
8
Step 26000
1 1  5.686324843907e+01  -1.368876466582e+02   6.525153891435e+01 
2 1  1.820429614078e+02   1.960692634279e+01  -1.927461256971e+02 
3 1 -1.630919820225e+01  -2.230410636752e+02   4.415728788644e+01 
4 1 -8.616837559601e+01  -3.680253800866e+01   1.308539564886e+02 
5 1  7.544227200055e+01   2.157400313157e+02   2.116067869497e+02 
6 1  2.704147301432e+02   4.079963941088e+01  -2.619596063218e+01 
7 1  1.358918310422e+02  -1.017619819888e+02   2.546111017593e+00 
8 1  4.683335902539e+01  -3.033298046531e+02  -2.047513766160e+01 
8
Step 27000
1 1  2.150450682828e+02  -2.054318880371e+02  -4.131345857003e+01 
2 1  2.733204018990e+02  -7.203898295634e+01  -2.352825376355e+02 
3 1 -2.422385972080e+02  -1.129979139728e+02   3.120103285079e+00 
4 1 -1.430404054913e+02   4.785770349303e+01   6.070378295836e+01 
5 1 -4.618461950320e+01   1.785602200127e+02   3.111963425288e+01 
6 1  1.718371857637e+02   9.270921301994e+01   2.039076146795e+02 
7 1  1.373720732726e+02  -1.986111540130e+02  -5.641113371768e+00 
8 1  2.752661875302e+01  -3.704338952337e+02   2.366863748118e+01 
8
Step 28000
1 1  2.827851648622e+02  -1.645579376271e+02  -1.207987875290e+02 
2 1  2.476482499605e+02  -9.889857621293e+01  -1.893917226035e+02 
3 1 -3.951460048526e+02   4.058685357614e+01  -4.578757418455e+01 
4 1 -1.635245116595e+02   1.118680568815e+02   5.379907987001e+00 
5 1 -2.065901045717e+02   4.666000849495e+01  -1.767474373856e+02 
6 1  2.697813069482e+01   1.225117423549e+02   3.139204363667e+02 
7 1  8.936060151726e+01  -2.175770824056e+02  -1.513474942747e+01 
8 1 -3.605818755037e+00  -3.000211324868e+02   7.268022323792e+01 
8
Step 29000
1 1  2.322041692231e+02  -5.693264534680e+01  -1.431025719270e+02 
2 1  1.049604072547e+02  -4.559812652109e+01  -7.878904655126e+01 
3 1 -3.992586946935e+02   1.800577751986e+02  -7.244361541641e+01 
4 1 -1.429992049529e+02   1.394266570767e+02  -2.430128594121e+01 
5 1 -3.369061292596e+02  -1.293944580454e+02  -3.178014414826e+02 
6 1 -1.203361025983e+02   1.061534894314e+02   2.717604280959e+02 
7 1 -1.139918548179e+01  -1.297015736164e+02  -6.502946998676e+00 
8 1 -3.739556765074e+01  -1.258285317895e+02   1.084143352566e+02 
8
Step 30000
1 1  9.452510548711e+01   3.913172753701e+01  -1.088112292098e+02 
2 1 -9.746204275089e+01   5.092358081632e+01   4.621381157058e+01 
3 1 -2.447117359706e+02   2.503404163992e+02  -5.565277040563e+01 
4 1 -8.608383677220e+01   1.269522861696e+02  -3.513255579364e+01 
5 1 -3.497605214926e+02  -2.622077596616e+02  -3.158054326043e+02 
6 1 -2.236973166443e+02   4.073609207951e+01   1.173652914834e+02 
7 1 -1.440350801105e+02   4.628013828946e+01   2.971184095323e+01 
8 1 -6.304665405924e+01   8.132988699004e+01   1.141504291328e+02 
8
Step 31000
1 1 -6.177204722895e+01   5.796639851257e+01  -4.384812380894e+01 
2 1 -2.728701587620e+02   1.247370481143e+02   1.354794985067e+02 
3 1  1.210793209726e-01   2.314280715455e+02   1.028619176568e+00 
4 1 -7.743341438783e+00   8.326317554311e+01  -4.383002291139e+01 
5 1 -2.063519181510e+02  -2.754049872586e+02  -1.720987582795e+02 
6 1 -2.521436047120e+02  -5.310410055856e+01  -6.159993518868e+01 
7 1 -2.647209141880e+02   2.463862323260e+02   8.517019901383e+01 
8 1 -6.965107489038e+01   2.479999797069e+02   8.218274372243e+01 
8
Step 32000
1 1 -1.681175785873e+02  -1.479852789815e+01   1.787909961333e+01 
2 1 -3.331424387454e+02   1.144803959892e+02   1.547291033387e+02 
3 1  2.343030271063e+02   1.409641764436e+02   7.159942423489e+01 
4 1  7.145543853047e+01   2.357849681313e+01  -6.530893239255e+01 
5 1  4.490064112926e+01  -1.619876314725e+02   2.890873992251e+01 
6 1 -1.987365269615e+02  -1.391405064670e+02  -1.728443906452e+02 
7 1 -3.130250713962e+02   3.740174747825e+02   1.317971221499e+02 
8 1 -4.921868391396e+01   3.201862638575e+02   1.931190258791e+01 
8
Step 33000
1 1 -1.848390531264e+02  -1.331315935900e+02   5.154199831265e+01 
2 1 -2.397657680587e+02   6.330525312213e+00   1.046325331187e+02 
3 1  3.659081998717e+02   1.826017041910e+01   1.189697558226e+02 
4 1  1.315387581275e+02  -3.807946600283e+01  -1.022195248282e+02 
5 1  3.089299883823e+02   2.683405171596e+01   1.886262534717e+02 
6 1 -8.485481694735e+01  -1.793854654746e+02  -1.610894561888e+02 
7 1 -2.452682670071e+02   3.465684287493e+02   1.355893116071e+02 
8 1 -2.905184495832e+00   2.838891194859e+02  -5.219715611656e+01 
8
Step 34000
1 1 -1.155999512188e+02  -2.161397270232e+02   5.280798852527e+01 
2 1 -3.492666409357e+01  -1.493167403955e+02   2.303076404765e+01 
3 1  3.435741044860e+02  -8.826428774404e+01   1.106073051686e+02 
4 1  1.562260320664e+02  -9.149127230277e+01  -1.406979328159e+02 
5 1  4.707602524330e+02   2.082914037883e+02   2.352468524509e+02 
6 1  4.548385866955e+01  -1.537840265984e+02  -3.835537000006e+01 
7 1 -7.720183243933e+01   1.641982777296e+02   8.454715134686e+01 
8 1  5.564639139145e+01   1.699701463618e+02  -1.041824259167e+02 
8
Step 35000
1 1 -3.774591182900e+00  -1.925501041130e+02   3.747704941935e+01 
2 1  1.881632514710e+02  -2.663911499762e+02  -4.091314796606e+01 
3 1  1.891513427681e+02  -1.422604783150e+02   3.925680729452e+01 
4 1  1.341002742182e+02  -1.270233781751e+02  -1.531947638883e+02 
5 1  4.353871553996e+02   2.889982598883e+02   1.546120811682e+02 
6 1  1.458775508357e+02  -7.047568779355e+01   1.236593413939e+02 
7 1  1.313469783032e+02  -9.837055658416e+01  -6.004290963480e+00 
8 1  1.036001814008e+02   3.085935825117e+01  -1.166017336288e+02 
8
Step 36000
1 1  8.984907153036e+01  -4.054713181610e+01   2.991444587085e+01 
2 1  3.216397606073e+02  -2.629874055676e+02  -5.034249613402e+01 
3 1 -1.479899696978e+01  -1.385292016140e+02  -7.042350855066e+01 
4 1  6.412546194384e+01  -1.327258159994e+02  -1.093698160432e+02 
5 1  2.172566278732e+02   2.301331339205e+02   1.518530768100e+01 
6 1  1.841552651940e+02   3.878883090555e+01   2.293699176296e+02 
7 1  3.087891703173e+02  -3.401528049951e+02  -1.062194687952e+02 
8 1  1.164018379590e+02  -8.810148964755e+01  -8.622740910485e+01 
8
Step 37000
1 1  1.171500377446e+02   1.979981989965e+02   4.543677783411e+01 
2 1  2.943343897187e+02  -1.152183998138e+02  -7.308266342031e-01 
3 1 -1.747085512460e+02  -9.791334685453e+01  -1.727989639664e+02 
4 1 -3.430501326866e+01  -9.844004894079e+01   1.206192507936e+00 
5 1 -7.237701241635e+01   7.276957628414e+01  -8.793249809032e+01 
6 1  1.529921311128e+02   1.295009813239e+02   2.039854938927e+02 
7 1  3.780914385183e+02  -4.505339307136e+02  -1.750077011721e+02 
8 1  7.830101790498e+01  -1.635178631287e+02  -2.751821096459e+01 
8
Step 38000
1 1  6.232148821994e+01   4.256896837078e+02   7.546659178853e+01 
2 1  1.228623869883e+02   1.174766443852e+02   7.526605917522e+01 
3 1 -2.248207988248e+02  -5.156505384257e+01  -2.165421124561e+02 
4 1 -1.211736947808e+02  -2.596015946205e+01   1.473329798279e+02 
5 1 -3.119571382986e+02  -1.083778536988e+02  -9.898069134191e+01 
6 1  7.593210473990e+01   1.651713485616e+02   3.990267433755e+01 
7 1  3.010012513181e+02  -3.691983696769e+02  -1.796603065035e+02 
8 1 -6.955935314557e+00  -1.942605622407e+02   3.383926496335e+01 
8
Step 39000
1 1 -4.615942211698e+01   5.126633826307e+02   8.786812969950e+01 
2 1 -1.072276285598e+02   3.301222033415e+02   1.277035503758e+02 
3 1 -1.549749725799e+02  -2.573130577225e+01  -1.685506633783e+02 
4 1 -1.540056987901e+02   6.335478437670e+01   2.615840705585e+02 
5 1 -4.036322409218e+02  -2.331519677283e+02  -1.978590489185e+01 
6 1 -6.421874703990e+00   1.370067407071e+02  -1.938197922184e+02 
7 1  1.239492988755e+02  -1.501750655552e+02  -1.268464162702e+02 
8 1 -1.116986736397e+02  -1.909839585964e+02   7.139503086868e+01 
8
Step 40000
1 1 -1.389043421691e+02   3.787772314393e+02   5.180684542961e+01 
2 1 -2.797548993996e+02   4.108287042243e+02   1.101636633727e+02 
3 1 -1.517346672413e+01  -2.777819578912e+01  -3.348017421317e+01 
4 1 -1.144334880856e+02   1.333826102579e+02   2.801570097376e+02 
5 1 -3.133918232558e+02  -2.438352718399e+02   8.903536899672e+01 
6 1 -5.895936927167e+01   6.437757708654e+01  -3.831580844808e+02 
7 1 -7.087912068309e+01   9.908253487646e+01  -4.787505475165e+01 
8 1 -1.902997609756e+02  -1.627981990340e+02   6.897829941646e+01 
8
Step 41000
1 1 -1.526081878074e+02   7.014675052606e+01  -3.261998163081e+01 
2 1 -2.960331100588e+02   3.003101400252e+02   9.073252243736e+00 
3 1  1.161914584295e+02  -4.311942462375e+01   1.535070896928e+02 
4 1 -2.233031255109e+01   1.529980893776e+02   1.877011303221e+02 
5 1 -1.050767558054e+02  -1.435485902442e+02   1.450473965383e+02 
6 1 -6.424123138277e+01  -1.473361912892e+01  -4.172172852061e+02 
7 1 -2.160109631531e+02   2.872876388658e+02   2.991173448477e+01 
8 1 -1.978904275357e+02  -1.111641276578e+02   3.025636890541e+01 
8
Step 42000
1 1 -7.098478068644e+01  -2.875390379701e+02  -1.330697703531e+02 
2 1 -1.482682020700e+02   4.919578872162e+01  -1.375926035159e+02 
3 1  1.675230789143e+02  -4.405083046514e+01   3.393996117308e+02 
4 1  7.659109896965e+01   1.135791881491e+02   2.511808811764e+01 
5 1  1.063519117800e+02   1.154926531834e+01   1.016886900300e+02 
6 1 -3.103529503263e+01  -6.193935516866e+01  -2.592583609401e+02 
7 1 -2.650828816383e+02   3.512225855803e+02   8.786858332165e+01 
8 1 -1.166483045106e+02  -3.401236566793e+01  -2.182701327770e+01 
8
Step 43000
1 1  7.130723935876e+01  -5.457132779364e+02  -1.934214884353e+02 
2 1  8.446711940378e+01  -2.279917620400e+02  -2.656978080473e+02 
3 1  9.354130465341e+01  -1.735119056016e+00   4.432323413726e+02 
4 1  1.344402687552e+02   3.045644593288e+01  -1.367970126398e+02 
5 1  2.221217541493e+02   1.482099681692e+02  -2.588576522197e+01 
6 1  9.772862812188e+00  -6.345988971670e+01   2.671343640118e+01 
7 1 -2.109223976102e+02   2.796800945794e+02   1.178910739872e+02 
8 1  3.107637007914e+01   6.534276336763e+01  -5.860893870435e+01 
8
Step 44000
1 1  1.930650276344e+02  -5.743092067179e+02  -1.606430179624e+02 
2 1  2.823201319658e+02  -4.062979740782e+02  -3.068533775592e+02 
3 1 -9.118624124199e+01   9.174373161913e+01   3.710166752835e+02 
4 1  1.190890387470e+02  -6.317578200227e+01  -2.271296302209e+02 
5 1  2.000911148043e+02   2.050001463255e+02  -1.667478161634e+02 
6 1  2.546743109877e+01  -3.452345766926e+01   3.237781494076e+02 
7 1 -9.504516661479e+01   1.246455786624e+02   1.248162355596e+02 
8 1  1.908738211804e+02   1.693558775036e+02  -5.732726975858e+01 
8
Step 45000
1 1  2.181438756017e+02  -3.745185113790e+02  -4.250906593846e+01 
2 1  3.274632251709e+02  -3.906975542280e+02  -2.181901961351e+02 
3 1 -2.893260181036e+02   2.030529409852e+02   1.005206744881e+02 
4 1  2.939186713397e+01  -1.258890454328e+02  -2.062763088771e+02 
5 1  7.831109499944e+01   1.642460193399e+02  -2.357570301265e+02 
6 1 -9.787750337733e-03  -6.009015838751e+00   5.019621020915e+02 
7 1  2.257402571075e+01  -3.950528886618e+01   1.166406220891e+02 
8 1  2.929690529038e+02   2.433686827733e+02  -1.244846692674e+01 
8
Step 46000
1 1  1.387439529935e+02  -7.928211924217e+01   9.382807034061e+01 
2 1  1.951172144998e+02  -2.003506816175e+02  -3.112102737131e+01 
3 1 -3.687531773966e+02   2.683241481310e+02  -2.716296081358e+02 
4 1 -9.779677838640e+01  -1.277020000087e+02  -9.263623619141e+01 
5 1 -5.396398811320e+01   6.311125392705e+01  -1.975613442380e+02 
6 1 -5.580657946119e+01  -5.573102422760e+00   4.714033383122e+02 
7 1  9.463506227981e+01  -1.554593857116e+02   9.355364942839e+01 
8 1  2.824884573069e+02   2.497061762939e+02   5.572721592949e+01 
8
Step 47000
1 1 -1.131872837922e+00   1.788846904795e+02   1.780591979332e+02 
2 1 -3.509008677592e+01   5.547595682834e+01   1.765704670828e+02 
3 1 -2.466035596624e+02   2.305148138813e+02  -5.605128497130e+02 
4 1 -2.018199905834e+02  -6.748501352754e+01   4.434616379653e+01 
5 1 -1.268883714247e+02  -4.361979446981e+01  -7.859189229447e+01 
6 1 -1.097305256673e+02  -3.733169105489e+01   2.557135254724e+02 
7 1  1.001262553789e+02  -1.955883669145e+02   4.948559306545e+01 
8 1  1.557784391042e+02   1.748154858041e+02   1.107944612345e+02 
8
Step 48000
1 1 -1.360558441045e+02   3.198091685028e+02   1.623009648589e+02 
2 1 -2.546123037308e+02   2.670306591122e+02   3.294152459832e+02 
3 1  2.784272032303e+01   9.139903426515e+01  -6.017521080904e+02 
4 1 -2.226442261502e+02   2.518811500239e+01   1.206323939033e+02 
5 1 -1.173460412922e+02  -1.185840430786e+02   7.228362716873e+01 
6 1 -1.287727011486e+02  -7.953813525611e+01  -3.472151180959e+01 
7 1  5.064369859107e+01  -1.655026713818e+02  -1.794699120789e+01 
8 1 -3.837572381024e+01   3.949508375565e+01   1.230845950057e+02 
8
Step 49000
1 1 -2.012616442386e+02   3.227616655716e+02   4.610837433681e+01 
2 1 -3.556178759404e+02   3.442151808255e+02   3.616210018706e+02 
3 1  2.995997548590e+02  -8.122221221322e+01  -3.871429772603e+02 
4 1 -1.311529825230e+02   1.017339629046e+02   8.481072885599e+01 
5 1 -3.659965324099e+01  -1.425695953576e+02   2.040236932862e+02 
6 1 -9.303541685387e+01  -9.894542429628e+01  -2.817513189171e+02 
7 1 -1.610848440264e+01  -9.636074411806e+01  -9.911729358316e+01 
8 1 -2.289047364379e+02  -1.127002546699e+02   8.004039787727e+01 
8
Step 50000
1 1 -1.708799938767e+02   2.318213304824e+02  -1.081558623757e+02 
2 1 -2.877461878430e+02   2.610620460550e+02   2.608250982202e+02 
3 1  4.332940290810e+02  -2.114391326753e+02  -4.511498974405e+01 
4 1  4.728574388236e+01   1.228104662711e+02  -4.361516014873e+01 
5 1  7.646234531540e+01  -1.114569048195e+02   2.684829931137e+02 
6 1 -4.718351240039e+00  -6.848520443289e+01  -3.947809842171e+02 
7 1 -5.660105805508e+01  -2.464639184157e+01  -1.708414960558e+02 
8 1 -3.435689256365e+02  -2.271525322662e+02  -1.048962376884e+01 
8
Step 51000
1 1 -7.073024404130e+01   1.206099254747e+02  -2.094805470677e+02 
2 1 -1.041881343553e+02   8.038729307259e+01   8.537166686507e+01 
3 1  3.795437775542e+02  -2.554633191858e+02   2.617445961290e+02 
4 1  2.417404159544e+02   8.103266484822e+01  -1.807028232749e+02 
5 1  1.655468978251e+02  -3.957289205610e+01   2.365319861952e+02 
6 1  1.061505035315e+02   1.261741298184e+01  -3.443139730219e+02 
7 1 -4.280190854809e+01   2.549106334315e+01  -2.029306130967e+02 
8 1 -3.316055370270e+02  -2.561283424282e+02  -1.151405524740e+02 
8
Step 52000
1 1  4.491969402642e+01   4.245117694070e+01  -1.905077724559e+02 
2 1  1.038819544482e+02  -1.156915673611e+02  -9.714940520147e+01 
3 1  1.857303739057e+02  -2.144050027061e+02   4.088367097004e+02 
4 1  3.601485183294e+02   2.660736687133e+00  -2.223614104121e+02 
5 1  1.817167136105e+02   4.304681583346e+01   1.151143177412e+02 
6 1  1.956130719602e+02   1.134548560924e+02  -1.804100358659e+02 
7 1  2.405962173790e+01   4.900384338725e+01  -1.723427020156e+02 
8 1 -1.976276808117e+02  -1.900996310660e+02  -1.872795887069e+02 
8
Step 53000
1 1  1.218915320876e+02   5.789676166949e+00  -4.547902918793e+01 
2 1  2.548277655031e+02  -2.583299163198e+02  -2.335474466435e+02 
3 1 -3.621288857422e+01  -1.289031180654e+02   3.686878039728e+02 
4 1  3.347282934984e+02  -6.502869867846e+01  -1.108933828720e+02 
5 1  1.085007004698e+02   1.041035735481e+02  -5.362101734815e+01 
6 1  2.270795139531e+02   1.882035207595e+02   5.496520333329e+00 
7 1  1.131475350478e+02   5.655729510324e+01  -7.670864497939e+01 
8 1  1.354834924522e-01  -6.693701083687e+01  -1.936897912968e+02 
8
Step 54000
1 1  1.297618225382e+02  -1.643594153654e+01   1.634744352299e+02 
2 1  2.902911042291e+02  -2.914549447008e+02  -2.824916515404e+02 
3 1 -1.885883642383e+02  -4.533353343339e+01   2.068239819764e+02 
4 1  1.722764539064e+02  -8.530185528479e+01   1.138255923695e+02 
5 1 -2.995395764240e+01   1.215843841003e+02  -2.100804087641e+02 