8
Step 0
1 1  1.469048722732e+02   1.420178156270e+01   1.653688693684e+02 
2 1  1.488039581176e+02  -1.563168928746e+02   6.143700258254e-01 
3 1  2.962052524532e+01   7.912966419224e+01   1.305760075253e+02 
4 1  8.540899450366e+01  -1.103725379480e+02   1.273663727056e+02 
5 1 -1.738812132140e+02   8.849916126937e+01  -8.503468616110e+01 
6 1  2.388945096594e+02   2.745676688807e+02  -2.595804920320e+02 
7 1  3.434598225971e+01   1.207655089455e+02  -1.438029618860e+02 
8 1  5.006328521197e+01   1.619288367544e+02  -5.632881519100e+00 
8
Step 1000
1 1  4.807714563264e+01  -5.594761331231e+01   3.085149289947e+02 
2 1  6.019929001951e+01   7.211764507823e+01  -1.008483028845e+02 
3 1 -1.614741934138e+02   3.668571441529e+02  -7.248492780137e+01 
4 1 -1.719779393867e+02   6.527405683795e+01   2.199467779478e+02 
5 1 -3.677882088974e+02   3.080131871615e+02  -1.577917248322e+02 
6 1  3.657567300738e+02  -9.087403763784e+01  -3.683712494283e+02 
7 1 -5.563974896647e+01   3.869349227793e+02   6.231031635701e+01 
8 1  3.465657524174e+02   1.686305727638e+02  -2.612516961158e+01 
8
Step 2000
1 1 -5.396228386174e+01  -1.247145256387e+02   3.295584875396e+02 
2 1 -2.765180154678e+01   2.463860240419e+02  -1.999208060616e+02 
3 1 -3.212761630264e+02   4.900008289850e+02  -2.481643994860e+02 
4 1 -3.578750375191e+02   2.360109802415e+02   2.903709099848e+02 
5 1 -4.075820193955e+02   4.163252706567e+02  -1.787664381473e+02 
6 1  3.516367911645e+02  -4.298630094433e+02  -3.304638704467e+02 
7 1 -1.199735977870e+02   5.136831423563e+02   2.546914894204e+02 
8 1  4.796544022741e+02   5.436158954873e+01  -2.308180836045e+01 
8
Step 3000
1 1 -1.157639199710e+02  -1.849906006212e+02   2.153306337952e+02 
2 1 -5.616718473353e+01   2.868565370866e+02  -2.779209069845e+02 
3 1 -3.629248161343e+02   3.521372554710e+02  -3.461580376978e+02 
4 1 -3.816179060033e+02   3.212049518060e+02   2.740808460967e+02 
5 1 -2.615380120366e+02   3.354483853977e+02  -1.741994815988e+02 
6 1  2.042127981093e+02  -5.331040152335e+02  -1.244271276317e+02 
7 1 -1.427169960463e+02   4.217599836439e+02   3.406156552038e+02 
8 1  3.878200085632e+02  -1.085323525969e+02   9.789828351189e+00 
8
Step 4000
1 1 -9.562513604066e+01  -2.072548514393e+02  -1.377184093966e+01 
2 1 -1.776188656072e+01   1.662925129205e+02  -2.705832839530e+02 
3 1 -2.740742169243e+02   5.492123446570e+01  -3.302715940208e+02 
4 1 -2.356310172356e+02   2.723051105319e+02   1.474831974573e+02 
5 1 -1.632053234047e+01   1.081473191592e+02  -1.666925669480e+02 
6 1 -4.522949215979e+00  -3.750765995202e+02   1.314237292267e+02 
7 1 -1.274726555024e+02   1.611186239639e+02   2.849276624875e+02 
8 1  1.270390842678e+02  -2.141968831951e+02   6.703253079417e+01 
8
Step 5000
1 1  1.065705240097e+01  -1.647355396839e+02  -2.593928686340e+02 
2 1  3.105136366292e+01  -4.951162654742e+01  -1.600508223802e+02 
3 1 -1.170386487220e+02  -2.244323189824e+02  -2.183946908287e+02 
4 1 -1.209076828365e+01   1.243458672896e+02  -3.956091783333e+01 
5 1  2.077695107604e+02  -1.622967654725e+02  -1.509676877662e+02 
6 1 -1.818458931696e+02  -8.700425274027e+01   2.980732225079e+02 
7 1 -9.555673031405e+01  -1.322072682520e+02   1.367692453384e+02 
8 1 -1.741608823927e+02  -1.946263491546e+02   1.264787823292e+02 
8
Step 6000
1 1  1.282892596468e+02  -7.002986438158e+01  -3.955289866333e+02 
2 1  4.571940919434e+01  -2.377145645153e+02   1.505165100265e+01 
3 1  4.907880170144e+01  -3.715109226938e+02  -6.103821600156e+01 
4 1  1.819791768236e+02  -5.843002271232e+01  -2.235782615967e+02 
5 1  3.171738753279e+02  -3.673903050381e+02  -1.053483549728e+02 
6 1 -2.714068163822e+02   1.999447366394e+02   3.308661865529e+02 
7 1 -6.324767543579e+01  -3.397814783857e+02  -3.046628773481e+01 
8 1 -3.833879541271e+02  -4.966238081410e+01   1.647405475956e+02 
8
Step 7000
1 1  1.715582276576e+02   4.577340242719e+01  -3.575497219264e+02 
2 1  6.581959424407e+00  -3.010543229336e+02   2.236483750498e+02 
3 1  1.865163465704e+02  -3.369490938291e+02   1.006026367655e+02 
4 1  2.759431483124e+02  -2.065828495875e+02  -3.383361315892e+02 
5 1  2.747889677217e+02  -4.132937264810e+02  -1.778444727939e+01 
6 1 -2.693171729894e+02   3.594657425930e+02   2.291201954705e+02 
7 1 -3.289738841600e+01  -3.911927059801e+02  -1.506146832124e+02 
8 1 -4.087493052688e+02   1.465336895818e+02   1.531825695318e+02 
8
Step 8000
1 1  1.170361522171e+02   1.500916703784e+02  -1.727823902019e+02 
2 1 -8.274734025185e+01  -2.202955411240e+02   4.091917973292e+02 
3 1  2.633333311359e+02  -1.529404747860e+02   2.301794600317e+02 
4 1  2.413316507771e+02  -2.610122388233e+02  -3.314752988644e+02 
5 1  1.281397189918e+02  -2.899899667918e+02   9.413783928149e+01 
6 1 -1.915025340277e+02   3.381001725732e+02   4.739333259097e+01 
7 1 -1.287511594619e+00  -2.887975766348e+02  -1.829895493624e+02 
8 1 -2.501757106386e+02   2.813684972788e+02   7.658209545885e+01 
8
Step 9000
1 1 -3.915605055842e+00   2.026907973313e+02   8.728614451335e+01 
2 1 -1.726380312494e+02  -3.516036794407e+01   4.617480664490e+02 
3 1  2.670137297545e+02   7.966016887807e+01   2.948115379354e+02 
4 1  1.165600125131e+02  -2.056312747192e+02  -2.126757226521e+02 
5 1 -3.265138507185e+01  -7.343315234386e+01   1.924638376860e+02 
6 1 -6.822129776141e+01   1.790234277537e+02  -1.257057958909e+02 
7 1  3.323623411631e+01  -1.066245706809e+02  -1.334450533446e+02 
8 1 -3.501678739346e+00   2.808868378013e+02  -4.340674314436e+01 
8
Step 10000
1 1 -1.453039045321e+02   1.782430660635e+02   3.217616981426e+02 
2 1 -1.873558761654e+02   1.750690714109e+02   3.257639607944e+02 
3 1  2.065104608026e+02   2.553838629756e+02   2.760940743494e+02 
4 1 -1.693810354129e+01  -8.419709988944e+01  -4.880151968091e+01 
5 1 -1.376406050770e+02   1.482409921345e+02   2.420382054518e+02 
6 1  6.357259941300e+01  -4.156580537490e+01  -2.275624501488e+02 
7 1  7.037467866741e+01   6.760909117680e+01  -4.606939266050e+01 
8 1  2.082660534923e+02   1.526512261401e+02  -1.607387839876e+02 
8
Step 11000
1 1 -2.379220239767e+02   9.199997909596e+01   4.164887352157e+02 
2 1 -1.011266152700e+02   3.098484943166e+02   5.825747902012e+01 
3 1  1.026759526258e+02   3.045412754966e+02   1.747121465292e+02 
4 1 -1.000173947668e+02   4.274603792688e+01   9.670303152775e+01 
5 1 -1.563968625504e+02   2.981853134214e+02   2.169259437378e+02 
6 1  1.731265245147e+02  -2.317677225039e+02  -2.258333371191e+02 
7 1  1.069758494568e+02   1.749996030200e+02   3.019985575853e+01 
8 1  2.995960481921e+02  -3.140948166232e+01  -2.322984293343e+02 
8
Step 12000
1 1 -2.190217252458e+02  -9.012262383368e+00   3.266265675048e+02 
2 1  5.509938926081e+01   3.025727466563e+02  -2.491247781694e+02 
3 1 -2.160395185758e+01   2.204264127356e+02   1.770870609813e+01 
4 1 -1.160574079667e+02   1.288446313351e+02   1.872718984590e+02 
5 1 -1.008132314427e+02   3.249557329826e+02   1.147247536513e+02 
6 1  2.307221915642e+02  -3.025972651717e+02  -1.223521428374e+02 
7 1  1.322274630483e+02   1.925473803285e+02   6.238204885981e+01 
8 1  2.567430752898e+02  -1.801278289075e+02  -2.304322983956e+02 
8
Step 13000
1 1 -9.957301004827e+01  -8.120152623640e+01   1.120593611194e+02 
2 1  2.199105475253e+02   1.704902603544e+02  -4.932276477285e+02 
3 1 -1.384201724763e+02   4.408289651247e+01  -1.467341237312e+02 
4 1 -7.659304671286e+01   1.512188640919e+02   2.125939145380e+02 
5 1 -1.573729636407e+01   2.302136995372e+02  -3.220540946617e+01 
6 1  2.119708440406e+02  -2.301840557252e+02   2.291509399202e+01 
7 1  1.297911481450e+02   1.339349821294e+02   4.240172343822e+01 
8 1  1.338287448525e+02  -2.381051747768e+02  -1.532366042620e+02 
8
Step 14000
1 1  5.727314510740e+01  -9.923038850395e+01  -1.361348708033e+02 
2 1  2.990535922006e+02  -1.909416094056e+01  -5.435215401721e+02 
3 1 -2.175438950747e+02  -1.534893635613e+02  -2.673212671207e+02 
4 1 -1.155553887606e+01   1.106585378724e+02   1.846763651101e+02 
5 1  4.748003462042e+01   6.190979773392e+01  -1.713036378878e+02 
6 1  1.255410782614e+02  -5.731064387746e+01   1.328070025009e+02 
7 1  8.734423132959e+01   3.871635446212e+01  -1.331278919281e+01 
8 1 -3.351930529407e-01  -2.073594468581e+02  -2.409552580766e+01 
8
Step 15000
1 1  1.852695218229e+02  -5.720917656468e+01  -3.258122416250e+02 
2 1  2.315932895247e+02  -1.789960133196e+02  -3.582782396528e+02 
3 1 -2.310000158778e+02  -2.827234705512e+02  -2.995276080152e+02 
4 1  4.263933571837e+01   2.772454750339e+01   1.255086245553e+02 
5 1  5.165820617961e+01  -1.138827441280e+02  -2.500714953907e+02 
6 1  1.885208161497e+00   1.394230486406e+02   1.626834585321e+02 
7 1  5.441242111571e+00  -4.687231474003e+01  -7.250314677303e+01 
8 1 -1.037336186102e+02  -1.190640063004e+02   1.251881232543e+02 
8
Step 16000
1 1  2.321187514700e+02   1.457070478020e+01  -3.735749782115e+02 
2 1  5.868064598236e+01  -2.396307156375e+02  -4.749768583526e+01 
3 1 -1.737585434002e+02  -2.823755475889e+02  -2.249707783944e+02 
4 1  5.818409497045e+01  -6.357991186010e+01   5.387181011826e+01 
5 1  3.124638337060e-01  -2.235299275761e+02  -2.309102059579e+02 
6 1 -1.262384060915e+02   2.671797335221e+02   1.021981369238e+02 
7 1 -1.003481492314e+02  -8.684079865910e+01  -1.009336343915e+02 
8 1 -1.569872822252e+02  -9.988902002307e+00   2.548839350369e+02 
8
Step 17000
1 1  1.804934358624e+02   6.082709486292e+01  -2.663602952504e+02 
2 1 -1.339712793752e+02  -1.869664115039e+02   2.469847047817e+02 
3 1 -7.221305107405e+01  -1.701336480189e+02  -7.167214368683e+01 
4 1  3.009995336499e+01  -1.227689382869e+02  -1.621100909086e+01 
5 1 -6.107132507695e+01  -2.269015107042e+02  -1.174372686104e+02 
6 1 -2.157645154509e+02   2.655768944688e+02  -1.673859055409e+01 
7 1 -1.969985894932e+02  -6.832104822355e+01  -7.631032541208e+01 
8 1 -1.553487030427e+02   8.245217450031e+01   3.157764989804e+02 
8
Step 18000
1 1  6.780318883918e+01   4.614716141332e+01  -6.900853816926e+01 
2 1 -2.617308313377e+02  -7.373342402489e+01   4.149872002884e+02 
3 1  3.949887551879e+01  -2.240778566857e+00   1.017974667364e+02 
4 1 -2.725273909372e+01  -1.221630207604e+02  -7.571733436846e+01 
5 1 -8.176442530721e+01  -1.414829908682e+02   4.134271973894e+01 
6 1 -2.269454970130e+02   1.469606780333e+02  -1.209058724279e+02 
7 1 -2.422419520963e+02  -8.836072163552e+00   3.232180052495e+00 
8 1 -1.147571160681e+02   1.320520366869e+02   2.640667499954e+02 
8
Step 19000
1 1 -4.693193988833e+01  -3.212389959002e+01   1.391245375291e+02 
2 1 -2.575483244691e+02   2.608254417732e+01   3.937510144842e+02 
3 1  1.347949209019e+02   1.719662098813e+02   2.354699743504e+02 
4 1 -8.860347599120e+01  -5.770081373281e+01  -1.208361627083e+02 
5 1 -4.032852458104e+01  -2.109853396746e+01   1.776145769784e+02 
6 1 -1.575703697059e+02  -3.314895735944e+01  -1.446913292241e+02 
7 1 -2.044390396856e+02   5.366224160311e+01   1.134013780650e+02 
8 1 -5.996350719576e+01   1.353373081304e+02   9.694059163879e+01 
8
Step 20000
1 1 -1.155015425566e+02  -1.461156937811e+02   2.829115995404e+02 
2 1 -1.365255738360e+02   7.422424562940e+01   2.252932664178e+02 
3 1  1.799814157063e+02   2.810754418183e+02   2.813297065440e+02 
4 1 -1.224155196866e+02   4.782539197183e+01  -1.501110479321e+02 
5 1  5.258559847424e+01   8.712344237972e+01   2.354039573473e+02 
6 1 -3.445438522026e+01  -1.976552887169e+02  -7.353284449847e+01 
7 1 -8.358531891645e+01   8.128593042943e+01   2.095438181726e+02 
8 1 -3.020172078980e+00   1.061104098363e+02  -1.329404285779e+02 
8
Step 21000
1 1 -1.198743762409e+02  -2.286684184764e+02   3.057328040573e+02 
2 1  2.299718474652e+01   7.095454755851e+01   1.263156823537e+01 
3 1  1.590773035358e+02   2.756629702971e+02   2.220905472745e+02 
4 1 -1.035276667778e+02   1.505896253082e+02  -1.564309799782e+02 
5 1  1.514000247836e+02   1.344685129686e+02   1.859497825870e+02 
6 1  1.018834846016e+02  -2.657285124194e+02   6.138229471496e+01 
7 1  8.536130294473e+01   5.079049200425e+01   2.432156784402e+02 
8 1  5.061221217469e+01   6.504865952252e+01  -3.390463812027e+02 
8
Step 22000
1 1 -7.675518733586e+01  -2.095904038661e+02   2.073020202961e+02 
2 1  1.548671945911e+02   2.916078184784e+01  -1.614100842267e+02 
3 1  9.418575098802e+01   1.768842348705e+02   8.459907155761e+01 
4 1 -3.423869543039e+01   2.019466188685e+02  -1.301463558840e+02 
5 1  1.927958373431e+02   1.059243053436e+02   5.053509338310e+01 
6 1  2.003047965916e+02  -2.087239375610e+02   1.933544773597e+02 
7 1  2.417254687251e+02  -3.009535979960e+01   1.851950151384e+02 
8 1  9.066618512003e+01   3.159775658429e+01  -4.317013006666e+02 
8
Step 23000
1 1 -2.831561977267e+01  -6.737947294515e+01   4.224918804084e+01 
2 1  2.071862613147e+02  -1.161128085997e+01  -2.385338387330e+02 
3 1  1.883727471246e+01   3.045739512393e+01  -7.626068817290e+01 
4 1  6.398529861332e+01   1.679823515525e+02  -7.298934929043e+01 
5 1  1.426385245367e+02   3.079394363862e+01  -1.081952149152e+02 
6 1  2.166636197071e+02  -6.362237020317e+01   2.443382830933e+02 
7 1  3.169669139490e+02  -1.198291302192e+02   3.620615026122e+01 
8 1  1.160090360480e+02   8.948163669842e+00  -3.530975130295e+02 
8
Step 24000
1 1 -7.598326237463e+00   1.625568111324e+02  -1.246949815115e+02 
2 1  1.528689400206e+02  -1.243532877674e+01  -2.018354449578e+02 
3 1 -4.380910516749e+01  -1.299520427973e+02  -1.986379658202e+02 
4 1  1.643993787040e+02   4.704167069242e+01   6.837269191682e+00 
5 1  1.657777500510e+01  -4.640857593779e+01  -2.170272731600e+02 
6 1  1.428700761806e+02   1.010778330447e+02   1.704207015354e+02 
7 1  2.690881100756e+02  -1.635074846800e+02  -1.611612168075e+02 
8 1  1.253256989160e+02  -1.379884886007e+01  -1.274319622902e+02 
8
Step 25000
1 1 -2.370051069080e+01   3.983143516491e+02  -2.386481453697e+02 
2 1  2.380771773305e+01   2.280452105647e+01  -8.924833996798e+01 
3 1 -7.226189768414e+01  -2.504255526550e+02  -2.366014141060e+02 
4 1  2.307797153672e+02  -1.242489157498e+02   9.953382772294e+01 
5 1 -1.337584158837e+02  -9.058843998896e+01  -2.223213846736e+02 
6 1  1.076187187798e+01   2.129267357024e+02  -7.385729495662e+00 
7 1  1.087546285211e+02  -1.298250247441e+02  -3.316826247116e+02 
8 1  1.078442570879e+02  -4.861978370295e+01   1.545003596177e+02 
8
Step 26000
1 1 -5.892671448553e+01   5.159291201727e+02  -2.519069035524e+02 
2 1 -1.101413713887e+02   6.265325547231e+01   3.828517644923e+01 
3 1 -6.374922026999e+01  -2.854325119518e+02  -1.814505490470e+02 
4 1  2.250690381679e+02  -2.779592439829e+02   1.837621957780e+02 
5 1 -2.382705966084e+02  -7.454755513129e+01  -1.129272747031e+02 
6 1 -1.251508820824e+02   2.197122743659e+02  -2.173470213382e+02 
7 1 -9.874837914439e+01  -2.332516737414e+01  -4.006786594091e+02 
8 1  5.529468673145e+01  -9.907297337438e+01   3.825357626125e+02 
8
Step 27000
1 1 -7.106507472899e+01   4.182389238990e+02  -1.588078968261e+02 
2 1 -1.862809225447e+02   8.129889845351e+01   1.296848234557e+02 
3 1 -3.978766852392e+01  -2.343503141024e+02  -6.174368290975e+01 
4 1  1.347317275917e+02  -3.382606340482e+02   2.261476727349e+02 
5 1 -2.424943848815e+02  -2.737413080518e+00   6.831473291084e+01 
6 1 -2.056124641810e+02   1.207770009550e+02  -3.651921562699e+02 
7 1 -2.617415017934e+02   1.118840322603e+02  -3.288720687736e+02 
8 1 -2.426685520158e+01  -1.514293370086e+02   4.561446218818e+02 
8
Step 28000
1 1 -2.588295165595e+01   1.197658094588e+02  -1.282521630943e+01 
2 1 -1.667565750229e+02   5.933643339522e+01   1.438693290230e+02 
3 1 -2.601027275897e+01  -1.180159741963e+02   7.301201218111e+01 
4 1 -1.715077342724e+01  -2.623449571493e+02   2.094308422589e+02 
5 1 -1.394517822498e+02   8.808603601462e+01   2.388708420480e+02 
6 1 -1.893788845489e+02  -3.092551666469e+01  -3.698726064489e+02 
7 1 -3.031109123596e+02   2.106225064830e+02  -1.315332641370e+02 
8 1 -1.072510175950e+02  -1.748282454152e+02   3.381414077961e+02 
8
Step 29000
1 1  7.335949632277e+01  -2.733515482179e+02   1.231480730348e+02 
2 1 -5.454533214559e+01  -4.732291248941e+00   7.726800406368e+01 
3 1 -3.406533319937e+01   4.063253395499e+01   1.661608470342e+02 
4 1 -1.862658436620e+02  -6.737922525472e+01   1.382567095136e+02 
5 1  2.766772751529e+01   1.492805471294e+02   3.088736400378e+02 
6 1 -7.921920897584e+01  -1.586694461811e+02  -2.119687746208e+02 
7 1 -2.079541378419e+02   2.179437645303e+02   1.239185628192e+02 
8 1 -1.622223111915e+02  -1.437499369214e+02   9.137256224352e+01 
8
Step 30000
1 1  1.871177209012e+02  -6.090131400250e+02   2.033192765999e+02 
2 1  1.026443753728e+02  -8.119680898966e+01  -3.094870055981e+01 
3 1 -6.109546498134e+01   1.993799485027e+02   1.797219635818e+02 
4 1 -3.188002396276e+02   1.803030353238e+02   2.711487889524e+01 
5 1  1.791295609446e+02   1.382084352654e+02   2.277775509497e+02 
6 1  7.711549041185e+01  -2.033353562463e+02   5.327447796040e+01 
7 1 -2.513227815074e+01   1.280437830378e+02   3.429171103615e+02 
8 1 -1.660252692824e+02  -5.293562860517e+01  -1.698285033071e+02 
8
Step 31000
1 1  2.410286974602e+02  -6.938066301635e+02   1.888193683893e+02 
2 1  2.275268484710e+02  -1.297270994963e+02  -1.261632995986e+02 
3 1 -8.256587488274e+01   3.069469683681e+02   1.135759123541e+02 
4 1 -3.578940263486e+02   3.834716465400e+02  -1.002827652563e+02 
5 1  2.358690079321e+02   4.316590264713e+01   2.046132683411e+01 
6 1  2.114855971706e+02  -1.418507586355e+02   3.278050568081e+02 
7 1  1.592339361459e+02  -1.557676471431e+01   4.434290502775e+02 
8 1 -1.120163121026e+02   7.922557110630e+01  -3.378923349927e+02 
8
Step 32000
1 1  1.801318248583e+02  -4.628723477670e+02   9.299196840159e+01 
2 1  2.469271615494e+02  -1.198237828536e+02  -1.659182080133e+02 
3 1 -6.807623156949e+01   3.318711056254e+02   5.113816214324e+00 
4 1 -2.683894132533e+02   4.410966289968e+02  -2.045309594407e+02 
5 1  1.715670518383e+02  -1.008547091435e+02  -2.255715327496e+02 
6 1  2.525308819683e+02   2.877635368199e+00   4.946702264161e+02 
7 1  2.506786669039e+02  -1.432541373059e+02   3.896168510627e+02 
8 1 -1.386223197779e+01   2.075448180950e+02  -3.492030898737e+02 
8
Step 33000
1 1  3.464948442759e+01  -7.279213018527e+01  -1.895132705118e+01 
2 1  1.410198808100e+02  -5.105277989403e+01  -1.263940570315e+02 
3 1 -7.400032259918e+00   2.591656376797e+02  -9.523470237452e+01 
4 1 -7.791106181272e+01   3.197402606110e+02  -2.500970353962e+02 
5 1  2.447056245158e+01  -2.248812681189e+02  -3.938020123251e+02 
6 1  1.622484680653e+02   1.519806185811e+02   4.602219354766e+02 
7 1  1.995773122474e+02  -1.951935822627e+02   2.121453303431e+02 
8 1  9.074794028667e+01   2.756768809434e+02  -2.138838573710e+02 
8
Step 34000
1 1 -1.268339714656e+02   2.840346189313e+02  -9.941974353184e+01 
2 1 -5.133679779155e+01   4.684272359709e+01  -1.510880358693e+01 
3 1  9.150433223571e+01   9.177370286405e+01  -1.482438294670e+02 
4 1  1.381490011668e+02   7.915837105107e+01  -2.302797856269e+02 
5 1 -1.229952886772e+02  -2.555524497084e+02  -3.842960689689e+02 
6 1 -1.887867254864e+01   2.162532513842e+02   2.360009015410e+02 
7 1  4.070001598343e+01  -1.544979928221e+02  -1.438793486259e+01 
8 1  1.544913834407e+02   2.485588997597e+02  -8.395490040367e+00 
8
Step 35000
1 1 -2.362853006784e+02   4.733560875209e+02  -1.262507016485e+02 
2 1 -2.573913860207e+02   1.192031910924e+02   1.230747085778e+02 
3 1  2.071564281813e+02  -1.333376973397e+02  -1.246213264569e+02 
4 1  3.048899686336e+02  -1.828842359319e+02  -1.579090703911e+02 
5 1 -1.826874085179e+02  -1.630305460806e+02  -1.939895717884e+02 
6 1 -2.121092244764e+02   1.628123037484e+02  -7.556223338725e+01 
7 1 -1.411097140176e+02  -5.144580151392e+01  -2.097074807187e+02 
8 1  1.517279367388e+02   1.327422538526e+02   1.596751988442e+02 
8
Step 36000
1 1 -2.440309341553e+02   4.371686062083e+02  -9.738978624708e+01 
2 1 -3.768944137320e+02   1.227813386338e+02   2.227089618153e+02 
3 1  2.776401614370e+02  -3.453413378312e+02  -2.451156240085e+01 
4 1  3.640750200621e+02  -3.618004187953e+02  -5.387213331582e+01 
5 1 -1.200680267542e+02   1.417202186048e+01   7.983524221566e+01 
6 1 -3.361538867320e+02   1.128978433074e+01  -3.508174245345e+02 
7 1 -2.557291193173e+02   5.737164898303e+01  -3.133178618029e+02 
8 1  9.066609007700e+01  -2.734212200420e+01   2.154330735212e+02 
8
Step 37000
1 1 -1.559223408477e+02   2.571007040737e+02  -4.880071185929e+01 
2 1 -3.304506925156e+02   5.741636506701e+01   2.456076104501e+02 
3 1  2.305553380971e+02  -4.646618061572e+02   9.993998473071e+01 
4 1  2.921282678067e+02  -3.819154830051e+02   5.479063560518e+01 
5 1  2.699342312728e+01   2.001909519025e+02   3.138180051418e+02 
6 1 -3.119461669824e+02  -1.703231486204e+02  -4.745295538685e+02 
7 1 -2.419966430073e+02   1.155009063209e+02  -3.068403529442e+02 
8 1  1.986877018833e+00  -1.700050455431e+02   1.612767638793e+02 
8
Step 38000
1 1 -2.357787648819e+01   5.747944081035e+01  -3.099489803133e+00 
2 1 -1.251164914506e+02  -3.904152878303e+01   1.833439222385e+02 
3 1  6.146491506568e+01  -4.264204977107e+02   1.677816209522e+02 
4 1  1.323032212478e+02  -2.545836618719e+02   1.369620611570e+02 
5 1  1.668553089065e+02   3.048037002643e+02   4.097636520982e+02 
6 1 -1.288430377501e+02  -2.728454156220e+02  -3.896020506542e+02 
7 1 -9.983469066277e+01   1.000024357941e+02  -2.181771821162e+02 
8 1 -7.608360465336e+01  -2.414458371417e+02   4.659093108710e+01 
8
Step 39000
1 1  1.009442940004e+02  -8.642816094832e+01   4.783902688460e+01 
2 1  1.635857007354e+02  -1.227818287624e+02   4.270039156466e+01 
3 1 -1.528686003473e+02  -2.246370229039e+02   1.414392685793e+02 
4 1 -3.592141547406e+01  -6.510985049920e+01   1.823049453870e+02 
5 1  2.101606822544e+02   2.699019747652e+02   3.297238989299e+02 
6 1  1.125928121963e+02  -2.242147670313e+02  -1.681636844991e+02 
7 1  1.036043785940e+02   3.084749688695e+01  -9.112540358494e+01 
8 1 -1.113141249852e+02  -2.190916285685e+02  -6.747897814046e+01 
8
Step 40000
1 1  1.746917104106e+02  -1.456303227810e+02   9.817183843509e+01 
2 1  4.367896562876e+02  -1.388677372385e+02  -1.363323264778e+02 
3 1 -3.465595684107e+02   7.954878948232e+01   3.131981760320e+01 
4 1 -1.593501286018e+02   1.075504090296e+02   1.941360194122e+02 
5 1  1.336800838577e+02   1.188775160129e+02   1.296816107298e+02 
6 1  3.155022754488e+02  -5.701514048693e+01   7.026723662799e+01 
7 1  2.749651555321e+02  -4.568212554080e+01   2.735640952415e+01 
8 1 -8.939778717817e+01  -1.250951384608e+02  -1.152961993281e+02 
8
Step 41000
1 1  1.739850380578e+02  -1.184808990218e+02   1.219601944026e+02 
2 1  5.566561656901e+02  -4.855532417528e+01  -2.635643818654e+02 
3 1 -4.360576217447e+02   3.603783679129e+02  -1.182123773473e+02 
4 1 -2.159268858625e+02   2.182077451595e+02   1.749343758989e+02 
5 1 -2.727404434361e+01  -7.668813747989e+01  -9.013634400048e+01 
6 1  4.099846945637e+02   1.477498051543e+02   2.260841527106e+02 
7 1  3.375569542635e+02  -8.532163547407e+01   1.050212534307e+02 
8 1 -3.309131186544e+01  -1.012216086798e+01  -7.979831838084e+01 
8
Step 42000
1 1  9.068090376727e+01  -4.756973797487e+01   1.343575530580e+02 
2 1  4.299484877743e+02   9.364373478469e+01  -2.909974325471e+02 
3 1 -3.216250528034e+02   4.940757047118e+02  -2.256358457089e+02 
4 1 -2.054983013637e+02   2.443472680412e+02   1.219423052331e+02 
5 1 -2.026192701778e+02  -2.413840372868e+02  -2.335409583853e+02 
6 1  3.354110893244e+02   2.945913681973e+02   2.447168480459e+02 
7 1  2.650051064769e+02  -6.839899750763e+01   1.377264920828e+02 
8 1  2.071644463569e+01   7.809519521450e+01  -1.829420467407e+01 
8
Step 43000
1 1 -3.374399463606e+01  -4.959596688536e+00   1.104485670754e+02 
2 1  1.018325719058e+02   1.974039715273e+02  -2.451687809842e+02 
3 1 -4.245630715402e+01   4.262077315906e+02  -2.119477484906e+02 
4 1 -1.417268745389e+02   1.819353990165e+02   3.719034520406e+01 
5 1 -2.981723877161e+02  -2.961528826469e+02  -2.623259048623e+02 
6 1  1.109218250275e+02   3.054172144710e+02   1.392776320776e+02 
7 1  8.840218014861e+01  -7.024702749902e+00   1.375953219617e+02 
8 1  6.415573851276e+01   1.052948211518e+02   6.441684083984e+01 
8
Step 44000
1 1 -1.238701472394e+02  -2.902765218460e+01   4.897775156357e+00 
2 1 -2.806618572092e+02   2.094936599822e+02  -1.323053701405e+02 
3 1  2.337891751543e+02   2.114801550747e+02  -6.946114859998e+01 
4 1 -5.882856621557e+01   5.865633062787e+01  -7.288362203380e+01 
5 1 -2.486422719859e+02  -2.176333930375e+02  -1.939088683111e+02 
6 1 -1.388357822277e+02   1.691380689388e+02   5.659004637107e+00 
7 1 -1.249713586399e+02   6.318244371072e+01   1.185090247495e+02 
8 1  7.723622908689e+01   7.553115613695e+01   1.166577017381e+02 
8
Step 45000
1 1 -1.358060949133e+02  -9.395758119918e+01  -1.592932859497e+02 
2 1 -5.538069635856e+02   1.023742464522e+02   2.591792290132e+01 
3 1  3.974228514863e+02  -5.704951481273e+01   1.306629354940e+02 
4 1  1.381771508379e+01  -7.707310827338e+01  -1.830610037764e+02 
5 1 -8.429858312480e+01  -5.827107626079e+01  -8.498362888393e+01 
6 1 -3.231923361941e+02  -3.166615535832e+01  -7.091128467710e+01 
7 1 -2.984892454602e+02   1.043080031553e+02   9.360471395344e+01 
8 1  5.110268079077e+01   2.491722628435e+01   8.684864211281e+01 
8
Step 46000
1 1 -8.543813462295e+01  -1.537446734653e+02  -2.765211651068e+02 
2 1 -5.722815890226e+02  -1.002354849307e+02   1.337401550408e+02 
3 1  3.941140171043e+02  -2.478896664007e+02   2.818693986794e+02 
4 1  4.988821998092e+01  -1.775628076281e+02  -2.524527655183e+02 
5 1  1.178916530415e+02   1.134144894694e+02   1.750148565735e+01 
6 1 -3.934452494221e+02  -2.008739976607e+02  -6.471696219057e+01 
7 1 -3.736451762625e+02   9.779074751804e+01   6.558780265446e+01 
8 1  9.880303119705e+00  -6.079706495091e+00   2.125186101271e+00 
8
Step 47000
1 1  2.106566845064e+01  -1.572993099974e+02  -3.216449303564e+02 
2 1 -3.673444090736e+02  -2.610724057937e+02   1.774645734423e+02 
3 1  1.953043488548e+02  -2.878974287560e+02   3.015260758509e+02 
4 1  5.712778420145e+01  -1.985735734611e+02  -2.380626198643e+02 
5 1  2.760280538606e+02   2.304061833682e+02   7.554970919830e+01 
6 1 -3.106499204354e+02  -2.772030127234e+02   1.472186348999e+01 
7 1 -3.269591665906e+02   4.324277104907e+01   2.862118597524e+01 
8 1 -1.718154039572e+01   3.885240485455e+00  -6.709287003803e+01 
8
Step 48000
1 1  1.363224897958e+02  -6.829900688351e+01  -2.628980710224e+02 
2 1 -6.296339900192e+01  -2.782587574452e+02   1.975219965046e+02 
3 1 -8.969355596972e+01  -1.998885362631e+02   1.775612632236e+02 
4 1  5.069316067518e+01  -1.320161096643e+02  -1.302002544774e+02 
5 1  3.135658970588e+02   2.429541363561e+02   8.914559550189e+01 
6 1 -1.159470097254e+02  -2.436332687517e+02   1.135947144927e+02 
7 1 -1.727536134767e+02  -3.947796411203e+01  -1.840591820692e+01 
8 1 -3.728866640017e+01   5.399020094429e+01  -1.084178318912e+02 
8
Step 49000
1 1  1.681748594022e+02   8.398669111291e+01  -6.041312713765e+01 
2 1  2.452982046149e+02  -1.693914407435e+02   1.870007507219e+02 
3 1 -3.123399733733e+02  -6.029003061735e+01  -3.650209109091e+01 
4 1  3.398899199873e+01   1.317322302852e+01   3.431515134024e+01 
5 1  2.096361061786e+02   1.600637120762e+02   8.015476826008e+01 
6 1  1.001444399296e+02  -1.295121470151e+02   1.636104167049e+02 
7 1  4.103518566547e+01  -1.135350711571e+02  -7.303904736116e+01 
8 1 -5.115241970155e+01   1.127153476356e+02  -1.087397331793e+02 
8
Step 50000
1 1  1.014241513766e+02   2.409116403234e+02   2.169501521626e+02 
2 1  4.100039414528e+02   8.833126316838e+00   1.357745297628e+02 
3 1 -3.735142793219e+02   5.958984551845e+01  -2.459157708467e+02 
4 1  3.910839286649e+01   1.694535055765e+02   1.972950695701e+02 
5 1  2.020943810881e+01   2.926568983196e+01   6.498278724610e+01 
6 1  2.633019696580e+02   1.244602655505e+01   1.242784180786e+02 
7 1  2.490722605160e+02  -1.454976018826e+02  -1.276931208989e+02 
8 1 -4.802352049054e+01   1.320094966233e+02  -4.230950173597e+01 
8
Step 51000
1 1 -3.561882684029e+00   3.403394355718e+02   4.223997198862e+02 
2 1  3.631440804919e+02   1.725864153423e+02   7.849838519010e+01 
3 1 -2.523801088019e+02   1.018729000236e+02  -3.531054513516e+02 
4 1  6.511078814675e+01   2.612618610943e+02   2.847708108305e+02 
5 1 -1.709006200682e+02  -1.037398730040e+02   4.864701813985e+01 
6 1  3.294044940926e+02   1.287034489484e+02   7.979862149677e+00 
7 1  3.844723290584e+02  -1.183235131496e+02  -1.629973633028e+02 
8 1 -3.594672276279e+01   8.120485291722e+01   5.926989602435e+01 
8
Step 52000
1 1 -1.097125039681e+02   2.964221495042e+02   4.441355248352e+02 
2 1  1.789011742423e+02   2.423918951619e+02   1.723216278167e+01 
3 1 -1.052619506234e+01   7.001311600024e+01  -3.206123234263e+02 
4 1  1.073069543439e+02   2.373645762396e+02   2.453018825982e+02 
5 1 -2.784125425481e+02  -1.839677444870e+02   3.906133644331e+01 
6 1  2.742135260592e+02   1.867393921649e+02  -1.404023320359e+02 
7 1  3.997221530596e+02  -3.909138267831e+01  -1.557210720091e+02 
8 1 -2.286058498995e+01  -4.554274895370e+01   1.462925402197e+02 
8
Step 53000
1 1 -1.796925919251e+02   1.201611436742e+02   2.830337826022e+02 
2 1 -4.370897816365e+00   2.027688527833e+02  -6.697286704190e+01 
3 1  2.378119381294e+02  -4.246536849220e+00  -1.684112703252e+02 
4 1  1.378146699198e+02   9.637372064786e+01   9.116489049953e+01 
5 1 -2.515431273191e+02  -1.867229439022e+02   2.508126930745e+01 
6 1  1.256478330754e+02   1.788193693893e+02  -2.553685895186e+02 
7 1  2.864714044158e+02   6.389445480142e+01  -9.782415203532e+01 
8 1 -5.850280695312e+00  -2.278578384759e+02   1.778038434464e+02 
8
Step 54000
1 1 -1.631132772565e+02  -9.086152636468e+01   1.530606210846e+01 
2 1 -1.202015137090e+02   8.787945464180e+01  -1.475215673361e+02 
3 1  3.840754187028e+02  -7.546099063602e+01   4.291860381570e+01 
4 1  1.239748879673e+02  -1.051609412387e+02  -1.073607879038e+02 
5 1 -1.095679524039e+02  -1.275864550205e+02  -4.934580734677e+00 