8
Step 0
1 1  2.847717345077e+02  -8.552029749664e+01  -1.276140599868e+02 
2 1 -2.317894074601e+02  -2.539882721922e+02   2.346897676519e+02 
3 1 -2.350098000602e+02  -1.307547283285e+02   2.635093922833e+02 
4 1 -1.692987193033e+02  -9.529920617174e+00   1.964631093627e+02 
5 1  2.323091173866e+02  -1.435322582653e+02   1.693901807588e+02 
6 1  4.654235617470e+02   5.104319094571e+02  -1.674137158823e+02 
7 1  1.922295072350e+01  -2.024048829196e+02  -3.903721119857e+01 
8 1 -7.246404150530e+01  -2.529581708650e+02   3.047554722872e+02 
8
Step 1000
1 1  4.096635833387e+02  -2.416538063066e+02  -8.159540461531e+01 
2 1  3.143805405197e+01  -4.898663331077e+02  -2.624020401766e+01 
3 1 -3.150878163737e+02   1.020736872911e+02   2.202425717101e+02 
4 1 -1.985004326660e+02   9.347634658554e+00  -7.942865723446e+01 
5 1  1.807684887873e+02  -6.050106704621e+01   2.749221064855e+02 
6 1  4.164990090724e+02   2.072451416709e+02   8.906874302872e+01 
7 1 -1.113373911314e+02  -2.539909241635e+02   1.209743228150e+02 
8 1 -8.046001244986e+01  -4.386593229770e+02   1.681855561391e+01 
8
Step 2000
1 1  3.812886815643e+02  -2.957791901058e+02   2.013037361206e+01 
2 1  2.715224212250e+02  -4.932849998261e+02  -2.906069188865e+02 
3 1 -3.066299836930e+02   2.926115894718e+02   7.817448862551e+01 
4 1 -1.851746484706e+02   2.972184314295e+01  -3.060641383477e+02 
5 1  3.611360004727e+01   4.640755078790e+01   2.426422829232e+02 
6 1  2.057382808570e+02  -1.115769465044e+02   2.953698386879e+02 
7 1 -1.757079907983e+02  -2.018628088941e+02   2.502201783796e+02 
8 1 -7.238620215411e+01  -4.669384848437e+02  -2.770009577216e+02 
8
Step 3000
1 1  1.966638394311e+02  -2.410456735641e+02   1.291391225250e+02 
2 1  3.431455053421e+02  -2.316731225261e+02  -4.228954595601e+02 
3 1 -2.058011585611e+02   3.793759725260e+02  -7.748900669465e+01 
4 1 -1.430162763102e+02   5.601471473251e+01  -4.005681742932e+02 
5 1 -1.348650016773e+02   8.465117431366e+01   9.079429377671e+01 
6 1 -8.118251360453e+01  -3.110687707351e+02   3.792704522823e+02 
7 1 -1.577512659201e+02  -6.818175480183e+01   3.120624105699e+02 
8 1 -7.439957297077e+01  -2.949535902654e+02  -4.208371217806e+02 
8
Step 4000
1 1 -6.776310427254e+01  -1.067425044645e+02   1.856857152619e+02 
2 1  2.251935152425e+02   1.299899000236e+02  -3.629202738733e+02 
3 1 -4.469452830050e+01   3.379464423689e+02  -1.693507366577e+02 
4 1 -7.967831135614e+01   8.161020091552e+01  -3.387800750905e+02 
5 1 -2.821655132930e+02   3.796843517385e+01  -8.881981791591e+01 
6 1 -3.331995159735e+02  -3.290924767390e+02   3.223190884880e+02 
7 1 -8.539993628935e+01   8.605412665067e+01   2.878850075981e+02 
8 1 -6.546995487026e+01  -2.512940221070e+01  -3.652503218102e+02 
8
Step 5000
1 1 -3.084812568280e+02   2.553603487330e+01   1.841089856597e+02 
2 1  1.963920171723e+01   4.009075813825e+02  -1.820277852671e+02 
3 1  1.222236846033e+02   1.953585339123e+02  -1.648521196040e+02 
4 1  3.504010591950e+00   8.900787490843e+01  -1.731486606834e+02 
5 1 -3.581335315361e+02  -3.392746992343e+01  -2.130305011922e+02 
6 1 -4.460120557017e+02  -2.018385180673e+02   1.696760260528e+02 
7 1 -7.988092392974e+00   1.974439208042e+02   1.819109809436e+02 
8 1 -2.376893935132e+01   1.923771051913e+02  -1.737630613730e+02 
8
Step 6000
1 1 -4.216614028003e+02   8.727023665548e+01   1.161781468955e+02 
2 1 -1.565016898520e+02   4.730316931642e+02   2.365149063504e+01 
3 1  2.444291889143e+02   8.600396756660e+00  -7.978189785501e+01 
4 1  9.969421721026e+01   6.052205610855e+01   1.047458261374e+01 
5 1 -2.946548940133e+02  -9.363757358167e+01  -2.430133795082e+02 
6 1 -3.939145004621e+02  -3.829440690538e+01   6.741959033327e+00 
7 1  3.828995194048e+01   2.296812917392e+02   2.019975798952e+01 
8 1  2.348726193556e+01   3.047639359648e+02   6.184577960031e+01 
8
Step 7000
1 1 -3.465932450258e+02   7.777450431053e+01  -2.133805094637e+01 
2 1 -2.340809074077e+02   3.291867228541e+02   1.880963999579e+02 
3 1  2.866481689795e+02  -1.599024246918e+02   2.739181770815e+01 
4 1  1.898960968671e+02  -8.650006664928e+00   1.424119673447e+02 
5 1 -1.102244135266e+02  -9.783336147288e+01  -1.607810771816e+02 
6 1 -2.278871748030e+02   6.938674432769e+01  -1.039363178748e+02 
7 1  3.897244615462e+01   1.856339760391e+02  -1.521051265131e+02 
8 1  7.775697311231e+01   2.882017670179e+02   2.381599556002e+02 
8
Step 8000
1 1 -1.286815418595e+02   3.014774912676e+01  -1.609577670029e+02 
2 1 -1.978557688079e+02   5.562586590039e+01   2.670920151354e+02 
3 1  2.357577670493e+02  -2.617490633819e+02   8.834110001308e+01 
4 1  2.411348187200e+02  -1.016553838911e+02   1.882854688816e+02 
5 1  1.171136295192e+02  -2.741654225414e+01  -1.472640559909e+01 
6 1 -1.652426746091e+01   9.018580410611e+01  -1.462436987196e+02 
7 1  9.849552817994e+00   9.871847155772e+01  -2.840801091506e+02 
8 1  1.312623500200e+02   1.687211912137e+02   2.990075839078e+02 
8
Step 9000
1 1  1.160472497394e+02  -2.067991912982e+01  -2.147425203598e+02 
2 1 -7.338678006947e+01  -2.172081894822e+02   2.505878983162e+02 
3 1  1.111196032955e+02  -2.670145652285e+02   7.455426948675e+01 
4 1  2.191899881997e+02  -1.809869632035e+02   1.522739140621e+02 
5 1  3.138848608664e+02   7.987320400851e+01   1.255053161716e+02 
6 1  1.798750714775e+02   4.042046255023e+01  -1.325992117998e+02 
7 1 -1.154417689505e+01   5.695225241062e+00  -3.331868967667e+02 
8 1  1.491689183361e+02   2.862767577368e+01   2.364720386320e+02 
8
Step 10000
1 1  2.808554108940e+02  -2.553636474822e+01  -1.696434855260e+02 
2 1  7.589032437182e+01  -3.771950256337e+02   1.688587849001e+02 
3 1 -3.558493197055e+01  -1.848061003881e+02   7.685980837515e+00 
4 1  1.117794228686e+02  -2.075957165063e+02   7.534203055120e+01 
5 1  4.000206176548e+02   1.744753852316e+02   2.138300032988e+02 
6 1  3.074342023256e+02  -4.058445762529e+01  -9.025368077661e+01 
7 1  5.174471279618e+00  -7.096639004621e+01  -2.785955689091e+02 
8 1  1.181780768072e+02  -7.729993411186e+01   9.382300001179e+01 
8
Step 11000
1 1  3.018726177936e+02   3.827505904827e+01  -6.288314665307e+01 
2 1  1.703111719766e+02  -3.580181701799e+02   6.717261396324e+01 
3 1 -1.443182473601e+02  -6.108787733601e+01  -7.001077194686e+01 
4 1 -6.014325049878e+01  -1.562046172881e+02   6.584223579525e+00 
5 1  3.234226507608e+02   2.052363333496e+02   2.173896448404e+02 
6 1  3.264080014199e+02  -1.019177727153e+02  -5.011038242221e+01 
7 1  5.952940110863e+01  -1.238590466541e+02  -1.291611555730e+02 
8 1  5.093971405671e+01  -1.329113015443e+02  -5.608911164204e+01 
8
Step 12000
1 1  1.753370088534e+02   1.277622230119e+02   7.398967022688e+01 
2 1  1.732561698630e+02  -1.709888579005e+02  -3.143883002400e+01 
3 1 -1.774226428608e+02   5.108715657158e+01  -1.152315015466e+02 
4 1 -2.506321286209e+02  -2.138932812508e+01  -2.506156212721e+01 
5 1  1.216484721614e+02   1.374516669433e+02   1.359133385061e+02 
6 1  2.336135352825e+02  -1.020626887537e+02  -3.552806644126e+01 
7 1  1.286945161380e+02  -1.579029009517e+02   7.565335624060e+01 
8 1 -4.011645715093e+01  -1.296751962332e+02  -1.584178323768e+02 
8
Step 13000
1 1 -2.241139336020e+01   1.884212159206e+02   1.793392890023e+02 
2 1  1.035868325379e+02   9.100312224042e+01  -1.098066906250e+02 
3 1 -1.335275153690e+02   1.135188437271e+02  -9.682945532135e+01 
4 1 -3.916014662146e+02   1.723392748994e+02  -1.581897769452e+01 
5 1 -1.235243492588e+02  -5.583107726188e+00   1.627247614290e+01 
6 1  6.873949720642e+01  -3.286668208284e+01  -4.933681620432e+01 
7 1  1.748411687175e+02  -1.771460634509e+02   2.787454694087e+02 
8 1 -1.331799290947e+02  -9.074776615697e+01  -1.935758252519e+02 
8
Step 14000
1 1 -1.793345771591e+02   1.829047432448e+02   1.867845014044e+02 
2 1 -5.658269499607e+00   3.052358090077e+02  -1.481285497001e+02 
3 1 -4.455774423703e+01   1.169927145235e+02  -1.916726017465e+01 
4 1 -3.914523193358e+02   3.487177256679e+02   1.651561023461e+01 
5 1 -3.346040210560e+02  -1.723481985736e+02  -1.028225589040e+02 
6 1 -1.060513997202e+02   7.969155834458e+01  -6.975608530910e+01 
7 1  1.520318072401e+02  -1.675132417149e+02   4.027361187440e+02 
8 1 -1.896529163004e+02  -4.755574812559e+01  -1.539460255986e+02 
8
Step 15000
1 1 -2.264406282112e+02   8.882915676775e+01   1.050541102457e+02 
2 1 -1.070302355433e+02   3.739700113491e+02  -1.517758897419e+02 
3 1  4.236324320233e+01   8.044462028198e+01   7.925458857310e+01 
4 1 -2.013082061276e+02   4.008066062825e+02   3.643733121966e+01 
5 1 -4.180562155793e+02  -3.011091699706e+02  -1.877333610323e+02 
6 1 -2.290142933485e+02   1.904417069268e+02  -6.349680231828e+01 
7 1  3.879819929408e+01  -1.088450475891e+02   3.737109223930e+02 
8 1 -1.838593445888e+02  -9.262581289541e+00  -6.114154933071e+01 
8
Step 16000
1 1 -1.567362789561e+02  -7.185905353329e+01  -1.169443693876e+01 
2 1 -1.512388979118e+02   2.669359115340e+02  -1.347576931848e+02 
3 1  8.514477899806e+01   3.442158331607e+01   1.560071118978e+02 
4 1  1.103519958553e+02   2.768900405909e+02   1.577796791700e+01 
5 1 -3.157525141424e+02  -3.093048430679e+02  -1.966209087187e+02 
6 1 -2.551106963029e+02   2.428805166439e+02  -8.678830417966e+00 
7 1 -1.303838013876e+02  -1.227887728260e+00   1.863536453884e+02 
8 1 -1.116943987750e+02   1.778165076988e+01   3.543801885246e+01 
8
Step 17000
1 1 -5.475475664145e-01  -2.365472496188e+02  -1.253323274003e+02 
2 1 -1.209497005215e+02   4.419150473670e+01  -9.609066589821e+01 
3 1  6.379833384694e+01   7.515839045499e+00   1.860682810767e+02 
4 1  4.034848011654e+02   1.157662810543e+01  -4.300357535250e+01 
5 1 -8.306749902052e+01  -1.711532249839e+02  -1.337236803440e+02 
6 1 -1.798112086137e+02   1.973122450689e+02   9.149987950794e+01 
7 1 -2.854697950972e+02   1.325723307901e+02  -8.513299949033e+01 
8 1  4.978146169174e+00   3.112434177738e+01   9.756818812060e+01 
8
Step 18000
1 1  1.689786236669e+02  -3.379851860485e+02  -1.883728984541e+02 
2 1 -4.423209742027e+01  -1.877777306701e+02  -3.480364291112e+01 
3 1 -5.853214202311e+00   1.056375088969e+01   1.510022685610e+02 
4 1  5.344604672219e+02  -2.896789384710e+02  -1.083728897080e+02 
5 1  1.667937191928e+02   5.064067946867e+01  -4.366580548067e+01 
6 1 -4.480680795508e+01   6.042313164648e+01   2.019593791723e+02 
7 1 -3.474963975348e+02   2.517524274241e+02  -3.237586937842e+02 
8 1  1.312956198846e+02   4.752260555202e+01   1.104753731442e+02 
8
Step 19000
1 1  2.571761338040e+02  -3.199272555249e+02  -1.581707879991e+02 
2 1  3.795487188814e+01  -3.331608827589e+02   3.445184556820e+01 
3 1 -8.521595932118e+01   3.025425232771e+01   4.908678106451e+01 
4 1  4.170503125148e+02  -4.724145731003e+02  -1.321921091433e+02 
5 1  3.392149961742e+02   2.746433733562e+02   4.751665980250e+01 
6 1  8.708418379013e+01  -1.232975354739e+02   2.674576232745e+02 
7 1 -2.625495308523e+02   2.999023558366e+02  -4.119136936099e+02 
8 1  2.209385408672e+02   6.965277554314e+01   7.627523637462e+01 
8
Step 20000
1 1  2.194239083665e+02  -1.726980023250e+02  -5.532635492201e+01 
2 1  9.457814331816e+01  -3.279936473600e+02   1.013191625047e+02 
3 1 -1.317162188983e+02   4.328066347297e+01  -9.052115415721e+01 
4 1  1.113534497149e+02  -4.419046848995e+02  -8.867800944118e+01 
5 1  3.539492782425e+02   4.050396674265e+02   1.131927739953e+02 
6 1  1.586467185698e+02  -2.879056368745e+02   2.409884718122e+02 
7 1 -5.992439049985e+01   2.447083658341e+02  -3.146166834928e+02 
8 1  2.363030008961e+02   8.074035177229e+01   2.623848161632e+01 
8
Step 21000
1 1  7.587687463236e+01   4.681690237753e+01   6.716256655927e+01 
2 1  1.088722926859e+02  -1.748179424399e+02   1.513865886582e+02 
3 1 -1.131840338512e+02   3.038619522944e+01  -2.159935082139e+02 
4 1 -2.133722484694e+02  -2.357443239350e+02   1.004748850557e+00 
5 1  2.044769898711e+02   3.575687776700e+02   1.296491144506e+02 
6 1  1.411853172186e+02  -3.579784061143e+02   1.132864585457e+02 
7 1  1.658890021022e+02   1.053349717891e+02  -1.007160679596e+02 
8 1  1.638581366351e+02   7.109908706572e+01  -1.062332298940e+01 
8
Step 22000
1 1 -1.179065634182e+02   2.558513362919e+02   1.634923719947e+02 
2 1  7.766105358990e+01   4.189932059136e+01   1.667194138472e+02 
3 1 -2.494817069645e+01  -1.288110277248e+01  -2.811659816100e+02 
4 1 -4.073558373440e+02   4.151085313661e+01   9.250530857396e+01 
5 1 -1.553942087035e+01   1.526807742651e+02   1.096703282183e+02 
6 1  5.269918984216e+01  -2.936755127890e+02  -7.512600034208e+01 
7 1  3.252307134734e+02  -7.185747400162e+01   1.192854906080e+02 
8 1  2.841183865061e+01   3.709260712328e+01  -1.919588649307e+01 
8
Step 23000
1 1 -2.746182263698e+02   3.764465225109e+02   1.867300086091e+02 
2 1  1.941325670577e+01   2.175884223117e+02   1.393519787037e+02 
3 1  9.685678938063e+01  -6.917675026130e+01  -2.551040532556e+02 
4 1 -3.946643936980e+02   2.671421441498e+02   1.403793661530e+02 
5 1 -1.954269463206e+02  -1.122663685998e+02   7.917427453212e+01 
6 1 -5.200226570205e+01  -1.181593583053e+02  -2.526697508517e+02 
7 1  3.544662479076e+02  -2.293209521779e+02   2.420823426850e+02 
8 1 -1.230838940945e+02  -2.258183679825e+01   4.840965029549e+00 
8
Step 24000
1 1 -3.076406392449e+02   3.532098462429e+02   1.179013730524e+02 
2 1 -3.806986411434e+01   2.905128653574e+02   7.650698170847e+01 
3 1  1.990505699163e+02  -1.092999082603e+02  -1.323670413387e+02 
4 1 -2.046910531591e+02   3.467158405621e+02   1.191976726252e+02 
5 1 -2.648529400261e+02  -3.379396154703e+02   4.557697677090e+01 
6 1 -1.149974531667e+02   1.052221080600e+02  -3.507020590316e+02 
7 1  2.423882982939e+02  -3.069132864235e+02   2.200589455066e+02 
8 1 -2.392619442406e+02  -9.387451735430e+01   3.779436296064e+01 
8
Step 25000
1 1 -2.037085087555e+02   2.013155522863e+02  -8.664548253916e-01 
2 1 -7.392076687744e+01   2.396504896209e+02  -9.876856953533e+00 
3 1  2.363135468361e+02  -1.117937300783e+02   5.263639784242e+01 
4 1  4.526443190333e+01   2.747925160083e+02   4.266427895760e+01 
5 1 -1.995647964043e+02  -4.282666794129e+02   1.330862198717e+01 
6 1 -1.006952251903e+02   2.962607109519e+02  -3.289630243502e+02 
7 1  5.103061442647e+01  -2.774716814750e+02   9.291371129911e+01 
8 1 -2.765324905217e+02  -1.430664349263e+02   3.772925904282e+01 
8
Step 26000
1 1 -2.278634349147e+01   1.523142537295e+00  -1.068688923878e+02 
2 1 -8.013269669837e+01   8.684091782704e+01  -9.956341285706e+01 
3 1  1.868239594704e+02  -7.085998664501e+01   2.347097799787e+02 
4 1  2.305790515663e+02   1.112452350844e+02  -4.687467730486e+01 
5 1 -4.320997868716e+01  -3.331848417136e+02  -2.000084158906e+01 
6 1 -1.494388053094e+01   3.769287625723e+02  -1.964842710196e+02 
7 1 -1.284620711766e+02  -1.585854718236e+02  -5.300159579786e+01 
8 1 -2.132660702868e+02  -1.366411902122e+02  -9.694218713542e+00 
8
Step 27000
1 1  1.565988322718e+02  -1.624840017355e+02  -1.566321691806e+02 
2 1 -5.929207156313e+01  -9.079021558342e+01  -1.680272554570e+02 
3 1  6.441553976017e+01  -2.639105762225e+00   3.451063250715e+02 
4 1  2.753511536963e+02  -6.260878946853e+01  -1.027896994228e+02 
5 1  1.146618016448e+02  -1.031997554241e+02  -6.229672131918e+01 
6 1  9.511918654482e+01   3.159532836240e+02  -1.012442257248e+01 
7 1 -2.265616858675e+02   3.757475413427e+00  -1.327935317331e+02 
8 1 -7.056120991586e+01  -7.092825435293e+01  -9.047639043258e+01 
8
Step 28000
1 1  2.620747759690e+02  -2.418399640604e+02  -1.280988339202e+02 
2 1 -2.208651966920e+01  -2.078802175839e+02  -1.967156778836e+02 
3 1 -8.283151280665e+01   5.837260712859e+01   3.416298494032e+02 
4 1  1.751573587987e+02  -1.712944695766e+02  -9.692420809765e+01 
5 1  1.986588191659e+02   1.579231742306e+02  -1.107715993537e+02 
6 1  1.681058799983e+02   1.510556467338e+02   1.551341883495e+02 
7 1 -2.159282350969e+02   1.502040681673e+02  -1.014229789123e+02 
8 1  9.950105892003e+01   3.243604794024e+01  -1.732446170314e+02 
8
Step 29000
1 1  2.513387350639e+02  -2.301416981148e+02  -3.374142514800e+01 
2 1  2.254387709213e+01  -2.279189870581e+02  -1.788793720920e+02 
3 1 -2.019082667261e+02   8.576660881158e+01   2.238002004440e+02 
4 1 -5.261878832512e+00  -1.785897282585e+02  -3.236841412115e+01 
5 1  1.737468462009e+02   3.501114480984e+02  -1.455041468152e+02 
6 1  1.626801998062e+02  -4.488683209605e+01   2.498620448094e+02 
7 1 -1.197221373485e+02   2.294925454715e+02   1.763822227863e+01 
8 1  2.391738899594e+02   1.368827342889e+02  -2.123546060891e+02 
8
Step 30000
1 1  1.410375512158e+02  -1.593797060772e+02   7.500979064868e+01 
2 1  6.597257820154e+01  -1.600730538540e+02  -1.144567866991e+02 
3 1 -2.572218318310e+02   7.469441710928e+01   3.282753593233e+01 
4 1 -1.704007771640e+02  -9.864157144851e+01   6.009362683701e+01 
5 1  5.427317652624e+01   3.992928691853e+02  -1.445615608209e+02 
6 1  7.744200603248e+01  -2.048749936716e+02   2.608803879338e+02 
7 1  3.576257455417e+00   2.175732372289e+02   1.502128395801e+02 
8 1  2.966667844235e+02   1.936347875901e+02  -1.651411895100e+02 
8
Step 31000
1 1 -4.795692427491e+00  -7.267181085664e+01   1.349241992338e+02 
2 1  9.253882597605e+01  -2.301858276876e+01  -9.917012266545e+00 
3 1 -2.388340130142e+02   3.936655951290e+01  -1.669491945976e+02 
4 1 -2.379007874979e+02   1.799965637509e+01   1.311290347329e+02 
5 1 -9.329764276220e+01   2.826087412714e+02  -9.376663118838e+01 
6 1 -5.337458944384e+01  -2.818331939314e+02   2.034980776762e+02 
7 1  8.995567993984e+01   1.253486859036e+02   2.102684438944e+02 
8 1  2.522067707479e+02   1.543288615929e+02  -1.818170681830e+01 
8
Step 32000
1 1 -1.148066065158e+02  -1.102431807394e+01   1.129109545620e+02 
2 1  9.372413483201e+01   1.301358415647e+02   1.137943588556e+02 
3 1 -1.597281313307e+02   5.388651417592e+00  -3.091628527819e+02 
4 1 -1.772231108103e+02   1.077535536997e+02   1.346474142759e+02 
5 1 -1.935505482645e+02   5.761383088240e+01   2.740226093432e+00 
6 1 -1.767850009594e+02  -2.553539800919e+02   1.095683250808e+02 
7 1  1.000698002456e+02  -1.075056084496e+00   1.467738955135e+02 
8 1  1.261123650887e+02   2.885862749259e+01   1.912832006656e+02 
8
Step 33000
1 1 -1.485592890829e+02   1.441256821899e+01   1.977281884538e+01 
2 1  6.801830431504e+01   2.224773271166e+02   2.187282283862e+02 
3 1 -4.795362847949e+01  -3.357977487280e+00  -3.470291589662e+02 
4 1 -2.525117895195e+01   1.280165248365e+02   5.728802901957e+01 
5 1 -2.048378844175e+02  -1.749102907559e+02   1.230620215972e+02 
6 1 -2.412093394993e+02  -1.513265000099e+02   1.920702836091e+01 
7 1  3.859656740970e+01  -1.060559986805e+02  -2.302569646894e+01 
8 1 -3.797534314754e+01  -1.197993473923e+02   3.740578638138e+02 
8
Step 34000
1 1 -1.089404151662e+02   2.976908258668e+01  -1.009532634244e+02 
2 1  7.601476392540e+00   2.129400188595e+02   2.647944497290e+02 
3 1  6.684660772683e+01   1.493605790464e+01  -2.739507970581e+02 
4 1  1.438011726619e+02   6.783369475572e+01  -7.460580022678e+01 
5 1 -1.252123819304e+02  -3.255007237447e+02   2.175308903770e+02 
6 1 -2.213016592853e+02  -2.266017685234e+01  -4.449615308878e+01 
7 1 -5.555890161885e+01  -1.498286250273e+02  -2.286953381520e+02 
8 1 -1.805733069306e+02  -2.157086458340e+02   4.428815946556e+02 
8
Step 35000
1 1 -3.266510636099e+01   6.845808932227e+01  -1.903604547791e+02 
2 1 -8.318199693416e+01   1.237013619818e+02   2.318820764245e+02 
3 1  1.601537041139e+02   4.393029019871e+01  -1.240740149311e+02 
4 1  2.502278466441e+02  -4.910971017410e+01  -2.041028091940e+02 
5 1  2.592830820376e+01  -3.556478261345e+02   2.436826757850e+02 
6 1 -1.275940458939e+02   8.318601628940e+01  -8.728648678703e+01 
7 1 -1.291868182745e+02  -1.117977881969e+02  -3.752248814581e+02 
8 1 -2.523521947637e+02  -1.994423597992e+02   3.492207333995e+02 
8
Step 36000
1 1  2.840359052967e+01   1.265040560266e+02  -1.852843788422e+02 
2 1 -1.535161510451e+02  -1.301078557882e+01   1.215085283520e+02 
3 1  2.200434471895e+02   6.145607144424e+01   4.845725045208e+01 
4 1  2.354283672036e+02  -1.573985475957e+02  -2.602169677722e+02 
5 1  1.847993611837e+02  -2.539140092263e+02   1.951248218821e+02 
6 1  7.685723196182e+00   1.413759273272e+02  -1.223327933655e+02 
7 1 -1.287841848814e+02  -9.698843537862e+00  -3.649337431469e+02 
8 1 -2.490935036088e+02  -6.705302826268e+01   1.001046703098e+02 
8
Step 37000
1 1  3.473220601041e+01   1.754508355489e+02  -6.139996913029e+01 
2 1 -1.635655805212e+02  -1.558124221896e+02  -3.086628964958e+01 
3 1  2.450842011696e+02   4.500902798124e+01   1.900149117951e+02 
4 1  1.060697756438e+02  -1.880550899609e+02  -1.997075077226e+02 
5 1  2.769354768539e+02  -5.013056419675e+01   8.280903785555e+01 
6 1  1.473205516868e+02   1.472766661058e+02  -1.486586324576e+02 
7 1 -3.796367568491e+01   1.000799783267e+02  -1.724597141721e+02 
8 1 -1.854888784381e+02   1.174668503976e+02  -2.279198059496e+02 
8
Step 38000
1 1 -1.349449115550e+01   1.877939884226e+02   1.379165056492e+02 
2 1 -1.232515762240e+02  -2.384605730458e+02  -1.679167651095e+02 
3 1  2.311854958497e+02  -1.210478177377e+01   2.597126595796e+02 
4 1 -6.328344600309e+01  -1.184453538896e+02  -3.573791022877e+01 
5 1  2.713284500202e+02   1.636911630215e+02  -7.790779546489e+01 
6 1  2.521245812443e+02   1.125282933606e+02  -1.610460200333e+02 
7 1  1.135816305089e+02   1.590796874232e+02   1.396197914598e+02 
8 1 -7.543449356783e+01   2.547414843284e+02  -4.988887390092e+02 
8
Step 39000
1 1 -8.450853670102e+01   1.357901322503e+02   3.329697323536e+02 
2 1 -4.560137918906e+01  -2.186499689079e+02  -2.443928953409e+02 
3 1  1.710128242361e+02  -9.567363571627e+01   2.437839020634e+02 
4 1 -1.937335592061e+02   2.116385694744e+01   1.684231322374e+02 
5 1  1.805868810218e+02   2.961030837720e+02  -2.234438295230e+02 
6 1  2.891084330345e+02   6.087085454587e+01  -1.474080393078e+02 
7 1  2.633422153601e+02   1.271247691895e+02   4.490945954433e+02 
8 1  4.534143673026e+01   2.576133426425e+02  -5.920289835164e+02 
8
Step 40000
1 1 -1.296409335122e+02   6.031100942999e+00   4.317440117219e+02 
2 1  8.642392753255e+01  -1.324857573773e+02  -2.527081202279e+02 
3 1  5.854513282018e+01  -1.722449426633e+02   1.605918578148e+02 
4 1 -2.372840790598e+02   1.718573172383e+02   3.257586882161e+02 
5 1 -2.352632674480e+00   3.179874135313e+02  -2.927575001093e+02 
6 1  2.459082757272e+02   1.409989330800e+01  -9.079044226543e+01 
7 1  3.286316463236e+02  -1.645570871314e+00   5.933358425400e+02 
8 1  1.434035907450e+02   1.182706372091e+02  -4.660063531685e+02 
8
Step 41000
1 1 -8.835456993606e+01  -1.622248124711e+02   3.390315067827e+02 
2 1  2.110572994807e+02  -2.530334450566e+01  -1.927889263344e+02 
3 1 -9.610578919464e+01  -2.100865490229e+02   4.627413506871e+01 
4 1 -1.730648241246e+02   2.646523342242e+02   3.576698958392e+02 
5 1 -2.178544071018e+02   2.212221586989e+02  -2.751235896418e+02 
6 1  1.310524999938e+02  -1.524578013639e+01   8.981266776471e+00 
7 1  2.412085910117e+02  -1.609557961043e+02   4.557611545019e+02 
8 1  2.105623804770e+02  -8.530848892594e+01  -1.710865307344e+02 
8
Step 42000
1 1  4.936529523947e+01  -2.791815467110e+02   4.114991867642e+01 
2 1  2.402617137496e+02   1.009881407682e+02  -8.339761805933e+01 
3 1 -2.698849160586e+02  -1.901283333798e+02  -6.215104714709e+01 
4 1 -2.734228864837e+01   2.380116677491e+02   2.418591323870e+02 
5 1 -3.553946276578e+02   3.807212372532e+01  -1.778472110690e+02 
6 1 -3.010685126842e+01  -3.099839122903e+01   1.246526323209e+02 
7 1  3.705371478429e+01  -2.576381287873e+02   1.056131154848e+02 
8 1  2.267349993500e+02  -2.677157451355e+02   1.833049273333e+02 
8
Step 43000
1 1  2.142219154442e+02  -2.783830067597e+02  -3.379277148862e+02 
2 1  1.830735154631e+02   2.131519380251e+02   3.755821840474e+01 
3 1 -4.318629342464e+02  -9.613843224093e+01  -1.380729284655e+02 
4 1  1.116496695020e+02   9.127721928049e+01   2.922195311785e+01 
5 1 -3.559004325791e+02  -1.305226734519e+02  -2.249030406341e+01 
6 1 -1.997179157517e+02  -4.266822677037e+01   2.169701110024e+02 
7 1 -2.058195463485e+02  -2.444425550872e+02  -2.969223619444e+02 
8 1  1.797854358354e+02  -3.358588248096e+02   4.596403067849e+02 
8
Step 44000
1 1  3.084583975709e+02  -1.455557020163e+02  -6.036150966830e+02 
2 1  8.660526630702e+01   2.621023447440e+02   1.370216594873e+02 
3 1 -5.217916747719e+02   7.410184991517e+01  -1.612823899828e+02 
4 1  1.745068996343e+02  -1.138465073285e+02  -1.901744884112e+02 
5 1 -2.555102760828e+02  -2.091108170236e+02   1.283941902743e+02 
6 1 -3.323679930090e+02  -5.439168650671e+01   2.469732611964e+02 
7 1 -3.873260334551e+02  -1.076284321310e+02  -5.625745735783e+02 
8 1  8.376501328104e+01  -2.392800996235e+02   5.458285354122e+02 
8
Step 45000
1 1  2.648668622065e+02   5.629927833712e+01  -6.096228773470e+02 
2 1 -8.293573921365e+01   2.355473408020e+02   2.044108573251e+02 
3 1 -4.392652548123e+02   2.713957114232e+02  -1.293215753475e+02 
4 1  1.446172243239e+02  -2.782952849444e+02  -3.202833767701e+02 
5 1 -5.781908936379e+01  -1.965039881397e+02   2.348345125256e+02 
6 1 -3.772203862815e+02  -6.779552923031e+01   1.889473253052e+02 
7 1 -4.045198581891e+02   9.413408790694e+01  -5.405497543401e+02 
8 1 -4.384586948517e+01  -3.604423143336e+01   4.283712275599e+02 
8
Step 46000
1 1  8.208304935834e+01   2.109460311589e+02  -3.628476154691e+02 
2 1 -2.522025595364e+02   1.378943953168e+02   2.277969409021e+02 
3 1 -1.539906006528e+02   4.042460191043e+02  -5.908248819472e+01 
4 1  3.717496376599e+01  -3.245940600120e+02  -3.082803430884e+02 
5 1  1.748907862517e+02  -1.166247799461e+02   2.775850489225e+02 
6 1 -3.018547760932e+02  -8.147009470691e+01   5.842488245880e+01 
7 1 -2.583826718568e+02   2.477535472401e+02  -2.752530681460e+02 
8 1 -1.634103228030e+02   1.712007959762e+02   1.846854591091e+02 
8
Step 47000
1 1 -1.600109444572e+02   2.178454296601e+02   2.680181173496e+01 
2 1 -2.994326388664e+02  -2.091616601189e+01   1.960804217597e+02 
3 1  2.453317490885e+02   4.065856530580e+02   3.283993414410e+00 
4 1 -9.086622272650e+01  -2.179840588799e+02  -1.805493561783e+02 
5 1  3.331571507831e+02  -1.394898536142e+01   2.377447855288e+02 
6 1 -1.210351507986e+02  -7.692259042861e+01  -9.237169158678e+01 
7 1 -4.723798691791e+01   2.927712626896e+02   4.563107302891e+01 
8 1 -2.220851975034e+02   3.101251336973e+02  -9.201022396381e+01 
8
Step 48000
1 1 -3.300434946966e+02   8.514700889192e+01   3.717510498495e+02 
2 1 -2.107751205491e+02  -1.924018766351e+02   1.114195805566e+02 
3 1  5.886400603634e+02   2.512086076587e+02   3.908612164898e+01 
4 1 -1.590213895464e+02   1.264564100314e+00  -1.570612976820e+01 
5 1  3.544259862513e+02   5.721100482423e+01   1.296873052586e+02 
6 1  1.125587200761e+02  -4.206109884628e+01  -2.052145402836e+02 
7 1  1.510055883668e+02   2.241081316497e+02   2.860725844554e+02 
8 1 -2.008025625845e+02   3.297727315237e+02  -3.056099572488e+02 
8
Step 49000
1 1 -3.519662807790e+02  -8.850666571766e+01   5.216595505674e+02 
2 1 -4.416175188972e+01  -3.157702981464e+02  -1.537978901912e+01 
3 1  7.211944518720e+02  -2.137118867332e+01   3.783358781647e+01 
4 1 -1.327591406965e+02   2.311461712170e+02   1.055537880173e+02 
5 1  2.496280497892e+02   7.527927421437e+01  -3.453890662878e+00 
6 1  3.325243152053e+02   2.097367273452e+01  -2.348861643195e+02 
7 1  2.868092439531e+02   7.728425971657e+01   3.713663094876e+02 
8 1 -1.175823096516e+02   2.201284482480e+02  -3.794315881464e+02 
8
Step 50000
1 1 -2.333582153527e+02  -1.903919429117e+02   4.546737589749e+02 
2 1  1.435450705585e+02  -3.365994761348e+02  -1.493832423768e+02 
3 1  5.621018490295e+02  -2.739698092591e+02   6.317575064075e+00 
4 1 -2.461777362792e+01   3.606306262230e+02   1.387988550052e+02 
5 1  6.559779008689e+01   5.045091540153e+01  -1.251330745637e+02 
6 1  4.619166646797e+02   9.756570077166e+01  -1.662456043091e+02 
7 1  3.167025899025e+02  -8.532089397941e+01   2.860345560243e+02 
8 1  5.909685076096e+00   3.650406338408e+01  -3.154583094966e+02 
8
Step 51000
1 1 -3.476728857580e+01  -1.667402077762e+02   2.528187348584e+02 
2 1  2.599882972461e+02  -2.304139334851e+02  -2.518914368109e+02 
3 1  2.125948678237e+02  -3.905402413596e+02  -2.332028436426e+01 
4 1  1.153500960155e+02   3.379094639907e+02   1.024105818882e+02 
5 1 -1.308631872834e+02   4.487794557702e+00  -2.019291063501e+02 
6 1  4.328613234433e+02   1.581475345140e+02  -3.277940351390e+01 
7 1  2.420985949328e+02  -2.026095057069e+02   9.777670903291e+01 
8 1  1.218139567282e+02  -1.458832500277e+02  -1.684287436553e+02 
8
Step 52000
1 1  1.706977903769e+02  -2.622357160594e+01   2.905551509454e+00 
2 1  2.405593856578e+02  -3.304279165056e+01  -2.805048804569e+02 
3 1 -1.514215384854e+02  -3.547847546141e+02  -1.431850755913e+01 
4 1  2.022182338702e+02   1.636776231102e+02   4.537659613685e+01 
5 1 -2.619753508615e+02  -2.710809319674e+01  -2.162215172470e+02 
6 1  2.438407911533e+02   1.673828721383e+02   9.736399499125e+01 
7 1  9.962854976735e+01  -2.374736125742e+02  -9.321753070146e+01 
8 1  1.782182477069e+02  -2.629837091658e+02   1.161412621218e+01 
8
Step 53000
1 1  2.947402910656e+02   1.740282299346e+02  -2.011430219733e+02 
2 1  1.002315301470e+02   1.762964712546e+02  -2.153451052707e+02 
3 1 -3.948516029603e+02  -2.184232021288e+02   2.971332690960e+01 
4 1  1.873035042067e+02  -8.996335100410e+01   1.731027879644e+01 
5 1 -2.810237298728e+02  -2.102436269760e+01  -1.707973074748e+02 
6 1 -2.978137085277e+01   1.115644129782e+02   1.570468816037e+02 
7 1 -6.349559622393e+01  -1.839992787310e+02  -2.058003877623e+02 
8 1  1.573076172380e+02  -2.870716299164e+02   1.617928169207e+02 
8
Step 54000
1 1  2.810237964172e+02   3.217804050979e+02  -2.851794385890e+02 
2 1 -8.753284438954e+01   3.173873437727e+02  -8.195899884061e+01 
3 1 -4.534832085473e+02  -4.913194323516e+01   7.868963188666e+01 
4 1  8.125252337228e+01  -3.135052037729e+02   3.985266085985e+01 
5 1 -1.930721571895e+02   1.791145386604e+01  -8.418674652981e+01 