8
Step 0
1 1  6.996693238828e+01   7.469439318030e+01   1.326126063853e+02 
2 1 -1.287408018267e+02  -5.142264762559e+01  -6.605502877963e+01 
3 1  2.212272819704e+02   5.224517838276e+02  -4.933316113084e+02 
4 1 -2.264853518711e+01   3.234507045652e+02  -3.003450626458e+00 
5 1 -3.551410567312e+02   1.756872163687e+02   1.943390465091e+02 
6 1 -1.790506797002e+02   4.296312042446e+02   9.244749381836e+01 
7 1  4.142520312552e+02   7.826418517363e+01   1.229819817333e+02 
8 1  4.523983844474e+02   3.572663025112e+02   1.679448558482e+02 
8
Step 1000
1 1  1.486192511991e+01  -1.162180015622e+02   1.874712088066e+02 
2 1 -2.052888837511e+02   2.486396938704e+02   2.268280249664e+02 
3 1  2.126495590215e+02  -1.334430386860e+02  -4.186314216972e+02 
4 1 -2.468888451922e+02   2.925674016906e+02   4.684757872222e+01 
5 1  9.034115876793e+01   1.243536163477e+02  -1.302724294761e+02 
6 1 -7.689738825821e+01   2.420343841638e+02   1.404044833690e+02 
7 1  2.827766776326e+02   2.352588159824e+02  -1.269420294042e+02 
8 1  4.682346418468e+02   1.377468531392e+02   2.126822645756e+02 
8
Step 2000
1 1 -2.675418357060e+02   1.225748882997e+02   1.008398261029e+02 
2 1 -1.543420998571e+02   2.786363809744e+02  -1.339450606580e+01 
3 1  1.369483367513e+02  -3.135670057059e+02  -2.217211843914e+02 
4 1 -3.338358264263e+02   2.529611519660e+01   1.489064155869e+02 
5 1  1.004851038951e+02   6.516322883484e+01  -1.687344693783e+02 
6 1  9.036804961554e+01  -4.180528699603e+01  -1.039972996961e+02 
7 1  7.784955643396e+00   2.704676271448e+02   3.521678545614e+02 
8 1  5.251420788570e+01   4.444244052649e+02   9.400430225144e+01 
8
Step 3000
1 1  8.092416554229e+01  -3.006043580133e+02   4.101829381871e+02 
2 1 -2.791050251183e+02   5.835329256412e+02  -2.056770708943e+02 
3 1 -8.846213666233e+01   3.966225921445e+02   5.090562606890e+01 
4 1 -4.346055563936e+01  -2.613114231033e+02  -5.253515433988e+01 
5 1 -4.146461523603e+01   1.251971258730e+02  -6.110295253950e+01 
6 1  2.547585614999e+02  -4.316447704843e+02  -1.068515264233e+02 
7 1  2.729082212642e+02   3.173214351593e+02   5.191077204062e+02 
8 1  6.427287809547e+02   1.874399539176e+02  -1.845419483239e+02 
8
Step 4000
1 1 -1.400862382748e+02   4.985496893024e+02   1.233198112472e+02 
2 1 -3.143350972810e+02   2.273752638835e+02   5.976647542732e+01 
3 1 -2.638384096849e+01   1.534020788928e+02   1.411887683786e+02 
4 1  2.220033740097e+01  -4.226677343247e+02  -5.984885796947e+01 
5 1 -3.095832101984e+02  -2.412429218755e+01  -1.179948325205e+02 
6 1 -9.226800699905e+00  -2.214892000451e+02  -4.612741428402e+02 
7 1 -2.745216282944e+02  -1.600384601014e+01   6.473958887067e+01 
8 1  2.189872296159e+02   1.096075336561e+02  -1.700612718228e+02 
8
Step 5000
1 1 -6.970407803873e+01   2.378475418743e+01   2.447966083521e+02 
2 1 -1.679548358221e+02   7.352788761656e+02   2.587002180807e+02 
3 1  3.712737198072e+02  -3.984161691982e+00  -1.170341936403e+02 
4 1 -1.299768309926e+02  -6.099553681326e+01   3.248026614534e+02 
5 1  5.951081459599e+01  -2.169833158699e+02  -3.052059232295e+02 
6 1 -8.307333972146e+00   1.942081004884e+02  -6.393821732336e+02 
7 1  4.401339756251e+02  -2.236804537372e+02   1.351569733310e+02 
8 1  3.032964264744e+02   4.180841008564e+02   5.805958492005e+02 
8
Step 6000
1 1 -3.558192937018e+02   8.605392530979e+01   3.274237129950e+01 
2 1 -5.094021114176e+00   5.042559327339e+02   5.658334774176e+02 
3 1  2.147537948826e+02  -5.108020998001e+02  -1.671919672275e+02 
4 1 -2.062907872396e+02  -4.590734568185e+00  -1.657014494224e+02 
5 1 -2.523422459553e+02  -5.713250113940e+02  -7.420334940814e+02 
6 1 -2.437502548292e+02  -7.112625280608e+01  -1.715359945564e+02 
7 1  7.903691120554e+01  -2.657256379116e+02   8.910309700559e+01 
8 1 -2.520547847700e+02   1.347935766706e+02   1.479194392148e+02 
8
Step 7000
1 1 -4.376638827424e+02   3.587857669718e+02   1.675476058480e+02 
2 1  2.381642631198e+02   5.296956763474e+02  -2.635777481205e+02 
3 1 -8.438933165472e+01  -4.324728723615e+02   5.376705304050e+02 
4 1  1.229818982773e+02  -2.752141504749e+02   9.225448603116e+01 
5 1  2.065375990224e+02   1.668305568728e+01  -4.790764344031e+02 
6 1 -8.232176856629e+01  -9.576376982003e+01  -2.678591603750e+02 
7 1  7.658431952337e+00  -7.336929347744e+01   2.777844367715e+02 
8 1  2.126418983121e+02  -3.069362197127e+02  -6.547623255538e+01 
8
Step 8000
1 1 -3.709144680167e+02   6.206173297625e+02   2.305492768971e+02 
2 1  6.272722451746e+01  -5.413977569225e+01  -5.495220366932e+02 
3 1  1.704983666805e+02  -4.449881063709e+01   4.883534336294e+02 
4 1 -1.730044312992e+02  -7.079873281256e+02   1.471784487559e+02 
5 1  2.156818326789e+02   3.636986938372e+02  -2.529251303582e+02 
6 1  9.898627132861e+01   6.634465177171e+01  -6.336814290587e+02 
7 1  3.552274470377e+02  -1.898073448427e+02   4.000511177792e+02 
8 1  5.217746003670e+02  -4.751594513316e+02  -2.004211369446e+02 
8
Step 9000
1 1 -9.532058412513e+01   2.355150295058e+02   9.105065553884e+01 
2 1 -2.200532306585e+02  -4.014434999463e+02  -1.764319607144e+02 
3 1  2.285301073884e+02   3.383901465996e+01   4.593833586211e+02 
4 1 -4.387631544739e+02  -1.499055384539e+02  -1.287746335595e+02 
5 1 -7.305792986658e+02   4.421183702279e+02  -3.602457928484e+02 
6 1  3.880925134434e+02  -5.269701468381e+01  -1.425645318732e+02 
7 1 -1.434747924125e+02  -2.604900221704e+02  -4.775558528846e+01 
8 1  3.921688108389e+02   1.839304174709e+02   3.315875404112e+02 
8
Step 10000
1 1 -1.703395001793e+02  -1.175671481364e+02   1.441108412518e+01 
2 1 -1.633324766729e+02   3.532373081806e+02  -4.255215572495e+02 
3 1  2.337001392985e+02  -6.070386308746e+02   1.141879758973e+02 
4 1 -7.405674750997e+01   1.440049235161e+02  -2.098085970196e+02 
5 1 -5.495183958251e+02   2.335283286744e+01  -6.649834424781e+01 
6 1  3.879914049278e+02   3.591805065400e+00   2.999358856692e+01 
7 1  2.511568206432e+02  -1.857670542281e+02   1.371893417480e+02 
8 1  4.725092440128e+01   2.830695697489e+02   8.174607818471e+01 
8
Step 11000
1 1 -7.371035521099e+01  -3.401000297742e+02  -2.890657689922e+02 
2 1  8.652680800410e+01  -5.500568474795e+01   1.756457811925e+02 
3 1  6.934275042406e+01  -4.568881262589e+02   7.281352275071e+01 
4 1 -3.305124740039e+02   1.878395614333e+02  -1.226233253610e+02 
5 1 -1.802754186636e+02  -1.079642638646e+02   2.719141999529e+02 
6 1 -3.320904331140e+02  -4.848269475202e+02  -2.724338451629e+02 
7 1  3.628301377312e+02  -2.546323224658e+02   4.444820957855e+02 
8 1  2.162887850275e+02   3.369286559473e+02   3.724661009676e+02 
8
Step 12000
1 1  9.640618730802e-01   6.071649009164e+00  -1.534769881613e+02 
2 1  1.391031256444e+02   4.457473900567e+01  -3.641119869988e+02 
3 1  2.249660930072e+02   1.362129265747e+02  -6.256049483321e+01 
4 1  1.727660927268e+02  -1.937149163849e+02   5.649610688131e+01 
5 1 -1.654065020903e+02   1.838310654019e+02   2.729640145279e+02 
6 1 -1.907369197073e+02  -2.613978237562e+02  -1.352539063177e+02 
7 1  2.682156624766e+02   2.327244601096e+02   2.071596096531e+02 
8 1  8.892338663732e+01   3.159230600158e+02  -5.347070513518e+01 
8
Step 13000
1 1  9.208736386801e+01  -3.370194097897e+02  -1.026176051871e+02 
2 1  7.043276613238e+01   2.076460581264e+00  -6.076322395713e+01 
3 1 -2.189779352966e+02   3.229161490307e+02   4.888983893771e+02 
4 1  2.456181535727e+02  -6.853938000437e+02   1.173980364628e+02 
5 1 -5.224664043313e+02   8.671836406181e+01  -4.928646446270e+01 
6 1 -1.414293303940e+02   7.895278102989e+01   9.515831908540e+00 
7 1 -2.159718423967e+02   2.156665367327e+02   4.250449095233e+02 
8 1 -2.620989252827e+02  -1.030548294325e+02   1.512174131294e+01 
8
Step 14000
1 1 -5.734224889662e+01  -2.866345621318e+02  -2.580835929212e+02 
2 1 -3.003695729925e+02  -2.975284462870e+02  -3.718027028204e+02 
3 1  1.906307819251e+02   1.530033650871e+02   2.533002261589e+02 
4 1  2.050174365834e+02  -2.796071188434e+02  -1.472706842645e+02 
5 1  1.784321992373e+02  -2.161347016433e+02   8.095828088465e+01 
6 1  1.020321092563e+02  -6.382869282630e+01   1.291515503393e+02 
7 1 -4.900291343121e+02   7.424129234881e+02  -1.460692925942e+02 
8 1  2.218147660263e+02  -3.229415641686e+02  -6.585242062238e+01 
8
Step 15000
1 1 -1.518653456356e+02   1.179732046204e+02   3.435347309531e+02 
2 1 -1.698098577436e+02   7.394871626671e+01   2.340661187004e+02 
3 1 -2.888454789944e+01   2.189676128877e+01   5.938204857674e+02 
4 1  3.163785941070e+02   1.777580500211e+02   1.168776676831e+02 
5 1  1.816433859800e+02  -5.411820763367e+02   3.034472761814e+02 
6 1  4.696093535189e+02   3.896727010041e+01   2.667396947099e+02 
7 1  5.667829675569e+00   1.936269249294e+02  -1.228257066110e+02 
8 1 -1.900015182057e+02  -3.407127787997e+02  -2.432051849254e+01 
8
Step 16000
1 1 -9.253185713143e+01   1.598211473398e+02   4.333096580669e+01 
2 1 -1.730057732089e+00  -3.339446252699e+02   4.764804955700e+01 
3 1 -2.624324187682e+02  -8.413197169761e+01   3.562278157197e+02 
4 1  1.974975901573e+02  -1.871947706866e+02  -3.269512401269e+02 
5 1  1.413685477869e+02   1.973435027777e+02   2.407529664011e+02 
6 1  3.741689015195e+02   1.249108254824e+02  -4.328257082496e+02 
7 1  3.666026911569e+02   1.154679300486e+01  -5.336433556573e+01 
8 1 -2.950161331616e+02   4.132799125760e+01  -3.305455014225e+02 
8
Step 17000
1 1  5.748091787125e+01  -2.839515981252e+02   7.621081231729e+02 
2 1  1.354962183219e+02  -2.316041893031e+02   1.538851737318e+02 
3 1 -1.917185280421e+02   2.821604203963e+02   7.480878412354e+01 
4 1  2.569059400598e+02  -3.976978329723e+02   6.679600917998e+02 
5 1 -3.315380484174e+02   3.086410442021e+02   4.308646552260e+02 
6 1  1.204983542715e+02  -4.082919783068e+01  -4.656894735769e+02 
7 1  1.529053787271e+02  -6.572087123521e+01   1.265677132534e+02 
8 1 -1.634739565136e+02  -2.269850249219e+02  -7.860446434827e+01 
8
Step 18000
1 1 -3.297441844676e+02  -4.461694177531e+02   5.573740195871e+02 
2 1 -9.320196565452e+01  -4.284362742709e+02  -1.913824567150e+02 
3 1 -2.107215890908e+02   2.891346832024e+02   1.351714974091e+02 
4 1  1.343055409402e+02  -7.760432977373e+01   5.195812257883e+02 
5 1 -2.380897199551e+02  -1.087838972691e+02  -2.941736146226e+02 
6 1  3.237753275750e+02  -2.727533268115e+02  -5.733289782200e+01 
7 1 -4.828793284967e+01  -1.041627117552e+02   1.631084004027e+02 
8 1  1.475996157319e+02  -3.497531462548e+02  -5.518078766978e+02 
8
Step 19000
1 1 -2.375882913577e+02   8.927273695607e+00   6.593321192167e+02 
2 1  4.386800179427e+01  -1.304639907273e+02   1.346703358945e+02 
3 1  9.065869616466e+01   2.478081006204e+02   2.525726435673e+02 
4 1  5.532103364037e+01   3.077800840970e+02   2.386354902792e+01 
5 1  2.986821269141e+02  -2.401346174596e+02   1.475814289615e+01 
6 1  2.137712172480e+02  -2.383008175748e+02   1.204832274613e+01 
7 1  1.217942380267e+01  -1.358619765578e+02  -5.697278430369e+02 
8 1  3.233924067261e+02  -2.262707539728e+01  -2.594156315921e+02 
8
Step 20000
1 1 -4.519930113305e+02  -3.579712125193e+01   3.801068630626e+02 
2 1 -2.447362268660e+02  -2.999593365127e+02  -1.496771723978e+02 
3 1 -1.368498531107e+02   3.539423021749e+01  -7.721055995127e+01 
4 1  3.153689827568e+02   1.153305570771e+02  -1.571079726724e+02 
5 1 -5.703865338891e+01  -3.284782406286e+02   2.786042397802e+02 
6 1  3.358262701751e+01  -2.267735336962e+00  -2.199319416712e+02 
7 1  9.304135855855e+01  -8.020543478083e+00  -2.502036961483e+02 
8 1 -8.298824754091e+01  -5.880827112687e+02  -3.422816741368e+02 
8
Step 21000
1 1 -4.904425905069e+02   2.151669740370e+02   6.071550962199e+01 
2 1  3.966410701990e+02  -1.842553809773e+01   4.065265876098e+00 
3 1 -1.987916190455e+02   1.395832733292e+01  -1.977857589209e+01 
4 1  6.547890111752e+01  -1.511466834079e+02  -1.090662670279e+02 
5 1  2.153853706930e+02   1.740757371205e+02  -3.092100314363e+01 
6 1  4.245242152865e+02   1.267088578173e+02  -2.297801452941e+02 
7 1 -5.761398238541e+01   2.958843406126e+01  -2.900441939472e+02 
8 1 -4.011990975629e+02  -3.986305427073e+02   7.619183832194e+01 
8
Step 22000
1 1 -5.781462581323e+02   1.292021240837e+02  -1.059045039960e+01 
2 1  2.667860248714e+02   2.835045729352e+02  -1.271330579558e+02 
3 1 -1.694887553963e+02   2.910568678609e+02   2.100676402721e+02 
4 1  6.807496125680e+02   1.238879519497e+02   6.314958731558e+01 
5 1 -2.688465458356e+02   1.863223165787e+02   7.601930738913e+01 
6 1  2.303161975425e+02  -4.207351134491e+02   1.395769806610e+02 
7 1 -2.303559014216e+02  -2.973416600008e+02   7.143299781357e+01 
8 1 -4.054993571659e+02  -2.078742715987e+02  -1.093206115324e+02 
8
Step 23000
1 1 -2.650502925067e+02   4.345485000778e+02  -4.644127029272e+01 
2 1  3.287838816878e+01   4.387707586415e+02   2.314206609134e+02 
3 1  7.791868831877e+01   1.964737522810e+02   2.013702829877e+02 
4 1  2.673805430528e+02   4.354216377691e+02   1.318429004486e+02 
5 1  2.135545646564e+02   3.576157611144e+02  -4.241364099306e+02 
6 1  4.277469427173e+02  -1.643623808445e+02  -3.006133996491e+02 
7 1  3.793388501768e+02  -3.826253297361e+02  -1.464144417328e+02 
8 1  1.657141867507e+02  -3.136626455101e+01  -2.802615682157e+02 
8
Step 24000
1 1 -6.102817979029e+02   7.597303491129e+01  -3.985270898333e+02 
2 1 -2.512046971114e+01   3.274791078647e+02  -6.422283106321e+01 
3 1  2.032099750514e+02  -1.834717005524e+02  -1.566283537873e+02 
4 1 -5.407576357521e+01   3.409379789277e+02  -1.566376526785e+02 
5 1  5.424563616875e+01  -1.357461883266e+02   2.830760897040e+01 
6 1 -2.401107254496e+02  -1.023902154418e+02   5.781831668770e+01 
7 1 -1.517329980345e+02  -3.020986693439e+02   1.714550817823e+02 
8 1 -3.855971404746e+02  -4.523446162629e+02   8.027055095268e+01 
8
Step 25000
1 1 -6.015880436184e+02  -1.993685297109e+01  -4.745928169746e+02 
2 1  2.642223086659e+01   1.557965695690e+02   1.517664220433e+02 
3 1  4.235376216748e+02  -1.711588688901e+02  -2.152798539984e+02 
4 1  1.027355373559e+02   1.955316187151e+02   1.120608132821e+00 
5 1 -1.928812407174e+02   1.296609272935e+02   4.146764120118e+02 
6 1  1.340043012131e+02   3.071307045471e+02  -5.368970647622e+02 
7 1  1.265586564077e+02   2.281153618074e+02  -1.550036381760e+02 
8 1  1.750201014175e+02  -1.633590388494e+02  -1.292931074642e+02 
8
Step 26000
1 1 -1.034895628731e+02   4.913960604429e+01  -4.352871619392e+01 
2 1  2.672539527171e+01   2.962866941315e+02   3.606304526069e+01 
3 1 -6.418833049188e+00   1.441789287355e+02  -5.977512370042e+02 
4 1  2.910924804455e+02  -1.776627459287e+02   3.958398198995e+01 
5 1 -1.438512290789e+02   1.936632221951e+02   3.635182111118e+01 
6 1  2.882843273704e+02   2.254322104142e+02   5.201985355455e+01 
7 1  6.288926419547e+01   8.332766349392e+01   5.864442577868e+01 
8 1 -1.192588673806e+02  -3.076087507115e+02  -3.368778872199e+02 
8
Step 27000
1 1 -1.289085974518e+02   1.993415453502e+02  -1.855074733277e+01 
2 1 -2.329923208784e+02   2.157150645202e+02  -1.933772799189e+02 
3 1 -3.969451430592e+01   3.123863595632e+02  -2.870723756448e+02 
4 1  1.969183022881e+02   1.581197614442e+02  -2.123929494334e+02 
5 1  2.578534700242e+02   1.366303661585e+02   6.477650885544e+01 
6 1  4.469396562224e+02   6.353476136922e+01   2.451462298680e+02 
7 1 -3.409800217451e+01  -1.526195999743e+02  -1.669755075119e+02 
8 1 -2.533567074120e+02  -1.215099050996e+02  -2.621057918028e+02 
8
Step 28000
1 1  2.650150928711e+02   7.281417349517e+00  -6.011614889828e+01 
2 1 -3.060047275769e+02  -1.072289495657e+02  -6.444843124822e+01 
3 1 -4.556734483554e+02  -5.507129263873e+02  -1.665531195407e+02 
4 1 -2.278730471904e+02  -3.213108395871e+02  -1.140543693365e+02 
5 1 -7.838203686101e+01   5.220585221925e+02   8.552787025439e+01 
6 1 -5.477869146533e+02  -4.069500735052e+01   2.607734480212e+01 
7 1  3.698816535823e+02   6.429523905787e+02   8.486661698721e+01 
8 1  9.079148226779e+01  -9.766195641915e+01  -1.191144511256e+02 
8
Step 29000
1 1  5.856786055356e+02   6.570709491169e+01  -2.947293867705e+02 
2 1  3.165887238873e+02   6.253535232922e+01   1.519961039443e+02 
3 1 -1.191764195172e+02  -2.578459292685e+02  -4.456493890591e+02 
4 1 -1.258493808534e+01  -3.113790695310e+02   8.628485600375e+01 
5 1 -4.711613043101e+01   3.363560796240e+02   1.263476311160e+02 
6 1  3.217763740679e+01   9.844194501998e+01  -3.399243644044e+02 
7 1  4.874487911615e+01   1.546964650188e+02   3.565253471516e+02 
8 1 -3.886483981293e+02   1.057355446343e+02  -1.146889315691e+02 
8
Step 30000
1 1  9.114278179124e+01  -4.687078979581e+01  -4.067862885387e+01 
2 1  1.263966116271e+02   2.543511265364e+00   2.657614111220e+02 
3 1 -3.538410603845e+02   6.000783571729e+01   3.016508748273e+02 
4 1 -1.900983928872e+02   1.649346302294e+02  -1.228455497893e+02 
5 1 -1.658636910639e+02  -1.853795723032e+02   1.287744975395e+02 
6 1  2.913359440019e+02   3.158113338923e+02  -2.812306684301e+02 
7 1 -8.226807200077e+01  -4.725090557180e+02   3.502170806236e+02 
8 1  1.109589882890e+02   2.723447375488e+02  -1.446953817821e+01 
8
Step 31000
1 1 -2.770874345125e+01   8.959790888867e+01  -3.345450578360e+02 
2 1  9.522889602477e+01   1.283626568742e+02  -2.915045203397e+02 
3 1 -3.244877493248e+02  -2.783141261617e+02   4.232600557287e+02 
4 1 -9.165292937786e+01   9.404514508249e+01  -3.581615075440e+02 
5 1 -5.603872813750e+01  -2.293740640074e+01  -1.332729385115e+02 
6 1  2.390115257552e+02   1.222124380461e+02   3.492210218425e+01 
7 1 -2.164051373335e+02  -3.981376303058e+02  -5.269446637923e+00 
8 1  4.715698762604e+02   6.363330089637e+02  -1.015013491074e+02 
8
Step 32000
1 1  4.846085191117e+02  -2.583240292258e+02  -3.168224650215e+02 
2 1 -4.247636494356e+01  -3.395977845026e+02   2.826150207381e+02 
3 1 -5.250604605740e+02  -3.500334115288e+02   3.061211278869e+02 
4 1 -2.242045826340e+02  -8.041749982089e+01  -3.474503530114e+02 
5 1 -1.102389651961e+02   1.731409856793e+02   8.027398626033e+01 
6 1  4.073210023944e+02  -2.263153350266e+02   3.612233309621e+02 
7 1 -3.093250285003e+01   9.356130664565e+00  -4.589020287191e+01 
8 1 -1.544790605485e+02   2.529499457175e+02  -2.981341997450e+02 
8
Step 33000
1 1  6.636007133728e+01   4.550102234054e+02  -4.799173634179e+01 
2 1 -1.445584346025e+01  -1.805725897883e+02   1.167427775593e+02 
3 1  3.480864842654e+01  -3.347565116208e+02  -3.692324842634e+02 
4 1  1.987901664061e+02  -1.467027988357e+02  -1.958350260830e+02 
5 1  3.876393350043e+02  -1.821647887748e+02   2.686172404207e+01 
6 1 -3.635497302634e+02  -3.466829136830e+02   1.196291987512e+02 
7 1  5.454512188162e+02   3.491520222313e+02   1.957963293432e+02 
8 1 -3.410565164719e+02   8.530261944979e+00  -4.626786391192e+02 
8
Step 34000
1 1  1.271382399493e+02   1.384377276575e+02   4.050543723606e+02 
2 1  3.697729368235e+02  -1.018330249496e+02   5.411378375616e+02 
3 1  9.013291477902e+01   1.532340791404e+02  -2.115955916099e+02 
4 1 -1.404530257330e+02  -3.242648956904e+02   1.331561994177e+02 
5 1  6.058671044658e+02   1.561672461897e+02   2.012289194223e+02 
6 1  1.639935972819e+02   1.640816726960e+02  -1.792902988024e+02 
7 1  4.055826918261e+02  -3.293008024962e+02   1.936971962850e+02 
8 1 -2.787155982120e+00  -1.173751202610e+02  -2.177615699658e+02 
8
Step 35000
1 1 -3.729362574926e+02  -3.835477240512e+01   1.571069627981e+02 
2 1  1.217756487710e+01   1.353405406951e+02   1.981347127015e+01 
3 1 -2.368541018793e+02  -5.187453643400e+02  -2.122158335332e+02 
4 1  1.165514030847e+02  -2.922813611012e+02  -1.761142355509e+02 
5 1  2.404738001401e+01   3.634956040137e+02   2.753552318368e+01 
6 1  2.029040456659e+02   9.515661456637e+01  -6.518388704889e+01 
7 1 -5.982907465423e+02  -6.155160537308e+02  -3.750315623184e+01 
8 1 -3.492366615185e+02   7.566803075069e+01  -6.217218975696e+02 
8
Step 36000
1 1 -1.024586351451e+02   2.321602958976e+02  -2.645549322423e+02 
2 1  3.440374157807e+02   9.998995981356e+01   1.900897068870e+02 
3 1  4.984078535788e+02  -2.845562662829e+02  -3.908435151965e+01 
4 1  6.139573592543e+02  -1.245539012692e+01   6.080998872068e+01 
5 1 -2.127365727818e+02   6.863244418250e+01  -3.955034001606e+01 
6 1  5.958564582462e+02   2.065576375612e+02   1.738179704453e+02 
7 1 -1.681096714548e+02  -4.654753637162e+02   2.114308458551e+02 
8 1 -1.537447205323e+02   1.853308085194e+02  -1.147717988473e+02 
8
Step 37000
1 1 -5.177474642712e+02   3.431312587214e+02  -2.121852337207e+02 
2 1 -1.642410262393e+02  -1.234552861792e+02   1.781493333187e+02 
3 1  5.173007104342e+02   4.556356917444e+02  -7.487454197252e+01 
4 1  4.597101774552e+02  -5.646501539537e+01  -5.050354083592e+01 
5 1 -3.770791764938e+02  -1.877936764262e+02   2.840200834392e+02 
6 1 -6.510004170958e+01  -4.485878403130e+01   7.234238863293e+01 
7 1  2.129282175453e+02  -1.956277804043e+02  -1.923717637259e+02 
8 1 -4.724426589495e+02  -1.280115477730e+02   2.441641027725e+02 
8
Step 38000
1 1 -1.467434437972e+02   4.684908683850e+02  -2.495009234207e+01 
2 1 -4.752556163399e+02   1.537954528319e+01   2.539102553642e+02 
3 1  4.353428559871e+02   1.516067602924e+02  -3.239155099968e+02 
4 1  3.658112847146e+02   5.331533881900e+01  -1.133030090561e+01 
5 1  3.091199454692e+02   4.574620158861e+02   2.783176436890e+02 
6 1 -2.523363604081e+01  -3.702697182586e+02  -4.456069532597e+02 
7 1  1.717074533280e+02  -7.912711699460e+01  -3.617888312853e+02 
8 1 -5.337437034357e+02  -1.967368517151e+02   1.022420177243e+02 
8
Step 39000
1 1 -2.409471139203e+02   7.928330159546e+01   2.503852165840e+02 
2 1 -3.088778033921e+02   4.294304853090e+01   5.666531544534e+01 
3 1  2.692146427879e+02   1.056552523858e+02  -3.782492221022e+02 
4 1  1.741060647291e+02   1.072671909838e+02  -1.779430644975e+02 
5 1 -2.531685262267e+02   2.767383942428e+02   5.121601101939e+01 
6 1 -2.008760954724e+02  -1.487303952422e+02   2.269090275353e+02 
7 1  3.431934841833e+02   1.958084906484e+02   2.006558220718e+02 
8 1 -1.791628447330e+02  -2.422900152586e+02   4.560717713004e+02 
8
Step 40000
1 1  3.229795889473e+02  -7.258256833971e+01   7.440485306112e+01 
2 1 -2.937816568144e+02   5.590686840246e+02  -7.441754050866e+01 
3 1 -2.005290772258e+02  -3.847990829512e+01  -1.410667900183e+02 
4 1  2.351944580601e+02  -2.567770244589e+00  -1.734115920673e+02 
5 1 -2.601314501295e+02   2.380863771228e+02   5.884950764158e+01 
6 1  2.639544800958e+02  -2.687980755111e+02   4.886976292223e+02 
7 1  2.130377270523e+02  -1.203640737478e+02   3.546446194788e+02 
8 1 -1.863875175792e+02  -2.040665137613e+02  -2.179472828768e+02 
8
Step 41000
1 1 -1.335434181644e+02   1.145990143383e+01   1.150122544601e+02 
2 1  2.107402053273e+02   5.598144558170e+02   6.821780510220e+01 
3 1 -2.451369881812e+02  -8.855029348725e+01  -8.530743893966e+01 
4 1  6.516361983714e+00   4.193498971465e+01   3.101967949947e+02 
5 1 -6.116715589257e+02   1.339207947080e+02  -2.317990040725e+01 
6 1  2.498514944039e+02   1.384748540346e+00   5.542917660432e+01 
7 1 -3.709468814783e+01  -2.998159341436e+02   5.084539076763e+02 
8 1 -1.008341902472e+02   1.856226441809e+02   5.184615720005e+02 
8
Step 42000
1 1 -3.571267646209e+01  -6.975713067624e+01   1.780558732649e+02 
2 1  5.476700099636e+01   2.750141638845e+02   2.656014395858e+02 
3 1  2.278342532377e+02  -7.560614280636e+01  -3.900267340826e+02 
4 1 -3.293210813027e+02   2.310427857080e+02  -3.204470757184e+02 
5 1 -7.485643005517e+02  -3.851710353560e+02  -2.445455194316e+02 
6 1 -1.126621542037e+02   2.753307923935e+01  -6.040810440238e+01 
7 1 -9.188585093756e+01  -1.613403675077e+02   9.313688571281e+01 
8 1 -3.016369016764e+02  -2.285676460997e+02   4.980234966944e+02 
8
Step 43000
1 1  2.265325031913e+02   1.330201652254e+02   1.545853138942e+02 
2 1  2.642580326102e+02  -1.520762133423e+02   5.240652997539e+02 
3 1  1.504392905673e+02   1.524659333817e+02  -5.435841715253e+01 
4 1 -2.253340419761e+02   2.426254503691e+02   3.785597293700e+01 
5 1 -5.031993950502e+02  -8.509105817333e+00   1.419867559612e+02 
6 1 -1.209798786120e+02   4.338596532102e+01  -4.513756559641e+02 
7 1  3.459374528559e+02   2.182936116930e+02   1.516834858883e+01 
8 1 -1.569736978532e+02  -2.200578073137e+02   3.183518866065e+02 
8
Step 44000
1 1  4.813978085414e+01  -6.450113236548e+01  -5.051479441685e+01 
2 1  3.126945936224e+02   1.423485640955e+02   5.322660661660e+01 
3 1 -5.740062819918e+01   9.400738688429e+01  -1.306715250673e+01 
4 1 -4.122000741781e+02  -2.616506487721e+01  -1.567438417767e+02 
5 1 -3.139565957456e+02   2.415019874743e+02  -1.856240935315e-01 
6 1  1.442722342084e+02  -2.052829546201e+02   5.199460235250e+01 
7 1 -2.066079770350e+02   8.934789602315e+01   7.115984252892e+00 
8 1 -3.945867920077e+02  -8.313384285527e+01   5.620857458332e+02 
8
Step 45000
1 1  4.047023833211e+00  -2.006074190104e+02   1.785921157809e+02 
2 1  1.779153750054e+02   4.863735081920e+02   1.484681004719e+02 
3 1 -1.222947467214e+02  -5.888679513057e+01   4.021940936963e+02 
4 1 -2.518608657966e+02  -1.679065015609e+02   9.519340803691e+01 
5 1  4.785072876546e+01   5.428525224577e+01  -3.688898023510e+02 
6 1  1.946440000298e+02   8.467505904258e+01   8.861683889145e+01 
7 1  3.957775969781e+01   3.967632084540e+02  -6.099112960924e+02 
8 1 -9.911789214921e+01  -3.868438338624e+00   4.305346803709e+02 
8
Step 46000
1 1 -2.286379012551e+01  -1.786304716620e+02   1.973763816594e+02 
2 1 -6.724324939735e+01   3.081883093101e+02  -1.395674786987e+02 
3 1 -5.366329625107e+02  -4.179666947018e+02  -3.264836169689e+02 
4 1  1.293250498572e+02   2.126664520921e+00  -3.251677618329e+02 
5 1  1.878322895490e+02   2.238315866141e+02  -8.123774428263e+01 
6 1 -2.008067400316e+02   2.501327735954e+01   2.612269181384e+02 
7 1  2.417779545869e+02   4.687730309900e+01  -5.946799117049e+01 
8 1 -3.297428294763e+02  -3.866418518043e+02   5.391815582142e+01 
8
Step 47000
1 1  3.684448468884e+02   1.585841267855e+02  -3.095854593815e+01 
2 1  3.196908093588e+02  -3.368082114860e+02   2.067641511984e+02 
3 1 -2.859418045049e+02  -2.337196918884e+02  -1.299851107717e+02 
4 1  2.780597518472e+02  -4.974627118441e+02  -1.333561685272e+02 
5 1  8.424910489602e+01  -1.386917721357e+02   2.930943655647e+02 
6 1  1.097969335387e+02  -2.130578678243e+02  -2.150973185110e+02 
7 1  1.944326300840e+02   3.628430857649e+00  -2.399552684437e+01 
8 1 -6.285327228814e+01   5.001152313279e+01  -2.104435255673e+02 
8
Step 48000
1 1  3.428148916855e+02   4.927025340819e+02  -4.298840808512e+02 
2 1  7.866449554944e+01  -2.360893892076e+02   6.820755642858e+01 
3 1  1.518385998208e+02   1.201302146453e+02  -8.593036536033e+01 
4 1  3.352937334553e+02  -4.332369982070e+01   2.373385397234e+02 
5 1 -2.981697442045e+02  -1.839143424558e+01   5.908351499305e+02 
6 1  1.310999684783e+02   6.577933341781e+01   6.323300056895e+01 
7 1 -2.120287959762e+01  -1.029593206272e+02   1.994433278138e+02 
8 1 -8.648182744706e+01   2.277326982683e+02  -1.550224072760e+02 
8
Step 49000
1 1  1.801338581507e+02  -1.952735113642e+02  -1.034637378049e+02 
2 1  3.021794088189e+02   6.687876387136e+01   1.522268570298e+02 
3 1  1.857216788658e+02  -2.010577822371e+02  -5.313373918565e+01 
4 1  1.735646743387e+02   3.411440668450e+02   9.802062874306e+01 
5 1 -2.121851754996e+02  -2.632282638176e+02   1.419198979267e+02 
6 1  3.415600639626e+02  -4.820253022018e+01  -8.612257632009e+01 
7 1  1.306609036294e+02  -5.021309859496e+01   1.882504877120e+01 
8 1 -3.226799560587e+02   1.314732020687e+02   1.118075892240e+02 
8
Step 50000
1 1  4.158844993796e+02  -5.591225757378e+02   1.932772433033e+01 
2 1  4.711916256169e+01   7.888203018916e+01   3.452815136286e+01 
3 1 -1.111471320847e+00  -3.650690978733e+02   3.459106187284e+00 
4 1  3.117750224471e+02   4.573908900971e+02   2.330190771690e+02 
5 1 -2.307971579860e+02  -5.625397041208e+01   2.838174935485e+02 
6 1 -6.132682817341e+01  -8.805247598424e+01   1.561931774082e+02 
7 1  3.880382677533e+02   1.743599779566e+02  -2.044463148882e+01 
8 1 -2.202437691708e+02   3.248126070340e+02   1.206992017113e+02 
8
Step 51000
1 1  4.964315656208e+02  -2.011681741814e+02  -1.952346692076e+02 
2 1  7.995232973740e+01  -1.992771349023e+01  -1.915800942113e+02 
3 1  2.019112030240e+01   3.057730230954e+01  -1.729824376810e+02 
4 1  4.609015463250e+02  -4.946843724175e+00  -6.553583575449e+01 
5 1 -3.721103951916e+02  -4.266157401242e+02   2.501093076668e+02 
6 1 -2.145345334918e+02  -4.266407165009e+02   1.919302522506e+02 
7 1  5.108656014749e+02   5.142357100091e+01   1.110007198170e+02 
8 1 -1.005533890934e+02   1.745854113024e+02   8.238334160145e+01 
8
Step 52000
1 1 -2.886821238897e+02   2.035840184832e+02  -1.890476520185e+02 
2 1 -2.104048681604e+02   1.481768201444e+02  -2.578642399249e+01 
3 1 -2.698536378840e+02   1.331873458857e+02   5.646478622871e-01 
4 1  2.754737438710e+02   2.406488074054e+02   1.842778461285e+02 
5 1 -1.313843089037e+02  -1.607148127930e+02   5.013431752198e+02 
6 1 -4.936392428861e+01   1.045321738911e+01  -1.026378125189e+02 
7 1 -1.346792732917e+01   6.578362273255e+02   3.032678435461e+02 
8 1  2.123473633376e+02  -1.205489648837e+02   1.842216903240e+02 
8
Step 53000
1 1  9.201601221142e+00   1.855648831615e+02  -2.928343896247e+01 
2 1  1.664559612604e+02   1.552805382746e+02  -3.493276501333e+02 
3 1 -4.488719371364e+02  -5.524528326212e+01  -1.558896130897e+02 
4 1 -2.939841291397e+02  -3.255878003067e+02  -4.610025187446e+02 
5 1 -1.254531046683e+01   1.122087371726e+02   2.180095201847e+02 
6 1  1.837052771520e+01  -9.482473712521e+01  -2.420096666766e+02 
7 1 -2.462615737782e+02  -2.850132431182e+02   3.102456972955e+01 
8 1  2.419351815548e+02  -4.667310988281e+01   2.539493089773e+02 
8
Step 54000
1 1  5.492408608240e+00  -2.912882588444e+02   4.497240852872e+02 
2 1  6.078197808250e+01   1.062331235549e+01  -1.486650440762e+02 
3 1  9.703373962592e+01   5.818639694384e+01   3.978282289003e+02 
4 1 -1.606614842539e+02  -2.085895255130e+02  -2.694878328184e+02 
5 1  1.361972411607e+02   1.067448246660e+02   2.791027771276e+02 