8
Step 0
1 1 1.01012980291244475e-02 8.76698930961605435e-03 -4.26672132011644660e-03
2 1 9.04712704154579661e-03 -7.15207304295860987e-03 -2.12162422581108762e-02
3 1 -1.98917977515217191e-02 -4.26376521349218409e-03 -1.51645213874872994e-02
4 1 3.86475811308757949e-03 -8.01214103102613692e-03 1.55743162927342461e-02
5 1 2.40224425156572788e-03 -1.23595860692585560e-02 -8.66668385282660936e-03
6 1 9.33067358912683525e-03 9.26150683970064850e-03 9.07260609291608931e-04
7 1 5.84666967024573703e-03 -4.65550622465814821e-03 -1.31756294207653873e-03
8 1 -1.64391710903200212e-02 4.15175907702019457e-03 -1.14208608736975463e-02
8
Step 1000
1 1 -1.21628168410037579e-03 -1.62492550612766996e-02 1.27324967040579680e-03
2 1 1.05479159932799263e-03 -5.06405261875480812e-03 9.84208994128188581e-03
3 1 7.63344025652792565e-03 6.12213961354363904e-03 1.20303353823808194e-02
4 1 -4.93698270222558727e-04 5.95697911778655421e-03 -1.64122273002753997e-02
5 1 2.02638503260019068e-03 8.50071746552783468e-03 4.08511747049337091e-03
6 1 -6.20839879859516348e-03 -4.58192407623945509e-03 1.03587365125992169e-02
7 1 -1.24386717110301619e-02 5.26092592182450264e-03 1.77968335499919627e-03
8 1 1.07280696273282464e-02 -8.40648890206295921e-03 5.26880546511164245e-03
8
Step 2000
1 1 -7.66487638710138235e-03 1.99227038857868605e-02 9.07351047522199236e-05
2 1 -7.10222009926960839e-03 1.03343977562056454e-02 -1.06515161186383853e-03
3 1 3.55964836596201319e-03 -6.68371563901263947e-03 -1.00498235393983552e-02
4 1 -3.88803699725034978e-04 -3.29420018932409780e-03 1.06516375025302798e-02
5 1 -4.03765256551374355e-03 -5.03527144951568251e-03 -9.95149381349781257e-04
6 1 6.15917052398530398e-04 -1.95889019574194741e-03 -1.56188067700783455e-02
7 1 1.09311335617525568e-02 -4.13028718402876777e-03 -2.26166932797545724e-04
8 1 -3.47984775046737997e-03 7.73936445052310698e-03 1.32152853046193570e-04
8
Step 3000
1 1 1.48763795138792641e-02 -2.07058123178932678e-02 1.05165445902721463e-03
2 1 7.39829289072414190e-03 -7.96397395252857777e-03 -1.24211127892309378e-03
3 1 -1.16511940874495321e-02 7.25759863705984203e-03 1.17477295482799945e-02
4 1 -1.16048396571441460e-03 1.09773383849166655e-03 -2.60256900411549256e-03
5 1 5.20668385445211251e-03 3.79797628139135921e-03 7.18527886068411406e-04
6 1 6.05393403124098069e-03 7.69815538819008070e-03 1.66010627048611657e-02
7 1 -4.78146238874065186e-03 4.16166114891927284e-04 -2.46236147842840833e-05
8 1 -4.17056555343443553e-04 -6.37940761915742598e-03 -3.98473676745285648e-03
8
Step 4000
1 1 -1.41508819121227980e-02 1.28767346564625709e-02 -4.81825264488771818e-03
2 1 -5.70352911770839830e-03 4.61878408303458866e-03 -1.96944069712994040e-03
3 1 1.42293641734214781e-02 -8.25528029505565204e-03 -1.00935652573297934e-02
4 1 4.36048846041959311e-03 -5.40093763302621299e-05 -2.71172363111241545e-03
5 1 -4.30403882845742120e-03 -2.28543171651262970e-03 -1.56172714706249213e-03
6 1 -1.15608676798058044e-02 -9.73794800153677739e-03 -1.24727112730713147e-02
7 1 -2.19950551618201427e-03 3.13927549566734177e-03 -2.53428128970271244e-04
8 1 2.44313505599748999e-03 3.84702976604959623e-03 7.24239517418509993e-03
8
Step 5000
1 1 6.90438699420689063e-03 -1.21952930136363501e-03 9.35715788097046287e-03
2 1 3.38072496399167543e-03 -1.21345999861625074e-03 8.01191844424080715e-03
3 1 -8.20158550639574907e-03 6.31325689758211427e-03 4.31049542506401016e-03
4 1 -7.45096314610873504e-03 -1.95364419327385757e-04 5.78445403193565688e-03
5 1 3.40910048227539841e-03 4.63897682020408472e-04 3.65196914314437713e-03
6 1 1.22259382221709401e-02 6.73436334270941395e-03 4.12034693131229594e-03
7 1 8.96700329338346452e-03 -4.78138896658830692e-03 9.66125508141186758e-04
8 1 -4.05994694915149095e-03 8.62446016553192413e-04 -9.51756265411976901e-03
8
Step 6000
1 1 4.97630460252656615e-04 -5.74804757655265723e-03 -1.41815760876433730e-02
2 1 3.11170756745904646e-04 -2.84756394074591824e-03 -1.39162998574331627e-02
3 1 1.53541654063434107e-03 -5.68705898392892102e-03 1.72456930265718037e-03
4 1 8.45884118598370580e-03 -3.14663658260999873e-04 -6.53411972188483979e-03
5 1 -3.52859502613081955e-03 1.33595133375316675e-03 -6.15538501381300823e-03
6 1 -9.41392567947906336e-03 -7.10224723803499092e-04 8.86473249065945746e-04
7 1 -1.20518209292286380e-02 2.87233122641685932e-03 -2.87316063093669659e-03
8 1 5.81658320004947195e-03 -8.53629261230847217e-03 1.01503838377057735e-02
8
Step 7000
1 1 -5.82919113604975486e-03 4.68916480924070570e-03 1.77024673185893974e-02
2 1 -3.20078637456501806e-03 5.71491929993121761e-03 1.60306326824860672e-02
3 1 1.07503956233987960e-03 8.81117938905733901e-03 -6.90028957916644092e-03
4 1 -7.91639155192419043e-03 1.93003420587133752e-03 5.85248980168654506e-03
5 1 3.54742665895795180e-03 -3.04858127359072155e-03 8.75748999696638990e-03
6 1 5.24145578738410486e-03 -7.22467538156133359e-03 -2.03725655307891631e-03
7 1 9.33503494891170862e-03 2.49493753333046662e-03 6.49997079136242165e-03
8 1 -6.72522163623649402e-03 1.62468421965445767e-02 -7.56145827171248591e-03
8
Step 8000
1 1 7.43092371691554936e-03 4.45022571528203969e-03 -1.65121403722322015e-02
2 1 3.33632861116788708e-03 -6.71940594667934030e-03 -1.39287380716121966e-02
3 1 9.78410492592098925e-04 -1.46284130616497060e-02 1.05052371643123577e-02
4 1 7.53779282953250494e-03 -5.41941418326493014e-03 -6.60189943320221850e-03
5 1 -1.78365518710773348e-03 3.83028707671518925e-03 -1.02429151881384007e-02
6 1 -1.29375890758829997e-03 1.34412739746416141e-02 1.60646055385632114e-03
7 1 -2.79820655436362935e-03 -7.62680825376846078e-03 -9.91695719756434564e-03
8 1 5.00011408304847950e-03 -1.73960754123284878e-02 1.35636293843774446e-03
8
Step 9000
1 1 -4.74826607037734209e-03 -1.67510089484088770e-02 1.10610115771689159e-02
2 1 8.75065043733893119e-05 7.53264117554013329e-03 9.00091346622972424e-03
3 1 -5.29255672447293078e-03 1.43090858837909684e-02 -6.82836065961216036e-03
4 1 -8.97951302672757301e-03 1.25408190883722175e-02 1.34527348782462770e-02
5 1 -1.55334467927360884e-03 -3.58706239811269843e-03 8.73586325730867433e-03
6 1 -1.09263487567551830e-03 -1.49203320936065250e-02 -2.25842066572164201e-04
7 1 -3.22705065561903256e-03 9.20007066107236468e-03 1.03714131899530042e-02
8 1 -1.63157546626666755e-03 1.30049154430857215e-02 3.89642872833260816e-03
8
Step 10000
1 1 -6.37390209095741746e-04 2.19845191787257296e-02 -4.81826286418428167e-03
2 1 -7.10900034169914194e-03 -7.63218341890191040e-03 -2.03544989326886246e-03
3 1 1.10988559561260563e-02 -5.34432867133108683e-03 -3.16332309890914000e-03
4 1 3.69351854592472103e-03 -1.59860372121489840e-02 -1.32666385794078991e-02
5 1 4.65994056317078909e-03 1.08965473789090789e-03 -2.62511959360969176e-03
6 1 -7.62170177017180701e-04 1.25308434745502895e-02 -4.36882267291823572e-05
7 1 5.54248543756583837e-03 -8.41925167712057748e-03 -8.37456034164485094e-03
8 1 -1.19028819228782917e-03 -6.51421087623821511e-03 -5.69563983770917520e-03
8
Step 11000
1 1 4.99299485144647122e-03 -1.40230295929757737e-02 1.08716814029980184e-03
2 1 1.46499111036396002e-02 6.78985283410637672e-03 -5.63197490334025816e-03
3 1 -1.27350549465712233e-02 -2.72891365156515894e-03 9.23481156941558488e-03
4 1 5.14728127292587902e-03 1.11828503738740370e-02 8.20220620055031775e-03
5 1 -6.31143936478599250e-03 5.50757783923726089e-04 -1.32159168096522193e-03
6 1 6.56021496948343014e-03 -7.32401950799221445e-03 -2.91923019573223640e-05
7 1 -4.47362917441200721e-03 7.08487996507469690e-03 5.55012039557644266e-03
8 1 2.36866046158687232e-03 -3.44491573043111544e-04 4.66067405105127265e-03
8
Step 12000
1 1 -7.12660297130944705e-03 3.31227678658546241e-03 -9.85639535484923073e-04
2 1 -1.78258172168974938e-02 -4.51248335118954302e-03 1.18395839060787111e-02
3 1 9.65929048110262048e-03 5.61609539789932090e-03 -9.09234755713186210e-03
4 1 -1.24164331692694710e-02 -9.11503647225552979e-03 -4.36867591670770956e-03
5 1 7.96298152685323557e-03 -1.06712387917886654e-03 3.06017917224511845e-03
6 1 -1.30363773946984927e-02 6.97888063369579031e-04 -1.04892562016743090e-03
7 1 1.62590310023628579e-03 -6.10931247231210998e-03 -1.63893470888982606e-03
8 1 -2.13307308092671767e-03 4.03109095542094308e-03 -2.49968005921774204e-03
8
Step 13000
1 1 9.09413555918141096e-03 4.97748882615917012e-03 1.82217411835999821e-03
2 1 1.10315788321872828e-02 1.54189378262220914e-03 -1.16135245388820866e-02
3 1 -7.14742706291523165e-03 -4.47510512969543934e-03 7.17870208228693803e-03
4 1 1.45428974180884553e-02 8.53529467128805348e-03 8.50984168287166045e-04
5 1 -1.11147751913694449e-02 -1.24072959744546396e-04 -1.95377655710665286e-03
6 1 1.66866734918987882e-02 5.48799488963288163e-03 4.15679265702922473e-03
7 1 2.44071677825184003e-03 4.36039967119902436e-03 -4.49242237321443531e-03
8 1 -7.33455240641858589e-04 -1.07611509405135296e-03 -2.70915268491970726e-04
8
Step 14000
1 1 -1.04244577723904205e-02 -1.05680951771094812e-02 -3.17142667735169533e-03
2 1 3.99965448629565853e-04 1.52886315590078500e-03 5.75319426218222352e-03
3 1 8.45444425662657609e-03 -3.72557714335537476e-04 -5.90916207346900337e-03
4 1 -8.77172488452975310e-03 -6.50939106998190894e-03 1.33671663224755222e-03
5 1 1.42334340721376098e-02 2.31492953832663616e-03 -1.81647630105438479e-03
6 1 -1.49315125511245532e-02 -9.11677458549058593e-03 -9.95434846946958822e-03
7 1 -5.78531303339834858e-03 -2.96513958610051176e-03 8.39769384380756670e-03
8 1 4.80256299538151746e-03 -8.81401308030866151e-03 1.44834651813394101e-03
8
Step 15000
1 1 9.81449295946741108e-03 1.14971476557391601e-02 4.68909376845663955e-03
2 1 -6.07824658372541071e-03 -2.16269444177486902e-03 -1.66637358271808111e-03
3 1 -1.31719013262179604e-02 8.55778706700790343e-03 5.84652123201058818e-03
4 1 7.35335275174723224e-04 4.00618140477874713e-03 -2.34019637116543357e-03
5 1 -1.23231054138723036e-02 -3.85967302403550329e-03 7.03301664318667016e-03
6 1 9.14427326246262592e-03 7.76321606446812081e-03 1.26374090792603436e-02
7 1 8.05659562557235406e-03 2.05326341723337290e-03 -9.66942040252753363e-03
8 1 -5.18958374946984144e-03 1.72632011567833699e-02 1.40393251363391588e-03
8
Step 16000
1 1 -6.25716675849218810e-03 -5.89147248753943593e-03 -5.56937977033912339e-03
2 1 8.45421453646324865e-03 2.10218484106661349e-03 -2.82556691220936821e-03
3 1 1.61711645927845003e-02 -1.55586236845686645e-02 -5.82461964045378686e-03
4 1 5.17920045595635006e-03 -1.53869355190296175e-03 2.88724645585745291e-03
5 1 7.90397336661552430e-03 4.31126821731758324e-03 -9.63840311000706447e-03
6 1 -4.03652303330050925e-03 -4.84483464130215733e-03 -1.28040473563515618e-02
7 1 -9.15346927851201642e-03 7.13150787354975123e-04 8.80417840820505934e-03
8 1 9.83886546087624561e-04 -1.61769408305185783e-02 -5.35444425486036879e-03
8
Step 17000
1 1 3.36140514070044569e-03 -2.15152586979082015e-03 6.44787231785720963e-03
2 1 -9.20846855627060687e-03 -1.59237599199388877e-03 6.20122972509724868e-03
3 1 -6.54297384246951483e-03 1.02577206889155823e-02 2.72749437090501678e-03
4 1 -1.04689450440565088e-02 -1.86938043077531485e-03 -2.69537206523991126e-03
5 1 -3.68076868670976030e-03 -3.07118696813849131e-03 7.26058817657653909e-03
6 1 -1.61971889058417386e-05 3.30782681345418795e-03 9.72743524701207181e-03
7 1 7.70418097800544023e-03 -4.61881942415067349e-03 -5.23056582845207469e-03
8 1 3.83946909379390740e-03 8.49664042011119211e-03 6.73009319740814401e-03
8
Step 18000
1 1 -3.63193196559632525e-03 5.48867452414642919e-03 -1.05342629691421285e-02
2 1 8.12125925007385792e-03 5.96661235071343533e-04 -7.09617721629312616e-03
3 1 2.42724929001002492e-03 -3.97448814717299426e-03 -2.57724164344986682e-03
4 1 2.02332409475200967e-02 8.69185556346811772e-03 -4.37044258994963346e-05
5 1 1.13926446165856258e-03 -1.15299708749108079e-03 -2.13631831906779552e-03
6 1 3.23416995281391615e-03 -4.19462444895858481e-03 -3.64086765125999764e-03
7 1 -3.70663310579368412e-03 5.99946271578175559e-03 5.45784462405153234e-04
8 1 -6.97098824098654930e-03 2.47019668350883820e-04 -6.65028383652834214e-03
8
Step 19000
1 1 5.22000024097362628e-03 -4.75966926677408048e-03 1.19152549368623760e-02
2 1 -5.53714389735445681e-03 -7.86702259122643092e-05 4.77823958386516204e-03
3 1 2.38246910943762207e-03 -1.12906253894863411e-03 2.74357938694922299e-03
4 1 -2.43736308208794203e-02 -1.31869361322986232e-02 4.52624458873815590e-03
5 1 -3.82806017405956254e-04 8.53460801713661586e-03 -4.15063824741753514e-03
6 1 -5.76633124068428628e-03 8.26721959423656026e-03 -5.78082828079413882e-03
7 1 -3.37065957458651316e-04 -4.47390379252772964e-03 2.39753827880308072e-03
8 1 8.28886599223357251e-03 -8.15325504029446729e-03 5.81370117042205418e-03
8
Step 20000
1 1 -5.63690784627780828e-03 1.17234270386783949e-03 -7.63380711316079697e-03
2 1 4.13475727903241021e-03 1.00121741890910228e-03 -1.88516979592027231e-03
3 1 -7.24871833095100566e-03 5.23878721590735359e-03 -2.99310712155222971e-03
4 1 1.69154453405588323e-02 1.14565342082051658e-02 -6.38914990297457814e-03
5 1 9.37931479028116140e-04 -1.52646054372616181e-02 8.50316448866716632e-03
6 1 7.14995989001562457e-03 -1.37268937837214319e-02 1.77377878595166918e-02
7 1 1.64250677521177125e-03 1.12276998028942800e-03 -6.31115660242006528e-03
8 1 -9.04138401329032323e-03 1.61970689771772751e-02 -5.48092564649792051e-03
8
Step 21000
1 1 3.45696149474146583e-03 2.11077433293846038e-03 2.69195864004252283e-03
2 1 -4.26627075308907717e-03 -1.89146472200186632e-03 1.18039164076285058e-03
3 1 9.52442255965100029e-03 -5.54055577324649370e-03 3.59097905228458573e-03
4 1 -9.79037553346153930e-03 -8.45335345441996892e-03 6.95065696587972640e-03
5 1 -2.94455874782915007e-03 1.66769447615704378e-02 -7.24976564490172927e-03
6 1 -5.06065239350519166e-03 1.30236698730213599e-02 -1.95751591755333292e-02
7 1 9.11791867844840491e-04 4.66721813433782894e-03 1.17408327757945359e-02
8 1 1.20194068021823135e-02 -2.23046028969723642e-02 4.31666473355045259e-03
8
Step 22000
1 1 -2.94547826125503764e-03 -2.90985499430306558e-03 1.88376593118723122e-05
2 1 5.04409072003414536e-03 1.33961788847657137e-03 -2.76336826413199144e-03
3 1 -5.39128419715335320e-03 1.26785965833066069e-03 -3.91350580924648434e-03
4 1 6.26485571463991382e-03 7.39360293362679478e-03 -7.14183934858306918e-03
5 1 6.26848338869695661e-03 -1.18538851227174627e-02 -1.56817407492751697e-03
6 1 1.03617128430485788e-03 -8.04832048467315868e-03 1.05913752187587976e-02
7 1 -7.35373381046657785e-03 -1.20947469487105944e-02 -1.57893542306040170e-02
8 1 -1.17708824147960116e-02 1.71829509939240843e-02 -4.16031087063540108e-04
8
Step 23000
1 1 3.40065645870462133e-03 2.21967209350865287e-03 -8.11662029159379334e-04
2 1 -6.51318996193336018e-03 7.88089674678321955e-04 6.81562200580036835e-03
3 1 -1.20881862383956720e-03 4.53700574916254557e-03 5.56324381603690021e-04
4 1 -4.32730674613468046e-03 -6.84136953037453067e-03 6.39660967401944631e-03
5 1 -8.31655038734078166e-03 2.81496089681288093e-03 1.07654877304228808e-02
6 1 -1.35446261861633645e-04 3.99145760582897934e-03 -5.65577091472306559e-04
7 1 1.41672081041539569e-02 1.66938067356658081e-02 1.39315139204712543e-02
8 1 9.86102582960654561e-03 -6.66612704472296404e-03 -4.74932060345130760e-03
8
Step 24000
1 1 -3.59933363535830560e-03 1.29605081077508182e-04 -5.70972998586456140e-04
2 1 8.32349766214816184e-03 -5.28777407128981809e-03 -1.20069050180243737e-02
3 1 8.13714881195176654e-03 -9.99273289356593548e-03 3.31224316505746930e-04
4 1 2.69676784283776234e-03 4.38536317671373368e-03 -4.53994178484355086e-03
5 1 6.37246950843135471e-03 5.35102183399514732e-03 -1.21322932744466674e-02
6 1 2.20579378974836452e-03 -1.24506930387715902e-03 -7.06204760017577378e-03
7 1 -1.63134652653569995e-02 -1.42882121499915693e-02 -6.57040774769437289e-03
8 1 -9.10865325363055880e-03 -2.12480870602090944e-03 1.03530668990404820e-02
8
Step 25000
1 1 2.64576591403975709e-03 -3.69251575914864320e-03 5.02473232533712753e-03
2 1 -8.98372240783396232e-03 8.03427674526581252e-03 1.07663283241207150e-02
3 1 -1.49147108398286002e-02 1.33920953112539633e-02 -4.28524381039954532e-04
4 1 -1.59543953056352577e-03 1.04217661559904908e-03 2.20496028185946649e-03
5 1 -2.63527021333462980e-03 -6.67533911831196848e-03 8.02312738032750876e-03
6 1 -5.84465573989047683e-03 -7.41996327441684310e-04 1.13331213868728582e-02
7 1 1.27126195591114356e-02 6.47517104634403543e-03 -1.91540340402804993e-03
8 1 8.92575657824577415e-03 8.26203412150557613e-03 -1.48147239781338813e-02
8
Step 26000
1 1 4.88114057676397128e-04 6.98207675852267461e-03 -1.18692837378874608e-02
2 1 5.37793402647165648e-03 -5.35223737720329825e-03 -4.09299125123726171e-03
3 1 1.83720049201299036e-02 -1.18045128229186773e-02 1.01158270805311789e-03
4 1 1.48057624884792268e-03 -8.14387769189456670e-03 5.40758631100736356e-04
5 1 -3.83077561689600002e-04 4.21402767227021212e-03 -1.80190913215234178e-03
6 1 9.34950656349011096e-03 1.11598220435096731e-03 -1.22028235416255706e-02
7 1 -5.81204338535783530e-03 1.46235968689718029e-03 7.86935309210194493e-03
8 1 -5.96375293985699443e-03 -1.08065871305543550e-02 1.11777140081427400e-02
8
Step 27000
1 1 -5.10661991771336771e-03 -7.68897685318016815e-03 1.71702459178411267e-02
2 1 -1.15322831982868053e-03 7.08717172552553718e-04 -2.50890088590861090e-03
3 1 -1.66563066709998105e-02 5.21099055345054102e-03 -2.45196357284736257e-03
4 1 -9.60088822133189977e-04 1.29511189421506225e-02 -2.16851139145575553e-03
5 1 3.86516511954175263e-03 1.28858950245010011e-03 -4.99477775145918280e-03
6 1 -1.26319722332478013e-02 1.87609307617712853e-03 1.20185511875323739e-02
7 1 -1.52401097191142185e-04 -5.25578711196262975e-03 -1.01508519394535712e-02
8 1 2.02807040299523211e-03 9.75117874008075460e-03 -2.19610221410415684e-03
8
Step 28000
1 1 6.84493496044852150e-03 4.50663580636336339e-03 -1.55671048253427525e-02
2 1 -9.55405866160180246e-04 3.01574300326937737e-03 5.86741460891003399e-03
3 1 1.12030635301329992e-02 3.22345887926129551e-03 5.20389696853722130e-03
4 1 7.33957804270584085e-04 -1.29355465986066634e-02 3.16019344141503815e-03
5 1 -7.35779796996845117e-03 -8.84853345119755719e-03 1.02926970852849943e-02
6 1 1.58293541636643498e-02 -7.29755866346363212e-03 -1.44285364691626675e-02
7 1 2.68128689251272492e-03 5.32907173189505878e-03 1.06250692923327388e-02
8 1 2.71843105277581485e-04 -9.31681813206957678e-03 -7.32065405485893706e-03
8
Step 29000
1 1 -5.69309167869105209e-03 -9.39517349337054466e-04 1.10802762461334175e-02
2 1 1.42746668516400069e-03 -4.81167622130597699e-03 -5.28355971592949468e-03
3 1 -2.94316524252204084e-03 -1.08017922643527768e-02 -9.83358871477405319e-03
4 1 -1.34157280527194382e-03 8.67828660132875275e-03 -2.47667010988960852e-03
5 1 7.98806913044570327e-03 1.36172100349384959e-02 -1.02068198912303905e-02
6 1 -9.94903522236864277e-03 6.55489842539381824e-03 1.17276437469271549e-02
7 1 -2.21280054527074003e-03 -2.37502044134671074e-03 -9.20564105034052740e-03
8 1 -6.26282752070523945e-04 1.14324592714344139e-02 1.71026459463618739e-02
8
Step 30000
1 1 4.38014147241121924e-03 -1.29190106816864589e-03 -8.20085234983602626e-03
2 1 1.74072490591946078e-04 5.49326569818581797e-03 1.43344829408754960e-03
3 1 -8.44381850902594516e-03 1.28253823448998723e-02 1.31434311088780252e-02
4 1 2.84352386902041437e-03 -1.62515213871812698e-03 6.08938891338439529e-04
5 1 -3.76456583515018175e-03 -1.13526045821995079e-02 3.02976672064234108e-03
6 1 -3.03922015608266505e-04 -6.31233136006630253e-04 -9.09646377889127868e-03
7 1 -1.20774894247810622e-03 -3.23070253961278741e-03 4.13789315585440763e-03
8 1 -4.76820291294795717e-04 -1.03855068067912580e-02 -1.83014731168874185e-02
8
Step 31000
1 1 -3.28444157745241350e-03 2.23386158571638876e-03 5.49420807257214490e-03
2 1 5.88697260102758997e-05 -3.33626191144678575e-03 5.63274172487073996e-03
3 1 1.63997064760834955e-02 -6.14897267959780940e-03 -1.21558962298567823e-02
4 1 -5.73260819994988839e-03 -7.72855069132476723e-03 4.71558607023738635e-04
5 1 -4.07926363029503282e-03 5.11690534853882426e-03 6.70882264249830253e-03
6 1 8.31458993700225253e-03 -5.55267029860456469e-03 8.50660766808613265e-03
7 1 5.39370194290641081e-03 9.22534825598773055e-03 4.83160738099355520e-03
8 1 1.93129315022058266e-03 7.80090404839554798e-03 9.04140186018691748e-03
8
Step 32000
1 1 2.42528787774179020e-03 -1.07228114934867147e-03 -1.75438136655041823e-03
2 1 -7.79245175218394831e-04 -2.52551518186812460e-03 -1.18911229448199866e-02
3 1 -1.58209176613543501e-02 -4.78225634201186883e-03 8.54773016714734102e-03
4 1 9.87676940340403986e-03 1.42228245050214138e-02 3.43356913615458937e-03
5 1 1.27036144495855270e-02 -6.40771329362335739e-04 -1.28264985128568858e-02
6 1 -1.25444446410781802e-02 9.86648619198163962e-03 -8.10429464456305024e-03
7 1 -6.13744906514072149e-03 -1.16971809284173219e-02 -1.33923662422330576e-02
8 1 -1.19688374222603209e-03 -6.10881890949960173e-03 5.27889057897631270e-03
8
Step 33000
1 1 -2.26296568527300937e-03 -2.69684345399424583e-03 -2.39832603699915731e-03
2 1 1.20207953412771644e-03 8.30839488088106447e-03 1.38529777417724046e-02
3 1 8.73934236581213643e-03 1.29748505207804253e-02 -4.83236794726471259e-03
4 1 -1.01121456077422796e-02 -1.22943184295627259e-02 -1.09255129245344126e-02
5 1 -1.75212952093581377e-02 -4.74871691288726268e-04 1.10985980153575099e-02
6 1 1.43676615463865578e-02 -1.21610586066297384e-02 7.13454041489406440e-03
7 1 2.43939725239243664e-03 9.94159599006180089e-03 1.85187175750564439e-02
8 1 -3.37009413798413033e-03 3.72350706789408535e-03 -1.90284915372908349e-02
8
Step 34000
1 1 3.17025591388460197e-03 7.26833392774623756e-03 3.51192556679657793e-03
2 1 -2.67700044765274616e-03 -1.12915225589481343e-02 -1.05593555825503789e-02
3 1 -5.09143955745165397e-04 -1.41867656028206290e-02 2.13680437690168864e-03
4 1 6.08603177396550930e-03 5.03951102486697392e-03 1.59777281984950989e-02
5 1 1.35162989794334054e-02 -2.70784554937206743e-04 -3.62535044343578446e-03
6 1 -1.15613210385002285e-02 1.02855119704248210e-02 -4.56222996102080645e-03
7 1 2.17029813769817554e-03 -7.63587298873048131e-03 -2.14824799059689653e-02
8 1 8.79811334890463932e-03 7.36222304056624198e-04 2.32477432619100401e-02
8
Step 35000
1 1 -5.27741620607623772e-03 -9.19455514293178108e-03 7.63246225746710527e-05
2 1 4.44567506948935834e-03 1.10805652133620196e-02 4.80183537035788408e-03
3 1 -6.76028579493055844e-03 8.97038066381172609e-03 -6.41518189810978397e-05
4 1 5.06968828026936732e-04 1.94184544876846422e-03 -1.47603891354637761e-02
5 1 -6.14290978489590370e-03 1.07467854444971657e-03 -2.35556391986764882e-03
6 1 2.11517365714262908e-03 -2.35579760453294299e-03 5.43605612671063903e-04
7 1 -4.51220296090269150e-03 5.47929142075466533e-03 2.07890809573666943e-02
8 1 -1.09130446178306792e-02 -4.37110657162563965e-03 -1.61368253311533622e-02
8
Step 36000
1 1 7.98018750145117021e-03 7.44773854770631322e-03 -6.66870863466490285e-03
2 1 -5.38365194307256160e-03 -9.64148084836537883e-03 8.80628682594143154e-04
3 1 1.48209292465032883e-02 1.40080653680709887e-03 -1.83236207637735337e-03
4 1 -6.32466249764008885e-03 -4.41526272687929947e-03 9.21708721409784590e-03
5 1 -8.10786473738835350e-04 1.98399467213125483e-04 3.60715115579540290e-03
6 1 7.46754358174859818e-03 -6.26501520196484987e-03 1.67840561367836789e-03
7 1 2.69156603100267119e-03 -3.43049642432855179e-03 -1.58920033190384537e-02
8 1 1.01825697952018668e-02 7.12801571534984850e-03 5.20582365032716023e-03
8
Step 37000
1 1 -8.88912879654585319e-03 -2.69150920518778074e-03 1.43870179790656950e-02
2 1 5.68172153449465582e-03 9.99526542382806436e-03 -6.86631905053400066e-03
3 1 -2.13579464144676469e-02 -1.38710323855587778e-02 2.64936002533891490e-03
4 1 8.96001565242193591e-03 2.21845696022355925e-03 -2.26526524263232984e-03
5 1 6.40025817377544524e-03 -4.48441128673603921e-03 -2.42400639439802491e-03
6 1 -1.55448078272076452e-02 1.42199924687916972e-02 4.54608812393312949e-04
7 1 2.26158663028784351e-03 2.52151052769237138e-03 9.02667099915010346e-03
8 1 -8.41457967441628860e-03 -8.97061867822866038e-03 4.95540833991562398e-03
8
Step 38000
1 1 5.91620340666442791e-03 -2.73584501936008405e-03 -1.98438776686219870e-02
2 1 -4.78069838869245832e-03 -1.17342805811067874e-02 1.19836011417753519e-02
3 1 1.64386548451471298e-02 1.73256734502084120e-02 -1.13312261196316761e-05
4 1 -6.83774004221318708e-03 2.01793363417091540e-03 -3.39065818006202991e-03
5 1 -1.04787239478374827e-02 1.23217086844141181e-02 -2.86622995882202761e-04
6 1 1.67752541473420412e-02 -1.62688405304417319e-02 -5.75085357832058955e-03
7 1 -6.30982825840343316e-03 -2.75528220933241898e-03 -1.21160936186633333e-03
8 1 6.74412942381763178e-03 9.23879870272441804e-03 -1.17291789990884056e-02
8
Step 39000
1 1 -3.84330749060561193e-04 5.27581441567952312e-03 1.76562258191449543e-02
2 1 -3.39758278420536485e-05 1.08454302280739517e-02 -1.11382901937222955e-02
3 1 -5.04267673752427457e-03 -9.23739682847993411e-03 -3.91009039438444325e-03
4 1 4.83446575623269932e-03 -5.88757219822784363e-03 8.33205035644360957e-03
5 1 1.09651005202073392e-02 -1.92499534372111980e-02 3.46656673611383821e-03
6 1 -1.13064722817585415e-02 1.09428296079537753e-02 9.57480725031255656e-03
7 1 5.70913665058135449e-03 3.08820902940027580e-03 -5.88570508809626615e-03
8 1 -6.09893133664689367e-03 -7.05533113234331748e-03 1.46364939894523018e-02
8
Step 40000
1 1 -2.71942498400017845e-03 -3.40373148800720031e-03 -7.45181480806395447e-03
2 1 7.41175178623202247e-03 -7.27849180289570109e-03 3.60281877212119232e-03
3 1 -3.58693272150383338e-03 -1.30353649323056067e-03 6.62026276029525473e-03
4 1 -4.35724540127277807e-03 7.85484294377257648e-03 -1.37546731123242543e-02
5 1 -6.43262599572426257e-03 1.84230089820864550e-02 -4.53327749751996148e-03
6 1 5.23062498617678662e-03 -3.62245921982077028e-03 -1.00329445269329159e-02
7 1 -9.10000011843004660e-04 -1.71220939367352880e-03 6.98629603588909586e-03
8 1 6.08992584345088243e-03 8.35428188977441698e-04 -1.63969450581055373e-02
8
Step 41000
1 1 1.73551730663405713e-03 -2.18126993288963577e-03 -1.93996297313460083e-03
2 1 -1.23712734468694220e-02 3.67450951144836051e-03 4.00655264925200115e-03
3 1 8.63910430686316670e-03 9.85260325026142240e-03 -8.57354926636505477e-03
4 1 4.10325479330319980e-03 -6.89270782829899502e-03 1.60443660514258818e-02
5 1 -5.77374664680753358e-07 -9.34368106579746942e-03 2.25540763809220371e-03
6 1 2.58460950286973977e-05 -3.47006025685722003e-03 6.30937075065483941e-03
7 1 -3.93716453161272861e-03 3.40816292538563418e-03 -3.99126475782152559e-03
8 1 -4.51753461964790343e-03 7.40870246151342695e-03 1.64679155811454474e-02
8
Step 42000
1 1 2.18865638141239795e-03 4.25387681622797342e-03 8.69608785231808235e-03
2 1 1.03441106170571138e-02 -1.70886901225274462e-03 -5.13870984966623232e-03
3 1 -1.10208485093835924e-02 -1.67497035891372506e-02 1.21360641144286595e-02
4 1 -2.60383250154129931e-03 4.52314909534957087e-03 -1.34200238137261348e-02
5 1 4.62513270075664857e-03 -3.18115834523222335e-03 2.87835261319238731e-03
6 1 -5.01026745487019240e-03 8.92551346953753856e-03 2.11379055440543903e-03
7 1 9.50263467130470912e-03 -4.83884402028491711e-03 -4.29203139125763336e-04
8 1 1.33190902254279749e-05 -8.97305817011028253e-03 -8.96545617592468119e-03
8
Step 43000
1 1 -9.26833373522373445e-03 -4.11895170876097182e-03 -1.46017041948249861e-02
2 1 -5.31925920938142519e-03 2.71672967425689400e-04 2.31221955467872907e-03
3 1 8.48383848566948082e-03 1.67994521802265172e-02 -1.42321757231572404e-02
4 1 -7.67631312216378683e-04 -3.44534581573619240e-03 9.17622938867070428e-03
5 1 -9.16918308812437154e-03 1.57710982726874636e-02 -8.28346264613412722e-03
6 1 8.12578968512783252e-03 -9.56267321239896197e-03 -1.23174719228343645e-02
7 1 -1.64333659236778548e-02 7.26125361751880135e-03 6.18902117489927329e-03
8 1 1.14058182634156320e-03 9.63925158388670260e-03 3.66591437310971732e-03
8
Step 44000
1 1 1.62669859884355013e-02 1.15376329181703964e-03 1.66802615847248537e-02
2 1 1.91621574860503406e-03 -1.01252371811458557e-03 2.68361132078852272e-03
3 1 3.60456875840738415e-04 -6.17255754411203533e-03 9.90568280298844729e-03
4 1 7.12355890315131881e-03 4.42578923910938796e-03 -6.42937185752713320e-03
5 1 9.62413024426468124e-03 -1.88977862549834473e-02 8.25291684987785462e-03
6 1 -7.16062457737076923e-03 5.22919964689710741e-03 1.80134091475383819e-02
7 1 1.99879762298340903e-02 -8.10956104869003935e-03 -1.07430225414827836e-02
8 1 -3.45875329588854084e-03 -8.22043549438887869e-03 -7.10675760709960106e-04
8
Step 45000
1 1 -1.65580913524759274e-02 2.93459173042187604e-03 -1.07357051715854575e-02
2 1 8.40045566224058510e-04 2.17770605635518675e-03 -9.18115395621167500e-03
3 1 -9.43899678656599447e-03 -6.65323982774411980e-03 -2.61212173617243661e-03
4 1 -1.19308720548168389e-02 -7.00861796876856447e-03 5.22273227485030821e-03
5 1 -6.94644790940842759e-03 1.20991168176162230e-02 -2.34349743026851650e-03
6 1 5.19655818824413251e-03 -1.02338629753744199e-03 -1.58863670602565760e-02
7 1 -1.34345847846920677e-02 4.38523072815471659e-03 1.02454511808229808e-02
8 1 5.73009723844842677e-03 4.28770209476329617e-03 -1.58796652924031120e-03
8
Step 46000
1 1 1.17114717852950453e-02 -6.17488587837179779e-03 4.47562088555016491e-03
2 1 -2.11812150952215335e-03 -3.14484355778452216e-03 1.62334086753135494e-02
3 1 1.50368567965751525e-02 1.57224932311806516e-02 -5.78819800557843836e-03
4 1 6.99185494413299101e-03 5.95982909346452847e-03 -2.65945526661364026e-03
5 1 5.09535224737970877e-03 -2.86552947897410855e-03 -4.95701597273087973e-03
6 1 -3.21372288892247514e-03 -7.27741993340327593e-04 8.99245000659206449e-03
7 1 4.53224805717377527e-03 -3.05228429741812664e-04 -5.77124228302515908e-03
8 1 -6.92304773086539933e-03 9.89833370818515726e-04 4.20840392785458688e-03
8
Step 47000
1 1 -7.31834558116611997e-03 7.49896637942457350e-03 -6.51175256778166152e-04
2 1 1.38836866751280768e-03 3.04055971828369204e-03 -1.79064920323070177e-02
3 1 -1.30173725206972398e-02 -1.56709239892809070e-02 1.30313137826800624e-02