8
Step 0
1 1 -5.020375767986e+02   1.301891537133e+02   2.038560078245e+02 
2 1 -5.002494866606e+01   2.412842636694e+02  -4.019462856652e+02 
3 1 -5.809836629558e+00   1.853346177710e+02  -1.787479853878e+02 
4 1  1.436706449525e+02   4.595951841859e+02   5.962563601088e+02 
5 1 -8.312169418508e+01   5.465653697571e+02   1.323078797216e+02 
6 1 -2.466067116481e+02  -3.849791559861e+02  -2.631787307507e+02 
7 1 -3.559133134563e+02  -2.212304180834e+02   3.850728908916e+02 
8 1 -2.185853128291e+02  -7.530260117558e+02  -4.066248765960e+01 
8
Step 1000
1 1  6.096056480058e+01  -1.137146409586e+01  -1.876211695143e+02 
2 1 -1.035030014913e+02  -7.251998797398e+01   1.894963397291e+02 
3 1  5.137852419196e+01  -1.310092955444e+02   3.002946974711e+02 
4 1 -1.009712150359e+02  -3.820247838654e+01  -1.821896456534e+02 
5 1  1.300475951547e+02   1.310657110236e+02   2.085823116744e+02 
6 1  3.066198406936e+02  -3.876382815148e+01  -1.426153357054e+02 
7 1  1.079233868337e+02  -7.739436468945e+01   1.038053677206e+02 
8 1  4.003404083097e+01  -2.768943956157e+02  -4.831696213184e+01 
8
Step 2000
1 1 -1.897917686212e+02   3.733151009350e+01  -3.197333369531e+02 
2 1  4.632523539577e+01   7.359781422057e+01   1.288256414263e+01 
3 1  2.836867964794e+02  -1.682964795130e+02  -5.575089837645e+01 
4 1  1.365938230784e+02   1.550275292813e+02   9.997477948018e+00 
5 1  4.408050044813e+01   2.699777954782e+02  -8.194667755919e+01 
6 1  5.169903950757e+00  -9.284434341638e+01  -2.942190940124e+02 
7 1 -2.749139637168e+02  -1.676338015218e+02   2.192401738853e+02 
8 1 -1.103570058734e+02  -6.647231650965e+01  -1.466826903925e+01 
8
Step 3000
1 1  2.099429342720e+02  -4.984445720492e+02  -2.507843881995e+02 
2 1  2.999040263460e+02  -2.615796680723e+02  -2.539336716873e+01 
3 1  4.299721299814e+02   5.560533113688e+01   1.645660122351e+02 
4 1 -3.151374362949e+02   1.102204137411e+02  -4.910031329892e+02 
5 1 -1.976019853407e+02   1.101253785967e+01   3.861563429081e+02 
6 1  2.121294782551e+02  -3.980032589525e+02   2.390921360754e+02 
7 1  5.831486091273e+01  -2.305207281877e+02   6.027697662625e+02 
8 1  1.761636095006e+02   1.412165683079e+02  -3.625880105002e+02 
8
Step 4000
1 1 -1.680621501165e+01   1.639883452517e+02  -6.249649468503e+01 
2 1  1.294710272873e+02   7.073273220768e+01  -1.387118715074e+02 
3 1 -3.531680038986e+01  -5.483775221480e+02  -3.554439898880e+02 
4 1 -1.886399319075e+02  -1.526721642812e+01   3.879148974765e+02 
5 1  2.207304831310e+02  -3.120754531563e+02  -2.562249657740e+02 
6 1  2.738290801634e+02   3.215814389726e+02  -1.895641156872e+02 
7 1 -2.592458911822e+02   3.560437999400e+02  -1.490654734305e+02 
8 1 -1.302859927499e+02   1.128095909418e+02   6.379084758028e+01 
8
Step 5000
1 1  1.662453715440e+02  -3.018969157232e+02  -9.146726508204e+01 
2 1  8.026068785081e+01  -1.627484355867e+02  -3.211900737231e+02 
3 1  2.225250478577e+01   7.380655204520e+01   9.095487648191e+01 
4 1 -1.412905625024e+02   2.698946415891e+02   6.479348354828e+01 
5 1  2.008986872013e+01   1.303908083344e+02   2.573846523451e+02 
6 1  2.328382206928e+02  -2.325986265474e+02   9.532841121192e+01 
7 1 -1.108081109886e+02  -1.471568103985e+02   1.623305231810e+02 
8 1  1.695823136451e+02  -4.194673986250e+02  -3.372363297179e+02 
8
Step 6000
1 1 -4.474878204628e+01   6.073630154269e+01  -4.287043281639e+01 
2 1 -2.119447837771e+02  -9.471225717504e+01   1.315446786751e+02 
3 1 -4.351915105845e+01  -3.339863754647e+02   5.774978583897e+00 
4 1  4.515167657132e+01  -2.451414834564e+02  -6.812568316164e+01 
5 1  4.782812432300e+02  -3.778388037926e+01  -8.418491246237e+01 
6 1  3.321871181447e+02   4.048075433667e+02  -2.007900857081e+02 
7 1 -3.304938519332e+02   2.504426091737e+02  -1.815481677525e+02 
8 1 -7.659246461427e+01  -2.936547557935e+01   5.109147228341e+02 
8
Step 7000
1 1 -7.070564769231e+01  -2.107308348461e+02  -1.896585481035e+01 
2 1  1.380663528404e+02   1.201287450440e+02  -3.333294084761e+02 
3 1  4.244382300896e+02   3.756123283234e+02   8.582965829661e+01 
4 1  1.748432700585e+02   4.325350672690e+02   8.322123080842e+01 
5 1 -1.180947720472e+02   5.792962808394e+02   1.681225263084e+02 
6 1 -3.826742275449e+02  -6.186803891265e+02   1.244777393391e+02 
7 1 -2.433713602537e+02  -4.751235183415e+02   3.073574260168e+02 
8 1  1.740719461598e+02  -1.691482401229e+02  -3.602057597792e+02 
8
Step 8000
1 1  8.751963129486e+01   7.314030961042e+01  -1.795076193434e+01 
2 1 -5.942528003998e+01  -2.066650295533e+02   4.178329751998e+02 
3 1  4.318448027240e+01  -3.906008980721e+02   1.451034061651e+02 
4 1 -1.364022938171e+02  -4.334691691843e+02  -1.794235694877e+02 
5 1 -9.804287954616e+01  -1.766358450760e+02  -1.469738079294e+02 
6 1 -9.074717729030e+01   4.903473276758e+01   4.813728774716e+01 
7 1  2.669285642591e+02   2.881696152419e+02   9.715185984590e+01 
8 1  1.171140250583e+02   5.691858635665e+02   8.257516928392e+01 
8
Step 9000
1 1 -2.318454436241e+02   3.395359911074e+02   4.813216864456e+01 
2 1  1.660659144281e+02   1.628068616879e+02  -3.710381064651e+02 
3 1  1.753921356125e+02   1.843128388013e+02  -1.752564782044e+02 
4 1 -1.934819902299e+02   3.417814827662e+02   1.388875422272e+02 
5 1 -1.411026592014e+02   7.667245161843e+01  -1.273776181088e+02 
6 1  1.266472812658e+02  -1.353985661264e+02   4.517620096029e+01 
7 1  2.697583320556e+02   5.915776647929e+01  -5.430020014000e+01 
8 1 -1.485890814141e+02  -2.573501047978e+02  -4.132975443613e+02 
8
Step 10000
1 1  4.102828455573e+02  -1.952316956055e+02  -3.405301294213e+02 
2 1 -5.220590512526e+01  -5.301766487883e+02   3.869594810927e+02 
3 1 -1.131313061204e+02  -7.624736700671e+01   3.405004375270e+02 
4 1 -3.761398113809e+02  -1.266497427529e+02  -2.775546768582e+01 
5 1  1.449618424964e+02  -5.497190762878e+01  -8.119622616957e+01 
6 1  3.519383481790e+02  -1.029745147735e+02   2.378790390942e+02 
7 1 -2.478181185814e+02  -4.923049304036e+00   1.866466689540e+01 
8 1 -1.056859986103e+02  -1.075652254024e+01   2.030211105909e+02 
8
Step 11000
1 1 -3.095711841451e+02   3.382973212755e+02   1.960903786990e+02 
2 1  1.469390742021e+02   4.070962364708e+02  -4.438262436820e+02 
3 1  4.232277327360e+00   1.154136254773e+02  -3.442186895091e+02 
4 1  1.964410936397e+02   2.402567408499e+02   1.996216245481e+02 
5 1  5.117815276488e+02   5.993848110530e+01  -1.178685376128e+02 
6 1  1.400353286153e+02   1.607147623334e+01  -6.724912530429e+00 
7 1 -5.232229677609e+02   5.238296852716e+01  -2.684452963077e+02 
8 1  1.412692326852e+02  -1.475182438939e+02   1.485207759605e+02 
8
Step 12000
1 1  4.421975043900e+02  -2.941225473979e+02  -7.887194210887e+01 
2 1  1.669765872824e+02  -2.671636740952e+02   1.071461658097e+02 
3 1  4.573488967692e+01  -3.732769561262e+00   4.706116332643e+02 
4 1  5.393302633024e+01  -1.171226972763e+01   3.790581427773e+01 
5 1 -4.392431555044e+02   2.854957857179e+02   3.633550335878e+02 
6 1 -6.641779678065e+02  -4.556072023195e+02   2.674633781109e+02 
7 1  2.924620992081e+01  -1.407990771618e+02   2.938987297422e+02 
8 1  2.875891517719e+02   3.039167893280e+02  -4.165251928782e+02 
8
Step 13000
1 1 -8.856666267718e+01   3.325463611763e+02   3.775816408367e+01 
2 1 -1.981342938464e+02   6.488909378815e+01   2.231678905694e+02 
3 1 -1.731534697421e+02  -2.876649292107e+02  -4.769805650194e+02 
4 1  4.736742078724e+01  -1.881106124919e+02  -4.081207850009e+01 
5 1 -2.771598372060e+02  -1.337780607799e+02  -3.653999286387e+01 
6 1  7.330393194804e+01   1.430126966405e+02  -3.428763338431e+02 
7 1  6.401717892422e+02   5.232250453722e+02  -1.164696736074e+02 
8 1 -2.767223402111e+02   6.392970716703e+01   2.070402688643e+02 
8
Step 14000
1 1  3.702327136614e+02  -3.396862652727e+02  -1.684556460116e+02 
2 1  3.131292523071e+02  -2.694740846195e+02  -2.654891378912e+02 
3 1  2.739591437910e+02   3.842986377616e+02   3.042755736167e+02 
4 1  8.995878980039e+00   5.417110531425e+02   3.027478519609e+01 
5 1 -1.677372330376e+02   3.186166774875e+02   2.160506890153e+02 
6 1  4.248842433931e+02  -1.810952526424e+02   1.802023918013e+02 
7 1 -1.261852524787e+02  -2.514563497018e+02   1.194257424966e+02 
8 1 -6.712492816579e+01  -2.948909547611e+02  -1.112164708831e+02 
8
Step 15000
1 1 -5.435408773302e+01   1.716365021391e+02  -2.096749020901e+01 
2 1 -2.758886730045e+02  -1.541756437137e+01   3.019329966392e+02 
3 1 -1.527454369124e+02  -1.256701105203e+02  -1.350197328023e+02 
4 1 -1.662868935704e+02  -2.679653196910e+02  -6.413387767910e+01 
5 1  1.383234115887e+02  -5.233297811002e+02  -1.972076722558e+02 
6 1 -6.397761603208e+01   5.006916006946e+01  -7.673814229145e+01 
7 1 -3.972507812331e+02   1.719568631260e+02  -2.031505429168e+02 
8 1  7.559204900859e+01   1.780289765237e+02   6.600448050767e+02 
8
Step 16000
1 1  4.564423759702e+01  -1.871769020967e+02   9.764399439820e+01 
2 1  3.512544669703e+02   1.679968725499e+02  -2.498405810137e+02 
3 1  3.060105204533e+02   4.636789034489e+02  -1.042115489283e+02 
4 1 -4.682846343700e+01   4.247084644614e+02   1.360293973394e+02 
5 1  3.199858751348e+02   2.659510109288e+02   4.445752708816e+01 
6 1 -1.085318433440e+02   3.881377029645e+01   1.626540283308e+02 
7 1  1.268008071791e+02  -7.532093389309e+01  -9.422737383042e+01 
8 1  4.161681594839e+02   6.389430111353e+01  -3.407640972198e+02 
8
Step 17000
1 1  2.135923573781e+02   1.419925627622e+01  -1.313742508438e+02 
2 1 -1.802649956156e+02  -1.963472165222e+02   3.559288517003e+02 
3 1 -4.640145717572e+02  -4.220232854814e+02   2.815236690249e+02 
4 1 -3.109883913225e+02  -6.714221997169e+02  -6.749832240234e+01 
5 1  2.678806786841e+01  -4.281404678913e+02  -1.171876156278e+02 
6 1 -4.254727912629e+02  -9.527393520635e+00  -8.036619881136e+01 
7 1  1.954066020598e+02   7.183185210395e+01  -8.476539485287e+01 
8 1 -3.190961735161e+02   3.266852244255e+02   3.743135889740e+02 
8
Step 18000
1 1 -6.852806594285e+01   2.119485959962e+02   4.386474867193e+01 
2 1  7.171855669318e+01   1.080951236917e+02  -1.631261051803e+02 
3 1 -2.629325265821e+00   1.695990603795e+02  -3.034061167026e+02 
4 1  2.378063943072e+02   4.853303718403e+02   1.421007554334e+02 
5 1  1.843790344294e+02   5.215485616394e+02  -1.489207300581e-01 
6 1  3.946985290141e+02  -2.324232652240e+02  -1.612745310400e+02 
7 1  1.417288170579e+00  -2.074047708848e+02   1.344392462909e+02 
8 1 -3.272962785691e+02  -2.884857873670e+02  -1.695415632998e+02 
8
Step 19000
1 1  2.573647638715e+02  -4.171397364730e+02  -1.597055479516e+02 
2 1 -9.216619957713e+01  -3.900742090817e+02   2.249438087251e+02 
3 1 -1.787702138749e+02  -1.052111876648e+02   4.370405446261e+02 
4 1 -1.210538256154e+01  -2.941053164921e+02  -6.978621823825e+01 
5 1 -2.277252005444e+02  -1.652972091477e+02  -1.594723872450e+02 
6 1  2.514904523213e+02  -3.628210718339e+02  -1.768828593470e+02 
7 1 -6.548209536198e+02   2.933373885807e+02   2.388257005612e+02 
8 1  9.724591828641e+01   2.400292120987e+02   1.553716728527e+02 
8
Step 20000
1 1 -6.159731789905e+02   4.070028998790e+02   3.338447317783e+02 
2 1 -2.041591166620e+02   4.543962434586e+02  -7.158521138423e+01 
3 1  5.925115018932e+01   1.962058825909e+02  -3.821916813102e+02 
4 1  6.567896258116e+01  -5.303694633130e+01   1.062909726401e+02 
5 1 -2.607218742795e+02  -7.413051610674e+01  -3.268741744428e+01 
6 1 -6.814341228673e+01   3.138763384034e+02   5.181004393218e+01 
7 1  1.058449494437e+02   1.541566684978e+02  -4.360382010303e+02 
8 1  1.466091912914e+02  -1.513840425705e+01  -1.902096266888e+02 
8
Step 21000
1 1  2.346874377151e+02  -1.450034813459e+02  -6.531775113774e+01 
2 1  1.837566834000e+02  -2.422465915836e+02  -5.246348108490e+01 
3 1  1.142402031910e+02  -6.371305244622e+01   4.131017526354e+02 
4 1  8.212491008484e+00  -6.484817216372e+01  -1.890377194355e+01 
5 1 -1.729404336578e+02   1.432862372233e+02   1.519109977759e+02 
6 1  2.656061902206e+02  -2.648035552134e+01   5.283748428099e+02 
7 1  4.572360237172e+02  -1.363772535901e+02  -1.132552340331e+02 
8 1 -1.365453526274e+02  -8.302856916826e+01  -1.447111398736e+01 
8
Step 22000
1 1 -1.530357454763e+02   3.099223192227e+02  -7.550294342210e+01 
2 1 -2.748434085056e+02   3.451148967906e+02   1.080056986600e+01 
3 1 -9.558773366597e+01  -4.829688099954e+01  -2.790894157691e+02 
4 1 -9.935039223307e+01  -2.882095574535e+02  -2.146061114777e+02 
5 1 -2.658394353188e+00  -1.333481532063e+02  -1.088860748116e+02 
6 1  2.461043036540e+02   1.063171424651e+02  -3.061124000102e+02 
7 1 -4.756258328817e+01  -1.892735136663e+01  -5.392851225248e+01 
8 1 -2.971817946605e+02  -1.749605095153e+01   1.734144660703e+02 
8
Step 23000
1 1  3.453329027872e+02  -2.900107530212e+02  -8.896546131909e+01 
2 1  3.693772637168e+02  -3.311413404835e+02  -2.013898386797e+02 
3 1  1.648312257867e+02   1.094132791123e+01   8.216928149965e+01 
4 1  5.289443424639e+01   5.377835196355e+02   8.057780124742e+01 
5 1  3.071845048245e+02   5.388953286629e+02   6.979619637377e+01 
6 1  3.144311038976e+02  -2.397696834841e+02  -5.673712356606e+01 
7 1 -5.254448333876e+02  -4.545702849768e+01   3.345853730723e+02 
8 1  4.723045229692e+01   6.249770813883e+00  -3.092586595890e+02 
8
Step 24000
1 1 -9.678985898070e+01   1.705932037784e+01  -2.029690888283e+01 
2 1 -3.459702906717e+02   1.511424329003e+02   2.031296193080e+02 
3 1 -4.344221362821e+02  -1.440433641598e+02   3.669603231618e+00 
4 1 -2.208500082336e+02  -2.653278312838e+02  -1.458526465244e+02 
5 1  2.916683606401e+02  -5.687540062756e+02  -1.288484269626e+02 
6 1 -2.269140346688e+02  -2.710811565105e+01  -3.198486372831e+02 
7 1 -1.086895483027e+02   2.187156064227e+02   1.810984165284e-01 
8 1  4.329764568372e+02   2.610401068056e+02   2.068240137325e+02 
8
Step 25000
1 1  3.952647876490e+01  -7.104625480280e+01   1.243728622500e+02 
2 1  4.662871098562e+02  -6.810667150233e+01  -4.370789303293e+02 
3 1  4.050532603403e+02   1.703722361266e+02  -2.029520450861e+02 
4 1  1.447491698177e+02   3.736006016749e+02   1.700033455654e+02 
5 1  4.404849857053e+02   1.066725296611e+01   8.250156153417e+01 
6 1 -4.590206360847e+02   2.786809823719e+02   3.386923291486e+02 
7 1  7.302583217404e+02   1.612610349358e+01  -1.076253308714e+02 
8 1 -4.642879799811e+01  -5.007421060831e+02  -4.406737122282e+02 
8
Step 26000
1 1  2.292152444365e+02  -5.247586242139e+01  -2.830402193150e+02 
2 1 -2.242726916965e+02  -8.392337815290e+01   1.376568932857e+02 
3 1 -3.384099330970e+02  -1.879587651076e+02   2.888410995033e+02 
4 1 -2.707099006562e+02  -5.562077315014e+02  -1.151662274326e+01 
5 1 -7.214440570471e+02  -1.187507982153e+02  -2.692396246866e+01 
6 1  2.275940740888e+02   1.017023604378e+02  -1.372737351390e+02 
7 1 -1.364244520569e+02  -3.064554627948e+02  -1.481061443173e+02 
8 1  2.620688839677e+01   4.719251422221e+02   8.479961516818e+02 
8
Step 27000
1 1 -1.562224539434e+02   8.215476270125e+01   1.830122223651e+02 
2 1  2.029012795131e+02  -3.273834214815e-01  -2.432967301638e+02 
3 1  1.598727859457e+02   7.218830428468e+01  -1.987906625037e+02 
4 1  1.987996127134e+02   3.460256195581e+02   1.708069362730e+01 
5 1 -1.697066606519e+01   3.866974053781e+02  -1.916916497865e+02 
6 1  5.752392652450e+02   1.685364561856e+02  -2.601632936603e+01 
7 1 -3.523756017944e+02  -1.980376452258e+02   4.120522310416e+01 
8 1 -1.183500926263e+00   9.655034258755e+01  -3.937934799838e+02 
8
Step 28000
1 1  2.656480110242e+02  -1.791040639460e+02  -1.975034714345e+02 
2 1 -2.179473626763e+02  -1.438283212706e+02   3.922901047242e+02 
3 1 -3.371943990759e+02  -2.179625402737e+02   3.813418506193e+02 
4 1 -1.520550280132e+02  -7.945624513559e+01  -8.460706965712e+01 
5 1 -4.219123079464e+01  -2.154123219352e+02   1.635942463657e+02 
6 1 -2.548756700772e+02  -1.032580058737e+02  -2.911865903340e+01 
7 1 -7.164300319991e+01   4.547504988966e+01   5.328805844505e+01 
8 1  3.389715845873e+02   1.060954896333e+02   1.015234219666e+01 
8
Step 29000
1 1 -4.964250421456e+02   2.672191273378e+02   4.516702908818e+02 
2 1  1.544232213570e+02   3.772292248450e+02  -3.330965894527e+02 
3 1  1.813856244210e+02   1.217890886843e+02  -6.033562165377e+02 
4 1  8.365992469350e+01   6.938067456295e+01   5.484628024333e-01 
5 1  2.922404717334e+02  -2.152621138375e+02   2.118114422326e+02 
6 1 -3.237471779900e+02   8.295689704149e+01  -5.575815958007e+01 
7 1  6.224066897616e+02   2.074796280784e+02  -1.120396698665e+02 
8 1 -4.552223058570e+01  -3.750998277579e+02  -4.168353576311e+02 
8
Step 30000
1 1  2.927525708025e+02  -2.028274754314e+02  -2.100761796826e+02 
2 1  1.217181276222e+02  -3.056694726823e+02   5.757573003876e+01 
3 1 -3.842049553385e+01  -1.014352833831e+02   1.761801582290e+02 
4 1 -2.723932969486e+01   1.181220422469e+02   2.682547255403e+02 
5 1 -9.092736908538e+01   6.460534364621e+01  -6.632026596100e+01 
6 1 -1.565309306916e+01   2.239353589080e+02   2.970330124093e+02 
7 1  1.387929778795e+02  -2.815355796232e+02  -6.010961850311e+01 
8 1 -2.055811183204e+02  -7.917841954114e+00   1.297001003319e+02 
8
Step 31000
1 1 -4.733094248450e+02   2.668995804135e+02   3.210697974034e+02 
2 1 -2.836439890463e+02   4.375180218779e+02   8.316192941966e+01 
3 1 -1.454317806553e+02   2.800994743661e+02  -3.874530518329e+02 
4 1  1.010861017665e+02  -2.239199540763e+02  -4.937650179196e+01 
5 1 -2.544390762759e+02   7.666741195392e+01  -3.643475171760e+02 
6 1  3.860134491149e+02   8.945218128263e+01  -1.463098137512e+02 
7 1 -5.717292728308e+02  -5.524651454561e+02  -1.248938598266e+02 
8 1 -3.627974809176e+02   3.084685860999e+02   2.320932015592e+01 
8
Step 32000
1 1  1.721377187241e+02  -2.461939767585e+02  -1.139849168628e+02 
2 1  3.316663292048e+02  -4.324814980556e+02  -1.405332407405e+02 
3 1  3.117186454475e+02   1.293246346180e+01   1.513263965699e+02 
4 1  3.463033051503e+02   1.577264435481e+02   1.570232537602e+02 
5 1  3.679318487978e+02   8.788401448499e+01  -6.686840612308e+01 
6 1 -2.871398141884e+02  -2.645238915744e+02   2.461487615990e+02 
7 1  1.701313512128e+02   4.054832641378e+01   2.392720156936e+02 
8 1  3.633577301300e+02  -1.810253504567e+02  -2.525406490682e+02 
8
Step 33000
1 1 -1.850247494513e+02   2.276762856270e+02   1.408181624840e+01 
2 1 -4.032182538883e+02   1.949835722025e+02   1.532067183391e+02 
3 1 -2.920112202623e+02  -2.571686511350e+01  -1.062937246424e+02 
4 1 -9.571448749923e+01  -3.732339700141e+02  -2.071713958912e+02 
5 1 -9.924813247432e+01  -5.158828224991e+02   3.508753380839e+02 
6 1 -4.048938405045e+02  -2.606707164439e+01  -1.091367889735e+02 
7 1  2.768786220141e+02   5.981866523644e+02  -3.343700335655e+01 
8 1  8.069910515292e+01   4.197119953310e+01   3.186742392847e+02 
8
Step 34000
1 1  2.796115961942e+01  -1.437877264515e+01   1.083892951196e+02 
2 1  6.896172730497e+02  -3.825933792030e+02  -3.993375600887e+02 
3 1  5.925639851055e+02   2.621560118984e+01  -1.405224641377e+02 
4 1  4.086686711493e+02   5.184280410733e+02  -2.281269293651e+01 
5 1  3.394922464398e+02   3.899072724638e+02   1.185859156321e+02 
6 1  6.834859241759e+01   3.731134703582e+01   1.371657939813e+02 
7 1  3.991774286615e+02  -4.775771514726e+02   2.356132593485e+01 
8 1 -3.696514314906e+02  -5.752290977650e+01  -1.344663474887e+02 
8
Step 35000
1 1  1.120506178007e+02  -1.519988324427e+01  -2.079072337221e+02 
2 1 -2.272968938725e+02   2.803674078130e+01   1.157494588481e+02 
3 1 -4.850825797685e+02  -1.886287281635e+01   1.409376700399e+02 
4 1 -4.533384632278e+02  -2.600658354626e+02  -1.844943641956e+02 
5 1 -5.019423217992e+02  -2.474370836489e+02   2.736382407031e+00 
6 1  2.629933737321e+02  -1.139457989056e+01  -3.510843186357e+02 
7 1 -2.095653635936e+02  -3.090732772119e+02   1.340587083443e+00 
8 1 -5.687520363989e+01   3.570870633747e+02   3.416706483539e+02 
8
Step 36000
1 1 -3.644039476381e+02   4.691833181070e+01   5.269335347361e+02 
2 1  3.590843028854e+02   6.012649743186e+01  -2.231306403224e+02 
3 1  4.987801664857e+02   6.089130610891e+01  -3.028265310612e+02 
4 1  2.696667199084e+02   1.622632497325e+02   6.397448775757e+01 
5 1  6.526351688637e+02   2.698004020189e+02  -7.124201691484e+01 
6 1  7.873251138899e+02  -2.852633053989e+02   2.911653918717e+02 
7 1 -2.069166330417e+02   1.309701478746e+02   6.502035166889e+01 
8 1  1.874024801568e+02  -9.202900564938e+01  -6.236822452363e+02 
8
Step 37000
1 1  2.611440143421e+02  -7.959411801653e+01  -3.511647986638e+02 
2 1 -1.198052474793e+02  -1.498603218489e+02   3.560076774191e+00 
3 1 -2.824277947332e+02  -1.679674957642e+02   8.830636019908e+01 
4 1 -3.753036511789e+02  -1.583822956710e+02   3.676722656674e+01 
5 1 -5.178440566787e+01  -2.158718101653e+02  -1.947021372017e+01 
6 1 -3.914234584459e+02  -1.624642961433e+02  -3.068581492844e+01 
7 1 -3.455178690629e+02   1.901029126004e+02  -8.191975976406e+01 
8 1  3.044747538696e+02   7.702029263523e+01   2.506328917492e+02 
8
Step 38000
1 1 -3.568847248801e+02   1.834169193995e+02   4.212819757317e+02 
2 1  7.989390013834e+01   2.095226634323e+02  -1.077140276812e+02 
3 1  1.457222697864e+02   7.987769120034e+01  -2.750116898321e+02 
4 1  7.315507934885e+01   1.097327967863e+01  -8.615974731881e+01 
5 1  3.470882636391e+02   1.424698418653e+02  -2.562361034789e+02 
6 1 -1.270477969979e+02   1.635534359354e+02   2.142098635715e+01 
7 1 -4.865003996251e+01   2.646203578783e+02   1.820157962695e+02 
8 1 -2.660681353766e+01  -2.447769899913e+02  -3.335231970857e+02 
8
Step 39000
1 1  4.578067284611e+02  -2.801128118441e+02  -4.150592008962e+02 
2 1  6.613750885943e+01  -5.963377013937e+02   1.825931492806e+01 
3 1 -7.296685502593e+01  -1.028443267464e+02   2.008884245554e+02 
4 1 -1.480623584471e+02   1.126013875509e+02   2.626142883407e+02 
5 1  2.039548385570e+02  -1.665519841586e+02   7.716315601223e+01 
6 1 -3.779786352578e+02  -7.909936896077e+01   1.753957051927e+02 
7 1  2.734275687328e+02  -2.391099968922e+01   1.139626995868e+02 
8 1  3.712192127868e+01  -3.000698158478e+02  -1.999775514519e+01 
8
Step 40000
1 1 -2.046592181551e+02   1.100380639241e+02   1.712465071586e+02 
2 1 -1.585906919497e+02   2.033327319115e+02   5.652976591359e+00 
3 1 -4.248070539399e+02   3.643799873853e+02   1.049511701641e+00 
4 1  1.496533197814e+02  -1.067237514498e+02  -1.345465563860e+02 
5 1 -2.608276194692e+02   5.682902409955e+01  -3.352777722737e+02 
6 1 -1.910622988389e+02   8.782054925450e+01   3.711994274340e+01 
7 1  3.422886633595e+02  -5.994703847184e+01  -9.914136817460e+01 
8 1 -2.903463873067e+02   2.329310917741e+02  -6.997791976357e+01 
8
Step 41000
1 1  1.887777828506e+02  -1.606659979291e+02  -6.942899137042e+01 
2 1  2.777455458326e+02  -3.362720510277e+02  -1.642907267430e+02 
3 1  2.146451816627e+02  -3.340749094774e+02   7.519408569577e+01 
4 1  4.291296950005e+02   6.524879112790e+01   1.395924533027e+02 
5 1  3.358320577162e+01   1.386816933236e+02   1.267861073577e+02 
6 1  5.036549471946e+02  -3.189693118019e+02   3.053349810394e+02 
7 1 -2.862952028260e+02  -6.388059288087e+01  -2.263317088003e+02 
8 1  1.177981063102e+02   3.142046075918e+01  -1.138055454478e+02 
8
Step 42000
1 1 -2.432254928445e+02   3.021840502153e+02  -3.352988031259e+02 
2 1 -3.489609414464e+02   4.524182401426e+02   7.808126263671e+01 
3 1 -4.757879340898e+02  -6.375967766853e+01  -5.041411260855e+01 
4 1 -1.295071945674e+02  -1.220328934137e+02  -3.079123329535e+02 
5 1 -7.784419910827e+02  -7.714601850319e+01  -4.739391578684e+01 
6 1 -2.128502304796e+02   9.384407588980e+01  -3.252763489278e+02 
7 1 -3.610883946523e+02   2.585334263593e+02  -4.240672438449e+01 
8 1  2.261544122271e+02   7.514549797440e+01   1.418213429808e+02 
8
Step 43000
1 1  6.241181634272e+01  -1.372344188957e+02   1.354816989693e+02 
2 1  5.078336398134e+02  -3.673053481426e+02  -5.173873345358e+01 
3 1  3.026108815537e+02  -3.021007805199e+02   9.410670507302e+01 
4 1  3.573687409936e+02   3.301195230205e+02   2.452947616627e+01 
5 1  1.347763302275e+02   1.586569427917e+02   2.917252497347e+02 
6 1  3.303775048092e+02  -2.485134027890e+02   2.304014682288e+02 
7 1  6.334018323306e+00  -3.025228297507e+02   4.872995588136e+02 
8 1 -5.776257235967e+01  -5.700779173096e+02  -3.664311121965e+02 
8
Step 44000
1 1  7.528296023959e+01   4.270147041878e+01  -3.378971274178e+02 
2 1 -4.040734907218e+02   2.527515398270e+02   1.800428244573e+02 
3 1 -5.008264136379e+02   2.095459272054e+02   1.801370903081e+02 
4 1 -4.297255982097e+02   1.267119520218e+02  -3.032768173721e+02 
5 1 -2.406838366424e+02  -5.019640862648e+02   1.848237117773e+01 
6 1 -4.239721661615e+02  -1.598460545378e+02  -6.556881923342e+02 
7 1  4.568031013922e+01   2.235900133706e+02   9.889535239549e+01 
8 1  3.560788726941e+02   1.311508734168e+02   5.385185526466e+01 
8
Step 45000
1 1 -1.230987346834e+02  -1.084585161999e+01   3.778253527352e+02 
2 1  2.559985585733e+02   9.587795363809e+01  -2.729851074401e+01 
3 1  4.542814963022e+02   2.649783126671e+02   5.707282691113e+01 
4 1  5.559686526061e+02   6.991596717130e+01  -9.448086191249e+01 
5 1  5.903750642320e+02  -2.558441782640e+02   6.348321166944e+01 
6 1 -1.035194660622e+02  -2.653030791616e+01   6.260904738197e+01 
7 1 -1.483783400751e+02  -2.241265417091e+01   6.287497509956e+02 
8 1 -1.618564237489e+02  -4.366406023816e+00  -5.593327889192e+02 
8
Step 46000
1 1  2.365340868896e+02  -1.193426017808e+02  -3.748094467532e+02 
2 1 -2.620029499040e+02  -2.389065762941e+02   9.668104950861e+01 
3 1 -2.616134819455e+02  -2.123649402250e+02   1.385575009244e+02 
4 1 -3.826684734912e+02  -5.019826499545e+02  -2.371809089917e+02 
5 1 -2.022394706592e+02  -3.862497248148e+02   5.313529644529e+01 
6 1 -2.836136333395e+02   1.331361953336e+02  -1.656401474589e+01 
7 1  1.171930370678e+02   4.704701793091e+01  -1.120196859997e+02 
8 1  2.060315347796e+02   5.805942630987e+00   3.704273723738e+02 
8
Step 47000
1 1 -3.600696885476e+02   1.492284809819e+01   6.208346109747e+02 
2 1  8.546163469287e+01   4.453537587445e+02   6.477793417414e+01 
3 1  3.201770143995e+02   2.197140315831e+02  -1.049296181596e+02 
4 1  1.499406114210e+02   3.562221632170e+01  -2.061837160648e+02 
5 1 -9.550844163910e+01   4.860548113524e+02   2.094997982696e+01 
6 1 -2.556376496849e+02   2.293884097758e+02   6.384132158313e+01 
7 1  1.562383635184e+02  -5.451123642922e+01   3.699036707328e+01 
8 1 -1.119238013822e+02  -1.666543834465e+02   1.840430957083e+00 
8
Step 48000
1 1  3.675537961656e+02  -1.864447606841e+02  -3.478042408154e+02 
2 1  1.308224719731e+01  -5.630588281931e+02  -7.900633196441e+01 
3 1  1.747044317001e+02  -1.648147342728e+02   1.418590448285e+02 
4 1 -5.177783586970e+02   6.318758959897e+01   4.564532535405e+01 
5 1 -6.224887700928e+02   3.057153381088e+02   1.283832190872e+02 
6 1  1.968006081763e+02  -3.687154254877e+02   3.154699141206e+02 
7 1  3.974525130172e+02  -3.225883903101e+02  -2.124407745994e+02 
8 1  1.708913987145e+02  -1.888767126945e+02  -7.183302605065e+01 
8
Step 49000
1 1 -2.583513980233e+02   2.116281516048e+02   2.949378689932e+02 
2 1 -9.039988497892e+01   2.959501033453e+02  -4.151317780680e+01 
3 1 -5.384186754839e+01   5.662597483331e+02  -1.390811104610e+01 
4 1 -2.682068940436e+02   3.998572779009e+01  -3.281354601757e+02 
5 1  9.903545126783e+01  -2.400226344218e+01  -1.160294517760e+02 
6 1  1.732468773700e+02  -3.552187215807e+02  -1.185390929706e+02 
7 1 -1.456798867938e+01   3.275389624905e+02  -2.809898723098e+02 
8 1 -3.883826542080e+02   3.889953538175e+02   1.490441597019e+02 
8
Step 50000
1 1  3.700268844090e+02  -1.333735643377e+02  -2.881206052472e+02 
2 1  2.459611490776e+02  -5.034356748997e+02  -1.276020929598e+02 
3 1  1.321799264897e+02  -3.162637736267e+02   1.452435011665e+02 
4 1  1.053986390656e+02  -3.415925590624e+02   1.050707646790e+02 
5 1  3.026758474736e+02  -4.605477837957e+02   1.089002153350e+02 
6 1 -5.566875577002e+01  -7.978980447758e+01   3.156432142102e+02 
7 1 -3.491689507343e+02   1.781579825071e+02   2.822503097854e+02 
8 1  2.313776446488e+02  -2.755005231628e+02  -2.262594061468e+02 
8
Step 51000
1 1 -8.125434357825e+01   9.360883205548e+01  -1.070841307415e+02 
2 1 -1.907556156377e+02   3.906087087660e+02   1.966999481731e+01 
3 1 -4.217889858848e+02   5.382198452623e+02  -1.526423094592e+01 
4 1 -2.442397429833e+02   1.652943814216e+02  -3.939684754739e+02 
5 1  4.042872524166e+00   3.076512491832e+01  -1.965025391195e+02 
6 1 -3.986979714142e+02   4.233148895509e+02  -2.279554731925e+02 
7 1  1.962559239904e+02   1.372985358375e+00  -2.925506353001e+02 
8 1  7.100244018418e+01   5.887121338732e+01   4.298530268236e+02 
8
Step 52000
1 1  1.417032171358e+02  -1.673038739137e+02   3.936037098124e+01 
2 1  1.925581548233e+02  -4.918303400894e+02   4.923694314784e+01 
3 1  1.252857147608e+02  -4.564689690347e+02  -8.918929041837e+01 
4 1  2.622909780642e+02   9.351384170534e+01   2.731670895028e+01 
5 1 -1.937401057346e+02   2.715547429959e+02   5.869977442129e+02 
6 1  1.713046767198e+01   1.348248782876e+02   4.784780879360e+02 
7 1  2.763459480894e+02  -4.479421840117e+02   1.632031812269e+02 
8 1 -2.250569588597e+02  -1.751508602690e+02  -4.160493006507e+02 
8
Step 53000
1 1  6.098863749802e+01   6.751416695806e+01  -2.174262100556e+02 
2 1 -2.545909964272e+02   8.760395680743e+01   8.442421545600e+01 
3 1 -3.895370043754e+02   1.985951164702e+02  -1.584816581597e+02 
4 1 -3.072685725670e+02   3.031550571732e+02  -1.293475996834e+02 
5 1 -4.245842407129e+02  -1.013482927859e+02  -3.971505908425e+01 
6 1  3.822315471882e+02  -5.118131187096e+02  -5.867055282556e+02 
7 1  3.389630279211e+01   1.183369561208e+02  -2.618032167232e+02 
8 1 -5.016882052690e+01   3.441886176720e+02   4.261560746340e+02 
8
Step 54000
1 1 -8.567115905870e+00  -2.103047736455e+02   5.101166928859e+02 
2 1  4.591868954224e+02  -2.178867137272e+02  -1.316381817629e+02 
3 1  3.664829118362e+02   2.016315370032e+01  -1.661535839625e+02 
4 1  4.804062970136e+02  -2.842816363352e+02  -2.195149267306e+02 
5 1  2.334466926647e+02  -2.863388680337e+02   3.437242274808e+02 