8
Step 0
1 1 6.71506416711662238e-03 6.49167539545825092e-04 7.55905881043412303e-03
2 1 6.80187192990081620e-03 -7.14529034888187076e-03 2.80830314334164525e-05
3 1 1.35396276929549840e-03 3.61703981870044712e-03 5.96866704044804290e-03
4 1 3.90406982196184627e-03 -5.04516060726575063e-03 5.82195370525365099e-03
5 1 -7.94816050768093821e-03 4.04532223788039817e-03 -3.88696007944830738e-03
6 1 1.09199370770444292e-02 1.25505674945915018e-02 -1.18654993095461160e-02
7 1 1.56996477508037388e-03 5.52022631513145005e-03 -6.57327494686332260e-03
8 1 2.28840723532842873e-03 7.40181392547528683e-03 -2.57480642140814515e-04
8
Step 1000
1 1 4.81022958357175034e-04 -7.53746700345369648e-03 -1.18401200893661213e-02
2 1 1.41524998662056643e-03 -2.24336523622999974e-03 -7.32640766107709850e-03
3 1 -5.36255461816650871e-03 -1.02384052976589191e-02 -9.99706045460035768e-03
4 1 -5.71237342605897583e-04 5.69551967819239766e-03 -1.80106814983143899e-03
5 1 9.48461015990538156e-03 -7.40184663379611120e-03 -6.90807530902134113e-03
6 1 -8.29807228532663220e-03 -3.99780456333302756e-03 1.36128718774477780e-02
7 1 -4.37363433579533896e-03 -6.02400319692994804e-03 6.26373600487505761e-03
8 1 -7.93415027307436613e-03 -8.89328027183606921e-03 5.77757131666048387e-03
8
Step 2000
1 1 -6.63983010674433407e-03 8.15864372122774607e-03 1.46973135935483893e-02
2 1 -8.56392935364033020e-03 7.98566121857547870e-03 1.49008096153740235e-02
3 1 9.44494407351159811e-03 1.16623913230911747e-02 1.26263263956734872e-02
4 1 -7.65710674510270296e-04 -3.85636982558442646e-03 -2.23454220212572887e-03
5 1 -6.29063461172853482e-03 6.76563859933991627e-03 1.10650795934311222e-02
6 1 2.89391824665266280e-03 -1.88800264664635252e-03 -1.03926076524429277e-02
7 1 3.21535210864326917e-03 3.08263074157837449e-03 -2.10872743231237114e-03
8 1 9.50647309136141636e-03 6.97986405187036793e-03 -7.34253047687904569e-03
8
Step 3000
1 1 8.47806334419522710e-03 -2.63415693536071067e-03 -1.49023025151818062e-02
2 1 1.05874630502537179e-02 -8.17054185093030010e-03 -1.63809073147654811e-02
3 1 -1.05597886188454580e-02 -1.29164441955917399e-02 -1.36922373570256984e-02
4 1 1.94663875583052978e-03 1.27363084672032991e-03 5.73771042231268832e-03
5 1 2.37036140273398383e-03 -5.19548126972251782e-03 -1.14262639189952903e-02
6 1 9.96508211296105105e-05 6.37000644146911137e-03 7.43152979550679160e-03
7 1 2.56650268055563617e-04 -2.14207464719304037e-03 -3.31401337165483992e-03
8 1 -4.73602185254281063e-03 -5.44369514007289005e-03 5.71438836826956755e-03
8
Step 4000
1 1 -5.30246552138509929e-03 -6.66277239677059898e-03 1.29661420703682754e-02
2 1 -6.24428929814873322e-03 3.38958532789786432e-03 1.02998975418398583e-02
3 1 8.22727320681236433e-03 1.28415600474852554e-02 1.28572899673470228e-02
4 1 -5.59417396926143503e-03 2.17757342165472408e-03 -6.85991393200173927e-03
5 1 2.38260649553916461e-03 3.97585233086558167e-03 1.07553500648200854e-02
6 1 -1.59130630422478795e-03 -9.04165434749045101e-03 -3.36222819652805044e-03
7 1 -3.83462972305448607e-03 3.71970819855727171e-03 9.57548048029401369e-03
8 1 -1.37490317323155721e-04 4.85133220871749281e-03 -6.06403613336143135e-03
8
Step 5000
1 1 -1.05638335692657959e-03 1.82097109612643221e-02 -1.09603092656178208e-02
2 1 1.09424615161178161e-03 1.03791708965638124e-03 -4.08198538169770100e-03
3 1 -3.30673378661064821e-03 -1.14393473447553465e-02 -1.08113955778058237e-02
4 1 1.05436954671773529e-02 -5.66656250561724077e-03 4.54393995941245604e-03
5 1 -6.08169014040494012e-03 -4.13767156497018510e-03 -1.01578451805864299e-02
6 1 5.12927928814997831e-04 9.74636223473840553e-03 -3.30352794502237828e-04
7 1 4.99127298314754400e-03 -5.94081476494321380e-03 -1.51534313410436692e-02
8 1 4.92097085011243985e-03 -2.22207484691987157e-03 7.04841159149827753e-03
8
Step 6000
1 1 8.52137483124832014e-03 -2.78372009290568483e-02 9.34651539869538368e-03
2 1 4.67130475141472670e-03 -3.69755732126417734e-03 -1.40058740892291421e-03
3 1 -2.78438522250876045e-03 9.10426895136132348e-03 8.21150301268944866e-03
4 1 -1.45611914493297603e-02 8.22540890100557053e-03 1.24913704766149800e-03
5 1 8.14541623144198444e-03 6.31952830080924430e-03 1.04096063589696110e-02
6 1 3.49536119325860551e-03 -9.30778450538660360e-03 2.42235618799761842e-03
7 1 -1.17034701246265414e-03 5.85962579188018234e-03 1.56646425030513604e-02
8 1 -7.57627109492880254e-03 -2.42120578990649097e-03 -7.75205981555147396e-03
8
Step 7000
1 1 -1.07601971199611495e-02 2.15970945316300532e-02 -5.79269043226157861e-03
2 1 -1.17162411540947010e-02 5.42273932062088074e-03 5.58864940795462690e-03
3 1 9.45478418534878920e-03 -6.07948616521191473e-03 -5.69157067559311700e-03
4 1 1.39227449737276462e-02 -8.34545913914772237e-03 -7.22697173507207222e-03
5 1 -8.31351771628077718e-03 -7.46408905694481532e-03 -8.87217199014640398e-03
6 1 -9.66255063789610638e-03 7.46405406756728805e-03 -3.43096859206734042e-03
7 1 -6.43368528220237840e-03 -2.35716841400861144e-03 -9.57780540276267217e-03
8 1 6.92712979061191163e-03 6.07052684208578622e-03 7.29480754093813754e-03
8
Step 8000
1 1 7.97010909677478389e-03 -6.63853229327376199e-03 4.48774704638502369e-03
2 1 1.98968793653327425e-02 -6.31285360669506159e-03 -6.16226215143768612e-03
3 1 -1.58161511590686511e-02 3.61417915459009845e-03 1.42388684761586104e-03
4 1 -7.27309261838389714e-03 4.90810768447279017e-03 8.87913600641740929e-03
5 1 6.09742598180516675e-03 5.45272588949253199e-03 5.93687937048135474e-03
6 1 1.44126731707895535e-02 -2.64187298722931606e-03 3.19607184826549949e-03
7 1 1.25572471850861726e-02 -2.08276949092417061e-03 1.24754948579033930e-03
8 1 -4.08972737283709933e-03 -5.72224094645635943e-03 -5.27684851424493461e-03
8
Step 9000
1 1 -6.23003771032491424e-03 -4.31414406975005535e-03 -7.24580335194701438e-03
2 1 -2.52363230862846302e-02 4.63129033646177395e-03 1.09421346820090569e-03
3 1 1.81314406332852146e-02 -2.58369664461900999e-03 5.97781146379280752e-03
4 1 6.24331728762583696e-04 -3.51944301887675056e-03 -8.36813095652180761e-03
5 1 -3.86084241888959854e-03 -2.67786601927475680e-03 -3.89211167704204023e-03
6 1 -1.48536433985986850e-02 -1.39210206879663905e-03 -3.25357264793992322e-03
7 1 -1.36398748200315754e-02 4.76336496262773010e-03 4.27653194996760379e-03
8 1 2.35158053113725075e-03 1.14193436354405797e-03 3.98448278719133048e-03
8
Step 10000
1 1 4.70532355676568214e-03 1.11044876801718161e-02 9.80715091642935834e-03
2 1 1.86910516465704432e-02 4.47118941003760303e-04 6.29461294647717419e-03
3 1 -1.70447019151003486e-02 2.70435803841601735e-03 -1.12500815074192077e-02
4 1 1.79380670862557749e-03 7.73881811724845287e-03 9.00789306875793110e-03
5 1 9.39214418637520005e-04 1.34252641959950610e-03 2.97931857087579185e-03
6 1 1.22409572920090613e-02 5.71834824355818647e-04 5.74829453926519948e-03
7 1 1.13863888697162009e-02 -6.64488593980637997e-03 -5.82904167160422110e-03
8 1 -2.22009324681321681e-03 6.02652222918230625e-03 -1.94548425501205892e-03
8
Step 11000
1 1 -3.01426673320062156e-03 -1.18305502092951684e-02 -1.13050551616555375e-02
2 1 -7.00372212918093200e-03 -2.36696010844205306e-03 -8.79374706407105161e-03
3 1 1.62861292373563359e-02 -4.42219066831808522e-03 1.06354305593189431e-02
4 1 2.30265490257507708e-03 -1.33200934830867077e-02 -1.17036750362000310e-02
5 1 3.63570498808487002e-03 -1.36456870778031724e-03 -2.15138133915295611e-03
6 1 -8.83670616792434603e-03 1.79400867712834248e-03 -8.97775754536198067e-03
7 1 -6.78807421553895979e-03 8.11153385212336729e-03 4.84259822810276502e-03
8 1 2.00760133085947168e-03 -1.95436739931545179e-02 -1.88170019101901336e-03
8
Step 12000
1 1 3.61300750019588645e-04 5.30356938238576211e-03 1.03828618827039795e-02
2 1 2.11024857190259939e-03 2.93603974669682990e-03 7.72568215124418058e-03
3 1 -1.43594835041517040e-02 5.68200331795033590e-03 -7.15573589985348847e-03
4 1 -8.32122947259729927e-03 1.59635042204782432e-02 1.53928130420843811e-02
5 1 -1.08872725539466107e-02 1.93664794780172068e-03 7.20932885527916811e-04
6 1 5.90460457389287326e-03 -4.05229691851469523e-03 1.11492785348476352e-02
7 1 1.19616366437077072e-03 -8.32029798059181862e-03 -2.33682941111578064e-03
8 1 -5.03552081563553213e-04 2.58591459782551193e-02 8.86780431638250002e-03
8
Step 13000
1 1 -3.20342507914185960e-04 2.03534228059614559e-03 -8.35977474399276187e-03
2 1 -2.37743198291572467e-03 -4.59034424374710984e-03 -5.01368210676131354e-03
3 1 1.03815994260117415e-02 -4.75324647614945583e-03 2.77125033584345835e-03
4 1 7.32640823782794957e-03 -1.07163922751368282e-02 -1.21742413291893916e-02
5 1 2.04175767699357955e-02 -1.75589978156159539e-03 9.07494485278440596e-04
6 1 -4.21842182127956256e-03 4.99961613620653143e-03 -1.07223931637202598e-02
7 1 3.18503036659519012e-03 7.01327007781929988e-03 -1.53431398405942963e-04
8 1 -2.82752338859936295e-03 -1.73565641554722025e-02 -1.16293998765420806e-02
8
Step 14000
1 1 2.56850203096487591e-03 -5.68893935104712763e-03 7.49084207067479690e-03
2 1 4.67989794716055368e-03 6.26277345643214828e-03 -1.22019688913765044e-03
3 1 -5.72189851912071733e-03 1.68171792864292157e-03 1.52101006995143217e-03
4 1 -3.77986830869674918e-03 3.51179860727693230e-03 9.34304890895063835e-03
5 1 -2.10827351275132933e-02 1.01476541442672161e-03 -3.52139632131561386e-03
6 1 4.89459813568591130e-03 -3.62364690713548295e-03 6.78988998057467475e-03
7 1 -4.16648303539027178e-03 -5.31253184453461640e-03 -8.84451811936995007e-05
8 1 6.53649945793766726e-03 2.97395201048549071e-03 1.16350646523967829e-02
8
Step 15000
1 1 -5.21185492962119874e-03 5.73793144033522742e-03 -8.01557509508552674e-03
2 1 -5.52381421377596323e-03 -8.94042974404174809e-03 9.21202534115567705e-03
3 1 2.09961362903596932e-03 3.09718402790756060e-03 -5.25668655079605286e-03
4 1 -7.93919432562609781e-04 -1.97552731670067939e-04 -7.91960997984958795e-03
5 1 1.95374126716552562e-02 1.20785248267579683e-03 6.14173184899664912e-03
6 1 -7.47335617909149555e-03 5.30243311454794584e-04 -1.91917630897775991e-03
7 1 2.47389233657486140e-03 2.78152469098552841e-03 2.05118106249248559e-03
8 1 -7.94769754248567106e-03 9.53794281223525886e-03 -9.12769431188596540e-03
8
Step 16000
1 1 8.50162473173429571e-03 -3.10863065784126478e-03 8.86524043510978146e-03
2 1 4.59025751618121532e-03 1.04415081623503558e-02 -1.58433745951662812e-02
3 1 -1.10480220019914914e-03 -8.81826906368210831e-03 9.58341521936865656e-03
4 1 4.60364628636228401e-03 -4.67205478274553693e-04 6.75524729869591764e-03
5 1 -1.65620186184945034e-02 -3.94375738380691853e-03 -6.62041311528621581e-03
6 1 2.21719548605283376e-03 1.24962405982029885e-03 -2.98554752059339474e-04
7 1 -6.18303593679606187e-04 1.51988835825648790e-03 -4.76986062679590154e-03
8 1 6.71773681217880531e-03 -1.46992509993162466e-02 4.62544847067791753e-03
8
Step 17000
1 1 -1.21180958621167432e-02 -2.32119737692697715e-03 -7.15651901901763997e-03
2 1 -1.15943809521953478e-03 -8.74394911762734275e-03 1.84104474376742336e-02
3 1 2.37483870656877505e-03 1.13115182998552565e-02 -1.47196126051069610e-02
4 1 -6.45079038156439605e-03 -2.24963978939794100e-03 -6.24678159784204136e-03
5 1 1.10819526111047804e-02 5.80951463340522323e-03 3.22169220827576899e-03
6 1 -8.33127980891536094e-04 -5.43218987091997202e-03 2.27223951796600007e-04
7 1 -4.68303802455966468e-03 -7.68538198960111267e-03 5.79070811539372007e-03
8 1 -4.34471450350549376e-03 1.14445025030878045e-02 -1.19851502222530692e-03
8
Step 18000
1 1 1.31786172371037326e-02 6.36130030330412603e-03 3.45192130249410934e-03
2 1 -3.23282012811358698e-03 6.26256305282915388e-03 -1.56592908668880745e-02
3 1 -4.40846370004054685e-03 -7.81877784546041246e-03 1.63108304663805888e-02
4 1 3.87299831304741471e-03 5.16383487788700610e-03 4.47205285533267601e-03
5 1 -6.80676710492524300e-03 -7.77011241353037490e-03 1.49526001042336507e-03
6 1 -6.42780780391828763e-04 6.03406283716847926e-03 2.81035788003662027e-03
7 1 1.03637689310725218e-02 1.16738758656184903e-02 -3.93296979769404333e-03
8 1 2.03681224372359408e-03 -3.94078016977589870e-03 -8.47964684993716359e-04
8
Step 19000
1 1 -1.19859826483066020e-02 -6.72194554295960610e-03 -1.64752647787555669e-03
2 1 6.54460248671724382e-03 -3.82673925229188227e-03 1.00883627805759771e-02
3 1 5.60019316472195727e-03 6.28600372132318659e-04 -1.43899494872310792e-02
4 1 3.75719336791835532e-03 -4.57784736694249062e-03 -1.58105370419321135e-03
5 1 4.01599403486813545e-03 1.09345529762053771e-02 -6.01044785684329026e-03
6 1 2.15232545563430553e-03 -4.77522683619643808e-03 -6.17170652325455937e-03
7 1 -1.43255828909334849e-02 -1.15034147509633904e-02 -1.92456543436921929e-04
8 1 -2.70263032752010839e-03 -1.49158810412166470e-03 2.10712103313037604e-03
8
Step 20000
1 1 9.35020763312714547e-03 4.25559011408485795e-03 3.06542386411187999e-03
2 1 -8.15136468145961392e-03 1.73568349722298914e-03 -4.23680030345028290e-03
3 1 -5.40521119794391217e-03 7.25551790005832427e-03 9.93330107183023649e-03
4 1 -1.12816726817076395e-02 1.58403083975057393e-03 4.36167309922787954e-04
5 1 -1.29631389533938239e-03 -1.34292589251173017e-02 9.56706099922636881e-03
6 1 -5.00912496571504547e-03 5.03578545136712519e-03 7.53442936688486237e-03
7 1 1.44291843257450987e-02 7.80882807288382341e-03 4.79207210163527450e-03
8 1 5.25865993506978609e-03 4.00543938713490959e-03 -3.83045014713155520e-03
8
Step 21000
1 1 -6.70833324835346054e-03 -1.22682903386138378e-03 -5.19305028836029858e-03
2 1 9.05900871239343972e-03 1.33934600711083139e-04 -6.03408516866442922e-04
3 1 3.62442956334252560e-03 -1.19943009793202961e-02 -4.13267711954895100e-03
4 1 1.59092494545598519e-02 3.49051432926822261e-03 -1.88500690616616928e-03
5 1 -1.13385737591946878e-03 1.10467304245248001e-02 -9.94077896587956984e-03
6 1 1.16177421727806391e-02 -1.11396450379568079e-02 -2.59905110400865912e-03
7 1 -9.96472143376163702e-03 -2.81918411238351327e-03 -7.44434191241568829e-03
8 1 -7.75055130642369854e-03 -2.73996607638832875e-03 5.99851168760540034e-03
8
Step 22000
1 1 4.56773245435281375e-03 -6.36878474372886251e-04 6.70791288492008763e-03
2 1 -1.08416477783587848e-02 -3.56455361543335427e-03 3.98756312405431062e-03
3 1 -7.75461710904729474e-04 1.17388383470032297e-02 -1.66658808424227103e-03
4 1 -1.70907555876278587e-02 -1.01698540081491696e-02 4.70214967773754065e-03
5 1 2.17707800762460520e-03 -2.75958165865438721e-03 5.69312575772494035e-03
6 1 -1.68485399325763209e-02 1.95271494016934014e-02 -9.70770603040463365e-03
7 1 3.51903005392785809e-03 -1.30795711449769626e-03 6.79843482691603555e-03
8 1 8.86809839274578515e-03 -2.60850043048014299e-03 -5.10363830743357574e-03
8
Step 23000
1 1 -3.61092732622098848e-03 1.02888440771294596e-03 -7.66419788837204193e-03
2 1 1.49049369038433289e-02 9.30552099725035983e-03 -8.02410473314808456e-03
3 1 -2.29876290130468473e-03 -7.71725558970354480e-03 6.98501524612127247e-03
4 1 1.20171701038121314e-02 1.43976271657479445e-02 -6.63379035064788018e-03
5 1 -1.87077199222541557e-03 -8.26494414985729647e-03 1.02030862140968580e-03
6 1 1.25205957845803979e-02 -1.81328296094622581e-02 1.81016450591630733e-02
7 1 8.58460209445728248e-04 3.33849802206211349e-03 -7.15946676194255480e-03
8 1 -9.31028599320166822e-03 8.64376912035867348e-03 2.82191154989251734e-04
8
Step 24000
1 1 3.33730646935586532e-03 -3.71524837208817005e-04 9.14842043195948987e-03
2 1 -1.35016470756626154e-02 -1.08204138938611943e-02 1.12985167897992674e-02
3 1 4.37691342729308944e-03 2.07205342180630985e-03 -1.10217461004995642e-02
4 1 -5.09647951002342725e-03 -1.53319178361738199e-02 6.45380808942634578e-03
5 1 -4.66139727271949712e-04 1.78319860311356194e-02 -5.38292948600822309e-03
6 1 -6.28585136955084247e-03 1.15101510892238364e-02 -1.81285700336322013e-02
7 1 -2.88367109891044882e-03 -2.85051612765614562e-03 9.49579289923818161e-03
8 1 9.58599770304616704e-03 -1.03511891398861740e-02 5.22734909935797850e-03
8
Step 25000
1 1 -4.25481975018348387e-03 -1.40263564615198647e-03 -8.96154619368082737e-03
2 1 7.75852820777123402e-03 7.37299407186037172e-03 -1.15575748945257791e-02
3 1 -4.74928217995351787e-03 2.67594732529808418e-03 1.17124694659821657e-02
4 1 9.33176000047879857e-04 1.65696628848376847e-02 -4.88131557212156085e-03
5 1 3.91795180737888014e-03 -2.23139965356589989e-02 5.59354355037982448e-03
6 1 2.46848377934748156e-03 -5.45536384781600617e-03 1.32022334842489403e-02
7 1 2.43061596247082668e-03 1.17895069326288087e-04 -1.10464844599861053e-02
8 1 -9.90185089400838492e-03 6.12574444226381652e-03 -7.44857100822582819e-03
8
Step 26000
1 1 3.97531437756326513e-03 3.35440773609380983e-03 5.30422869995626073e-03
2 1 -3.03900913711322232e-03 -2.40035002423523132e-03 1.12980528693224815e-02
3 1 4.18694031349358189e-03 -4.02426898193172702e-03 -8.14455923052135287e-03
4 1 1.00343748990183463e-03 -1.44915561685531810e-02 2.31632049713372760e-03
5 1 -6.78189543640616167e-03 2.06182473369965515e-02 -2.82675026098711327e-03
6 1 3.41025668093113772e-04 -1.21573038547394805e-03 -6.00454907896076553e-03
7 1 1.51323147546179935e-03 2.91257413849318808e-03 1.17219308854019551e-02
8 1 9.99890403613499200e-03 7.69174187435506316e-04 4.74884920386790810e-03
8
Step 27000
1 1 -1.40293160889464505e-03 -3.81590552266397251e-03 -1.43577976098576148e-03
2 1 -1.36573409570847561e-03 -2.49497027001799234e-03 -1.13811785358367331e-02
3 1 -2.98407329084483071e-03 2.03394423799447503e-03 3.92362554647589495e-03
4 1 -5.61361918807339695e-04 7.12622873592238821e-03 4.25341979724043137e-04
5 1 9.23324147362648145e-03 -1.42469317879183183e-02 -2.78165107550653148e-04
6 1 -2.73180581338961512e-03 1.08894456902260996e-02 -3.43769175719677586e-03
7 1 -4.54154067767213038e-03 -3.82738613813738250e-03 -1.29270905657209306e-02
8 1 -8.32878081748750221e-03 -5.71210980795496329e-03 7.44769962323259000e-04
8
Step 28000
1 1 2.53002430771893634e-04 1.94634100053264758e-03 -4.35386891115648918e-05
2 1 3.98262003994529368e-03 6.05284257034422249e-03 1.13081718398082374e-02
3 1 -2.11764091104355923e-03 1.19068931846970632e-03 -4.88911104339423137e-04
4 1 -1.49920402986021030e-03 2.57576771484587484e-03 -3.66938945574696047e-03
5 1 -1.11404637626484216e-02 6.87470553934833601e-03 1.17491788109213213e-03
6 1 4.28907843946124603e-03 -2.14174669163694140e-02 1.49364703609410725e-02
7 1 5.06717787019532809e-03 2.16351993741602244e-03 1.34583610070350274e-02
8 1 7.71867635957866269e-03 8.69558440842003316e-03 -5.99983856293515028e-03
8
Step 29000
1 1 1.48997261387009972e-03 1.76094584623211203e-03 -3.80762928467455138e-04
2 1 -5.13781476044476368e-03 -7.79123090786908862e-03 -9.90747848422372790e-03
3 1 9.22067400637603153e-03 -2.96976926705135036e-03 -2.06991279686536767e-03
4 1 3.88634513428012633e-03 -1.10845253301903781e-02 6.97518640869205370e-03
5 1 1.14090317723862158e-02 -1.61919077746258038e-03 1.81056954274591607e-03
6 1 -3.13163341990609209e-03 1.91852934122218495e-02 -2.01580916833250627e-02
7 1 -2.25288113789002577e-03 1.20718225092449017e-03 -1.31239832985760169e-02
8 1 -5.94906378849869265e-03 -1.09782955710535021e-02 9.76033257983559450e-03
8
Step 30000
1 1 -3.56964121495861658e-03 -4.18125314013047516e-03 2.17713483875509473e-03
2 1 6.21818322617859708e-03 8.26434080469468611e-03 6.89686481242325622e-03
3 1 -1.34301628931984603e-02 2.16403781387691698e-03 2.10978773790857594e-03
4 1 -5.55159682554761703e-03 1.67251465683196793e-02 -9.88602186329664949e-03
5 1 -1.03329836615195462e-02 -7.46771530896659231e-04 -9.09496186825154915e-03
6 1 1.61950735056745816e-03 -5.61883239107884621e-03 1.59418293722843225e-02
7 1 -4.51201421935774200e-03 -4.99077369604027793e-03 1.24987161011289784e-02
8 1 1.52806725397214207e-03 1.20647023551693575e-02 -9.91766872664561275e-03
8
Step 31000
1 1 6.71254209230232653e-03 6.70181448713641492e-03 -5.87526202926334437e-03
2 1 -7.49979016656956380e-03 -7.84401965190188559e-03 -2.73972345787363691e-03
3 1 1.46112951918993834e-02 1.12761011472595619e-03 6.41942895227901630e-04
4 1 5.40045785899400440e-03 -1.67061675099314973e-02 1.14649345222727159e-02
5 1 5.79538254138625523e-03 2.05058533828077682e-03 1.61361329924998784e-02
6 1 -1.58603533570959572e-03 -6.34355162097901756e-03 -1.05723712015038229e-02
7 1 1.20156744051773279e-02 7.58498856605456170e-03 -9.95344055039042684e-03
8 1 4.93622982466976681e-03 -1.19214507791558857e-02 3.81386707337212421e-03
8
Step 32000
1 1 -1.04429091752944632e-02 -8.51348634600518177e-03 1.24531777460856492e-02
2 1 8.53344507510726824e-03 6.04029083795378386e-03 -1.01096379651529657e-03
3 1 -1.20781728150039167e-02 -4.99356430997361430e-03 -3.84110348621175901e-03
4 1 -3.28849654162930664e-03 1.06709839936828810e-02 -1.02656707892813479e-02
5 1 2.17944892762379251e-03 -3.31790435664480786e-03 -1.56380754541003315e-02
6 1 2.39680560258408691e-03 1.21767062361286017e-02 8.63427959312482521e-03
7 1 -1.31295520096490134e-02 -6.78002547284334463e-03 4.69218535220741230e-03
8 1 -9.89643240722073818e-03 1.08464478988886566e-02 5.38278164716558816e-03
8
Step 33000
1 1 1.10822245737528819e-02 5.72688714509137203e-03 -1.83511919579655049e-02
2 1 -7.97371789469565780e-03 -2.94952123693245595e-03 2.58078887814823998e-03
3 1 5.45672403539370493e-03 6.03658023258180770e-03 5.34444239969761488e-03
4 1 7.15023220597374421e-04 -2.27619785611683561e-03 7.74854404558303084e-03
5 1 -8.35950494952241233e-03 6.18394987432231962e-03 7.11432826586187814e-03
6 1 -3.32356218983623827e-03 -1.27109111218498654e-02 -9.68910505702232083e-03
7 1 6.71193497200212822e-03 2.99225298228543478e-03 -8.76700795553492771e-04
8 1 9.96069377818083537e-03 -8.38784285427205886e-03 -9.91360871086171061e-03
8
Step 34000
1 1 -8.39702206567855512e-03 -1.67988117577041383e-04 1.95023444993462323e-02
2 1 4.39324647361267161e-03 1.56552980642584980e-05 -1.89650014955775026e-03
3 1 2.14261577982315446e-03 -2.11337128195944772e-03 -4.39225531580949777e-03
4 1 5.39747203412121275e-04 -4.31218529727309726e-03 -6.09393928725338475e-03
5 1 9.37604647017483729e-03 -9.18841785870318922e-03 2.62265523191419856e-03
6 1 3.11775211745794973e-03 7.87267854018684071e-03 1.17076501863834313e-02
7 1 3.94239426066307456e-03 1.68134165869003181e-03 2.12660303650169915e-03
8 1 -7.10571042660321055e-03 5.18583878090444084e-03 7.71714581207303286e-03
8
Step 35000
1 1 4.14415163838965754e-03 -3.67966085503467844e-03 -1.51881911054676660e-02
2 1 6.94053407878073578e-04 3.58619954734969756e-04 -5.67636210853797690e-04
3 1 -6.11403258772154953e-03 -4.70549716433442140e-03 4.73882525147125127e-03
4 1 1.90965628027675165e-04 7.37644775643911139e-03 6.56489918696384275e-03
5 1 -7.08808171875726332e-03 1.09861582159212819e-02 -8.06169207915292084e-03
6 1 -2.84978906122404995e-04 7.84943426087131475e-04 -1.38071537152550244e-02
7 1 -1.95987640267261988e-02 -6.99907869554034032e-03 -8.34958446933246543e-03
8 1 5.84189447747955528e-03 -3.48619032299908810e-03 -2.37792673051765834e-03
8
Step 36000
1 1 -5.69828715402193194e-04 4.09568627527449360e-03 7.45569018588834818e-03
2 1 -1.72919101393153836e-03 8.35719786366947103e-04 2.10877351617496604e-03
3 1 9.58634860390162290e-03 1.40443200136241043e-02 -6.71520016186502068e-03
4 1 -2.58452222167492680e-03 -6.75219638034280870e-03 -9.81475044502960747e-03
5 1 4.94945475667671851e-03 -1.09479762836413950e-02 9.82015555367648368e-03
6 1 -2.88829636929009920e-03 -8.96891169045310917e-03 1.24260914870723549e-02
7 1 2.51159247904487772e-02 8.74855693905022234e-03 1.23475245032232117e-02
8 1 -7.50348715316931196e-03 2.69397518828493228e-03 -3.26376229012986102e-03
8
Step 37000
1 1 -9.63329837578802070e-04 -1.52014411443566924e-03 1.58395849095090396e-03
2 1 2.48110778452510696e-03 -2.97342616115986577e-03 -3.83353728147427502e-03
3 1 -1.05475825009458280e-02 -2.20139839400495391e-02 7.82063657861989392e-03
4 1 5.78692049526315869e-03 3.07920695036556459e-03 1.31433711111935692e-02
5 1 -3.66992048566371380e-03 8.28357691315338360e-03 -9.03397119333673726e-03
6 1 3.87711601017410364e-03 1.08078293105260508e-02 -5.62074215594822197e-03
7 1 -1.70295687972948258e-02 -7.72623486507595381e-03 -1.18792232424665186e-02
8 1 1.15331004824096132e-02 -1.69434955932630158e-03 5.91098329166875758e-03
8
Step 38000
1 1 -1.19414618709055864e-03 -2.61835012576543732e-03 -8.84001612505820600e-03
2 1 -3.79981774762587661e-03 5.94628286531617267e-03 6.06185809453893294e-03
3 1 6.57765672444650569e-03 2.09093126985510358e-02 -5.97294296047495236e-03
4 1 -7.44765596260764905e-03 8.30115214735407492e-04 -1.35878752637254435e-02
5 1 3.80232198379159940e-03 -3.52709159578194938e-03 6.69267778910347718e-03
6 1 -4.73578929561709137e-03 -6.33897062735992202e-03 -2.98995436776298799e-03
7 1 6.60016437500025518e-03 7.15493264703428566e-03 9.31363390993597551e-03
8 1 -1.38799753677327289e-02 -7.45742843418836484e-04 -2.19964265893518715e-03
8
Step 39000
1 1 6.39066539842775630e-03 5.33437315559942993e-03 1.03493942251523200e-02
2 1 3.30598049950430817e-03 -9.88387469511814096e-03 -4.94085205219101011e-03
3 1 -1.67014490369256320e-03 -1.33138656826549059e-02 3.70830237294908363e-03
4 1 7.87727953807305231e-03 -1.81752535229537924e-03 1.14971427919004637e-02
5 1 -5.27148932796571695e-03 -1.88100638335932080e-03 -2.91190087010457632e-03
6 1 5.20054360686933882e-03 7.59897068345386363e-04 9.05673106226858107e-03
7 1 1.78277535824418508e-03 -7.76136571671983029e-03 -7.03676428451713906e-03
8 1 1.05195165950773724e-02 4.06007808470708591e-03 -6.36270452757780550e-03
8
Step 40000
1 1 -1.09733876399975682e-02 -4.40805463137750996e-03 -6.95903648429829942e-03
2 1 -7.29417630602545225e-04 1.37375311370446403e-02 -2.13645487222010764e-03
3 1 -7.85737759732271454e-04 5.60681243438399847e-03 -2.94249424190385191e-03
4 1 -8.52572761634068713e-03 -1.08857439237255689e-03 -7.91195570541865581e-03
5 1 6.28011766456219259e-03 4.88126266114159626e-03 -2.35411967901419947e-03
6 1 -4.23181263402686025e-03 3.32796617578029171e-03 -1.19806980962426923e-02
7 1 -8.55777948287704017e-03 9.11183632467853048e-03 4.98850454914346719e-03
8 1 -3.58256627508372720e-03 -6.91159933075479165e-03 1.39251606353737230e-02
8
Step 41000
1 1 1.45618124425110559e-02 2.77087667257349714e-03 3.25786995099697956e-03
2 1 -2.15785412479272548e-03 -1.66003440501500850e-02 9.90102900495660673e-03
3 1 2.70177250845490911e-03 4.37424302759674974e-04 2.96048304310130364e-03
4 1 9.73177156696499943e-03 6.62768274020285146e-03 3.40654259169592038e-03
5 1 -5.14478405921120919e-03 -2.14676191583121909e-03 5.38534472412292940e-03
6 1 9.31626231177501147e-04 -3.98529764612410610e-03 1.08258705534723127e-02
7 1 1.73892087443102417e-02 -1.21410379027479670e-02 -2.46357710613481252e-03
8 1 -2.48158370770713366e-03 7.82580777201336703e-03 -1.60224926362091402e-02
8
Step 42000
1 1 -1.76916268367636777e-02 -2.22147586839038054e-03 1.68698999750107600e-04
2 1 4.26081383810494613e-03 1.64035852240238186e-02 -1.28965081148964805e-02
3 1 -5.82232821068568406e-03 -4.16504138551748726e-03 -1.94496158966480401e-03
4 1 -1.10990238963011977e-02 -1.43529787144853101e-02 3.77454330433797582e-03
5 1 2.79913979762052081e-03 -4.05344979005005813e-03 -3.99530993600100831e-03
6 1 3.45523542219035610e-03 1.07988948870272705e-03 -4.97486267931420041e-03
7 1 -2.34160429730675725e-02 1.18898559816720192e-02 1.37695427377559432e-03
8 1 4.87439390756956234e-03 -5.64245614865330637e-03 1.34427976612811022e-02
8
Step 43000
1 1 1.59946287932255377e-02 1.69101283837253110e-03 -3.63304407639608454e-03
2 1 -4.81460848538107448e-03 -1.22717315025607041e-02 1.05645481129245395e-02
3 1 9.13554411558783509e-03 4.79265037565372847e-03 1.46581565126620150e-05
4 1 4.31533197750161041e-03 1.37836812069134299e-02 -1.07407934312319011e-02
5 1 7.74329474880708466e-04 8.12855672167032452e-03 8.17378916011599803e-04
6 1 -6.15301796407548892e-03 2.79623242843718856e-03 -2.78139077564820572e-03
7 1 1.80279789912221357e-02 -4.13540515894846635e-03 2.64408523319079416e-04
8 1 -3.92185736657541667e-03 1.66330545543657421e-03 -1.04312595223143324e-02
8
Step 44000
1 1 -8.65941342327408020e-03 -5.35174903071649168e-04 3.82931435737078390e-03
2 1 3.52787742125355679e-03 5.19233293509288076e-03 -5.68154919160812188e-03
3 1 -8.00830615409540460e-03 -1.09959073448730833e-03 7.23571078443850457e-05
4 1 5.47875717255765990e-03 -6.31180165963219665e-03 1.29731522071085750e-02
5 1 -3.86713568521496708e-03 -7.19688473847962008e-03 8.07672612883393939e-04
6 1 6.82528018082647139e-03 -5.46127845124644122e-03 6.86750107032590811e-03
7 1 -1.10393514061245170e-02 -3.83589894942080014e-03 -1.43247420476789989e-03
8 1 8.67169036779960145e-06 4.55048672790553822e-03 8.39415912577662349e-03
8
Step 45000
1 1 2.54419015692724463e-03 2.54340675283017419e-04 -3.32933946066882596e-04
2 1 -2.16734098265172641e-06 3.94175601492466419e-03 5.20705127835631399e-04
3 1 3.66125565334589559e-03 -4.92439974567267149e-03 3.74167857634912480e-04
4 1 -1.23327464769540044e-02 -1.57321132079457269e-03 -1.25677950709352088e-02
5 1 3.95862679636669983e-03 3.40625960365537354e-03 -6.36776780376405779e-04
6 1 -6.38601585551236244e-03 5.40978327153146012e-03 -3.73679478608175816e-03
7 1 6.63165248929099144e-03 8.55208462131873577e-03 1.85615532554249505e-03
8 1 6.40415412333978848e-03 -1.31948458955636633e-02 -6.20314925025206108e-03
8
Step 46000
1 1 -3.25444627782878063e-03 -4.08182818463932295e-03 -8.94335121514813758e-03
2 1 -3.00944511280483743e-03 -1.29523013378129697e-02 3.79898124374394418e-03
3 1 4.27760275921899272e-04 9.28390576239105161e-03 -3.43041617412717724e-04
4 1 1.21436124624141224e-02 5.67362755988326181e-03 1.05305782555598342e-02
5 1 -3.96082637929359802e-03 1.22835179585519374e-03 6.18436943199425992e-04
6 1 4.98084867152379877e-03 -1.89351391865038416e-03 -4.61255476025577548e-03
7 1 -3.92658311427084104e-03 -1.12003418814700956e-02 -3.32896252909302501e-03
8 1 -1.02074317420265404e-02 1.75173975123041718e-02 2.96201502713788149e-03
8
Step 47000
1 1 4.83465690096032252e-03 3.02155916512441376e-03 1.58861572177174566e-02
2 1 5.73508595560638136e-03 1.77701285695251766e-02 -4.03046393498625311e-03
3 1 -3.42288149755941035e-03 -9.56496188759477055e-03 1.78908199329862487e-03