8
Step 0
1 1 -5.146983603824e+02   1.434692463961e+02   2.272585503517e+02 
2 1 -6.268573224989e+01   2.545643563522e+02  -3.785437431381e+02 
3 1 -1.847062021339e+01   1.986147104538e+02  -1.553454428606e+02 
4 1  1.310098613687e+02   4.728752768686e+02   6.196589026359e+02 
5 1 -9.578247776891e+01   5.598454624399e+02   1.557104222487e+02 
6 1 -2.592674952319e+02  -3.716990633033e+02  -2.397761882235e+02 
7 1 -3.685740970401e+02  -2.079503254006e+02   4.084754334187e+02 
8 1 -2.312460964129e+02  -7.397459190730e+02  -1.725994513245e+01 
8
Step 1000
1 1 -5.902112328762e+01  -1.238972267972e+02   1.969504937043e+02 
2 1  6.594330538501e+01   9.695664574726e+00  -2.981490568068e+01 
3 1 -4.789745692697e+00  -1.680682413368e+00   4.199485652885e+02 
4 1 -3.873768937129e+01   2.601275858314e+02  -3.924794408399e+01 
5 1 -2.647519912513e+02   1.026089324707e+02   1.509477751145e+02 
6 1  4.343294258818e+02  -3.250124299797e+02  -1.585941891457e+02 
7 1 -2.133814476094e+02   1.356492430843e+02   9.712989194467e+01 
8 1  8.355840757496e+01  -3.003209776829e+02   5.448819469422e+01 
8
Step 2000
1 1 -2.841151478107e+02   2.410424931733e+02   2.117152365087e+02 
2 1  3.547925210911e+01   1.513896763306e+02  -2.613130683207e+01 
3 1  2.575067412019e+02  -1.766239426690e+02   3.148483200109e+02 
4 1 -3.394902838846e+01   2.847176669656e+02  -2.573287237249e+02 
5 1  5.385883591392e+01  -4.045852563334e+02   3.536499688831e+02 
6 1 -9.985796926791e+01  -2.571672568066e+02   7.475041534882e+01 
7 1 -2.140622132292e+02   5.981553317967e+01   3.905699866446e+02 
8 1 -2.493236907366e+02   1.004141608190e+02   3.775807050296e+02 
8
Step 3000
1 1  5.904673001132e+01  -3.390782285901e+02   1.054725339863e+02 
2 1  8.018258121479e+01  -6.831430719619e+01   3.593880563060e+02 
3 1  5.646943813529e+02  -4.929417860524e+02   7.283355046360e+01 
4 1 -5.350103185438e+02   1.880778871953e+02  -2.025362353048e+02 
5 1  5.564466044055e+02  -5.285086081556e+02   1.548067042217e+02 
6 1 -2.072682592401e+02   8.534635743277e+01  -3.931903380524e+00 
7 1  2.224463471302e+02  -4.006793293535e+02   4.819116356688e+02 
8 1  3.156021658061e+01   3.942312775330e+01   4.576520140387e+02 
8
Step 4000
1 1  1.909798268169e+02   5.124436550656e+02   1.132398825851e+02 
2 1 -6.304580729213e+01  -1.195509000541e+02   4.195891609810e+01 
3 1  2.920250366176e+02  -2.568578189592e+02  -6.672772477039e+01 
4 1 -1.346028369709e+01  -1.564318729767e+02  -9.191808064698e+01 
5 1  3.113115978159e+02  -1.427951173165e+02   1.951280905719e+02 
6 1  5.731759331755e+01   4.536188013123e+02   3.449631369971e+02 
7 1  6.843077198077e+01   3.080037756747e+01   4.051864858381e+02 
8 1 -2.160754037148e+02   1.265615024535e+02   5.298077047118e+01 
8
Step 5000
1 1  1.488277260371e+02   4.251749320873e+01   6.506496572946e+01 
2 1 -2.457220777829e+02  -1.568598571372e+01   9.735117187118e+01 
3 1  3.120462099014e+02  -1.558425220891e+02   1.233734581139e+02 
4 1  3.474973801926e+02  -9.987845923422e+01  -3.899576337790e+02 
5 1 -4.951839771333e+02   1.223283468154e+02   1.463470715365e+02 
6 1  2.182780930428e+02  -5.192959886281e+01   3.124849442871e+02 
7 1  1.388503774833e+02  -4.630441577283e+01   2.473380655765e+02 
8 1  5.036774036713e+02   1.003263938218e+02   4.239499934441e+01 
8
Step 6000
1 1  7.366496113956e+01   7.220109763562e+01  -3.363258138584e+02 
2 1 -2.878038599710e+02  -7.866968495236e+01   2.781803755880e+02 
3 1  4.770192215413e+02  -5.789503157344e+02   1.353217041102e+02 
4 1 -4.012254345216e+01   6.406472766874e+01  -5.450641687475e+02 
5 1 -3.738419500601e+02   2.842713360280e+02   3.661812168752e+02 
6 1 -1.103982470156e+02   3.484792803655e+01   3.344519238483e+02 
7 1 -4.741643504519e+02   2.108730194648e+02   1.955206229081e+02 
8 1  1.806956677562e+02   4.235756576937e+02  -4.127952098848e+02 
8
Step 7000
1 1 -2.449158086313e+01   5.620500590841e+01  -3.315347718500e+02 
2 1 -8.086295452881e+01   2.418916980143e+02  -1.976398311634e+02 
3 1  1.969988581499e+02  -1.962939722711e+02  -6.587386860304e+01 
4 1  7.832612544212e+01   3.736427382437e+02  -5.902628653716e+02 
5 1 -1.104184533956e+02  -1.523212551521e+02   1.532247750801e+02 
6 1 -5.095379959683e+02  -2.839553239745e+02   1.929924192463e+02 
7 1  1.595916547949e+02  -1.370694528920e+01   1.342928991271e+02 
8 1 -7.598216452785e+01   2.419140187037e+02  -3.852118087876e+01 
8
Step 8000
1 1  2.660922311311e+02  -7.653621132929e+01  -2.663440880251e+02 
2 1  3.078679422326e+02   2.602152799290e+02  -1.990547579125e+02 
3 1  8.462139111849e+01  -5.840056974644e+01  -4.694630041079e+01 
4 1 -2.614445881626e+02   2.481076811565e+02  -1.887435030459e+02 
5 1 -3.339470640596e+02   2.043935866729e+02   1.652146261978e+02 
6 1 -4.172059242700e+02   3.241251649392e+02  -1.840032624068e+02 
7 1  5.316371138187e+02  -3.722794632559e+02  -5.296886406058e+02 
8 1  1.341657660395e+01   1.104410218721e+02  -4.139284322134e+02 
8
Step 9000
1 1  9.502617669157e+01   2.200167484936e+02  -5.231088901245e+02 
2 1  3.605948441578e+02   2.383586461538e+02  -1.726951428346e+02 
3 1 -1.828893280230e+02   4.542585942314e+01  -2.003060701366e+02 
4 1 -3.704040905191e+01   2.988326442666e+02  -2.908222979884e+02 
5 1 -3.584572006059e+02  -3.448307364342e+01   1.024829193088e+02 
6 1 -2.957932445838e+02  -1.358053470399e+02  -2.382995154155e+02 
7 1 -2.035584813864e+02  -1.568215510841e+02  -6.607820317300e+01 
8 1 -5.136101265375e+02   6.064457831227e+02  -2.355470371087e+01 
8
Step 10000
1 1  5.802981326881e+02  -3.271817677065e+02  -7.264215609684e+02 
2 1 -1.102637947866e+02   2.908280144588e+02  -3.439621718896e+02 
3 1  1.121479746768e+02  -2.215431011961e+01   4.539997169669e+02 
4 1  1.375744224580e+02   2.190556077549e+02   1.938058158139e+01 
5 1 -4.237742846565e+02  -4.283163133008e+01   4.315419190315e+01 
6 1 -1.514163675947e+01  -1.509463615157e+02  -3.750227743484e+02 
7 1 -1.210799912061e+02   6.110865725567e+01  -1.937281694918e+02 
8 1 -4.826870238355e+02   5.007154294288e+02  -3.390363907172e+02 
8
Step 11000
1 1  2.267895883956e+02   2.015641703715e+02  -8.005941262929e+02 
2 1 -2.914918876779e+02   2.150760305773e+02   1.776996967570e+02 
3 1  2.562482385716e+02   1.610181743048e+02   4.773267911754e+02 
4 1 -1.420392639519e+02  -5.767330141912e+01  -4.383313186577e+02 
5 1  1.252306651160e+02   2.036283752524e+02   2.297746402320e+02 
6 1 -1.486798824293e+01  -2.381811333338e+02  -2.690735695077e+01 
7 1 -5.803950514789e+02   8.143838489032e+01  -3.112203629267e+02 
8 1 -4.730351253188e+01   8.437972189922e+01   8.863894149859e+01 
8
Step 12000
1 1  2.740461261708e+02   1.257391271223e+02  -3.072458494623e+02 
2 1 -2.463408964197e+02   1.889568912052e+02   1.516888946230e+02 
3 1  2.031309089052e+02   2.142961237955e+02   2.770235153447e+02 
4 1 -1.002392705520e+02   2.108837621255e+02  -2.386795097157e+02 
5 1  2.459791049654e+02   1.200417255210e+02  -1.560569080281e+02 
6 1  9.866174779686e+00   8.010747956576e+01  -2.440247298777e+01 
7 1  5.708331158207e+01  -1.220621631821e+01  -2.126579268390e+02 
8 1  1.679256778377e+02  -2.830731538579e+02  -1.421583775884e+02 
8
Step 13000
1 1  5.554255373282e+02  -2.453022875801e+02  -6.330663084586e+02 
2 1  9.120538233652e+01   7.298302492177e+02   3.815245168118e+02 
3 1 -2.982790064595e+02  -1.472840683888e+02   3.889327200325e+02 
4 1 -2.133309403680e+01  -1.209749952609e+02   2.833343489970e+02 
5 1 -3.086788292320e+02  -2.404931671757e+02  -1.732300479546e+02 
6 1 -1.073373832547e+02   3.428512309919e+02  -1.598758558046e+02 
7 1  3.377899031176e+02   3.660163261162e+02   2.155114300185e+02 
8 1 -3.951743073839e+02  -5.135196784497e+01  -1.302102175973e+02 
8
Step 14000
1 1  1.616530361271e+02  -4.346844807681e+02  -3.878225290498e+02 
2 1  2.153295211730e+02   8.568114833132e+01   3.370118361441e+02 
3 1 -4.497662307746e+01  -1.606640372303e+02   1.629860800911e+02 
4 1 -1.432128298272e+02  -2.172312555107e+02  -2.137768482732e+02 
5 1 -1.897331919913e+02   3.919576375652e+01   2.055460861261e+02 
6 1  4.443707701265e+02  -6.636619046592e+02  -7.700273793885e+01 
7 1 -1.019885766978e+01   1.749900739195e+02   3.557019909139e+01 
8 1 -4.880245957384e+02   1.732395684117e+02  -1.712903611900e+02 
8
Step 15000
1 1  9.060332425526e+01  -1.600344441478e+02   3.368778700123e+01 
2 1  5.596513364788e+02   1.385778311305e+02  -6.064509971027e+01 
3 1 -5.140902564565e+01   2.989838080887e+02   4.655134304251e+02 
4 1 -1.566635589022e+02  -9.683414422768e+01   1.972382957115e+02 
5 1  8.874070259807e+01   9.243801458550e+01  -3.324635793190e+01 
6 1  6.638757108727e+02   1.322154031010e+01  -4.483923416139e+02 
7 1  2.058761534175e+02   1.181536183748e+02  -2.153454417713e+01 
8 1 -3.076189036342e+02  -1.511932170815e+02   2.828546325993e+01 
8
Step 16000
1 1 -3.155038350610e+02   5.929491603642e+01   8.433403685041e+01 
2 1  2.418926816170e+02  -9.140227853978e+01  -1.362570197318e+02 
3 1 -5.712259061496e+01   2.908234028405e+02   5.381207278435e+01 
4 1 -1.413325873775e+02   1.118950013589e+01   5.330795619927e+02 
5 1  2.263186561315e+02  -1.438713017121e+02   2.173993214827e+02 
6 1 -2.770259086462e+00   6.476320662527e+02  -3.935080953944e+02 
7 1  4.939580644956e+02   7.307461924600e+01  -3.794129475319e+02 
8 1  1.369227110247e+02  -9.610780157388e+01   1.992303544403e+02 
8
Step 17000
1 1  1.076920474278e+02  -1.634626113262e+02  -1.123293591470e+02 
2 1 -3.218456724046e+01  -2.701056564974e+02  -5.921128721519e+01 
3 1 -1.342844204410e+02   1.796694485735e+02  -2.798786788252e+02 
4 1  1.506664367799e+02  -6.546720154266e+01   2.622744980752e+02 
5 1 -1.626096324883e+01  -9.985706746390e+01   2.622378407670e+01 
6 1  2.674143003047e+01   2.149157095133e+02   4.924009871859e+00 
7 1  1.210435074565e+02  -1.525564994856e+00  -3.890415227651e+02 
8 1 -5.967479289392e+01  -3.620105878814e+02   2.006778172972e+02 
8
Step 18000
1 1  4.793591437379e+01   1.362059194666e+01  -1.285547490662e+02 
2 1 -9.194219406240e+01   1.894699759894e+02   2.376829932759e+02 
3 1 -4.707498144352e+01   1.459727299432e+02   9.229367085707e+01 
4 1  6.557946719843e+02  -2.655896340131e+02   5.394020700224e+02 
5 1 -3.927430433277e+02   4.331039417554e+02   2.632967061869e+02 
6 1 -2.358001608412e+02   8.459565768823e+01  -3.847090331541e+01 
7 1  2.086905181990e+02  -1.236954436104e+01  -1.172187736066e+02 
8 1 -1.313147107716e+02  -1.454169136164e+02  -3.364929412221e+02 
8
Step 19000
1 1  5.939087837119e+01   3.839459343358e+01   1.027276027918e+01 
2 1  1.966723089456e+01   5.818091279513e+02   1.189795667199e+02 
3 1 -1.102487541383e+02   7.442973200072e+01  -5.755322499475e+01 
4 1  4.500805332950e+02  -5.836475580572e+01  -2.480724112045e+02 
5 1  5.207219042653e+01   3.697713189346e+02   1.115899695645e+02 
6 1  2.328665528442e+02   1.158339794022e+01  -4.584102070015e+02 
7 1  1.839951228382e+02   4.041588073606e+01   2.322703361942e+02 
8 1 -6.058619205696e+01  -1.972100586165e+02  -5.396691513393e+01 
8
Step 20000
1 1  1.573293059301e+02  -7.573153747498e+01  -1.449084539151e+01 
2 1  5.779839514392e+00   4.164312879178e+02   1.120544942992e+02 
3 1 -2.627690612726e+02   1.627565779339e+02   2.196096774475e+02 
4 1 -7.993966371463e+00  -1.148737399404e+02   2.250550413054e+01 
5 1 -1.505851066646e+02   1.999691892980e+01   3.497887241902e+02 
6 1  3.330119334619e+02   3.965400725050e+02  -2.052130897009e+02 
7 1 -3.043267707764e+02   4.888822913379e+02   3.715743504197e+02 
8 1 -2.876608588211e+01   4.399633523738e+01  -4.693577638326e+02 
8
Step 21000
1 1  2.813136879274e+02   2.427441867090e+01  -2.250579303617e+02 
2 1  2.742478156640e+02   4.230432026426e+02  -2.248245055610e+02 
3 1 -2.668197403183e+02   3.989098158765e+02  -2.724590335340e+02 
4 1 -5.075533269513e+02  -4.009325786709e+02   2.701762420571e+02 
5 1 -3.080466851270e+02  -1.953029531101e+02  -1.487265803941e+02 
6 1 -2.993475800186e+01   3.182430560216e+02  -2.079463972753e+02 
7 1 -9.524229040566e+01   1.863239980455e+01   1.810469382576e+02 
8 1  4.427549464215e+01   4.046378102257e+02   4.039679415726e+02 
8
Step 22000
1 1  1.111477154800e+01  -7.221944081710e+01   3.135108909951e+01 
2 1  3.252227930398e+02   2.390441924756e+02   1.164392254019e+00 
3 1 -2.508477909869e+02   4.968988776330e+02  -2.251402062450e+02 
4 1  1.854879078481e+02  -1.401019777007e+02   1.764021038593e+02 
5 1 -9.002095755393e+01  -1.374711415413e+02   1.565771305345e+02 
6 1  2.872613866485e+02   6.674271562548e+01   2.903834266300e+02 
7 1  1.738850729079e+02   2.313504484601e+01  -8.069139433509e+01 
8 1 -3.952510180704e+02   1.571154036709e+02   1.896539367539e+02 
8
Step 23000
1 1  3.258828650437e+01   6.220398168319e+02  -6.239494054545e+01 
2 1  3.170545609354e+02   1.355590601943e+02   2.202300649936e+02 
3 1 -4.096115220147e+02   4.276923147560e+02  -5.610644074031e+01 
4 1 -8.781544730086e+01  -1.623338009700e+02  -2.635132489774e+02 
5 1  1.703275613595e+01   8.487822370986e+01  -2.923438644650e+01 
6 1 -5.026133577001e+01  -7.350700680314e+01  -4.257429487642e+01 
7 1 -1.654549487715e+02   2.621433681951e+02   2.827117576862e+02 
8 1 -2.440890850479e+02  -4.492452753895e+01  -1.711663289013e+02 
8
Step 24000
1 1  3.802473408653e+01  -4.871828718951e+00  -2.570113008901e+02 
2 1  3.423269960382e+02  -2.679774059724e+02  -2.937095011744e+02 
3 1 -1.180271382546e+02   1.187515336355e+01   1.117441154192e+01 
4 1 -2.882430573624e+01  -4.425988323435e+02  -1.983099718551e+02 
5 1 -3.179839128991e+02   9.890002721836e+01   2.115098391018e+02 
6 1  1.701009634921e+02  -1.090306618999e+02  -2.911977059864e+02 
7 1  1.170806100895e+02  -7.170996052335e+01   1.483420332647e+02 
8 1 -4.321921445514e+02   5.702039661862e+01  -6.119373612133e+02 
8
Step 25000
1 1  2.307299349911e+02  -2.414285674289e+01  -5.073576352775e+01 
2 1  3.195835997139e+02  -1.300864802881e+02  -2.164209685241e+02 
3 1 -2.297706338141e+02  -2.110611752871e+02   1.913086883440e+02 
4 1  2.715165700899e+02  -4.605853444110e+02   6.817143648745e+01 
5 1 -5.039809919735e+02   2.423315065902e+02   3.157926742975e+02 
6 1 -4.114788598251e+02  -1.696396213105e+01   3.115981985230e+02 
7 1 -7.103884962044e+02   1.251043956684e+02   2.380167243472e+02 
8 1 -6.624518488955e+02   5.877791202905e+02   2.025294841041e+02 
8
Step 26000
1 1  1.952199925694e+02  -3.538130980514e+02  -2.109721114571e+02 
2 1  8.560703846973e+02   2.223665531322e+02  -2.122019144879e+02 
3 1  1.721498386814e+02   3.378327820798e+01  -5.688229282394e+01 
4 1  4.363957030339e+02  -1.636868305946e+02  -5.969302805656e+01 
5 1 -1.400046870351e+02  -1.265112952276e+01  -4.223286768263e+02 
6 1 -2.251877437882e+01  -4.011740507973e+02  -1.939390998720e+01 
7 1  3.753097176638e+01   2.342227286409e+01  -1.426103699147e+02 
8 1  1.571516915672e+00  -8.872916063736e+00  -8.177234896141e+01 
8
Step 27000
1 1 -9.320628924014e+01  -3.198713059673e+02  -7.381772281715e+01 
2 1  4.493915484533e+02  -5.280759531546e+01   1.264981685352e+02 
3 1 -1.594381560694e+02  -1.698507071457e+02   2.379867029260e+02 
4 1  6.448888409699e+01   2.984611428039e+02  -1.384172996524e+02 
5 1 -3.077897232692e+02   1.402322430338e+02  -6.504277094491e+01 
6 1  1.983554350929e+02  -2.529405960301e+01   3.509366794217e+02 
7 1 -2.056776449885e+02  -8.689662407197e+01   3.353066914140e+02 
8 1 -3.606340728550e+02   9.251177490629e+01   1.899517403879e+02 
8
Step 28000
1 1  4.481401741133e+02  -4.227417532112e+02  -2.989965111971e+02 
2 1  8.127966670609e+02  -3.447023821509e+02  -1.755046478219e+02 
3 1 -2.720790281077e+01  -5.061613665498e+02  -4.040753967395e+01 
4 1  2.159533957529e+01   2.170463795647e+02  -4.002102030450e+02 
5 1 -1.682188386001e+02  -1.102252300112e+02  -2.382596442657e+02 
6 1  1.162515110408e+02  -1.044010862964e+02   2.911437507847e+02 
7 1 -3.148579871089e+02  -2.253285879860e+02   3.994651952759e+02 
8 1 -8.046353186478e+01   1.364811730612e+02  -3.166793937793e+02 
8
Step 29000
1 1 -4.340426699813e+01  -1.563448408993e+02   2.098170132253e+02 
2 1  4.899345670112e+02  -3.514791746995e+02   2.571009704526e+02 
3 1  3.789268793996e+02  -3.653893762925e+02  -1.107488699134e+02 
4 1 -2.321378738737e+01   7.827900033890e+01   1.773049232462e+02 
5 1 -3.788385514980e+02   6.534054065256e+01  -3.358315108668e+01 
6 1  3.528422971606e+02   1.867905288922e+02   3.349790146492e+02 
7 1 -2.292253830148e+02   3.837989082114e+02   4.068308255031e+02 
8 1 -1.494319820335e+02   8.786461452592e+01   9.597610563691e+01 
8
Step 30000
1 1  3.064575504488e+02   1.245599231149e+02   1.400570149446e+02 
2 1 -2.829445528674e+00  -1.353165001909e+02   4.181137431490e+02 
3 1  1.501778877256e+02  -1.449529721159e+02  -5.227863852865e+02 
4 1  8.578805908063e+01   3.686862598167e+02  -2.282003591437e+02 
5 1 -4.126510458179e+02   4.757947859445e+02   5.464568145723e+02 
6 1  5.324386815638e+02   1.191603432811e+02   1.494716903898e+02 
7 1  5.328841766133e+02  -3.352592930904e+02  -4.949256466049e+01 
8 1  2.442465566227e+01  -1.230080876649e+02   3.004716119503e+02 
8
Step 31000
1 1  2.626762198455e+02   1.970305612238e+02   1.707979223858e+02 
2 1 -5.035748704463e+02  -2.701211231441e+02   3.033945981415e+02 
3 1 -2.068134517992e+02  -3.500360995855e+02  -3.346838160122e+02 
4 1  5.093366724194e+02   3.900950416734e+02  -2.864285613773e+02 
5 1 -1.055519758000e+02   4.151041773957e+02   8.588944508179e+01 
6 1 -1.710491667794e+02   2.495936003516e+02   3.904285620949e+01 
7 1  2.289804601712e+02  -1.809060195187e+02   8.416404042451e+01 
8 1  5.181559415657e+01  -1.616211238134e+01   9.415268970429e+01 
8
Step 32000
1 1  2.437657552484e+02   1.146617139981e+01  -1.711391634862e+02 
2 1 -1.601469932882e+02   2.853932668559e+00   1.402771916323e+02 
3 1 -4.635120698603e+02   2.311701434003e+01  -1.220723733406e+02 
4 1  9.893499641531e+01   2.405234723015e+02  -3.136580536823e+01 
5 1 -5.667403865588e+02   1.961836923133e+02   8.765425151802e+01 
6 1 -4.646884453484e+01   5.804103979997e+02   3.403272534751e+02 
7 1  2.051628756136e+02   6.028415765801e+01   2.103923250602e+02 
8 1  3.518712612241e+02  -2.947338963647e+02  -6.252873022605e+01 
8
Step 33000
1 1  3.462396683536e+02   2.442887157880e+02  -4.179069281921e+02 
2 1 -8.069993754726e+01  -2.027675509440e+02   9.136190462918e+01 
3 1  1.789771114759e+02  -3.426591761893e+02   5.360054432983e+01 
4 1  2.690873036178e+02   6.709557962283e+02   5.182962598338e+02 
5 1 -5.727988603721e+02   1.116080901315e+02   4.916380026854e+02 
6 1 -3.083176289560e+01   2.076570571231e+02  -2.521749980600e+02 
7 1 -2.856297843411e+02   2.370380412497e+02  -1.320100457327e+02 
8 1  5.060773588367e+02   1.125654600604e+02   2.664702903598e+02 
8
Step 34000
1 1 -2.172842646686e+02   3.250423911497e+02   1.190919473054e+01 
2 1 -6.417688077425e+02   5.970870589892e+01   3.319801541463e+02 
3 1 -1.893882200465e+02  -3.084818388420e+01   2.358411966788e+02 
4 1  3.227485720463e+02   5.857676968239e+02   1.777938509353e+02 
5 1 -1.514351396550e+02   1.860757097910e+02   1.215015903050e+02 
6 1  2.043081093375e+02   1.341215122318e+01  -5.524361316257e+02 
7 1 -2.834313760683e+02  -1.927822559794e+02   4.130633465892e+01 
8 1  1.684514111163e+02   7.998361985016e+01   2.740008840026e+02 
8
Step 35000
1 1 -3.693939061033e+01  -1.781974376708e+02  -2.785848301044e+02 
2 1 -2.774649420846e+01  -1.168717190064e+02  -5.766162875182e+01 
3 1  4.244499900488e+01  -2.043135284838e+02   2.636765602221e+02 
4 1 -9.001871624464e+01   1.331953293106e+02  -1.602693996574e+02 
5 1 -3.878562295312e+02   6.208432251329e+02   1.479095919494e+02 
6 1 -4.819335578650e+01   1.034079123435e+02   1.984459737000e+02 
7 1  1.761026985866e+02  -3.027050187657e+02  -1.538247382630e+02 
8 1 -2.552522511829e+02   5.449563045510e+01  -4.156814742236e+02 
8
Step 36000
1 1 -4.203081962913e+02  -4.659944076051e+01  -8.757181992718e+01 
2 1 -4.218542214489e+01  -5.246775252910e+00   1.823978816369e+02 
3 1 -3.629127354399e+02  -1.528437531673e+02   6.567187851270e+01 
4 1 -2.111288644751e+02   1.720804974418e+02   2.843884865303e+02 
5 1  2.577831491918e+02   1.666529136217e+02  -7.198975480062e+01 
6 1 -2.845488976808e+02  -8.478930948225e+01   2.284652823217e+02 
7 1 -2.604593116664e+02  -2.621255273127e+02  -3.190044827212e+01 
8 1 -7.724751284540e+01   3.925604442776e+02   1.008664166051e+02 
8
Step 37000
1 1 -1.944954317950e+02  -2.544080469694e+02  -1.068473764649e+02 
2 1  3.539947728334e+02  -1.883388374222e+02   1.072093825283e+02 
3 1 -1.162809413774e+02   4.315130664830e+01  -1.522616578569e+02 
4 1 -8.053155037886e+01   1.644709112636e+02   3.343914713014e+02 
5 1  7.455186089117e+01  -2.167083247253e+02  -1.146011199067e+02 
6 1 -2.955525831254e+02  -1.402795286988e+02   6.195243779036e+02 
7 1  4.070820710943e+01   1.545694365568e+02  -8.985349698963e+01 
8 1  8.039046788478e+01  -1.873745907493e+01  -1.848463292725e+02 
8
Step 38000
1 1 -6.035184712583e+02  -2.245478631478e+02   5.335080496159e+02 
2 1 -2.058082070195e+02   5.596343421014e+01   3.076788651161e+02 
3 1 -1.787710263338e+02   2.079170644308e+02   8.686069450528e+00 
4 1 -4.035443258321e+02   3.828633892626e+02   3.894635339560e+01 
5 1 -1.664294985450e+02   1.004751020077e+02   1.332281643039e+02 
6 1  1.282380819353e+02  -8.046473026283e+01   1.686551461080e+02 
7 1 -4.359148055097e+02   4.997470844985e+01   2.537171463486e+02 
8 1  1.836166418062e+02   1.238775318417e+02  -7.760325216756e+01 
8
Step 39000
1 1 -4.337153890471e+02  -3.067540287474e+02   1.683018027170e+02 
2 1  5.904048101032e+01   4.812298175191e+01  -2.542848789325e+02 
3 1  1.600405807580e+02  -7.666519765933e-01   4.455360586644e+01 
4 1 -8.861998170357e+01  -3.715245299426e+02  -3.827438229229e+02 
5 1  1.791512054747e+01  -2.413180695423e+02   4.724551552110e+02 
6 1  5.116987930036e+01   2.013716499330e+02  -3.752964603621e+02 
7 1  9.211596356453e+00   9.527701499467e+01   2.927614212108e+02 
8 1  9.452510153656e+01  -3.902073641388e+01  -4.236921869792e+02 
8
Step 40000
1 1 -1.952560240578e+02  -5.121527373019e+02   1.479255288109e+02 
2 1 -7.478332666579e+01   9.693335381144e+01   1.111322756074e+02 
3 1 -3.180611727904e+02  -6.373880259720e+01   6.088158834269e+02 
4 1  1.228093280029e+02  -2.449363431845e+02  -2.129023428503e+02 
5 1 -2.270146144688e+01  -4.125056591474e+02   5.559811301283e+02 
6 1 -1.225631862367e+02  -1.073105846613e+02   1.345460679460e+02 
7 1  2.883804709784e+02   3.652854386059e+01   4.225380109465e+02 
8 1 -1.144080701417e+02   1.692220900167e+02  -4.603053160634e+02 
8
Step 41000
1 1 -3.149072126798e+02  -2.924238394966e+02  -2.249676118264e+02 
2 1  2.955258534581e+02   3.850307752085e+02   1.594762777662e+02 
3 1  1.319742483915e+01   4.383754589081e+00   1.459958907578e+02 
4 1  2.192601030643e+02  -1.442602320906e+02   4.102928678406e+02 
5 1  7.397971713278e+01  -5.974732227365e+02  -1.099763437743e+02 
6 1  1.953506687944e+02  -1.399991800804e+02   1.932388538603e+02 
7 1 -2.280950949085e+02   1.346454559026e+02  -3.134038724650e+02 
8 1 -5.136360798439e+01   2.177502043813e+02  -3.511868537294e+02 
8
Step 42000
1 1  4.241712651418e+01  -1.232293004729e+02   5.177138142137e+01 
2 1 -2.386635575933e+02   2.096920755682e+02   8.905799975035e+01 
3 1 -1.996421407023e+02  -3.932130813972e+01  -2.410330669321e+01 
4 1 -1.293118059519e+02  -4.763443436685e+02   8.068523449435e+01 
5 1  5.259319561350e+02  -2.407085247828e+02  -2.979461012297e+02 
6 1  8.625564312024e+01  -2.099565632109e+02   2.926356266894e+02 
7 1 -1.065203123795e+02   6.511544676085e+01  -1.001374800008e+03 
8 1 -2.527607187796e+02   1.929929564393e+02  -1.307564285377e+02 
8
Step 43000
1 1  4.664540647807e+02   2.569841610703e+01   1.826429596287e+02 
2 1 -5.262051222789e+02   5.698690027261e+01  -3.012316256912e+02 
3 1  1.866546392525e+02   1.898645012345e+02  -7.149290386237e+01 
4 1 -2.341617888461e+02  -5.870448638697e+02  -1.172800115316e+02 
5 1  7.739968463530e+02   2.924337892563e+02   2.432537677320e+01 
6 1 -2.684274092037e+02  -4.613123569679e+02  -1.560826115703e+02 
7 1  4.369469778130e+02   6.234340855283e+01  -2.662580074476e+02 
8 1 -2.403763410509e+02  -1.019293962968e+01  -3.298564403449e+02 
8
Step 44000
1 1  4.520778447822e+02   1.654680498362e+02   2.212536000499e+02 
2 1 -1.174723181952e+02   4.834722615572e+01  -3.909765243549e+02 
3 1  3.313555718492e+02  -1.178977189674e+01  -1.435915360313e+02 
4 1  8.429314788481e+00  -3.046431662013e+02  -5.888319385358e+02 
5 1  2.184026836992e+02  -2.492317781248e+02   3.931925973625e+02 
6 1  1.773495457791e+02  -5.770826292068e+01  -3.064968091885e+02 
7 1  2.420945776974e+01  -2.369463604448e+02   9.777595508265e+01 
8 1 -3.452930802804e+02   9.735449910026e+01  -4.992072775093e+02 
8
Step 45000
1 1  1.643148575344e+02   6.073964937328e+01  -6.740654329702e+01 
2 1 -6.336779363401e+01   2.588024531795e+02   1.560345743334e+02 
3 1 -3.087711058436e+02   1.044176087409e+02   4.635741727425e+01 
4 1  4.883917563431e+02   3.438045079429e+02  -4.840152613187e+02 
5 1 -2.072383404786e+02  -3.056733265789e+02   1.458917745626e+02 
6 1  9.180396450862e+01   2.915405718164e+02  -2.190288481847e+02 
7 1  7.397226130252e+01  -2.329439616151e+02   2.655268525587e+02 
8 1 -1.098134459152e+02   3.262732029678e+02  -3.347377283984e+01 
8
Step 46000
1 1  7.223503454356e+02  -1.062512170222e+02   4.375970829237e+01 
2 1  8.667834258883e+01  -1.283984168696e+02   1.720476956154e+02 
3 1 -1.513968872630e+02  -3.781985268839e+02  -3.799553387206e+02 
4 1  1.906152436633e+02   2.925478818641e+02  -6.024468909033e+02 
5 1 -1.943375885784e+02  -1.272103819161e+02  -1.815342214386e+02 
6 1 -1.873103286380e+02  -3.141331534541e+02  -8.754558808469e+01 
7 1  1.469338902964e+02  -3.593474958955e+02  -3.419888535521e+02 
8 1 -2.179238922008e+02   3.961288427671e+02  -2.349168651828e+02 
8
Step 47000
1 1  2.923347345172e+02  -3.057319746667e+02  -2.390319167973e+01 
2 1 -9.259201618586e+01   3.159796175152e+02   2.896493548578e+02 
3 1  2.503893724525e+02  -1.336912361787e+02  -4.622595702159e+01 
4 1 -1.953281461748e+02   2.519432461767e+02   1.948864741029e+02 
5 1 -1.308789271230e+02   2.169217826624e+02  -3.221342987408e+02 
6 1  1.038665070378e+02  -5.519495997809e+00   3.140215371746e+02 
7 1  2.091722115997e+02   3.443387285446e+02  -2.568734550194e+02 
8 1 -1.126119103284e+02  -3.955383366278e+02   4.942478582889e+02 
8
Step 48000
1 1  2.005746900558e+02  -7.751259969486e+01  -1.602473732545e+02 
2 1  1.174791606112e+02   1.297832153400e+02  -1.626243315605e+02 
3 1  3.386482262065e+02  -1.947111892330e+02   1.705588068945e+02 
4 1 -3.687762971375e+01   1.303490540104e+02   1.974924277793e+02 
5 1 -1.688268276068e+01   1.573951325885e+02  -2.181444525421e+02 
6 1 -8.097380342901e+00  -4.828784346051e+01  -1.737924909927e+02 
7 1  3.937432278214e+01  -9.014746112263e+01  -6.102148461484e+02 
8 1 -4.108972716682e+01  -4.357792871475e+02   1.971558118123e+02 
8
Step 49000
1 1 -4.495406768068e+02   1.383790860873e+02  -1.440750893534e+01 
2 1  7.538366504439e+01  -3.078296018503e+01  -8.465476721438e+01 
3 1 -1.267962151799e+02  -1.728032431237e+02   4.788773965553e+02 
4 1 -4.375636022269e+02  -1.381905927587e+02  -1.680897878117e+01 
5 1  1.871311716509e+02   3.814719369188e+02  -2.975906688947e+02 
6 1  2.192310174580e+02   6.164724889072e+02  -6.259584819853e+02 
7 1  2.778454520355e+02   1.583342510520e+02  -4.878927489779e+02 
8 1  1.081768153832e+02   2.678005297192e+02   2.205562909103e+02 
8
Step 50000
1 1  1.233868210210e+02   2.136256695334e+02   1.124454955818e+02 
2 1  2.398937314335e+02  -6.318736115435e+02  -2.093131521585e+02 
3 1  2.157770636034e+02   2.249179609506e+01   2.278025755272e+02 
4 1 -1.796345665259e+02  -1.242262731514e+02  -6.687712076193e+01 
5 1 -2.124654788481e+02   2.159465106806e+02  -2.616302867978e+01 
6 1  1.385947428088e+02   2.035717118158e+02  -3.123384326959e+02 
7 1  4.985404693821e+02  -2.197380780006e+02  -5.386268022710e+02 
8 1  1.183448113261e+02   8.951469535111e+01  -2.264896385132e+02 
8
Step 51000
1 1  4.415614620226e+01   2.219782295458e+02   4.236880541342e+00 
2 1 -2.150219364179e+02  -2.383900741867e+02  -7.050563116405e+00 
3 1 -1.812696850206e+02  -4.138925501902e+02  -3.709783246464e+02 
4 1 -1.558741653709e+02   2.777481059973e+00  -1.323567764841e+02 
5 1 -1.507065086487e+02   2.171825458519e+02   1.381723683726e+02 
6 1  9.236914467150e+02  -1.686914150050e+02   1.435226070637e+02 
7 1  5.690838662868e+02  -1.415690780142e+02  -5.778836986024e+02 
8 1 -4.237388792185e+02   4.101940169690e+01   2.991154899458e+00 
8
Step 52000
1 1 -1.169894483688e+02   1.606968503855e+02  -3.532262238425e+02 
2 1 -2.424010218922e+02   4.297004427411e+02  -3.421476950525e+01 
3 1  6.066727776594e+00  -4.669909628653e+02   2.217996642300e+01 
4 1  1.546020884368e+01   4.954383997554e+02   3.731557470728e+02 
5 1 -2.603440093100e+02   1.799379051635e+02   3.281093892259e+02 
6 1  3.623812905426e+02   2.815395988399e+01  -1.979249125764e+02 
7 1  3.568624105055e+02   1.748048780299e+02  -1.350045366575e+02 
8 1  2.739120393697e+02  -2.710868369452e+02  -1.120162148447e+02 
8
Step 53000
1 1  1.202958389339e+02  -2.991250963624e+02  -2.200430197064e+02 
2 1 -1.184731182758e+02   6.636256222087e+01  -1.356289163738e+02 
3 1 -8.760638428014e+01  -6.705353687482e+02  -1.639650624146e+02 
4 1  1.083253398276e+01   4.301330402272e+02   2.415592282677e+02 
5 1  6.118196703582e+01  -3.985125216550e+00  -2.200524206015e+02 
6 1 -1.043465096609e+01   8.656752700705e+01  -1.932967337531e+02 
7 1  2.281186987081e+02  -2.422024236998e+02  -2.344436749558e+02 
8 1 -1.081295678659e+02   5.126020048949e+01   1.859427650793e+02 
8
Step 54000
1 1  9.498978496254e+01   1.093082770700e+02   1.381599093379e+02 
2 1 -2.865474846235e+02  -2.992821759866e+02  -1.921880238896e+01 
3 1  9.549740192214e+00  -1.245660275024e+02   1.848225593351e+02 
4 1  3.130214300089e+02   2.164216603309e+02   3.347885490329e+02 
5 1  4.029377242154e+02  -8.450563969101e+01   1.105142533894e+02 