8
Step 0
1 1 -1.63085447218212186e-02 5.71538539859604410e-03 6.16730094070877446e-03
2 1 -1.69856754912572254e-03 9.30620768858968390e-03 -1.34134743035989133e-02
3 1 -2.69444251818120423e-04 7.49780013862162090e-03 -6.19924649427717068e-03
4 1 4.56207214342048504e-03 1.63624653388967610e-02 1.88504868355723124e-02
5 1 -2.76832238876628060e-03 1.91735204882856093e-02 3.85471838598796732e-03
6 1 -8.05249416750632684e-03 -1.09359132075964489e-02 -8.92822171676664958e-03
7 1 -1.15855081982009552e-02 -5.64321744221356423e-03 1.20246030604634589e-02
8 1 -7.14678496468135280e-03 -2.28319440408336800e-02 -1.73603939755569538e-03
8
Step 1000
1 1 -6.39753821542503581e-03 2.60902974694555024e-03 -4.70334742681596720e-03
2 1 7.15972388794414594e-03 -4.80209590803051291e-03 -1.57047986893346786e-02
3 1 -1.00554927421896475e-02 -2.19589645673695221e-03 -8.36753371737479316e-03
4 1 1.70275007615191126e-02 8.94089032553986064e-03 1.88618245917982486e-02
5 1 9.98294247059958000e-03 9.60379957766783511e-03 -6.31492517100007596e-03
6 1 -4.30221532288188775e-03 4.19754032253145948e-03 3.84173240194360388e-03
7 1 -1.56305255670638917e-02 -1.56879787821949022e-03 4.85461591285398539e-04
8 1 -1.00998116043348914e-02 -1.79423537856694265e-02 4.11925113477779417e-04
8
Step 2000
1 1 6.50256652953670224e-03 -1.20951947639714595e-03 -1.25830270154128239e-02
2 1 1.32133925890451434e-02 -1.61024421523662219e-02 -1.32030952529577066e-02
3 1 -1.77126792919021954e-02 -1.01447799481984881e-02 -8.63329801994222254e-03
4 1 2.10693543847467503e-02 -2.50831236216839896e-03 1.35339459457639623e-02
5 1 1.65190041947491512e-02 -4.13418434391246443e-03 -1.50931115766302741e-02
6 1 2.84607767888795044e-03 1.84699370472281368e-02 1.33831904341060563e-02
7 1 -1.40742228947829465e-02 4.34914087387541174e-03 -1.02233561774418939e-02
8 1 -9.50739323549489729e-03 -5.02551630970394202e-03 2.37173448782268016e-03
8
Step 3000
1 1 1.66394159721661508e-02 -5.12324404154742685e-03 -1.39617330325923442e-02
2 1 1.26376537853567731e-02 -1.82943250011072776e-02 -6.04665834878691938e-03
3 1 -1.94909509851199265e-02 -1.24494733912595620e-02 -6.64910966014689055e-03
4 1 1.46047053979842471e-02 -1.17870679500383484e-02 5.74890540872781842e-03
5 1 1.32679103623811641e-02 -1.59090995675955811e-02 -1.82608458196555773e-02
6 1 9.97751092325556421e-03 2.42984607808748657e-02 1.54231392034407683e-02
7 1 -8.50685467455499639e-03 1.03944884181417212e-02 -1.45270144104614647e-02
8 1 -5.20137624369908062e-03 9.66651847917112360e-03 4.44519471296414212e-03
8
Step 4000
1 1 1.90978747350220995e-02 -8.34476109539989720e-03 -8.28584708270165698e-03
2 1 5.73801793845283258e-03 -1.08591542603860749e-02 2.93536812291175049e-03
3 1 -1.40685368254453054e-02 -8.40432789228276120e-03 -2.87632097214426952e-03
4 1 1.61908723104552880e-03 -1.47187255261833332e-02 -1.63673631229521699e-03
5 1 2.55116746617486479e-03 -1.99713833844852029e-02 -1.39100602392204717e-02
6 1 1.27172275901339844e-02 1.78536189864608313e-02 9.72590489549377338e-03
7 1 -1.82463312735444447e-03 1.38993864114046722e-02 -1.03183513218417511e-02
8 1 1.52254566587134020e-03 1.95054445000352079e-02 6.42668437331052680e-03
8
Step 5000
1 1 1.30272690833345764e-02 -1.01064825543329823e-02 9.35487218261901320e-04
2 1 -3.46787055159923380e-03 1.01321977825048846e-03 1.02369151618266849e-02
3 1 -3.79811681634898346e-03 -9.52310353684274191e-04 1.48231604859693834e-03
4 1 -1.14348884338542310e-02 -1.09183686029745187e-02 -7.36857729820344053e-03
5 1 -8.57554381958905258e-03 -1.53086727331353464e-02 -4.66098303328930062e-03
6 1 9.50821558380201756e-03 3.59194866394682523e-03 1.27973999080121278e-03
7 1 3.22539106270923253e-03 1.28117868373518982e-02 -2.90015613675583027e-04
8 1 7.95179133487653074e-03 1.97360002933764205e-02 7.33000296308509731e-03
8
Step 6000
1 1 2.21952161400673816e-03 -9.92857747843799154e-03 8.47155721892919877e-03
2 1 -1.04105553186964080e-02 1.08772367550321030e-02 1.34021551488244135e-02
3 1 7.42295612343920382e-03 6.08138641272114137e-03 5.21221245027089514e-03
4 1 -1.88320368116631116e-02 -2.80302000149723011e-03 -1.12413585859167785e-02
5 1 -1.40874986011844811e-02 -5.62703585794188492e-03 4.74864373088712977e-03
6 1 2.11728853515892558e-03 -1.09360857027671968e-02 -4.64425799358537342e-03
7 1 5.39941575375567622e-03 6.95853207387634592e-03 1.00399891646111798e-02
8 1 1.10369179941128253e-02 1.07327114597702711e-02 6.19568297070198504e-03
8
Step 7000
1 1 -7.98492203261940217e-03 -7.44982372337833678e-03 1.06762722575084613e-02
2 1 -1.17564288561016802e-02 1.37998168189997737e-02 1.14103354389247531e-02
3 1 1.56596166540847702e-02 9.75846304378925021e-03 7.18797957557845268e-03
4 1 -1.76260940305793604e-02 5.58347078671950214e-03 -1.31749772334929637e-02
5 1 -1.21300920672934055e-02 4.18102960803934821e-03 1.06330782764516886e-02
6 1 -6.39776697552143191e-03 -1.97558064536698455e-02 -5.53686745895929592e-03
7 1 5.03060329549696785e-03 -1.83071812378707505e-03 1.53595210325852428e-02
8 1 9.54935984108390944e-03 -1.87108164143306847e-03 3.02053973321410275e-03
8
Step 8000
1 1 -1.33173105372959080e-02 -2.63985443842226211e-03 6.96093394558035001e-03
2 1 -7.45493054966256050e-03 9.15832511492036504e-03 5.82603587942082200e-03
3 1 1.77262235395566174e-02 8.74197682250561596e-03 6.60119627281060498e-03
4 1 -9.16816882585029524e-03 1.04995566273967979e-02 -1.30351319115649140e-02
5 1 -4.73190359211523182e-03 1.04028520595275467e-02 1.15074022459967229e-02
6 1 -1.24209826035650908e-02 -1.95717591890677521e-02 -1.98321578539382244e-03
7 1 3.41244964241619111e-03 -1.01448964405627950e-02 1.29267149072573653e-02
8 1 4.50625671370989949e-03 -1.14712436371143551e-02 -1.31644761454436797e-03
8
Step 9000
1 1 -1.23588504156987283e-02 3.67791632284400309e-03 -6.36853032290143645e-05
2 1 -7.34999978842896563e-04 8.28445731572192718e-04 -1.02217860719708452e-04
3 1 1.32543650278968746e-02 4.16322445639831940e-03 3.76399507548167691e-03
4 1 2.26440816957988993e-03 1.04353791670436392e-02 -1.06133790837579078e-02
5 1 3.99473639082595366e-03 1.15767020269673445e-02 8.13889701564550483e-03
6 1 -1.35564921799109228e-02 -1.17695808515252132e-02 2.73297266720834821e-03
7 1 1.97925565399360501e-03 -1.44325122885850671e-02 4.12340846629133222e-03
8 1 -1.67292295847187075e-03 -1.38149531981286971e-02 -5.38948801792924707e-03
8
Step 10000
1 1 -6.96604893482473831e-03 9.83482972897981034e-03 -6.17060862077722146e-03
2 1 4.74192097257722725e-03 -6.37191993017845962e-03 -3.93480526783609487e-03
3 1 5.21001278440138497e-03 -1.18804297159519627e-03 1.00048940018504336e-04
4 1 1.21743124214545254e-02 6.04638316443601408e-03 -5.64934257695210058e-03
5 1 1.01585014102980025e-02 8.37318350730062270e-03 2.69717473646828142e-03
6 1 -1.00444988575799643e-02 -1.07577730268181189e-03 5.10900158534500961e-03
7 1 1.45113771562242668e-03 -1.30077623460357165e-02 -6.30703147394289475e-03
8 1 -6.18981750006828476e-03 -8.72721742076930027e-03 -7.69152934482263562e-03
8
Step 11000
1 1 -7.84755194427969971e-04 1.37479629746689192e-02 -7.98004201840201398e-03
2 1 6.68408022942698632e-03 -9.05033146459145905e-03 -4.84476593532054325e-03
3 1 -2.49336609027488035e-03 -4.95856772337366098e-03 -2.85659065091831577e-03
4 1 1.70789137009797615e-02 -6.73430793746583579e-04 1.54985211998334921e-03
5 1 1.15355859996371570e-02 2.77741874609789899e-03 -2.33134515390109051e-03
6 1 -3.50759166380568317e-03 8.21649950008216876e-03 3.40104570388772599e-03
7 1 1.58115603071736009e-03 -6.92143832749911401e-03 -1.31281824174010759e-02
8 1 -7.33720721211315267e-03 1.28058488034163018e-05 -7.43984161987875682e-03
8
Step 12000
1 1 2.96081467145431921e-03 1.37487538135475564e-02 -4.88779466751405097e-03
2 1 4.87859331689795891e-03 -6.41048723859970714e-03 -3.49121243746605952e-03
3 1 -7.06445704417786331e-03 -6.23835646236565837e-03 -4.14895436604798863e-03
4 1 1.52996014260883481e-02 -6.94754766539486431e-03 9.37624534617326547e-03
5 1 8.07702695925591706e-03 -2.73629014734984863e-03 -4.99742321757960621e-03
6 1 4.17932645850312753e-03 1.33951174449640342e-02 -2.10986296985046524e-03
7 1 1.64663793171801616e-03 6.92417133679555999e-04 -1.35566994136409116e-02
8 1 -5.30331699861985237e-03 7.31957670251095951e-03 -4.91885663764364371e-03
8
Step 13000
1 1 3.37955047336831182e-03 9.71635412133547462e-03 6.81786739579352060e-04
2 1 1.08412763419814089e-03 -4.36081268699565041e-04 -1.53464149523586664e-03
3 1 -7.69008709842842683e-03 -5.44531683306376593e-03 -3.62020889155071756e-03
4 1 7.78113441746534559e-03 -1.01644192480554955e-02 1.51488044263217419e-02
5 1 1.70013516950785434e-03 -6.04734580436177508e-03 -4.55275895998919888e-03
6 1 1.08080331311571545e-02 1.32168233903363075e-02 -8.99952811911622005e-03
7 1 1.14248063615446089e-03 6.50562240675040850e-03 -8.56241271267412125e-03
8 1 -1.66974278846050554e-03 9.66694108958199988e-03 -1.19323095755731012e-03
8
Step 14000
1 1 1.96423611339637070e-03 2.98075962354321352e-03 5.39719890953435470e-03
2 1 -2.20106627148578286e-03 5.54563225390870568e-03 -6.23529767335723227e-04
3 1 -5.56934996637159074e-03 -3.67717880619629041e-03 -1.85574188821997625e-03
4 1 -2.19083041736943063e-03 -9.08129395888726369e-03 1.64242095931634371e-02
5 1 -4.67261059398851961e-03 -6.12390971166469622e-03 -1.70519797528855444e-03
6 1 1.40868418781832285e-02 8.33414676916850901e-03 -1.33241223211822933e-02
7 1 7.73004596023389701e-05 8.82329085330981963e-03 -1.36808496995571047e-03
8 1 1.68462299997502139e-03 6.51175658743981169e-03 2.38866239522543501e-03
8
Step 15000
1 1 8.93919918135083441e-04 -4.77847246520727523e-03 7.08409656628728075e-03
2 1 -3.11735351788391176e-03 8.49308979680321423e-03 -1.41147111083409827e-03
3 1 -2.87991648907823770e-03 -1.81873344118919531e-03 2.22982640068203314e-04
4 1 -1.05961644007862947e-02 -4.37341873817645617e-03 1.23929365325181600e-02
5 1 -8.44780445551559546e-03 -3.36727772156452700e-03 1.71673806887199620e-03
6 1 1.27628151026976527e-02 1.34430611887502026e-03 -1.18222979403876383e-02
7 1 -1.21011618979599165e-03 7.70443092838464256e-03 4.97954337741225977e-03
8 1 3.52853288638954469e-03 -5.52495355055523016e-05 4.74742043022489870e-03
8
Step 16000
1 1 1.58346683324151112e-03 -1.17686398452989081e-02 5.16403264030645525e-03
2 1 -1.36035819643433547e-03 6.95010619388180748e-03 -3.18828113155592138e-03
3 1 -1.43478416910180063e-03 -3.89496000364038876e-05 1.78777612439435119e-03
4 1 -1.45358941893916297e-02 1.85571721548581582e-03 4.33755669503822164e-03
5 1 -8.50437527241603569e-03 5.73936375792318855e-04 3.62438268255909279e-03
6 1 7.36522113078639986e-03 -4.60169660102359782e-03 -4.05404746435770926e-03
7 1 -2.31289480970556455e-03 4.17700579830811766e-03 8.60189512996886209e-03
8 1 3.55136324084987529e-03 -6.75964797416255415e-03 5.38726778176562039e-03
8
Step 17000
1 1 3.93880598223813640e-03 -1.58495886321515789e-02 5.84860438377582587e-04
2 1 1.75359386412209496e-03 1.75598928274378532e-03 -4.41223345162430978e-03
3 1 -1.86137675125753804e-03 1.97532479907246627e-03 2.29926510969019225e-03
4 1 -1.31844421661126490e-02 7.13156007879991571e-03 -4.96748728976494167e-03
5 1 -5.58015674414538958e-03 3.59382370511644386e-03 2.75574003567083869e-03
6 1 -4.18739053339084346e-04 -7.54383793857367393e-03 7.43678081589743602e-03
7 1 -2.92201864090701384e-03 -2.33514824411755944e-04 8.83490929198392852e-03
8 1 2.15894015037244608e-03 -1.04746261028911894e-02 4.41201465503989788e-03
8
Step 18000
1 1 6.35089095567685068e-03 -1.51510186294930831e-02 -4.50470816312936815e-03
2 1 4.11690220848326752e-03 -4.47731987884079918e-03 -3.67933793751617100e-03
3 1 -3.38113679831007806e-03 4.31975221720445370e-03 1.61196111140627079e-03
4 1 -7.67097612285855008e-03 9.55004570396674607e-03 -1.22968990691867987e-02
5 1 -1.60221626142706712e-03 4.17464635266371047e-03 -6.25105571276163676e-04
6 1 -8.42555131451801567e-03 -7.12035369170638342e-03 1.79388043168353419e-02
7 1 -2.92743055936105440e-03 -3.83151073710659516e-03 6.15609344395756999e-03
8 1 1.88097103611469581e-04 -9.36201206001584241e-03 2.42701466813022857e-03
8
Step 19000
1 1 6.70559272552111261e-03 -9.33276570881626417e-03 -7.71035065000768519e-03
2 1 3.97637322250035761e-03 -8.69317238966751081e-03 -5.51720636621163998e-04
3 1 -4.23977234373307862e-03 6.42800934100628413e-03 7.81889639542575115e-05
4 1 -4.16575156204558161e-04 8.40193717356486555e-03 -1.51438326413299781e-02
5 1 1.57407155451615502e-03 2.07052965074484884e-03 -4.82614637671313629e-03
6 1 -1.39522744664513591e-02 -4.27361796008600761e-03 2.17985810004145721e-02
7 1 -2.43457029812259524e-03 -5.24636639680335463e-03 1.92859457465294768e-03
8 1 -1.48062524770540323e-03 -3.69009260897396486e-03 2.44574214490723366e-04
8
Step 20000
1 1 3.75654679440612718e-03 -1.04202344056774569e-04 -7.55827524161544959e-03
2 1 9.46779893148426660e-04 -8.85505989354032699e-03 4.01877077591873254e-03
3 1 -2.70905787470472137e-03 7.26322286473909170e-03 -1.52183438090204462e-03
4 1 5.90802966002298632e-03 4.40845077619284910e-03 -1.28507847257960887e-02
5 1 3.12560867152431119e-03 -1.61600410848484815e-03 -7.48735827013785951e-03
6 1 -1.47909144879350384e-02 -1.00934298769353665e-03 1.60601929361997887e-02
7 1 -1.66859444766926084e-03 -3.96655735201095674e-03 -2.13691207880217999e-03
8 1 -2.28172770368140470e-03 4.35332677388332225e-03 -1.52108859289187544e-03
8
Step 21000
1 1 -2.07885313640333727e-03 9.40306035994934938e-03 -4.05618485622294758e-03
2 1 -3.68070812350067018e-03 -4.96069776160037740e-03 8.07750233803169321e-03
3 1 1.76029112510777265e-03 5.84236123842870637e-03 -2.32982686161730150e-03
4 1 9.53603327596429934e-03 -7.40033713100911403e-04 -6.84722071712003111e-03
5 1 3.44765955840703724e-03 -4.88103408288731097e-03 -6.70050221997235771e-03
6 1 -1.10111540870389026e-02 8.20341217545863307e-04 3.40655533781234615e-03
7 1 -8.09486247381820101e-04 -6.33080864839841292e-04 -4.65110251283542154e-03
8 1 -2.05183939213144425e-03 1.15067718235995313e-02 -2.62763033873893550e-03
8
Step 22000
1 1 -8.62435814292258907e-03 1.55903822012102011e-02 1.38319418963064162e-03
2 1 -7.56065509233458128e-03 1.00773772775210519e-03 9.64873117516487112e-03
3 1 7.89049089336813642e-03 1.86352249739859198e-03 -1.85619334061122815e-03
4 1 1.00371327279249207e-02 -5.25032769518066038e-03 3.12875654587795211e-04
5 1 3.61606685854533663e-03 -5.76191214867204007e-03 -2.09313466481579526e-03
6 1 -4.24822315994021794e-03 8.09581936035323442e-04 -1.04923758334958556e-02
7 1 1.40787233754073978e-04 3.11857869953166642e-03 -5.06468833169110809e-03
8 1 -9.86493090827603647e-04 1.45066356412272418e-02 -3.12668085597956735e-03
8
Step 23000
1 1 -1.26008050378003545e-02 1.57187162560887966e-02 6.33402230357224972e-03
2 1 -8.37402433216329588e-03 6.04954951193918157e-03 7.66764838976066471e-03
3 1 1.28775356560257067e-02 -3.77731598060486364e-03 -2.73228907552953613e-04
4 1 7.92061875131051286e-03 -7.79465122939953809e-03 6.13025740806124025e-03
5 1 4.43953749612227555e-03 -3.35651426464566964e-03 4.78451884602850135e-03
6 1 3.61446083894909585e-03 -1.94435148442075137e-04 -1.99882352920832847e-02
7 1 1.34755195077366314e-03 5.30567399797509266e-03 -3.78274268407939856e-03
8 1 4.24276459065238258e-04 1.16589487381049701e-02 -3.20070667962284216e-03
8
Step 24000
1 1 -1.15460149854533060e-02 9.83751866896362577e-03 8.47696538945096750e-03
2 1 -5.07549672529015745e-03 7.70736854465976871e-03 2.60773949333319589e-03
3 1 1.36313072649125264e-02 -9.02591209512902323e-03 1.57045501179383122e-03
4 1 4.15219857568620374e-03 -7.76253144721678230e-03 8.97295785787019691e-03
5 1 5.66184584425253549e-03 1.65160076864893598e-03 1.09763138692494204e-02
6 1 1.02332936865978559e-02 -8.44970097867617448e-04 -2.08638686725081332e-02
7 1 2.94747720795087353e-03 4.52650090233782092e-03 -1.84755551954498415e-03
8 1 1.63065486682488210e-03 3.90691111433595379e-03 -2.95160310164259898e-03
8
Step 25000
1 1 -5.65373894359402253e-03 1.13921485416050789e-03 7.04801126743636978e-03
2 1 1.35978245934426372e-03 5.47294096048260570e-03 -3.67229254284519042e-03
3 1 8.65254009563407207e-03 -1.15844314440581731e-02 2.55819404953728765e-03
4 1 -1.37681156623008818e-04 -5.40523230673663029e-03 8.57860538679706269e-03
5 1 5.87879232319553097e-03 7.04024069599106742e-03 1.32172446149319105e-02
6 1 1.33796732927037240e-02 -1.47517046017098312e-04 -1.30995962556233990e-02
7 1 4.77584670724019028e-03 7.23395890319347701e-04 -3.53228488174521613e-04
8 1 2.26183680365058242e-03 -5.82218590059408510e-03 -2.27113167771531748e-03
8
Step 26000
1 1 2.59923551962872642e-03 -6.25717388927512271e-03 2.98266670146972923e-03
2 1 8.32123637636447006e-03 8.96238269530638307e-04 -8.81048110924433255e-03
3 1 -7.45498163183200930e-04 -1.01952714794610114e-02 2.01844239074530163e-03
4 1 -3.93878135115405779e-03 -1.68225464830936713e-03 5.98137216788510728e-03
5 1 3.44848805596154745e-03 9.86153918031047565e-03 9.67260738583165108e-03
6 1 1.23607354647026976e-02 1.86496330856693576e-03 -1.19742493112976714e-03
7 1 6.21165486967993879e-03 -4.65156960592250698e-03 1.16383470440250720e-04
8 1 2.14076637589138280e-03 -1.38652930330073424e-02 -9.35924459826317084e-04
8
Step 27000
1 1 9.82977221922941638e-03 -9.39035097199157620e-03 -1.88845013082565225e-03
2 1 1.24935545604004505e-02 -3.29292273020044502e-03 -1.07548327919710831e-02
3 1 -1.10727962853339711e-02 -5.16516730409292187e-03 1.42620822870804875e-04
4 1 -6.53841827368407610e-03 2.18758945754284713e-03 2.77478746242004271e-03
5 1 -2.11111230484628456e-03 8.16203926068504240e-03 1.42248747527337041e-03
6 1 7.85472742220386794e-03 4.23776492010409511e-03 9.32067599630283065e-03
7 1 6.27931716982148280e-03 -9.07857324855886917e-03 -2.57856922505289490e-04
8 1 1.25824969839332919e-03 -1.69326404065287539e-02 1.08190025950097800e-03
8
Step 28000
1 1 1.29261916107651989e-02 -7.52199088617844409e-03 -5.52174748880179204e-03
2 1 1.13200730760373968e-02 -4.52068250038138979e-03 -8.65715037441167935e-03
3 1 -1.80622380790082838e-02 1.85523680656590750e-03 -2.09296324858451429e-03
4 1 -7.47475268653831348e-03 5.11352120992202182e-03 2.45917148879241031e-04
5 1 -9.44329338451091287e-03 2.13284247304675522e-03 -8.07917644290468383e-03
6 1 1.23317815074005794e-03 5.60004714893817118e-03 1.43493938693267323e-02
7 1 4.08469892056794598e-03 -9.94551131653852345e-03 -6.91813770272361843e-04
8 1 -1.64823017374357789e-04 -1.37140526720782464e-02 3.32223400878998813e-03
8
Step 29000
1 1 1.06141196821907067e-02 -2.60240767233691677e-03 -6.54125991942601775e-03
2 1 4.79777054917011024e-03 -2.08430354113740487e-03 -3.60147008789277103e-03
3 1 -1.82502303202013508e-02 8.23049294102521159e-03 -3.31141859688879533e-03
4 1 -6.53653498516719098e-03 6.37323278927884318e-03 -1.11081880344441534e-03
5 1 -1.54000765343281828e-02 -5.91465807225366371e-03 -1.45267957347880814e-02
6 1 -5.50059802690076264e-03 4.85230668026779329e-03 1.24222477070285529e-02
7 1 -5.21060062737264550e-04 -5.92869641375929832e-03 -2.97251586661145611e-04
8 1 -1.70936220463445399e-03 -5.75165855254155308e-03 4.95565059632231599e-03
8
Step 30000
1 1 4.32076988957125641e-03 1.78872257478582307e-03 -4.97379273362299860e-03
2 1 -4.45501814067353948e-03 2.32773159602899264e-03 2.11244668268291717e-03
3 1 -1.11858441729066754e-02 1.14431327819894211e-02 -2.54390421889201350e-03
4 1 -3.93491705708601518e-03 5.80302569002279917e-03 -1.60591927863588707e-03
5 1 -1.59876545182154398e-02 -1.19855924721762354e-02 -1.44355575921123087e-02
6 1 -1.02252689923355358e-02 1.86205854168503254e-03 5.36480139227482437e-03
7 1 -6.58388513798893737e-03 2.11547849617124781e-03 1.35813683669420157e-03
8 1 -2.88188077753086724e-03 3.71761263865187132e-03 5.21784910513554273e-03
8
Step 31000
1 1 -2.82361813095677056e-03 2.64966082829855504e-03 -2.00431041141432235e-03
2 1 -1.24729738164887274e-02 5.70176651831070299e-03 6.19280703031598219e-03
3 1 5.53457075358245926e-06 1.05786440330562174e-02 4.70184798318510740e-05
4 1 -3.53950374992426662e-04 3.80598381713346829e-03 -2.00348301415615403e-03
5 1 -9.43240581438591769e-03 -1.25888415596298441e-02 -7.86668397749881558e-03
6 1 -1.15255570408853772e-02 -2.42740378361671044e-03 -2.81575083985570679e-03
7 1 -1.21004694918794859e-02 1.12623858852435518e-02 3.89315441110985646e-03
8 1 -3.18377076239985922e-03 1.13361507443961850e-02 3.75659696636515593e-03
8
Step 32000
1 1 -7.68470310320774463e-03 -6.76444986999119049e-04 8.17258810385315128e-04
2 1 -1.52280371532167551e-02 5.23293198549957487e-03 7.07271203032284416e-03
3 1 1.07100590826056368e-02 6.44351324388390406e-03 3.27283037401054780e-03
4 1 3.26624874584953168e-03 1.07777990351366499e-03 -2.98529017394514283e-03
5 1 2.05242128230363882e-03 -7.40450144903559340e-03 1.32142685648387829e-03
6 1 -9.08430408226693770e-03 -6.36015276221489796e-03 -7.90076704842158223e-03
7 1 -1.43084664777638950e-02 1.70964468633590001e-02 6.02448454284173866e-03
8 1 -2.24980026590657252e-03 1.46358066547570033e-02 8.82752648433418499e-04
8
Step 33000
1 1 -8.44904653689597385e-03 -6.08548361802942542e-03 2.35599963850870696e-03
2 1 -1.09597625502703497e-02 2.89370141543083843e-04 4.78278332765597579e-03
3 1 1.67257695636047338e-02 8.34677667046196197e-04 5.43814192090971357e-03
4 1 6.01267464871042042e-03 -1.74062339595522906e-03 -4.67248402133993174e-03
5 1 1.41212790497209882e-02 1.22659225897730193e-03 8.62216055918034810e-03
6 1 -3.87873820570546531e-03 -8.19976146924166795e-03 -7.36344559724150770e-03
7 1 -1.12112833674233494e-02 1.58417430364079202e-02 6.19782661887267883e-03
8 1 -1.32796822902779712e-04 1.29766536956558171e-02 -2.38594709106609588e-03
8
Step 34000
1 1 -5.28410717859766326e-03 -9.87980938661062007e-03 2.41386841699874413e-03
2 1 -1.59650790952298085e-03 -6.82531135601645127e-03 1.05274288050881079e-03
3 1 1.57048716089710667e-02 -4.03458610115919967e-03 5.05589188476699737e-03
4 1 7.14113707508008677e-03 -4.18209249793729740e-03 -6.43134317071609746e-03
5 1 2.15185871884264086e-02 9.52106026337823895e-03 1.07532016118731619e-02
6 1 2.07908032462017847e-03 -7.02951229939483609e-03 -1.75323504740474779e-03
7 1 -3.52891807213139876e-03 7.50555072832128408e-03 3.86467472219187771e-03
8 1 2.54361263231007214e-03 7.76938451157128344e-03 -4.76220879737152859e-03
8
Step 35000
1 1 -1.72537653827209176e-04 -8.80152090598654464e-03 1.71308675982562923e-03
2 1 8.60099660391779389e-03 -1.21768164524526483e-02 -1.87015181742818939e-03
3 1 8.64616254266704562e-03 -6.50276757705488869e-03 1.79444000665001800e-03
4 1 6.12976228949493104e-03 -5.80627532613902340e-03 -7.00257693062031773e-03
5 1 1.99016727002042024e-02 1.32101939799901553e-02 7.06736291308980406e-03
6 1 6.66810500731241859e-03 -3.22146405651682968e-03 5.65250423266470004e-03
7 1 6.00390833751733230e-03 -4.49654657055289023e-03 -2.74457875180750223e-04
8 1 4.73559423228389793e-03 1.41059018401573427e-03 -5.32989894207464010e-03
8
Step 36000
1 1 4.10702702603423560e-03 -1.85342111343509601e-03 1.36739796603155186e-03
2 1 1.47022464112497985e-02 -1.20212303118557538e-02 -2.30117004726763811e-03
3 1 -6.76466428398733830e-04 -6.33220984071336274e-03 -3.21907892824448236e-03
4 1 2.93119339771123017e-03 -6.06693540709530958e-03 -4.99932589920956683e-03
5 1 9.93086324724744805e-03 1.05194520599808626e-02 6.94124802652589749e-04
6 1 8.41779039289104400e-03 1.77304867066495797e-03 1.04845652227568316e-02
7 1 1.41148422152749912e-02 -1.55484830204876516e-02 -4.85532261605407453e-03
8 1 5.32076165323853902e-03 -4.02714455312015718e-03 -3.94147978990381891e-03
8
Step 37000
1 1 5.35496208166633906e-03 9.05055489761054204e-03 2.07692824602617732e-03
2 1 1.34541100166790280e-02 -5.26666635360561672e-03 -3.34062966583222886e-05
3 1 -7.98597836822579829e-03 -4.47564738167787607e-03 -7.89869058180416202e-03
4 1 -1.56809207065925632e-03 -4.49972308625768737e-03 5.51354081274081168e-05
5 1 -3.30837415450801250e-03 3.32631836235565588e-03 -4.01941990020059006e-03
6 1 6.99331452789297200e-03 5.91952728210019905e-03 9.32423587764228366e-03
7 1 1.72826689230981718e-02 -2.05940361772257198e-02 -7.99965259780236262e-03
8 1 3.57916215743091801e-03 -7.47444878027489577e-03 -1.25786537595437412e-03
8
Step 38000
1 1 2.84873323744347243e-03 1.94583984666022655e-02 3.44959972049890817e-03
2 1 5.61607521646685301e-03 5.36989136559565955e-03 3.44043331679035665e-03
3 1 -1.02766236874924262e-02 -2.35705351344463665e-03 -9.89820254103660445e-03
4 1 -5.53888460762847357e-03 -1.18664639149636264e-03 6.73463308716366026e-03
5 1 -1.42596509472402381e-02 -4.95398301377130736e-03 -4.52443600665850248e-03
6 1 3.47087845203890603e-03 7.55003007727134742e-03 1.82396277584216042e-03
7 1 1.37588541871118322e-02 -1.68761641762591695e-02 -8.21232453210394425e-03
8 1 -3.17957813493698624e-04 -8.87970644132386223e-03 1.54680258102249022e-03
8
Step 39000
1 1 -2.10996052504016339e-03 2.34339913797646793e-02 4.01647760245371979e-03
2 1 -4.90140589025524816e-03 1.50899813200557256e-02 5.83736619400353814e-03
3 1 -7.08395078439362069e-03 -1.17618542319682258e-03 -7.70449953416294311e-03
4 1 -7.03964499934368881e-03 2.89596550339175831e-03 1.19570834630244975e-02
5 1 -1.84501463822516372e-02 -1.06574438257803616e-02 -9.04419430733008020e-04
6 1 -2.93545748641154097e-04 6.26261771267018052e-03 -8.85955871622370709e-03
7 1 5.66575827294467285e-03 -6.86454564712227384e-03 -5.79818634632724584e-03
8 1 -5.10577865298513130e-03 -8.72993194180321855e-03 3.26348749417142495e-03
8
Step 40000
1 1 -6.34935762390300903e-03 1.73140167157085738e-02 2.36810587676571484e-03
2 1 -1.27876773007203955e-02 1.87790987995869497e-02 5.03561289006324540e-03
3 1 -6.93583549091869090e-04 -1.26974935741930826e-03 -1.53038843905412502e-03
4 1 -5.23078781167252496e-03 6.09695766246206531e-03 1.28060578804819990e-02
5 1 -1.43252308112579822e-02 -1.11457807441955759e-02 4.06983244806192763e-03
6 1 -2.69504980866586922e-03 2.94271765374564060e-03 -1.75142667743043053e-02
7 1 -3.23990509048975757e-03 4.52909130405568846e-03 -2.18838258858881527e-03
8 1 -8.69865707082502493e-03 -7.44155272652299946e-03 3.15301800105495869e-03
8
Step 41000
1 1 -6.97576436844252017e-03 3.20642823895702636e-03 -1.49106878751910105e-03
2 1 -1.35317590143563399e-02 1.37272632901813685e-02 4.14740982231058129e-04
3 1 5.31114514414309912e-03 -1.97100136106527490e-03 7.01685343340567418e-03
4 1 -1.02072504017079496e-03 6.99358688189570966e-03 8.57987291265063616e-03
5 1 -4.80308887504818805e-03 -6.56164754560564431e-03 6.63015841446264707e-03
6 1 -2.93648525222239831e-03 -6.73477988398830355e-04 -1.90711226825676962e-02
7 1 -9.87392355289545137e-03 1.31320009986828079e-02 1.36727402779019953e-03
8 1 -9.04562863299037886e-03 -5.08134440167298633e-03 1.38302736675667993e-03
8
Step 42000
1 1 -3.24473483977892954e-03 -1.31434925243958355e-02 -6.08265766000554760e-03
2 1 -6.77738236613133205e-03 2.24875372004839594e-03 -6.28939767097608585e-03
3 1 7.65752835134041014e-03 -2.01357619125168853e-03 1.55140543387047095e-02
4 1 3.50100126873014849e-03 5.19173751467880574e-03 1.14815506698464709e-03
5 1 4.86137662316826671e-03 5.27920255438993498e-04 4.64821940930461655e-03
6 1 -1.41863230514176707e-03 -2.83126582523288758e-03 -1.18507746042364800e-02
7 1 -1.21170151286388132e-02 1.60544858902026133e-02 4.01649833765328496e-03
8 1 -5.33202771053768732e-03 -1.55471506425475638e-03 -9.97719084930345085e-04
8
Step 43000
1 1 3.25947451888110393e-03 -2.49447116456084084e-02 -8.84135213518984046e-03
2 1 3.86101643894446941e-03 -1.04215693324657063e-02 -1.21451235925105431e-02
3 1 4.27580006914419965e-03 -7.93127934999191485e-05 2.02602784182898087e-02
4 1 6.14530353803832523e-03 1.39217294550486679e-03 -6.25303098210013529e-03
5 1 1.01532495753527009e-02 6.77472047769677333e-03 -1.18324580928228233e-03
6 1 4.46720383502444162e-04 -2.90076989885856146e-03 1.22107889808118321e-03
7 1 -9.64132375133404211e-03 1.27842579507738870e-02 5.38883506247722459e-03
8 1 1.42050985738830069e-03 2.98683659759312438e-03 -2.67903152615929160e-03
8
Step 44000
1 1 8.82505820895986177e-03 -2.62518398144338944e-02 -7.34303877689321868e-03
2 1 1.29049348226751900e-02 -1.85719978152308132e-02 -1.40263565688580061e-02
3 1 -4.16814943999516303e-03 4.19363248624875923e-03 1.69592794510266646e-02
4 1 5.44359437785634382e-03 -2.88778325312497074e-03 -1.03821610378614371e-02
5 1 9.14622268403481563e-03 9.37061593358250698e-03 -7.62209086694854918e-03
6 1 1.16412363561241034e-03 -1.57807722734104074e-03 1.47999927813081220e-02
7 1 -4.34454203401543008e-03 5.69758542323252175e-03 5.70538619932057286e-03
8 1 8.72489752869041839e-03 7.74130610453912724e-03 -2.62044606824585928e-03
8
Step 45000
1 1 9.97141959733162386e-03 -1.71193493909818813e-02 -1.94310168916711338e-03
2 1 1.49684386594349829e-02 -1.78588981153553726e-02 -9.97353692230068881e-03
3 1 -1.32251759027330121e-02 9.28160861473216296e-03 4.59482908132765721e-03
4 1 1.34351074094335183e-03 -5.75442464866647921e-03 -9.42894969262774579e-03
5 1 3.57962278433072816e-03 7.50773301112534711e-03 -1.07765219808627268e-02
6 1 -4.47400896597638671e-07 -2.74673850594869785e-04 2.29448327536508172e-02
7 1 1.03186523913199294e-03 -1.80579817110139494e-03 5.33167654483242704e-03
8 1 1.33917000762872225e-02 1.11244528231169634e-02 -5.69023020828202542e-04
8
Step 46000
1 1 6.34202618833341718e-03 -3.62400858309190827e-03 4.28890821158165684e-03
2 1 8.91886426366111755e-03 -9.15808755808255291e-03 -1.42255115511926182e-03
3 1 -1.68558143084674532e-02 1.22651743567464902e-02 -1.24162678888434918e-02
4 1 -4.47031900331110957e-03 -5.83729532627358817e-03 -4.23442912818140955e-03
5 1 -2.46670949224702925e-03 2.88483365615780892e-03 -9.03058614034582367e-03
6 1 -2.55093487527252106e-03 -2.54748122370940754e-04 2.15479828298171805e-02
7 1 4.32579604634318604e-03 -7.10609344864007383e-03 4.27636435237629259e-03
8 1 1.29126290226638431e-02 1.14141414834813479e-02 2.54730714530233306e-03
8
Step 47000
1 1 -5.17382345326464283e-05 8.17687089949185354e-03 8.13913739663295679e-03
2 1 -1.60397800756234901e-03 2.53582201917491477e-03 8.07108707922186454e-03
3 1 -1.12723199805974134e-02 1.05368987612944661e-02 -2.56212043485957754e-02