8
Step 0
1 1 1.01012980291244475e-02 8.76698930961605435e-03 -4.26672132011644660e-03
2 1 9.04712704154579661e-03 -7.15207304295860987e-03 -2.12162422581108762e-02
3 1 -1.98917977515217191e-02 -4.26376521349218409e-03 -1.51645213874872994e-02
4 1 3.86475811308757949e-03 -8.01214103102613692e-03 1.55743162927342461e-02
5 1 2.40224425156572788e-03 -1.23595860692585560e-02 -8.66668385282660936e-03
6 1 9.33067358912683525e-03 9.26150683970064850e-03 9.07260609291608931e-04
7 1 5.84666967024573703e-03 -4.65550622465814821e-03 -1.31756294207653873e-03
8 1 -1.64391710903200212e-02 4.15175907702019457e-03 -1.14208608736975463e-02
8
Step 1000
1 1 3.97020925777610920e-03 5.86926324020605947e-03 1.25277632635651510e-03
2 1 -2.13202108374480970e-03 6.39320653176053254e-03 -1.07416022576464903e-02
3 1 -1.08827113112494357e-02 -5.42522406584635720e-03 -1.11130427166106615e-02
4 1 -1.33994243905637242e-03 -1.14459549347995342e-02 1.93551021395857274e-02
5 1 -1.02138096083489501e-02 -2.07374617548364351e-02 -5.62042343419454950e-03
6 1 3.46724596336896217e-03 1.04502590828870392e-02 -5.33666748688029283e-03
7 1 -1.86407877957316245e-03 -2.93530486268470722e-03 8.17244923228846280e-03
8 1 -2.14698038714392983e-02 5.91574792811800504e-03 1.44107930181913571e-03
8
Step 2000
1 1 -2.62422638941609086e-03 4.55759987829226903e-05 5.67173831215502400e-03
2 1 -1.16808693290077394e-02 1.51001317245224986e-02 2.24334230162989961e-03
3 1 2.56767157472170012e-05 -4.27559977638032086e-03 -2.74796081398473620e-03
4 1 -5.24157405665226853e-03 -9.44465731093406015e-03 1.66349450561922643e-02
5 1 -1.68680186233670544e-02 -1.99423617448546489e-02 1.29267292878600950e-04
6 1 -2.44512189791321619e-03 8.95012685646347228e-03 -8.96061448582321889e-03
7 1 -1.08008468700794974e-02 -1.23829732297826216e-03 1.53128364776990416e-02
8 1 -1.89581393303959803e-02 2.05919306103001737e-03 1.34856957431859249e-02
8
Step 3000
1 1 -6.35328207638506844e-03 -7.27655913473733689e-03 7.12902038484734910e-03
2 1 -1.43421886776992635e-02 1.45107835391519290e-02 1.18483429023726310e-02
3 1 8.01923515268473594e-03 -1.29780541728451463e-03 6.05335194532431384e-03
4 1 -5.91862225426968442e-03 -3.95825338014431285e-03 7.57619023932585688e-03
5 1 -1.47763054380340222e-02 -1.12620534740571140e-02 5.12885015518559258e-03
6 1 -6.44316432682489736e-03 5.24374324524327657e-03 -6.94546115679100119e-03
7 1 -1.75303498439190047e-02 5.60474929101416287e-04 1.66613292425021077e-02
8 1 -1.01129876370682301e-02 -4.57455668657427185e-03 1.86334127508576697e-02
8
Step 4000
1 1 -5.59091382878067287e-03 -1.36275201399465654e-02 5.25277426351821418e-03
2 1 -8.80548077550697902e-03 5.73720334451086663e-03 1.41926162618362384e-02
3 1 1.05269496001959197e-02 2.59395346826956025e-03 1.17254720538670677e-02
4 1 -3.74564316765974275e-03 1.94165157043351940e-03 -4.83782308154589568e-03
5 1 -6.72773598171631359e-03 -9.44645527032640382e-05 6.57847847772490522e-03
6 1 -7.58920522603783679e-03 3.71206467558355595e-04 5.71316176672501488e-04
7 1 -1.83930855083346070e-02 2.74424417101838897e-03 1.12014717964390321e-02
8 1 1.18660160221407030e-03 -9.17326258199533014e-03 1.49267264949392141e-02
8
Step 5000
1 1 -1.20839351725693270e-03 -1.62492981381327228e-02 1.26429845993404491e-03
2 1 1.06753075004655928e-03 -5.08237204181531069e-03 9.83455300604469188e-03
3 1 7.62240823982820569e-03 6.12929027236094361e-03 1.20299886590167875e-02
4 1 -4.88622056959344547e-04 5.96787916279812713e-03 -1.64209734676171830e-02
5 1 2.04522741621335734e-03 8.51738764920733325e-03 4.08103223874171656e-03
6 1 -6.19827476381134938e-03 -4.58645184035201200e-03 1.03720360112272997e-02
7 1 -1.24269760056707427e-02 5.26018690979707451e-03 1.76494364182540006e-03
8 1 1.07411269714698526e-02 -8.41176111056339201e-03 5.25246846926450458e-03
8
Step 6000
1 1 3.81282889826914774e-03 -1.35424028155008459e-02 -2.62546849978699580e-03
2 1 9.62298889467523046e-03 -1.16564515498902201e-02 2.34253163464305005e-03
3 1 1.95300737527094657e-03 8.03624320051402746e-03 7.23260028226777214e-03
4 1 1.87122852750337080e-03 6.95400622593308169e-03 -2.25036124709995095e-02
5 1 7.23912082988524205e-03 1.19222754326862163e-02 -8.23825950293164289e-04
6 1 -3.34868737743992430e-03 -8.58239504614827058e-03 1.76359982084346029e-02
7 1 -1.91982581099683718e-03 7.50218573195693059e-03 -7.13599007782310564e-03
8 1 1.58802240786414008e-02 -2.40845891283316500e-03 -5.24294770534348628e-03
8
Step 7000
1 1 6.20782245310216082e-03 -6.04126905009055339e-03 -4.56061491564426630e-03
2 1 1.24663541549609406e-02 -1.06940472318636983e-02 -4.23391452608374436e-03
3 1 -2.87280674241934984e-03 7.53708157960905536e-03 -1.62112895235542282e-04
4 1 2.16091293996943786e-03 5.06954366070690946e-03 -2.00526438490914241e-02
5 1 7.10180529944747993e-03 9.88828649366543105e-03 -5.52557170195508516e-03
6 1 -4.29255132502576479e-04 -1.05372653018833487e-02 1.79814021137195829e-02
7 1 9.25199628302599691e-03 8.30629037178021168e-03 -1.19676693949777434e-02
8 1 1.56219939263570629e-02 5.72478261533893636e-03 -1.18366463538938805e-02
8
Step 8000
1 1 4.36132377866623334e-03 3.98700177666700198e-03 -4.10230728242837791e-03
2 1 8.51488869323397193e-03 -3.44327605982549991e-03 -6.96184339773417340e-03
3 1 -4.23627244281651189e-03 4.47825732566734403e-03 -6.95314898449070785e-03
4 1 8.72674222499853977e-04 1.80133944932386512e-03 -1.05846416349680960e-02
5 1 3.00159185127589793e-03 4.42944884981587381e-03 -7.55386911778783369e-03
6 1 1.30838970059225920e-03 -9.86177220938353957e-03 1.02923645687792269e-02
7 1 1.66470967936562936e-02 6.42044559096056552e-03 -1.11939129337079134e-02
8 1 1.07350136955064422e-02 1.16096074734320792e-02 -1.21208847832167451e-02
8
Step 9000
1 1 -1.08607753175094229e-03 1.36489516689670305e-02 -2.10740737295350093e-03
2 1 5.11951050023558610e-04 5.25881506416376113e-03 -5.36328434942112946e-03
3 1 -1.57229983299201747e-03 -6.55190742528827860e-04 -1.06096464058830914e-02
4 1 -4.09742311597888708e-04 -1.25875401735565506e-03 1.17863331382767099e-03
5 1 -1.77295569510547480e-03 -1.40177779564408284e-03 -5.82783088778589427e-03
6 1 1.46222050135185670e-03 -6.79937753612309612e-03 -2.47440528563659667e-03
7 1 1.70480401972446204e-02 1.72496634462196994e-03 -6.09575577746848240e-03
8 1 3.54218422780831939e-03 1.22729098079569689e-02 -7.06721498527560551e-03
8
Step 10000
1 1 -7.67278387467832963e-03 1.99305608184634428e-02 9.80601156821766536e-05
2 1 -7.10953600548374070e-03 1.03429844389789655e-02 -1.06069897519344499e-03
3 1 3.57414313841517440e-03 -6.69853827705610763e-03 -1.00545486896424056e-02
4 1 -3.84727811818784632e-04 -3.30296408067132577e-03 1.06533135408312125e-02
5 1 -4.04544227145646647e-03 -5.04313285493484392e-03 -9.89531644092564097e-04
6 1 6.05654255422320514e-04 -1.95731108818609362e-03 -1.56355318439588206e-02
7 1 1.09231731886912254e-02 -4.13491254590252037e-03 -2.20923505682014910e-04
8 1 -3.48878358037578743e-03 7.74175027439633675e-03 1.39244787019560156e-04
8
Step 11000
1 1 -1.17965230083028373e-02 2.00536455063887731e-02 1.36156061119757621e-03
2 1 -1.05204779347699926e-02 9.09736288258890073e-03 3.43116989768869505e-03
3 1 8.41748813221201465e-03 -1.19249150114837284e-02 -5.70306554282900505e-03
4 1 1.15066387600457130e-03 -4.15539214324899247e-03 1.48145438593769718e-02
5 1 -2.35478606373719628e-03 -5.28517560208860253e-03 4.97696953220962048e-03
6 1 -2.12642105837927318e-04 3.84205399071566034e-03 -2.42656642801928925e-02
7 1 1.93499606009734141e-03 -8.80118169967583457e-03 3.28164579181643894e-03
8 1 -8.70623761163841041e-03 1.48668975554154650e-04 6.27095466587765209e-03
8
Step 12000
1 1 -1.05081890061195678e-02 1.32250042072469924e-02 1.27024652629417777e-03
2 1 -8.40068314168261436e-03 2.64009189189305183e-03 5.88658949676547361e-03
3 1 1.00641026578782745e-02 -1.42531862854104567e-02 9.53233764685499653e-04
4 1 3.15189257663144994e-03 -3.97767840637757667e-03 1.31206556749230516e-02
5 1 2.32456421922750192e-03 -2.57438799341494539e-03 9.50286333465602019e-03
6 1 -7.11633095657413165e-07 9.07951138267398296e-03 -2.39950026503554757e-02
7 1 -5.78003989468547311e-03 -1.05322461979233967e-02 3.53424382503460255e-03
8 1 -1.10061091318528238e-02 -7.44874085705592420e-03 8.98820480724975453e-03
8
Step 13000
1 1 -3.71067820835844662e-03 1.66624238855823817e-03 4.96337062423744140e-04
2 1 -2.56134292865176430e-03 -4.86518440611001957e-03 5.42934763162558880e-03
3 1 6.62930498200358861e-03 -1.17943786544580376e-02 7.65287579577050847e-03
4 1 3.98743058693884489e-03 -3.01859324801942051e-03 7.71461505246111724e-03
5 1 7.10052741214436782e-03 1.26897850075983250e-03 1.04486371625440496e-02
6 1 1.59144397239328818e-03 1.19152807387706214e-02 -1.41046703592757009e-02
7 1 -9.51961271577965104e-03 -8.87601129636183053e-03 1.76811047731454014e-03
8 1 -9.85625456739707556e-03 -1.18830787843096398e-02 7.31438419069577531e-03
8
Step 14000
1 1 6.13969283985218561e-03 -1.10824624795918727e-02 1.89952300078959199e-04
2 1 3.66630080828473899e-03 -9.10554241657362921e-03 2.60847890968860614e-03
3 1 -1.58813770044875205e-03 -4.02189833461781294e-03 1.18902054692714039e-02
4 1 2.52189314836745102e-03 -1.34241392641729247e-03 1.72052127979490364e-03
5 1 8.66471801386718352e-03 3.93390067362064336e-03 7.11296950314034473e-03
6 1 4.01174087249987418e-03 1.14483815538557118e-02 1.33922528616272946e-03
7 1 -8.75881733319883865e-03 -4.71792467700357654e-03 7.24076884031128341e-05
8 1 -5.82166277178565884e-03 -1.13520921683047116e-02 2.18165463316311644e-03
8
Step 15000
1 1 1.48842677990891712e-02 -2.07143633166278554e-02 1.04486268842765464e-03
2 1 7.39473551445665213e-03 -7.95329837547344154e-03 -1.24726788597688629e-03
3 1 -1.16790606808495050e-02 7.28714757458068327e-03 1.17567222706859483e-02
4 1 -1.17235311726409221e-03 1.10580073719984792e-03 -2.60463087703433202e-03
5 1 5.21116532047516661e-03 3.80221360081990298e-03 7.15166538572380530e-04
6 1 6.06674936067139788e-03 7.70227128620915545e-03 1.66235397322062918e-02
7 1 -4.77659349225551758e-03 4.23375027588524812e-04 -2.26056471587723968e-05
8 1 -4.08760164118053060e-04 -6.38041345182282973e-03 -3.98870900586699700e-03
8
Step 16000
1 1 1.72560303174677590e-02 -2.22967507788783860e-02 2.64562757163160946e-03
2 1 7.40471754412076657e-03 -2.28869734633524577e-03 -4.75158350205276674e-03
3 1 -1.86235199721107893e-02 1.76946054512199594e-02 6.69724033604705057e-03
4 1 -5.67102250453518572e-03 4.05683825298645915e-03 -4.44370570596834026e-03
5 1 -2.30071965118087323e-03 8.28031065094650604e-04 -6.19886246441787164e-03
6 1 6.16610679680455395e-03 1.30445968551297213e-03 2.58401281026475818e-02
7 1 3.16144293231389176e-04 5.11054336228147863e-03 1.71184004357380825e-03
8 1 4.65361959989055423e-03 7.75334096883202985e-04 -8.47620731830673463e-03
8
Step 17000
1 1 1.13758933502502990e-02 -1.50371181271452010e-02 3.58349926680007723e-03
2 1 4.32417488939754440e-03 4.83360672520894482e-03 -6.95680254631540155e-03
3 1 -1.76462980907642550e-02 2.14253389829161811e-02 -1.36132206697648045e-03
4 1 -8.65171147327085249e-03 6.58205543001654826e-03 -4.21797876349236465e-03
5 1 -1.04689397086240397e-02 -3.42170033519666964e-03 -1.08966514498154369e-02
6 1 3.21876104275526818e-03 -5.76158246169188992e-03 2.44531161768489456e-02
7 1 4.24551198880370600e-03 8.15119017362386268e-03 4.19616069390006587e-03
8 1 7.86866111546407135e-03 7.13856542427920935e-03 -9.23521976406441181e-03
8
Step 18000
1 1 9.07480125511243765e-04 -3.62005263877849832e-03 2.64010245690204188e-03
2 1 -1.22001664154375227e-04 9.81072296680612216e-03 -7.32662004778506740e-03
3 1 -8.62664484097368060e-03 1.60464053638761130e-02 -8.42359656581723529e-03
4 1 -7.98452849147775028e-03 7.28008461418040882e-03 -3.12475507943573306e-03
5 1 -1.48475665200836129e-02 -6.41928586089875186e-03 -1.13845850974934205e-02
6 1 -2.08812933180041070e-03 -1.07497757876445620e-02 1.35782616385434571e-02
7 1 5.16831791851194398e-03 8.73525831285478643e-03 5.53923789901306519e-03
8 1 8.33655124108754163e-03 1.00724438105872713e-02 -5.72221408701662718e-03
8
Step 19000
1 1 -9.01237390220364920e-03 6.83954164334101347e-03 -4.76025506977885654e-04
2 1 -3.95285496153855755e-03 9.92263963444408800e-03 -5.60948424870028658e-03
3 1 3.80358821101451847e-03 4.46580858253787984e-03 -1.15355266639849789e-02
4 1 -3.10053351917171380e-03 5.04689333189952977e-03 -2.43423811549735173e-03
5 1 -1.24820773441624323e-02 -6.07348188532391264e-03 -7.56652590747125715e-03
6 1 -7.76371963859306003e-03 -1.21115539770755634e-02 -8.05178792530379791e-04
7 1 2.57926581647578874e-03 6.80858135394018550e-03 4.11856194658168345e-03
8 1 6.18301328329863998e-03 8.59840235747944687e-03 6.62213790322006553e-04
8
Step 20000
1 1 -1.41546226749995931e-02 1.28819648910919425e-02 -4.81128019278849548e-03
2 1 -5.69868055004241637e-03 4.60371352050866194e-03 -1.96766511271324364e-03
3 1 1.42452082619987253e-02 -8.27992606549763505e-03 -1.00931340578983651e-02
4 1 4.38018101200960894e-03 -6.37246326621444088e-05 -2.71005914893740572e-03
5 1 -4.31559313038789964e-03 -2.29094101959872619e-03 -1.56327970483129955e-03
6 1 -1.15734768117255523e-02 -9.74385155516443655e-03 -1.24905174386763709e-02
7 1 -2.20781774396520882e-03 3.13047867258094310e-03 -2.59979585613446596e-04
8 1 2.43558436757806323e-03 3.84680509566056586e-03 7.24500227975770697e-03
8
Step 21000
1 1 -1.25252949658209937e-02 1.31704390074139140e-02 -8.17494305699783576e-03
2 1 -4.95209074274184126e-03 -4.11345824533929094e-03 2.96331971356468679e-03
3 1 1.83543561162739545e-02 -1.69883869229531977e-02 -5.15545157007032528e-03
4 1 1.12282207193724736e-02 -6.51496024848015158e-03 -3.47237066926654649e-03
5 1 5.83942630240008934e-03 3.15114851134592252e-03 4.01636425305600640e-03
6 1 -1.15847033353347392e-02 -4.67257265503401298e-03 -1.72407408907122653e-02
7 1 -6.65342058937462393e-03 -1.12256654881382964e-03 -6.05674122912699779e-03
8 1 -1.57582330098759256e-03 -1.75974022274749176e-03 1.12914089361443922e-02
8
Step 22000
1 1 -5.83914586749162412e-03 9.25462161184488659e-03 -8.40333049894971020e-03
2 1 -2.34196028359504168e-03 -1.23014727878775348e-02 8.04129530030931253e-03
3 1 1.45659297814049304e-02 -1.79038160823720913e-02 7.39625867563007701e-04
4 1 1.38770156868297245e-02 -1.15549474371561094e-02 -3.52437621404078213e-03
5 1 1.36482412051668993e-02 7.68682505165167815e-03 7.40973664555316658e-03
6 1 -7.35743332193462742e-03 1.01058119192117229e-03 -1.44182223817552659e-02
7 1 -8.12676830257960843e-03 -4.70425324832790970e-03 -1.05590402456977699e-02
8 1 -4.66475457547584071e-03 -5.61388338714240761e-03 1.09430559282980618e-02
8
Step 23000
1 1 1.80715342507148098e-03 4.22769817672815143e-03 -4.71000195331868713e-03
2 1 7.84739908117560868e-04 -1.55418426074403170e-02 1.15373982149125573e-02
3 1 5.81921594017553983e-03 -1.15933155769047998e-02 4.77885670472202959e-03
4 1 1.04060932977291642e-02 -1.24126098491104293e-02 -1.82029658426423671e-03
5 1 1.57158901423076584e-02 8.92439977354076916e-03 7.92431164393687763e-03
6 1 -4.25661532816198093e-04 5.25160997455198855e-03 -7.23139218126737579e-03
7 1 -5.18986086464855775e-03 -6.60585925326453733e-03 -1.11173831569560747e-02
8 1 -6.08421716466727661e-03 -6.06995733180478066e-03 6.03131719292289079e-03
8
Step 24000
1 1 6.66116406378619835e-03 4.82662978026982448e-04 2.01579633005343579e-03
2 1 2.93859306699384296e-03 -1.13701552304750018e-02 1.17306123027908320e-02
3 1 -2.96840826458097352e-03 -2.08818397379312943e-03 5.78594517026613693e-03
4 1 2.09994826377583226e-03 -8.16024287687358574e-03 1.65331403695317914e-03
5 1 1.14672960543853383e-02 6.07933894281318093e-03 6.19320932984700548e-03
6 1 6.86202095215052588e-03 7.11494472627030583e-03 -3.17361314417727381e-05
7 1 1.39695931396261949e-03 -6.49219131864610562e-03 -6.79785671971669912e-03
8 1 -5.74267440025942946e-03 -3.30911448490879209e-03 -1.72178094150601747e-03
8
Step 25000
1 1 6.91308340506204162e-03 -1.23255221411940866e-03 9.34569478378969275e-03
2 1 3.37587498624077227e-03 -1.18923833833755742e-03 8.01346074875520023e-03
3 1 -8.19940077635194185e-03 6.32234430295282313e-03 4.30530349061132838e-03
4 1 -7.47096380510091449e-03 -1.85417718730653583e-04 5.78338383829256255e-03
5 1 3.39605333044226384e-03 4.52906411088817274e-04 3.64786945241946624e-03
6 1 1.22317692937477414e-02 6.73876416725718245e-03 4.11996463823173942e-03
7 1 8.98252212027464240e-03 -4.77335749317513592e-03 9.76476955527542934e-04
8 1 -4.05360018810986718e-03 8.63691361186729486e-04 -9.52058324009298976e-03
8
Step 26000
1 1 3.22495715197414993e-03 -1.59471686195524149e-03 1.39698691408649423e-02
2 1 2.41194464602464834e-03 1.07241381321708726e-02 1.05213006662037379e-03
3 1 -8.53526769010657868e-03 1.05468626531271380e-02 1.77827866599084396e-03
4 1 -1.42258555541379464e-02 8.59132838156711175e-03 8.73575115304904039e-03
5 1 -5.05502781367586553e-03 -5.63845895337632391e-03 1.33868144266251188e-03
6 1 1.39162771191964092e-02 4.96761111468659814e-03 4.35307910509426851e-03
7 1 1.41830319166612092e-02 -2.22909719478484340e-03 9.11046072768023803e-03
8 1 -1.59683804946847831e-03 3.96388873567488260e-03 -1.44268508525557011e-02
8
Step 27000
1 1 -1.70803007787819253e-03 -1.86431506221845051e-03 1.31961572752103493e-02
2 1 9.56413292131245009e-04 1.90454502943962906e-02 -7.44781780579820574e-03
3 1 -5.07668734612595155e-03 9.54198811245227270e-03 -1.91784198862455005e-04
4 1 -1.48959065779595713e-02 1.43777858207740656e-02 8.62811864522371359e-03
5 1 -1.08678380559077952e-02 -9.67191271364900747e-03 -4.91188222635889800e-04
6 1 1.13732774300541739e-02 2.90940061816682798e-03 1.99762711122045047e-03
7 1 1.40927197622090668e-02 2.58847416970813763e-04 1.38626690772894658e-02
8 1 1.04138330096917742e-03 3.98265305363157927e-03 -1.42466264003190662e-02
8
Step 28000
1 1 -4.68280027897273032e-03 -2.88722341712514341e-03 6.54408460617290650e-03
2 1 -3.38251198295682809e-05 1.91638422969292593e-02 -1.45236733390695233e-02
3 1 -6.35078655608915755e-04 4.66977313286266044e-03 -6.50192769702546665e-04
4 1 -9.09557041887605264e-03 1.43188079674916660e-02 4.92040977354643670e-03
5 1 -1.21382664624010827e-02 -9.67893472872224242e-03 -2.14306190905133240e-03
6 1 5.50815347300673448e-03 1.32283882708011057e-03 -4.75124844333605311e-04
7 1 8.00326961906568622e-03 1.95678354577477924e-03 1.27198820142599353e-02
8 1 3.35641690948340621e-03 5.91258882313084786e-04 -8.68624605803281456e-03
8
Step 29000
1 1 -3.83459664385742485e-03 -4.51596494092217689e-03 -3.87119013095814628e-03
2 1 -1.18908050426079091e-04 1.04278550184958504e-02 -1.70552342355184232e-02
3 1 2.01195366652480879e-03 -1.31901612947034450e-03 2.98779558567208755e-04
4 1 8.85895661375612846e-05 8.57142700232967590e-03 -9.27789875179988745e-04
5 1 -9.01086416573122079e-03 -5.42833057076207767e-03 -4.02299736583020158e-03
6 1 -2.01314425806237889e-03 2.74474160129085367e-04 -1.04293048250116410e-03
7 1 -1.90448710555689467e-03 2.69088727165575029e-03 6.17677938487974556e-03
8 1 5.03105846699146864e-03 -4.54276446052576197e-03 4.51293136114133220e-04
8
Step 30000
1 1 4.84525847877409098e-04 -5.73466745668746881e-03 -1.41623094126913270e-02
2 1 3.27716397221484361e-04 -2.88260556903154053e-03 -1.39216121117405126e-02
3 1 1.52491717344993192e-03 -5.68919203839265974e-03 1.72942433405623604e-03
4 1 8.47239027788715751e-03 -3.23501149112796456e-04 -6.53375823887348845e-03
5 1 -3.51003336379661444e-03 1.34846539976795602e-03 -6.15173198943986914e-03
6 1 -9.41475231818737074e-03 -7.17295415533118611e-04 9.01730829356416118e-04
7 1 -1.20743987562584604e-02 2.86825891497613766e-03 -2.88533092026215313e-03
8 1 5.81278650776167506e-03 -8.54071420105739776e-03 1.01563729233142396e-02
8
Step 31000
1 1 5.86974620528530992e-03 -5.30757443767556139e-03 -1.96943680305052445e-02
2 1 5.02481270699726458e-04 -1.47507973910811271e-02 -6.13995869912217773e-03
3 1 -1.52234535935296799e-03 -6.71234868256877573e-03 2.45434193860859674e-03
4 1 1.26337998579632935e-02 -8.88383479097267989e-03 -9.57049702720968662e-03
5 1 1.86527116837800202e-03 7.90229486383055985e-03 -7.79438560759718353e-03
6 1 -1.48701133046384108e-02 -2.26204914887870789e-03 4.40499540088218431e-03
7 1 -1.87528432484507582e-02 3.04136052337003774e-03 -1.05842428100899819e-02
8 1 5.31659495506880183e-03 -8.46215161392213991e-03 1.68235106894793728e-02
8
Step 32000
1 1 8.90341396099257609e-03 -2.79528635506009647e-03 -1.71298312298739444e-02
2 1 -2.03894407352476115e-04 -2.00384038873385635e-02 3.91458505099686119e-03
3 1 -5.06202536216212098e-03 -4.20392078796457888e-03 1.63615760819381265e-03
4 1 1.09206031433674074e-02 -1.35230326097194667e-02 -8.55213908401591776e-03
5 1 5.26316789286256689e-03 1.14371219786911817e-02 -7.58867768011814610e-03
6 1 -1.64905757641769027e-02 -4.56070710517736920e-03 7.32798498955574383e-03
7 1 -1.88341596194424345e-02 3.49080788210905839e-03 -1.31480477979072918e-02
8 1 3.28292227603346233e-03 -3.13678161988842092e-03 1.74726361284920188e-02
8
Step 33000
1 1 7.38520183127804476e-03 7.91829982402548821e-04 -7.12128051374084567e-03
2 1 -1.67670908095175070e-03 -1.64122040274068196e-02 1.27876741727034234e-02
3 1 -6.63390286065151415e-03 5.80125050269990339e-04 -7.89755151726107539e-04
4 1 4.60318084164696665e-03 -1.23091760614687535e-02 -3.98930699588132508e-03
5 1 6.06782946224744026e-03 1.02346741958734260e-02 -4.42716696296584049e-03
6 1 -1.30783933527192382e-02 -6.99225975651442729e-03 7.42335340006403457e-03
7 1 -1.20727358830634776e-02 4.00566298306647556e-03 -9.30411994102808143e-03
8 1 7.57902395233989764e-06 5.47427379036652395e-03 1.18081418483810298e-02
8
Step 34000
1 1 1.69859562953986599e-03 3.72752651989747587e-03 6.21178383578832073e-03
2 1 -3.02348164203135490e-03 -6.04317289692204041e-03 1.72672491471523096e-02
3 1 -4.59557385849244590e-03 5.60272066256388944e-03 -4.06750477999310005e-03
4 1 -2.84076780423153132e-03 -6.19280410975521847e-03 1.73932837189146212e-03
5 1 5.03250986052138343e-03 4.67524927512265060e-03 1.55792762467498228e-03
6 1 -5.14116892455523163e-03 -8.29761072742623076e-03 3.89096393275060537e-03
7 1 -1.43598960952724133e-03 3.93828575228224315e-03 -1.42204620802337061e-03
8 1 -3.71400580920202422e-03 1.33315488022949513e-02 2.24180344444076989e-03
8
Step 35000
1 1 -5.81562893845712255e-03 4.68144948364875371e-03 1.76822017441796882e-02
2 1 -3.22652185374530708e-03 5.74146184809180230e-03 1.60243702364668873e-02
3 1 1.09417939553222310e-03 8.81130913846660778e-03 -6.90663326909227420e-03
4 1 -7.91967678861540264e-03 1.93770227697005097e-03 5.85314099292404914e-03
5 1 3.53185875161146244e-03 -3.06174774340307052e-03 8.75544524493742857e-03
6 1 5.24481642015232029e-03 -7.20972358561839787e-03 -2.06084549653519616e-03
7 1 9.35853874808276198e-03 2.49317997279710837e-03 6.51064379088802866e-03
8 1 -6.72455108989292866e-03 1.62535463295239609e-02 -7.56913314841075376e-03
8
Step 36000
1 1 -1.15666254562741717e-02 3.35553740281386518e-03 2.21036781537275913e-02
2 1 -1.85604167470595745e-03 1.36673138617582398e-02 9.84877455393481233e-03
3 1 8.69479030063805176e-03 8.71536397582422552e-03 -7.91032084469372662e-03
4 1 -8.52983134908677325e-03 8.57557432595650038e-03 6.36345667469302538e-03
5 1 2.53645948548826159e-03 -1.00267928397187039e-02 1.43713630655478101e-02
6 1 1.50457941574578813e-02 -3.00211832384754754e-03 -7.89028357483876654e-03
7 1 1.69868741845799615e-02 -7.67023362804145482e-04 1.07077280682006306e-02
8 1 -7.73619634490727709e-03 1.19765900842102348e-02 -1.38820168418431322e-02
8
Step 37000
1 1 -1.22395968797549461e-02 9.72708940471690730e-04 1.68781990557107103e-02
2 1 6.48300173585088127e-04 1.48550885662502123e-02 1.09082917860458444e-03
3 1 1.50472964253598948e-02 4.81011775303123463e-03 -6.05949018722608344e-03
4 1 -4.76393963186351119e-03 1.08455557733030828e-02 3.03893977253722565e-03
5 1 2.14130799073880204e-03 -1.32687721119313911e-02 1.53147029205620080e-02
6 1 2.04949448492420250e-02 3.76298448943810119e-03 -1.06929489657977272e-02
7 1 1.88575132785027653e-02 -5.21433207708118986e-03 8.92369702697518724e-03
8 1 -6.17363544168632056e-03 2.06896732640508103e-03 -1.47064403429084476e-02
8
Step 38000
1 1 -7.45897100778093649e-03 -3.05679519211490098e-04 4.85330768330103062e-03
2 1 3.15263368625905019e-03 9.72480897713952352e-03 -7.29660263881135463e-03
3 1 1.66661471991849386e-02 -2.01453855875405969e-03 -1.31628840114841688e-03
4 1 1.09254693526479444e-03 7.96188157029872196e-03 -2.21020442930618599e-03
5 1 1.71385342612260030e-03 -1.11811412888196647e-02 1.01978579459441401e-02
6 1 1.87108091476739027e-02 1.06285200242826929e-02 -8.88280415811001055e-03
7 1 1.45644580316978706e-02 -9.02417864558880713e-03 2.18078384220175619e-03
8 1 -2.61370475654094285e-03 -9.00157440306885957e-03 -1.08251488800378774e-02
8
Step 39000
1 1 2.53615537777638071e-04 9.68293760913162510e-04 -8.09352281762429002e-03
2 1 4.34048688704793875e-03 1.21983593057640961e-03 -1.28054468375896364e-02
3 1 1.16214081522198944e-02 -9.46205704749093594e-03 4.98537822224474035e-03
4 1 5.96130754823169171e-03 1.53739630320146926e-03 -6.31647339546405340e-03
5 1 4.96208920128317224e-04 -4.64293471028316869e-03 5.57665624090234943e-04
6 1 1.02517118624568474e-02 1.44531179414069105e-02 -3.73846995091092933e-03
7 1 6.27319768739975810e-03 -1.01799099897168181e-02 -5.55948561635232277e-03
8 1 1.64104790475648661e-03 -1.65056676748481651e-02 -4.60334955474291357e-03
8
Step 40000
1 1 7.42911666958562776e-03 4.46678954953588694e-03 -1.65306490123118231e-02
2 1 3.35510136516919315e-03 -6.72125181387221195e-03 -1.39112151720680310e-02
3 1 9.48782713056927967e-04 -1.46243480177167713e-02 1.05105863932440490e-02
4 1 7.53231588675638223e-03 -5.42859065855877485e-03 -6.60623281994822051e-03
5 1 -1.78538934953485860e-03 3.84593200874874114e-03 -1.02447421680239795e-02
6 1 -1.31343387862955705e-03 1.34262355760518641e-02 1.62976760303657495e-03
7 1 -2.81464154248383443e-03 -7.61730293131368790e-03 -9.91952035083218213e-03
8 1 5.00163080637819335e-03 -1.74011805178792105e-02 1.36111852259295776e-03
8
Step 41000
1 1 1.08184079532512370e-02 7.81248011589782618e-03 -1.68380297308379119e-02
2 1 4.97227193490384239e-04 -1.07804704903542888e-02 -1.05324944047453673e-02
3 1 -1.13802863341387894e-02 -1.50475260348711410e-02 1.28128796041022171e-02
4 1 5.07831514341191594e-03 -9.81148108468020419e-03 -2.02343458885557732e-03
5 1 -4.69904236469389711e-03 1.13050590772549881e-02 -1.81878732029031424e-02
6 1 -1.17645124493241885e-02 7.58604012591099306e-03 4.56804521111412159e-03
7 1 -9.84477655880657172e-03 -1.83129261838151460e-03 -8.44033345736092469e-03
8 1 6.24045504505664050e-03 -1.17688221239095371e-02 5.20624887895391499e-03
8
Step 42000
1 1 9.02479275117940537e-03 7.71045012708532554e-03 -9.28900781692469819e-03
2 1 -2.74248632069568022e-03 -9.72219136518313529e-03 -4.22016825195100764e-03
3 1 -1.98344624383139483e-02 -9.97419251971513009e-03 1.05723290453502480e-02
4 1 -3.96482442464546315e-04 -9.48479909342490012e-03 6.26760920060413177e-03
5 1 -7.03090112324251341e-03 1.45768845990737646e-02 -1.94247380935410538e-02
6 1 -1.75400517986943200e-02 -1.33262165046976722e-03 4.18376356619054590e-03
7 1 -1.31382351685955506e-02 5.18558456157853283e-03 -1.86872926419327139e-03
8 1 5.19560959817794848e-03 -2.53930963919733570e-03 6.51782375794550221e-03
8
Step 43000
1 1 3.72676603630586138e-03 2.42549082726558826e-03 1.42102391280472503e-03
2 1 -4.54392722326437629e-03 -4.60560414399820671e-03 2.56555731888253279e-03
3 1 -2.06363770935248034e-02 -1.30507513636722540e-03 4.81438492863112393e-03
4 1 -6.56672881224829551e-03 -4.00372544463571418e-03 1.49523800188307281e-02
5 1 -7.34180221964612478e-03 1.18808487113706909e-02 -1.28488116314392203e-02
6 1 -1.67379624046273059e-02 -1.01252407271317010e-02 1.65199762875747999e-03
7 1 -1.24113294956460663e-02 1.07023945848000283e-02 6.26196408769781089e-03
8 1 2.68932143084298254e-03 6.45267914658724778e-03 6.07317104645249510e-03
8
Step 44000
1 1 -1.82518662654999192e-03 -7.04397529983877800e-03 9.57857271436552901e-03
2 1 -3.61790393954626675e-03 2.09113342119577467e-03 7.46547872832895986e-03
3 1 -1.45031184716283967e-02 7.64261753514660063e-03 -1.75743655109529854e-03
4 1 -1.03077289392353010e-02 4.83751644547994030e-03 1.89008609667903095e-02
5 1 -5.21434657620905781e-03 4.66976987126957194e-03 -1.76302314667435979e-03
6 1 -1.01701655752647665e-02 -1.53080855340128347e-02 -5.32926370948129066e-04
7 1 -8.53348915323873421e-03 1.22931993092265587e-02 1.13628885812128797e-02
8 1 4.47142420229439180e-06 1.21084699130172731e-02 4.95874410102015595e-03
8
Step 45000
1 1 -4.81656426508081728e-03 -1.69368843347670987e-02 1.12840827687628823e-02
2 1 8.96939636269956318e-05 7.52039748284838959e-03 8.97940172985563570e-03
3 1 -5.27346622856421973e-03 1.43105879501336103e-02 -6.82398473634216601e-03
4 1 -8.96803680274951137e-03 1.25584617602392343e-02 1.34671817705772669e-02
5 1 -1.53544490778720170e-03 -3.60333554281836062e-03 8.73469459598826513e-03
6 1 -1.05884289144799739e-03 -1.49052134538065189e-02 -2.39726265122722470e-04
7 1 -3.21985258417378361e-03 9.17997405220525448e-03 1.03569760741561712e-02
8 1 -1.63622750404688417e-03 1.30094158484221310e-02 3.89267450854264294e-03
8
Step 46000
1 1 -4.04630800634893199e-03 -2.15410551524671708e-02 5.94834114026277991e-03
2 1 4.77437099458660925e-03 9.59612156582281481e-03 7.08227474003770164e-03
3 1 3.02429518780078423e-03 1.73377140132344176e-02 -9.37463958130845508e-03
4 1 -2.72015188363450115e-03 1.43412599850575168e-02 -1.03511579036312789e-03
5 1 2.35475329036697375e-03 -9.62028163035917941e-03 1.46681061795515284e-02
6 1 6.77528329817328641e-03 -9.28093205735055181e-03 2.83499826584234513e-03
7 1 1.79193382715922751e-03 2.81884605263714363e-03 3.78580779250452422e-03
8 1 -1.69870584911380467e-03 9.79096949738045286e-03 2.99813652363520007e-03
8
Step 47000
1 1 -7.95289832170891463e-04 -1.69601232508776803e-02 -2.82186599943283272e-03
2 1 7.51734069542124572e-03 7.79748755600790603e-03 3.23927698481331393e-03
3 1 8.00969835229858526e-03 1.62515158540095170e-02 -9.57211417840925574e-03