8
Step 0
1 1 1.30169982833796046e-02 -3.90915751393750097e-03 -5.83327556246204196e-03
2 1 -1.05951608021412503e-02 -1.16098773245166681e-02 1.07277371047130848e-02
3 1 -1.07423658785850019e-02 -5.97683642001379991e-03 1.20450904754861900e-02
4 1 -7.73869338668499527e-03 -4.35615425558102953e-04 8.98038550680538977e-03
5 1 1.06189168930768251e-02 -6.56090100612922739e-03 7.74287411624780680e-03
6 1 2.12746455148641357e-02 2.33319900961039550e-02 -7.65252933554583497e-03
7 1 8.78686633003783772e-04 -9.25198569326629930e-03 -1.78440220564071738e-03
8 1 -3.31235227931507732e-03 -1.15627910951489297e-02 1.39304607125808298e-02
8
Step 1000
1 1 1.87258407871862924e-02 -1.10460653242224517e-02 -3.72974952603782450e-03
2 1 1.43704253631308869e-03 -2.23919316577213985e-02 -1.19944730906606611e-03
3 1 -1.44027551468203230e-02 4.66581774537180947e-03 1.00673516029723114e-02
4 1 -9.07351214378657005e-03 4.27283081708911320e-04 -3.63070687706889021e-03
5 1 8.26297986456152669e-03 -2.76552125949042129e-03 1.25667689399396459e-02
6 1 1.90382900729148506e-02 9.47323531962217594e-03 4.07135798470970728e-03
7 1 -5.08926432512406615e-03 -1.16099985468915614e-02 5.52977125745482499e-03
8 1 -3.67785042202658456e-03 -2.00512444258212560e-02 7.68781037674504532e-04
8
Step 2000
1 1 1.74288158267353402e-02 -1.35201522599207574e-02 9.20165195485437215e-04
2 1 1.24113683441754285e-02 -2.25481999014140594e-02 -1.32837262476995632e-02
3 1 -1.40161451706726312e-02 1.33753603195032721e-02 3.57337846749914518e-03
4 1 -8.46438669706360211e-03 1.35859403967696904e-03 -1.39902802164086609e-02
5 1 1.65076309499107552e-03 2.12130255829702909e-03 1.10912488760382313e-02
6 1 9.40435627633857095e-03 -5.10021447045169284e-03 1.35014406883060770e-02
7 1 -8.03166303900092020e-03 -9.22720733290094755e-03 1.14376366673619740e-02
8 1 -3.30879422007663909e-03 -2.13438930874278003e-02 -1.26617938307320745e-02
8
Step 3000
1 1 8.98956093624325887e-03 -1.10182674008141249e-02 5.90298661182415974e-03
2 1 1.56852802182374552e-02 -1.05898453842012130e-02 -1.93306736732777318e-02
3 1 -9.40723043436453472e-03 1.73413853438214374e-02 -3.54204489033542631e-03
4 1 -6.53731532184113114e-03 2.56044879867569101e-03 -1.83100870111461908e-02
5 1 -6.16471820265618396e-03 3.86942964206696705e-03 4.15023340808409313e-03
6 1 -3.71087615860950671e-03 -1.42190434091759767e-02 1.73365619829824007e-02
7 1 -7.21085595532545455e-03 -3.11660771651869678e-03 1.42644629731861691e-02
8 1 -3.40082598197068067e-03 -1.34824138526211199e-02 -1.92365864585176752e-02
8
Step 4000
1 1 -3.09747107983485929e-03 -4.87923072765472990e-03 8.48774770779487514e-03
2 1 1.02936606626600827e-02 5.94187589716181543e-03 -1.65891906027072732e-02
3 1 -2.04299980533473270e-03 1.54476295472019930e-02 -7.74107111498574269e-03
4 1 -3.64211863912134760e-03 3.73042586919639487e-03 -1.54857351398307082e-02
5 1 -1.28978671584569320e-02 1.73554814467462813e-03 -4.05997954586366158e-03
6 1 -1.52306461698094673e-02 -1.50429122194665789e-02 1.47332986850038077e-02
7 1 -3.90365576836770823e-03 3.93355899884464694e-03 1.31593068960775220e-02
8 1 -2.99265055793675790e-03 -1.14867223744832738e-03 -1.66956977672890992e-02
8
Step 5000
1 1 -1.41007674006930865e-02 1.16725953397276111e-03 8.41567494200332750e-03
2 1 8.97713586224011570e-04 1.83256014072833533e-02 -8.32054267058904631e-03
3 1 5.58687994585966262e-03 8.92989504374808001e-03 -7.53543802936071372e-03
4 1 1.60169336817105122e-04 4.06857568534011414e-03 -7.91467531980180085e-03
5 1 -1.63703872271064137e-02 -1.55083445523892345e-03 -9.73768577531118097e-03
6 1 -2.03873399636110564e-02 -9.22609699218733190e-03 7.75594018724607738e-03
7 1 -3.65138011841557452e-04 9.02521868125517705e-03 8.31520351120416251e-03
8 1 -1.08648508697235845e-03 8.79361307527793019e-03 -7.94275975288359984e-03
8
Step 6000
1 1 -1.92742645821493766e-02 3.98914773862046965e-03 5.31053667007887285e-03
2 1 -7.15373747212222789e-03 2.16224154006960656e-02 1.08111647220851927e-03
3 1 1.11729288653065941e-02 3.93126621261578359e-04 -3.64685360792091308e-03
4 1 4.55705148030992584e-03 2.76648067559588477e-03 4.78796198428305933e-04
5 1 -1.34687603606102636e-02 -4.28020054967700233e-03 -1.11082118081885749e-02
6 1 -1.80059456574147153e-02 -1.75044840672844448e-03 3.08176895839530499e-04
7 1 1.75024476899563798e-03 1.04987982232932452e-02 9.23336775430832254e-04
8 1 1.07360953089311560e-03 1.39308475897283630e-02 2.82698845896063892e-03
8
Step 7000
1 1 -1.58428773955774163e-02 3.55509506886609889e-03 -9.75368475455409855e-04
2 1 -1.06999059269903881e-02 1.50472202366243885e-02 8.59794080193699607e-03
3 1 1.31027706453744220e-02 -7.30918604446416029e-03 1.25208790367469067e-03
4 1 8.68020546776603931e-03 -3.95394304505795391e-04 6.50969218438381646e-03
5 1 -5.03838979715656027e-03 -4.47199122676683169e-03 -7.34934950370175373e-03
6 1 -1.04167886196404897e-02 3.17168813598797542e-03 -4.75095912765243107e-03
7 1 1.78144177676453999e-03 8.48538269296651541e-03 -6.95276929129636304e-03
8 1 3.55429371272905290e-03 1.31737860606990966e-02 1.08863603987143526e-02
8
Step 8000
1 1 -5.88207046736442373e-03 1.37806232528379447e-03 -7.35742604649605898e-03
2 1 -9.04404437252610133e-03 2.54267440618225924e-03 1.22088532014297761e-02
3 1 1.07765556658183000e-02 -1.19646253326667965e-02 4.03809721217582036e-03
4 1 1.10223422516524984e-02 -4.64669697606689188e-03 8.60658319708006679e-03
5 1 5.35329785116335239e-03 -1.25321806981748226e-03 -6.73148255865395318e-04
6 1 -7.55329041151393170e-04 4.12241916938789997e-03 -6.68484173290111693e-03
7 1 4.50225905831262599e-04 4.51244986454174286e-03 -1.29853838884258325e-02
8 1 6.00003995423352594e-03 7.71229441080087483e-03 1.36677230736161580e-02
8
Step 9000
1 1 5.30455332324122376e-03 -9.45285079920727615e-04 -9.81594266623643692e-03
2 1 -3.35453092575479584e-03 -9.92864911439621071e-03 1.14544452519367585e-02
3 1 5.07930918020094158e-03 -1.22053129438044732e-02 3.40789720442319409e-03
4 1 1.00192377065132683e-02 -8.27296639326618316e-03 6.96048461894067938e-03
5 1 1.43477677029265026e-02 3.65102723858478804e-03 5.73688427323835407e-03
6 1 8.22214150113020556e-03 1.84763102468458204e-03 -6.06114829253900315e-03
7 1 -5.27687662139660041e-04 2.60330391689053285e-04 -1.52300693422201833e-02
8 1 6.81855436696038233e-03 1.30857933301315225e-03 1.08092052262859922e-02
8
Step 10000
1 1 1.28379819991783547e-02 -1.16727461265050091e-03 -7.75445275035921769e-03
2 1 3.46896865933968984e-03 -1.72416936310777619e-02 7.71858385797256474e-03
3 1 -1.62659752441925588e-03 -8.44754025770432654e-03 3.51328405331273518e-04
4 1 5.10946972357771874e-03 -9.48926019666382348e-03 3.44390599034211965e-03
5 1 1.82850580389607754e-02 7.97532028232200707e-03 9.77423124765837426e-03
6 1 1.40529062367878259e-02 -1.85512728696036111e-03 -4.12552183161253149e-03
7 1 2.36526577613530958e-04 -3.24389419829886191e-03 -1.27346839689529943e-02
8 1 5.40195404432057026e-03 -3.53340232793414224e-03 4.28867644538601274e-03
8
Step 11000
1 1 1.37986846005322059e-02 1.74956401058845796e-03 -2.87440680674131387e-03
2 1 7.78497289097748821e-03 -1.63651140261747707e-02 3.07047959714530942e-03
3 1 -6.59682879480229939e-03 -2.79234452742552555e-03 -3.20021261880390094e-03
4 1 -2.74916536169859168e-03 -7.14015819937486446e-03 3.00966762660721853e-04
5 1 1.47837428354199597e-02 9.38141211070947847e-03 9.93694349126058966e-03
6 1 1.49202040768171059e-02 -4.65869084505285500e-03 -2.29056006241991090e-03
7 1 2.72110612867242562e-03 -5.66163281782110922e-03 -5.90399374881758494e-03
8 1 2.32846905110970469e-03 -6.07541400495708456e-03 -2.56384950291083449e-03
8
Step 12000
1 1 8.01470534708525507e-03 5.84004813715650623e-03 3.38208920908539224e-03
2 1 7.91958959546953251e-03 -7.81595011041354495e-03 -1.43707800621888527e-03
3 1 -8.11004028031145699e-03 2.33520869107535414e-03 -5.26726523760038656e-03
4 1 -1.14564670319463480e-02 -9.77712370113211285e-04 -1.14557124762612876e-03
5 1 5.56058681890791214e-03 6.28295541950851279e-03 6.21263798207079190e-03
6 1 1.06785422120759827e-02 -4.66531499905090564e-03 -1.62399818464129984e-03
7 1 5.88266352538503040e-03 -7.21778723643903743e-03 3.45813677757799906e-03
8 1 -1.83373485002523819e-03 -5.92749069595173601e-03 -7.24132490069844936e-03
8
Step 13000
1 1 -1.02443126738723011e-03 8.61278823346057522e-03 8.19765072934798208e-03
2 1 4.73498405190001404e-03 4.15977901751200980e-03 -5.01929556260314203e-03
3 1 -6.10358131697029665e-03 5.18897915370935756e-03 -4.42610238645160282e-03
4 1 -1.79002161934912682e-02 7.87767806170310003e-03 -7.23090042101139866e-04
5 1 -5.64633370315890254e-03 -2.55205467682190061e-04 7.43819587237396895e-04
6 1 3.14210228302013329e-03 -1.50234553647758326e-03 -2.25520012703912765e-03
7 1 7.99204035117417715e-03 -8.09739775555184949e-03 1.27415359641106195e-02
8 1 -6.08769304791844084e-03 -4.14810661713966525e-03 -8.84840691568001929e-03
8
Step 14000
1 1 -8.19743534963553525e-03 8.36062867318832989e-03 8.53797353991716385e-03
2 1 -2.58641134066928016e-04 1.39524170428891939e-02 -6.77099881594027311e-03
3 1 -2.03674736626252182e-03 5.34777079176579351e-03 -8.76141001921366264e-04
4 1 -1.78933986465597931e-02 1.59399880197016036e-02 7.54933316835330707e-04
5 1 -1.52948465030313570e-02 -7.87808596542974304e-03 -4.70004888322258021e-03
6 1 -4.84764013006698611e-03 3.64272416279130340e-03 -3.18857081898771223e-03
7 1 6.94941784613766888e-03 -7.65707869011519361e-03 1.84091843785284190e-02
8 1 -8.66908961378278810e-03 -2.17378699043212480e-03 -7.03691732051312056e-03
8
Step 15000
1 1 -1.03506665568742842e-02 4.06040642748005474e-03 4.80205373996796855e-03
2 1 -4.89238299842276268e-03 1.70942772960989663e-02 -6.93771978333221004e-03
3 1 1.93643608975562192e-03 3.67714684158470129e-03 3.62275014825232328e-03
4 1 -9.20185628016190194e-03 1.83209858062841902e-02 1.66556094043949360e-03
5 1 -1.91094704323777204e-02 -1.37637871799060757e-02 -8.58134618772850473e-03
6 1 -1.04683095340885809e-02 8.70514546127659078e-03 -2.90245718454446933e-03
7 1 1.77347690241206994e-03 -4.97533858151686607e-03 1.70824342650428077e-02
8 1 -8.40426377650424321e-03 -4.23395267630915768e-04 -2.79479788981472702e-03
8
Step 16000
1 1 -7.16446060786878579e-03 -3.28469810427311744e-03 -5.34556092163199757e-04
2 1 -6.91317373158862464e-03 1.22017176606954991e-02 -6.15981310045094193e-03
3 1 3.89199245484253163e-03 1.57342052121524768e-03 7.13113017090568745e-03
4 1 5.04422162227167927e-03 1.26567237766338023e-02 7.21215473318960075e-04
5 1 -1.44331386739246156e-02 -1.41384137657343777e-02 -8.98759856097514943e-03
6 1 -1.16611836549945450e-02 1.11021386082630139e-02 -3.96711846587238304e-04
7 1 -5.95988124234414496e-03 -5.61271029183050494e-05 8.51827898690708449e-03
8 1 -5.10558324768634053e-03 8.12804395588354153e-04 1.61988208333323073e-03
8
Step 17000
1 1 -2.50285575020545563e-05 -1.08126431422315861e-02 -5.72897690650855679e-03
2 1 -5.52864576530021253e-03 2.02000645285933421e-03 -4.39233210840946683e-03
3 1 2.91624027786216954e-03 3.43551174847244042e-04 8.50523490175106658e-03
4 1 1.84434068683786943e-02 5.29171016344666119e-04 -1.96570585739600737e-03
5 1 -3.79703938673520191e-03 -7.82346337729477107e-03 -6.11254807466836067e-03
6 1 -8.21922231117278544e-03 9.01919974533972775e-03 4.18248593577319906e-03
7 1 -1.30489068346643262e-02 6.05991955381682008e-03 -3.89145401013977653e-03
8 1 2.27552500077196564e-04 1.42270265757902625e-03 4.45987007619897714e-03
8
Step 18000
1 1 7.72406172263626414e-03 -1.54494005319949605e-02 -8.61057962810241571e-03
2 1 -2.02186195615681802e-03 -8.58337433669507759e-03 -1.59088457571995899e-03
3 1 -2.67552112766542634e-04 4.82872106091720391e-04 6.90235733557695037e-03
4 1 2.44303424157858891e-02 -1.32413079947243210e-02 -4.95375610831884968e-03
5 1 7.62418910768666597e-03 2.31480009366910383e-03 -1.99597658793922075e-03
6 1 -2.04813214079436990e-03 2.76195880984567632e-03 9.23162158822691571e-03
7 1 -1.58841607577739768e-02 1.15076762140080852e-02 -1.47991034591369603e-02
8 1 6.00156072936047173e-03 2.17227203381598543e-03 5.04986123380501712e-03
8
Step 19000
1 1 1.17555954000851236e-02 -1.46239673090187722e-02 -7.23003243079654509e-03
2 1 1.73492816296471762e-03 -1.52288802344046296e-02 1.57480381750583630e-03
3 1 -3.89524612798330516e-03 1.38293061737837660e-03 2.24377094853866858e-03
4 1 1.90634903125913094e-02 -2.15942066642257208e-02 -6.04253951246167854e-03
5 1 1.55056155082583091e-02 1.25540279680485915e-02 2.17200025188711348e-03
6 1 3.98064320837593008e-03 -5.63596597949990799e-03 1.22255652551291304e-02
7 1 -1.20012149320722177e-02 1.37086233570703209e-02 -1.88286939779673396e-02
8 1 1.00991645542771215e-02 3.18384849972901725e-03 3.48656309822700187e-03
8
Step 20000
1 1 1.00299302649440158e-02 -7.89407559599962505e-03 -2.52898367280166621e-03
2 1 4.32319426415657491e-03 -1.49926844109896720e-02 4.63132819932605706e-03
3 1 -6.02078643182886192e-03 1.97837163546139188e-03 -4.13774811713964706e-03
4 1 5.08999836761716857e-03 -2.01995908572081724e-02 -4.05349743950097954e-03
5 1 1.61791237998058675e-02 1.85144802545304868e-02 5.17407441203675527e-03
6 1 7.25178735472919826e-03 -1.31602498662629786e-02 1.10156526922024177e-02
7 1 -2.73916120789713738e-03 1.11856901229952770e-02 -1.43812195266778530e-02
8 1 1.08014784625283192e-02 3.69066481347310026e-03 1.19936857760333899e-03
8
Step 21000
1 1 3.46835386786205433e-03 2.14001413776175164e-03 3.07002032740573850e-03
2 1 4.97658396276640970e-03 -7.99097867131290211e-03 6.91992471828829867e-03
3 1 -5.17367489752188804e-03 1.38896176554826885e-03 -9.87312568258083209e-03
4 1 -9.75330714211564836e-03 -1.07759411771804949e-02 4.59273603313559422e-05
5 1 9.34670230085966718e-03 1.63445721646746853e-02 5.92629849012887584e-03
6 1 6.45362165262023009e-03 -1.63632963992444633e-02 5.17835675991180043e-03
7 1 7.58283422801347279e-03 4.81489200228537792e-03 -4.60376057337853056e-03
8 1 7.49000278059317685e-03 3.24995981741029892e-03 -4.85595163985642951e-04
8
Step 22000
1 1 -5.38954308884165116e-03 1.16950385229375470e-02 7.47328357317148147e-03
2 1 3.54990920363873214e-03 1.91523005313467263e-03 7.62079258886798165e-03
3 1 -1.14038809255595204e-03 -5.88798930368685273e-04 -1.28521782763635246e-02
4 1 -1.86203530508307277e-02 1.89747309351105307e-03 4.22844438895009656e-03
5 1 -7.10311418876495050e-04 6.97908231640346263e-03 5.01306239758330524e-03
6 1 2.40889519775115517e-03 -1.34239925618098287e-02 -3.43403118705053363e-03
7 1 1.48663899045471514e-02 -3.28462590342386415e-03 5.45257424919922719e-03
8 1 1.29871335574070789e-03 1.69551379136847189e-03 -8.77449519209562477e-04
8
Step 23000
1 1 -1.25528784920287666e-02 1.72074793370173805e-02 8.53548265849426481e-03
2 1 8.87385574451909952e-04 9.94602966691974198e-03 6.36981921926905222e-03
3 1 4.42735183420077394e-03 -3.16208924652488978e-03 -1.16608799993847181e-02
4 1 -1.80402234939473528e-02 1.22111446131684294e-02 6.41678139648891796e-03
5 1 -8.93302219470282384e-03 -5.13172815367609475e-03 3.61907897022839672e-03
6 1 -2.37703859389555875e-03 -5.40109841618846131e-03 -1.15496073329900625e-02
7 1 1.62027546326032820e-02 -1.04823269978081886e-02 1.10656538459299372e-02
8 1 -5.62620037030492435e-03 -1.03222228619864634e-03 2.21281910539596722e-04
8
Step 24000
1 1 -1.40623425280304668e-02 1.61453241494098100e-02 5.38930583572057482e-03
2 1 -1.74018449085718008e-03 1.32794270337059702e-02 3.49715624441195071e-03
3 1 9.09865907649015648e-03 -4.99613039425356089e-03 -6.05053571366843089e-03
4 1 -9.35648719561888755e-03 1.58484812729730098e-02 5.44856006382416023e-03
5 1 -1.21065044310948236e-02 -1.54473174876974349e-02 2.08333677994424924e-03
6 1 -5.25656681851205659e-03 4.80973296861300550e-03 -1.60306924712294435e-02
7 1 1.10796391652320560e-02 -1.40290950203557953e-02 1.00589579961429983e-02
8 1 -1.09367326179414925e-02 -4.29103131800046694e-03 1.72759125350166400e-03
8
Step 25000
1 1 -9.31157480697520669e-03 9.20219207519933600e-03 -3.96059004740930071e-05
2 1 -3.37893961706961336e-03 1.09544931395641598e-02 -4.51473985757642050e-04
3 1 1.08019605204928253e-02 -5.11012371026567727e-03 2.40602495729607150e-03
4 1 2.06905026372222961e-03 1.25608453217769239e-02 1.95019652112836742e-03
5 1 -9.12216451786798839e-03 -1.95761936850359849e-02 6.08340957225379439e-04
6 1 -4.60280784436841242e-03 1.35421627169563241e-02 -1.50369949133617505e-02
7 1 2.33262413328159989e-03 -1.26833107495395760e-02 4.24711259554504377e-03
8 1 -1.26403800596353554e-02 -6.53960808667884176e-03 1.72461533460324863e-03
8
Step 26000
1 1 -1.04157034624838144e-03 6.96232855679515766e-05 -4.88500795615772962e-03
2 1 -3.66288872443171253e-03 3.96952345089905418e-03 -4.55107237552241240e-03
3 1 8.53977717951478858e-03 -3.23903046807954599e-03 1.07286518739508965e-02
4 1 1.05398350844417132e-02 5.08505184558299961e-03 -2.14265504638676317e-03
5 1 -1.97514061347385875e-03 -1.52299754051485065e-02 -9.14244249279321289e-04
6 1 -6.83089097850530960e-04 1.72295226695924966e-02 -8.98135281226211495e-03
7 1 -5.87203839901959384e-03 -7.24898774825746047e-03 -2.42271826138145416e-03
8 1 -9.74845370670322092e-03 -6.24590829390327899e-03 -4.43125539025214597e-04
8
Step 27000
1 1 7.15817788020425925e-03 -7.42719067720510554e-03 -7.15970171994000093e-03
2 1 -2.71025772655917934e-03 -4.15004699269041349e-03 -7.68057440681817454e-03
3 1 2.94445293852840361e-03 -1.20634287092892222e-04 1.57749098547457847e-02
4 1 1.25863808119398707e-02 -2.86186586054662994e-03 -4.69854686683911834e-03
5 1 5.24122409044525291e-03 -4.71729064516584595e-03 -2.84760113525198621e-03
6 1 4.34792550640847580e-03 1.44423159049501190e-02 -4.62790281746207398e-04
7 1 -1.03562001373314998e-02 1.71755287058137512e-04 -6.07003071284874501e-03
8 1 -3.22537329744378197e-03 -3.24215100473810658e-03 -4.13570195435011920e-03
8
Step 28000
1 1 1.19795137491526815e-02 -1.10545746489515272e-02 -5.85543471905468436e-03
2 1 -1.00958119708327576e-03 -9.50226482314158599e-03 -8.99193048689073474e-03
3 1 -3.78625238869927322e-03 2.66822874153128812e-03 1.56159991472486701e-02
4 1 8.00649349116749551e-03 -7.82991970844620563e-03 -4.43043356323980647e-03
5 1 9.08075203646977261e-03 7.21871393387618545e-03 -5.06340181945206646e-03
6 1 7.68416835732271906e-03 6.90479726728578623e-03 7.09122858323800540e-03
7 1 -9.87014202953731198e-03 6.86587136490445903e-03 -4.63607367732296084e-03
8 1 4.54822215904069488e-03 1.48266112536625787e-03 -7.91906151219774410e-03
8
Step 29000
1 1 1.14887662166664253e-02 -1.05198435317782040e-02 -1.54233029478699729e-03
2 1 1.03048713706178734e-03 -1.04182427670125900e-02 -8.17662779446383034e-03
3 1 -9.22928522353879018e-03 3.92041647532728136e-03 1.02299718405537907e-02
4 1 -2.40522002117116770e-04 -8.16338809112827392e-03 -1.47956956394924648e-03
5 1 7.94201855268260141e-03 1.60036954747862330e-02 -6.65103660162186857e-03
6 1 7.43615894772036660e-03 -2.05179006740495917e-03 1.14212662783703452e-02
7 1 -5.47253349789701780e-03 1.04901705768495820e-02 8.06248237802382572e-04
8 1 1.09327076312973580e-02 6.25694934345804449e-03 -9.70679041481548217e-03
8
Step 30000
1 1 6.44686722592610530e-03 -7.28529242552444171e-03 3.42871920838082886e-03
2 1 3.01562561566735962e-03 -7.31698555277862910e-03 -5.23185279802770419e-03
3 1 -1.17576842701036278e-02 3.41430339275162250e-03 1.50055615462454288e-03
4 1 -7.78906876999069849e-03 -4.50893473832534621e-03 2.74689704977792342e-03
5 1 2.48084258396257537e-03 1.82517924461007737e-02 -6.60795072341611826e-03
6 1 3.53989647648452355e-03 -9.36489516960281078e-03 1.19249179268839985e-02
7 1 1.63471761825498892e-04 9.94533555239840612e-03 6.86627230871731612e-03
8 1 1.35607244526986040e-02 8.85110210119708328e-03 -7.54865149830373505e-03
8
Step 31000
1 1 -2.19212486815742436e-04 -3.32184947641026452e-03 6.16742414006912678e-03
2 1 4.22997647908613696e-03 -1.05218607073060658e-03 -4.53309496720309300e-04
3 1 -1.09171717579077295e-02 1.79945681227020363e-03 -7.63129593337264715e-03
4 1 -1.08745137498581258e-02 8.22769494806037936e-04 5.99394607393317728e-03
5 1 -4.26466221367903433e-03 1.29181272374398019e-02 -4.28609981017736251e-03
6 1 -2.43976790873407434e-03 -1.28826767443972999e-02 9.30195594152258276e-03
7 1 4.11190012724161041e-03 5.72972465842359977e-03 9.61143133799536795e-03
8 1 1.15284443786452025e-02 7.05441686445099775e-03 -8.31091073177838628e-04
8
Step 32000
1 1 -5.24784316294731219e-03 -5.03924765187847867e-04 5.16119236429512813e-03
2 1 4.28415728944635948e-03 5.94854692717870261e-03 5.20157302986075896e-03
3 1 -7.30121904455840846e-03 2.46316813618401714e-04 -1.41319233487234939e-02
4 1 -8.10091961261698822e-03 4.92544608039001061e-03 6.15477221965291758e-03
5 1 -8.84725149727706717e-03 2.63354486003159263e-03 1.25256526656120835e-04
6 1 -8.08089348472042918e-03 -1.16723042273011550e-02 5.00839980468888602e-03
7 1 4.57421948939712355e-03 -4.91411243135136348e-05 6.70907718157735897e-03
8 1 5.76463265467833889e-03 1.31913620282946877e-03 8.74361038327062419e-03
8
Step 33000
1 1 -6.79068803761228180e-03 6.58802658522096986e-04 9.03821263767177552e-04
2 1 3.10913634753037489e-03 1.01695029184463038e-02 9.99813053198918972e-03
3 1 -2.19197421639590615e-03 -1.53494121399072684e-04 -1.58628031477723482e-02
4 1 -1.15423868748421076e-03 5.85167234705044094e-03 2.61865236272484968e-03
5 1 -9.36319889487329839e-03 -7.99519993952725778e-03 5.62520057213345293e-03
6 1 -1.10257486180099819e-02 -6.91717804881284738e-03 8.77958817208520119e-04
7 1 1.76426025070539148e-03 -4.84785034986806671e-03 -1.05251124002173242e-03
8 1 -1.73586391014840936e-03 -5.47606279131360521e-03 1.70982930576514293e-02
8
Step 34000
1 1 -4.97969786102867625e-03 1.36075336830195049e-03 -4.61460284662053907e-03
2 1 3.47465682729661035e-04 9.73354980173452185e-03 1.21038308227098910e-02
3 1 3.05557775786307337e-03 6.82731523341864534e-04 -1.25223701053065080e-02
4 1 6.57319316091450109e-03 3.10069779122160291e-03 -3.41025268944247567e-03
5 1 -5.72349416441702511e-03 -1.48787321520778941e-02 9.94339986555873093e-03
6 1 -1.01157628021126666e-02 -1.03580323271150920e-03 -2.03393201707651383e-03
7 1 -2.53961344952018326e-03 -6.84870975047109989e-03 -1.04537299998818788e-02
8 1 -8.25405804548225673e-03 -9.86010454086967345e-03 2.02442456844863332e-02
8
Step 35000
1 1 -1.49313145197657463e-03 3.12923904730896254e-03 -8.70143140212304572e-03
2 1 -3.80227311945761101e-03 5.65442500588011262e-03 1.05993967272839801e-02
3 1 7.32067209946747881e-03 2.00806626083693818e-03 -5.67145907989253552e-03
4 1 1.14379871859483714e-02 -2.24481904476435531e-03 -9.32959839396901858e-03
5 1 1.18519046127502732e-03 -1.62567649148275435e-02 1.11388055344263451e-02
6 1 -5.83236071249148332e-03 3.80245684534721113e-03 -3.98989053682963918e-03
7 1 -5.90516679831642154e-03 -5.11030920804207266e-03 -1.71516377714410473e-02
8 1 -1.15350917524352174e-02 -9.11656790526436424e-03 1.59629806484852810e-02
8
Step 36000
1 1 1.29833633174878554e-03 5.78253696064821767e-03 -8.46940250406460343e-03
2 1 -7.01726763043817193e-03 -5.94726768924948952e-04 5.55418994693504097e-03
3 1 1.00582495635902058e-02 2.80917478652082915e-03 2.21499492230989867e-03
4 1 1.07614987036762991e-02 -7.19473309878002499e-03 -1.18945927995728479e-02
5 1 8.44723220672287389e-03 -1.16064827428847515e-02 8.91921199930328229e-03
6 1 3.51316628471494907e-04 6.46233449577135900e-03 -5.59186733891393114e-03
7 1 -5.88676230955701655e-03 -4.43336941081440977e-04 -1.66812268650959120e-02
8 1 -1.13861360379807625e-02 -3.06501330021216037e-03 4.57581341011113404e-03
8
Step 37000
1 1 1.58761917434356212e-03 8.01990839823150774e-03 -2.80661033353655489e-03
2 1 -7.47662995607594003e-03 -7.12223084807717122e-03 -1.41090702023981057e-03
3 1 1.12028696647946697e-02 2.05737567663140950e-03 8.68563653246144998e-03
4 1 4.84848009884281030e-03 -8.59605251003444509e-03 -9.12868789347070185e-03
5 1 1.26588006813461544e-02 -2.29148257716665959e-03 3.78522505218909172e-03
6 1 6.73406499324194757e-03 6.73205897065377087e-03 -6.79522905198274695e-03
7 1 -1.73533058705939501e-03 4.57468473242577181e-03 -7.88318337566628127e-03
8 1 -8.47875023969085935e-03 5.36944367959226246e-03 -1.04182801987785095e-02
8
Step 38000
1 1 -6.16837090625658524e-04 8.58411748325854131e-03 6.30420333109518033e-03
2 1 -5.63386516890480773e-03 -1.09001017090306664e-02 -7.67552386110196324e-03
3 1 1.05675558278971599e-02 -5.53313073160733812e-04 1.18715407263430793e-02
4 1 -2.89270460571721755e-03 -5.41417135699964226e-03 -1.63359020481322246e-03
5 1 1.24025018643441655e-02 7.48237036845981768e-03 -3.56118784605302186e-03
6 1 1.15246874726817935e-02 5.14370081018801842e-03 -7.36146011802093613e-03
7 1 5.19184915565310077e-03 7.27157848614616922e-03 6.38206101774894952e-03
8 1 -3.44813250155403617e-03 1.16443068689421874e-02 -2.28043484389561409e-02
8
Step 39000
1 1 -3.86290963557067626e-03 6.20700618851157456e-03 1.52201426941358745e-02
2 1 -2.08445222153043168e-03 -9.99455326862220411e-03 -1.11712698755793496e-02
3 1 7.81704561853661245e-03 -4.37326953827130160e-03 1.11434326168675362e-02
4 1 -8.85561698031132535e-03 9.67406017422084473e-04 7.69867004885651553e-03
5 1 8.25467852111647429e-03 1.35349575330083946e-02 -1.02136820227642644e-02
6 1 1.32152300263423360e-02 2.78242435296886630e-03 -6.73806407768473125e-03
7 1 1.20374487700089551e-02 5.81090993871231920e-03 2.05282437460525199e-02
8 1 2.07257017661525685e-03 1.17755803424452101e-02 -2.70618159329104532e-02
8
Step 40000
1 1 -5.92592453707033260e-03 2.75683367092645652e-04 1.97351435498273262e-02
2 1 3.95046270402814575e-03 -6.05596225809935940e-03 -1.15513612082647869e-02
3 1 2.67611494075368616e-03 -7.87336610792644005e-03 7.34070023176221047e-03
4 1 -1.08463238289229699e-02 7.85564763772847105e-03 1.48905237826174215e-02
5 1 -1.07539519461309459e-04 1.45352965708804207e-02 -1.33820299369129848e-02
6 1 1.12405383509798420e-02 6.44510197977949946e-04 -4.15005735439065784e-03
7 1 1.50218475279967362e-02 -7.52195200977571246e-05 2.71215528365602865e-02
8 1 6.55501957659147122e-03 5.40618500704357144e-03 -2.13012850791665063e-02
8
Step 41000
1 1 -4.03871292624780661e-03 -7.41534306102605532e-03 1.54972281551440331e-02
2 1 9.64749015482202661e-03 -1.15662319002028018e-03 -8.81243753874300963e-03
3 1 -4.39302339866015634e-03 -9.60311687084939442e-03 2.11520408721569027e-03
4 1 -7.91084312646781786e-03 1.20973346819148748e-02 1.63491943054113846e-02
5 1 -9.95818790854704691e-03 1.01121288073287522e-02 -1.25759787932432365e-02
6 1 5.99044764888722204e-03 -6.96889016064731700e-04 4.10536299938593196e-04
7 1 1.10257144044275859e-02 -7.35733595615488487e-03 2.08329740872567892e-02
8 1 9.62486726413234323e-03 -3.89947568295814827e-03 -7.82041476387699414e-03
8
Step 42000
1 1 2.25650191196664343e-03 -1.27614691836249669e-02 1.88097467502576065e-03
2 1 1.09824323711310255e-02 4.61619710008490981e-03 -3.81212922340358213e-03
3 1 -1.23365175097771024e-02 -8.69082106587900673e-03 -2.84094232674621337e-03
4 1 -1.24982391603833563e-03 1.08795821181827002e-02 1.10554508386972970e-02
5 1 -1.62451911392843956e-02 1.74028777832824872e-03 -8.12944741580815672e-03
6 1 -1.37619287235945013e-03 -1.41694542161414829e-03 5.69790784800122338e-03
7 1 1.69373601131366197e-03 -1.17767133242857886e-02 4.82760603099985624e-03
8 1 1.03641223467034384e-02 -1.22373640799926311e-02 8.37892120352822303e-03
8
Step 43000
1 1 9.79214566508699973e-03 -1.27249676916762807e-02 -1.54467735085567232e-02
2 1 8.36834330006425847e-03 9.74323668803576612e-03 1.71679701760573777e-03
3 1 -1.97405795327899279e-02 -4.39451552173992458e-03 -6.31135346323571499e-03
4 1 5.10353865968955940e-03 4.17230807242776128e-03 1.33574392216116462e-03
5 1 -1.62683116284161600e-02 -5.96622912453828244e-03 -1.02803829843655737e-03
6 1 -9.12916364748589740e-03 -1.95037697679106272e-03 9.91776647827961877e-03
7 1 -9.40807094543836056e-03 -1.11735398369346896e-02 -1.35724069750417092e-02
8 1 8.21804423002703809e-03 -1.53522039452463899e-02 2.10102912591874844e-02
8
Step 44000
1 1 1.40997224974416194e-02 -6.65339320476396063e-03 -2.75914205141411725e-02
2 1 3.95875175181567389e-03 1.19807739258250834e-02 6.26329965442501153e-03
3 1 -2.38512482516173331e-02 3.38721697505694509e-03 -7.37226465672371611e-03
4 1 7.97676081477958522e-03 -5.20395675162692046e-03 -8.69293082570446116e-03
5 1 -1.16794485622157308e-02 -9.55851587917485972e-03 5.86893554335936058e-03
6 1 -1.51926370147896870e-02 -2.48625970941930910e-03 1.12892191445604188e-02
7 1 -1.77047849264560589e-02 -4.91972673732408300e-03 -2.57154463423174516e-02
8 1 3.82892296516531509e-03 -1.09375625057408325e-02 2.49499800981395799e-02
8
Step 45000
1 1 1.21071408179810325e-02 2.57345628328139791e-03 -2.78660379045436481e-02
2 1 -3.79101660788461366e-03 1.07669370212401146e-02 9.34367936306775525e-03
3 1 -2.00789417451299884e-02 1.24055764025128093e-02 -5.91132658306887417e-03
4 1 6.61049511822122890e-03 -1.27209579021475352e-02 -1.46402457140585428e-02
5 1 -2.64292728453585993e-03 -8.98225408751668342e-03 1.07343534347210320e-02
6 1 -1.72428528736200994e-02 -3.09895323402533578e-03 8.63683684547802803e-03
7 1 -1.84907196240605247e-02 4.30289636297776900e-03 -2.47086854897670787e-02
8 1 -2.00420736562339835e-03 -1.64759223560166689e-03 1.95809726110500182e-02
8
Step 46000
1 1 3.75203990817117973e-03 9.64240404767724608e-03 -1.65858693660552274e-02
2 1 -1.15282518829484745e-02 6.30319266140932574e-03 1.04126640019499405e-02
3 1 -7.03895485912375742e-03 1.84782023603573646e-02 -2.70067761021958782e-03
4 1 1.69927833730779436e-03 -1.48372882908335522e-02 -1.40915835755902556e-02
5 1 7.99430838300079286e-03 -5.33095239589962203e-03 1.26884928083249911e-02
6 1 -1.37978690512496130e-02 -3.72402157391037939e-03 2.67061826198292064e-03
7 1 -1.18107466031655492e-02 1.13248862451194865e-02 -1.25818972930886799e-02
8 1 -7.46953308090646684e-03 7.82563786110377843e-03 8.44202570997347468e-03
8
Step 47000
1 1 -7.31414651430321774e-03 9.95777754709123442e-03 1.22511856012883771e-03
2 1 -1.36871524586136793e-02 -9.56083993175645716e-04 8.96289274587650127e-03
3 1 1.12141851517111087e-02 1.85851477045342849e-02 1.50112288046785577e-04