8
Step 0
1 1  2.102812612098e+02  -2.655266881609e+01   2.469150848499e+02 
2 1  2.129669741671e+02  -2.677024908433e+02   1.391703741763e+01 
3 1  4.441614698894e+01   6.526922337478e+01   1.977105477576e+02 
4 1  1.233129568381e+02  -2.027273609915e+02   1.931714386653e+02 
5 1 -2.433787715067e+02   7.851969321387e+01  -1.072090194464e+02 
6 1  3.403742539992e+02   3.416603002083e+02  -3.540540653644e+02 
7 1  5.109895238710e+01   1.241511997057e+02  -1.903199120138e+02 
8 1  7.332657538610e+01   1.823649361654e+02   5.082089555245e+00 
8
Step 1000
1 1  3.404954790701e+01   5.725382759055e+02  -3.570997977333e+02 
2 1 -5.969144283567e+00   5.523975983138e-01  -6.698307417692e+01 
3 1 -3.681649567658e+02  -3.194054581830e+02  -2.059086914186e+02 
4 1  3.208171936453e+02   1.383263032317e+01   3.784787485568e+02 
5 1  1.360692488348e+02  -3.444735672302e+02  -4.918643238632e+02 
6 1 -1.465469321210e+02   3.635109170969e+02   5.665711845760e+01 
7 1  1.063674465372e+02  -1.687927232142e+02  -3.968575696796e+02 
8 1 -1.621975514656e+02   2.799104523778e+01   3.318817306548e+02 
8
Step 2000
1 1  4.066084871072e+00  -2.641564363152e+02   3.576940236655e+02 
2 1 -1.049836262294e+02   1.045403542384e+02   1.598052892779e+02 
3 1  2.561198416816e+02   6.151468741842e+02   4.191490003507e+02 
4 1 -2.339740572337e+02  -1.134555704551e+02  -5.048510411818e+02 
5 1 -2.674643054341e+02   4.106962982243e+02   5.146642975836e+02 
6 1 -4.359491328742e-02  -4.350601638966e+02  -1.745213008882e+01 
7 1  1.121576358666e+02   2.269974547635e+02   3.780144120392e+02 
8 1  9.537836097334e+01   1.241334553541e+02  -5.436424716695e+02 
8
Step 3000
1 1 -5.087895170764e+01   1.307734850823e+02  -1.161336424329e+02 
2 1 -1.766684757255e+02  -7.243475229927e+01   5.069380193334e+02 
3 1 -3.147356642022e+02  -2.670985812461e+02  -3.183356971638e+02 
4 1  3.235349375083e+02   1.531102322138e+02   2.635073220161e+02 
5 1  1.510566020612e+02  -4.887715445263e+02  -3.292676133542e+02 
6 1 -3.751925339462e+02   5.599097669797e+02   2.065893479849e+02 
7 1 -6.333543694695e+01  -4.079178516793e+02  -4.400196185679e+02 
8 1 -7.928502616924e+01   4.374031706802e+02   5.936547897318e+02 
8
Step 4000
1 1 -5.671886499018e+01  -3.631574496761e+01   4.781376313482e+02 
2 1  1.122475600426e+02   3.263795725686e+02  -2.045065380326e+02 
3 1  1.562613889498e+02   6.621137810219e+02   2.782214056295e+02 
4 1 -3.226061976153e+02  -1.656706441356e+02  -8.397002298605e+01 
5 1 -5.767795880684e+02   2.302155285626e+02   2.612395653107e+02 
6 1  1.169438635979e+01  -7.967671728567e+02   1.319269332566e+00 
7 1  1.962689354782e+02   5.888938482239e+02   4.905416717712e+02 
8 1  1.505586090073e+02  -2.809054482655e+02  -7.453603777133e+02 
8
Step 5000
1 1  7.712712108043e+01   3.300651344080e+02  -1.336474461928e+02 
2 1 -5.429747152879e+02  -1.140305493421e+02   5.614207916359e+02 
3 1 -2.740377504589e+02  -1.773733615323e+02  -3.006495896065e+02 
4 1 -6.921352352957e+01  -3.067248343779e+00   4.970742266689e+01 
5 1  4.431434964494e+02  -4.267226412733e+02   6.594124497486e+01 
6 1 -4.951035129967e+01   7.661360202865e+02  -3.314431149874e+01 
7 1  5.009478714906e+01  -3.241077476393e+02  -5.294476558111e+02 
8 1 -5.430181215493e+01   1.846003185744e+02   5.837054220587e+02 
8
Step 6000
1 1 -3.288262556703e+02   4.318442805596e+01   3.441651507669e+02 
2 1  2.306711997346e+02   2.460755981420e+02  -5.014709319469e+02 
3 1 -3.642257255312e+01  -6.989258956972e+01   1.812248424457e+02 
4 1  2.139958293294e+02   6.591186206661e+01   3.396011018455e+02 
5 1 -2.308925821684e+02   3.360674799902e+02  -1.985219835101e+02 
6 1  2.495407116150e+00  -4.382358221546e+02  -1.090574653162e+02 
7 1 -1.066260330959e+02   3.453023081481e+02   1.858334332898e+02 
8 1 -5.136651517547e+01  -4.841181485964e+02  -1.763967676834e+02 
8
Step 7000
1 1  4.115248202233e+02  -1.954368620684e+02  -4.882552846158e+02 
2 1 -2.508291860717e+02  -1.204753216083e+02   3.462998537090e+02 
3 1  5.903629064107e+01   3.914421380572e+02   8.319439298563e+01 
4 1  3.309179111776e+01  -2.787593958075e+02  -6.666394775509e+02 
5 1  2.043932024665e+02  -8.707478163217e+01   3.788960174142e+02 
6 1 -2.864437632358e+02   2.473443600578e+02  -9.227953405832e+01 
7 1 -1.368762214641e+02  -4.881644678760e+02  -1.445782282178e+02 
8 1  2.851804528418e+02   2.997846803468e+02   2.392562831154e+02 
8
Step 8000
1 1 -3.592809676977e+02   2.253879824735e+02   4.462046779694e+02 
2 1  3.671932054059e+02   2.405102852072e+02  -3.161001880179e+02 
3 1  2.262378679903e+01  -5.399580589637e+02  -3.009012348636e+02 
4 1  2.450861102008e+02   1.185863648393e+02   6.419526595257e+02 
5 1 -3.076222479251e+02  -4.544739451593e+01  -5.917287052635e+02 
6 1 -2.936503645613e+02  -4.339231204742e+01  -2.112382694587e+01 
7 1  1.794734621237e+02   1.235134908980e+02   9.581042731923e+01 
8 1  1.770729185060e+02   1.623448756741e+02   3.280987114674e+01 
8
Step 9000
1 1  3.407666307829e+02  -3.064522690455e+02  -3.122856527678e+02 
2 1 -2.507773861185e+02  -5.057124505296e+01   3.233015079979e+02 
3 1  1.960912980099e+01   5.888279731069e+02   2.878757346535e+02 
4 1 -3.253550248369e+02  -2.556433613826e+02  -5.827535620952e+02 
5 1 -2.439541244005e+02  -6.414293634420e+01   4.736750384301e+02 
6 1  2.984574680763e+02  -1.293623741213e+02   5.431898255545e+01 
7 1  3.877750164238e+02   8.009554532187e+01   5.520959367671e-01 
8 1 -2.150704770933e+02  -1.755284992925e+02  -4.273296630595e+02 
8
Step 10000
1 1 -4.734666140836e+02   2.101624307472e+02   3.507190190561e+02 
2 1 -4.789283216183e+01   1.229468649448e+01   1.622627697771e+02 
3 1 -2.072329466830e+02  -6.458584909966e+02  -4.535016552218e+02 
4 1  1.656048003840e+02   2.686173746202e+02   4.585433078769e+02 
5 1  2.234661994584e+02  -1.676351758985e+02  -4.954029588411e+02 
6 1 -2.317145445444e+01   5.205052959475e+02  -2.499361052379e+01 
7 1  2.473776897158e+02  -4.328383945518e+01  -1.212999810695e+02 
8 1 -3.431307391422e+02  -7.386016001500e+01   4.854916934294e+02 
8
Step 11000
1 1  1.987235010524e+02  -5.249440172738e+02  -1.740841935542e+02 
2 1 -3.793817965885e+01   1.566216083665e+02  -5.311423403460e+02 
3 1  1.017204556775e+02   5.677357905913e+02   4.198138859338e+02 
4 1 -8.734478778404e+01   1.163460318924e+02  -1.927959680896e+02 
5 1  1.357637224096e+02  -2.545467644772e+01   2.189311590396e+02 
6 1 -3.459043324736e+01  -5.319254770473e+02   9.075932655702e+01 
7 1 -6.001700264070e+02  -8.995165209999e+01   1.123460500155e+01 
8 1  4.251287591364e+02  -1.011482531146e+02  -2.219740195119e+02 
8
Step 12000
1 1 -3.139574624307e+02   3.286980929557e+02   2.707703022428e+02 
2 1 -5.495526404063e+01   1.091510832038e+02   5.000081330485e+02 
3 1 -1.432069023003e+02  -5.185879722380e+02  -4.511640674707e+02 
4 1  2.550849306916e+02  -2.564431040823e+02  -7.185130800332e+01 
5 1  6.342540467213e+01   1.945486094169e+01  -1.897232941519e+02 
6 1 -3.607240770147e+02   3.827798387330e+02  -1.725521073005e+01 
7 1  2.057080836056e+02  -2.174156595600e+00  -1.545926417004e+02 
8 1 -5.533521097389e+01   3.205740062345e+02   3.013153399295e+02 
8
Step 13000
1 1 -1.001968514724e-01  -2.224521870826e+02  -6.792770541561e+01 
2 1  1.199182357533e+02   4.360076549563e+01  -6.509809396061e+02 
3 1  1.145627215968e+02   1.426540553273e+02   3.646919086490e+02 
4 1  4.957343881711e+01   1.527245724859e+02   1.702410766145e+02 
5 1 -3.458700536907e+02   4.214713108222e+01   8.448401177357e+01 
6 1  7.544606624487e+01  -3.749213403374e+02  -1.622191105688e+02 
7 1  1.282642006969e+02   3.784746886626e+01   2.107520411983e+02 
8 1 -1.098326464227e+02  -1.673734943365e+02  -5.004249009260e+02 
8
Step 14000
1 1  1.219022301346e+02   7.447574066071e+00  -1.688512149091e+02 
2 1 -2.492279785486e+02  -1.087969138242e+02   6.303783819971e+02 
3 1 -6.129778852892e+01  -1.609909569677e+02  -2.011459682101e+02 
4 1  2.411973389519e+01  -1.992912090759e+02  -5.347469084506e+02 
5 1 -2.572436727053e+01  -3.827683101891e+01   9.801704319164e+01 
6 1  4.102099066793e+02   3.707671632798e+02  -7.758440587178e+01 
7 1  3.689106406513e+01  -2.517896675430e+02  -2.584724521812e+01 
8 1 -4.391612550850e+02  -4.808876825949e+01   4.605484975102e+02 
8
Step 15000
1 1 -4.301150718774e+02  -2.339518135346e+02   1.765376551320e+02 
2 1  2.363867967457e+02   2.911474514125e+01  -6.489684128987e+02 
3 1  5.790727065275e+01   6.107771477096e+01  -3.686644540456e+01 
4 1 -1.221930132819e+01   2.078883728715e+02   5.793469014704e+02 
5 1 -1.633796394258e+01  -2.694862616718e+02  -2.178060978421e+02 
6 1  2.202032942415e+02  -6.325379390117e+01  -9.029701392779e+01 
7 1 -1.981438517852e+02   1.185784608532e+02   1.714035139116e+02 
8 1  3.039510194381e+02  -3.168724539613e+02  -2.186442535317e+02 
8
Step 16000
1 1  3.579808144767e+02   3.365606503546e+01  -2.282606698471e+02 
2 1 -2.294445988867e+02  -2.275574085980e+00   4.045078614162e+02 
3 1  1.822968612704e+01   1.453628816083e+02   3.057706330509e+02 
4 1 -7.005050449523e+01  -2.691222178554e+02  -5.769735141338e+02 
5 1  2.645742374209e+02  -1.861903578205e+01   2.847018758531e+02 
6 1 -4.672581127790e+02   9.414567817431e+01   2.074544404148e+02 
7 1  2.080290684056e+02   3.747050737542e+00  -3.843113027798e+02 
8 1  2.573369098363e+02   4.486218996855e+02  -9.965117218507e+01 
8
Step 17000
1 1 -4.619063905871e+02   2.367227691640e+02   3.155835612514e+02 
2 1  1.280136058092e+02   2.332364450409e+02  -1.443163762156e+02 
3 1 -5.922693791245e+01  -3.030481094947e+02  -6.821287162992e+02 
4 1  7.427816911475e+01  -5.793035592421e+01   7.441201952478e+02 
5 1  4.653011337541e+01  -4.534035901547e+01  -3.617967335985e+02 
6 1  9.093404693688e+01   7.796521686491e+01  -4.442014789085e+01 
7 1  4.308712396491e+02   1.394995390692e+02   2.293847649271e+02 
8 1 -2.431219493298e+02  -2.693993685761e+02  -4.472491623186e+01 
8
Step 18000
1 1  3.454627779506e+02  -9.341642610829e+01  -2.540167140614e+02 
2 1 -2.739087888547e+01  -1.801810491253e+02  -7.739796922259e+01 
3 1 -1.986434058228e+01   2.575199279004e+02   6.306886941538e+02 
4 1 -1.452910571141e+02   5.201387738166e+01  -6.451949509839e+02 
5 1 -7.932792925296e+01   4.031206597908e+02   6.360137881114e+02 
6 1  1.893825369152e+02  -6.168821679489e+02   4.087824246482e+01 
7 1  2.135322284089e+02  -5.684592564122e+02   8.005503265501e+01 
8 1 -4.556682411812e+01  -3.851524549627e+01  -1.120076577180e+02 
8
Step 19000
1 1 -2.271915860687e+02   2.582284077298e+02   1.431344862681e+02 
2 1 -2.953731119673e+01   4.706952553326e+01   1.971011177355e+02 
3 1  6.782432281105e+00  -2.697264218540e+02  -6.457953730644e+02 
4 1  3.090060800618e+02  -1.008870877806e+02   4.990235632315e+02 
5 1  2.961898312170e+01   5.608473594970e+01  -5.095720662897e+02 
6 1  1.717441778687e+02   3.165527467977e+02  -2.533096152434e+02 
7 1 -5.712709530702e+02   6.371737225232e+02   1.718868124043e+02 
8 1  4.917967890058e+02  -9.451660731128e+01   3.634072929503e+02 
8
Step 20000
1 1  5.059325806949e+01  -2.951069955794e+02   8.014397760885e+00 
2 1  7.513399653825e+01   3.528782624711e+01  -3.808761117034e+02 
3 1  7.128259287762e+01   3.634541762791e+02   6.391794254541e+02 
4 1 -5.584269719933e+01   2.894150127147e+02  -2.679768602190e+02 
5 1 -1.932181920820e+02  -2.559837932055e+02   5.449590620935e+02 
6 1 -1.672591988803e+02  -1.198060716194e+02   2.106481985139e+02 
7 1 -1.148495276808e+02  -1.625647412024e+02   9.619020757872e+01 
8 1  1.994105849254e+02  -1.627695765306e+01  -4.999039750542e+02 
8
Step 21000
1 1 -2.219235157697e+01   3.169423704271e+02   1.089839577961e+02 
2 1 -2.222678014216e+02   1.496756761965e+02   5.464056412283e+02 
3 1  3.746225817229e+01  -2.930022637215e+02  -3.360092849322e+02 
4 1  1.283869203864e+02  -3.756524683923e+02   2.278146230075e+02 
5 1 -1.730456077229e+02  -2.153145231230e+01  -2.902265927599e+02 
6 1  2.800234978039e+01   6.496325135501e+02   3.938685210888e+01 
7 1  7.508591929836e+02  -4.066104443726e+01  -3.425888637276e+02 
8 1 -1.697577980294e+02   9.020647557134e+01   6.491815361173e+02 
8
Step 22000
1 1 -1.472493034551e+02  -1.323604305225e+02   9.752754788754e+01 
2 1  3.425763324134e+02  -8.587328676162e+01  -6.680472110903e+02 
3 1 -2.880122697471e+01   1.980696224103e+02   2.553811807231e+02 
4 1 -1.541617222431e+02   2.518584586767e+02  -4.904323381607e+01 
5 1 -2.173202085715e+02   2.807996285485e+02   5.619024837258e+02 
6 1  6.243457851098e+01  -1.815358477067e+02   1.187416471073e+02 
7 1 -1.280259280300e+01  -2.716639873300e+02  -4.670486109269e+01 
8 1 -2.255797854451e+02  -2.676519560383e+02  -2.701815079890e+02 
8
Step 23000
1 1  4.124179696130e+02  -3.782202521215e+01  -3.720570475041e+02 
2 1 -4.868147946267e+02   8.973557640291e+01   7.643389626991e+02 
3 1  4.023975196546e+01  -1.715664052337e+02   5.839789192528e+01 
4 1  5.707428506121e+01  -2.539981795698e+02  -3.692137837681e+02 
5 1  2.280025227735e+01   2.941778803219e+01  -2.726428542999e+02 
6 1  3.769225110853e+02  -1.891488076622e+02  -2.243993799462e+02 
7 1 -5.636339356684e+02   1.407742092482e+02   2.873194638182e+02 
8 1  7.094714700377e+01   4.634189231381e+02   3.534769571742e+02 
8
Step 24000
1 1 -3.819743622000e+02  -1.162373709671e+01   3.741428381061e+02 
2 1  3.219993637478e+02  -6.180081826690e+01  -4.266250058904e+02 
3 1 -1.642245698051e+01   2.512987282062e+02  -2.655911125246e+02 
4 1 -1.550727307883e+02   3.206840105099e+02   5.698529744688e+02 
5 1  2.404167774524e+02  -1.464452753613e+02   1.275942875217e+02 
6 1 -8.207889740117e+01  -2.210499773560e+02  -1.120669835103e+02 
7 1 -2.387164705348e+02  -9.176309667447e+01   7.507190443896e+01 
8 1  1.435154737355e+02  -2.591429642284e+02  -4.335367674363e+02 
8
Step 25000
1 1  3.199841388919e+02   4.498377641611e+01  -4.115357435480e+02 
2 1 -3.146625749473e+02  -3.303073970971e+01   4.196932457131e+02 
3 1  1.536490080198e+02   9.153986296052e+01   2.594083025046e+02 
4 1  4.568288310654e+01  -1.314596143096e+02  -5.562283692398e+02 
5 1 -8.980277348754e+01  -7.014240066669e+01   1.925425517621e+02 
6 1 -3.939932523309e+02   7.126055055728e+01   3.014548460436e+02 
7 1  4.438392464118e+02   3.237185561076e+02  -1.869455461481e+02 
8 1 -2.305587886151e+02  -2.156911972661e+02   1.205163209340e+02 
8
Step 26000
1 1 -4.405787590010e+02   1.959137966114e+02   4.861882003558e+02 
2 1  2.846078230187e+02   2.012938588373e+01  -2.621644252710e+02 
3 1  4.803577416870e+00  -2.266797718596e+02  -5.087034060012e+02 
4 1  1.047625808724e+02  -1.341107924300e+02   3.764933552585e+02 
5 1  1.255566133975e+00  -7.400272187016e+01  -2.851161560604e+02 
6 1  1.248825624877e+02   1.854219378041e+02  -8.105022162382e+01 
7 1  2.291633955645e+02  -4.108204110981e+01  -1.180022154471e+02 
8 1 -2.031280211222e+02  -1.810555644461e+02   2.197647690910e+00 
8
Step 27000
1 1  3.060084638041e+02  -1.968544313915e+02  -4.180890482720e+02 
2 1 -2.997497678893e+02  -2.016755947818e+02   2.418865778450e+02 
3 1  1.739659819515e+02   2.043213440932e+02   5.067946572549e+02 
4 1 -5.970174507348e+01   3.364525639237e+02  -2.465746263321e+02 
5 1 -3.152517425173e+02   2.766688618611e+02   1.933361637050e+02 
6 1  1.814086229373e+02  -3.023442921708e+02   4.949772772086e+01 
7 1 -5.731441466800e+02  -1.051563410326e+02   1.449523976950e+02 
8 1 -1.030895073019e+02   3.271777851762e+02  -2.600350219810e+02 
8
Step 28000
1 1 -3.123753932194e+02   2.131097835818e+02   4.378572400258e+02 
2 1  4.842062549364e+01   3.292420719796e+02   3.862561385443e+01 
3 1 -1.348227518703e+02  -1.164376384701e+02  -3.565347610054e+02 
4 1  9.965898450158e+01  -4.595150999497e+02   1.943712791482e+01 
5 1  5.473164255107e+02  -5.279756384542e+01  -3.918957907941e+02 
6 1 -1.403314699412e+02   9.440804598644e+01  -2.332474268183e+02 
7 1 -3.039957022157e+01   1.611498032666e+02   6.165670453593e+01 
8 1  2.295265573890e+02  -1.197306474158e+02   2.738006709757e+02 
8
Step 29000
1 1  8.757447767787e+01  -1.415072086265e+02  -1.763431159347e+02 
2 1  5.869704940629e+01  -4.384642539245e+02  -2.353682460955e+02 
3 1  3.663890505252e+02   3.118098756690e+02   3.257952092211e+02 
4 1 -2.904943810452e+02   6.053221342067e+02  -3.537220209595e+01 
5 1 -2.579551857384e+01  -2.483198069181e+02   5.823095739742e+02 
6 1 -3.737071679010e+02  -2.768284138999e+02   2.267972295277e+02 
7 1  7.760033579474e+02   3.106872945298e+02  -6.032562509348e+01 
8 1 -8.357738236729e+01  -3.169829858428e+02  -1.413949640427e+02 
8
Step 30000
1 1 -3.203165623266e+00   1.830354325969e+02   2.399979190740e+01 
2 1 -6.519165492961e+01   4.318075397717e+02   2.659295388256e+02 
3 1 -2.784104478608e+02  -2.860416040070e+02  -3.100656072054e+02 
4 1  1.170397976472e+02  -5.030925611582e+02  -2.629766126469e+02 
5 1 -8.064758477628e+01   1.513842228907e+02  -2.839010593520e+02 
6 1  1.155965371951e+02   6.091472565125e+02  -3.519663902701e+02 
7 1 -1.502622965174e+02   2.136318491295e+02  -1.111638973307e+01 
8 1  5.268795964117e+01   1.389181860112e+02   5.872994915627e+02 
8
Step 31000
1 1 -1.122560786055e+02  -7.338211904369e+01   1.240801989508e+02 
2 1  2.008526103923e+02  -3.492479380496e+02  -3.932506739066e+02 
3 1  2.854230721064e+02   4.824326116330e+02   1.767395318552e+02 
4 1 -2.325256968950e+02   4.647274844667e+02   3.806630464403e+02 
5 1 -1.852796085470e+02   2.859897326613e+02  -2.615563033485e+02 
6 1  4.748852621715e+02  -3.555337969855e+02   1.838575259129e+02 
7 1 -4.941605509774e+02  -5.535016070876e+02   7.996915498740e+01 
8 1 -1.865318715963e+02   1.252665401349e+02  -6.471987094790e+02 
8
Step 32000
1 1  2.937041916372e+02   5.017441297898e+01  -3.052995342992e+02 
2 1 -2.494431304913e+02   2.769284922982e+02   5.129154693228e+02 
3 1 -3.259956946245e+02  -3.479676314595e+02   2.020107242804e+01 
4 1  3.280338362840e+02  -3.203486618128e+02  -3.099754603912e+02 
5 1 -4.281849591320e+01   1.193483437282e+02  -2.898404847603e+01 
6 1 -1.988275424748e+01   3.439953814258e+02  -3.508391567416e+02 
7 1 -1.576077983094e+02   3.076577924359e+02   1.405730311121e+01 
8 1  3.698552464211e+02   9.148922995053e+01   3.858901684595e+02 
8
Step 33000
1 1 -3.297788831846e+02  -5.887838599714e+01   4.015777535263e+02 
2 1  1.606227807828e+02  -1.064882456292e+02  -4.326903748062e+02 
3 1  2.770035579842e+02   2.034308367939e+02  -3.924709453313e+01 
4 1 -1.982780396524e+02   4.527822751456e+00   2.369120695782e+02 
5 1  5.795909247996e+01  -1.612228186121e+02   6.551190397497e+00 
6 1 -2.688964088984e+02  -2.190878708817e+02   2.320160524369e+02 
7 1  2.895459071296e+02   1.506454008826e+02  -3.396071444664e+01 
8 1  1.603895209715e+02  -3.149511037168e+02  -3.737581283946e+02 
8
Step 34000
1 1  4.925685544037e+02  -9.661334401087e-02  -5.337101494473e+02 
2 1 -2.404896781915e+02  -3.435728664538e+01   4.697484815628e+02 
3 1 -3.132092856498e+02  -2.059850941873e+02   3.603541985421e+02 
4 1  1.615099602912e+02   1.036013827150e+02  -4.339302417950e+02 
5 1 -1.527459717652e+02   1.379778073239e+01   4.389406453185e+02 
6 1 -1.603000471425e+02   4.620205262901e+02  -4.174014457272e+02 
7 1 -1.795293861868e+02   7.302945158777e+01  -1.453200598068e+02 
8 1 -2.999529346624e+02   1.117524713543e+02   2.816536007607e+02 
8
Step 35000
1 1 -4.176690727267e+02   1.357576087025e+01   5.735636644465e+02 
2 1  1.400370551807e+02   2.353676671840e+02  -3.445751888159e+02 
3 1  2.756985650997e+02   1.080713913667e+02  -3.872647841346e+02 
4 1 -1.083223087830e+02  -1.645288778650e+02   1.226311059244e+02 
5 1 -1.383829916785e+02   2.000265596236e+02  -1.260441807792e+02 
6 1  2.172428568987e+02  -1.184552266673e+02   1.598360374474e+02 
7 1  1.320633909942e+00  -5.475779342722e+02  -1.841022216309e+01 
8 1 -1.127163236639e+02  -7.505653431745e+01  -2.163944002241e+02 
8
Step 36000
1 1  2.952538715957e+02  -4.878424972398e+01  -4.928588959680e+02 
2 1 -2.304194602140e+02  -3.823417423558e+02   2.704525789680e+02 
3 1 -8.869959779280e+01   1.020231307066e+02   4.285243235021e+02 
4 1  9.165100222422e+01   4.454676059508e+02  -2.005937840294e+01 
5 1  8.232088694609e+00  -4.967680313813e+02   4.990849460511e+02 
6 1  2.995908638782e+01  -2.042074346486e+02  -1.956429846383e+02 
7 1 -4.974534061165e+02   8.919776407953e+01   2.553341879390e+01 
8 1  3.605799879680e+02   9.428672684744e+01  -1.846747643808e+02 
8
Step 37000
1 1 -1.959102463451e+02   5.266782925426e+01   3.536669882823e+02 
2 1 -1.425035568632e+00   5.352626337621e+02  -7.902485757093e+01 
3 1 -2.066321660905e+01  -2.264006225031e+02  -4.264035522372e+02 
4 1  3.132599966621e+01  -5.367012923998e+02  -3.040014183114e+01 
5 1 -1.374384297743e+00   2.435233171927e+02  -2.767750276494e+02 
6 1  2.926194239556e+02   1.049933630248e+02   1.296750692883e+02 
7 1 -4.608286650031e+02  -9.805221611170e+01   3.224132569414e+02 
8 1  1.117817956833e+02  -5.857463307314e+01   4.297331777847e+01 
8
Step 38000
1 1  8.871268222417e+01  -2.272007800556e+01  -2.678035461648e+02 
2 1  3.001465718825e+01  -5.277736267250e+02  -2.524424038885e+01 
3 1  2.668771894911e+02   1.911921708301e+02   2.911482220269e+02 
4 1 -4.877131742875e+00   7.886456924919e+02   2.282522664863e+02 
5 1  1.565659048689e+02  -2.453750725722e+02   1.953993380990e+02 
6 1 -2.779880204418e+02  -2.183928537806e+02   7.814168182351e+01 
7 1 -9.580050510794e+01   1.755535224814e+02  -3.744643604856e+02 
8 1 -6.403813999644e+01  -2.431735063285e+02  -8.661015413176e+01 
8
Step 39000
1 1  6.738068725443e+01   3.062273744471e+01   1.869779424426e+02 
2 1  2.323840112398e+01   4.398157750962e+02   1.396243062461e+02 
3 1 -2.832220619205e+02  -1.865696044753e+02  -1.504928191074e+02 
4 1 -2.567640659154e+01  -6.949723986300e+02  -2.171512495566e+02 
5 1 -2.292495206091e+02   2.933842192006e+02  -1.311917636142e+02 
6 1 -3.601406500781e+02   5.493550157130e+02  -1.142507044080e+02 
7 1  5.193039975142e+02  -2.393291088774e+02   3.344964025185e+02 
8 1  2.180003638398e+01  -2.647013106016e+01   4.674058109955e+02 
8
Step 40000
1 1 -1.113728222022e+02  -3.590336024306e+01   2.681712277417e+01 
2 1  3.191730318369e+01  -2.913883938125e+02  -3.000141005118e+02 
3 1  6.532143564402e+02   4.792438251601e+02   1.984722635099e+02 
4 1  3.951462468194e+01   4.789296355887e+02   2.507332380526e+02 
5 1  2.972693822004e+02  -1.934376221052e+02  -3.214266659457e+01 
6 1  3.258162498688e+01  -3.004176596008e+02   2.928339707525e+02 
7 1  4.302485280912e+01  -8.886493700245e+01  -3.710830093869e+02 
8 1 -2.311038012945e+02  -9.502759957869e+01  -3.336312715325e+02 
8
Step 41000
1 1  2.143194206052e+02   1.487455013357e+02  -1.371696186356e+02 
2 1 -1.806245683846e+02   2.583869526316e+02   3.709156815783e+02 
3 1 -3.192978768015e+02  -1.294598118567e+02   2.947080146657e+01 
4 1  1.736655490328e+01  -5.666503572191e+02  -2.743174192957e+02 
5 1 -1.994944887725e+02   1.573022584564e+02   7.316926273659e+01 
6 1  2.110417951731e+02   3.587185907308e+02  -3.864949182782e+02 
7 1 -9.183339087218e+01   6.900069863186e+01  -6.847859491776e+01 
8 1  1.379669093849e+02   4.901695648979e+02   5.213479152711e+02 
8
Step 42000
1 1 -4.004850789860e+02  -1.214813764778e+02   5.485715757391e+02 
2 1  2.105384615276e+02  -2.035296547011e+01  -3.763687561093e+02 
3 1  4.021605041041e+02   4.398983372599e+01  -1.405154855061e+02 
4 1  2.183783145579e+02   1.201854322819e+02   1.469026001082e+02 
5 1 -1.552158598943e+02   1.695516940748e+02  -3.406567673670e+02 
6 1  2.022992480413e+02  -1.328613821709e+02   4.193230287881e+02 
7 1 -3.668177589068e+02   1.127589207907e+02   4.580029237558e+01 
8 1  2.227975832797e+02  -4.893392556842e+02  -3.887991598422e+02 
8
Step 43000
1 1  4.461176341265e+02   8.006278376891e+01  -4.205839078536e+02 
2 1 -2.209656830414e+02  -2.367026071575e+02   3.452605429782e+02 
3 1 -2.908093056508e+02  -3.921687796625e+02   1.781768050754e+02 
4 1 -4.267628870655e+02  -1.550842801612e+02  -1.544611324502e+02 
5 1 -5.305658014842e+01   1.646790112922e+02   3.469208885687e+02 
6 1  1.917514049548e+02   2.028326138482e+02  -3.872767525227e+02 
7 1  2.288561128987e+01   4.076519858061e+00   1.452461476616e+02 
8 1  1.111509109600e+02   4.506139029010e+01   6.465670288188e+02 
8
Step 44000
1 1 -3.560433626887e+02  -1.996872699711e+02   5.692874760130e+02 
2 1  2.291004864226e+02   3.479705405876e+02  -3.400035336832e+02 
3 1  1.646220164491e+02   1.708911226595e+02  -2.771505540805e+02 
4 1  6.827998338093e+01   1.738929122033e+02   1.195816715189e+01 
5 1 -2.325318239018e+01   7.078272200060e+01  -1.766748456441e+02 
6 1  2.682474875416e+02  -3.453218307775e+02   3.290137555388e+02 
7 1  1.381751249970e+02   1.040022111550e+02   2.223083467843e+02 
8 1 -1.186809014924e+02  -1.771056985840e+02  -4.440767009300e+02 
8
Step 45000
1 1  3.532568960612e+02   2.177860539230e+02  -4.710922909906e+02 
2 1 -1.582657888419e+02  -4.327130754778e+02   1.092857126201e+02 
3 1 -1.873927007116e+02   2.922969311526e+02   3.982405227619e+02 
4 1 -1.393108502322e+02   3.860968843166e+01   1.179874181402e+01 
5 1  4.987047330751e+02  -2.798375885555e+02   5.071159039656e+02 
6 1 -1.685668536718e+02   1.414721797403e+02  -4.152285694703e+02 
7 1 -3.602322312549e+02  -1.203729542163e+02  -1.361735183545e+02 
8 1  3.664926703734e+01   3.249904891458e+02   1.961115467811e+02 
8
Step 46000
1 1 -2.856196215780e+02  -1.772964936791e+02   3.605465665512e+02 
2 1 -4.838393277907e+01   4.713499729496e+02  -7.571360986255e+01 
3 1  7.818963541912e+00  -4.004632163300e+02  -3.180034656016e+02 
4 1  1.684100092348e+02  -4.637564549621e+02   4.413038888881e+01 
5 1 -7.753249945304e+01  -4.350384559589e+01  -3.897377487858e+02 
6 1  7.501499385682e+01   5.306190239798e+01  -2.517354704499e+01 
7 1  2.479333173852e+02   5.230475857823e+02   2.381016644569e+02 
8 1 -1.753537811393e+02  -2.325167394667e+02  -1.024026082723e+02 
8
Step 47000
1 1  2.663774441037e+02   2.622913941555e+02  -5.172333541560e+02 
2 1  7.839017272284e+01  -5.499140525004e+02  -1.406512582257e+02 
3 1  2.228007561516e+02   2.774783421745e+01   2.638570464045e+02 
4 1 -2.573551138230e+01   3.585025415208e+02   2.500298962235e+02 
5 1  2.807282694396e+01   3.323498625012e+02   3.736212410384e+02 
6 1 -1.974665641758e+02   5.150520850751e+02   1.865331410228e+02 
7 1 -8.688677642582e+01  -5.233695376242e+02  -2.108534722864e+02 
8 1 -5.409846180873e+01  -7.865452324656e+01  -1.460816874008e-01 
8
Step 48000
1 1 -4.905897288526e+01  -1.354999768027e+02   1.218824015618e+02 
2 1 -2.202958292401e+02   4.933118255540e+02   2.314875413337e+02 
3 1 -3.458076309684e+02  -2.250417613896e+02  -4.595785451333e+02 
4 1 -2.464660410307e+02  -1.958516561057e+02  -5.939062569520e+01 
5 1 -6.836600750282e+01   3.871668846872e+02  -1.859308540675e+02 
6 1  2.852439508757e+02  -2.432382432425e+02  -4.023325414605e+02 
7 1  4.446447295574e+02   1.453892743750e+02  -2.868506610750e+02 
8 1 -4.570361923312e+01   6.108749828826e+01   3.945997337560e+02 
8
Step 49000
1 1 -1.381479260064e+02  -2.133090862988e+01   7.906534716295e+01 
2 1  1.623831485589e+02  -3.935144634076e+02  -2.799508070998e+02 
3 1  2.437011261245e+02   1.734827453192e+02   2.765806222953e+02 
4 1  2.819149580491e+02   4.176824931068e+02   4.228048452109e+02 
5 1 -1.985021442144e+02   4.882355279931e-01   7.390678940194e+01 
6 1  1.591037643832e+02  -1.442902592839e+02   2.183681795807e+02 
7 1 -3.203626317068e+02  -8.173628334653e+01   2.168533615917e+02 
8 1 -2.263767003733e+02   1.133748723147e+02  -7.179480063903e+02 
8
Step 50000
1 1  1.291331772299e+02   2.315237534702e+01  -1.560087826919e+02 
2 1 -2.775593190543e+02   1.360503211389e+02   2.893683781567e+02 
3 1 -3.600611082003e+02  -2.117713602456e+02  -2.741108870569e+01 
4 1 -8.006874523220e+01  -5.405851620880e+02  -2.330917408986e+02 
5 1  7.076455344130e+02  -1.774753505865e+02  -1.367916865099e+02 
6 1 -1.785115279872e+02   7.599257744475e+01  -8.929283594208e+01 
7 1 -1.665124452598e+02   3.668946815395e+02  -2.091982172235e+02 
8 1  4.385294520876e+02  -1.332317568734e+02   4.992304503878e+02 
8
Step 51000
1 1 -3.580973829916e+02  -1.986207736669e+02   3.068313935557e+02 
2 1  3.596667712059e+02  -2.016323611674e+01  -2.674116781224e+02 
3 1  7.109552574716e+02   1.439121753172e+02  -7.516578616297e+01 
4 1  3.497976193047e+02   1.283616989642e+02   4.831712570005e+02 
5 1 -1.847381889980e+02  -2.409402467473e+01  -1.335880969439e+02 
6 1 -7.555653465088e+01   2.024400405700e+02  -9.185375671752e+01 
7 1 -1.964268366600e+02  -9.525962687213e+01   4.168157393995e+02 
8 1 -7.555141731852e+01  -9.053721241167e+01  -4.916911150577e+02 
8
Step 52000
1 1  1.982541848071e+02   3.133427195513e+02  -2.083158492273e+02 
2 1 -3.470451988383e+02  -3.100629886588e+01   5.131807110622e+02 
3 1 -3.412242016168e+02  -1.176744940752e+02   1.257667949650e+02 
4 1 -3.324890924742e+02   5.178868280697e+01  -2.912903769833e+02 
5 1 -1.377861088982e+02   2.618682977736e+02  -1.317595944397e+02 
6 1  3.571707365379e+01   1.034464405055e+02   2.450187673358e+01 
7 1  3.435807880383e+02  -2.100277124960e+02  -3.010976191775e+02 
8 1 -7.671242260350e+01   1.335771642405e+02   2.352200349785e+02 
8
Step 53000
1 1 -3.541477021875e+02  -3.813559813840e+02   3.468658334304e+02 
2 1  2.875760476882e+02   2.480437613569e+02  -3.414243014038e+02 
3 1  7.425690142540e+02  -1.556708062323e+02  -4.225536980793e+02 
4 1  2.749247753329e+02   1.562924262202e+02   1.985238346594e+02 
5 1 -6.971624217843e+02   2.353717946510e+02   3.562468765141e+01 
6 1  1.168319461085e+02  -2.906753375222e+02  -2.995839944490e+02 
7 1  1.744126400455e+02   3.647418930102e+01   2.304568762119e+02 
8 1 -1.297327027174e+02   9.477964503954e+01  -4.321515288769e+01 
8
Step 54000
1 1  3.603387094573e+02   5.055570553895e+02  -5.635877691060e+02 
2 1 -2.452294943241e+02  -4.910776237632e+01   5.219245374979e+02 
3 1 -5.309739149343e+02   5.548079793753e+01   1.140275589182e+02 
4 1 -1.916098129685e+02   9.558715429670e+01   4.100466181852e+01 
5 1  3.347037382964e+02  -5.495875623267e+02  -2.860870647106e+02 