8
Step 0
1 1 -3.567806084495e+02   1.250349871688e+02   1.349215040121e+02 
2 1 -3.715941391501e+01   2.035910927754e+02  -2.934454057728e+02 
3 1 -5.894608363078e+00   1.640287187557e+02  -1.356203740973e+02 
4 1  9.980405381862e+01   3.579602250797e+02   4.123904540523e+02 
5 1 -6.056234710672e+01   4.194574330581e+02   8.432933744934e+01 
6 1 -1.761637115772e+02  -2.392440180721e+02  -1.953219266841e+02 
7 1 -2.534551509443e+02  -1.234561750903e+02   2.630611908943e+02 
8 1 -1.563495904539e+02  -4.994924455812e+02  -3.797918227023e+01 
8
Step 1000
1 1 -1.396029997470e+02   5.698376159380e+01  -1.031640598902e+02 
2 1  1.561796720594e+02  -1.050232707159e+02  -3.419337118154e+02 
3 1 -2.228172348264e+02  -4.748347505055e+01  -1.863264160011e+02 
4 1  3.532899962255e+02   1.788532382714e+02   3.851425343488e+02 
5 1  2.170954820883e+02   2.066539600571e+02  -1.375960704978e+02 
6 1 -9.585050200318e+01   9.194566828974e+01   8.439276759411e+01 
7 1 -3.390792930010e+02  -3.367873146074e+01   9.683428720874e+00 
8 1 -2.108411870036e+02  -3.707635202483e+02   9.334773302133e+00 
8
Step 2000
1 1  1.437864921881e+02  -2.606362982801e+01  -2.831685644210e+02 
2 1  2.783324930083e+02  -3.404806330590e+02  -2.742132906830e+02 
3 1 -3.963253137373e+02  -2.241350690702e+02  -1.950756721785e+02 
4 1  3.806473312817e+02  -7.070661748282e+01   2.257412167534e+02 
5 1  3.525624143907e+02  -9.242618203783e+01  -3.222137656724e+02 
6 1  5.866798915565e+01   4.173392069806e+02   3.042528139470e+02 
7 1 -2.993321678100e+02   9.478455516277e+01  -2.210910705745e+02 
8 1 -1.801578134600e+02  -7.481702813595e+01   4.911816233484e+01 
8
Step 3000
1 1  3.761803456435e+02  -1.141904710776e+02  -3.226382489100e+02 
2 1  2.319513417681e+02  -3.392787604983e+02  -9.846204755141e+01 
3 1 -4.033307345492e+02  -2.587597747534e+02  -1.354812194948e+02 
4 1  2.250743181331e+02  -2.285660920132e+02   6.710770701922e+01 
5 1  2.555306124040e+02  -3.170883867017e+02  -3.504296367267e+02 
6 1  2.008237973876e+02   5.165579964811e+02   3.310870265470e+02 
7 1 -1.701993733830e+02   2.157107752109e+02  -2.990529230396e+02 
8 1 -8.402724560447e+01   2.183758985917e+02   8.826905509958e+01 
8
Step 4000
1 1  4.037837357444e+02  -1.768684182258e+02  -1.741510212479e+02 
2 1  7.405436521194e+01  -1.519193854698e+02   7.442759245389e+01 
3 1 -2.256400317687e+02  -1.453452722183e+02  -3.106580996706e+01 
4 1  1.132793843683e+01  -2.710794273628e+02  -4.455466782648e+01 
5 1  2.623177925145e+01  -3.317977731924e+02  -2.063011543692e+02 
6 1  2.019406866377e+02   2.878391043076e+02   1.519049636063e+02 
7 1 -2.453223898802e+01   2.586115781282e+02  -1.872292152031e+02 
8 1  4.665247877145e+01   3.868121757600e+02   1.206283384730e+02 
8
Step 5000
1 1  2.095925001338e+02  -1.881083194866e+02   5.047480696385e+01 
2 1 -8.022810544263e+01   5.705105232093e+01   1.797306932536e+02 
3 1  1.199998982761e+00   1.206784033897e+00   6.228532270690e+01 
4 1 -1.907512732925e+02  -2.176387728223e+02  -1.308621809933e+02 
5 1 -1.479584256934e+02  -2.260563559905e+02  -3.776149769036e+01 
6 1  1.142351406518e+02   8.538631687222e+00  -1.628899583386e+01 
7 1  6.905826225493e+01   1.969321267740e+02   1.288986195435e+01 
8 1  1.475998093251e+02   3.375665306916e+02   1.205654410738e+02 
8
Step 6000
1 1 -3.239125201895e+01  -1.612901462653e+02   1.811401545090e+02 
2 1 -1.777838225458e+02   1.988275940232e+02   2.143433357479e+02 
3 1  1.761872203456e+02   1.022324117076e+02   1.185933998689e+02 
4 1 -3.138685936768e+02  -8.668790604971e+01  -2.014091086790e+02 
5 1 -2.320989906742e+02  -1.035802355936e+02   8.940048471263e+01 
6 1  2.129816687131e+00  -2.122961201546e+02  -9.617645844688e+01 
7 1  9.439664374159e+01   7.093268968795e+01   1.642827427778e+02 
8 1  1.593703135843e+02   1.294299414146e+02   8.091824101947e+01 
8
Step 7000
1 1 -1.770436963016e+02  -1.199368808547e+02   1.702275088627e+02 
2 1 -1.915338635112e+02   2.220532727963e+02   1.851004807882e+02 
3 1  2.572232838924e+02   1.334942008806e+02   1.293319695225e+02 
4 1 -2.985488062835e+02   6.954177747944e+01  -2.404839881709e+02 
5 1 -2.217099358311e+02   1.981270154865e+01   1.671736057713e+02 
6 1 -1.283603419116e+02  -3.636645801797e+02  -7.695885064877e+01 
7 1  7.737816475791e+01  -5.634866533626e+01   2.029273744747e+02 
8 1  1.112043040243e+02  -6.131059221257e+01   2.966456826749e+01 
8
Step 8000
1 1 -2.079290053375e+02  -6.740360896445e+01   7.052398746062e+01 
2 1 -1.290566375080e+02   1.221438263975e+02   1.259898577162e+02 
3 1  2.420446142535e+02   1.062683503022e+02   9.958699409932e+01 
4 1 -1.522489682058e+02   1.785990507402e+02  -2.287567569005e+02 
5 1 -1.186361394377e+02   1.190608777181e+02   1.756294925864e+02 
6 1 -2.274829640559e+02  -3.813601195270e+02   2.695307051767e+01 
7 1  5.208353451710e+01  -1.462776104190e+02   1.499414812028e+02 
8 1  5.629899030816e+01  -1.660439956722e+02  -1.842970363380e+01 
8
Step 9000
1 1 -1.547779315076e+02   1.788523205424e+01  -6.350241597747e+01 
2 1 -2.566276110587e+01  -5.150576675821e+01   7.230418067503e+01 
3 1  1.666080135095e+02   5.522259611643e+01   4.608080175716e+01 
4 1  5.357407352859e+01   1.998778574144e+02  -1.646589205393e+02 
5 1  3.149708887915e+01   1.643083731302e+02   1.149193691540e+02 
6 1 -2.364856065181e+02  -2.491854089322e+02   1.310030105650e+02 
7 1  3.688341261527e+01  -1.908712559324e+02   4.920164078492e+01 
8 1  6.624887651036e+00  -1.860657742054e+02  -6.629474605656e+01 
8
Step 10000
1 1 -4.685567890748e+01   1.552880839908e+02  -1.795326535668e+02 
2 1  8.089558438279e+01  -2.188234631594e+02   2.642825581544e+01 
3 1  6.335755127829e+01   5.306308693758e+00  -2.089306754510e+01 
4 1  2.377043812646e+02   1.365605659129e+02  -5.905645417790e+01 
5 1  1.662051747687e+02   1.437413259205e+02   1.195656797731e+01 
6 1 -1.521123851875e+02  -3.900422251493e+01   1.524597548961e+02 
7 1  3.532668809930e+01  -1.849688820559e+02  -6.818268602082e+01 
8 1 -3.564949998996e+01  -1.197167962768e+02  -1.074189387266e+02 
8
Step 11000
1 1  6.665067705572e+01   3.097037000809e+02  -2.062376239748e+02 
2 1  1.484382026802e+02  -2.869873489157e+02  -2.194125534235e+01 
3 1 -4.517410788436e+01  -3.449884062295e+01  -9.127801467501e+01 
4 1  3.322822362185e+02   1.897642461784e+01   7.061701152504e+01 
5 1  2.340364932122e+02   6.501443920723e+01  -9.067157114330e+01 
6 1 -7.329258232141e+00   1.668759851261e+02   6.859268702694e+01 
7 1  4.333919754833e+01  -1.194869607287e+02  -1.688415424869e+02 
8 1 -6.413822742430e+01   1.015951952539e+01  -1.272171162628e+02 
8
Step 12000
1 1  1.228571079233e+02   3.773245490960e+02  -9.967100315746e+01 
2 1  1.445064842414e+02  -2.022717741260e+02  -7.293415335690e+01 
3 1 -1.304944220160e+02  -6.277083179105e+01  -1.421935393114e+02 
4 1  2.950677109776e+02  -1.005770883733e+02   1.916632575462e+02 
5 1  2.105799127073e+02  -4.526157040933e+01  -1.458811567923e+02 
6 1  1.602040731253e+02   3.062036634511e+02  -8.887583598105e+01 
7 1  5.265423582361e+01  -3.651427420368e+00  -2.121577994987e+02 
8 1 -7.345401050841e+01   1.478761966721e+02  -1.131843946935e+02 
8
Step 13000
1 1  9.573599086397e+01   2.878354391573e+02   8.738497939495e+01 
2 1  7.678833292127e+01  -3.774356215295e+00  -1.174960730401e+02 
3 1 -1.621162103877e+02  -8.018829594103e+01  -1.434979225608e+02 
4 1  1.421035042613e+02  -1.645703993983e+02   2.623258843258e+02 
5 1  1.100386596414e+02  -1.478879384826e+02  -1.219359335631e+02 
6 1  2.872461152719e+02   3.125790999542e+02  -2.331088339824e+02 
7 1  5.417577549247e+01   1.252586814556e+02  -1.733436102417e+02 
8 1 -6.251496101786e+01   2.219271850398e+02  -6.011151869600e+01 
8
Step 14000
1 1  1.560103263602e+01   7.212017617938e+01   2.553445282133e+02 
2 1 -2.166574844439e+01   2.228010703144e+02  -1.429451808366e+02 
3 1 -1.293254509009e+02  -8.692325573462e+01  -8.038352013483e+01 
4 1 -5.278337447537e+01  -1.470885636647e+02   2.576373580610e+02 
5 1 -2.761221218578e+01  -2.039349658422e+02  -1.854484021520e+01 
6 1  2.948534158708e+02   1.731384263162e+02  -2.565043461422e+02 
7 1  4.077999062586e+01   2.170866676696e+02  -5.830843559371e+01 
8 1 -3.573164087548e+01   1.767155219899e+02   2.400797932172e+01 
8
Step 15000
1 1 -6.949824458610e+01  -1.912204273563e+02   3.261353422586e+02 
2 1 -1.075885464864e+02   3.740574063521e+02  -1.300696920779e+02 
3 1 -5.277863878558e+01  -8.188104652383e+01   3.155876926682e+01 
4 1 -2.087250897126e+02  -6.588066812140e+01   1.790757382896e+02 
5 1 -1.580604546728e+02  -1.784239409495e+02   1.265163869163e+02 
6 1  1.917682787632e+02  -5.045349774645e+00  -1.514249988556e+02 
7 1  9.542399555754e+00   2.294016996627e+02   9.887299349430e+01 
8 1 -1.884588268416e+00   6.072989427773e+00   1.201509800836e+02 
8
Step 16000
1 1 -1.114416158327e+02  -3.845241128993e+02   2.479947686595e+02 
2 1 -1.291465151376e+02   3.478005950936e+02  -7.008671641712e+01 
3 1  3.121622842921e+01  -5.883028228164e+01   1.545538585245e+02 
4 1 -2.767064601137e+02   3.633424554634e+01   4.733841114661e+01 
5 1 -2.296787180103e+02  -5.635617261799e+01   2.269167209367e+02 
6 1  5.235545540995e+01  -1.214425482975e+02   7.035658892933e-01 
7 1 -3.683488625602e+01   1.446859169728e+02   2.451552173130e+02 
8 1  2.897301942891e+01  -2.460914965087e+02   2.039102145592e+02 
8
Step 17000
1 1 -8.553691942761e+01  -3.962295658984e+02   5.617157375251e+01 
2 1 -7.495254522546e+01   1.593509956872e+02   1.067734527897e+01 
3 1  8.626372542274e+01  -6.304539698753e+00   2.361875031902e+02 
4 1 -2.489708305184e+02   1.136946374168e+02  -1.024397526856e+02 
5 1 -2.091310148572e+02   1.126658347885e+02   1.928113543360e+02 
6 1 -8.128442056466e+01  -1.524222255372e+02   1.367985638891e+02 
7 1 -9.064984693556e+01  -1.573647388684e+01   3.200322796279e+02 
8 1  4.323194447757e+01  -4.495303945020e+02   2.264597120696e+02 
8
Step 18000
1 1 -2.096103840332e+01  -2.522246613356e+02  -1.311697602288e+02 
2 1  1.807506992605e+01  -8.844732615400e+01   8.291640377725e+01 
3 1  8.866108132768e+01   7.444629545703e+01   2.268532539929e+02 
4 1 -1.509133897515e+02   1.345642583229e+02  -2.249837940790e+02 
5 1 -1.237186741964e+02   2.384239330893e+02   2.639355634479e+01 
6 1 -1.858299736198e+02  -1.080093762326e+02   2.124786461019e+02 
7 1 -1.389641638520e+02  -1.833490400452e+02   2.775682949395e+02 
8 1  3.324502900307e+01  -4.126357045046e+02   1.447395350945e+02 
8
Step 19000
1 1  3.894878081991e+01  -5.356538247500e+01  -2.393524475425e+02 
2 1  1.054978827460e+02  -3.131927792615e+02   1.357189732251e+02 
3 1  4.815554992077e+01   1.583903229785e+02   1.238256707484e+02 
4 1 -2.450788911870e+01   9.482067872302e+01  -2.766251802920e+02 
5 1 -2.154736501419e+01   2.603269141991e+02  -1.824676128501e+02 
6 1 -2.364774877946e+02  -2.274687500809e+01   1.984742483074e+02 
7 1 -1.640925601547e+02  -2.678501281731e+02   1.206447378449e+02 
8 1  1.569838494136e+01  -1.366684190222e+02   2.421815977194e+00 
8
Step 20000
1 1  6.808505219616e+01   1.248122497945e+02  -2.486140675753e+02 
2 1  1.358682735548e+02  -4.237378016413e+02   1.544183485374e+02 
3 1  4.057384703952e-01   2.109504346105e+02  -2.657468091735e+01 
4 1  8.941412818933e+01   2.040402880772e+01  -2.384526946652e+02 
5 1  6.803247851267e+01   1.689727028368e+02  -3.124239233853e+02 
6 1 -2.234068449386e+02   4.963203071126e+01   1.058811722036e+02 
7 1 -1.514168148716e+02  -2.221349211621e+02  -9.276503770429e+01 
8 1  9.501153191014e+00   2.465193293184e+02  -1.390349392889e+02 
8
Step 21000
1 1  5.605021022414e+01   2.269064270000e+02  -1.672000274007e+02 
2 1  7.620992016453e+01  -3.402520961219e+02   1.228619293972e+02 
3 1 -2.230549077652e+01   1.986069502451e+02  -1.645778418448e+02 
4 1  1.691695828683e+02  -5.220908768565e+01  -1.275173496817e+02 
5 1  1.281597129137e+02   1.332428708172e+01  -2.822218882149e+02 
6 1 -1.591775958327e+02   6.561774055657e+01  -1.549416237814e+01 
7 1 -9.432808823201e+01  -6.792245932852e+01  -2.912721127177e+02 
8 1  1.982771138555e+01   5.870373571405e+02  -2.202338474432e+02 
8
Step 22000
1 1  1.246126580923e+01   2.245657587088e+02  -3.686704438277e+01 
2 1 -3.662781731355e+01  -1.192712456779e+02   5.527154603059e+01 
3 1 -8.564863884609e+00   1.052759100743e+02  -2.396136323546e+02 
4 1  2.107486321658e+02  -9.778040360927e+01   1.909067319016e+01 
5 1  1.562307861846e+02  -1.308555348320e+02  -1.109192268142e+02 
6 1 -6.577337458192e+01   1.893081067103e+01  -1.067820784576e+02 
7 1  8.394124117238e+00   1.284311741091e+02  -4.090241963601e+02 
8 1  3.241785439596e+01   5.848665206208e+02  -1.465118178894e+02 
8
Step 23000
1 1 -3.660930405859e+01   1.335848758879e+02   8.612293714096e+01 
2 1 -1.437054046339e+02   1.397141970862e+02  -3.343318493090e+01 
3 1  2.934364426323e+01  -4.819528749171e+01  -2.310890639235e+02 
4 1  2.055690730705e+02  -1.028763923453e+02   1.560027843226e+02 
5 1  1.595857716574e+02  -2.110119531821e+02   1.207621521524e+02 
6 1  3.295778992311e+01  -5.547266930075e+01  -1.322433175642e+02 
7 1  1.395968718593e+02   2.654721882253e+02  -3.771154837143e+02 
8 1  2.874729887193e+01   2.715992870266e+02   7.887429351222e+00 
8
Step 24000
1 1 -6.081502883846e+01   9.290728603844e-02   1.574051185657e+02 
2 1 -1.857877373438e+02   3.637821218577e+02  -1.400826234378e+02 
3 1  6.454219844027e+01  -2.136235569169e+02  -1.529978688363e+02 
4 1  1.419220922994e+02  -6.577143948432e+01   2.352116816111e+02 
5 1  1.354444205974e+02  -1.994671596992e+02   3.122078913840e+02 
6 1  1.167183808096e+02  -1.081437900914e+02  -9.807302346905e+01 
7 1  2.530551349158e+02   2.597527454150e+02  -1.861685962795e+02 
8 1  1.474837754106e+01  -4.744315378181e+01   1.130623886137e+02 
8
Step 25000
1 1 -3.780223545882e+01  -1.165222670874e+02   1.532534370055e+02 
2 1 -9.989261598166e+01   4.218501031647e+02  -2.161423006838e+02 
3 1  6.716071996719e+01  -3.289298184408e+02  -3.737920892958e+01 
4 1  2.958020030572e+01  -3.764823941723e+00   2.302548513992e+02 
5 1  7.458544671653e+01  -1.008307844592e+02   3.574766198166e+02 
6 1  1.748084314715e+02  -1.081148359958e+02  -3.742435160070e+01 
7 1  3.082985790298e+02   1.238847637099e+02   7.479717790576e+01 
8 1 -5.190870019091e+00  -3.041343221039e+02   1.407087104830e+02 
8
Step 26000
1 1  3.188325572468e+01  -1.696740038148e+02   8.361686182581e+01 
2 1  7.129198475013e+01   2.675676728219e+02  -2.005708464730e+02 
3 1  1.922264609237e+01  -3.311826960654e+02   7.435589239648e+01 
4 1 -1.000509541865e+02   5.474179341128e+01   1.523071336408e+02 
5 1 -1.571233778798e+01   2.663661575091e+01   2.318483276664e+02 
6 1  1.982336280141e+02  -5.081510281958e+01   1.803337740480e+01 
7 1  2.859321561157e+02  -7.366035086880e+01   3.106888923346e+02 
8 1 -2.716424767833e+01  -4.358362136080e+02   8.138793641558e+01 
8
Step 27000
1 1  1.304661145469e+02  -1.447388397733e+02  -1.952435423711e+01 
2 1  2.116581274925e+02   3.443728093590e+01  -1.052766836590e+02 
3 1 -6.807764295260e+01  -2.025412707608e+02   1.466752062100e+02 
4 1 -2.089010089585e+02   8.386728325976e+01   3.451889348580e+01 
5 1 -1.205298217577e+02   1.182236419826e+02   7.425963382404e+00 
6 1  1.731210599733e+02   4.546973703678e+01   4.927058839512e+01 
7 1  1.628140925659e+02  -2.468567020256e+02   4.326479017005e+02 
8 1 -4.425715238941e+01  -3.880758465236e+02  -2.673684292570e+01 
8
Step 28000
1 1  2.194358408647e+02  -3.285702674352e+01  -1.232072626632e+02 
2 1  2.431337946699e+02  -1.519295549861e+02   3.204291971266e+01 
3 1 -1.610168058780e+02   1.707359555131e+01   1.736745071909e+02 
4 1 -2.582772090439e+02   6.853292546183e+01  -8.577530156933e+01 
5 1 -2.253344320623e+02   1.384671544571e+02  -2.332739007647e+02 
6 1  9.342151884413e+01   1.441549073853e+02   4.918460367430e+01 
7 1 -3.884655822901e+01  -2.837945763703e+02   3.549307990633e+02 
8 1 -5.445061960694e+01  -2.153421023325e+02  -1.164495186849e+02 
8
Step 29000
1 1  2.039292504570e+02   1.329726482417e+02  -1.610490718021e+02 
2 1  1.410614745073e+02  -2.286687861010e+02   1.646987696726e+02 
3 1 -2.142946449976e+02   2.628070166173e+02   1.684897535232e+02 
4 1 -2.211376580803e+02   1.421446208208e+01  -1.744019971023e+02 
5 1 -2.820653959047e+02   7.078892524117e+01  -3.872252455794e+02 
6 1 -2.496584076034e+01   2.020504987152e+02   2.127347548256e+01 
7 1 -2.170849603250e+02  -1.635443815867e+02   1.345405670422e+02 
8 1 -5.946509409315e+01  -1.129490586883e+01  -1.507235396763e+02 
8
Step 30000
1 1  4.828426139630e+01   2.323271177152e+02  -9.725185408882e+01 
2 1 -5.027616917043e+01  -1.944274709038e+02   2.395137117910e+02 
3 1 -1.694074470037e+02   4.237723162127e+02   1.418394735888e+02 
4 1 -9.982349605857e+01  -5.375595245876e+01  -2.113780098954e+02 
5 1 -2.253029219138e+02  -4.912061862134e+01  -3.451082254248e+02 
6 1 -1.435770887922e+02   1.850850695732e+02  -2.129987738377e+01 
7 1 -3.011071222404e+02   2.144616685668e+01  -8.674830052617e+01 
8 1 -5.700477765799e+01   1.613852625749e+02  -1.252237968019e+02 
8
Step 31000
1 1 -1.661114517130e+02   1.939856964918e+02   1.159842198386e+01 
2 1 -2.390068210947e+02  -9.850000341809e+01   2.240938344736e+02 
3 1 -1.430792069517e+01   3.879555915798e+02   1.096771583297e+02 
4 1  7.813502722050e+01  -1.042285564233e+02  -1.963245906608e+02 
5 1 -6.895140038158e+01  -1.353314246739e+02  -1.401667035350e+02 
6 1 -2.166408910504e+02   8.557469422158e+01  -5.903013020871e+01 
7 1 -2.731847535945e+02   1.666244976006e+02  -2.114581203290e+02 
8 1 -3.934904458533e+01   2.644605279954e+02  -5.402452282517e+01 
8
Step 32000
1 1 -3.360825425982e+02   3.684008146064e+01   9.493711091279e+01 
2 1 -3.279499568792e+02  -8.866868272435e+00   1.204150450182e+02 
3 1  1.771691551448e+02   1.905060893345e+02   8.547188804113e+01 
4 1  2.674010415981e+02  -1.067516358015e+02  -1.324462607299e+02 
5 1  1.301732239106e+02  -1.330642748129e+02   1.087932258097e+02 
6 1 -2.222884954578e+02  -7.577018332877e+01  -7.632795794057e+01 
7 1 -1.647319718259e+02   1.975405876108e+02  -2.068125648712e+02 
8 1  5.182631704696e-01   2.808182470776e+02   3.182366818298e+01 
8
Step 33000
1 1 -3.706309509562e+02  -1.563728727111e+02   1.122083149191e+02 
2 1 -2.672815391633e+02   2.397403289759e+01  -2.955184099713e+01 
3 1  3.213250028562e+02  -5.585553303993e+01   4.973178283208e+01 
4 1  3.770038870751e+02  -4.269808189141e+01  -2.175427089432e+01 
5 1  3.258344036089e+02  -2.579421669620e+01   3.133160223498e+02 
6 1 -1.669816971265e+02  -2.877692488337e+02  -6.696173565302e+01 
7 1 -5.279867012314e+01   1.276172312434e+02  -1.301100347818e+02 
8 1  6.186200326789e+01   2.250954817832e+02   9.645956064195e+01 
8
Step 34000
1 1 -2.415103504322e+02  -2.674055860114e+02   6.763878026609e+01 
2 1 -8.460629841146e+01  -3.892666988126e+00  -1.734414190685e+02 
3 1  3.428210885954e+02  -2.526573712330e+02  -3.583042380335e+01 
4 1  3.134530284314e+02   5.644511707940e+01   1.053126716590e+02 
5 1  4.152326448045e+02   1.493494445822e+02   3.695987279910e+02 
6 1 -2.703593707571e+01  -4.937418904119e+02  -1.200512731962e+01 
7 1  2.183850524226e+01   1.757873444485e+01  -5.456372034907e+01 
8 1  1.350971632112e+02   1.305547163754e+02   1.223085072939e+02 
8
Step 35000
1 1 -2.447858901618e+01  -2.328787841978e+02   7.843371664904e+00 
2 1  1.771852119401e+02  -6.506634876140e+01  -2.876749215320e+02 
3 1  2.000559669692e+02  -3.130985189026e+02  -1.756977469889e+02 
4 1  9.420589148673e+01   1.284235134061e+02   2.036370501729e+02 
5 1  2.925579205379e+02   2.606647619225e+02   2.166267790691e+02 
6 1  1.606078478762e+02  -4.523745606549e+02   8.270822448694e+01 
7 1  6.460219963252e+01  -8.929927196202e+01  -1.176029230740e+01 
8 1  2.035186933799e+02   1.964815806579e+01   1.113400007115e+02 
8
Step 36000
1 1  1.830389708757e+02  -8.087061062251e+01  -2.760545822104e+01 
2 1  4.487833545730e+02  -1.088663953562e+02  -3.144002396355e+02 
3 1 -4.195643864803e+01  -2.238250381573e+02  -3.093278046489e+02 
4 1 -1.843850768748e+02   1.392753320282e+02   2.505894832527e+02 
5 1  4.357048192453e+01   2.220245393549e+02  -1.774028532913e+01 
6 1  2.594568491956e+02  -1.419026554333e+02   1.504835496699e+02 
7 1  9.258674054404e+01  -1.564457176012e+02  -1.061498446273e+01 
8 1  2.321407020495e+02  -1.041622108418e+02   6.255167639661e+01 
8
Step 37000
1 1  3.210668498059e+02   1.243021815671e+02  -3.347765609350e+01 
2 1  4.913927527380e+02  -5.344954462001e+01  -1.543644312007e+02 
3 1 -2.453732928981e+02  -5.773906922358e+01  -3.440947383968e+02 
4 1 -3.921838528789e+02   9.405601692163e+01   2.317725964574e+02 
5 1 -1.811495626974e+02   7.061262518008e+01  -1.840886691008e+02 
6 1  2.362840845090e+02   2.408263997709e+02   1.553145010168e+02 
7 1  1.270964423031e+02  -1.500058418760e+02  -4.559424321713e+01 
8 1  1.524182828567e+02  -2.220536263192e+02  -3.059680318194e+01 
8
Step 38000
1 1  3.384003519383e+02   2.967133263700e+02  -2.022386719354e+01 
2 1  2.530195187939e+02   8.976072787727e+01   8.779745969254e+01 
3 1 -2.904744197075e+02   7.578263297335e+01  -2.331839362820e+02 
4 1 -4.005533535675e+02   3.096550373115e+01   1.458082079833e+02 
5 1 -2.850064321942e+02  -1.114604747612e+02  -2.166633939092e+02 
6 1  1.218175088233e+02   5.142361271396e+02   8.905539790943e+01 
7 1  1.797395982881e+02  -5.730811593812e+01  -9.313839981931e+01 
8 1 -6.105079053637e+01  -2.781368262127e+02  -1.377856964076e+02 
8
Step 39000
1 1  2.131145225763e+02   3.318163058094e+02  -2.690107111773e+00 
2 1 -8.613053369770e+01   2.426093383305e+02   2.642054611461e+02 
3 1 -2.003659744563e+02   1.165638223011e+02  -5.414249500326e+01 
4 1 -2.250875453302e+02  -9.426797946620e+00   2.805047680022e+01 
5 1 -2.356612866034e+02  -2.255667770969e+02  -1.277905741018e+02 
6 1 -1.255516589655e+01   5.168688249738e+02  -2.022405097465e+01 
7 1  2.285897319519e+02   1.017696720219e+02  -1.178395687425e+02 
8 1 -3.097226561557e+02  -2.377493365224e+02  -1.940705222216e+02 
8
Step 40000
1 1  1.493657442419e+01   2.004962539442e+02   7.342465379377e+00 
2 1 -3.583995702124e+02   3.089632516482e+02   2.871353788664e+02 
3 1 -6.903393691882e+01   9.176789987592e+01   1.161754891777e+02 
4 1  2.438961072413e+01  -2.241574654763e+01  -9.467391815329e+01 
5 1 -1.013581926764e+02  -2.277515779511e+02  -4.684072375559e+00 
6 1 -8.093583289408e+01   3.073573115898e+02  -1.055107267597e+02 
7 1  2.312657521639e+02   2.794969881924e+02  -8.081881709978e+01 
8 1 -4.336542704361e+02  -1.212688191406e+02  -1.551030474232e+02 
8
Step 41000
1 1 -1.702052803428e+02  -4.721685488833e+01   1.177684815344e+01 
2 1 -4.012415492815e+02   2.133219034686e+02   1.430918747912e+02 
3 1  5.664034544240e+01   3.514687167389e+01   2.503415116736e+02 
4 1  2.561780308435e+02  -2.626867145436e+01  -2.104531366049e+02 
5 1  2.478679613312e+01  -1.469117027657e+02   7.490135795382e+01 
6 1 -7.970244445061e+01   7.555882428543e+01  -1.422552025343e+02 
7 1  1.449682541947e+02   3.960197265932e+02   4.956120635229e+01 
8 1 -3.521442093183e+02   7.362428331916e+00  -4.412402702568e+01 
8
Step 42000
1 1 -3.035188831524e+02  -3.716511887055e+02   1.852857300474e+01 
2 1 -2.570013484211e+02   2.696617165855e+01  -3.858068357486e+01 
3 1  1.394899015019e+02  -2.526086796907e+01   3.099009193930e+02 
4 1  3.604259667595e+02  -4.056685151212e+01  -2.783743408497e+02 
5 1  8.934245334470e+01  -2.777423687630e+01   8.246716708323e+01 
6 1 -4.779148187820e+01  -1.000670529974e+02  -1.379519735208e+02 
7 1 -4.614847128092e+01   3.526364605788e+02   2.582273914056e+02 
8 1 -1.316917773171e+02   1.010160511010e+02   7.347428127357e+01 
8
Step 43000
1 1 -2.797292540211e+02  -5.809417829671e+02   2.815682220592e+01 
2 1 -6.299182961621e+01  -1.626257285581e+02  -1.600713862296e+02 
3 1  1.478157560125e+02  -5.903489072415e+01   2.646525070086e+02 
4 1  2.776798474807e+02  -6.785281031176e+01  -2.554328315757e+02 
5 1  7.835817366125e+01   8.786454607229e+01   2.811347954189e+01 
6 1 -1.990481084589e+01  -2.022627924994e+02  -9.680256124449e+01 
7 1 -2.877813138831e+02   1.045342636071e+02   4.442651879218e+02 
8 1  1.298248910969e+02   1.577667504365e+02   1.542636757763e+02 
8
Step 44000
1 1 -7.839924240847e+01  -4.158862086542e+02   3.286518159007e+01 
2 1  1.065497299130e+02  -3.018856815469e+02  -1.803251242633e+02 
3 1  8.725467726712e+01  -5.071833859797e+01   1.366432860516e+02 
4 1  7.907672282798e+01  -9.607303790095e+01  -1.553049327712e+02 
5 1  1.126694649574e+01   1.648389302084e+02  -5.264325182691e+01 
6 1 -2.155809369287e+01  -2.292571027161e+02  -2.664179197051e+01 
7 1 -4.272122150530e+02  -2.465841853522e+02   4.340127726406e+02 
8 1  3.433986293889e+02   1.812090267376e+02   1.733040605232e+02 
8
Step 45000
1 1  1.131735168672e+02  -4.395825785532e+01   3.087145796673e+01 
2 1  1.917907698799e+02  -3.269482863426e+02  -8.583290686463e+01 
3 1 -6.732082021547e+00  -7.715715269296e+00  -2.209088923886e+01 
4 1 -1.291117253449e+02  -1.150976371315e+02  -1.720880038630e+01 
5 1 -7.278682977590e+01   1.810469081057e+02  -1.173789008924e+02 
6 1 -5.953107535130e+01  -1.989887317132e+02   5.599449666869e+01 
7 1 -3.249582908197e+02  -4.259723047434e+02   1.702205762521e+02 
8 1  4.001178241258e+02   1.640044831088e+02   1.229335843127e+02 
8
Step 46000
1 1  1.992363223236e+02   3.287157386277e+02   1.921716571184e+01 
2 1  1.730187399513e+02  -2.253982384169e+02   7.107329555802e+01 
3 1 -9.776621397791e+01   5.316097287496e+01  -1.685218020438e+02 
4 1 -2.670832908440e+02  -1.131364391751e+02   1.284983633205e+02 
5 1 -1.294106064768e+02   1.324320490293e+02  -1.325663873923e+02 
6 1 -1.170487153485e+02  -1.396470338913e+02   1.311979368046e+02 
7 1 -1.116419358623e+02  -3.472549449120e+02  -1.174331241286e+02 
8 1  2.708259078477e+02   1.151355142662e+02   4.552510907173e+01 
8
Step 47000
1 1  1.516211506571e+02   5.276089488668e+02  -7.859651170220e+00 
2 1  8.680460416292e+01  -4.927655816050e+01   2.078685227821e+02 
3 1 -1.509846231718e+02   1.102899695275e+02  -2.653802429260e+02 
4 1 -2.688544972624e+02  -7.608478867030e+01   2.397723222533e+02 
5 1 -1.208382766517e+02   3.221504102073e+01  -8.176417095952e+01 
6 1 -1.636747767015e+02  -7.333205502427e+01   1.818185404629e+02 
7 1  4.366948971725e+01  -1.964162919152e+02  -2.944028867768e+02 
8 1  5.938797343444e+01   5.871669492987e+01   1.290434399548e-01 
8
Step 48000
1 1  1.876181695484e+01   4.226972032128e+02  -4.220715741014e+01 
2 1 -1.944217523892e+01   1.390229450069e+02   2.585368114011e+02 
3 1 -1.348924244351e+02   1.342390404900e+02  -2.794461893520e+02 
4 1 -1.284217346678e+02  -3.386691664274e+00   2.737292508498e+02 
5 1 -1.607355076725e+01  -9.848999694858e+01   4.103429799321e+01 
6 1 -1.842385773214e+02  -1.092662049430e+01   2.140601375434e+02 
7 1  1.323617905194e+02  -5.370774996436e+01  -3.760013735101e+02 
8 1 -1.239078397144e+02   3.425000488038e+00   3.609568132504e+00 
8
Step 49000
1 1 -8.643855752676e+01   1.566465142698e+02  -6.938474015960e+01 
2 1 -1.021352001253e+02   2.747796836548e+02   1.863978275423e+02 
3 1 -4.441338523396e+01   9.958937108203e+01  -2.097626498339e+02 
4 1  7.740056049969e+01   9.199780776911e+01   2.284459689716e+02 
5 1  1.800025001557e+02  -2.028249513157e+02   2.032701073186e+02 
6 1 -1.786681272052e+02   6.632735766203e+01   2.595281661915e+02 
7 1  1.598723756811e+02   5.426678671063e+01  -3.502079417108e+02 
8 1 -2.102534727741e+02  -5.153024753873e+01   3.094045654708e+01 
8
Step 50000
1 1 -1.171403626615e+02  -9.622039516699e+01  -8.258900443073e+01 
2 1 -1.257926697196e+02   3.042301725170e+02   1.227210953094e+01 
3 1  1.045931887061e+02  -6.743838459769e+00  -8.062601801029e+01 
4 1  2.511338172219e+02   1.990722463276e+02   1.287102658529e+02 
5 1  3.330742307335e+02  -1.872016226504e+02   2.806816238062e+02 
6 1 -2.893740316272e+00   1.423738357402e+02   1.493686735567e+02 
7 1  1.356791556040e+02   9.987518596369e+01  -2.345819505689e+02 
8 1 -1.753926228055e+02  -1.000802296839e+02   3.351976509159e+01 
8
Step 51000
1 1 -7.503572984128e+01  -2.576851984049e+02  -7.103079291942e+01 
2 1 -8.489658204216e+01   2.230189191529e+02  -1.861399203084e+02 
3 1  2.702299063163e+02  -1.850593627767e+02   1.001602972380e+02 
4 1  3.170206388514e+02   2.879797786578e+02  -1.071984163928e+01 
5 1  3.040962635115e+02  -6.422545169967e+01   2.011886152038e+02 
6 1  2.762629639583e+02   1.656920332253e+02  -1.028992986808e+02 
7 1  8.549351384893e+01   8.976879245621e+01  -8.052095304164e+01 
8 1 -7.447806975021e+01  -1.355465098312e+02  -2.047069864517e+01 
8
Step 52000
1 1  1.326879423578e+01  -2.837018193046e+02  -2.776742571450e+01 
2 1 -4.522135823155e+00   7.224982649662e+01  -3.210207216597e+02 
3 1  2.933402006592e+02  -3.125192374286e+02   2.405816673303e+02 
4 1  2.345290132753e+02   2.951987904885e+02  -1.682185609151e+02 
5 1  1.095850558756e+02   6.152589517134e+01   2.833394045244e+01 
6 1  4.717039615471e+02   1.397324222525e+02  -3.264967404665e+02 
7 1  3.191822970296e+01   5.591512580147e+01   7.355958130584e+01 
8 1  1.164719242894e+01  -1.576523078104e+02  -1.134302050747e+02 
8
Step 53000
1 1  1.003825921065e+02  -1.854283504105e+02   3.566625524795e+01 
2 1  7.549681646424e+01  -8.801399065369e+01  -3.284122430063e+02 
3 1  1.379936984665e+02  -2.839557479331e+02   2.494354804626e+02 
4 1  2.345886110802e+01   1.783881239082e+02  -2.947785184241e+02 
5 1 -1.668089865836e+02   1.193762540033e+02  -1.518189051885e+02 
6 1  4.098190102634e+02   7.493744602619e+01  -3.578566737391e+02 
7 1 -9.336736960159e+00   3.076734412053e+01   2.083056335727e+02 
8 1  4.984759388349e+01  -1.540602723194e+02  -2.009721874700e+02 
8
Step 54000
1 1  1.467482548534e+02  -2.538539441209e+01   9.613330137130e+01 
2 1  1.182923039977e+02  -2.042432921596e+02  -1.977401149392e+02 
3 1 -7.523597186398e+01  -1.433144670048e+02   1.696028474891e+02 
4 1 -2.360998976506e+02  -4.821253346142e+01  -3.389499370373e+02 
5 1 -4.168987334616e+02   8.699182775381e+01  -2.596333065437e+02 