8
Step 0
1 1  2.209852147101e+02   1.917946593953e+02  -9.334268965389e+01 
2 1  1.979232080888e+02  -1.564652772805e+02  -4.641458788001e+02 
3 1 -4.351711220098e+02  -9.327801916746e+01  -3.317529098862e+02 
4 1  8.454897568221e+01  -1.752809095350e+02   3.407179572357e+02 
5 1  5.255368767338e+01  -2.703895849195e+02  -1.896002856781e+02 
6 1  2.041263311445e+02   2.026131762085e+02   1.984806110702e+01 
7 1  1.279070817130e+02  -1.018481030531e+02  -2.882420940451e+01 
8 1 -3.596383101039e+02   9.082767070276e+01  -2.498531758068e+02 
8
Step 1000
1 1  8.837417258319e+01   1.302239107184e+02   2.734630022333e+01 
2 1 -4.798231342424e+01   1.393245712275e+02  -2.265718358845e+02 
3 1 -2.238326982197e+02  -1.135430298495e+02  -2.303197883988e+02 
4 1 -2.955664490855e+01  -2.442196856421e+02   4.123420138643e+02 
5 1 -2.206971013906e+02  -4.465074050687e+02  -1.204768670329e+02 
6 1  7.658473765583e+01   2.304260954823e+02  -1.174112669935e+02 
7 1 -4.024621262688e+01  -6.640697231423e+01   1.819651003653e+02 
8 1 -4.549644497054e+02   1.254795925356e+02   3.349963227368e+01 
8
Step 2000
1 1 -5.710572786576e+01   6.586501313668e+00   1.299920688752e+02 
2 1 -2.523166545070e+02   3.248941333197e+02   5.651961998307e+01 
3 1  1.611253918108e+01  -8.405572649550e+01  -4.384470921597e+01 
4 1 -1.094149184083e+02  -1.826504371153e+02   3.173727403423e+02 
5 1 -3.337397982982e+02  -3.850169037685e+02   9.154804255039e+00 
6 1 -5.683190676418e+01   2.015701647554e+02  -2.019728551250e+02 
7 1 -2.456905953372e+02  -3.218603124395e+01   3.561489214757e+02 
8 1 -3.596756553639e+02   3.665336380149e+01   2.762469331790e+02 
8
Step 3000
1 1 -1.593888896521e+02  -1.650992668556e+02   1.819824871898e+02 
2 1 -2.923353944795e+02   2.973425191742e+02   2.500237915646e+02 
3 1  1.796247423663e+02  -2.439690118709e+01   1.359284634107e+02 
4 1 -1.204048198135e+02  -6.085495310113e+01   1.043090176779e+02 
5 1 -2.466952664608e+02  -1.663403778057e+02   1.031994876376e+02 
6 1 -1.592999117838e+02   1.243153163506e+02  -1.684137417605e+02 
7 1 -3.955732878768e+02   8.067125597543e+00   3.864609330141e+02 
8 1 -1.477558560973e+02  -8.870413116880e+01   3.406285558376e+02 
8
Step 4000
1 1 -1.776249748205e+02  -3.473904068229e+02   1.608833660719e+02 
2 1 -1.519412660791e+02   9.973695853676e+01   2.622458794255e+02 
3 1  2.317286475972e+02   5.083595535676e+01   2.509502206410e+02 
4 1 -8.512787295530e+01   4.717382451388e+01  -1.355314263859e+02 
5 1 -9.522564222144e+01   3.517942364165e+01   1.229917864523e+02 
6 1 -2.118680632091e+02   1.696285183933e+01  -1.389326890192e+01 
7 1 -3.619941083514e+02   5.342858276533e+01   2.200706838905e+02 
8 1  5.644934427394e+01  -1.520950658500e+02   2.480225177759e+02 
8
Step 5000
1 1 -9.284111436706e+01  -4.509093035873e+02   6.221900415546e+01 
2 1  2.971446939119e+01  -8.738300318474e+01   1.546158135205e+02 
3 1  1.761213481767e+02   1.196478819147e+02   2.592385393200e+02 
4 1 -3.174660252514e+01   1.079824246278e+02  -3.269648475687e+02 
5 1  2.624607629672e+01   1.667642105204e+02   8.615484976695e+01 
6 1 -2.248683785685e+02  -1.184416063034e+02   2.252524508762e+02 
7 1 -1.755671470787e+02   9.114930162499e+01  -8.420630797160e+00 
8 1  1.983002046465e+02  -1.270869807872e+02   9.553385369717e+01 
8
Step 6000
1 1  5.087010005902e+01  -3.873652211455e+02  -7.129932934967e+01 
2 1  1.473297196107e+02  -1.663553499746e+02   3.172978884218e+01 
3 1  6.285482447649e+01   1.590097277627e+02   1.674068414851e+02 
4 1  1.338112213802e+01   1.032550115116e+02  -3.756947834651e+02 
5 1  8.052804844856e+01   2.199620862034e+02   6.991014624168e+00 
6 1 -1.915932886028e+02  -2.804875422332e+02   4.936425024564e+02 
7 1  2.795996730023e+01   1.135230260677e+02  -1.563404831188e+02 
8 1  2.756024419428e+02  -3.213621634059e+01  -5.628199500701e+01 
8
Step 7000
1 1  1.757042723159e+02  -1.656238839268e+02  -1.830692539119e+02 
2 1  1.759351179647e+02  -1.365352702797e+02  -5.604952363163e+01 
3 1 -4.934152322783e+01   1.617424349734e+02   1.889260313568e+01 
4 1  2.800103136013e+01   4.917451729632e+01  -2.518899471829e+02 
5 1  5.443204594456e+01   1.860538237555e+02  -9.084694290489e+01 
6 1 -6.637371969954e+01  -3.519460263349e+02   5.467710260049e+02 
7 1  1.723914638391e+02   1.181278253146e+02  -2.013611936489e+02 
8 1  2.778841126698e+02   9.560430458203e+01  -1.676259141360e+02 
8
Step 8000
1 1  2.461626278635e+02   1.692927000875e+02  -2.598886401513e+02 
2 1  1.260938241134e+02  -3.680473963728e+01  -9.292699075401e+01 
3 1 -1.288256282903e+02   1.210759786403e+02  -1.570008162880e+02 
4 1  2.171196423603e+01  -1.276672011293e+00  -8.365091145034e+01 
5 1 -2.693112896795e+01   7.933161973575e+01  -1.665624258468e+02 
6 1  8.011901528092e+01  -2.448675618669e+02   2.596280077881e+02 
7 1  2.453028352470e+02   1.021586103728e+02  -1.809635208088e+02 
8 1  1.976922931575e+02   1.981356759739e+02  -1.990838602161e+02 
8
Step 9000
1 1  2.197186509592e+02   5.658671697217e+02  -2.700242754719e+02 
2 1  2.299558520663e+01   7.828340254083e+01  -7.700844656870e+01 
3 1 -1.455906326104e+02   1.582880871276e+01  -3.209424627031e+02 
4 1  1.921857763506e+01  -3.006013229408e+01   4.830500825579e+01 
5 1 -1.030937586030e+02  -5.966653272863e+01  -1.784808086124e+02 
6 1  1.593669172394e+02  -7.222396448622e+01  -1.232536124534e+02 
7 1  2.523033263774e+02   6.055989452325e+01  -1.332145862737e+02 
8 1  6.233516639315e+01   2.222504889821e+02  -1.406897985166e+02 
8
Step 10000
1 1  3.306808749767e+01   6.817571797298e+02  -1.196455674766e+02 
2 1 -9.429691906401e+01   1.461242165623e+02  -1.483590519217e+01 
3 1 -6.893263704382e+01  -1.432145855011e+02  -3.734193704736e+02 
4 1  3.213368709479e+01  -4.438427067735e+01   1.488695852477e+02 
5 1 -1.023639592287e+02  -1.754970198975e+02  -1.010568713597e+02 
6 1  1.618793785110e+02   8.629151448968e+01  -4.167404094054e+02 
7 1  1.952617064847e+02  -1.100694108697e+01  -8.064067835856e+01 
8 1 -8.106841837246e+01   1.531503209104e+02  -2.445897836779e+01 
8
Step 11000
1 1 -1.598786435565e+02   3.847540195652e+02   8.060300032815e+01 
2 1 -1.721190646725e+02   1.143702844245e+02   7.184809690717e+01 
3 1  6.886033979079e+01  -2.774456658990e+02  -2.486476575605e+02 
4 1  6.016100429100e+01  -4.819000119038e+01   2.050072929380e+02 
5 1  9.551632132502e+00  -2.176276299054e+02   5.420505483362e+01 
6 1  9.542927387946e+01   1.641871754363e+02  -4.441047126978e+02 
7 1  8.505209175511e+01  -1.045271189092e+02  -3.635526443339e+01 
8 1 -1.951174271354e+02   1.045760050154e+01   1.008736441422e+02 
8
Step 12000
1 1 -2.332881850803e+02   1.842910791403e+01   1.941967633915e+02 
2 1 -1.660367584233e+02  -2.006640578136e+01   1.457903015187e+02 
3 1  1.821970374237e+02  -3.106278703001e+02  -6.242312832366e+00 
4 1  8.784923226683e+01  -4.465483813815e+01   1.987706569106e+02 
5 1  1.929122334534e+02  -1.648279022004e+02   2.297525940720e+02 
6 1  3.024877124331e+01   1.411950000450e+02  -2.416297446865e+02 
7 1 -5.052407917936e+01  -1.956519769336e+02  -3.699404548639e+00 
8 1 -2.502997930043e+02  -1.627285385546e+02   1.839423319615e+02 
8
Step 13000
1 1 -1.979409621435e+02  -2.348859848768e+02   2.190340518943e+02 
2 1 -6.940894529508e+01  -1.956514870178e+02   1.682277593960e+02 
3 1  2.007756505678e+02  -2.184120369985e+02   2.338851053636e+02 
4 1  8.755291872654e+01  -3.419772181094e+01   1.320086207022e+02 
5 1  3.412565868791e+02  -3.103301957303e+01   3.298646865093e+02 
6 1  2.147413820661e+01   1.182148350573e+02  -7.690254861767e+01 
7 1 -1.713482534207e+02  -2.454835440749e+02   2.570909907998e+01 
8 1 -2.205834422531e+02  -2.899894091239e+02   1.746900543972e+02 
8
Step 14000
1 1 -9.417921720984e+01  -3.237845982548e+02   1.820388607451e+02 
2 1  8.146474651652e+01  -3.082728831277e+02   1.125442525119e+02 
3 1  1.064106741293e+02  -3.180335036320e+01   3.619523310632e+02 
4 1  3.398515501717e+01  -9.720431013139e+00   2.524772279709e+01 
5 1  3.255333282966e+02   1.138548689647e+02   2.677482770138e+02 
6 1  5.122292267076e+01   1.170985408693e+02   2.726842150180e+01 
7 1 -2.293049704492e+02  -2.114602543616e+02   6.619647516867e+01 
8 1 -1.159113801806e+02  -2.954794252085e+02   6.475878350913e+01 
8
Step 15000
1 1  1.715803298657e+01  -2.706722236638e+02   1.216751163829e+02 
2 1  2.122120892378e+02  -2.587504108274e+02  -1.689310902264e+01 
3 1 -5.309391671928e+01   1.709603838448e+02   3.325769172490e+02 
4 1 -7.879294975195e+01   3.974694754615e+01  -9.582134830636e+01 
5 1  1.347833069809e+02   1.843391224539e+02   7.889617315422e+01 
6 1  8.728319137911e+01   1.200169719193e+02   8.264946282667e+01 
7 1 -1.971306408079e+02  -8.009954873130e+01   1.249019713183e+02 
8 1  1.294111658732e+01  -1.760792233893e+02  -9.225708209469e+01 
8
Step 16000
1 1  8.827630081101e+01  -1.509732043589e+02   6.698090143048e+01 
2 1  2.494684398724e+02  -3.303620877750e+01  -1.737356464504e+02 
3 1 -1.894337419535e+02   3.017505597804e+02   1.842276699797e+02 
4 1 -2.216958755680e+02   1.141274614743e+02  -1.999273200240e+02 
5 1 -1.371122989915e+02   1.633315534547e+02  -1.316091527535e+02 
6 1  8.963024993815e+01   1.128444395548e+02   9.184354082625e+01 
7 1 -8.908141074684e+01   1.229332899428e+02   1.926776301374e+02 
8 1  1.266730101449e+02   2.059217795257e+01  -2.321720032504e+02 
8
Step 17000
1 1  1.018026353247e+02  -3.463208148368e+01   2.108818100194e+01 
2 1  1.656131321798e+02   2.789550114631e+02  -2.925788790725e+02 
3 1 -2.200205467202e+02   3.004215365125e+02   1.211589552245e+01 
4 1 -3.059391514229e+02   1.782929433958e+02  -2.346791748097e+02 
5 1 -3.865625704587e+02   7.286908888820e+01  -2.792989700734e+02 
6 1  3.048150084205e+01   8.456643692609e+01   7.057681059020e+01 
7 1  5.910026924794e+01   3.438115635392e+02   2.375500042481e+02 
8 1  2.083564934730e+02   2.404380826735e+02  -2.970224327404e+02 
8
Step 18000
1 1  6.477498340450e+01   3.724630618333e+01  -2.825523489974e+01 
2 1 -1.304218022485e+01   4.917452221643e+02  -2.927618086069e+02 
3 1 -1.283739405330e+02   1.779298461133e+02  -8.778619153368e+01 
4 1 -2.369707302061e+02   1.739473892980e+02  -1.691719559610e+02 
5 1 -4.521746177861e+02  -3.621084459144e+01  -2.733997140726e+02 
6 1 -9.042915225748e+01   2.428761100874e+01   4.188445007764e+01 
7 1  1.789494042220e+02   4.611939141151e+02   1.954908824081e+02 
8 1  2.351904054839e+02   3.973831664144e+02  -2.188604512283e+02 
8
Step 19000
1 1  5.258666766219e-01   5.493520209732e+01  -9.074894239428e+01 
2 1 -1.702086763736e+02   4.086270103420e+02  -1.452226464668e+02 
3 1  1.728325363346e+01   1.428452737990e+01  -9.273603794872e+01 
4 1 -3.024311033421e+01   8.407414293874e+01  -4.589259212951e+01 
5 1 -2.663380574457e+02  -7.884617062203e+01  -1.242404179349e+02 
6 1 -2.463856443900e+02  -7.715364379818e+01   2.335660822100e+01 
7 1  1.844037082375e+02   3.600964337286e+02   4.275037724228e+01 
8 1  1.943678676349e+02   3.986993071928e+02   1.765493307073e+01 
8
Step 20000
1 1 -6.170050142299e+01   3.352600235192e+01  -1.606766534015e+02 
2 1 -2.014019083610e+02   1.062460666634e+02   3.877345332078e+01 
3 1  1.294946522827e+02  -1.100330944456e+02  -5.127548382738e+01 
4 1  2.396063981582e+02  -7.243220542716e+01   8.286342933008e+01 
5 1 -2.784208541250e+01  -4.653467524799e+01   1.175070949399e+01 
6 1 -3.635764794016e+02  -2.080194759544e+02   2.115089313139e+01 
7 1  8.343718683384e+01   1.069170383282e+02  -1.494839790777e+02 
8 1  1.161962053730e+02   2.552279161567e+02   3.545173395364e+02 
8
Step 21000
1 1 -9.373914653349e+01   1.919006697377e+00  -2.102798412299e+02 
2 1 -1.355565439283e+02  -2.005352591994e+02   1.668142686735e+02 
3 1  1.579752946264e+02  -1.564506165300e+02  -2.624825762947e+01 
4 1  4.660102296491e+02  -2.509771101284e+02   1.775505473774e+02 
5 1  1.484778096243e+02   1.031095493286e+01   7.675777845724e+01 
6 1 -3.271730275219e+02  -3.048650503684e+02   2.759350278282e+01 
7 1 -5.540476669214e+01  -1.764699508263e+02  -3.092757194020e+02 
8 1  9.035985238523e+00  -1.162428139962e+01   7.312582594878e+02 
8
Step 22000
1 1 -7.748116859590e+01  -9.030206773626e+00  -1.975737614348e+02 
2 1 -3.199007579821e+01  -4.004017211694e+02   2.304545017063e+02 
3 1  1.099475669893e+02  -1.350659600822e+02  -4.896495117534e+01 
4 1  4.549257894265e+02  -3.230077724353e+02   1.768215584186e+02 
5 1  2.719896144296e+02   7.018386911535e+01   8.936124396709e+01 
6 1 -1.218311912567e+02  -3.017881973891e+02   2.588372001178e+01 
7 1 -1.534172952795e+02  -3.665603775331e+02  -3.524524468959e+02 
8 1 -1.141996240726e+02  -3.064211683258e+02   6.954239612181e+02 
8
Step 23000
1 1 -1.948791883119e+01   1.595258750124e+01  -9.885207765755e+01 
2 1  6.129303611228e+01  -4.252731429867e+02   2.327885841736e+02 
3 1  2.599136711573e+01  -7.855566336355e+01  -1.069353217698e+02 
4 1  2.050558235655e+02  -2.270678143878e+02   9.419448625837e+01 
5 1  2.951490300518e+02   9.964159385564e+01   5.648248259704e+01 
6 1  1.512976064155e+02  -1.961472800952e+02   6.175934040271e+00 
7 1 -1.253118339031e+02  -3.183964422821e+02  -2.135355998240e+02 
8 1 -1.578287717295e+02  -3.522990247027e+02   1.588931028101e+02 
8
Step 24000
1 1  5.136659104910e+01   6.458304730821e+01   6.851395159734e+01 
2 1  1.047550194012e+02  -2.751048722942e+02   1.895672756868e+02 
3 1 -5.666318441678e+01  -1.320350727293e+01  -1.651488402716e+02 
4 1 -7.706900056249e+01  -6.158707696162e+01   1.366205949374e+01 
5 1  1.996013602631e+02   6.399366362088e+01   9.531233254141e+00 
6 1  3.877039851508e+02  -1.020320293657e+01  -2.941199425637e+01 
7 1 -2.669473823609e+01  -1.618226264523e+02  -4.691534937191e+01 
8 1 -1.452023711907e+02  -2.302384429557e+02  -3.353158152946e+02 
8
Step 25000
1 1  1.008391871233e+02   1.021411323474e+02   2.464260576418e+02 
2 1  8.958269857746e+01  -1.150271050484e+01   1.132070442406e+02 
3 1 -1.078094047823e+02   3.948578077853e+01  -1.826196895280e+02 
4 1 -2.859705229571e+02   1.058507933421e+02  -3.035238325558e+01 
5 1  3.283871746992e+01  -3.838806426472e+01  -1.133529500088e+01 
6 1  4.713563517056e+02   2.047234970417e+02  -6.511629219418e+01 
7 1  7.534488446384e+01  -3.344245094917e+01   6.944900917649e+01 
8 1 -1.170800938595e+02  -7.493533824062e+01  -5.688809151119e+02 
8
Step 26000
1 1  1.051678101784e+02   9.046727681575e+01   3.456629082279e+02 
2 1  3.008536356637e+01   2.881911348882e+02  -9.050045801952e-01 
3 1 -1.061140804175e+02   6.089023026822e+01  -1.273327481530e+02 
4 1 -3.574156908061e+02   2.263242952936e+02  -3.597041289856e+01 
5 1 -1.426210549494e+02  -1.796614914624e+02   1.339160594950e+01 
6 1  3.412107551355e+02   3.410013117536e+02  -7.743318753693e+01 
7 1  1.646918148424e+02   6.621802023963e+01   1.534122294231e+02 
8 1 -8.913288510044e+01   2.993551907791e+01  -5.314717027708e+02 
8
Step 27000
1 1  6.915630662245e+01   1.905542733466e+01   2.994185970424e+02 
2 1 -4.317077019744e+01   4.932900320256e+02  -1.418711824674e+02 
3 1 -5.078160809940e+01   4.395750773394e+01   4.911319510347e+00 
4 1 -2.669410282534e+02   2.471048027857e+02  -1.955402776873e+01 
5 1 -2.610916914817e+02  -2.970851768101e+02   7.340988647440e+01 
6 1  1.064665297816e+02   3.453327795178e+02  -6.313547123181e+01 
7 1  2.069928603340e+02   1.220734685090e+02   1.996903808751e+02 
8 1 -6.441358977670e+01   5.993727880122e+01  -3.528021950569e+02 
8
Step 28000
1 1  2.552070449914e+01  -8.530274839454e+01   1.189744225551e+02 
2 1 -7.972549651865e+01   4.405112543037e+02  -2.411882076111e+02 
3 1  3.703620195720e+01  -3.341840386879e+00   1.868982855795e+02 
4 1 -9.655413832653e+01   1.765570878393e+02  -9.705605237945e+00 
5 1 -2.557489637092e+02  -2.941245645332e+02   1.214687787455e+02 
6 1 -1.028679443858e+02   2.564709496114e+02  -3.627463910177e+01 
7 1  1.705457542435e+02   1.166220785980e+02   1.979093435596e+02 
8 1 -3.083249592578e+01   3.638225160957e+01  -1.264527020540e+02 
8
Step 29000
1 1  3.637448198679e+00  -1.813465819688e+02  -1.394479103810e+02 
2 1 -5.879097296754e+01   1.786241758636e+02  -2.443325708983e+02 
3 1  1.160884167344e+02  -5.828748730486e+01   3.514998217604e+02 
4 1  5.746163660567e+01   6.110367589338e+01  -2.273871635808e+01 
5 1 -1.355595086935e+02  -1.387077972925e+02   1.044559386208e+02 
6 1 -2.375402211868e+02   1.140948290430e+02  -6.507509067449e+00 
7 1  5.734942324020e+01   6.104087963885e+01   1.506773569948e+02 
8 1  2.097933959900e+01  -7.900674931762e+00   8.399085094158e+01 
8
Step 30000
1 1  6.563207258428e+00  -2.139619008808e+02  -3.927633799029e+02 
2 1 -1.120970635429e+01  -1.158314334280e+02  -1.725891732898e+02 
3 1  1.310942198180e+02  -8.308810024764e+01   3.929588377626e+02 
4 1  1.480194590440e+02  -6.726590102464e+01  -5.538822034731e+01 
5 1  2.190632376882e+01   1.107788796020e+02   9.560825068332e+00 
6 1 -2.823708629457e+02  -4.977483216366e+01   2.030673839544e+01 
7 1 -1.025924400536e+02  -1.228724604758e+01   6.969787019970e+01 
8 1  8.822139931469e+01  -4.040361668121e+01   2.314291920065e+02 
8
Step 31000
1 1  9.344878772327e+00  -1.246144779960e+02  -4.798802125104e+02 
2 1  3.056859114296e+01  -3.479832373553e+02  -4.556820655003e+01 
3 1  6.474849583501e+01  -5.621643821765e+01   2.691466710941e+02 
4 1  1.565479346581e+02  -1.796490630646e+02  -8.829479663634e+01 
5 1  1.601189734699e+02   3.894759774530e+02  -1.498302569626e+02 
6 1 -2.411347016924e+02  -1.921644292179e+02   3.893709797966e+01 
7 1 -2.710153045475e+02  -7.386599194645e+01  -3.491605306967e+01 
8 1  1.467078668849e+02  -3.563113870925e+01   2.782622317530e+02 
8
Step 32000
1 1 -2.128313543863e+01   5.307034446011e+01  -3.083710963153e+02 
2 1  4.053730134911e+01  -4.330606188311e+02   1.086686339346e+02 
3 1 -4.403083125221e+01   5.956209835208e+00   4.310463915484e+01 
4 1  9.272417111469e+01  -2.401413071097e+02  -9.408550250263e+01 
5 1  2.136134826345e+02   5.419124758484e+02  -2.953808116656e+02 
6 1 -1.416388069316e+02  -2.707778279720e+02   4.665535816811e+01 
7 1 -3.881149758104e+02  -1.007189490342e+02  -1.464049686846e+02 
8 1  1.622701867975e+02   1.223474813238e+01   2.180420421018e+02 
8
Step 33000
1 1 -9.382497763343e+01   2.165521139607e+02   1.278294699100e+01 
2 1  1.174061219573e+01  -3.319533234256e+02   2.264334611377e+02 
3 1 -1.474708217037e+02   7.818082766439e+01  -2.135720908419e+02 
4 1  4.957367957508e-01  -2.238117770464e+02  -5.537348299445e+01 
5 1  1.327536321978e+02   3.744000053900e+02  -2.724070166204e+02 
6 1 -2.678501832653e+01  -2.679362226508e+02   4.445836421045e+01 
7 1 -3.686999305293e+02  -7.828479085653e+01  -2.233651192978e+02 
8 1  1.203850687916e+02   8.576074300927e+01   8.938262585296e+01 
8
Step 34000
1 1 -1.835296148223e+02   2.861441711758e+02   3.406620751654e+02 
2 1 -3.260843877975e+01  -1.223851277722e+02   2.656703747991e+02 
3 1 -1.895985174051e+02   1.313103374143e+02  -4.151967537218e+02 
4 1 -7.072545733689e+01  -1.344326196348e+02   2.623915761190e+01 
5 1  1.720796097008e+01   4.562465328575e+01  -1.016107666848e+02 
6 1  6.764599661895e+01  -2.020078384461e+02   3.539119788941e+01 
7 1 -1.896706580835e+02  -1.932097569498e+01  -2.312630604463e+02 
8 1  2.916653427322e+01   1.607389882322e+02  -6.020942239373e+01 
8
Step 35000
1 1 -2.110576055029e+02   1.894757910139e+02   4.789542365985e+02 
2 1 -6.234154074862e+01   9.785107008533e+01   2.240436321315e+02 
3 1 -1.212360530115e+02   1.308052560562e+02  -4.388168040836e+02 
4 1 -1.002419263867e+02   2.932963221285e+01   1.527020668134e+02 
5 1 -4.217396391037e+01  -2.237059081715e+02   9.821578558579e+01 
6 1  1.308200337197e+02  -1.101112962063e+02   2.328911365177e+01 
7 1  9.142945222389e+01   4.820993811925e+01  -1.867256387738e+02 
8 1 -9.432744678761e+01   2.093507019015e+02  -1.959384859693e+02 
8
Step 36000
1 1 -1.204922374798e+02  -1.270716358648e+01   3.098401729464e+02 
2 1 -5.153106009042e+01   2.614300705640e+02   1.023623447985e+02 
3 1  1.964274431807e+01   8.191978961093e+01  -2.813945829142e+02 
4 1 -6.360597395714e+01   2.837959130172e+02   2.997484826741e+02 
5 1 -3.499761946821e+01  -3.310175622487e+02   2.360622438470e+02 
6 1  1.719612189780e+02  -1.289346039400e+01   1.141472531773e+01 
7 1  4.490328322618e+02   1.124757385967e+02  -1.106729379369e+02 
8 1 -2.055082126345e+02   1.823325421266e+02  -2.645615883915e+02 
8
Step 37000
1 1  1.328747077157e+01  -1.578526031033e+02   4.462393822795e+01 
2 1  1.284390335533e+01   3.134278526557e+02  -8.174225476787e+01 
3 1  1.508855955890e+02   1.955653141145e+01  -6.411650396063e+01 
4 1  4.361013930200e+01   4.754961885958e+02   3.191413782246e+02 
5 1  2.413943191743e+00  -2.549480553901e+02   2.418431527595e+02 
6 1  2.007505000989e+02   9.660579077920e+01  -1.417844510110e+00 
7 1  7.099106358858e+02   1.336364828581e+02   1.455618869143e+01 
8 1 -2.277984058869e+02   4.859968115778e+01  -2.108372601604e+02 
8
Step 38000
1 1  1.401212879171e+02  -2.073514095346e+02  -1.664221829084e+02 
2 1  1.040412314715e+02   2.355375629461e+02  -2.685031061772e+02 
3 1  2.211693728722e+02  -3.811637690574e+01   1.248446947319e+02 
4 1  1.282084871361e+02   4.077662082405e+02   1.417088626340e+02 
5 1  2.167422558342e+01  -1.137275663797e+02   1.579956432530e+02 
6 1  2.088557290048e+02   2.330997712022e+02  -2.173347750939e+01 
7 1  5.209145053517e+02   6.577435032001e+01   1.251007145495e+02 
8 1 -1.397138770056e+02  -1.463000264012e+02  -6.442438489433e+01 
8
Step 39000
1 1  2.329920850833e+02  -1.551156775946e+02  -2.765765239601e+02 
2 1  1.592981463367e+02   7.057658492334e+01  -3.746691679058e+02 
3 1  2.045878415575e+02  -8.717324293339e+01   2.378704583357e+02 
4 1  1.266595232467e+02   1.503292006448e+02  -1.017123171582e+02 
5 1  7.226768864982e+00  -3.976564587635e-01   5.206031486991e+01 
6 1  1.565735635142e+02   3.643479891288e+02  -5.373141845534e+01 
7 1  1.142264530377e+02  -1.669181408823e+01   1.614967894875e+02 
8 1  1.107755732056e+01  -3.235622254082e+02   9.470329025944e+01 
8
Step 40000
1 1  2.483471678510e+02  -2.330104480853e+01  -2.494908364853e+02 
2 1  1.280318705614e+02  -9.179171992767e+01  -3.409734973897e+02 
3 1  1.073834607837e+02  -1.257773579252e+02   2.521827283932e+02 
4 1  5.310044417619e+01  -1.547586090065e+02  -2.962651531648e+02 
5 1 -3.666626696203e+01   6.460749668844e+01  -5.421161159208e+01 
6 1  2.417559723148e+01   3.922736554355e+02  -8.560726342888e+01 
7 1 -2.382640665363e+02  -6.047733712658e+01   1.598139205227e+02 
8 1  1.431948086573e+02  -3.877581702116e+02   1.846063287351e+02 
8
Step 41000
1 1  1.757265624602e+02   1.168317095165e+02  -1.126581143811e+02 
2 1  1.774959793576e+01  -1.761471490037e+02  -1.818048744998e+02 
3 1 -2.669303886294e+01  -1.475798806089e+02   1.883661304013e+02 
4 1 -5.541227088951e+01  -3.859766885383e+02  -3.566951004389e+02 
5 1 -9.063556474913e+01   7.183354196654e+01  -1.365505526658e+02 
6 1 -1.345205664979e+02   2.762631349944e+02  -9.733192921037e+01 
7 1 -4.324963924759e+02  -5.201925343935e+01   1.388078206501e+02 
8 1  1.776144795068e+02  -2.871602589085e+02   1.605761885704e+02 
8
Step 42000
1 1  4.005478545350e+01   1.940603216156e+02   6.581988353614e+01 
2 1 -1.180278315271e+02  -1.700948868965e+02   4.035008712907e+01 
3 1 -1.461497486410e+02  -1.418838359937e+02   9.514178737843e+01 
4 1 -1.267766192787e+02  -4.009648344690e+02  -2.333186891833e+02 
5 1 -1.223445743229e+02   2.759160824459e+01  -1.663469491552e+02 
6 1 -2.542552071871e+02   6.471440732221e+01  -7.602212481925e+01 
7 1 -4.078433225571e+02  -1.195420731385e-02   1.032412071060e+02 
8 1  1.172824349245e+02  -8.805519316010e+01   6.683173976029e+01 
8
Step 43000
1 1 -1.198438250024e+02   1.586937670732e+02   2.166173222600e+02 
2 1 -2.149416319825e+02  -9.747492616935e+01   2.649792861063e+02 
3 1 -2.155355618729e+02  -9.856037285513e+01   1.084759349854e+01 
4 1 -1.183924331077e+02  -2.333499291527e+02  -4.057458836371e+01 
5 1 -1.045032706201e+02  -3.668491638550e+01  -1.333665172700e+02 
6 1 -2.947308498756e+02  -1.748140269836e+02  -1.503486008228e+01 
7 1 -2.417290227495e+02   5.924698224001e+01   6.945359655501e+01 
8 1  1.818542536972e+01   1.222747522151e+02  -2.429056476180e+01 
8
Step 44000
1 1 -2.420611494749e+02   5.992391444565e+00   2.736902360674e+02 
2 1 -2.091397154623e+02   1.116022386277e+00   4.107672840728e+02 
3 1 -2.184311822348e+02  -1.421680238757e+01  -4.776792722667e+01 
4 1 -6.479014635274e+01  -3.869924788137e+01   9.430117945212e+01 
5 1 -3.081443528722e+01  -7.683859585315e+01  -5.422630755696e+01 
6 1 -2.339573893319e+02  -3.636291403999e+02   7.742687950009e+01 
7 1 -5.381969082838e+01   8.730783154230e+01   4.842107966019e+01 
8 1 -6.797068706620e+01   2.874219847758e+02  -6.297210873704e+01 
8
Step 45000
1 1 -2.581894600620e+02  -1.846587936039e+02   2.023352799161e+02 
2 1 -8.801988198337e+01   6.559845643568e+01   3.911241606204e+02 
3 1 -1.588490246247e+02   1.045164810645e+02  -8.312111017405e+01 
4 1 -1.181171793693e+00   1.090233928773e+02   1.411511761986e+02 
5 1  8.406788957118e+01  -5.453485352954e+01   3.979782223475e+01 
6 1 -9.199992081324e+01  -4.196466321096e+02   1.619104473879e+02 
7 1  8.311579061822e+01   5.570214813282e+01   3.045608333679e+01 
8 1 -9.573247867166e+01   3.546468906451e+02  -2.798580214317e+01 
8
Step 46000
1 1 -1.557063284983e+02  -2.904108449807e+02   3.829855399658e+01 
2 1  6.737182656505e+01   6.113437233029e+01   2.168321129817e+02 
3 1 -4.842970784943e+01   2.422471515961e+02  -1.086468908635e+02 
4 1  5.110175866629e+01   1.784110239952e+02   1.043889781172e+02 
5 1  2.037120560486e+02   4.794271606357e+01   1.147986521328e+02 
6 1  5.589767044849e+01  -3.305606243238e+02   1.896332744414e+02 
7 1  1.408035577739e+02  -3.673426292914e+01  -7.940231223595e+00 
8 1 -4.919821519124e+01   3.009339340700e+02   5.528597153815e+01 
8
Step 47000
1 1  4.897677974673e+00  -2.409891847442e+02  -1.338679818702e+02 
2 1  1.521074569683e+02   1.152138896233e+01   2.377558594018e-01 
3 1  9.991510714760e+01   3.547832950099e+02  -1.311148961170e+02 
4 1  7.530764736862e+01   1.579444242767e+02   1.839039062091e+01 
5 1  2.594424987543e+02   1.995201463885e+02   1.360802249325e+02 
6 1  1.423163957565e+02  -1.693821129638e+02   1.480118701147e+02 
7 1  1.229019939224e+02  -1.552743787060e+02  -7.963003119017e+01 
8 1  3.726191249470e+01   1.653054489168e+02   1.296100234929e+02 
8
Step 48000
1 1  1.391856662833e+02  -5.866214090811e+01  -2.400474626050e+02 
2 1  1.423668068813e+02  -2.937004800309e+01  -1.341820198763e+02 
3 1  2.331699600374e+02   3.436839599446e+02  -1.364555049979e+02 
4 1  6.724462449977e+01   6.805617605755e+01  -6.044353021648e+01 
5 1  1.841183537298e+02   3.011915352208e+02   8.931986785638e+01 
6 1  1.532073821414e+02  -7.185637205947e+00   5.759109116418e+01 
7 1  5.202282783322e+01  -2.427281434217e+02  -1.705148191491e+02 
8 1  1.161520603691e+02  -1.072117824290e-01   1.529224970995e+02 
8
Step 49000
1 1  1.839343897635e+02   1.639106318730e+02  -2.409137752183e+02 
2 1  9.551113424959e+01  -4.136633349198e+01  -1.898481988632e+02 
3 1  2.740613089372e+02   1.616250557282e+02  -1.107194684415e+02 
4 1  3.782111430914e+01  -4.916375692918e+01  -8.406661530886e+01 
5 1 -8.484980201612e+00   2.541653667919e+02   1.128737506629e+01 
6 1  1.042933793424e+02   1.274614151505e+02  -4.987202518786e+01 
7 1 -3.020088849376e+01  -2.361354800545e+02  -2.360742689312e+02 
8 1  1.586630031842e+02  -1.780518307689e+02   1.136490898357e+02 
8
Step 50000
1 1  1.239446341975e+02   3.035320213551e+02  -1.406489055960e+02 
2 1  2.997495990705e+01  -2.597296077881e+01  -1.996114006634e+02 
3 1  2.151311867477e+02  -1.174673137893e+02  -5.818826878592e+01 
4 1  5.865784035333e+00  -1.416655011072e+02  -3.113534234647e+01 
5 1 -2.344793882449e+02   3.605372629464e+01  -4.029157720398e+01 
6 1  1.969322833935e+01   2.253626284147e+02  -1.361598175551e+02 
7 1 -7.083485434848e+01  -1.126146800830e+02  -2.237527164750e+02 
8 1  1.360990892989e+02  -3.587144165566e+02   3.105509626170e+00 
8
Step 51000
1 1  1.096185399373e+01   2.844949496283e+02   6.079754386040e-01 
2 1 -4.461386091652e+01   1.103781291806e+01  -1.725847631523e+02 
3 1  9.387407802865e+01  -3.921782577042e+02   1.920522958178e+01 
4 1 -9.023095202541e+00  -1.570001377666e+02   8.118639201813e+01 
5 1 -3.887089111055e+02  -2.984134476240e+02  -3.430067943978e+01 
6 1 -5.937569275914e+01   2.747911854743e+02  -1.725572925510e+02 
7 1 -4.230527201687e+01   8.230865404158e+01  -1.180158691319e+02 
8 1  1.523902378089e+01  -4.331506298588e+02  -1.593788066577e+02 
8
Step 52000
1 1 -7.486707234278e+01   1.406336154946e+02   1.097222511983e+02 
2 1 -1.050929055604e+02   5.298323349439e+01  -1.249498484583e+02 
3 1 -4.164185629403e+01  -5.285366220500e+02   1.133233989311e+02 
4 1  2.422633399139e+00  -6.733485949220e+01   1.943746990805e+02 
5 1 -3.311576564854e+02  -5.456661922821e+02   2.043943226645e+01 
6 1 -8.390030415763e+01   2.644919766532e+02  -1.554922329924e+02 
7 1  4.107024630038e+01   2.697108621076e+02   5.538505317281e+01 
8 1 -1.433791417565e+02  -3.050546101230e+02  -2.710089876408e+02 
8
Step 53000
1 1 -8.714765976419e+01  -4.191311141783e+01   1.549132141848e+02 
2 1 -1.279742003117e+02   7.960760639325e+01  -7.536964032977e+01 
3 1 -1.266427431606e+02  -4.226308759413e+02   1.846250873910e+02 
4 1  2.771746005301e+01   1.011449951972e+02   2.328898060197e+02 
5 1 -7.095113341914e+01  -4.667680754897e+02   6.352393502590e+01 
6 1 -3.069718096337e+01   1.994664960127e+02  -1.047860905368e+02 
7 1  1.251758205549e+02   3.451187380673e+02   2.245627386710e+02 
8 1 -2.354879568583e+02  -5.979300107784e+01  -2.665161248469e+02 
8
Step 54000
1 1 -2.419605630786e+01  -1.865670882333e+02   1.381862333173e+02 
2 1 -1.005276652817e+02   7.785824605857e+01  -3.300692642845e+01 
3 1 -1.494078343062e+02  -1.702409845238e+02   2.098288450445e+02 
4 1  3.611536883234e+01   2.664939087591e+02   1.469122671434e+02 
5 1  1.695319997352e+02  -1.790648065890e+02   5.311974879113e+01 