8
Step 0
1 1  3.925936639999e+02  -1.543008928071e+02  -1.440228048609e+02 
2 1 -3.379341087660e+02  -3.925505874471e+02   3.683521818855e+02 
3 1 -3.424884316572e+02  -2.182720383758e+02   4.091092859017e+02 
4 1 -2.495589300526e+02  -4.683427121431e+01   3.142915232886e+02 
5 1  3.184003193496e+02  -2.363421945060e+02   2.760046204839e+02 
6 1  6.480739281491e+02   6.885028007930e+02  -2.003080180061e+02 
7 1  1.705097250055e+01  -3.196006587446e+02  -1.875622399230e+01 
8 1 -1.126140154026e+02  -3.910938041795e+02   4.674400516380e+02 
8
Step 1000
1 1 -1.070108471836e+02   1.485759250825e+02  -1.210928911192e+02 
2 1 -1.917005642654e+02   2.492654841962e+02   2.801473727969e+02 
3 1  2.747450169200e+02  -4.838954526804e+02   1.428704218134e+02 
4 1  6.711089891088e+01   1.519256827503e+02   1.026120854920e+02 
5 1  3.205505184502e+02  -4.557446763452e+02   3.546124364329e+02 
6 1 -1.931017324683e+02   4.129402908819e+02   9.590632067958e+01 
7 1  1.677958829532e+02  -3.467948861562e+02   1.253966688852e+02 
8 1 -1.930340957582e+02  -4.844952283555e+01   3.335088313676e+02 
8
Step 2000
1 1  1.302369569059e+02  -4.241957224201e+02  -2.788531325004e+02 
2 1 -9.670258637466e+01  -2.407966149508e+02   6.367053577200e+02 
3 1  1.577831388868e+02  -1.864693766909e+02   1.147060184818e+02 
4 1 -1.099686680955e+02  -1.226642915987e+02  -1.850007120870e+02 
5 1  3.228748908151e+02   1.161138301154e+02   1.054910332870e+02 
6 1  8.437286771340e+01  -2.718521767390e+02   2.253082922129e+02 
7 1  1.307020749520e+02  -2.186823214277e+01   1.007771802239e+02 
8 1  4.444867747835e+01  -2.393088742117e+02   4.902740039538e+02 
8
Step 3000
1 1 -7.375773671056e+00   2.252850056612e+02  -3.794138147736e+01 
2 1  1.279276927771e+02  -4.507670685231e+02  -1.696418476496e+02 
3 1  2.283182343982e+02  -5.851635039797e+01   4.102550174856e+02 
4 1  4.242049185920e+02  -5.757548962069e+02  -5.499486766183e+02 
5 1 -1.241836171036e+02  -1.241694359280e+02   5.057345684554e+02 
6 1  7.798323508197e+01  -6.002378258113e+02   5.561925732766e+02 
7 1 -3.164844155450e+02   1.729017903721e+02   2.269610236551e+02 
8 1 -2.755359251409e+02  -2.449854857720e+02   9.008344533613e+01 
8
Step 4000
1 1  3.203746523866e+02  -2.875731377186e+02   8.675889529315e+01 
2 1  2.609186063173e+02  -2.316812435338e+02  -1.300368259410e+02 
3 1  9.824448316035e+01  -1.648731148722e+02   1.037833203315e+02 
4 1  2.269747082671e+02  -2.720693633503e+01  -3.832597961925e+02 
5 1 -3.740118395663e+02  -1.892693895531e+02   1.644389360135e+02 
6 1  1.906293117918e+02  -3.146197799256e+02   3.798280581606e+02 
7 1 -1.167340523947e+01  -3.712339246517e+02   6.430169706295e+01 
8 1  4.542981205201e+02  -4.231294806858e+02   2.039166872504e+02 
8
Step 5000
1 1  3.802204177743e+02   3.185380404484e+01   9.856584399395e+01 
2 1  7.436793091720e+01  -7.657785677309e+01   1.259274036377e+02 
3 1  5.000170560251e+02  -5.669031694434e+02  -1.861003499195e+02 
4 1  9.043159029525e+00   4.693131219007e+02  -1.403126390572e+02 
5 1  2.514315290201e+02  -3.598101890251e+02   2.852085530939e+02 
6 1 -2.007605513120e+02   1.218835401217e+02   4.328739707719e+02 
7 1 -4.585340514833e+02  -4.204231055734e+02   7.289316430892e+01 
8 1 -1.808739106102e+02  -4.429010113738e+01   6.583014381922e+01 
8
Step 6000
1 1  1.104856747999e+02  -4.418563060888e+02   1.659487176293e+02 
2 1 -2.305355619412e+01   6.161889982315e+01  -3.302085792899e+02 
3 1  8.229114191434e+02  -3.086372220173e+02   2.213870547205e+01 
4 1 -1.363242604255e+02   1.987287799533e+02  -5.946128034393e+02 
5 1  1.451920945476e+02  -7.784698301386e+02   1.549017322081e+02 
6 1 -3.306634562819e+02  -3.349437883510e+02   3.705833456186e+02 
7 1  2.569959319924e+02  -6.036050055894e+02   5.578926939869e+02 
8 1 -5.028569315582e+02   4.173648568205e+01   3.742057571728e+02 
8
Step 7000
1 1 -2.364332013869e+01  -1.779803424585e+02   4.315993517019e+01 
2 1  1.101267235344e+02  -9.036170749293e+01  -1.646296037853e+01 
3 1 -3.262515950305e+02  -1.781759041052e+02   4.372854519483e+00 
4 1  2.432542993666e+02  -1.420026402042e+02  -3.853737591230e+02 
5 1  1.448769152022e+02  -4.049324398482e+01   3.436575891175e+02 
6 1 -1.456266321157e+02  -3.589594117343e+02   5.146754712286e+02 
7 1 -9.500010937162e+01  -2.460368604456e+02   8.433607954681e+00 
8 1 -4.089616061450e+02  -9.521117416617e+01  -8.995310749393e+01 
8
Step 8000
1 1 -2.089844218457e+02   3.693552493350e+02  -3.249120773875e+01 
2 1 -1.077182454461e+02  -1.112823193644e+02  -4.801278718896e+02 
3 1 -5.719375479412e+02   2.405112409113e+02   1.578872226080e+02 
4 1  7.471101552137e+02  -1.971286941574e+02  -5.209773312744e+02 
5 1  1.370878923969e+02  -2.801275913731e+02   2.148513248213e+02 
6 1 -8.905382110200e+01  -2.731076033974e+02   2.227987522508e+02 
7 1 -3.331220522457e+02  -4.611632055084e+00   2.894809018693e+01 
8 1  2.699601657459e+02  -2.259593575682e+02   8.549771684633e+01 
8
Step 9000
1 1  8.903304859775e+01  -2.565700324488e+02   2.266161030132e+02 
2 1 -3.931317161355e+02  -7.866586029201e-01  -7.810439351087e+01 
3 1  1.602037540604e+02  -1.339894848043e+02   4.991642610967e+02 
4 1 -2.157677257638e+02   4.730716898910e+00  -2.861340217359e+02 
5 1 -4.225785300583e+02  -1.312087653286e+02  -1.194984018884e+01 
6 1 -5.321245331620e+01   2.568569328150e+02  -6.430248462384e+00 
7 1  1.434593204558e+02   2.861872761281e+02  -2.133701540653e+02 
8 1  3.015385326492e+02  -8.766492622007e+00  -2.702631219852e+02 
8
Step 10000
1 1 -3.210890770193e+02  -1.026141354503e+02  -2.186709034226e+02 
2 1 -1.374479762112e+02   1.227658231786e+00   4.273760614401e+02 
3 1  1.116081554849e+02  -3.162105930462e+02   3.529796531750e+01 
4 1 -4.556403803286e+02   1.711259148836e+02  -4.329402792255e+02 
5 1  2.557654859692e+01  -2.281388215805e+02   2.356400033036e+02 
6 1 -4.276788785576e+02  -3.341491936751e+02   4.199816259844e+02 
7 1 -3.547187296032e+02   4.570115688819e+02  -4.299135808488e+01 
8 1  5.786805260236e+01   2.749390890391e+02  -1.534123210229e+02 
8
Step 11000
1 1 -2.155547242649e+02  -2.841484451614e+02   2.683484581964e+02 
2 1  3.995750672638e+02   8.395294185884e+01   6.487008220839e+01 
3 1  7.313180094122e+01   2.325351981045e+02   1.304600078663e+02 
4 1  1.948642587631e+01   5.948639310835e+02   3.306479227049e+02 
5 1 -1.455145708268e+02  -2.144247543991e+02  -2.569854753641e+02 
6 1 -1.086136270198e+02   3.593751680678e+01   1.249254965240e+02 
7 1  2.874117653209e+02  -3.257252730454e+00  -1.112372711113e+02 
8 1  1.903347469397e+02  -1.058406956472e+02  -4.210703513314e+02 
8
Step 12000
1 1 -1.831259387557e+02   1.557588831743e+02   2.003772666468e+02 
2 1  4.585305991165e+02  -2.144670810793e+02   5.419844889623e+01 
3 1  2.457561446963e+01   7.926569414643e+01   1.251971819340e+02 
4 1 -2.172465164178e+02   9.821203403191e+01   1.751690140966e+02 
5 1 -2.836456803920e+02   1.973393177232e+02   5.406705677783e+02 
6 1 -1.842759190478e+02   7.295872685032e+02  -2.972609757914e+01 
7 1  3.567116952826e+02  -2.740753844283e+01  -1.337896801123e+02 
8 1 -2.020415075005e+02   1.143179424683e+02  -1.278790391530e+02 
8
Step 13000
1 1  1.107152337895e+02   4.750899929134e+01   5.949018015465e+01 
2 1  1.255192313449e+02  -8.750152928960e+02  -2.057961805991e+02 
3 1  4.121325235870e+02   4.231316733899e+02  -2.195744476826e+01 
4 1 -4.361887301550e+02   1.692908070141e+02  -3.222398274690e+02 
5 1 -1.745602182062e+02   3.365927875345e+02   5.896341518453e+02 
6 1 -1.960599563783e+01   9.978567140515e+00   9.850407751335e+00 
7 1  1.777337570772e+02   9.752749989349e+01  -2.565769438819e+02 
8 1 -3.309920309439e+02  -3.152503748210e+02  -9.358731928683e+01 
8
Step 14000
1 1  5.215319537565e+02   2.318311351321e+02  -6.723531263543e+01 
2 1  4.044139534887e+01  -1.619077683233e+02   5.607912872870e+01 
3 1 -3.137964570323e+01   1.184362918535e+02   1.100116734422e+02 
4 1  5.647889997288e+01   1.507004442036e+02   3.922592224549e+02 
5 1 -4.230715483416e+02  -6.247908226669e+00  -5.694074993374e+01 
6 1  1.014160104614e+02   5.341522463469e+02   1.048035374245e+01 
7 1  1.499995457645e+01  -1.309022919930e+02   2.627931090147e+01 
8 1 -3.422611713093e+02  -3.942994580892e+02  -5.949051064300e+01 
8
Step 15000
1 1  8.021744503764e+01   4.725833737159e+02  -2.431019417618e+01 
2 1 -8.820633002875e+01   9.123255452480e+01   7.633367236241e+02 
3 1 -1.901193714524e+02  -1.312896899518e+02  -3.089087803372e+02 
4 1  5.721817918357e+02   3.026224663810e+02   4.383325193943e+02 
5 1  3.032672407944e+02  -1.403881544688e+02  -1.958923345080e+01 
6 1  8.771018469398e+01   2.358641498671e+02  -1.011449666441e+00 
7 1  4.849809944513e+01  -3.395402832654e+02  -1.848866339938e+02 
8 1  2.934980988089e+02   2.799283878584e+01  -1.626242690131e+02 
8
Step 16000
1 1  5.262508576929e+02   2.434152479846e+02  -2.769884455306e+02 
2 1 -1.311727987778e+01   3.095530855372e+02   2.515056227214e+02 
3 1 -2.658702266464e+02   3.395560240737e+01  -2.096235109260e+02 
4 1  2.542634895296e+02   2.727590878182e+01   1.171044756051e+01 
5 1  2.794400241887e+02   2.744821033512e+02  -3.159908837583e+02 
6 1 -8.251573877840e+01   2.534466368372e+01  -5.169644635291e+01 
7 1  2.868233779225e+02  -1.148157796238e+02  -2.357088868541e+02 
8 1 -5.924249566476e+01  -3.131440317619e+01  -9.153238692650e+01 
8
Step 17000
1 1  8.088730141161e+01  -1.258386693435e+02  -3.213566833135e+02 
2 1  6.029740711787e+02   5.705209418607e+02  -4.514172236741e+02 
3 1 -1.741624691612e+02   1.541794090511e+01   3.241023791464e+02 
4 1  3.806127081709e+01  -2.511138619311e+02   1.991441789517e+02 
5 1 -2.644202790212e+02   3.634675958578e+02   1.506159848464e+01 
6 1 -2.159253933258e+02   1.027321066045e+02  -2.011655398215e+02 
7 1  4.891499124719e+02  -9.460989579662e+01  -1.198679119597e+02 
8 1 -2.580292878308e+02   2.731278180061e+02   1.088646250671e+02 
8
Step 18000
1 1 -9.068082665947e+01  -1.439587081768e+02  -4.398793679519e+02 
2 1  4.456639484328e+02   1.588327205860e+02  -1.576962525493e+02 
3 1  1.732013967772e+02   3.261855065962e+02  -3.568424497960e+02 
4 1 -1.957493363809e+02   2.868550183919e+02  -1.189692098234e+02 
5 1 -4.649375060008e+00  -1.359400735161e+02  -3.016900014429e+01 
6 1  3.151185417952e+02   3.030191742326e+01  -1.279930311195e+02 
7 1 -2.056352865294e+01  -1.246367032643e+02  -8.509347400921e+01 
8 1 -1.051897628077e+02   9.336200069908e+01   2.798930656669e+02 
8
Step 19000
1 1 -1.815774119079e+02   2.449817004562e+02  -3.519425972989e+02 
2 1 -6.243446944784e+01  -1.064014989201e+02   1.444560105090e+02 
3 1  3.675321526856e+02   1.317773055618e+02  -1.294163701170e+01 
4 1 -2.162082254911e+02   2.247864593031e+02   3.460678953589e+02 
5 1  4.568423036399e+02   3.214139581057e+02   7.625534728876e+01 
6 1  1.331812551918e+02   3.616879536477e+02   2.161327565848e+02 
7 1 -1.195872407507e+02   2.991938816545e+01  -2.008478180363e+02 
8 1  2.732113363765e+02   1.216475445110e+02  -7.694007971014e+02 
8
Step 20000
1 1 -3.025988300372e+02   2.445672179960e+02  -3.748073629340e+02 
2 1  2.936953901965e+02   6.308085325506e+00  -4.136541534351e+02 
3 1 -8.885006682942e+01  -2.705884661133e+02  -6.429611175431e+02 
4 1  6.541700284129e+01  -4.650513252696e+01  -1.044260269869e+02 
5 1  3.117978239459e+02   3.119430053314e+02  -1.352250470701e+02 
6 1 -1.070836730248e+02   1.190506544034e+02  -4.059760707338e+02 
7 1  2.142180076851e+02   2.522029321904e+02   2.544324500999e+02 
8 1  7.031769251870e+00   1.081451066954e+02  -1.586664825391e+02 
8
Step 21000
1 1 -3.554582648519e+02  -2.528538802059e+02  -3.351726686571e+02 
2 1  2.377836629291e+02  -1.071587338562e+02  -1.648618460142e+02 
3 1 -3.001970713012e+02  -1.841580989703e+02  -2.519729915294e+02 
4 1  7.642222089968e+02  -2.013822714298e+02  -1.072988807145e+02 
5 1 -3.393350908883e+01   9.898308897532e+00   8.093087972929e+02 
6 1  8.145353656275e+01   4.162639980752e+02  -1.208015271606e+02 
7 1 -2.255206512904e+02   2.370971885141e+02  -1.104019580086e+02 
8 1 -3.966577445587e+02  -2.585366122552e+00  -2.826928922398e+02 
8
Step 22000
1 1  7.538483716634e+01  -1.223949326430e+02  -3.690059499176e+02 
2 1 -1.753501140113e+02   2.125647037536e+02  -8.699585571275e+01 
3 1 -5.916123315678e+01   1.470912671496e+02  -1.155549251661e+02 
4 1  1.139130648061e+02  -1.334476446271e+02  -2.311796366662e+02 
5 1 -3.404068502710e+01  -1.264389548431e+01  -4.691908501751e+01 
6 1 -1.858457644372e+02   6.947275427352e+01  -2.345671305585e+02 
7 1 -1.823423291470e+02   2.934751701513e+01  -2.856734768270e+01 
8 1 -1.282575768563e+02   3.889188588084e+02   1.129099425272e+01 
8
Step 23000
1 1 -1.344030325428e+01  -4.260846133575e+02  -4.753478399892e+01 
2 1  2.364656268232e+01   8.102645346604e+01  -9.834909522784e+01 
3 1 -2.275850307230e+02   6.293265837640e+02   3.374815007095e+00 
4 1  3.359562694977e+02  -3.908047605565e+02  -3.763848500303e+02 
5 1  1.679108474065e+02   9.704891576934e+01  -1.301632890309e+02 
6 1  2.000532010174e+02  -3.282273953598e+02  -2.159988330952e+02 
7 1  3.437661744832e+02  -2.603959889498e+02  -1.240577878310e+02 
8 1 -1.687374268695e+02   6.002705759920e+02  -1.403896461009e+02 
8
Step 24000
1 1  1.107581356478e+02  -2.656234524612e+02   6.891981310546e+01 
2 1  8.609947879550e+01  -1.522183403444e+02   1.716108344241e+01 
3 1 -4.155152935342e+02   2.417555968197e+02  -3.888479264080e+02 
4 1 -5.088240111120e+01  -6.602560384244e+01  -1.554869443357e+02 
5 1 -3.414553701630e+02  -5.389243944685e+01  -2.016960081518e+02 
6 1 -6.005211902911e+02  -2.471622696251e+02   2.341467834690e+01 
7 1 -2.789866230698e+02   1.764728282613e+02   4.602761850156e+02 
8 1  3.027155356133e+01   5.090288496637e+02   4.841896653027e+01 
8
Step 25000
1 1 -2.746914210424e+01  -5.180417610010e+02   8.682871237950e+01 
2 1  5.643843911981e+02  -8.765903100958e+01  -2.129567731737e+01 
3 1  3.228882322680e+02  -3.341533172094e+01  -4.152721085375e+01 
4 1 -3.728833132135e+02  -3.064828909448e+01   6.396522273808e+01 
5 1 -3.413740925769e+02  -4.994535612483e+02  -5.033357159871e+02 
6 1  9.606007797811e+01  -2.911618463900e+02  -4.052950989826e+02 
7 1  2.295625770335e+02   2.840014674350e+02   3.090677996146e+02 
8 1  1.672248946511e+02   1.983571653472e+02  -1.370541264373e+02 
8
Step 26000
1 1 -1.129082679123e+02  -8.917941867114e+01   5.492282099473e+02 
2 1  5.809589330703e+02   3.175123766803e+01   1.820848127442e+02 
3 1 -5.642731134444e+01   6.832529046366e+01   3.233385261874e+02 
4 1  5.541919174110e+01  -3.249654116978e+01   2.917810687284e+01 
5 1 -3.951466082240e+02   7.344196581849e+01  -1.248771819089e-01 
6 1  4.687213956289e+02   1.197909355917e+02   1.009459008523e+02 
7 1 -3.147284918140e+02  -2.939760184871e+02   5.798273676313e+02 
8 1 -1.599942198323e+02   4.244342514882e+02   2.650001383694e+02 
8
Step 27000
1 1  3.287537972636e+02  -1.067483323769e+02   2.685729960708e+02 
2 1  2.594029504911e+02  -3.113185724927e+01   5.947914461275e+01 
3 1 -9.061930454975e+01  -3.983667232085e+01   1.587358912981e+02 
4 1  6.016251584421e+02  -2.810256284398e+02  -3.715702637414e+02 
5 1 -3.015625846066e+02  -8.606689198918e+01  -7.784047498462e+02 
6 1  3.708797519061e+02   4.298869993530e+00   2.199505490484e+02 
7 1  3.808867091794e+02  -5.769051871740e+02   1.033184360391e+02 
8 1  3.402768343192e+02  -2.317019413924e+02  -1.376744318014e+02 
8
Step 28000
1 1  1.959193873631e+02  -9.830125464845e+01   1.545651816836e+02 
2 1 -2.187158650317e+02  -3.772923319652e+02   4.934122041047e+02 
3 1  1.603675266271e+02  -6.219946139021e+02   8.174799086096e+00 
4 1  7.658848258132e+00  -6.886016533588e+01   1.532666319660e+02 
5 1 -5.440600629553e+01  -7.034652062066e+01  -2.757264563951e+01 
6 1 -1.858764917662e+02   4.434488270144e+00   4.458052848314e+02 
7 1  1.548802498884e+02  -1.215350473743e+02   1.516967636484e+02 
8 1 -1.681436821992e+02  -2.075413500954e+02   3.410117058706e+02 
8
Step 29000
1 1  6.950646187864e+02   5.182097501802e+01   1.967528920364e+02 
2 1  1.134100329468e+02  -2.785313911604e+02   1.835141811939e+02 
3 1  2.423476186103e+02  -4.823182089240e+02  -4.168413119653e+01 
4 1  2.870392406000e+02   2.539183325180e+02  -2.556956810372e+01 
5 1  2.612015576840e+02  -7.153945227083e+02   6.478624690085e+02 
6 1 -2.474331893977e+02  -4.190781511907e+02  -2.276154454980e+02 
7 1  8.720682902616e+01   1.951374569782e+02  -1.799592034869e+02 
8 1  3.135120058815e+02  -2.319608352769e+02   2.775865367049e+01 
8
Step 30000
1 1 -8.527680445922e+01  -1.733836627943e+02   3.445280147983e+02 
2 1  3.652529685490e+02   6.934121555365e+01   1.488763566944e+02 
3 1  2.028035210637e+02  -1.922132120702e+02   2.917035714138e+02 
4 1  4.477765004347e+02   2.257181751066e+02   2.369821469563e+02 
5 1 -2.240085817738e+02  -1.823178909581e+02   1.066124100850e+02 
6 1  1.854913678662e+02  -1.962141949325e+02  -8.986250967946e+01 
7 1  3.616571066032e+01   1.295091944393e+02   2.781530332228e+01 
8 1  2.911456683375e+02  -3.276403446714e+02   3.496242263119e+02 
8
Step 31000
1 1 -2.097160175243e+02  -3.531600602229e+02   4.514508372336e+01 
2 1  2.185210420775e+02   2.178300844530e+01   3.137640071092e+02 
3 1  4.708837412752e+01  -1.138549060719e+02  -3.168291713216e+02 
4 1  2.558507043091e+02   1.291702010004e+02   4.075109267893e+01 
5 1 -4.341257390015e+02   1.739034961149e+02   8.423742821464e+00 
6 1  5.202389286390e+02   1.247847263269e+02   1.463555246656e+02 
7 1  1.577421462934e+02  -4.991709109761e+02  -1.666608571141e+02 
8 1  1.570908810441e+02  -2.923754085754e+02   2.172284480210e+02 
8
Step 32000
1 1 -2.757374186027e+01   7.109856097202e+01  -3.357896289340e+02 
2 1 -1.007190844594e+02  -5.156657139906e+02  -5.361155896446e+01 
3 1  3.816312794465e+02  -6.523600478473e+02  -7.489634458230e+01 
4 1  2.009672300205e+02  -8.785320384065e+01  -1.027520148196e+02 
5 1 -1.525836650098e+02  -5.777307622332e+01   1.583453555510e+02 
6 1 -2.609867423916e+02  -2.230924644716e+00   1.116174327669e+02 
7 1 -1.271549665547e+02  -3.115544610302e+01  -2.465517151320e+02 
8 1  1.866236123050e+01  -9.054502347238e+01   2.603726523808e+02 
8
Step 33000
1 1 -5.536345748221e+01   3.244600519820e+02   3.637725316407e+01 
2 1 -1.148795199969e+02   5.967003824783e-01   3.668487799893e+01 
3 1  3.365280147861e+02  -1.947259062632e+02   1.080365368608e+02 
4 1  3.903274707377e+00  -3.190962152939e+02  -4.814406220350e+02 
5 1 -2.959366326854e+01  -1.867287934457e+02   2.023022151256e+02 
6 1 -1.228081552504e+02  -1.323597686659e+02   4.083275557119e+02 
7 1  3.949998489859e+02   1.014245068866e+02  -1.525797746547e+01 
8 1  2.418492184116e+02  -7.109527308756e+02   4.051232881605e+02 
8
Step 34000
1 1  1.263775014085e+02   1.526526414261e+02  -2.676553503070e+02 
2 1  1.924600089661e+02  -2.403750579303e+02   2.624911001118e+01 
3 1  4.488381252941e+01  -2.801015973011e+02  -1.354048941433e+02 
4 1 -8.561658044398e+01  -4.599479783772e+01   4.084760870469e+01 
5 1 -9.561567318844e+01   5.303399813448e+01   1.504421001830e+01 
6 1  1.649033032556e+02  -2.420451031701e+02   7.673933998235e+01 
7 1  2.204082948722e+02   1.239831412256e+02  -1.134579026823e+02 
8 1  1.126172482890e+02  -3.286198204926e+02   1.257139380555e+02 
8
Step 35000
1 1 -1.944964742316e+02   1.048697333686e+02   1.071158779175e+02 
2 1 -8.541898761690e+01  -4.103549798414e+01  -1.100863655172e+02 
3 1 -6.774956274702e+02  -2.599534683798e+02  -1.729515376432e+02 
4 1  1.697319763653e+02   1.923027404968e+02   2.438458468854e+02 
5 1 -9.971523230903e+01  -1.588763780419e+02  -4.799877267824e+02 
6 1 -2.565697200280e+01   1.448842797450e+02  -2.892595825668e+02 
7 1 -3.630524257444e+02  -6.926482654351e+01   4.872923340006e+02 
8 1  4.327294471114e+02  -7.904282697137e+00   1.001453551216e+02 
8
Step 36000
1 1  3.477962138489e+02  -3.550852440751e+02  -8.581575276131e+02 
2 1  2.728215510027e+02   2.295832542372e+02  -3.253783762500e+02 
3 1 -3.874676045841e+02  -3.688753338346e+02   5.643142809293e+01 
4 1 -1.833390851950e+02  -6.718921717149e+01   2.266691068986e+02 
5 1 -8.774503519474e+02  -3.175142735921e+02   5.980627368993e+01 
6 1  4.867067445862e+01  -7.012393081571e-01   4.784033770973e+02 
7 1  3.032679829616e+02  -1.826741811492e+02   2.533244124794e+02 
8 1  5.054427428204e+02  -1.696132895530e+01  -3.307142372585e+02 
8
Step 37000
1 1 -2.592717168441e+02   1.792539676325e+02  -1.980234898427e+02 
2 1 -2.700993659330e+02   1.782981457754e+02   5.668943369321e+01 
3 1 -3.362298058316e+01   3.892163308354e+02   1.869888744873e+02 
4 1 -2.727485748230e+02   5.174200790853e+01   4.191365711652e+02 
5 1  1.360316667867e+02  -5.558220282741e+01   3.776328650794e+02 
6 1 -8.960860858005e+01  -3.946475485914e+02  -1.071329248933e+02 
7 1 -1.294033768558e+02  -1.533040010320e+02  -3.586658420323e+01 
8 1  2.175998984061e+02   1.799989754194e+02   3.158825866127e+02 
8
Step 38000
1 1 -3.314967840025e+02   1.130429244625e+02  -2.028044851417e+02 
2 1 -6.933914581119e+00  -9.145485493593e+01  -1.342934938162e+02 
3 1  1.314478589531e+02   2.452653403943e+02  -1.991033300516e+01 
4 1 -2.335040616468e+02   1.639516485346e+02   2.084402640996e+02 
5 1  1.098937068276e+02  -9.359804107622e+01   1.746430938508e+02 
6 1 -1.895352896269e+02  -1.176058084023e+02  -4.251892956699e+02 
7 1  2.268238793084e+02   3.554231755274e+02  -6.890771925551e+02 
8 1  5.488595477556e+01  -5.134512066614e+02   1.233717298470e+02 
8
Step 39000
1 1 -6.837952248630e+02  -2.224598374787e+02   1.071343272165e+02 
2 1 -2.580214573571e+02   1.474431310962e+02   1.517779411685e+02 
3 1 -3.013273546662e+02  -1.400842609052e+02   1.688332452121e+02 
4 1 -1.569726237354e+02   4.142890980800e+02  -4.497123232802e+02 
5 1 -2.863003271775e+02  -8.536153158937e+01   2.289757033094e+02 
6 1 -1.352078512290e+02  -4.257000470880e+01   4.477842373472e+02 
7 1  2.024277045685e+02   2.885769918549e+01  -8.242744244397e+01 
8 1  4.363133236367e+01   3.630111183987e+01  -1.635313645507e+02 
8
Step 40000
1 1 -5.198705248364e+02  -1.889043963711e+02  -1.229412476595e+02 
2 1  3.418882739490e+02   1.550510708381e+02  -3.121376367841e+02 
3 1 -1.755377686273e+02  -2.524155043105e+01   7.558065934007e+00 
4 1 -5.107547545675e+01  -2.949639807428e+02   1.794016563002e+01 
5 1  1.504751799832e+02  -1.806634752348e+02  -2.188645956299e+02 
6 1  1.374523516954e+02   1.279049993866e+02   3.560952037600e+02 
7 1 -4.506495701696e+02  -1.675478566338e+02   2.406411609763e+02 
8 1  3.091460289367e+02   2.213737187766e+02  -5.718121795618e+02 
8
Step 41000
1 1 -4.868807311641e+02  -2.302310391906e+02   2.137543194435e+02 
2 1 -2.994578256468e+02   2.758921322956e+01  -1.842676635868e+02 
3 1 -2.225018248125e+02   1.906709448346e+02   4.640446534831e+02 
4 1  4.106054351875e+01  -2.971082754057e+02  -1.429389343439e+00 
5 1  3.265966836775e+02  -1.619624651845e+02   1.004057232430e+02 
6 1 -1.137071732711e+02  -1.579842992086e+02   9.465390252335e+00 
7 1 -2.580227754355e+02   5.965029760550e+01  -2.996991493723e+01 
8 1 -1.905904821211e+02   4.953612584340e+02  -2.041476428565e+02 
8
Step 42000
1 1 -3.990459571151e+02  -1.677335124065e+02   2.101763513666e+02 
2 1 -1.960694206021e+02  -1.430814653364e+02  -1.225423352488e+02 
3 1 -6.828189366401e+01   9.455555145880e+01   2.554524845318e+02 
4 1  1.213525131511e+02   5.552367949695e+01  -3.937218971739e+02 
5 1  3.632542729813e+02  -1.231656899985e+02  -1.378481475606e+02 
6 1 -4.627574480464e+02   2.613193916180e+00  -5.468527657140e+01 
7 1 -6.923793339172e+01   7.176143603297e+01  -1.340952049326e+02 
8 1 -1.071512218290e+02   1.980158717408e+02  -1.348152056194e+02 
8
Step 43000
1 1 -1.733837316770e+01  -1.113400446865e+02   1.409862644703e+02 
2 1 -2.214363956989e+02  -3.150171507130e+02  -6.931942858260e+01 
3 1 -4.139307167489e+01  -3.263315523077e+02   3.165402692141e+02 
4 1  1.038333535622e+02  -7.484650434328e+01  -3.586042369176e+02 
5 1  4.427530961384e+02  -1.874861806402e+01   3.471301209511e+01 
6 1 -3.187002070370e+02   2.858456976759e+02   3.607437194989e+02 
7 1 -3.032256244732e+02  -1.008850847065e+01  -1.200761044876e+02 
8 1 -4.119675642106e+01   4.195145961257e+02  -5.850026489531e+02 
8
Step 44000
1 1 -2.433797224433e+02  -1.042990766379e+02  -5.719632394775e+02 
2 1 -3.335014222608e+02  -9.508030541123e+00  -1.747472670024e+01 
3 1 -4.409442647092e+01   2.094457216473e+02   4.788332553830e+02 
4 1 -4.445068420468e+01   4.238059757345e+01   1.565174523925e+02 
5 1  4.224554526937e+02   3.884115992973e+02   4.724208439816e+02 
6 1 -2.874212293456e+02  -4.908436921158e+01  -1.108612896933e+01 
7 1  3.517548436510e+02   1.179341503393e+02   2.199895935947e+02 
8 1 -2.320964778982e+02   2.891948925520e+02  -2.697977664674e+02 
8
Step 45000
1 1 -1.078012051345e+02  -9.151770671538e+01  -1.653407350230e+02 
2 1  1.186578911167e+02   2.111655530090e+01  -4.013228891292e+02 
3 1 -1.471631376889e+02   1.301840214153e+02   1.547189883586e+02 
4 1 -2.335861229365e+02   2.959567178949e+01   9.793008061152e+01 
5 1  2.321999410726e+02   3.066988101103e+01   3.115506027179e+02 
6 1 -2.041434424981e+02  -6.455409442536e+01  -4.665475804168e+02 
7 1  3.720697375928e+02   6.570435252671e+01  -1.308733081086e+02 
8 1 -1.220537055995e+02   4.362401361581e+02  -2.416509119700e+02 
8
Step 46000
1 1  1.493774842636e+02  -2.790651918978e+01   2.915047954474e+02 
2 1 -1.417230482597e+02   3.291996167517e+02  -2.575035774608e+02 
3 1 -9.296595670167e+01   1.394845211764e+02   1.161447123288e+01 
4 1 -5.561565270077e+01   1.695540777459e+02   1.097670019708e+02 
5 1 -3.860505324894e+02  -3.218233720366e+02   1.526617415941e+02 
6 1  2.303716579801e+02   4.327531965340e+02   3.788151871463e+01 
7 1  1.337724923440e+02  -1.261296592336e+02  -2.908537944199e+02 
8 1  4.774868841135e+02   8.587935133110e+00   1.676300609997e+02 
8
Step 47000
1 1  5.025078137087e+02   2.754129862175e+02   2.599063734163e+02 
2 1  1.237909258612e+02  -1.672252801648e+02  -3.890326714566e+02 
3 1 -2.384165196499e+01  -1.533245366663e+02  -6.078223436801e+02 
4 1 -1.729978282830e+01   2.137878751449e+02   2.152521514766e+01 
5 1 -7.171111464510e+02  -2.237603059683e+02   3.147568887444e+02 
6 1  1.250101783936e+00  -6.008038175239e+02   9.167976135376e+01 
7 1  4.855307767162e+02  -2.194668680701e+02  -3.935693542998e+02 
8 1  2.122472332551e+02  -6.109339326562e+01  -3.716047741326e+02 
8
Step 48000
1 1 -9.270356372359e+01   3.531994215534e+02  -3.695341837584e+01 
2 1 -3.404690866400e+02  -1.821185784848e+01  -8.985719923506e+01 
3 1 -7.035968230163e+01   3.578661743470e+02  -1.038417042918e+02 
4 1 -3.364428446971e+02  -1.410905063165e+02  -3.827238521029e+00 
5 1 -1.920658557387e+02   3.487813314655e+02  -9.132460092133e+01 
6 1  3.710891207753e+01  -3.789156438489e+01   3.390991885934e+02 
7 1  5.176062926555e+02   1.983080841091e+02   1.626731383763e+02 
8 1  1.027963308302e+01   6.514352965704e+01   1.638336420251e+02 
8
Step 49000
1 1  8.169424845404e+01  -5.340818122144e+01  -7.242042905816e+01 
2 1 -2.277619835245e+02  -1.358059043232e+02  -2.770979196962e+02 
3 1  2.587636047650e+02   3.593063008545e+02  -4.171048197342e+01 
4 1 -4.398807214508e+02  -1.713097533406e+02  -2.307654596666e+02 
5 1 -7.392616223037e+01   3.559709033495e+02  -5.406045775145e+02 
6 1 -4.978647594512e+01   2.163073548816e+01  -4.881200374960e+01 
7 1  2.731400451079e+02  -2.563551119242e+02  -1.892932618301e+02 
8 1  2.537073982876e+02   3.189624842535e+00   2.025392564371e+02 
8
Step 50000
1 1 -2.799505047319e+02  -1.679166794219e+02  -6.335124268524e+00 
2 1 -1.337224534463e+02   2.771822067950e+01  -2.326202633961e+02 
3 1 -1.126422251097e+02  -2.540191985908e+02  -1.167239497147e+02 
4 1 -3.696579003176e+02   2.628007516551e+02  -3.184879484752e+02 
5 1  8.683290458496e+01   1.007280503774e+02  -5.182305120731e+02 
6 1  2.829191457005e+02   2.990558397200e+02  -3.431966703011e+02 
7 1  1.474915182171e+02   1.716798570839e+02   3.962505343062e+01 
8 1 -1.085076446864e+01   1.964613875014e+02   3.497369822762e+02 
8
Step 51000
1 1 -2.572553713814e+02   1.867101930061e+02   7.050235457402e+00 
2 1  1.261915908584e+02  -1.322353987301e+02  -3.608395859362e+02 
3 1  6.370624683460e+01  -1.917170347922e+02   1.203293489812e+02 
4 1  4.178005178449e+02   6.384920810764e+02  -7.639999864157e+00 
5 1 -2.489192892413e+02  -5.144872496374e+01  -1.547789566331e+01 
6 1  1.652878487736e+02   2.268305301509e+02  -1.299667747268e+01 
7 1  3.127285957308e+02   2.770846565026e+02  -6.256987250676e+01 
8 1  2.229548923533e+02  -1.526212016718e+02  -2.834951516430e+01 
8
Step 52000
1 1 -2.432604321079e+02   1.910183262263e+02  -2.374912755904e+02 
2 1 -6.393541548455e+02   9.986399159311e+00  -2.785736020379e+02 
3 1  2.562254735970e+02  -1.285531720584e+02  -4.071540741863e+02 
4 1  1.592183209420e+02   1.221782712522e+02   9.866701675630e+00 
5 1 -1.600152367900e+02   3.208552627315e+01   2.239508918228e+02 
6 1  3.567106180155e+02   6.497568501300e+01  -1.211295095836e+01 
7 1  6.438928265363e+01   1.633028038299e+00  -3.753240427159e+02 
8 1 -5.200376459225e+02   1.462630604884e+02   3.980373268313e+02 
8
Step 53000
1 1 -5.581240141645e+02   6.264640212408e+02  -1.073406353804e+02 
2 1 -2.617324347217e+02   2.617512224346e+02   5.648596068295e+02 
3 1  5.901129387915e+02  -6.140740370220e+01  -5.860617682132e+01 
4 1 -8.197948701547e+01   1.774068199842e+02   5.140467336374e+02 
5 1  7.452520885581e+01   3.518418506260e+01   1.808374676970e+02 
6 1  1.709198471996e+02   2.329495720598e+02  -4.503403181819e+02 
7 1  4.912494934397e+02   3.454441402147e+02  -5.377766317758e+02 
8 1  1.606250859873e+02  -2.160741051300e+02   6.684045110339e+01 
8
Step 54000
1 1 -1.081096672089e+01  -1.770245528454e+02  -1.374200799237e+02 
2 1  2.028226337963e+02   2.586834428910e+02   4.805965581022e+02 
3 1  2.827069283067e+02  -3.547903791051e+02   1.803063662554e+01 
4 1  1.329046067326e+02  -9.990636594756e+01   1.107472452555e+01 
5 1 -1.418790730768e+02   2.751060332812e+02  -2.059766786129e+02 