8
Step 0
1 1 6.71506416711662238e-03 6.49167539545825092e-04 7.55905881043412303e-03
2 1 6.80187192990081620e-03 -7.14529034888187076e-03 2.80830314334164525e-05
3 1 1.35396276929549840e-03 3.61703981870044712e-03 5.96866704044804290e-03
4 1 3.90406982196184627e-03 -5.04516060726575063e-03 5.82195370525365099e-03
5 1 -7.94816050768093821e-03 4.04532223788039817e-03 -3.88696007944830738e-03
6 1 1.09199370770444292e-02 1.25505674945915018e-02 -1.18654993095461160e-02
7 1 1.56996477508037388e-03 5.52022631513145005e-03 -6.57327494686332260e-03
8 1 2.28840723532842873e-03 7.40181392547528683e-03 -2.57480642140814515e-04
8
Step 1000
1 1 2.19762022116301928e-03 -2.55738157336608124e-03 1.41023065651636297e-02
2 1 2.75172694438642271e-03 3.29651839852544573e-03 -4.60980507001006266e-03
3 1 -7.38103204698858407e-03 1.67691460809458633e-02 -3.31330699794464166e-03
4 1 -7.86116131099181756e-03 2.98369600226523020e-03 1.00538307846145154e-02
5 1 -1.68117053194912526e-02 1.40793718009624147e-02 -7.21270534388918950e-03
6 1 1.67188458353661334e-02 -4.15387852302249744e-03 -1.68383562706568013e-02
7 1 -2.54330900514472720e-03 1.76869071444333975e-02 2.84822256836055141e-03
8 1 1.58416207005029931e-02 7.70815221527007544e-03 -1.19418905311913194e-03
8
Step 2000
1 1 -2.46663159041998975e-03 -5.70073700944281198e-03 1.50642137078395542e-02
2 1 -1.26397184007375233e-03 1.12623763645159861e-02 -9.13843782219086152e-03
3 1 -1.46856262607473441e-02 2.23980795031425810e-02 -1.13436664200148637e-02
4 1 -1.63585713908857566e-02 1.07881301140133525e-02 1.32729382125960135e-02
5 1 -1.86306918977719727e-02 1.90303484397204292e-02 -8.17146555121473633e-03
6 1 1.60734193471636436e-02 -1.96491623920635808e-02 -1.51055990221760448e-02
7 1 -5.48402782721188736e-03 2.34806048915324889e-02 1.16420215872474267e-02
8 1 2.19251413480694990e-02 2.48488396877203765e-03 -1.05507613079857364e-03
8
Step 3000
1 1 -5.29160223764625366e-03 -8.45597381667948823e-03 9.84282550133184879e-03
2 1 -2.56741824648586961e-03 1.31122952117674711e-02 -1.27038449774050238e-02
3 1 -1.65893982307714800e-02 1.60962957152447905e-02 -1.58229839428391944e-02
4 1 -1.74438647709876452e-02 1.46823711752844862e-02 1.25283146844434642e-02
5 1 -1.19549781146788044e-02 1.53334426411102440e-02 -7.96270864753272425e-03
6 1 9.33462601907398930e-03 -2.43683386033820247e-02 -5.68759996348588287e-03
7 1 -6.52363513448736380e-03 1.92787707409965391e-02 1.55696400372889177e-02
8 1 1.77273646714049063e-02 -4.96104520305230574e-03 4.47495883193261646e-04
8
Step 4000
1 1 -4.37105260408290203e-03 -9.47367915594119446e-03 -6.29514829413663039e-04
2 1 -8.11900967875585182e-04 7.60127882413164611e-03 -1.23684401080621422e-02
3 1 -1.25280116630579422e-02 2.51046549966400844e-03 -1.50968100111794866e-02
4 1 -1.07707618952033700e-02 1.24471452985915592e-02 6.74149957841804759e-03
5 1 -7.46016249916567863e-04 4.94344521334270839e-03 -7.61956540934463720e-03
6 1 -2.06745315794706940e-04 -1.71448597612052327e-02 6.00741664441109633e-03
7 1 -5.82681192261091593e-03 7.36477886467417232e-03 1.30241257963997770e-02
8 1 5.80699325617862507e-03 -9.79100143374563373e-03 3.06407635500270279e-03
8
Step 5000
1 1 4.87136945136522749e-04 -7.53010912752068162e-03 -1.18569229897996144e-02
2 1 1.41936680687599921e-03 -2.26319075834244959e-03 -7.31596934568552390e-03
3 1 -5.34987045725368073e-03 -1.02588661616267451e-02 -9.98288443384657762e-03
4 1 -5.52672512477899022e-04 5.68388552976455911e-03 -1.80834098726697983e-03
5 1 9.49720438224853532e-03 -7.41863205351264102e-03 -6.90077663745563598e-03
6 1 -8.31222833024632471e-03 -3.97698953698665328e-03 1.36250131439976819e-02
7 1 -4.36792575855040124e-03 -6.04323243969878601e-03 6.25176173072818347e-03
8 1 -7.96094426666521526e-03 -8.89642666687172866e-03 5.78138169263694296e-03
8
Step 6000
1 1 5.86413913405338556e-03 -3.20108533951285858e-03 -1.80797442868844346e-02
2 1 2.08984740718264018e-03 -1.08660014435026271e-02 6.88015317258131704e-04
3 1 2.24340620954658612e-03 -1.69818716429884047e-02 -2.79007449347570000e-03
4 1 8.31832076458928482e-03 -2.67085322445673396e-03 -1.02198269517015886e-02
5 1 1.44981095044879812e-02 -1.67935170190913786e-02 -4.81550375148130736e-03
6 1 -1.24060840133994599e-02 9.13953169581791479e-03 1.51239890076598146e-02
7 1 -2.89106952274833856e-03 -1.55315095738564786e-02 -1.39262281711542333e-03
8 1 -1.75247741822698345e-02 -2.27008177944037614e-03 7.53033804061342942e-03
8
Step 7000
1 1 7.84197616655648091e-03 2.09231545346020859e-03 -1.63437011211237104e-02
2 1 3.00863267475924990e-04 -1.37612801059940736e-02 1.02230318579086214e-02
3 1 8.52571610495812295e-03 -1.54020404572166210e-02 4.59857560071444665e-03
4 1 1.26134410569282290e-02 -9.44296175708896762e-03 -1.54654423540843758e-02
5 1 1.25606831285722913e-02 -1.88917756793350183e-02 -8.12932224846044495e-04
6 1 -1.23105658100097423e-02 1.64312829795256223e-02 1.04731503506940229e-02
7 1 -1.50374913184071562e-03 -1.78815316450443851e-02 -6.88464069728138284e-03
8 1 -1.86840488723859915e-02 6.69809729902094610e-03 7.00201952305951926e-03
8
Step 8000
1 1 5.34975634128972283e-03 6.86073362948918554e-03 -7.89793299023756022e-03
2 1 -3.78240483689332467e-03 -1.00697728501896924e-02 1.87042753123491216e-02
3 1 1.20370426695540367e-02 -6.99095330226374208e-03 1.05215696399146384e-02
4 1 1.10313395018664332e-02 -1.19309448691481898e-02 -1.51518317074511646e-02
5 1 5.85730358749400343e-03 -1.32555251891550568e-02 4.30306783939238529e-03
6 1 -8.75363617463910740e-03 1.54546565992713832e-02 2.16636292940646739e-03
7 1 -5.88525270808755799e-05 -1.32010206904760365e-02 -8.36450518533544789e-03
8 1 -1.14356040340711420e-02 1.28614353261085126e-02 3.50058971564979607e-03
8
Step 9000
1 1 -1.78983438712405045e-04 9.26505492365545073e-03 3.98987489140079348e-03
2 1 -7.89133430080255459e-03 -1.60719058006972737e-03 2.11066375625753831e-02
3 1 1.22052747540476614e-02 3.64128934120533333e-03 1.34759205995630942e-02
4 1 5.32799185781768735e-03 -9.39946499485163831e-03 -9.72146874571060832e-03
5 1 -1.49250424788449328e-03 -3.35665061581904471e-03 8.79757764267488293e-03
6 1 -3.11841523662915749e-03 8.18321262039333093e-03 -5.74604825914943728e-03
7 1 1.51923786672822554e-03 -4.87383994032608917e-03 -6.09981195399983498e-03
8 1 -1.60062747160643129e-04 1.28394185321931316e-02 -1.98413477367742489e-03
8
Step 10000
1 1 -6.64188346899270352e-03 8.14754206201012861e-03 1.47078202112310985e-02
2 1 -8.56409124536655110e-03 8.00245784915294169e-03 1.48907647936985903e-02
3 1 9.43965284481224076e-03 1.16736701825522239e-02 1.26203399297007014e-02
4 1 -7.74245607984260821e-04 -3.84867376890817231e-03 -2.23073156825354720e-03
5 1 -6.29159183620376251e-03 6.77613859211605076e-03 1.10636363202451949e-02
6 1 2.90592189164939245e-03 -1.89998497620425780e-03 -1.04019453618506650e-02
7 1 3.21684690016960356e-03 3.09043109671866458e-03 -2.10584525256582878e-03
8 1 9.51990149402168542e-03 6.97773166306921155e-03 -7.34741626957954776e-03
8
Step 11000
1 1 -1.08754844754406135e-02 4.20534563247010589e-03 1.90378204519536347e-02
2 1 -4.62252680958403443e-03 1.41632642214258777e-02 2.66296620242129252e-03
3 1 4.69334746787724612e-03 1.39206697153766001e-02 7.98614270966195930e-03
4 1 -4.57182401981697049e-03 1.95393374724247681e-03 4.42032351830953709e-03
5 1 -7.14894578587411001e-03 1.36301368520499490e-02 9.91574757985093369e-03
6 1 7.91366346913398994e-03 -1.05941695765239870e-02 -1.03229071055491450e-02
7 1 4.88989699469211548e-03 7.99928242892817415e-03 1.38044413448081015e-03
8 1 1.36946219461168018e-02 -1.43573648412489746e-03 -1.06184283391167755e-02
8
Step 12000
1 1 -1.00115463582648272e-02 -4.11953118087564688e-04 1.49301947957237533e-02
2 1 2.51860900683506094e-03 1.38306876931842682e-02 -1.13875656071860381e-02
3 1 -9.87522882952031594e-04 1.00757550293795912e-02 8.09470073561410828e-04
4 1 -5.30501765874696711e-03 5.88952533442526748e-03 8.56025260014106268e-03
5 1 -4.60820194426856018e-03 1.48538204668420982e-02 5.24410164485700301e-03
6 1 1.05463780551139329e-02 -1.38318084416072067e-02 -5.59275180886627862e-03
7 1 6.04415554967497985e-03 8.80139640100694245e-03 2.85150148179389102e-03
8 1 1.17358001702433986e-02 -8.23369511630512446e-03 -1.05331269545958593e-02
8
Step 13000
1 1 -4.55151106590650622e-03 -3.71174523150674153e-03 5.12226578192457888e-03
2 1 1.00521746815279648e-02 7.79315907248547598e-03 -2.25455783204608212e-02
3 1 -6.32722608732298828e-03 2.01504193954202835e-03 -6.70725920191595198e-03
4 1 -3.50109030063533531e-03 6.91225797989340057e-03 9.71772927317140871e-03
5 1 -7.19356364880134993e-04 1.05231347376057559e-02 -1.47211857406197473e-03
6 1 9.68924854067178092e-03 -1.05217797103911836e-02 1.04745556883756329e-03
7 1 5.93279089135182250e-03 6.12220674034299334e-03 1.93819503245932926e-03
8 1 6.11735060371426057e-03 -1.08838563514427750e-02 -7.00448946619275977e-03
8
Step 14000
1 1 2.61797201479816105e-03 -4.53584973609795754e-03 -6.22276428739722710e-03
2 1 1.36698261259771397e-02 -8.72799614805533797e-04 -2.48445266789933394e-02
3 1 -9.94399431405191409e-03 -7.01604316681382970e-03 -1.22193323759339570e-02
4 1 -5.28207021575495669e-04 5.05823374646470134e-03 8.44161002065012614e-03
5 1 2.17032610422946770e-03 2.82991474634899107e-03 -7.83033879460343779e-03
6 1 5.73851896870075998e-03 -2.61968609441495890e-03 6.07064646553762046e-03
7 1 3.99253005655856273e-03 1.76973575148985443e-03 -6.08531441399247169e-04
8 1 -1.53217713207096422e-05 -9.47846024276460461e-03 -1.10141344827532342e-03
8
Step 15000
1 1 8.46872338541569854e-03 -2.61504799422365708e-03 -1.48929717244180703e-02
2 1 1.05861961946353313e-02 -8.18195949868606373e-03 -1.63770018769426977e-02
3 1 -1.05590774847790364e-02 -1.29233715459764475e-02 -1.36914935258548032e-02
4 1 1.94905635845482247e-03 1.26729707877426155e-03 5.73703550041481259e-03
5 1 2.36131153369150033e-03 -5.20561314620351500e-03 -1.14308403249728258e-02
6 1 8.61734098871769645e-05 6.37306784662385745e-03 7.43630790501987726e-03
7 1 2.48720749438863849e-04 -2.14254705286583309e-03 -3.31413979240480173e-03
8 1 -4.74169368568660120e-03 -5.44245013749097666e-03 5.72238529332205065e-03
8
Step 16000
1 1 1.06102152120148546e-02 6.66031126436729339e-04 -1.70762202172186003e-02
2 1 2.68230928656030664e-03 -1.09535892650662586e-02 -2.17113294636089122e-03
3 1 -7.94255323504113216e-03 -1.29074678868233723e-02 -1.02834792969649057e-02
4 1 2.65961179630259817e-03 -2.90625614571990301e-03 2.46249600945883801e-03
5 1 1.42828121407471172e-05 -1.02176175896520113e-02 -1.05549722473861178e-02
6 1 -5.77039402534155251e-03 1.22128628342402252e-02 4.67150637404689650e-03
7 1 -4.58694290198294850e-03 -3.96951800369820494e-03 -4.61370559785746152e-03
8 1 -7.17593403983651963e-03 -4.56595597318146620e-04 1.16508183319935944e-02
8
Step 17000
1 1 8.25040711587537307e-03 2.78042408521449180e-03 -1.21754060740231554e-02
2 1 -6.12386589794155188e-03 -8.54628870313433806e-03 1.12897422341531953e-02
3 1 -3.30087943416644070e-03 -7.77685821956991107e-03 -3.27615440117466107e-03
4 1 1.37587756720004731e-03 -5.61180364931902591e-03 -7.41009910524778777e-04
5 1 -2.79158791888023004e-03 -1.03717336288241466e-02 -5.36809148755105353e-03
6 1 -9.86265835720348191e-03 1.21395965978917057e-02 -7.65125811680141357e-04
7 1 -9.00486245832684065e-03 -3.12297485908124206e-03 -3.48816702827030615e-03
8 1 -7.10103411185595938e-03 3.76891272508751230e-03 1.44342350278026527e-02
8
Step 18000
1 1 3.09930335696045412e-03 2.10940008473253912e-03 -3.15440022318442398e-03
2 1 -1.19637919406559209e-02 -3.37037612113708258e-03 1.89691848564821804e-02
3 1 1.80550501513907207e-03 -1.02426635876049499e-04 4.65319162398802368e-03
4 1 -1.24573058001542438e-03 -5.58410698407089869e-03 -3.46106123629199864e-03
5 1 -3.73747551071137865e-03 -6.46722840116759068e-03 1.88978766731295856e-03
6 1 -1.03737442557128301e-02 6.71761506453663094e-03 -5.52664237047431530e-03
7 1 -1.10729496382475576e-02 -4.03899412220832654e-04 1.47743884299590678e-04
8 1 -5.24558094028152420e-03 6.03613675999661609e-03 1.20705674575819107e-02
8
Step 19000
1 1 -2.14527253562632209e-03 -1.46839273406660915e-03 6.35942281744630768e-03
2 1 -1.17726083429465101e-02 1.19224063220078674e-03 1.79984726661174578e-02
3 1 6.16151479015587551e-03 7.86062515191078386e-03 1.07634005783805303e-02
4 1 -4.05009049396228178e-03 -2.63752087126189897e-03 -5.52345591904861936e-03
5 1 -1.84342851354301045e-03 -9.64420085128952511e-04 8.11881364429474506e-03
6 1 -7.20258713709125663e-03 -1.51524842094853045e-03 -6.61388247462548449e-03
7 1 -9.34496758691002842e-03 2.45291657206620460e-03 5.18360976434871154e-03
8 1 -2.74094924337163351e-03 6.18630746712093595e-03 4.43118245963997851e-03
8
Step 20000
1 1 -5.27960889020628529e-03 -6.67899059017085846e-03 1.29319709764457186e-02
2 1 -6.24062343593537010e-03 3.39281171852667384e-03 1.02982203177129656e-02
3 1 8.22700252656242449e-03 1.28480396763165135e-02 1.28596621904095952e-02
4 1 -5.59564878296124439e-03 2.18611248857068395e-03 -6.86161938306970292e-03
5 1 2.40370290349558582e-03 3.98243772985186484e-03 1.07603829220890620e-02
6 1 -1.57491990573529290e-03 -9.03488036962613733e-03 -3.36120757301729871e-03
7 1 -3.82070908382825362e-03 3.71560337156316917e-03 9.57830848683427841e-03
8 1 -1.38052938559906334e-04 4.85033749952526374e-03 -6.07674541007926887e-03
8
Step 21000
1 1 -5.47949238166745966e-03 -1.04524994937295317e-02 1.39751348302398198e-02
2 1 1.05120796094963537e-03 3.24335287476357160e-03 5.77392634562165865e-04
3 1 7.27146951796159551e-03 1.26006340388770694e-02 1.01518231000873160e-02
4 1 -4.73227956790893325e-03 6.88349529323923487e-03 -7.15050530335499535e-03
5 1 6.92053888746638202e-03 6.14659458919277098e-03 8.49981830153809063e-03
6 1 4.65712352546546627e-03 -1.21465270982307541e-02 2.80580243090415918e-03
7 1 3.90188982702027645e-03 2.32164806796654249e-03 1.11174589508326802e-02
8 1 2.31349884543435944e-03 2.97339302583676628e-03 -1.54979080691788375e-02
8
Step 22000
1 1 -3.50850179537143822e-03 -9.58043793234478018e-03 9.47583525801760224e-03
2 1 7.07902422138044149e-03 1.33294776573068775e-03 -7.37810159751590804e-03
3 1 4.30525789734431327e-03 8.08542949547453454e-03 3.86704801002996047e-03
4 1 -1.56506066310612259e-03 9.23103831105159985e-03 -5.94902753975314232e-03
5 1 8.81275344294846566e-03 4.84183060937862925e-03 2.30997372318331867e-03
6 1 9.15599014029028907e-03 -9.54083150713315974e-03 8.83828903955547959e-03
7 1 1.10493410340852440e-02 -1.37566759399883613e-03 8.46531766333535711e-03
8 1 4.14437752436390937e-03 1.44434258521957543e-03 -1.97331912151480979e-02
8
Step 23000
1 1 -1.29431516302298778e-03 -3.07993518099030804e-03 1.93122259536232174e-03
2 1 9.47054388152503493e-03 -5.30755003769471114e-04 -1.09034507047660687e-02
3 1 8.61057271079006823e-04 1.39221633330196106e-03 -3.48589809572211152e-03
4 1 2.92478649136626535e-03 7.67852183636438205e-03 -3.33636424998743188e-03
5 1 6.52004817910597449e-03 1.40760006317094564e-03 -4.94563454219147831e-03
6 1 9.90375667259906639e-03 -2.90819692885210595e-03 1.11687735339568890e-02
7 1 1.44886492400458748e-02 -5.47742417294046213e-03 1.65499359201764151e-03
8 1 5.30280656436363414e-03 4.09023147367795650e-04 -1.61401893657594810e-02
8
Step 24000
1 1 -3.47321688230695568e-04 7.43051881578085313e-03 -5.69984364174108867e-03
2 1 6.98768342746317224e-03 -5.68422472194925915e-04 -9.22595651946250643e-03
3 1 -2.00252685803718744e-03 -5.94014543240326941e-03 -9.07979882401515129e-03
4 1 7.51474311198062263e-03 2.15028836239323238e-03 3.12533550722586388e-04
5 1 7.57774886459914167e-04 -2.12134941819461676e-03 -9.92037937702414975e-03
6 1 6.53063247166609049e-03 4.62029695996471045e-03 7.78997951876576455e-03
7 1 1.23000952780200207e-02 -7.47397437838754047e-03 -7.36672579586073774e-03
8 1 5.72867391657810518e-03 -6.30749369260893023e-04 -5.82495182412384651e-03
8
Step 25000
1 1 -1.08335719312409751e-03 1.82070641267299757e-02 -1.09086756941651642e-02
2 1 1.08825765800809791e-03 1.04240124799775762e-03 -4.07956741270677509e-03
3 1 -3.30311222683062327e-03 -1.14470243848453536e-02 -1.08151190165939656e-02
4 1 1.05490074847731565e-02 -5.67945384686198776e-03 4.54972003049164062e-03
5 1 -6.11413584622803787e-03 -4.14082377195441192e-03 -1.01623747443109914e-02
6 1 4.91928273723222457e-04 9.73294262478335316e-03 -3.37603829722514558e-04
7 1 4.97120549978803498e-03 -5.93433940048552610e-03 -1.51613086318449167e-02
8 1 4.92959215847726083e-03 -2.22242436417910806e-03 7.06225608872885352e-03
8
Step 26000
1 1 -2.69355714895411344e-03 2.35832691866116884e-02 -1.15147373624746099e-02
2 1 -5.03459391703351376e-03 2.86389841443030488e-03 1.75002647991008152e-03
3 1 -2.91399528206584026e-03 -1.30472026113149665e-02 -8.29415703614511633e-03
4 1 1.02879707796049817e-02 -1.27055973726806250e-02 8.39982307628857686e-03
5 1 -1.08914178311702164e-02 -3.40759028929457902e-03 -5.16193836266227394e-03
6 1 -5.72068298859239235e-03 1.00431115581107663e-02 -9.93499515865910524e-03
7 1 -4.51381694897146080e-03 -1.06620014164543085e-03 -1.83151373177216428e-02
8 1 2.52753611065917316e-03 -4.52865424503238589e-03 1.74858202618531598e-02
8
Step 27000
1 1 -3.24840510366888229e-03 1.91178220824711233e-02 -7.25915485940333959e-03
2 1 -8.51495480470263605e-03 3.71619614369151979e-03 5.92793075907176864e-03
3 1 -1.81870582686468295e-03 -1.07122205848604046e-02 -2.82232158972886256e-03
4 1 6.15862620568729483e-03 -1.54619913396679791e-02 1.03372754773913209e-02
5 1 -1.10844884138110149e-02 -1.25127943022868259e-04 3.12268618431242899e-03
6 1 -9.39860515971409176e-03 5.52075161820471654e-03 -1.66930390036284133e-02
7 1 -1.19642796902691747e-02 5.11425144910527228e-03 -1.50328373076695186e-02
8 1 -1.10924496438533364e-03 -6.92187875774134213e-03 2.08505024920113170e-02
8
Step 28000
1 1 -1.18311720036659053e-03 5.47452976268147668e-03 -5.86244343991476667e-04
2 1 -7.62249123694733622e-03 2.71228551872462016e-03 6.57630860787560435e-03
3 1 -1.18893708478116597e-03 -5.39454428713169714e-03 3.33740017727003277e-03
4 1 -7.83966809932497679e-04 -1.19918638089881804e-02 9.57314432516917849e-03
5 1 -6.37438126820481354e-03 4.02643816309248941e-03 1.09188552236868797e-02
6 1 -8.65656354322892271e-03 -1.41361430421745276e-03 -1.69069837339608058e-02
7 1 -1.38552874030111114e-02 9.62761564124061525e-03 -6.01242351681642584e-03
8 1 -4.90247500981341646e-03 -7.99144962328975604e-03 1.54565414732254231e-02
8
Step 29000
1 1 3.35328377780805785e-03 -1.24949782676371853e-02 5.62913400821334672e-03
2 1 -2.49328289597612694e-03 -2.16314400621263244e-04 3.53194279620392413e-03
3 1 -1.55713622542430117e-03 1.85732486988485429e-03 7.59526033841839351e-03
4 1 -8.51426554462052232e-03 -3.07992385898947290e-03 6.31975414805664194e-03
5 1 1.26469982069694876e-03 6.82365695136526781e-03 1.41187033506105231e-02
6 1 -3.62113293663716062e-03 -7.25282624040628904e-03 -9.68915394689463111e-03
7 1 -9.50564373949850522e-03 9.96227246242724351e-03 5.66435331892971294e-03
8 1 -7.41522872681330426e-03 -6.57085116040873485e-03 4.17666622682176959e-03
8
Step 30000
1 1 8.55320509941427318e-03 -2.78381666353413604e-02 9.29378289265282188e-03
2 1 4.69190406251475053e-03 -3.71152960479513615e-03 -1.41467404676349465e-03
3 1 -2.79269136088634634e-03 9.11371506686199477e-03 8.21514289497137819e-03
4 1 -1.45724510866484715e-02 8.24170385222855115e-03 1.23942895050161653e-03
5 1 8.18806399922273644e-03 6.31754751822114977e-03 1.04117776816249497e-02
6 1 3.52497135310219029e-03 -9.29451789793456391e-03 2.43519178389382850e-03
7 1 -1.14880369749856075e-03 5.85291832730989916e-03 1.56748402176677300e-02
8 1 -7.58906304019908544e-03 -2.41970288193876955e-03 -7.76290996660306508e-03
8
Step 31000
1 1 1.10174914181981193e-02 -3.17141015748903937e-02 8.63098789787057966e-03
2 1 1.04003179988667541e-02 -5.92986320910653640e-03 -5.76696088584394313e-03
3 1 -3.77411000242791270e-03 1.40306346317777327e-02 5.19158777714395607e-03
4 1 -1.63594393757674900e-02 1.75285997866501363e-02 -4.58395418158270406e-03
5 1 1.07816405187218280e-02 1.97312588494637101e-03 9.35293162910551495e-04
6 1 9.66706776600530573e-03 -6.48403917209812008e-03 1.49840638823585427e-02
7 1 7.27862923983740428e-03 -7.12018416776011515e-04 2.02692700391805813e-02
8 1 -5.12029799892566809e-03 3.62142375145883214e-03 -1.54451562834012259e-02
8
Step 32000
1 1 8.23387777236936867e-03 -2.11580287865394470e-02 4.25068975031546708e-03
2 1 1.12871119163710128e-02 -5.47717974330938061e-03 -7.58416923864937628e-03
3 1 -3.11178421907223153e-03 1.51699241488857141e-02 2.33754017049613293e-04
4 1 -1.22681576443486300e-02 2.01626543883676630e-02 -9.34916926548302364e-03
5 1 7.84237952240578705e-03 -4.61009790196009826e-03 -1.03109399521574378e-02
6 1 1.15432595961962193e-02 1.31537544317007277e-04 2.26115190091750427e-02
7 1 1.14585943103141605e-02 -6.54818801669838045e-03 1.78094988613458939e-02
8 1 -6.33646629889984218e-04 9.48693361557634285e-03 -1.59621741578179835e-02
8
Step 33000
1 1 1.58383794688634933e-03 -3.32734930769447651e-03 -8.66270636442988845e-04
2 1 6.44605950657057593e-03 -2.33363732320944137e-03 -5.77750887479080641e-03
3 1 -3.38257613210159527e-04 1.18465361972094861e-02 -4.35320576836821169e-03
4 1 -3.56133715175623380e-03 1.46154197174649496e-02 -1.14320077660043963e-02
5 1 1.11855648165418132e-03 -1.02793877564026394e-02 -1.80008037921629005e-02
6 1 7.41642436507163917e-03 6.94707799773879465e-03 2.10368776747734132e-02
7 1 9.12273662067165231e-03 -8.92235505617172339e-03 9.69722435998410758e-03
8 1 4.14811457665831274e-03 1.26012698985405909e-02 -9.77669293286145130e-03
8
Step 34000
1 1 -5.79761749071008685e-03 1.29833045173566655e-02 -4.54450520914638674e-03
2 1 -2.34661986338650149e-03 2.14119443317020101e-03 -6.90627778402678333e-04
3 1 4.18268947124634128e-03 4.19500248051603904e-03 -6.77626828740222377e-03
4 1 6.31483076839671649e-03 3.61835201751347464e-03 -1.05261555518624487e-02
5 1 -5.62215019107401102e-03 -1.16813763308283806e-02 -1.75662843741334063e-02
6 1 -8.62949578134625901e-04 9.88499861796229493e-03 1.07876694137012934e-02
7 1 1.86040949290717898e-03 -7.06214790181805031e-03 -6.57676660681987360e-04
8 1 7.06184578508387874e-03 1.13616991415392676e-02 -3.83760276041787273e-04
8
Step 35000
1 1 -1.08006693804617807e-02 2.16372435604912094e-02 -5.77095605880612733e-03
2 1 -1.17654346411188021e-02 5.44881231455527672e-03 5.62578049768116401e-03
3 1 9.46918020037549810e-03 -6.09490467999169051e-03 -5.69647684790752003e-03
4 1 1.39366085794440670e-02 -8.35969127799015936e-03 -7.21806924329766557e-03
5 1 -8.35069424001599198e-03 -7.45217337717428863e-03 -8.86731938943293579e-03
6 1 -9.69557395038263790e-03 7.44219745709636706e-03 -3.45397152561669613e-03
7 1 -6.45016580845066047e-03 -2.35160245503796472e-03 -9.58578954911440233e-03
8 1 6.93552783770441748e-03 6.06768678611156742e-03 7.29879948529872473e-03
8
Step 36000
1 1 -1.11547245251808567e-02 1.99831033315072473e-02 -4.45171527500223211e-03
2 1 -1.72279525741737549e-02 5.61237047275765788e-03 1.01800910074664828e-02
3 1 1.26910120172938276e-02 -1.57856523559122899e-02 -1.12043060118456996e-03
4 1 1.66419743847212726e-02 -1.65380017034533963e-02 -2.46251078291284198e-03
5 1 -5.48834420259307256e-03 6.47807214956856920e-04 3.64929199406279414e-03
6 1 -1.53656913109924114e-02 5.16059304505714074e-04 -1.60359658617093594e-02
7 1 -1.16894519497104995e-02 2.62247465542108423e-03 -1.43218500118730292e-02
8 1 4.14437317991950792e-03 -1.24981629868536805e-03 9.84750805081145708e-03
8
Step 37000
1 1 -7.12725526170476711e-03 1.17521474853125776e-02 -2.23069464249372887e-03
2 1 -1.51049966551403542e-02 2.62451864054240053e-03 1.12267948542749026e-02
3 1 1.05387511349121100e-02 -2.12398254467088786e-02 4.56828558469614485e-03
4 1 1.33532675465140738e-02 -1.74574671017392567e-02 2.50449578800638608e-03
5 1 1.23387717224703194e-03 9.15078626665001386e-03 1.43447117084349682e-02
6 1 -1.42591494452079925e-02 -7.78552034682811287e-03 -2.16908830463687953e-02
7 1 -1.10617364888918757e-02 5.27957980769049907e-03 -1.40257612099422089e-02
8 1 9.08207227383264900e-05 -7.77097976323452237e-03 7.37200748590656051e-03
8
Step 38000
1 1 -1.07775154828141967e-03 2.62740185099965759e-03 -1.41678574653770134e-04
2 1 -5.71911098287207487e-03 -1.78459956367418501e-03 8.38070367191568431e-03
3 1 2.80957903101279908e-03 -1.94918041858802293e-02 7.66934638261175007e-03
4 1 6.04761847886938278e-03 -1.16370927588407194e-02 6.26057539752034129e-03
5 1 7.62700439130092195e-03 1.39326652273509283e-02 1.87304149591019341e-02
6 1 -5.88945249119428825e-03 -1.24718428004053656e-02 -1.78088223303966148e-02
7 1 -4.56347256242092218e-03 4.57114024085398998e-03 -9.97294204773640017e-03
8 1 -3.47780355686703058e-03 -1.10365589935920109e-02 2.12968492477040366e-03
8
Step 39000
1 1 4.61419285165999733e-03 -3.95065621468599758e-03 2.18673574437382601e-03
2 1 7.47754965688248244e-03 -5.61239287667988224e-03 1.95184723883373343e-03
3 1 -6.98766790089944134e-03 -1.02682232370349211e-02 6.46522984270852911e-03
4 1 -1.64197828260844391e-03 -2.97619008306529475e-03 8.33321173977072914e-03
5 1 9.60650552228559454e-03 1.23372972681898858e-02 1.50717747102926628e-02
6 1 5.14664998481543200e-03 -1.02489217990700786e-02 -7.68681061775709079e-03
7 1 4.73578608719877822e-03 1.41004799762905466e-03 -4.16536853310938565e-03
8 1 -5.08820082285679157e-03 -1.00147416593466647e-02 -3.08448359222511775e-03
8
Step 40000
1 1 7.98520856877126504e-03 -6.65680414148257533e-03 4.48746310652936402e-03
2 1 1.99657814211184267e-02 -6.34768440194900460e-03 -6.23179004334037910e-03
3 1 -1.58413380277700987e-02 3.63619815683705397e-03 1.43163791406970093e-03
4 1 -7.28394043057408683e-03 4.91616027881174467e-03 8.87401355264282564e-03
5 1 6.11055526668120245e-03 5.43392561255372653e-03 5.92778390444360405e-03
6 1 1.44217001909219839e-02 -2.60617854903316595e-03 3.21193569349694039e-03
7 1 1.25687367243020858e-02 -2.08814316060424929e-03 1.25046938535145207e-03
8 1 -4.08639868787453054e-03 -5.71813493153729233e-03 -5.27022259188785012e-03
8
Step 41000
1 1 7.95290637129578148e-03 -5.41579613526566982e-03 5.57483573263831134e-03
2 1 2.54449142073245246e-02 -2.21947790054061785e-03 -1.20476040651732730e-02
3 1 -1.99323199106032148e-02 1.64729993466454019e-02 -5.40352193192388062e-03
4 1 -9.87008035564472357e-03 9.97433909328004562e-03 7.99630087837110461e-03
5 1 -1.24670444914537449e-03 -3.50543692707770953e-03 -4.12015833366533805e-03
6 1 1.87405188740850555e-02 6.75368629329848712e-03 1.03343719587238939e-02
7 1 1.54298259333455635e-02 -3.90007661547234728e-03 4.80055184545776208e-03
8 1 -1.51261342875838893e-03 -4.62686898579729256e-04 -3.64760419490226711e-03
8
Step 42000
1 1 4.14505031798291252e-03 -2.17442647048577504e-03 6.14152257961615450e-03
2 1 1.96530696312743891e-02 4.28048218004771844e-03 -1.33015767399843800e-02
3 1 -1.47015741132848522e-02 2.25843432502544454e-02 -1.03138797161130696e-02
4 1 -9.39338674434167346e-03 1.11691842385248617e-02 5.57401801352952562e-03
5 1 -9.26178539679487454e-03 -1.10337341043669178e-02 -1.06752247011287337e-02
6 1 1.53317378268208789e-02 1.34658565772059393e-02 1.11860778473450734e-02
7 1 1.21134600035351786e-02 -3.12653794338404621e-03 6.29551775605877856e-03
8 1 9.46954671349845359e-04 3.56975394276600388e-03 -8.36233382676728116e-04
8
Step 43000
1 1 -1.54244774682880145e-03 -2.26704597956441594e-04 5.04863592065093320e-03
2 1 4.65479629142815949e-03 9.02339258826215934e-03 -1.12067358325668651e-02
3 1 -1.94069006988310095e-03 1.94820785850409045e-02 -9.68819283640485335e-03
4 1 -6.47837639424108085e-03 8.31631966837502977e-03 1.69998142728724220e-03
5 1 -1.36295460143247577e-02 -1.35372338539726314e-02 -1.19909929234438151e-02
6 1 5.07026867841644559e-03 1.39607091390422742e-02 6.36642081350086934e-03
7 1 4.04088920282315821e-03 -3.21101192837134025e-04 6.28952193191916961e-03
8 1 2.93257734842686593e-03 4.81305670505339459e-03 2.94451241125592844e-03
8
Step 44000
1 1 -5.66214022878728900e-03 -1.32686237034967676e-03 2.23878717854092115e-04
2 1 -1.28291346043089526e-02 9.57601574145471555e-03 -6.04771670537469254e-03
3 1 1.06865707613735799e-02 9.66681900622923772e-03 -3.17508917677715441e-03
4 1 -2.68907076316926043e-03 2.68119782467951973e-03 -3.33153142653177907e-03
5 1 -1.13655101100916828e-02 -9.94808529179649383e-03 -8.86363041016330171e-03
6 1 -6.34622372917051456e-03 7.73135001209377358e-03 2.58674737414478679e-04
7 1 -5.71247692015187502e-03 2.88808776174327838e-03 5.41708177040690127e-03
8 1 3.53049035283197268e-03 3.45255097552409594e-03 5.33245726052415832e-03
8
Step 45000
1 1 -6.20773584644823510e-03 -4.29482819035568140e-03 -7.28134213651956876e-03
2 1 -2.53146763557084292e-02 4.67955639148930937e-03 1.18471574609921846e-03
3 1 1.81663133966418408e-02 -2.60774980939975330e-03 5.97264054301827486e-03
4 1 6.31611749799827608e-04 -3.52303405330466014e-03 -8.36777138724789302e-03
5 1 -3.85331259692501399e-03 -2.66358773622157787e-03 -3.88462623655306529e-03
6 1 -1.47732150900168231e-02 -1.44746911294761898e-03 -3.24137531595132576e-03
7 1 -1.36440296733767435e-02 4.76794896924270968e-03 4.27869852657392948e-03
8 1 2.33591830762078798e-03 1.13897361453580911e-03 3.96987653023403008e-03
8
Step 46000
1 1 -3.90540182523603204e-03 -7.02771345630832760e-03 -1.26398623716486355e-02
2 1 -2.61591568236016515e-02 -4.58179298423935354e-03 6.11330113781842314e-03
3 1 1.80150656207887054e-02 -1.13311082912887495e-02 1.28843316738914831e-02
4 1 2.28040495302354092e-03 -8.11644725233160412e-03 -1.15396888706929424e-02
5 1 5.38886153121649874e-03 5.18420909043415534e-03 7.99997967326802201e-04
6 1 -1.79844960567601894e-02 -9.18200848565462087e-03 -2.95823104493294058e-03
7 1 -1.70794289904129017e-02 4.47004333057566920e-03 2.99803741421024103e-03
8 1 4.51631511009311065e-04 -2.77905140925789704e-04 9.71428708678615340e-05
8
Step 47000
1 1 9.62917792857016135e-04 -7.19019691947951709e-03 -1.47024827219761050e-02
2 1 -1.67914191012878862e-02 -1.19336951187557737e-02 8.11195693930996664e-03
3 1 8.92741822910807226e-03 -1.31598746707939761e-02 1.37828440681806701e-02