8
Step 0
1 1  4.052544475837e+02  -1.675809854899e+02  -1.674253473881e+02 
2 1 -3.252733251822e+02  -4.058306801299e+02   3.449496393584e+02 
3 1 -3.298276480734e+02  -2.315521310585e+02   3.857067433746e+02 
4 1 -2.368981464688e+02  -6.011436389706e+01   2.908889807614e+02 
5 1  3.310611029335e+02  -2.496222871887e+02   2.526020779567e+02 
6 1  6.607347117330e+02   6.752227081102e+02  -2.237105605333e+02 
7 1  2.971175608438e+01  -3.328807514274e+02  -4.215876651945e+01 
8 1 -9.995323181877e+01  -4.043738968622e+02   4.440375091108e+02 
8
Step 1000
1 1 -3.888907549957e+02   2.188228825345e+02  -1.649755971428e+02 
2 1  5.712023653606e+01   1.936596241827e+02  -1.582833843785e+02 
3 1  1.745645459843e+02  -1.217296893974e+02  -2.558495976644e+01 
4 1  1.768125450326e+02   1.739968109550e+02   1.599753544067e+02 
5 1  5.276107253742e+01   4.275510325043e+02  -2.888848142404e+01 
6 1 -8.461578137697e+01  -3.755136955787e+02  -1.665681237648e+02 
7 1 -1.151182567561e+02   3.255840148398e+01   1.929999606613e+02 
8 1 -3.393825002507e+01  -4.791148911254e+02  -1.854488285448e+02 
8
Step 2000
1 1 -3.896612611078e+01  -1.231974712756e+02  -2.271153350354e+02 
2 1 -1.466963298964e+02  -1.966583822613e+02   3.661019849887e+02 
3 1  2.623951549587e+02  -2.066575662833e+01   2.119833697946e+02 
4 1 -2.109714001702e+02  -2.446625396692e+01  -6.668818083608e+02 
5 1  1.761735323668e+02   7.934042305735e+01   3.337859247030e+02 
6 1  1.967568036763e+02  -5.349981588297e+01   7.267172115324e-01 
7 1  2.217246068272e+01  -3.349997615476e+02   2.586231351429e+02 
8 1  6.538920817458e+00   1.642640675234e+02   3.141669349087e+01 
8
Step 3000
1 1 -1.598539779908e+02  -8.274389121437e+01  -7.853268013152e+01 
2 1  4.426032601423e+02   1.895491845111e+02  -3.267046178857e+02 
3 1  2.234811003312e+02  -4.706215315777e+02  -3.402414559611e+02 
4 1  4.785297720010e+01   1.524564535234e+02   1.901296746394e+02 
5 1  4.432939447866e+01   2.856294989774e+01  -3.647880285232e+02 
6 1  1.226396530688e+02  -7.566594924141e+01  -2.492011484408e+02 
7 1 -4.093459079422e+02   2.463548142776e+02   1.382589857590e+02 
8 1 -9.580303826344e+01  -6.495062931064e+01  -8.593594692396e+01 
8
Step 4000
1 1  5.264476854627e+02  -5.774805888404e+02  -3.399921738759e+02 
2 1  1.318590361362e+02  -2.968707726922e+02  -1.057468696494e+02 
3 1  1.719300340649e+02   2.023242901213e+02   1.103204913640e+02 
4 1 -3.556981862068e+02   9.553522864777e+01  -2.174995520924e+02 
5 1 -3.065844905801e+01  -9.125434141075e+01   4.555559321894e+02 
6 1  1.372320720347e+02  -1.760176955694e+02   1.397250901741e+02 
7 1  1.207628411823e+02  -8.313583175244e+01   3.094489785965e+02 
8 1  1.767744487551e+02  -4.214049110915e+01  -5.483021177784e+02 
8
Step 5000
1 1 -9.553882142313e+01   2.619730210154e+02   4.469019189159e+01 
2 1 -9.108036052642e+01  -1.287032138231e+02   6.552908005805e+01 
3 1 -1.418882015720e+02  -4.623128284408e+02  -1.483477109591e+02 
4 1 -8.019897220979e+01   6.285997082424e+00   2.674921415471e+02 
5 1  5.460085528905e+02  -1.857412262620e+02  -2.302730960019e+02 
6 1  4.239770959154e+02   4.026655725200e+02  -1.820521105077e+02 
7 1 -5.661458860448e+02   5.532497182008e+02  -4.988939085124e+02 
8 1 -1.311956634026e+02  -1.373734306474e+02   4.976032629858e+02 
8
Step 6000
1 1  1.703939593996e+02  -4.700412455896e+02  -1.633317953018e+02 
2 1  3.467216298020e+01  -8.175094673366e+01  -3.730749082536e+02 
3 1  2.403334857209e+02   4.885720622097e+02   3.072778715121e+02 
4 1  1.468366748507e+01   3.447255852091e+02  -1.133279682953e+02 
5 1  1.536536775198e+01   4.479932120637e+02   3.850672382060e+02 
6 1 -1.271694884261e+01  -5.803267437638e+02   9.090929954319e+01 
7 1 -2.757724558541e+02  -3.870194044703e+02   3.280973330990e+02 
8 1  1.900132598549e+02  -4.635433092229e+02  -3.288527214451e+02 
8
Step 7000
1 1 -3.617680456136e+01   2.774802055074e+01  -2.714427483615e+01 
2 1 -1.053483044283e+02  -1.768388790133e+02   2.944298773469e+02 
3 1 -1.778719257792e+01  -5.991368524950e+02  -1.903757144405e+01 
4 1  1.568256765696e+02  -2.044486543949e+02  -1.888752965749e+02 
5 1  3.441071709394e+02  -9.553467688069e+01  -2.015706653635e+02 
6 1 -1.206560262448e+02   3.855870753683e+02  -3.980225422634e+01 
7 1 -1.522796403283e+02   3.279908478525e+01  -4.663471127855e+01 
8 1  6.888903945864e+01   5.909486413899e+02   4.841286498238e+02 
8
Step 8000
1 1 -1.603861925448e+02   1.139470888493e+02   9.253687528678e+01 
2 1  2.446858237165e+02   2.006946794744e+02  -3.741540413180e+02 
3 1  3.385031047222e+02   4.070314828811e+02   7.949658270686e+01 
4 1 -1.445664055412e+02   3.373098185061e+02   1.457705512031e+02 
5 1 -3.998176527015e+02   2.654749375102e+02   3.248106482491e+01 
6 1 -2.534045618012e+02  -4.485080750547e+02   3.643362682052e+01 
7 1  1.539821367376e+02  -1.433771432080e+01   2.164269613337e+02 
8 1  1.393858811844e+02  -4.333004183269e+01  -5.615408258862e+02 
8
Step 9000
1 1  3.342788367600e+02   8.604668678916e+00  -1.841602823213e+02 
2 1 -1.697190924767e+02  -5.905743979906e+02   7.775779328588e+02 
3 1 -1.284936985393e+02  -3.225813480978e+02   2.080654012285e+02 
4 1 -3.740247192552e+02  -1.752639523717e+02  -1.903121443816e+02 
5 1  2.582678063951e+01  -2.584139121702e+02  -1.067301630479e+02 
6 1  2.124423770742e+02   1.686239975598e+02   1.849852524333e+02 
7 1  3.718919689066e+02   2.089164987746e+02  -1.091912427378e+01 
8 1 -1.163495726713e+02   2.941419579703e+02   4.884216682601e+01 
8
Step 10000
1 1 -1.556088358910e+02   2.641734920910e+02  -9.373422898255e+01 
2 1  1.201579127044e+02   2.472072497575e+02  -5.330648271182e+02 
3 1  1.441680518339e+01   2.040693604317e+02  -2.844728734773e+02 
4 1 -1.356095954542e+02   5.615644307970e+02   4.517133695789e+02 
5 1  2.959086221785e+02   6.830538550726e+01  -1.424354906885e+02 
6 1  3.451929460844e+02  -4.094946445912e+01   1.807617879217e+01 
7 1 -3.400193591729e+02   9.088181981639e+01  -2.488786788206e+02 
8 1 -1.714188478734e+02  -4.289017140575e+02   7.071764151974e+01 
8
Step 11000
1 1  5.524791961877e+02  -4.449198424642e+02  -2.288738506566e+02 
2 1  7.232361331761e+01  -3.102159455589e+02   2.331439142374e+02 
3 1 -3.186103650191e+01   1.005671791223e+02   4.273664358598e+02 
4 1 -1.134149037042e+02  -1.114231402529e+02  -2.757335335258e+02 
5 1  2.932749532933e+02   1.107587203459e+02   1.278556100119e+02 
6 1 -1.728256963923e+02  -3.156871472331e+02   3.201108513957e+02 
7 1 -6.222633748029e+02  -2.019992759533e+02   1.081314092802e+02 
8 1  2.355037762903e+02   1.097510465635e+02  -1.744182049817e+01 
8
Step 12000
1 1 -3.661025066305e+02   5.521680077254e+02   3.075077444926e+02 
2 1  1.722006552324e+01   2.864629741685e+02  -1.520352521073e+02 
3 1 -7.143911129438e+01  -2.371567566619e+02  -4.441300181148e+02 
4 1  1.766842532808e+02  -2.065907487834e+01   2.614867644828e+02 
5 1  3.382281008088e+01  -1.205726778285e+02  -2.223815510745e+02 
6 1 -2.490257321194e+02   7.714188414100e+01  -2.349587968076e+02 
7 1  4.532251989369e+02   4.823684945457e+02  -6.637517764123e+01 
8 1  1.584725882066e+02   1.977657178971e+02   1.680560355980e+01 
8
Step 13000
1 1  3.618920845451e+02  -1.621155714423e+02  -1.481161626810e+02 
2 1  1.557713528884e+02  -3.196573571643e+02  -6.591421355382e+00 
3 1  9.503648381774e+01   2.047210786750e+02   5.040868691589e+02 
4 1 -7.526008218248e+01   1.229466770254e+02  -3.278844770174e+02 
5 1 -3.452358061870e+02   2.679356352680e+02   3.394437135786e+02 
6 1 -1.153726241269e+02  -2.306687717903e+02   5.264803090161e+01 
7 1  4.202318361841e+02  -1.000385948529e+02   2.984736979271e+02 
8 1 -1.304376518672e+02  -1.204828564940e+01  -4.345792127227e+02 
8
Step 14000
1 1 -2.182832528240e+02   4.086917858472e+02   3.092390595413e+01 
2 1 -2.682581029559e+02  -9.474846496672e+01   3.197524828322e+02 
3 1 -1.565180805992e+02  -2.000317504474e+02  -4.383508948096e+02 
4 1 -2.827693678745e+01  -3.329728046207e+02   9.596920728504e+01 
5 1 -1.647967622154e+02  -2.655493230469e+02  -1.477326779285e+02 
6 1  3.940993087995e+02   2.343082593049e+02  -2.914460860311e+02 
7 1 -1.427265537189e+02   1.406263898377e+02  -1.675304824952e+02 
8 1 -2.143078883790e+02  -1.240598642995e+02   5.096560679573e+02 
8
Step 15000
1 1  2.088837526809e+02  -3.993474127313e+02  -1.232227905158e+01 
2 1  3.504380321762e+02  -4.840737649884e+01  -4.085156646216e+02 
3 1  2.906783982132e+02   5.182895892196e+02   1.940123786623e+02 
4 1 -8.125056985354e+01   4.050396440920e+02  -2.381420608835e+01 
5 1  2.650442229514e+02   4.690515812507e+02   2.894485942358e+02 
6 1  1.869437119047e+02  -1.724069292522e+02   1.455453627115e+02 
7 1 -3.172880826186e+02  -1.082977244677e+02   1.147833290460e+01 
8 1  3.766445001964e+02  -1.319123818934e+02  -2.490560424522e+02 
8
Step 16000
1 1  6.320738516178e+01   3.003633717791e+01  -2.004122375407e+01 
2 1 -3.110540879717e+02   2.497595014469e+01   5.807282122441e+02 
3 1 -2.709100990859e+02  -2.740505367802e+02  -1.694070201806e+02 
4 1 -2.347889963467e+02  -6.303517432058e+02   7.133557388211e+00 
5 1  1.701843254238e+02  -3.624829064886e+02  -2.222820661286e+02 
6 1 -6.273690074913e+02   1.963744853425e+02  -5.192709143798e+01 
7 1 -1.916539301065e+01   4.082834448387e+02  -4.214591974372e+02 
8 1  1.796920503232e+02   4.434471236100e+02   2.863296878380e+02 
8
Step 17000
1 1 -3.783358481745e+01  -5.086532871554e+01   1.099150703352e+02 
2 1  3.048542487266e+02   1.181889476681e+02  -3.725781340687e+02 
3 1  1.440472613044e+02   3.220883201418e+02  -1.272465823215e+02 
4 1  2.246580973262e+01   5.809378833488e+02   2.573007176265e+02 
5 1  4.048912221290e+02   5.552068565616e+02   1.732727114373e+02 
6 1  5.845094262911e+01  -8.153117369995e+01   1.468953402945e+02 
7 1  4.231155570886e+02  -2.535233895661e+02   8.088602415601e+01 
8 1 -3.270317084106e+02  -3.282593437269e+02  -4.949289670619e+02 
8
Step 18000
1 1  3.195441849100e+02  -6.067382437152e+01  -2.462745584931e+02 
2 1 -1.997521641034e+02  -2.718464114271e+02   3.058487589262e+02 
3 1 -3.672403428296e+02  -3.035349353491e+02   3.082478666323e+02 
4 1 -1.955966443948e+01  -4.037566217409e+02  -1.597303986249e+02 
5 1 -2.461123307670e+02  -1.007589828037e+02  -1.813382609683e+02 
6 1  3.473542598434e+02  -5.737227721088e+02  -2.446810702633e+02 
7 1 -3.215389269996e+02  -5.912061459545e+01   2.340864222059e+02 
8 1 -2.699047592802e+02   1.021341530972e+02   2.775362452219e+02 
8
Step 19000
1 1 -3.444207114381e+02   6.832033016897e+01   1.936158800748e+02 
2 1  9.368487714650e+00   1.641433101212e+02  -1.829238040666e+02 
3 1  7.690124091789e+01   2.911916626530e+02  -4.302594373678e+02 
4 1  2.746115023446e+02   4.797103244300e+02   2.759678498685e+02 
5 1  4.759282550127e+00   1.237659961578e+02  -9.607556735691e+01 
6 1  1.503780084787e+02   3.222102560976e+01  -1.766230261013e+02 
7 1 -4.977223430428e+02   3.517225811807e+02  -3.302807800800e+01 
8 1  1.155146355215e+02  -1.864864111038e+02  -3.118455714467e+02 
8
Step 20000
1 1  5.627095053334e+02  -5.398464578378e+02  -2.705444205595e+02 
2 1 -6.140890595690e+01  -5.195538441524e+02   3.419267523427e+02 
3 1  1.438953707369e+01   2.132432802128e+01   5.252014478313e+02 
4 1 -2.829856912756e+01  -3.033289586837e+02  -1.029172144292e+02 
5 1 -4.008429314954e+02  -1.052898338274e+02   2.413631398074e+00 
6 1  5.763777449130e+01  -6.361614534998e+01   1.517410736038e+02 
7 1  2.184680420478e+02   1.382348546463e+00  -2.218152811166e+02 
8 1  1.550659258951e+02   2.285526928141e+02   1.674410917316e+01 
8
Step 21000
1 1 -4.367222576567e+02   4.206159652026e+02   2.345945701365e+02 
2 1 -5.809644537319e+01   2.602099957263e+02  -9.687494434895e+01 
3 1  1.252837348324e+01  -1.711302649655e+01  -5.639880192149e+02 
4 1 -3.726661494974e+01  -3.272479123277e+02   5.174982976908e+01 
5 1 -1.864121121975e+02  -2.318432260257e+02  -4.049713015664e+01 
6 1 -4.327652751039e+00   6.584104856025e+02   3.109776496571e+01 
7 1  3.335643236691e+02   1.917972592817e+01  -3.255862968471e+02 
8 1 -7.187488663736e+01  -1.704354755068e+02  -1.613235719738e+01 
8
Step 22000
1 1  5.428658283463e+02  -2.770163549168e+02  -3.547802652258e+02 
2 1  2.775622345763e+02  -4.061865537478e+02  -8.738062863036e+01 
3 1  1.427865019516e+02   4.576344939754e+01   3.113784225009e+02 
4 1  1.548835357990e+01   3.216477953338e+02  -1.485264536453e+02 
5 1  1.363224829047e+02   5.893375085902e+02   1.886593898265e+02 
6 1  3.547473692839e+02  -2.309583685327e+02   2.338865461947e+02 
7 1 -9.612908651556e+01  -9.802633797224e+01   1.197598742296e+02 
8 1 -3.628905996161e+02  -1.211222752477e+02  -1.404815787539e+02 
8
Step 23000
1 1 -3.719177777009e+02   3.398964855100e+02   8.276641280298e+01 
2 1 -2.780013942823e+02   1.594636684732e+02   1.466008819899e+02 
3 1 -2.711467244599e+02  -2.175446202503e+02  -3.681537752356e+02 
4 1 -1.725420733203e+02  -2.223490417586e+02  -5.948987624973e+01 
5 1  3.091278264295e+02  -3.275500785018e+02  -2.877565444434e+02 
6 1  2.406661907533e+02  -1.138034726939e+02  -5.203705522327e+02 
7 1 -5.216852439810e+02   4.305689544358e+01   1.818190347207e+02 
8 1  1.895319233829e+02   2.711085556515e+02   1.483770141078e+02 
8
Step 24000
1 1  1.225313909597e+02  -2.288880938729e+02   1.501173463064e+01 
2 1  2.603631340911e+02  -1.795693798857e+02  -2.005463838688e+02 
3 1  3.030562469086e+02   2.609261121992e+02   1.293706387032e+02 
4 1  1.177316332838e+02   7.310927735045e+02   1.330179314584e+02 
5 1  3.718372422638e+02   1.604411032482e+02   1.186119187010e+02 
6 1 -2.567807741790e+02  -3.092861272327e+01   2.129498051235e+02 
7 1  2.727198476988e+01   6.021361758700e+01   2.220223076449e+02 
8 1  3.432580160214e+02  -1.600598077482e+02  -4.452218492003e+02 
8
Step 25000
1 1 -5.789303623108e+01   1.393355366937e+02  -2.853425736232e+01 
2 1 -6.258368089865e+02   2.575059405834e+02   4.180550301578e+02 
3 1 -2.712171901510e+02  -2.245053640115e+02  -8.128595859155e+00 
4 1 -1.895847872769e+02  -5.396841492507e+02  -2.082097456790e+01 
5 1  3.426656497432e+01  -5.167026217319e+02  -7.335542046153e+01 
6 1 -4.004269246011e+02   2.028951041157e+02  -9.769687543320e+01 
7 1  4.255184279030e+02   1.628817997738e+02  -2.329626522903e+02 
8 1  9.708734970554e+01   1.218887371975e+02   4.834441528291e+02 
8
Step 26000
1 1 -1.440460068484e+02   4.751696536981e+01   2.176409372102e+02 
2 1  2.955799512858e+02  -1.203621524618e+02  -3.814998171018e+02 
3 1  4.527995502049e+02   2.997102285648e+02  -1.910813620303e+02 
4 1  1.993671158110e+02   4.405828809902e+02   1.930138364346e+02 
5 1 -1.334659222673e+02   3.343387842448e+02  -3.672748056775e+01 
6 1  2.606312313431e+02   2.700312119166e+02   2.241908843139e+02 
7 1  3.414122721241e+02  -4.226039619750e+02  -9.839538527508e+01 
8 1 -2.792397713807e+02  -1.407536023948e+02  -2.060036094706e+02 
8
Step 27000
1 1  2.799097389769e+02  -1.120166351041e+02  -2.729622443460e+02 
2 1 -3.121482985232e+02  -4.410849140021e+01   4.271233032216e+02 
3 1 -3.676728675229e+02  -2.498868251886e+02   3.442230712290e+02 
4 1 -1.771467528791e+02  -3.054389118787e+02  -6.234983972008e+01 
5 1 -4.956213738252e+02   1.367441863561e+02  -1.181111307631e+02 
6 1  3.834184114773e+02  -1.203836051749e+02  -1.534744362234e+02 
7 1 -6.459294110239e+02  -3.009401783902e+02   5.395347760118e+01 
8 1  1.697148805275e+02   4.492665792016e+02   2.207776378894e+02 
8
Step 28000
1 1 -3.840299922726e+02   1.496659319615e+02   4.232770621823e+02 
2 1  2.566486491442e+02   2.228849845897e+02  -4.470014026896e+02 
3 1  2.103134127184e+02   1.826217016792e+02  -4.155659918804e+02 
4 1  1.638274669068e+02   3.201544872398e+02  -6.406815532319e+01 
5 1  4.735000422100e+02  -8.670085134638e+01   9.773080560956e+01 
6 1 -1.316739674454e+02   3.922243100221e+00  -1.031941359644e+02 
7 1 -3.343834073177e+01   2.609627208590e+01   2.337573791069e+01 
8 1  1.787698950952e+02  -1.280660444240e+02  -4.858329779453e+02 
8
Step 29000
1 1  5.622309583433e+02  -3.350684464464e+02  -4.612050801418e+02 
2 1 -4.244679046471e+01  -2.637578415722e+02   2.169445243070e+02 
3 1 -1.619521828910e+02  -2.432804018124e+02   3.066365004193e+02 
4 1 -8.774675555167e+01   5.555156555659e+01  -4.252150378774e+00 
5 1  2.381683840866e+01  -2.474344358259e+02   3.476047972606e+02 
6 1 -5.275490474275e+02  -6.240221562316e+01   2.192242316233e+02 
7 1  5.365768070538e+02   1.685620651943e+02  -9.003920857712e+00 
8 1  9.569096179876e+01  -9.235921925814e+01   2.620050390425e+02 
8
Step 30000
1 1 -3.654544732568e+02   2.038888980516e+02   3.119460105840e+02 
2 1 -3.108310403168e+01   3.203180635210e+02  -1.567910934945e+02 
3 1  1.542102703403e+01   5.686127590150e+01  -2.778934449383e+02 
4 1  5.032986252534e+01  -2.437549816329e+02   1.640995504355e+02 
5 1 -1.261113800682e+02   1.166714990747e+02  -3.071916462112e+02 
6 1  3.337540869530e+02   2.531073490234e+02  -6.879725374771e+01 
7 1  9.980132342177e+00  -2.698431285601e+02  -1.461676312436e+02 
8 1 -4.429790447242e+02   4.638508621703e+00  -1.054836524638e+02 
8
Step 31000
1 1  3.433565343497e+02  -3.098159588362e+02  -2.346842729657e+02 
2 1  1.763511918154e+02  -4.173069068101e+02  -1.367087727401e+01 
3 1  1.094465768789e+02   2.836587174156e+01   3.542482312466e+02 
4 1  1.865763498066e+02   2.910977362037e+02   1.342905461475e+02 
5 1  3.278338996584e+01   3.048760498023e+02  -3.378916758491e+02 
6 1  2.270300353899e+02   2.709053191461e+01   1.927818839869e+02 
7 1 -1.893993169953e+02  -4.179328332096e+02   8.476604485483e+01 
8 1 -1.454999619097e+02   1.527578846955e+02  -4.978357341555e+01 
8
Step 32000
1 1 -2.969046343373e+02   1.234252195110e+02   1.476253152284e+02 
2 1 -4.115825229931e+02   4.925520092845e+02   8.326877794281e+01 
3 1 -1.591024586147e+02   9.347539902211e+01  -1.860368889894e+02 
4 1  7.625482255460e+01  -3.983163446068e+02  -1.306008923843e+02 
5 1  5.060981046686e+01  -3.055105863359e+02  -1.136396835415e+01 
6 1 -2.486910198520e+02  -1.969049968905e+02  -3.541978364781e+01 
7 1 -1.097751438122e+02   3.582166916057e+02  -1.426999158916e+01 
8 1  1.219122656437e+02   7.905916971275e+01   1.048034324351e+01 
8
Step 33000
1 1  2.366673563024e+02  -1.850415086441e+02  -1.171422725811e+02 
2 1  3.640297950219e+02  -4.785038825068e+02  -2.484213809531e+02 
3 1  4.131688589578e+02   1.906016810344e+01   7.245961821020e+01 
4 1  3.382054681386e+02   3.612846676674e+02   4.176365366341e+01 
5 1  3.396984671269e+02  -5.798713557264e+01   3.917485222544e+02 
6 1 -3.582639770405e+02  -9.929892391906e+01   1.042716841769e+02 
7 1  4.110471469216e+02   1.681291439133e+02   1.492001230974e+02 
8 1  2.311262202121e+02  -3.727815471353e+02  -3.542960519749e+02 
8
Step 34000
1 1  6.159509807735e+01   1.342115855294e+02  -1.701755318661e+02 
2 1 -4.060868466423e+02   2.565012102005e+02   1.936894622226e+02 
3 1 -4.962823584373e+02  -1.008300484961e+02  -4.923914148738e+01 
4 1 -3.149245311969e+02  -5.507563073285e+02  -3.356223945348e+02 
5 1 -3.081545669973e+02   1.677139819442e+01   6.075970695823e+01 
6 1 -1.011418306040e+02   1.639020044185e+02  -2.731042205040e+02 
7 1  2.669094144559e+02   1.169091779362e+01  -1.167752643362e+02 
8 1 -2.654996588957e+02   2.243086946839e+02   4.593411345731e+02 
8
Step 35000
1 1 -8.039831252637e+01  -3.525335073952e+01   1.837921426863e+02 
2 1  4.002289574039e+02  -1.990448682550e+02  -2.899324530492e+02 
3 1  7.708930033669e+02   2.351649433982e+02  -2.368665044290e+02 
4 1  2.186812020173e+02   5.092835791291e+02   5.647995720497e+01 
5 1  3.454207790979e+02   1.322546781639e+02  -2.454625499893e+01 
6 1  6.899963079433e+02  -2.085745123711e+02   2.549535528705e+02 
7 1 -9.007140416834e+01  -5.013621006368e+02   6.030692700007e+01 
8 1 -2.452809643086e+02   1.264180464947e+02  -2.059627165197e+02 
8
Step 36000
1 1  3.621586167323e+02  -1.323387173805e+02  -5.330045209393e+02 
2 1 -3.511446925174e+02   2.150143790738e+01   2.699508016260e+02 
3 1 -5.064441365158e+02  -1.825461552133e+02   1.226094935320e+02 
4 1 -4.786537062219e+02  -4.273661356613e+02  -8.190477028754e+01 
5 1 -4.865755152138e+02  -3.673385150092e+02   9.509300888913e+01 
6 1  3.832976986595e+01  -1.937748975946e+02  -2.483098197111e+02 
7 1 -2.842275883723e+02   1.827198677817e+02   3.703790061203e+01 
8 1  7.194669754315e+02   4.486658654530e+02   6.088227761491e+02 
8
Step 37000
1 1 -2.596823081298e+02   1.131727882919e+02   3.223270838006e+02 
2 1  1.512374976031e+02   1.007984368208e+02  -2.414111740984e+02 
3 1  3.876917249207e+02   7.743170480892e+01  -3.412714634825e+02 
4 1  1.792500249570e+02   1.599395087069e+02   6.632572827615e+01 
5 1  5.358551016514e+02   1.949033406748e+02  -2.652685252007e+02 
6 1  2.287533603176e+02  -1.342798855543e+02   3.222304005957e+02 
7 1 -3.456213018207e+02   2.009481403618e+02  -7.347383677119e+01 
8 1  2.742589107674e+00  -1.855615584420e+02  -4.507015553256e+02 
8
Step 38000
1 1  3.933864133211e+02  -1.378377460913e+02  -4.623677062621e+02 
2 1 -8.299759723721e+01  -4.263465368652e+02   6.960009417741e+01 
3 1 -2.785399308479e+02  -2.249679714775e+02   1.819409403676e+02 
4 1 -2.702879899931e+02  -2.170924446529e+01   5.207669825116e+01 
5 1  5.725574128563e+01  -1.767932324048e+02   3.756926362939e+00 
6 1 -4.612080183702e+02   4.269817080398e+01  -1.649307269755e+02 
7 1 -3.436280683152e+01   2.352518027486e+02   1.669116807832e+02 
8 1  1.556018301469e+02  -9.394069736939e+01   1.761859055313e+02 
8
Step 39000
1 1 -5.563653261431e+02   1.973276415347e+02   6.642740460155e+02 
2 1 -7.901634175324e+01   3.089747512106e+02  -6.277972742184e+01 
3 1 -8.538537183935e+00   2.963508532563e+02  -2.443197087980e+02 
4 1  1.321599092972e+02  -1.474853505065e+01  -3.123111144757e+00 
5 1  2.228827929225e+02   2.196951748456e+02  -5.524188257743e+02 
6 1 -4.254396184614e+02   2.499167925635e+02   3.355763512863e+02 
7 1  2.493533389384e+02   5.089107899672e+01   1.387639487898e+02 
8 1 -3.344867601821e+02  -2.523635296113e+02  -4.599009085933e+02 
8
Step 40000
1 1  2.896118593650e+02  -1.578630315056e+02  -2.794499339128e+02 
2 1  7.459933276136e+01  -4.231652768356e+02  -5.504634708376e+01 
3 1 -5.670628625678e+01   5.364161300404e+00   2.180932151411e+02 
4 1  2.437317625952e+02   1.653505275502e+02   1.912508908857e+02 
5 1  1.398359624403e+01  -3.500661474935e+01   9.346099500636e+01 
6 1  2.682866821849e+02  -2.997003733844e+02   2.290357543047e+02 
7 1  3.578019743486e+02  -1.851740805775e+02  -1.078150199951e+02 
8 1 -1.554353139574e+02   9.736908695636e+01  -2.019811160598e+01 
8
Step 41000
1 1 -2.943476258144e+02   7.699128681771e+01   2.672697816523e+02 
2 1 -3.273128061155e+02   5.819348974921e+02  -3.386203454867e+01 
3 1 -5.126803511660e+02   2.266309971490e+02  -6.190213557762e+01 
4 1  1.960047568012e+02  -3.241518246676e+02  -2.669688426399e+02 
5 1 -5.176789364512e+02   1.837439394278e+02  -4.698716539598e+02 
6 1 -7.455366214649e+01   7.191518856922e+01  -6.791116585037e+01 
7 1 -2.814171146674e+02   1.742550404596e+02  -2.555633193415e+02 
8 1 -1.197357190737e+01   3.645442181251e+02  -5.480198327081e+01 
8
Step 42000
1 1  2.261002311414e+02  -8.901911408486e+01  -2.446690703218e+02 
2 1  4.571084187825e+02  -4.023073414663e+02  -1.190392375635e+02 
3 1  3.171636146885e+02  -4.437736169614e+02  -1.550305003779e+01 
4 1  4.035384495716e+02   3.774126941607e+02   1.466087140108e+02 
5 1  8.536348781163e+01   6.003514442875e+01   6.339560449371e+02 
6 1  5.423118623436e+02  -3.382039131787e+02   4.310272153391e+02 
7 1 -4.489381999223e+02  -4.677401019648e+01   3.717272857998e+01 
8 1  2.042253524753e+02  -4.722163869367e+02  -2.417898008335e+02 
8
Step 43000
1 1 -6.170610698116e+01   7.682448618324e+01  -2.411332622087e+02 
2 1 -3.817018835494e+02   3.375314738015e+02   2.234469435114e+02 
3 1 -4.532868259404e+02   8.986480743819e+01   1.137068738913e+02 
4 1 -3.004297832867e+02   3.830172894986e+01  -3.236935956348e+02 
5 1 -3.420118334513e+02   6.741962432091e+00   1.106628587475e+01 
6 1 -3.261622549311e+02   4.544267166952e+00  -5.584738023441e+02 
7 1  1.401243445129e+02   3.337227398182e+02   2.619467718745e+02 
8 1  3.627090255350e+01  -1.526635896703e+02   1.525923329893e+02 
8
Step 44000
1 1 -6.111291357034e+01  -8.462597408045e+01   3.849868743792e+02 
2 1  4.246262839161e+02  -1.619066120676e+02  -9.315376438179e+01 
3 1  3.303752633424e+02   2.396901978909e+02   7.930369747282e+01 
4 1  5.714792559418e+02   4.345847630880e+02   9.207736872078e+01 
5 1  4.982800275373e+02  -8.189920997470e+01   3.670643903510e+02 
6 1  1.730356349616e+02  -2.543082155747e+02   1.791422636923e+02 
7 1 -1.281375885338e+02  -3.707034545888e+02   4.190479881424e+02 
8 1 -1.163251241078e+02  -1.887195653331e+02  -6.490139243339e+02 
8
Step 45000
1 1  1.825089111401e+02  -7.899114190139e+00  -3.809002038754e+02 
2 1 -3.736931372864e+02   4.450812490782e+01   1.838907313738e+02 
3 1 -4.234431641331e+02   6.101316949441e+01   1.413578186347e+02 
4 1 -2.283198078786e+02  -2.029905127356e+02  -2.419732214035e+02 
5 1 -2.360369299915e+02  -8.595265166442e+02  -1.668340476040e+02 
6 1 -3.438137071481e+02  -8.809533641077e+01  -5.004869968579e+02 
7 1  1.022525459739e+02   2.866979993722e+02  -2.527711160185e+01 
8 1  1.515114001912e+02   1.881328334699e+02   9.247895577095e+01 
8
Step 46000
1 1 -1.606347252561e+02  -3.148776182245e+00   4.486390558501e+02 
2 1  2.357519489243e+02   1.327339320519e+02  -7.327435922343e+01 
3 1  3.895719807642e+02   2.204341348515e+02  -2.968777116542e+01 
4 1  6.853085729542e+02  -7.080183136906e+01  -1.051429218940e+02 
5 1  2.614366925417e+02   5.774248142631e+00   4.705229937956e+01 
6 1 -3.956660456916e+02   2.637841942314e+02   1.295346596415e+02 
7 1  8.961999903264e+00   3.733335518343e+00   3.461027652956e+02 
8 1 -1.893401033323e+02  -1.016171600635e+02  -2.396872962538e+02 
8
Step 47000
1 1  3.083772738888e+02  -2.312655731251e+02  -3.703358007329e+02 
2 1 -1.819740061401e+02  -3.214606137750e+02   9.724361527679e+01 
3 1 -1.329812276192e+02  -2.974844226273e+02   2.592224385579e+01 
4 1 -4.453477131404e+02  -1.829602824463e+02  -7.083239736440e+01 
5 1 -4.680228685578e+02   1.264169666968e+02   1.681260344417e+02 
6 1  3.007155999220e+01   3.004738873664e+01   1.233182007893e+02 
7 1  3.524852555709e+02  -2.204516660682e+02  -2.499017014542e+02 
8 1  3.196748269055e+02  -2.507594645903e+02   5.107350116044e+02 
8
Step 48000
1 1 -3.304230590496e+02   1.198857962838e+02   5.255186124098e+02 
2 1  9.628085586207e+01   4.552266187137e+02  -7.828656558228e+01 
3 1  1.892861526840e+02   5.232642580382e+02  -1.813303238926e+02 
4 1 -1.052618902995e+02   2.479099176479e+02  -1.650825061717e+02 
5 1 -3.824987170174e+02   3.365038952720e+02  -9.527650061175e+01 
6 1  7.207275227058e+01  -1.598597582347e+02  -6.702726937158e+01 
7 1  2.028301271768e+02   4.219280880395e+01  -2.289089140517e+02 
8 1 -4.168113759625e+02   1.505858262696e+02  -4.431003776274e+01 
8
Step 49000
1 1  3.326207760812e+02  -1.075400685127e+02  -2.927226646310e+02 
2 1  5.557080363403e+01  -6.101371526558e+02  -9.301437580366e+01 
3 1  1.089843893886e+02  -1.783150248185e+02   1.832285895929e+02 
4 1 -2.559397898538e+02  -1.899411624390e+02   9.419542697644e+01 
5 1  5.807404953905e+01  -3.489760790942e+01   6.529147990516e+01 
6 1  3.637443222664e+02  -5.048638918597e+02   3.624461988380e+02 
7 1 -1.142374955212e+02  -3.758735734497e+01   7.121839705133e+01 
8 1  8.307358044478e+01  -6.879045383252e+01  -1.993642213484e+02 
8
Step 50000
1 1 -7.016355703444e+01   1.847496610958e+02   7.389691660249e+00 
2 1 -1.195157225512e+02   5.637079886232e+02  -4.952474824325e+01 
3 1 -2.574941684132e+02   7.086759079537e+02  -1.161454668907e+01 
4 1 -9.870373017683e+01  -1.014628142166e+02  -3.628801400059e+02 
5 1  2.598890430235e+02  -3.212542639254e+02  -9.281929428416e+01 
6 1 -1.698415585516e+02   1.010454604913e+01  -1.859614048351e+02 
7 1 -9.807579525397e+01   4.125500228317e+02  -1.607314232549e+02 
8 1 -1.609091551531e+01   1.318090614088e+02   2.860889712072e+02 
8
Step 51000
1 1  2.902937396676e+02  -1.676556639600e+02  -1.622696458170e+02 
2 1  1.808737399013e+02  -3.410533182618e+02   2.288439968539e+00 
3 1  8.017267324843e+01  -4.761999035337e+02  -8.034967969909e+01 
4 1  2.532333020805e+02  -9.689165160046e+01   1.149419151063e+02 
5 1  2.013378822329e+02  -1.112367036578e+02   1.820671843624e+02 
6 1 -3.302504476695e+02   4.369300160696e+02   4.251432609094e+02 
7 1 -1.828613314269e+01  -3.345988041840e+02   2.805666970233e+02 
8 1  1.636584223150e+02  -4.380993417249e+02  -3.548720449462e+02 
8
Step 52000
1 1 -7.982175487192e+01   8.048917325099e+01  -8.636129212141e+01 
2 1 -3.315286875520e+02   2.064953147509e+02   1.272131285791e+02 
3 1 -2.037759095066e+02   1.595989919941e+02   2.816624113312e+01 
4 1 -3.267516535050e+02   2.800662144817e+02  -2.765806505819e+02 
5 1 -6.649040739717e+02   3.581596432875e+02  -1.054318244759e+02 
6 1  1.801276699787e+01  -1.054462325355e+01  -5.846411796182e+02 
7 1  6.020685385742e+02  -2.473596233131e+02  -4.307127271315e+02 
8 1 -1.575628111240e+02   2.634594986604e+02   3.706585599373e+02 
8
Step 53000
1 1  1.485130266369e+02  -2.212856060102e+02   2.905148309284e+02 
2 1  2.833131600874e+02  -2.852439364451e+02   1.410730045065e+00 
3 1  3.102592588123e+02  -5.755646818878e+02  -3.091831973983e+02 
4 1  5.542672803160e+02   6.356719984615e+01   8.914416433288e+01 
5 1 -2.379444474682e+01   9.007444100316e+01   4.651470342697e+02 
6 1  2.353637338419e+02  -1.327180559439e+02   5.275013523866e+02 
7 1 -2.278047767353e+02  -1.312794998604e+02   2.753512094645e+02 
8 1 -2.653811928192e+02  -8.768822368703e+01  -4.262526056705e+02 
8
Step 54000
1 1  1.600226098368e+02   1.049039452435e+02  -5.128932999795e+02 
2 1 -2.046865782424e+02   1.819347103952e+01  -1.351367140395e+01 
3 1 -1.593969768773e+02   1.156232096376e+02  -1.230815803356e+02 
4 1 -2.258650197680e+02  -1.748965931169e+02  -9.562668894720e+01 
5 1  3.048084759937e+01  -4.968913259065e+02   4.608240896413e+01 