8
Step 0
1 1  1.976204776260e+02  -1.327257613333e+01   2.703176273771e+02 
2 1  2.003061905833e+02  -2.544223981605e+02   3.731957994478e+01 
3 1  3.175536340511e+01   7.854931605754e+01   2.211130902848e+02 
4 1  1.106521732543e+02  -1.894472683087e+02   2.165739811924e+02 
5 1 -2.560395550905e+02   9.179978589662e+01  -8.380647691923e+01 
6 1  3.277134704153e+02   3.549403928910e+02  -3.306515228372e+02 
7 1  3.843816880327e+01   1.374312923885e+02  -1.669173694866e+02 
8 1  6.066579180227e+01   1.956450288481e+02   2.848463208239e+01 
8
Step 1000
1 1 -2.233989966141e+02   2.843120532461e+02  -1.413519298277e+02 
2 1  1.831328385618e+02  -1.405861748692e+02   6.230254868385e+01 
3 1 -1.636423785468e+02  -3.319425747482e+02  -2.252475830900e+01 
4 1  2.520897425905e+02   8.265317298794e+01   2.421155874700e+02 
5 1  1.028032800623e+02   1.136523629075e+01   3.346197074162e+00 
6 1  2.822440921076e+02   3.350607373952e+02  -4.238013036731e+01 
7 1  3.310873686511e+02  -3.049812504479e+01  -2.330635084822e+02 
8 1 -1.725060318239e+02   3.339775458173e+02   1.418892285927e+02 
8
Step 2000
1 1  5.381522082487e+00  -2.567612511306e+02   1.357267364600e+02 
2 1 -3.314928710691e+01  -3.827737116940e+01   3.950586263532e-01 
3 1 -5.306321643978e+01   2.037492179920e+01   1.023625056725e+02 
4 1  1.904644658416e+02   1.974856791819e+02   2.677382017358e+02 
5 1  3.126451717209e+02   1.478113226542e+02  -5.299432661672e+02 
6 1  1.702650395467e+02  -8.923226853688e+01   4.792668870240e+01 
7 1  3.217989659534e+02   1.753066382766e+02  -2.626774278670e+01 
8 1 -7.222192582336e+01   2.272801572079e+02  -1.439029658654e+02 
8
Step 3000
1 1 -4.112068517133e+02   2.987891537173e+02  -2.840134302989e+02 
2 1 -1.194312843129e+02  -3.819295956470e+02  -1.526855562261e+02 
3 1  4.110306502012e+00   2.955226554151e+02   4.697859673544e+02 
4 1 -2.311896950346e+01  -5.678561076127e+02   2.447279101197e+02 
5 1  2.651985363134e+02   2.138642598425e+02  -4.009951025626e+02 
6 1  1.018762820576e+02  -1.661322019705e+01  -4.666622189430e+02 
7 1 -2.807683200582e+02   2.485611500043e+02  -3.135762699263e+02 
8 1 -4.615018268269e+02   1.177946984151e+02  -5.607823365439e+01 
8
Step 4000
1 1 -2.367340233454e+01  -3.989731932417e+01  -1.289658728607e+01 
2 1 -2.295751390195e+01   1.158064017891e+02  -8.120347555578e+01 
3 1  3.101820991374e+01   7.674387678815e+02   3.442394816240e+01 
4 1  1.724849689851e+02   4.859851163462e+01   2.928622132790e+02 
5 1  1.529514075947e+02  -7.348395631872e+00   8.200945316711e+01 
6 1  1.035031397225e+01   1.732665189701e+02  -3.427100573301e+02 
7 1 -1.806278430155e+02   1.279173500898e+02  -8.480781702441e+02 
8 1  2.957918037334e+02  -1.333457311346e+02   1.437926882185e+02 
8
Step 5000
1 1 -1.805447541480e+02   2.752108777845e+02  -3.163850767597e+02 
2 1 -2.084319430995e+02   8.443173369362e+01   5.473737046657e+02 
3 1  1.331580282957e+02   2.018187891503e+02   1.481400533167e+02 
4 1  2.700009654853e+02  -7.057792113204e+00   2.671763259668e+02 
5 1 -3.323457827190e+02  -5.749699678549e+01  -5.917165598859e+02 
6 1 -1.804751667919e+02   1.024283468689e+02  -2.064641739190e+02 
7 1 -3.321794503286e+02   7.027875187777e+01  -4.544705626684e+02 
8 1 -3.755856031623e+02  -1.993972579112e+02  -1.204704212162e+02 
8
Step 6000
1 1 -2.487475882393e+02  -3.210317233776e+02   6.102485651927e+01 
2 1 -2.942413177323e+01   4.927941509647e+02   4.144247578405e+02 
3 1  1.124725011620e+02   2.042659249684e+02  -1.742795423361e+02 
4 1 -2.592454483089e+01   1.422557651784e+02   1.037595862562e+02 
5 1 -6.070290170455e+01   7.456813668493e+01   4.952293327909e+01 
6 1 -1.444768063117e+02   1.026960659458e+02  -1.384528300086e+01 
7 1 -3.642760431828e+02   1.531241032312e+02  -3.555853390507e+02 
8 1 -1.527945923183e+02  -1.983191735702e+02   1.231797389903e+02 
8
Step 7000
1 1 -1.889858425291e+02   1.171696678655e+02  -2.914986659537e+02 
2 1 -1.732672216547e+02  -3.159349194898e+01   3.300062279486e+02 
3 1 -1.304619698263e+02   8.282365856610e+01  -1.559916528700e+02 
4 1  1.756433619108e+02  -2.895553134496e+01   2.954391620074e+01 
5 1 -1.295116605167e+02   5.977421396488e+01   1.293481100669e+02 
6 1 -4.949307364459e+02  -7.023291915499e+01  -7.870436100425e+01 
7 1 -2.422829249465e+02  -1.084723770845e+02  -2.863474543300e+02 
8 1 -4.719324791322e+01  -2.871353586981e+02  -5.661695729329e+01 
8
Step 8000
1 1 -1.610652972088e+02   5.267801881106e+02  -6.409365010139e+01 
2 1 -7.805196326939e+01  -1.689241621511e+02   3.951904837743e+02 
3 1 -3.943897260893e+02   2.297831507542e+02   1.433092229517e+02 
4 1  4.328843189921e+02   6.633868547835e+01   5.527290844577e+02 
5 1 -7.257229606012e+01   3.244111638044e+02  -7.173870576815e+01 
6 1 -2.367627503616e+02   2.228088999360e+02   5.737924473927e+01 
7 1  2.870517710066e+02  -3.570486898979e+02  -2.689380241243e+01 
8 1 -4.166532792988e+02  -3.166786473953e+02  -3.913234293952e+02 
8
Step 9000
1 1  1.232670792563e+02   9.804972025520e+01   9.072221146184e+01 
2 1 -3.710790727485e+02   8.127558030028e+01   1.223656136533e+02 
3 1 -1.693582830368e+02   2.444654264310e+02  -1.319649665661e+02 
4 1  1.110917966749e+02  -1.143380814865e+02   3.121950613181e+02 
5 1  1.183675579137e+02   1.934044959265e+02   2.326231636789e+02 
6 1  1.713909919925e+02   4.375435358287e+02   1.782371739233e+02 
7 1 -3.090374226757e+00   1.277680019827e+02  -1.413520189970e+02 
8 1 -2.857648543194e+02  -1.146471043568e+02   1.100412464555e+02 
8
Step 10000
1 1  2.830147732490e+02  -3.278261482019e+02  -2.754492647108e+02 
2 1 -1.317064552029e+02  -3.340017248925e+02   3.362011909413e+02 
3 1 -3.380245441057e+02   3.224924097920e+02   2.699342670650e+02 
4 1 -2.487856784271e+02   3.471682831911e+02   1.969249314219e+02 
5 1 -3.330495036260e+02  -3.184688166290e+01   1.603720766907e+02 
6 1 -1.717295303391e+02  -2.143182076667e+02   4.521504189636e+01 
7 1 -4.944192857125e+02  -2.201374874302e+02  -3.482740233216e+02 
8 1 -1.879444359796e+02   2.820025082237e+02   3.927787850560e+02 
8
Step 11000
1 1  1.605119820404e+02  -1.641608520708e+02  -1.391738277446e+02 
2 1  7.146093596163e+01   3.550905906063e+02  -1.765925521398e+02 
3 1 -9.995854074997e+01  -9.947824515232e+00  -2.668015231138e+02 
4 1  6.279218843928e+01   2.009306314918e+02   3.307759959160e+02 
5 1  2.688551773872e+02   6.445182899088e+01  -1.263164168668e+01 
6 1 -3.606817683028e+02   7.065971991824e+01   2.880288557134e+02 
7 1  2.101636951667e+02  -2.774639500751e+02  -1.484570890531e+01 
8 1 -1.343500347258e+02   2.812497065479e+02   6.176530623125e+00 
8
Step 12000
1 1  1.051304344437e+02  -2.465402183096e+02  -1.879042092240e+02 
2 1  2.289823691642e+02   3.384200956014e+02   2.072815682770e+01 
3 1  1.348603040981e+02   5.344466977570e+02   2.158025157585e+01 
4 1 -4.853690570416e+02  -1.767672145915e+02   1.747667435628e+02 
5 1  1.324806309777e+02   1.161401024204e+02   1.192645722009e+02 
6 1 -4.931146255719e+02   2.401019050653e+02  -8.323898016206e+01 
7 1 -1.607131851896e+02   1.619939548947e+02   2.913255108088e+01 
8 1 -7.954640186059e+00   2.504448643182e+00   3.128176240065e+02 
8
Step 13000
1 1  2.383011598761e+02  -1.053144140142e+02  -4.934155105596e+02 
2 1 -1.233892960876e+02   3.330559777545e+01  -3.473542268132e+02 
3 1  1.401551333537e+02   3.928288542808e+02  -3.495326650967e+02 
4 1  3.424679016769e+02  -4.857037563513e+02  -8.480134157169e+01 
5 1 -1.827914708880e+02   8.526501701860e+01   1.780143861684e+02 
6 1  1.440198142178e+02   1.350925436881e+02   2.449266933164e+02 
7 1 -5.433816518042e+02   2.383678590501e+02   3.572777802742e+02 
8 1  2.470333902061e+01   3.674146551542e+02  -2.551313665168e+02 
8
Step 14000
1 1 -1.377573729353e+02  -2.766359092350e+02  -8.036539916239e+01 
2 1  1.595611367396e+02   3.354396283080e+02   7.136120777382e+01 
3 1 -5.821186296590e+01  -5.752548560995e+01   3.752633736371e+02 
4 1  2.337604931970e+02   1.405847822177e+02   3.079204239286e+02 
5 1 -1.397876476694e+02  -4.630098202715e+02  -5.472886016389e+02 
6 1 -4.915517845606e+01   6.107413975469e+01   2.891809167591e+02 
7 1 -3.325119745134e+02  -8.824287315132e+01   5.111741096918e+02 
8 1 -3.585120667696e+02   3.797562007583e+02   1.894145457253e+00 
8
Step 15000
1 1 -4.527391417470e+02   2.692884188350e+02  -7.337964816927e+01 
2 1 -1.902162927407e+02   5.328629510608e+01  -3.265153507441e+02 
3 1  3.650676634939e+02  -3.178803855463e+02   2.463019636046e+01 
4 1  7.308657102342e+01   1.555010369561e+02  -2.044235895700e+02 
5 1  1.013464210443e+03   3.399938461195e+02  -5.659197130581e+01 
6 1  1.797852931546e+02   1.318996545211e+02   1.959521620700e+02 
7 1 -3.428843729143e+02  -1.065768915942e+02  -6.466160012706e+01 
8 1 -1.925646581271e+02   2.066982981610e+02   6.889199466214e+01 
8
Step 16000
1 1 -1.384945652753e+02   2.862295431509e+02   5.663448103424e+02 
2 1  1.495084228421e+02   8.718942976169e+01   3.829578678933e+02 
3 1 -1.295270761160e+01  -1.069566924174e+02  -1.449344712202e+02 
4 1 -4.344751095566e+01   3.154794898116e+02   3.384879632418e+01 
5 1  2.125556405752e+02   7.776017273107e+01   3.149890300038e+02 
6 1 -1.613408125175e+02  -1.220360504510e+02   2.691883114719e+01 
7 1  2.880843858261e+02  -3.425694839902e+01  -3.528220874400e+02 
8 1  7.865108576575e+01   2.416157559680e+02   4.459173802077e+02 
8
Step 17000
1 1  4.143850994016e+01  -1.405840533741e+02  -9.589981187635e+01 
2 1  8.797137562748e+00  -5.975867095240e+01  -2.672656897489e+02 
3 1 -7.714519863052e+01  -3.575962699110e+02  -1.212538832920e+02 
4 1 -3.154773277618e+02   1.298252510759e+02   9.749898365719e+01 
5 1 -3.231729887706e+02  -7.681646779969e+01  -3.359489556445e+02 
6 1 -1.237969482251e+02  -5.274426132848e+01  -1.367777096870e+01 
7 1  4.079361674538e+02   4.988871110072e+01   1.623955918895e+01 
8 1  1.580577935105e+02   2.575088397364e+02   3.147020556793e+02 
8
Step 18000
1 1  3.382447994311e+02  -2.751767481149e+02   6.346242016043e+02 
2 1 -1.706725669845e+02   1.907305325320e+02  -1.747353109784e+02 
3 1  4.330548228662e+02   1.161155910183e+02   3.187573510056e+02 
4 1 -1.011048429771e+02   7.311108700344e+01  -4.339767864611e+01 
5 1 -5.420192920312e+02  -6.801818235276e+01   1.040888543677e+02 
6 1 -8.838588931593e+01  -2.042845592779e+02   4.179743071311e+02 
7 1  2.909925527480e+02  -5.078179096874e+01  -1.964054346240e+02 
8 1  1.845486634703e+02   2.473544539647e+01  -8.976781099614e+01 
8
Step 19000
1 1  3.987185974010e+02  -2.118574566942e+02  -1.252740809130e+02 
2 1 -3.661572565370e+02  -1.004887681399e+02   1.533687303604e+02 
3 1 -2.434538806429e+02  -3.008578728339e+02  -5.334270921164e-01 
4 1 -5.739900954706e+01   1.578238859076e+02  -3.108463617908e+02 
5 1 -2.554118026206e+02  -1.987067612631e+02   3.559573449282e+02 
6 1 -2.984375585615e+02  -4.551043642583e+02   2.100220134371e+02 
7 1  3.657790042632e+02   2.469371486254e+02  -1.746624286700e+02 
8 1  6.068302263473e+02  -2.796568440428e+02   2.504307816002e+01 
8
Step 20000
1 1  4.239815534016e+02   7.475353828523e+01   5.536622300419e+01 
2 1 -6.984594357343e+01  -1.683269860490e+02   8.446413886115e+00 
3 1  1.389256912435e+02  -6.305647704513e+02   2.196945842092e+02 
4 1 -4.784834067966e+02  -2.103165327707e+02  -5.201831743148e+02 
5 1  1.539621657620e+02  -6.610265604590e+02   1.742195969201e+01 
6 1  2.663377351494e+02   3.210476783667e+02   1.225354690261e+02 
7 1 -2.839812450933e+02  -6.609379534472e+01  -3.614010102477e+01 
8 1  5.776042653166e+02   1.046938502624e+02  -2.577354672549e+02 
8
Step 21000
1 1  2.406649701395e+02  -2.334052946030e+02  -1.297641863704e+02 
2 1  2.394342590676e+01  -4.611720919328e+02  -1.454878880918e+02 
3 1 -1.492799279225e+02  -5.307039971921e+02  -4.416780218621e+02 
4 1 -5.270253102969e+01  -4.779350736149e+02  -2.177704773167e+02 
5 1 -1.372675061497e+02  -4.349680986304e+02   2.585453201957e+02 
6 1 -7.097540079338e+02  -1.649319312436e+02   3.323162022354e+02 
7 1 -2.452638272886e+02  -3.203572655221e+02   2.507292507804e+02 
8 1 -1.548592629502e+02  -1.579546679095e+02   1.945909509459e+02 
8
Step 22000
1 1  2.415258076467e+02   8.977495879105e+01  -3.241906708211e+02 
2 1  8.988598306046e+01  -1.620032144415e+02   3.880971709190e+02 
3 1  3.778860659274e+01  -3.150071226569e+02  -2.388785717350e+02 
4 1 -4.367671743270e+02  -2.523692331182e+02   3.075943094292e+02 
5 1 -1.161535331007e+02  -3.453016695321e+02  -3.240020374100e+02 
6 1  1.489641293084e+02  -8.573388834476e+01  -5.623538688535e+01 
7 1  5.131475642602e+02   5.662643376347e+01  -6.448341069732e+01 
8 1  1.108560482857e+02  -2.083790093249e+02   3.872634716258e+01 
8
Step 23000
1 1  3.653885332894e+02  -3.838694946631e+01  -1.662032260429e+02 
2 1 -2.951991970747e+02  -1.313881654426e+02  -2.972923487351e+02 
3 1  3.735663885701e+02  -1.254619014941e+02   7.136674278047e+01 
4 1 -7.400708126507e+02   3.963863027961e+01   2.182463259502e+02 
5 1  9.533012459542e+01  -1.277003278128e+02  -4.580255225856e+02 
6 1 -1.170407689324e+02  -2.505020219774e+02   3.536227082499e+02 
7 1 -1.493955903994e+02  -6.323567122093e+02   5.374254715191e+02 
8 1 -1.919334011289e+02  -2.803813099272e+02   2.086250161363e+02 
8
Step 24000
1 1  4.034745687226e+01  -9.006074525239e+00  -3.704059335941e+02 
2 1 -2.673192408266e+02  -3.692542197184e+02   1.534978399581e+02 
3 1  2.549409465797e+02  -2.033346428255e+02   1.056895722659e+02 
4 1 -5.470063694427e+02  -1.464707887202e+02  -1.665173110128e+02 
5 1  1.125570641734e+02   1.243794272190e+02   3.499293228287e+01 
6 1 -3.652460692062e+02   3.503420029259e+01  -1.342493682705e+02 
7 1  1.665297905606e+02  -6.981349252742e+01  -2.293395281616e+02 
8 1  3.000537606834e+02  -1.871194984782e+02   7.675758436811e+01 
8
Step 25000
1 1 -1.493244307393e+01  -2.105928194145e+02  -3.785850225862e+02 
2 1  1.365496778105e+02  -1.584833659630e+02   1.054214915232e+02 
3 1  1.068936067980e+02  -2.763090134568e+01  -3.500393492833e+02 
4 1 -2.641396968898e+02  -2.982087119849e+02  -3.266529075763e+02 
5 1 -7.229505019054e+01  -1.268320496366e+02   3.201484824395e+02 
6 1 -3.451179105297e+02   2.781709427918e+02   7.637917474221e+00 
7 1 -4.832854968660e+02   4.667298727313e+02   4.653141184668e+00 
8 1 -1.220081848912e+02  -5.154663009041e+02   3.268939273225e+02 
8
Step 26000
1 1  1.240158201260e+02   2.174450343511e+01   6.153262814510e+01 
2 1 -3.007988579696e+02  -1.113261244671e+02  -2.322860609212e+02 
3 1  2.112345048049e+02   3.000328617209e+02   1.386893766088e+02 
4 1  7.059267882615e+01   2.440379292583e+02   1.179148166244e+02 
5 1  1.831548438576e+02  -1.253977384946e+02  -2.414957791526e+02 
6 1  2.245256748925e+02   2.070660163788e+02   4.462635888877e+02 
7 1 -1.537658911842e+02   1.925725876965e+02  -5.963420837300e+02 
8 1  4.768554467469e+01  -1.382463056254e+02  -1.845401919842e+02 
8
Step 27000
1 1  1.429838950182e+02   6.063932399898e+01   1.545366556770e+02 
2 1 -2.917231222818e+02   2.277821950319e+02  -4.365084487813e+02 
3 1 -3.089502189352e+02   9.561489347458e+01   3.171949228514e+02 
4 1 -2.751559145529e+02  -3.040530849734e+02  -2.512583079695e+02 
5 1  2.091061715111e+02   5.376567630464e+01  -7.489089293424e+01 
6 1 -1.751489229268e+02   6.078474997909e+02   1.552064554420e+02 
7 1 -1.967030228704e+02  -1.369297007491e+02  -9.834836369481e+01 
8 1  2.490447609730e+02   1.227316618398e+02  -1.176915349523e+02 
8
Step 28000
1 1 -4.768583681107e+02   2.640518465730e+02  -1.625161190104e+02 
2 1  6.701923134531e+01  -7.942003532720e+01  -2.374081401378e+02 
3 1 -2.136468940592e+02   1.262991221397e+01   2.608807492581e+01 
4 1 -1.960712739473e+02   2.305946519234e+02  -1.744103333335e+02 
5 1  3.243136815048e+02  -4.965182166160e+01   1.236124859898e+02 
6 1 -1.962172421972e+02   6.659784089628e+01  -9.642253784510e+01 
7 1  1.190696010653e+02   3.848443145126e+01   3.503927747794e+02 
8 1 -5.567635301159e+02  -2.060344718360e+02  -2.680441457688e+02 
8
Step 29000
1 1  4.209766988107e+02  -1.438619598449e+02  -3.879859778325e+02 
2 1 -3.188121063268e+02   4.801575034700e+01   2.016803686024e+02 
3 1  1.560064410730e+01   4.880522803873e+00  -1.292037750573e+02 
4 1 -5.734560152867e+02   2.790572060552e+01   5.618872291011e+02 
5 1  5.226355295803e+01   1.485958990768e+02  -5.251086963158e+01 
6 1 -3.459251817260e+02  -1.045376755458e+02   4.623404973639e+01 
7 1 -3.834496499706e+02   3.088937244007e+02   2.057101967649e+02 
8 1 -8.026929394160e+01   1.372601196554e+02   2.329864379760e+02 
8
Step 30000
1 1 -3.338502619283e+02   1.091775560336e+02  -2.133589831900e+02 
2 1  3.228605305903e+02   3.378169286227e+02   4.107222408393e+01 
3 1  1.761523044068e+02   5.377510808315e+02  -5.865376969452e+01 
4 1 -1.235756905951e+02  -2.638217890702e+02   1.939137901488e+02 
5 1  3.905116215460e+02   5.952932157667e+01  -3.295645021684e+02 
6 1  1.385708380788e+02   1.449254719783e+02  -2.163098298619e+02 
7 1  1.135575942324e+02   1.357505977237e+02  -1.331272499266e+02 
8 1  8.546453515609e+01   1.431738032484e+02   6.288441285913e+02 
8
Step 31000
1 1  2.320087959504e+01  -4.472932285479e+02  -4.873921309306e+02 
2 1  3.630142203498e+02  -1.266183118359e+02  -9.070861098366e+01 
3 1 -4.282927215126e+02   2.295626925937e+02   6.010040729384e+02 
4 1 -5.512907795157e+02   2.243539670684e+02  -1.078176855748e+02 
5 1 -1.031239357174e+01   1.713131009253e+02  -2.659012287604e+02 
6 1  1.224906897995e+02   2.626270190295e+02  -1.263896737921e+02 
7 1  1.893546834378e+02   6.609368351432e+01   6.894257954920e+01 
8 1 -1.778157778703e+02  -3.671252369421e+02   2.578373111134e+02 
8
Step 32000
1 1 -2.541162341415e+01  -8.567751950656e+01  -1.760327623662e+02 
2 1 -2.877537651137e+02   2.333139504680e+02  -2.407471484218e+02 
3 1  3.745010911170e+02  -6.668387462546e+01  -4.126612607834e+01 
4 1  8.470225495035e+01  -6.117909150701e+01  -2.472751195476e+02 
5 1  1.430419682928e+02  -3.738243968538e+02  -4.285398505811e+02 
6 1 -7.101190446317e+02   3.784603044634e+02   1.382770443411e+02 
7 1 -1.020897289076e+01   3.795745970436e+02   1.085943471798e+02 
8 1  2.588030355215e+02   1.599931291054e+02  -7.319833924333e+01 
8
Step 33000
1 1  5.776555531240e+02  -3.398055756766e+02   5.768131806057e+01 
2 1 -1.274749945531e+02  -3.359213627900e+02   1.977450806737e+02 
3 1  2.876545031761e+02   5.708375576491e+02   2.335708747109e+01 
4 1  1.118973095658e+01  -3.005172053429e+02  -2.987097437946e+01 
5 1 -2.874907288347e+02  -5.165627090544e+01   2.570506152613e+02 
6 1 -1.426169208963e+02   5.410768494146e+01   1.271138078967e+02 
7 1  4.171149222519e+02   2.297265794808e+02   6.014198132109e+01 
8 1  5.069587376628e+02   9.871734904271e+01   1.607384999183e+02 
8
Step 34000
1 1  5.609767384866e+00  -2.810825377969e+02   3.952432580352e+02 
2 1 -4.290452005525e+01   5.314520172754e+02  -3.513477068087e+02 
3 1 -2.584703714514e+02   2.664935332040e+02  -2.854385272585e+01 
4 1  2.661695290201e+02  -3.547111960014e+02  -3.103847471943e+02 
5 1  1.533046056159e+02   2.675101061463e+02  -1.232281244511e+02 
6 1 -1.250737679022e+02  -1.772767171732e+02  -4.972404329137e+02 
7 1 -2.400006493241e+02  -3.402586377702e+02   5.748825796704e+01 
8 1 -7.845039566981e+01   3.742807191581e+01   1.855760624783e+02 
8
Step 35000
1 1  2.814451838976e+02  -3.683376199519e+02   1.546476936451e+02 
2 1  1.916624664208e+02   3.858710904250e+02   7.296653475977e+01 
3 1  3.832115639760e+02  -2.721414545659e+01   4.556628767515e+01 
4 1 -1.492813115211e+02  -1.616558724739e+02   1.512085087157e+02 
5 1  7.291398482218e+01   3.516569494538e+02  -2.616928797094e+02 
6 1 -4.152385782245e+01   2.572538662227e+02   1.838475666255e+01 
7 1  6.883856804151e+01   5.917068028194e+01   1.128032249383e+02 
8 1  2.771258492262e+02   1.134501059272e+02   1.071407745251e+02 
8
Step 36000
1 1  1.845256930127e+02  -3.938080724606e+01  -7.056868358991e+01 
2 1  1.293793442992e+02   3.167025140638e-02  -1.554058238789e+02 
3 1 -2.249943459209e+02   2.091023510785e+02   3.246210923730e+02 
4 1 -1.000602205315e+02   1.319926357440e+02  -4.691191217884e+02 
5 1 -1.082100227735e+01  -9.511010406953e+01  -1.524337132911e+02 
6 1 -2.847869757588e+02   2.731722715643e+02   3.465797563776e+02 
7 1 -2.169364329584e+02  -1.620550572274e+02   8.869438211183e+01 
8 1 -5.733881558629e+02   3.930701618130e+01   2.035485731681e+02 
8
Step 37000
1 1  3.236458974323e+02   2.586712009762e+02  -3.914210045544e+02 
2 1  4.048458579140e+02   4.561043996166e+02   9.147050882574e+01 
3 1  9.251631662920e+01   6.606215941148e+01   4.067215483282e+02 
4 1  9.546424988815e+00   7.637938887015e+00   1.550647658225e+02 
5 1  2.165429681306e+02   1.410697347972e+02  -1.518256757666e+02 
6 1  1.637281322726e+02  -2.526424753067e+02  -1.715354633264e+01 
7 1  2.303534251815e+02  -2.457995784792e+01  -2.350473251041e+02 
8 1 -2.979586039659e+02  -3.662139276631e+01   1.565261876415e+02 
8
Step 38000
1 1 -2.434308723184e+02   3.606681311620e+02  -9.337710871424e+01 
2 1 -5.760933744750e+02  -3.021233288887e+02   2.682807940146e+02 
3 1  1.550090831676e+02   3.960161662929e+02  -1.155994850272e+02 
4 1 -7.631010211869e+01   3.893489076480e+02   2.060087252806e+02 
5 1 -5.551529115079e+01  -1.499086258616e+02  -1.796705399036e+02 
6 1 -4.238701784728e+02  -2.198810666138e+02  -1.373604617346e+02 
7 1  1.443899081828e+02   2.978160436281e+02  -1.759120202705e+02 
8 1 -3.697111417804e+01  -1.665313035624e+02   1.349974350184e+02 
8
Step 39000
1 1  5.818974220988e+02   1.348586601974e+02  -9.573384341390e+01 
2 1 -4.344929017377e+02  -3.042390990903e+02   7.058447005605e+01 
3 1 -5.316661300983e+02   3.475763011502e+02  -3.444319280346e+02 
4 1 -4.893798845461e+02  -3.446371476293e+01  -5.511696252094e+02 
5 1  3.458874844787e+02  -3.665302717846e+02   7.986255661207e+01 
6 1  9.494607079391e+01   3.745015334556e+02  -1.415277053883e+02 
7 1  8.249288263920e+01  -1.713951390082e+02  -3.007584130534e+01 
8 1  1.718438820644e+02  -2.249727793864e+02  -4.859218002719e+02 
8
Step 40000
1 1 -1.896511941275e+02  -4.488665340203e+02   1.097492957615e+02 
2 1  4.758540019923e+01   3.179485738968e+02  -1.255072665641e+02 
3 1 -3.476264472383e+02  -1.294587429039e+02  -1.413248260113e+02 
4 1 -2.059340562723e+02  -2.235088424519e+02   1.544517695638e+02 
5 1 -4.443188929663e+02   4.746313727552e+01   2.923848621521e+02 
6 1  1.105351570681e+02   2.659085359647e+02   1.432644269524e+02 
7 1  4.493908919753e+02  -2.133857194668e+02   4.960181893138e+02 
8 1  3.179962129489e+02   2.417669737468e+02  -5.263704547507e+00 
8
Step 41000
1 1  1.094699967979e+02  -1.013175469460e+02  -5.457008214407e+00 
2 1 -2.477986044522e+02   8.029138544486e+01  -1.446331647345e+02 
3 1 -4.925969194361e+02   1.558186574709e+02  -1.428917584082e+02 
4 1  8.859223992064e+01  -3.833498786028e+01   1.853775458094e+02 
5 1 -1.627595571142e+02   9.563158021087e+01  -4.356918663334e+02 
6 1  4.037948361166e+01  -2.815692099401e+02   1.999796347856e+02 
7 1  1.402810562543e+02   7.584005397978e+01   1.250350023904e+01 
8 1  1.226439641699e+02  -2.065278352359e+02  -2.142688611078e+02 
8
Step 42000
1 1 -1.639265796330e+02  -1.273572747621e+01   1.075262806769e+01 
2 1 -1.283347684533e+02  -4.368355491961e+02   1.947648757361e+02 
3 1 -4.540326711456e+02   7.103542093641e+01  -3.765815519645e+02 
4 1 -3.593379502063e+02  -7.380897438266e+01   3.841014887245e+02 
5 1 -2.839095058446e+01   7.544307373447e+01  -6.521910072530e+01 
6 1 -2.144591340915e+02   1.273104796874e+02   1.453415313024e-01 
7 1  3.337976251852e+02  -6.846232734255e+01  -4.341549573463e+02 
8 1  2.925109656159e+02   1.890058489488e+02   6.772593475402e+01 
8
Step 43000
1 1  8.092724449922e-01  -2.261834350930e+02  -7.437764232812e+01 
2 1 -3.011645325289e+02  -5.918966845284e+02   8.376533104308e+01 
3 1  1.693536290113e+02   1.251735260719e+01  -1.641161323396e+01 
4 1 -1.041475908394e+02   1.239330083602e+02  -3.493588015833e+02 
5 1 -5.474702196558e+02  -1.714356931643e+02  -4.584875420763e+02 
6 1 -2.316231444150e+02  -5.154791658555e+01  -1.829721131729e+02 
7 1  1.808388331295e+02  -1.474385453583e+02   2.471435907142e+01 
8 1  1.126830606713e+02   2.116283211363e+01  -1.677476604105e+01 
8
Step 44000
1 1  3.537818204024e+02   1.967625363635e+02   3.271013213877e+01 
2 1 -3.701308521505e+02  -4.697804204775e+02   1.157034457529e+02 
3 1  2.193145930391e+02   5.312753549080e+02   3.652049673561e+02 
4 1 -2.546466075633e+01  -3.366217782457e+01   3.200641461185e+02 
5 1 -1.885013974964e+02  -7.271497179883e+01   8.367508794977e+01 
6 1  1.415265711466e+02  -3.379880239757e+02  -4.968619720371e+02 
7 1 -1.598060912251e+02   1.344216172894e+02   6.570608710148e+01 
8 1  4.056570575425e+02  -7.697592924328e+01  -2.799494260172e+02 
8
Step 45000
1 1 -4.163145275999e+02  -1.964376070308e+02  -1.991320744562e+02 
2 1 -1.619339696447e+02   1.339743425854e+02  -3.820182049339e+01 
3 1  1.485808152625e+01   1.039455731138e+02   6.297895506776e+01 
4 1  6.098131842341e+00   1.539481451272e+02  -1.674750003496e+02 
5 1  2.886689507841e+02  -1.396164774751e+02  -1.836696662921e+02 
6 1 -6.045946690357e+01   1.156249833732e+02  -2.413891555534e+02 
7 1 -2.927420246191e+02  -2.302677428901e+02   1.336286871719e+02 
8 1  1.258542537894e+02  -2.753448249606e+02  -4.376487750903e+00 
8
Step 46000
1 1 -1.581004546088e+02  -2.383214537479e+02   3.124110621455e+02 
2 1  2.032072617842e+02   5.428998498371e+02   2.589212340658e+02 
3 1  1.686726033338e+02  -2.003373845497e+02   1.793831535562e+02 
4 1  3.214088569136e+02   7.911166380539e+01   2.033830640991e+02 
5 1  2.503320580744e+02  -5.810644143545e+02  -4.184248889603e+02 
6 1  3.876047128068e+01   1.092318696674e+02  -1.604442275983e+02 
7 1 -7.691369987603e+01  -4.578254563130e+02  -2.496599029157e+02 
8 1  1.732392449676e+02  -1.225857458288e+02  -4.256418610180e+02 
8
Step 47000
1 1  5.330300555395e+02   5.152174261469e+02  -1.378902003642e+02 
2 1 -2.566731035246e+01  -1.388093625695e+02   3.122959016100e+02 
3 1 -1.804111556696e+02  -4.615299112675e+01  -2.393062606466e+02 
4 1  7.171761387216e+02  -2.216341250541e+02  -1.408009212541e+01 
5 1  1.083873994192e+02   2.439282382900e+02   6.266465406775e+01 
6 1 -1.331031653183e+02  -3.292390256767e+02   4.401351256648e+02 
7 1 -2.530673913073e+02  -1.355668870111e+02   1.357030003098e+02 
8 1  1.478407296356e+02  -5.826992479218e+02  -3.205519418418e+02 
8
Step 48000
1 1  1.613372615802e+02  -9.372064430247e+00   1.586086650529e+01 
2 1  5.057238293211e+02  -1.221767516954e+02   1.922361506222e+02 
3 1  2.309260450907e+02   1.523982356553e+02   1.932164258335e+02 
4 1  3.349266055565e+02  -2.250943422136e+02   2.864249303562e+01 
5 1  2.645142493663e+02   1.416712380248e+02   1.374805710157e+02 
6 1  2.175557152681e+02  -5.010930953723e+02  -1.131332753129e+02 
7 1 -5.667505683909e+02  -2.156426477939e+02  -5.583766605873e+01 
8 1 -1.097298853250e+02  -4.082863990007e+02   4.316033681847e+02 
8
Step 49000
1 1  3.741004635749e+01  -1.005702193992e+02   2.389847498210e+02 
2 1  2.873000899037e+02   9.339746877752e+01  -2.382079473014e+02 
3 1  3.594409089659e+02  -1.091698457509e+01   3.269166884532e+02 
4 1 -2.760486756360e+02  -1.114994291886e+02   1.932061717290e+02 
5 1  4.320196550154e+02  -2.404001581235e+01  -2.056758675083e+02 
6 1 -1.550806957840e+01   2.338066598416e+02   1.720961585878e+02 
7 1 -3.809488426002e+02  -4.095562042454e+01  -1.920943724511e+02 
8 1 -1.331612475686e+01   6.423024476570e+01   5.087877329598e+01 
8
Step 50000
1 1  4.659300160494e+02  -1.698050602585e+02   2.655887935090e+02 
2 1  5.811711160235e+02  -3.791220106794e+02  -3.165590319573e+02 
3 1  2.523820113541e+02   1.736616872904e+02   2.913440046056e+02 
4 1 -1.634911596366e+02  -3.047145549883e+02  -2.942962357098e+02 
5 1  5.259372099023e+02   1.166609025414e+02  -6.676550460519e+02 
6 1 -4.260982048871e+02  -2.494024158968e+02   3.979808587280e+02 
7 1 -7.886774873492e+01  -8.257415793172e+00  -8.008769225619e-01 
8 1 -5.925948425148e+01  -5.962080222930e+01  -3.883303037392e+02 
8
Step 51000
1 1  2.427581356203e+02  -9.384460783061e+01   2.137359886795e+02 
2 1  9.998323566573e+01   2.967414281002e+01   9.650021802284e+01 
3 1 -1.882002380245e+02   8.227261111573e+01   2.961635174144e+02 
4 1  1.014448401367e+02  -1.247754392272e+02  -9.645521487516e+01 
5 1  1.738318644535e+02   2.523431827804e+02   2.819805733617e+02 
6 1 -3.550864990109e+02  -2.459368506201e+02   5.034593326577e+02 
7 1  1.693148647690e+02   4.800463555142e+02   4.102502689739e+02 
8 1  2.525555667093e+01   3.074587366092e+02  -3.344977771993e+02 
8
Step 52000
1 1  2.023961149599e+02   3.311724386804e+02  -6.186049841210e+01 
2 1  3.287156260016e+02   3.785847199615e+01   6.353248257690e+01 
3 1 -2.531727181241e+02   7.195050013273e+01  -4.442043979750e+02 
4 1  9.560451444561e+01  -3.038451611709e+02   5.691562623573e+01 
5 1 -1.611487281700e+02  -4.086645878884e+02  -1.942897274215e+02 
6 1 -3.045702753616e+02   3.332529591879e+02   1.465771870935e+02 
7 1 -1.340988197992e+02  -3.220433266029e+01   1.519956243853e+02 
8 1  3.563034544825e+02  -1.049957589092e+02  -2.817052532573e+02 
8
Step 53000
1 1 -1.135015088996e+02   1.754590721441e+02   1.206951335522e+02 
2 1 -1.775947447245e+02  -1.186167878606e+01   4.528389872131e+02 
3 1 -5.112263133452e+02   3.409466729410e+02  -2.835040241460e+02 
4 1  1.342393120504e+02  -3.857193349769e+01   7.276084088074e+02 
5 1  4.021806159139e+02   1.125611950740e+02  -2.755845316046e+02 
6 1 -6.314015488605e+01   4.952851934608e+02   1.940598335039e+02 
7 1 -3.869340770805e+02  -4.606781699297e+01   3.314210414742e+01 
8 1  3.694351698756e+02   3.799817792815e+02   1.691180877794e+02 
8
Step 54000
1 1  3.657044048083e+02   2.406757094037e+02   2.280453159227e+02 
2 1 -2.324953576725e+02  -2.756711603002e+01   2.745348450125e+02 
3 1  9.459733659393e+01  -2.669570618716e+02  -9.755981267945e+01 
4 1 -4.551832519350e+02  -6.035603292853e+01   3.356028701242e+01 
5 1 -1.170877359615e+02   3.778289615287e+02  -3.388377061658e+02 