8
Step 0
1 1  3.023859026055e+02   2.378816802784e+02  -9.555576813497e+01 
2 1  2.697713000661e+02  -2.546322453998e+02  -6.199506671967e+02 
3 1 -6.255592878208e+02  -1.652719680071e+02  -4.327187349958e+02 
4 1  1.094359229731e+02  -2.812415677186e+02   5.182986855887e+02 
5 1  6.418775273896e+01  -4.157455463467e+02  -2.316845659138e+02 
6 1  2.785438408206e+02   2.531813734805e+02   6.452012672630e+01 
7 1  1.707535445606e+02  -1.773918968688e+02  -4.312858342593e+00 
8 1 -5.187397608193e+02   9.509279551745e+01  -3.168950203061e+02 
8
Step 1000
1 1  2.704181528422e+02  -1.503813772442e+02  -2.321702217754e+01 
2 1 -5.967346425291e+01  -3.801325146228e+01  -2.882835167867e+01 
3 1 -8.368696868804e+01   4.565362718431e+01   1.757352949210e+00 
4 1 -4.413357739809e+01  -1.605690464494e+02   1.975709155936e+02 
5 1  1.468980032965e+00  -3.748531285281e+01  -4.031287723128e+02 
6 1  4.188510432053e+00   5.558543387105e+01  -6.683359279951e+01 
7 1 -1.478330518415e+02   9.046367381419e+01  -1.719836115572e+02 
8 1 -6.217053701752e+01  -9.306771151432e+01  -1.808363079043e+02 
8
Step 2000
1 1 -2.893115888940e+02   2.389540031185e+02  -3.958614771860e+02 
2 1  1.352332292702e+01  -2.054930192476e+02  -2.592669128214e+01 
3 1 -6.401572409133e+01  -2.706785720626e+01   1.081004923144e+02 
4 1  2.021778514769e+01  -2.021818399240e+02   7.873155028148e+01 
5 1 -2.353240565782e+01   3.663467411272e+01  -1.414004806457e+02 
6 1 -1.725127207344e+02   1.056527789021e+02  -2.093184838529e+02 
7 1 -1.788087378856e+02   9.940276745470e+01  -2.660576673775e+02 
8 1 -5.054838935748e+02   2.042520856633e+02   5.814989551404e+01 
8
Step 3000
1 1 -4.447401096184e-01  -3.823563988977e+02  -1.387237476935e+02 
2 1 -5.518249795749e+01  -5.373624155647e+01  -2.251883531616e+02 
3 1 -3.895858608133e+02   4.246524980442e+02   1.659543682713e+02 
4 1  3.550319885051e+01   1.804303061822e+02   3.010350267325e+02 
5 1 -1.015055259007e+02   3.281993412849e+02  -4.131641929051e+02 
6 1 -2.950451495225e+02  -2.483744671714e+01   5.717727848554e+01 
7 1  2.297275314933e+02   3.769773634818e+02  -9.370597498055e+01 
8 1  4.603787105871e+01  -3.125157209675e+02  -1.808556885278e+02 
8
Step 4000
1 1 -1.459908574923e+02   2.359126102890e+02  -2.909091697282e+02 
2 1 -2.289696284776e+02  -3.256124127678e+02  -4.566717669120e+01 
3 1 -3.517854629232e+02   1.227886119865e+02   1.305009917058e+02 
4 1 -6.481928075661e+01  -1.421320617712e+02   4.352126655864e+02 
5 1 -2.366154966855e+02   2.916598428169e+02  -4.788372425564e+02 
6 1 -1.812141314026e+02   1.089710389747e+02  -8.453071791077e+01 
7 1 -2.110183115329e+02   4.240707259533e+02  -1.932878127581e+02 
8 1 -2.148226573327e+02  -5.031382713007e+02  -2.521655863249e+02 
8
Step 5000
1 1 -3.041827809103e+01  -2.757163857159e+02   4.941720373728e+01 
2 1 -3.089053946783e+02   5.457243819887e+01   4.660630896866e+01 
3 1 -1.561798067868e+02   3.355278359841e+02  -2.801937759969e+02 
4 1 -1.130813722095e+02   1.599572011194e+02   5.872212883512e+02 
5 1  9.041080049369e+01   4.254059630124e+02   2.692736477129e+02 
6 1  1.988493794189e+02   4.856125013311e+02  -8.665482984609e+01 
7 1 -9.992355149294e+01   1.594591876598e+02  -4.022516060174e+02 
8 1  2.204981302348e+02  -2.206106245179e+02   3.130012108020e+02 
8
Step 6000
1 1 -1.769954984486e+02  -1.171328425307e+02  -4.851637580794e+02 
2 1 -5.621986019834e+02  -3.074300157721e+02   5.786787199412e+02 
3 1 -1.670028531221e+02   1.266930644911e+02  -5.240878624394e+01 
4 1  9.289588876115e+01   3.269193139098e+02   3.890224720813e+02 
5 1 -3.360603796911e+02   2.616825255092e+02  -2.279574995433e+02 
6 1 -6.984210510845e+01   3.240923813523e+01   2.019463219465e+02 
7 1 -1.647396564467e+02  -1.300121897031e+02  -3.625727550197e+01 
8 1 -2.777672811413e+02   1.273269650369e+02  -1.566914067085e+02 
8
Step 7000
1 1 -2.490209806534e+02  -3.382463117566e+02  -2.848028163231e+01 
2 1 -3.531692325294e+01  -7.821549511485e+01   4.199849755299e+02 
3 1 -4.045698347535e+02   2.850715917234e+02   2.506040767157e+02 
4 1  4.860302655674e+02   1.454222320137e+02   4.204753868362e+02 
5 1  2.465063321509e+02   6.101720510762e+02  -1.011632287850e+01 
6 1  1.554768991147e+02  -9.407827301464e+01   4.192121112856e+02 
7 1 -3.848498789334e+01  -1.872868980440e+00   8.008280764554e+01 
8 1 -4.060231877744e+02  -2.093644191394e+02  -2.921325574619e+02 
8
Step 8000
1 1 -6.797491880237e+01   1.628746500412e+01  -5.897065711225e+01 
2 1 -1.197352757279e+02  -3.118907556278e+02   3.777120149750e+02 
3 1 -1.788955072188e+02   5.127070342166e+02  -1.610663632862e+01 
4 1  3.112687263068e+02  -4.107757617832e+02   1.436883416673e+02 
5 1  7.053610987035e+02   4.123875452738e+02   4.532221573155e+02 
6 1  1.186652470630e+02   5.022680844516e+00  -1.217812024978e+00 
7 1  5.545959012340e+00   1.935709466517e+02  -1.699908721239e+02 
8 1  1.996324181795e+02  -6.324887748397e+02   1.278971783706e+01 
8
Step 9000
1 1 -4.840859591500e+01  -2.637010501698e+00   1.398475903766e+00 
2 1 -1.167059122641e+02  -3.254731104384e+02   4.759859713430e+02 
3 1 -2.008543358589e+02   4.290921664020e+02   1.091951441268e+02 
4 1  3.627330029665e+02  -9.930932419160e+01   3.653343728428e+02 
5 1  2.134668221972e+02   9.516259282708e+00  -3.721021136631e+01 
6 1  1.797829346385e+02   1.005902014971e+02   7.631291876075e+01 
7 1 -1.899908289698e+02  -3.145627776754e+01  -1.219306802243e+02 
8 1 -1.324045679015e+02   3.849698236553e+01   1.622222865484e+02 
8
Step 10000
1 1 -2.169401153739e+01  -2.191777075372e+02  -2.265041983444e+01 
2 1 -9.603202133416e+01   4.794399695554e+02  -9.773827517564e+01 
3 1  1.875166477796e+01  -1.059880286999e+02  -1.440760636747e+01 
4 1  1.744334215673e+02   2.711120214095e+01   2.953219401540e+02 
5 1  5.242885440267e+02  -3.368879471188e+02  -1.259063732276e+02 
6 1  3.460023689968e+02   2.665556661300e+02   3.464805812175e+02 
7 1  8.339744575132e+01   8.731565485509e+01   3.662502841749e+02 
8 1 -3.365309347671e+02  -3.580138246303e+01  -1.356240795335e+02 
8
Step 11000
1 1 -7.615159013416e+01  -1.362903485243e+02  -2.618957874500e+02 
2 1  6.178571504680e+01  -1.593182230582e+02   2.743048016768e+02 
3 1 -1.953665428299e+02   2.892385211025e+02   1.135222801041e+02 
4 1 -2.435107972451e+02   1.470405390388e+02   1.377353221154e+02 
5 1  4.724213328419e+02  -7.550673866129e+01  -2.073989120788e+01 
6 1  1.401971451778e+02  -9.909850192497e+01  -1.132300312512e+02 
7 1 -4.030062929264e+02   6.463480405479e+01   1.369275137606e+02 
8 1  2.150844743490e+02  -3.192782469035e+02   2.338216093883e+02 
8
Step 12000
1 1  1.241600455705e+01   4.464793430310e+02   7.043268695457e+01 
2 1  8.555088937636e+01   3.837317919834e+01  -3.032273569972e+02 
3 1 -1.669654694908e+02   1.681130417190e+02  -4.369641984809e+02 
4 1  9.074225626007e+01  -3.769314037924e+01   2.131766054788e+02 
5 1  8.742784827951e+01   4.458825872151e+02  -5.986907719126e+01 
6 1  3.588339670166e+02   4.564675284235e+02   1.823508366929e+02 
7 1  2.987534421648e+02  -1.008802672207e+02  -3.653446360862e+01 
8 1 -1.172282749785e+01   1.528068086221e+02  -2.670267393574e+02 
8
Step 13000
1 1  1.420855643680e+02   1.486109157485e+02  -1.313934920519e+01 
2 1  2.807791693353e+02   2.585410345817e+02  -2.057328209814e+02 
3 1 -8.361256871041e+01   2.172353648860e+01  -1.696542859295e+02 
4 1 -3.945569348637e+02  -4.583562550434e+01   5.822840788373e+01 
5 1 -3.811244398321e+02   3.704357481017e+02  -4.688216022228e+01 
6 1 -2.689001146878e+02   3.321039111572e+02  -1.118125337060e+01 
7 1  4.073366235223e+02   4.999108702180e+01   1.049093355768e+02 
8 1 -4.039842651053e+02   4.429281880487e+01   2.131654242419e+02 
8
Step 14000
1 1  2.286511991745e+02   8.415598891224e+01  -2.969009745116e+02 
2 1 -7.325053379274e+01  -8.651102257816e+01  -3.580976121203e+02 
3 1  3.240469009795e+02   9.574345116515e+01  -5.880140216673e+02 
4 1 -1.721594814887e+02  -1.615275809735e+02  -4.494934746276e+02 
5 1 -1.931249133980e+02   6.101919063421e+02   2.748126881649e+02 
6 1  1.309116153341e+02  -4.145638480373e+02  -6.925719904236e+01 
7 1 -5.246729049920e+02   2.134352573868e-01  -2.949857013173e+01 
8 1  1.640695886886e+02   4.128874138858e+02   8.099646751369e+01 
8
Step 15000
1 1  3.130829392190e+02  -8.273413414686e+01   1.701490728870e+02 
2 1  2.273114406740e+02   2.952470750937e+02   1.185079507934e+02 
3 1 -5.029571868343e+01   5.392571446768e+01  -1.846045498945e+02 
4 1  1.377645439467e+02   4.520233563304e+02   1.287755574508e+02 
5 1 -2.115538954727e+02  -2.142221089980e+02  -1.688183286341e+02 
6 1 -2.070223907772e+01  -2.619225854205e+02  -1.436751877517e+02 
7 1 -4.303539769014e+02  -1.624409682965e+02   2.233669966914e+02 
8 1  1.726346540618e+02   4.192644250772e+02   9.295982176682e+00 
8
Step 16000
1 1  3.062673244760e+02   5.177467812541e+01  -3.579136123981e+02 
2 1  6.013222850654e+01   1.468929891173e+02  -6.009652433262e+02 
3 1  6.395630746130e+01  -2.763030363586e+02  -6.393222199197e+01 
4 1 -2.072645931316e+02   1.863537162490e+02  -4.707871372658e+02 
5 1  1.678426321920e+02   1.674834099379e+02  -4.371447006576e+02 
6 1 -4.358492364773e+02   1.368723718940e+02  -2.286059470698e+02 
7 1 -3.332734746317e+02   3.271184606489e+02  -4.981500567995e+01 
8 1 -1.045071328377e+02   6.974354228208e+02  -1.328754078851e+01 
8
Step 17000
1 1  4.187471877704e+02  -1.992297898554e+02   1.405823896898e+02 
2 1  1.659497896915e+02   2.273088944328e+02  -2.208324808218e+02 
3 1  2.231314901576e+02   1.979407160877e+02  -1.184903222021e+02 
4 1 -1.643507586346e+02  -2.608418601411e+02  -2.576190594191e+02 
5 1 -7.414668018109e+01   9.881074834733e+01   2.352982235308e+02 
6 1 -3.687154692444e+02  -1.930299912451e+02   2.187691877034e+02 
7 1 -3.639031421004e+02   5.497112619246e+02  -3.676171645786e+02 
8 1 -4.535854372980e+02   1.634372152457e+02   3.055249365265e+02 
8
Step 18000
1 1  2.938687465591e+02  -1.888318918319e+02  -5.745558654525e+02 
2 1 -2.765350977402e+01   3.164565726360e+01  -1.063773655817e+02 
3 1  8.315667648424e+01  -1.475156028499e+02  -4.135209044740e+01 
4 1 -3.130614989094e+02   4.010943839007e+01  -2.281644840490e+02 
5 1 -2.716936692128e+02  -2.889493710472e+02  -3.057655655412e+02 
6 1 -4.730798249877e+01  -3.679304853076e+02   3.034538858565e+02 
7 1 -1.046587081862e+02   3.176139743090e+02   2.402844712095e+01 
8 1 -2.250538922260e+02   1.197975458071e+02   2.062181439889e+02 
8
Step 19000
1 1  2.878800077728e+02   2.465919024950e+02   1.917950278680e+02 
2 1 -9.705648128696e+01   1.198261310421e+02   2.978663764231e+00 
3 1  5.067310757300e+02  -1.329312739421e+01   4.406050043134e+02 
4 1 -2.859223728102e+02   1.177672538933e+02  -4.089334820558e+02 
5 1  5.872318764190e+01  -1.800416202751e+02  -3.588808636492e+02 
6 1  4.935751427400e+01   1.690565499022e+02   3.282279704885e+02 
7 1 -2.199177099951e+02  -1.543962422940e+02   1.903287956259e+02 
8 1  1.848430129220e+02   4.774609278997e+02  -1.642586311992e+02 
8
Step 20000
1 1  5.905040202937e+02  -5.760250423187e+01  -3.276294777342e+01 
2 1 -2.941647859500e+02  -2.291522955452e+02  -1.028705045955e+01 
3 1 -1.722220658689e+02  -2.310590000915e+02  -3.324812275806e+02 
4 1  3.135800107619e+02  -1.071616339110e+02  -1.697120518588e+02 
5 1 -2.596185268294e+02  -1.853538304674e+02   1.799032835519e+02 
6 1 -7.125863202759e+02  -1.763771391768e+02  -4.063766696984e+01 
7 1  1.735993184750e+02   3.875476209582e+02   4.377055167401e+02 
8 1  3.893482065799e+01  -8.812702835684e+01   1.707471772173e+02 
8
Step 21000
1 1  6.140874692556e+02  -1.183548650902e+01   5.550495270276e+01 
2 1 -2.245456479637e+01  -2.352218300343e+02   1.894873851568e+02 
3 1  1.476590646391e+02  -5.659263946144e+02  -1.767059729724e+02 
4 1 -5.822329482220e+02  -6.945565868347e+01   2.981863832837e+02 
5 1 -4.683345899510e+01  -6.060424312328e+02   3.884774839794e+01 
6 1 -1.207856698712e+02   1.954012555504e+02   1.195155959512e+02 
7 1 -1.612386672987e+02   2.336166034206e+02  -6.428621956949e+01 
8 1  3.591939390077e+02   4.330092079638e+01   4.752958612244e+02 
8
Step 22000
1 1  4.680990241615e+02  -1.977464920776e+02   1.982094664639e+02 
2 1 -2.777796554508e+02  -1.955799303515e+02  -1.955354849258e+02 
3 1  5.656488782103e+02  -7.875484959402e+01   1.448615710887e+02 
4 1 -5.224469980405e+01   8.571965514015e+01  -9.832821928953e+01 
5 1 -1.056047843316e+02  -5.076979990365e+02   6.202842798885e+01 
6 1 -6.742308157678e+01  -1.945525629124e+02   7.096100994628e+02 
7 1 -3.521647218651e+02  -4.614464012002e+02   1.765914350383e+02 
8 1 -3.983138354091e+01   1.820407431162e+02   3.854595220008e+02 
8
Step 23000
1 1  5.875995460056e+02   2.034231960636e+02   2.690242294993e+02 
2 1 -3.008776434712e+02  -2.798840377668e+02   6.267750824918e+02 
3 1  4.148988562438e+02   2.110565465356e+02   9.328965270699e+01 
4 1 -4.404859761168e+02   8.598036494441e+01  -1.905467520335e+02 
5 1  3.238714121994e+02  -3.481992667355e+01  -1.182239902899e+02 
6 1  2.967515421351e+02  -9.524205459912e+01   1.015019281738e+02 
7 1  6.000494659997e+02   1.080723218113e+02  -1.043888820173e+02 
8 1  2.751449635110e+02   5.908051923011e+00  -1.870552041196e+02 
8
Step 24000
1 1  3.970500798637e+02   3.184070195923e+01   1.030334974553e+02 
2 1 -2.483024571091e+02  -3.254422642974e+02   1.887015213599e+02 
3 1  3.795670123653e+02  -3.113712529774e+02  -3.138189715248e+02 
4 1 -6.580883609292e+02  -6.309107447398e+01  -3.378954854974e+01 
5 1  2.545834670436e+02  -3.375689065503e+02  -4.231552848011e+02 
6 1 -3.108140652447e+02  -1.280852313416e+02   5.679999269195e+02 
7 1 -1.122339415040e+02   8.393651086487e+01   1.630635420136e+02 
8 1 -2.147757110857e+02  -4.675063894548e+02   2.549330537243e+02 
8
Step 25000
1 1  3.769255801461e+02  -1.168542263521e+01   1.635022888379e+02 
2 1 -3.305685776149e+02  -9.096996402446e+01  -6.002001406133e+01 
3 1  4.299682989627e+02  -2.341168995784e+02   2.008767618326e+02 
4 1 -3.257969296803e+02   9.563801905216e+01   5.271467607826e+02 
5 1  2.169947860231e+02  -8.117835199457e+01  -1.773303427937e+02 
6 1 -2.516820906295e+02  -5.390729745767e+01   7.545404312063e+01 
7 1  5.737713621208e+01  -5.804620158242e+01  -5.480118328313e+02 
8 1  3.839415335597e+02   6.096718019813e+01   4.550490234057e+02 
8
Step 26000
1 1  1.286720108391e+02  -2.089204304825e-01   9.509239029750e+01 
2 1  1.023994605234e+02   3.781219818279e+02   9.558065010193e+01 
3 1 -1.187645910802e+02   7.174410994308e+01   1.158557860632e+02 
4 1 -1.017933871028e+02  -1.319269829540e+02   5.603421629042e+01 
5 1  1.503490952034e+02   1.070579225412e+02   1.396422885060e+02 
6 1 -7.780589937790e+01   3.476176545168e+02  -4.927326661206e+02 
7 1 -8.854725909690e+01  -2.220097601884e+02   3.382699954961e+01 
8 1  3.936656710412e+02   9.644349779620e+00   3.341361165479e+02 
8
Step 27000
1 1 -2.497318598677e+02   1.859198461383e+02  -3.954839879160e+01 
2 1 -1.851963638812e+02  -6.310865894307e+01   2.546336290407e+01 
3 1  3.190657218107e+01   4.440920080285e+02   3.333831609172e+02 
4 1 -7.354615033033e+01   4.800934735264e+02   1.276054530916e+02 
5 1  3.218134177693e+02  -9.448826840126e+01  -2.196251684871e+02 
6 1  3.078679481824e+02   1.801845274944e+02  -1.389980663493e+02 
7 1  5.352375927731e+01  -2.508986126680e+02  -1.987532126895e+02 
8 1 -1.008902202581e+02  -4.376050683370e+02  -2.409422358740e+01 
8
Step 28000
1 1 -8.860749733140e+01   2.279287079291e+01  -3.552844717320e+02 
2 1 -6.904228246776e+02  -8.473524689580e+01  -2.478743131081e+02 
3 1  1.700054137087e+02  -1.332761429416e+02   3.301543149278e+02 
4 1 -5.979538873267e+02  -1.942120591096e+02   3.260617708428e+02 
5 1 -2.710343881486e+01   1.189205216209e+02  -1.273406688340e+02 
6 1 -3.772001730999e+02  -2.121194512035e+01   1.136761968567e+02 
7 1 -3.205588996794e+02   3.950808821971e+02  -2.037996545095e+02 
8 1  1.870171129435e+02  -1.787457302511e+02   1.162984206487e+02 
8
Step 29000
1 1 -5.590400012637e+02   1.666587030281e+02  -1.422981512035e+02 
2 1  2.580678487880e+02   1.002715857771e+02  -1.927467897858e+02 
3 1  2.922443230619e+02   1.231720455474e+02  -1.047785272193e+02 
4 1 -1.342879233902e+02  -3.510212468379e+02   2.660367738133e+02 
5 1  3.524822681145e+02  -2.017221362744e+02   2.656688581639e+02 
6 1 -5.356059571135e+01  -3.457366074619e+02  -1.823578720758e+02 
7 1 -2.859807819354e+01   4.520146759152e+02   2.807475083611e+02 
8 1 -5.620395542318e+02  -1.600073505515e+02  -1.886173635793e+02 
8
Step 30000
1 1 -1.473027259118e+02  -2.059111635759e+02   8.411206490241e+01 
2 1 -1.504825345704e+02   2.295396319440e+02   1.916957039222e+02 
3 1 -5.243736037925e+01  -3.991009772522e+01   1.826429426038e+02 
4 1 -1.856184871512e+02   4.532770026295e+01   2.877423195411e+02 
5 1  4.119565239885e+02  -1.912863425518e+02   4.560546480173e+01 
6 1 -2.969028702456e+02   3.423498308213e+01  -2.927066297114e+02 
7 1 -6.787726090991e+00   9.082502429937e+01   3.358620156211e+02 
8 1 -2.430659583860e+02  -1.023163425813e+02  -1.050672328039e+02 
8
Step 31000
1 1 -4.145067730821e+02  -1.366215163395e+02   2.373796378985e+02 
2 1 -2.502112360055e+02   4.008399628013e+02  -4.086767489082e+01 
3 1  2.363451939150e+02   1.915722249567e+02  -4.059054682600e+02 
4 1 -1.426097904678e+02  -7.353655893219e+02   2.292386932977e+02 
5 1  5.790387209387e+02  -1.298476948272e+02  -2.847812233047e+02 
6 1 -4.325025229691e+02   2.607344126033e+02  -1.820275557280e+02 
7 1 -2.530888804528e+02  -2.607262249327e+02  -8.583466462170e+00 
8 1  1.845974344695e+02   2.964218572999e+02  -4.154450164482e+01 
8
Step 32000
1 1  1.202434504016e+02  -5.535067880910e+02  -1.316944538101e+02 
2 1  1.392632506777e+02  -3.220250437879e+02   6.898461529870e+01 
3 1 -3.548757308603e+02   3.698815102840e+02   1.934885115942e+02 
4 1 -3.777337126747e+02  -5.452132771755e+02   1.422082050908e+02 
5 1 -1.441312590787e+02   1.149228424169e+02   1.108310726097e+02 
6 1 -1.365626126445e+01   1.216955560355e+02   4.167396483099e+01 
7 1 -2.238859444596e+02   3.749752071911e+01  -4.367485886339e+01 
8 1 -2.388728719578e+02  -1.413528168941e+02   1.334033176312e+02 
8
Step 33000
1 1 -1.913471563541e+02  -4.388721791286e+01   1.335866052282e+02 
2 1 -2.400441106174e+02   2.316023416495e+02  -3.225899035042e+02 
3 1  1.490312018496e+02   1.603490853468e+01   4.439233895941e+01 
4 1  3.018363616116e+02  -1.673968425449e+02  -7.541838861367e+01 
5 1  1.209388698439e+02  -6.483600172032e+02  -9.312743205516e+01 
6 1 -2.291307695946e+02  -1.382797583253e+02  -9.063009963224e+01 
7 1 -2.837657535459e+02   5.601639737070e+02   4.703956868021e+01 
8 1 -9.693744665134e+01   1.246070820017e+01   3.497059448573e+02 
8
Step 34000
1 1  8.646397822610e+01  -2.934324969174e+02   4.151790669588e+02 
2 1 -3.871595295641e+02  -2.590760152246e+01   9.355244643953e+01 
3 1  2.617093696570e+02   5.105023951945e+02   1.994490751516e+02 
4 1 -4.719826884312e+01  -6.514672806603e+01   1.232976374544e+02 
5 1  2.960924661697e+01  -2.953262146838e+02   1.101831006493e+02 
6 1  1.145374297532e+02   1.449825696246e+02  -6.955231912691e+01 
7 1  3.339214678426e+02   3.343971617814e+02   1.072254696677e+02 
8 1  3.766956781122e+02   1.616037153850e+02   2.362951730596e+02 
8
Step 35000
1 1 -1.064755804398e+02  -4.128227592204e+02   3.874909322999e+02 
2 1 -2.350582325373e+02   3.819468700830e+02  -5.132135092458e+02 
3 1 -8.058511412560e+02   1.154974289534e+01   3.906635061225e+02 
4 1  1.318873477788e+01  -3.297842970947e+02  -4.112612804163e+02 
5 1  5.583041822464e+01   3.764320314231e+02  -3.115952347223e+02 
6 1 -9.753809241633e+01  -3.907159167735e+01   8.480432380990e+00 
7 1 -1.825763740707e+02   4.139189190457e+01   3.043076569147e+02 
8 1 -2.549453892316e+01   1.783864089907e+02  -9.905198743910e+01 
8
Step 36000
1 1  4.689503163864e+02  -4.642852016612e+02  -8.582054223031e+00 
2 1  2.954789221434e+02   3.870064977770e+02   3.782223507151e+01 
3 1 -2.111067073149e+02  -2.496806816945e+02   2.774163839186e+02 
4 1 -2.312530786664e+02  -2.521536653908e+02   4.334105053911e+02 
5 1  2.834622679344e+02   2.838578957106e+02  -4.852792602334e+02 
6 1  1.365631804997e+02   1.124394248228e+02   3.137539387807e+02 
7 1  2.336431842459e+02   2.509397979805e+02   3.458696059597e+02 
8 1  5.984388406406e+02   5.690908330862e+02  -4.317953783466e+00 
8
Step 37000
1 1  2.164187766819e+02  -1.391070757518e+02   1.136111369715e+02 
2 1 -2.539933193783e+02  -4.394333977738e+02   2.567194732177e+02 
3 1  1.471474634594e+02   5.088138841092e+02  -2.168720408121e+02 
4 1 -4.378671115667e+02   5.084916447391e+01   1.267524712505e+02 
5 1  3.312163122267e+02  -5.035613579374e+02  -1.969314251919e+02 
6 1 -2.631914966825e+02  -9.689431445761e+01   2.513748988159e+02 
7 1  9.340440501288e+01   1.066767583849e+02  -4.041448754430e+01 
8 1 -2.699366821086e+00   1.328170628834e+02   2.871462373370e+02 
8
Step 38000
1 1  4.438580593894e+02   9.981564225277e+01  -2.598349050156e+01 
2 1 -1.978841723282e+00  -2.073621794075e+02   2.827732992902e+02 
3 1  1.324412124464e+02   1.356433296576e+02  -3.658397344059e+02 
4 1 -4.251987946676e+02   3.291970465813e+01  -1.700989964631e+02 
5 1  3.847530949477e+02  -3.904592309507e+01   4.558169180116e+01 
6 1  4.275975129307e+02   6.991632267300e+01  -4.219370198465e+02 
7 1  5.523202841849e+01   1.264883266725e+02  -5.845675621228e+02 
8 1 -2.493648513124e+02   1.196089898206e+01   1.208411830140e+02 
8
Step 39000
1 1 -1.701762315649e+02  -2.493279118633e+01  -4.902423154031e+01 
2 1 -1.629146658382e+02  -2.162273005159e+02   1.008902504888e+02 
3 1  4.417880048623e+02  -1.969669263337e+02  -2.382026571051e+02 
4 1 -1.837900842844e+02   1.047988051715e+02   2.492121447849e+01 
5 1 -4.610635248731e+02   3.131618053055e+02  -6.533593078961e+01 
6 1  7.626654145393e+00  -4.685220321101e+01  -1.294924112509e+02 
7 1  3.570954150962e+02   3.354835825453e+02   8.970386838018e+01 
8 1 -2.953633615563e+01  -4.641397627325e+01   2.747721030579e+02 
8
Step 40000
1 1  6.894052425094e+02   2.505425144382e+02  -4.345855375299e+02 
2 1 -2.772304203094e+02  -2.815365889760e+02  -4.695783554385e+01 
3 1 -1.045551748406e+02   6.430379027576e+01  -3.486986370456e+01 
4 1  9.473861280128e+01   1.482205448705e+02   5.150410121204e+01 
5 1  4.580344023320e-01   3.095209984830e+00  -2.034444592251e+02 
6 1  1.721137187245e+02   1.297080003780e+02   6.364453707662e+01 
7 1 -6.304117640022e+01  -3.904407825499e+01   3.363936180260e+01 
8 1 -1.061229170990e+00   6.674526978434e+00  -3.263587856948e+02 
8
Step 41000
1 1 -8.254388258320e+01   1.723086003591e+02  -3.677056698676e+02 
2 1  1.180778733945e+02  -1.403718101744e+02   6.357933543783e+01 
3 1  5.017482599773e+01  -2.686552697126e+02   8.016637233638e+00 
4 1 -4.192059053698e+01   4.411132553045e+02   6.713323553763e+02 
5 1 -1.663385690583e+02   6.090429590061e+01   5.129283100820e+01 
6 1  3.631858684987e+02   3.984952441559e+02  -2.082790300572e+01 
7 1 -1.066779493025e+02  -3.065614382735e+02  -3.247109079470e+02 
8 1  1.185147699390e+02   5.030984588602e+02   4.642733695240e+02 
8
Step 42000
1 1  1.337936378722e+02   3.264085551972e+01   2.371829264639e+00 
2 1 -2.230596208807e+02  -1.711603868664e+02   7.533356715435e+01 
3 1 -3.591593469838e+02  -3.390993152353e+00  -1.981074228337e+02 
4 1  5.227218201551e+01   3.729722663806e+02   2.251443919319e-01 
5 1 -2.174968840246e+02   5.872432125070e+01  -5.321938645615e+02 
6 1  4.062639838223e+02  -1.921114658758e+02   3.962391417214e+01 
7 1 -7.159238055046e+01   1.443909534413e+02  -4.489424936248e+02 
8 1 -7.060733646653e+01  -1.763698023192e+02   5.122673422704e+01 
8
Step 43000
1 1  1.734562413998e+02   1.515627547908e+02   2.468287510513e+01 
2 1 -2.262794388682e+02  -6.245446463207e+02   2.222613216608e+02 
3 1 -2.554111223541e+02  -2.816496570462e+01  -1.636359093719e+02 
4 1  1.257741139856e+02  -5.932902174554e+01   6.619880839130e+01 
5 1  4.006413770495e+02   2.772226155479e+02  -2.866064201384e+01 
6 1  2.351432862920e+02  -1.625631334602e+02  -2.023034532017e+02 
7 1  2.168024698196e+02   3.440514623435e+02   8.717125505966e+00 
8 1  4.781141404736e+02  -5.233316026584e+02  -2.629347387971e+02 
8
Step 44000
1 1 -4.024422399842e+02  -3.093163156233e+01  -5.568440522067e+02 
2 1  1.790080281226e+02  -1.258357117555e+02   5.028442164318e+01 
3 1  4.232095346597e+01  -1.291069705496e+02  -1.854908587929e+01 
4 1  1.423990459725e+02  -2.368171260564e+01  -4.540517923401e+02 
5 1  5.589207695082e+01  -1.762375181945e+02  -1.437481529251e+02 
6 1  4.671702580797e+01   1.496434795033e+02  -2.084904777590e+02 
7 1  5.251609343588e+01  -5.328820973473e+02   3.113867005395e+02 
8 1  3.236011112086e+02  -1.633171272935e+02  -9.552335040090e+01 
8
Step 45000
1 1 -2.205551058699e+02  -2.778268690477e+01  -2.472533742255e+02 
2 1  2.910047377545e+02   1.159295258596e+02   3.040662790325e+02 
3 1 -4.465164157977e+01  -1.170959303153e+02   4.026115923687e+02 
4 1  3.855690711375e+02   1.079181047437e+02   1.459710982573e+02 
5 1 -1.744918020329e+02  -3.069645334025e+02  -1.010905682775e+02 
6 1  1.061973426891e+02   2.335774335487e+02  -5.197375619313e+02 
7 1  9.575617921314e+01  -2.221815830120e+02  -6.467317684018e+01 
8 1  5.383231289122e+02   1.267579513882e+02  -1.765006596379e+02 
8
Step 46000
1 1  2.900773634912e+02  -8.356048754006e+01  -1.507849610404e+02 
2 1  1.204910623195e+02  -1.064779249627e+02   2.701186725313e+02 
3 1 -1.819867809570e+02  -4.203927696533e+02  -1.853184243256e+02 
4 1  6.108525935511e+02   1.647382677985e+02  -1.897091214851e+02 
5 1 -2.261778808283e+02   9.695209735028e+01  -8.877998736706e+01 
6 1  4.177378013689e-01  -7.128862913641e+01  -1.003203658008e+02 
7 1 -1.827238440753e+02  -2.112234962583e+00   5.529072808439e+01 
8 1  2.608687117314e+02  -3.925923006597e+02   3.078874309742e+01 
8
Step 47000
1 1  1.510011415553e+02  -4.318108832973e+02   1.672193795119e+02 
2 1  4.801510077466e+02   6.004590719810e+01   3.723403878098e+02 
3 1  4.647424863824e+02  -3.278741390911e+02   8.039685932683e+01 
4 1  6.769014791344e+01  -1.565809202019e+02   2.555420719248e+02 
5 1 -1.282158411725e+02  -1.586945124489e+02  -2.303722565294e+02 
6 1  2.030962257884e+02  -5.026517198283e+02  -3.223965788234e+02 
7 1 -3.607546049148e+02   8.385106273107e+01  -2.380934854045e+02 
8 1  2.002971971393e+02  -6.831074267567e+01  -1.834603760396e+02 
8
Step 48000
1 1  1.116253164675e+01   2.118930421898e+02  -7.779159953816e+01 
2 1 -2.982807822791e+02   3.458995322390e+02  -7.467749708917e+01 
3 1  3.084093815983e+02   4.140111602637e+02   1.080563018311e+02 
4 1 -9.744616890951e+01  -4.469437589890e+02   5.107465665438e+02 
5 1  3.187738002343e+02  -9.645854691675e+00  -3.369816862869e+02 
6 1 -1.526811228259e+02  -9.197495059013e+01   2.763014469132e+02 
7 1 -3.831222266878e+02   9.597465048506e+01   1.299545236080e+02 
8 1  3.539786574100e+02   5.185541514456e+00  -3.623934876551e+02 
8
Step 49000
1 1  2.049982880319e+01  -5.397663613207e+01   1.239517308019e+02 
2 1  2.949125203327e+02   3.260112795704e+02   9.290667570393e+01 
3 1  8.589080598308e+01   4.016197520752e+02   2.968655718494e+02 
4 1 -2.722249681373e+02  -5.022201888606e+02  -9.409940371397e+01 
5 1  5.915354271484e+02  -1.418490985455e+02  -6.559936139921e+02 
6 1 -1.228349895353e+02  -2.759342165104e+02  -3.887903887567e+02 
7 1 -4.748645619859e+02   1.937037610044e+02   2.442574551035e+01 
8 1  2.358887806643e+02  -1.382480818008e+02  -3.570810494948e+02 
8
Step 50000
1 1 -2.037430853512e+02   7.030822698360e+01   3.849158816772e+02 
2 1  4.600919785350e+02   3.770349671521e+02   1.851060427176e+02 
3 1 -2.513319193161e+02  -2.059687580717e+01   3.755212406327e+02 
4 1 -2.829319899704e+02  -2.293216839648e+02  -1.178964112279e+02 
5 1  2.530712369125e+02  -1.050078176660e+02   2.148184317812e+02 
6 1  7.048233097946e+01   2.404714862988e+02  -2.152630227086e+02 
7 1 -3.478549601238e+02   3.880195330400e+01   3.504774655916e+01 
8 1  4.203762099246e+01   4.045106458858e+01  -4.405897158751e+02 
8
Step 51000
1 1  1.518194195143e+02   2.750225398918e+02   3.216946012063e+02 
2 1  3.513005580499e+02  -7.277805708043e+01   1.504715356412e+01 
3 1 -1.184714422010e+02   5.979760979156e+01   3.165352564239e+01 
4 1 -5.509780353732e+01  -5.140044184007e+02  -2.218592311243e+02 
5 1  3.637842429016e+01  -2.493851029810e+02  -2.593308738274e+02 
6 1  6.220737209733e+01   3.176835032543e+02   4.778336851242e+02 
7 1 -5.201049743093e+02  -4.105430095506e+02   3.261534027564e+01 
8 1 -2.764497569971e+02  -1.485596968284e+02  -6.694218871538e+02 
8
Step 52000
1 1 -3.065125699094e+02   6.045081150896e+00   9.816515853287e+01 
2 1 -5.901516305977e+02   1.529544965473e+02   2.976074461986e+02 
3 1 -7.451224923743e+01   2.271412432063e+02   9.623265502691e+01 
4 1 -2.591049602827e+00  -9.447664756231e+01   2.935462270319e+02 
5 1 -2.940681607640e+01   1.313278604831e+02   9.735702047974e+01 
6 1  1.313715016288e+02   2.134086555744e+02   2.602159414865e+02 
7 1 -3.805407997019e+02   2.481810774312e+02   2.758768830883e+02 
8 1 -4.795003354836e+02   2.164101517453e+02  -3.361527544636e+02 
8
Step 53000
1 1  2.037225860210e+02   8.522256653974e+01   1.103141473621e+02 
2 1 -1.264814139303e+02   1.232030784009e+01   1.156053268976e+02 
3 1 -3.288544173381e+02   2.979632864424e+02  -3.124926360544e+02 
4 1 -6.178747551828e+02  -3.529356596486e+02  -1.501951074216e+02 
5 1  9.168110159515e-01  -1.693625793726e+01  -4.131204847561e+02 
6 1 -3.354162538688e+02   1.651334542416e+02  -1.593676480693e+02 
7 1 -9.210923270771e+01  -1.437308323140e+02   2.363446021328e+02 
8 1 -1.321174695856e+02  -8.732478678077e+01  -3.086536093007e+02 
8
Step 54000
1 1  1.541343392367e+01  -1.719238826833e+02   3.100406741556e+02 
2 1 -4.399991629643e+01  -2.758124376418e+02   2.527481234265e+02 
3 1 -4.222016996214e+02   6.473423623549e+02   5.670119930635e+01 
4 1  1.417984619400e+02   3.235069155232e+01   1.395833715259e+02 
5 1  6.382041708898e+02   1.592450738987e+01  -3.968260694627e+02 