8
Step 0
1 1 -1.63085447218212186e-02 5.71538539859604410e-03 6.16730094070877446e-03
2 1 -1.69856754912572254e-03 9.30620768858968390e-03 -1.34134743035989133e-02
3 1 -2.69444251818120423e-04 7.49780013862162090e-03 -6.19924649427717068e-03
4 1 4.56207214342048504e-03 1.63624653388967610e-02 1.88504868355723124e-02
5 1 -2.76832238876628060e-03 1.91735204882856093e-02 3.85471838598796732e-03
6 1 -8.05249416750632684e-03 -1.09359132075964489e-02 -8.92822171676664958e-03
7 1 -1.15855081982009552e-02 -5.64321744221356423e-03 1.20246030604634589e-02
8 1 -7.14678496468135280e-03 -2.28319440408336800e-02 -1.73603939755569538e-03
8
Step 1000
1 1 1.30337057599902092e-02 -1.01061882558757341e-02 9.17765651632361100e-04
2 1 -3.45669414019642365e-03 9.95557176885086652e-04 1.02321221023530633e-02
3 1 -3.81362361121121698e-03 -9.66847132841311798e-04 1.47784869149401497e-03
4 1 -1.14153392288588399e-02 -1.09252462712320954e-02 -7.36327326422688087e-03
5 1 -8.55656796210879644e-03 -1.53157421912081745e-02 -4.67378909468754884e-03
6 1 9.50828129597122186e-03 3.60979930905730440e-03 1.29530649846709093e-03
7 1 3.21475180914326201e-03 1.28184736554939078e-02 -3.08109704756088978e-04
8 1 7.94626968553226003e-03 1.97383529224813038e-02 7.33457701508366793e-03
8
Step 2000
1 1 -6.96010727048715708e-03 9.82354614683349746e-03 -6.15931167464173895e-03
2 1 4.73946881389681468e-03 -6.36585568873623137e-03 -3.93626302612725635e-03
3 1 5.21640990434003946e-03 -1.18018945275287089e-03 1.01630506445956977e-04
4 1 1.21629444032007109e-02 6.05170489359722202e-03 -5.65522179798795977e-03
5 1 1.01497081326732581e-02 8.37735484956866894e-03 2.70173541647101114e-03
6 1 -1.00464060513544545e-02 -1.08674740377033173e-03 5.10785635480221628e-03
7 1 1.45533797126229250e-03 -1.30128960713981404e-02 -6.29325769559851630e-03
8 1 -6.19063694346097450e-03 -8.73229606182593203e-03 -7.69404715586855751e-03
8
Step 3000
1 1 8.82347276184490331e-04 -4.76263114428025422e-03 7.08411760672067806e-03
2 1 -3.12561543805394294e-03 8.49752763971254287e-03 -1.40080927975494603e-03
3 1 -2.87744648048141472e-03 -1.81918353095554585e-03 2.24624244309598494e-04
4 1 -1.05892230656655685e-02 -4.37901588304368330e-03 1.24000855355200761e-02
5 1 -8.44375033060660446e-03 -3.37321066605559975e-03 1.71651797972883287e-03
6 1 1.27666111574433715e-02 1.34537019538563435e-03 -1.18323536340273431e-02
7 1 -1.20914082829700893e-03 7.70848373523002912e-03 4.97051937775894268e-03
8 1 3.53191335458178952e-03 -4.83392320038519472e-05 4.74720968719489871e-03
8
Step 4000
1 1 3.77743013115842486e-03 -1.20118151458015418e-04 -7.57513708489273435e-03
2 1 9.64203675050358342e-04 -8.86571796640151996e-03 4.00146362361183342e-03
3 1 -2.72138179579589244e-03 7.26021785511802350e-03 -1.52615424875548046e-03
4 1 5.90499556318712163e-03 4.41392859155245471e-03 -1.28570925780498377e-02
5 1 3.12838720569939702e-03 -1.60249201303898641e-03 -7.48077392448974216e-03
6 1 -1.47924402757398533e-02 -1.00359498528969945e-03 1.60732015634956829e-02
7 1 -1.67058021079696242e-03 -3.97458249332040617e-03 -2.13239566579654250e-03
8 1 -2.28490925459531391e-03 4.34193019034873322e-03 -1.51999799170760052e-03
8
Step 5000
1 1 -5.67483902130299506e-03 1.14714764127055017e-03 7.07178573109409556e-03
2 1 1.34258715194972571e-03 5.47757092760725508e-03 -3.65603983955963040e-03
3 1 8.67639364046815000e-03 -1.15838188401085687e-02 2.56376943918386552e-03
4 1 -1.36861735142010664e-04 -5.41141936895925529e-03 8.58138014066434605e-03
5 1 5.86801049890406032e-03 7.01282579126584656e-03 1.32002859510274677e-02
6 1 1.33795372663418431e-02 -1.56075517113938840e-04 -1.31123549946054740e-02
7 1 4.77711376392121918e-03 7.39284683001486197e-04 -3.56387075622593096e-04
8 1 2.26324736528813472e-03 -5.80560136437940563e-03 -2.27337259063842929e-03
8
Step 6000
1 1 4.33083572703918309e-03 1.79090823773998950e-03 -4.99321819463665814e-03
2 1 -4.43640360295222309e-03 2.32561342577500361e-03 2.09874476812639283e-03
3 1 -1.12130361084387935e-02 1.14443882573269234e-02 -2.54818884211022211e-03
4 1 -3.93229220129659527e-03 5.80984344839242071e-03 -1.60284405916798732e-03
5 1 -1.59915044172511851e-02 -1.19572639829366254e-02 -1.44235811236199610e-02
6 1 -1.02249308293168896e-02 1.87149339375628399e-03 5.38058684562621719e-03
7 1 -6.58385186463088506e-03 2.08899079512676455e-03 1.36094317137614666e-03
8 1 -2.88011289900869886e-03 3.69728969447424708e-03 5.22143177752735360e-03
8
Step 7000
1 1 -1.75137544804991553e-04 -8.79592677283759158e-03 1.72707060629570747e-03
2 1 8.57824595167005002e-03 -1.21722602789328949e-02 -1.86162572459787345e-03
3 1 8.66529010397834587e-03 -6.50215690359059236e-03 1.79575936494901205e-03
4 1 6.11871382741119383e-03 -5.81361795420801217e-03 -7.01363851155561210e-03
5 1 1.99363100756483544e-02 1.31997398948783731e-02 7.07218104286470774e-03
6 1 6.66341357992187959e-03 -3.23398519230022174e-03 5.62869138796690330e-03
7 1 6.00227671179806490e-03 -4.46613879266851040e-03 -2.77257020080592942e-04
8 1 4.72966000907149020e-03 1.43146533663168090e-03 -5.33406244677419195e-03
8
Step 8000
1 1 -6.34513752565376687e-03 1.73340388701191533e-02 2.35778037651349992e-03
2 1 -1.27852206855485259e-02 1.87965378525762790e-02 5.03715638190375004e-03
3 1 -6.99059989455353727e-04 -1.26978191069226681e-03 -1.52715687151017522e-03
4 1 -5.21318302835386410e-03 6.10269850171453118e-03 1.28258453296072137e-02
5 1 -1.43735662920522894e-02 -1.11534849319756147e-02 4.05565432844300078e-03
6 1 -2.69215300151078897e-03 2.95653390768769531e-03 -1.74866443250220917e-02
7 1 -3.23581955967407750e-03 4.50523883859630259e-03 -2.18493598575620262e-03
8 1 -8.68625313989772330e-03 -7.45972054598385923e-03 3.15555175102694672e-03
8
Step 9000
1 1 9.95231440345274547e-03 -1.71779718357331669e-02 -1.92109341088290628e-03
2 1 1.49835617073997267e-02 -1.78860547165888874e-02 -9.96827958405897309e-03
3 1 -1.32282461453742325e-02 9.27096715527420644e-03 4.59292547176173242e-03
4 1 1.32961827600990143e-03 -5.74977377966734253e-03 -9.45383812174032355e-03
5 1 3.62498277545199917e-03 7.53670007927936553e-03 -1.07796647896147482e-02
6 1 1.88325243058544886e-05 -2.74994433477768847e-04 2.29341104603786525e-02
7 1 1.02634300106390687e-03 -1.79243459825717435e-03 5.32691590007863206e-03
8 1 1.33718111533956321e-02 1.11383816333854389e-02 -5.72822317926467879e-04
8
Step 10000
1 1 -7.75969172501239472e-03 1.07275986473542931e-02 -4.96332901399265149e-03
2 1 -1.31828867118283163e-02 1.19684804636153996e-02 1.19114399387534771e-02
3 1 1.98297916650738253e-02 -9.66000752073051423e-03 -2.06974913984791630e-03
4 1 2.15670092804060888e-03 5.59457131772426921e-03 -1.96614389072115791e-03
5 1 3.47862577385986112e-03 -5.10727310577584540e-03 1.22588007485395049e-02
6 1 -2.94674893314845034e-04 -3.17844917364141621e-03 -1.80578713571546944e-02
7 1 -2.58150028385444302e-03 -1.13244340134929485e-03 -7.80612498905894434e-03
8 1 -1.56850927962500705e-02 -1.03954737033918037e-02 -4.68196348157680570e-04
8
Step 11000
1 1 3.32455995363830021e-03 -2.83610992539543982e-03 1.51108331514471436e-02
2 1 9.64511405863377295e-03 -9.32102917454714040e-03 -1.08768954079116829e-02
3 1 -1.07134716317552371e-02 5.97959096748497247e-04 8.27886067955061508e-04
4 1 -2.67799673917272583e-03 -2.54874407232237501e-03 1.55105844440799265e-02
5 1 -8.06907282587965811e-03 4.08711197538495254e-03 -1.35144372848300283e-02
6 1 3.54405138318311186e-03 5.89314505731303607e-03 7.47327880342664192e-03
7 1 7.99244589958283784e-03 3.52052467209119663e-03 9.10512004961542415e-03
8 1 1.40134378034484867e-02 5.32154781127440555e-03 -2.50367357030804535e-04
8
Step 12000
1 1 1.62599725348294070e-03 -3.04984980575442139e-03 -2.24517945233501104e-02
2 1 -4.91071479567839909e-03 1.06372195847388926e-02 7.47283908098434532e-03
3 1 9.25723659818302439e-05 6.82403642208250557e-03 2.00227475202090222e-03
4 1 -1.00496503527088910e-03 -4.37036109518351527e-03 -2.05723772313554654e-02
5 1 1.10752444506706290e-02 -3.07936757868993707e-03 1.23007611095641792e-02
6 1 -9.16904835904352664e-03 -7.73718517403782294e-03 3.68111031158476322e-03
7 1 -1.58176247252352666e-02 -5.59633020006081346e-03 -1.04059440237804206e-02
8 1 -8.78969150930206979e-03 1.91223508605109678e-03 1.88306306171773219e-03
8
Step 13000
1 1 -5.28512606638298615e-03 3.82157775343388434e-03 2.15616903638998735e-02
2 1 8.85750754201693647e-04 -1.30214527824244475e-02 -2.10540657642514523e-03
3 1 9.34307598381437822e-03 -1.12238698664062237e-02 -6.81846682405946435e-03
4 1 5.16484931129268174e-03 1.21418713544181132e-02 1.52334607227710382e-02
5 1 -1.27158409327100680e-02 1.87709006956236746e-03 -7.25462355228514641e-03
6 1 1.78349412911224005e-02 9.71398203363343406e-03 -1.24354357686150239e-02
7 1 1.99117382802013049e-02 7.04890158365689343e-03 1.10121052076543081e-02
8 1 2.42552957636215771e-03 -6.79874529912685970e-03 -5.68683905663771878e-03
8
Step 14000
1 1 6.60534026958774050e-03 6.28583592731972061e-04 -1.48188140779390229e-02
2 1 -6.91277588155555958e-04 1.34111606625668383e-02 -4.17733748743298345e-03
3 1 -1.85023434318684413e-02 1.34628833510798233e-02 1.26976716826862918e-02
4 1 -6.07176798550081685e-03 -1.71484374733673790e-02 -5.53293908111241947e-03
5 1 1.30554564688330401e-02 -1.47788641172152675e-03 -1.01839179418473707e-03
6 1 -2.37368963908389033e-02 -8.63598637184311881e-03 1.43953060959916678e-02
7 1 -1.63979852226271393e-02 -6.12093735051566154e-03 -8.02651932182000226e-03
8 1 1.83861505159867997e-05 1.15796031190155205e-02 7.93414026741396522e-03
8
Step 15000
1 1 -5.97476561620911319e-03 -9.17298870679624824e-03 6.86396188742482375e-03
2 1 5.39358929601842663e-03 -1.10509887095989155e-02 1.09278557918118281e-02
3 1 2.37397962793041289e-02 -1.18974607155301042e-02 -1.58970054185983249e-02
4 1 4.25675329993523491e-03 1.50419267508850995e-02 -3.77799553130333914e-03
5 1 -1.19147008810061815e-02 1.15326765915913973e-03 9.14074708949406609e-03
6 1 1.63039031776483004e-02 1.43239467775358614e-03 -4.79559144796795622e-03
7 1 1.47931096496422259e-02 5.45579865065677367e-03 5.56737679646497098e-03
8 1 1.28367113717838097e-03 -5.54080720681436167e-03 -6.24145108136497581e-03
8
Step 16000
1 1 2.26342299674249427e-03 1.88937270827114062e-02 5.76525099667963160e-04
2 1 -1.33402376969463284e-02 6.78398178808898439e-03 -1.56758462337606951e-02
3 1 -1.71721624514612828e-02 5.04899926136676870e-03 1.09835477303561243e-02
4 1 -1.54583711687901557e-03 -9.45603519745275706e-03 9.45620273874957749e-03
5 1 4.36633511761557510e-03 -1.42518123486707346e-03 -1.15988694228696624e-02
6 1 -2.58435008071232746e-03 6.08564235872316190e-03 -5.18836647024123899e-03
7 1 -1.60392537462316770e-02 -5.55103227933793908e-03 -1.66683824189949687e-03
8 1 -8.11744993684070625e-03 -2.85090850263406857e-03 3.92580395396546680e-03
8
Step 17000
1 1 4.00769131387661466e-03 -2.31232645556189685e-02 -3.13133094277812194e-03
2 1 1.88772589130050059e-02 -2.37141850085751836e-03 1.32398465200590475e-02
3 1 5.62894349303284455e-03 1.79203253711490555e-03 -2.57052425549741080e-03
4 1 3.23845461589098338e-04 3.75577434591089230e-03 -1.44093976326184307e-02
5 1 3.53095256018087647e-03 3.36194307903048446e-03 7.68964772582780669e-03
6 1 -7.41903090954293496e-03 -7.51372016979901750e-03 8.45481453898457719e-03
7 1 1.68244713224511497e-02 5.04258447337501466e-03 -4.23414860089468652e-03
8 1 1.77420256814296053e-02 6.89840715631005394e-03 -2.05398209639408693e-03
8
Step 18000
1 1 -8.26201645343067198e-03 1.84050580701407979e-02 -1.57506502372113427e-03
2 1 -1.72055769146192833e-02 7.57390260386243313e-04 -3.86164610247469392e-03
3 1 5.79891531206638594e-04 -3.37953080516251734e-03 -3.01221293766120411e-03
4 1 -5.03828324029430893e-04 4.87761979231598249e-03 1.73490915416201381e-02
5 1 -9.42889472264352851e-03 -6.54715230820362634e-03 -2.51240032157835544e-04
6 1 1.25924803492339261e-02 4.33749422725825638e-03 -6.77052338421632420e-03
7 1 -1.53683430404879147e-02 -4.25797836722942909e-03 8.33651599360905014e-03
8 1 -2.36275922608450983e-02 -7.21868789828466074e-03 3.39448299070103880e-05
8
Step 19000
1 1 8.18460934635964477e-03 -9.05538798337134597e-03 8.85331736212367597e-03
2 1 9.85404177371766374e-03 -2.16168434134957586e-03 -4.92914270790036253e-03
3 1 -4.29323090153331966e-03 1.63962092107450014e-03 5.93996187417041108e-03
4 1 1.40071108469325026e-03 -1.27975569403733971e-02 -1.42113884440336295e-02
5 1 1.36611494251345968e-02 1.03427131669240266e-02 -8.92740252101318493e-03
6 1 -1.41352221281621955e-02 8.25125447773920602e-04 3.25589695788698879e-03
7 1 1.28046650429035989e-02 3.88901077756356696e-03 -8.28223933939034249e-03
8 1 2.09162187430651896e-02 4.88041892302761016e-03 2.19990821197262564e-03
8
Step 20000
1 1 -4.88030120892424778e-03 7.96259845766240904e-04 -1.17700237131237902e-02
2 1 -1.93524139677191511e-03 4.77528723547883480e-03 8.72740981555346525e-03
3 1 5.57684078408853066e-03 1.78673443250445250e-03 -5.74704259314756920e-03
4 1 -1.89810009965225455e-03 1.24303170146043279e-02 5.31754953654307600e-03
5 1 -1.51202032488846807e-02 -1.25835531009458653e-02 1.75267419461868461e-02
6 1 1.17895484410576266e-02 -6.15331912228103683e-03 1.22347655661969162e-04
7 1 -1.09830920487765382e-02 -4.04564087581108043e-03 5.42237413106678740e-03
8 1 -1.05714580220080626e-02 -1.50078635405279668e-03 -3.78800536078724437e-03
8
Step 21000
1 1 2.89963340238890040e-03 2.68647461823183454e-03 1.00307989754605097e-02
2 1 -4.72365441743156662e-03 -7.75964312867575071e-03 -8.04590966523956348e-03
3 1 -3.90438820916597443e-03 -4.22033097004572040e-03 2.98083574154567495e-03
4 1 3.56321580710972259e-03 -1.08751166238259464e-02 -1.23632767725650951e-03
5 1 1.18941590368067240e-02 9.93126444179253873e-03 -2.01184699555134183e-02
6 1 -7.44872147106247218e-03 1.00816331230658609e-02 -9.66631047662892861e-04
7 1 1.12002929713543153e-02 4.61077884407576268e-03 -1.32175980795307536e-03
8 1 2.58780667579376579e-03 5.07504969817482274e-04 4.24878140784044726e-03
8
Step 22000
1 1 -3.55604335782373944e-03 -2.15797658417770559e-03 -8.65834387347971975e-03
2 1 9.95938503492298753e-03 9.86651850982972305e-03 3.76505550891142928e-03
3 1 7.19821778958544415e-04 3.50278050536960775e-03 -6.74381309759510298e-04
4 1 -4.29567243842058754e-03 9.05585630005173448e-03 1.17624749134952102e-03
5 1 -6.40629315960245926e-03 -2.70461768397514419e-03 1.53432616132110605e-02
6 1 3.45357045766312310e-03 -1.14443469489337139e-02 -1.68433393953901613e-03
7 1 -1.40904537884037426e-02 -5.61658219865378717e-03 -2.87733789885858890e-03
8 1 -2.75933196126731646e-03 -1.96953872251549042e-03 -4.58077266568727732e-03
8
Step 23000
1 1 6.06289384371487550e-03 -1.13836701950994525e-03 7.39170599341895489e-03
2 1 -1.55005398130409529e-02 -1.02367326154803977e-02 4.16006239990377152e-03
3 1 3.06507201234020856e-03 -1.09635705509678676e-04 1.84994308054815555e-03
4 1 5.05496856077476166e-03 -4.42494930847523848e-03 -3.18001294125414523e-03
5 1 1.48758909456216072e-03 -4.91504938825651147e-03 -6.68317552677491575e-03
6 1 7.34812747720749301e-04 8.74398658979545600e-03 4.74400485128325701e-03
7 1 1.68252309509454925e-02 5.94205097009478742e-03 6.05526521356049806e-03
8 1 9.52214649785692278e-03 3.63021099533282357e-03 2.94918726085421912e-03
8
Step 24000
1 1 -9.82616989081727329e-03 6.99092163642464279e-03 -4.34582049914837131e-03
2 1 1.95229727731265380e-02 9.46293058325793635e-03 -1.58468671327940541e-02
3 1 -8.50864633370756844e-03 -5.65100542535185504e-03 -6.05656509103927061e-03
4 1 -6.91983426295844899e-03 -3.27582206013673875e-03 7.57421071688825758e-03
5 1 2.38367459427915943e-03 8.50016979842536068e-03 -1.85308584784735979e-03
6 1 -3.47564334249572324e-03 -4.30339923064978428e-03 -4.12439273998276186e-03
7 1 -1.53732742008962971e-02 -4.68286368587961157e-03 -7.05267713998955319e-03
8 1 -1.67124394942431247e-02 -3.62058326978811169e-03 6.96241776492406293e-04
8
Step 25000
1 1 1.39072178631256035e-02 -1.32392609421225719e-02 -1.24407775218232956e-03
2 1 -1.17619916647090685e-02 -4.72225041213793564e-03 2.06068976766789862e-02
3 1 1.37819463655328676e-02 1.07028301314701403e-02 9.09850630934913758e-03
4 1 8.88299887753586995e-03 1.14470792995050776e-02 -1.27252601529371408e-02
5 1 -3.22835385591434048e-03 -8.76295734879533640e-03 4.52105279256237447e-03
6 1 4.42539084997916818e-03 1.66930779452510031e-03 -1.00756961003274420e-03
7 1 1.17807624592439365e-02 3.42246519416918331e-03 6.53082392064448063e-03
8 1 1.89937619405747271e-02 8.27962805760295304e-04 -4.95745762517347567e-03
8
Step 26000
1 1 -1.60152807507576364e-02 1.60383140673716965e-02 6.78002171207170001e-03
2 1 1.12423999582112927e-04 -9.71423291233825263e-04 -1.40007162141250144e-02
3 1 -1.34203232985299591e-02 -1.19965572104949875e-02 -8.16297023985120516e-03
4 1 -7.74949140031027436e-03 -1.58679219358158242e-02 1.39445413075200333e-02
5 1 1.59458932290279303e-03 6.97527366001431809e-03 -1.90451169255343561e-03
6 1 -5.70822734577271316e-03 -2.39828155516662702e-03 9.97768682681706570e-03
7 1 -6.09080147716417348e-03 -3.03173353275235135e-03 -8.78872314630363936e-03
8 1 -1.63430345985253120e-02 3.59328466715597367e-03 7.22566445125286030e-03
8
Step 27000
1 1 1.35740028479267305e-02 -1.27411867655053725e-02 -7.93191105978330660e-03
2 1 7.03730522880901058e-03 5.11561326359905814e-03 4.91433675664553534e-03
3 1 9.01722587350890954e-03 9.33183195573712189e-03 4.46148023873816062e-03
4 1 4.44941256099785128e-03 1.41348012183998804e-02 -1.22582897742034135e-02
5 1 1.42541815143570395e-03 -3.45363234718822206e-03 -2.66752963614356282e-03
6 1 7.70955842529939903e-03 4.84165413278752742e-03 -1.78373811011660471e-02
7 1 -1.38748347407141462e-03 4.15103247912606242e-03 8.52957929864148374e-03
8 1 1.20687939096856892e-02 -6.79736619332195913e-03 -6.26812195457504377e-03
8
Step 28000
1 1 -8.90121792285131393e-03 6.83677202720647977e-03 4.46456826830272328e-03
2 1 -8.74629987613616960e-03 -7.09616742287736985e-03 1.43985204613649126e-03
3 1 -2.04842361822294566e-03 -4.65551323598481850e-03 2.98207749703777560e-04
4 1 -1.05721736867908189e-03 -7.36363823676196814e-03 8.82560632630529501e-03
5 1 -4.75157202104740939e-03 -8.92622477070076185e-04 6.33166145536085724e-03
6 1 -7.43741426789959383e-03 -6.35526975931490021e-03 1.55879728587531019e-02
7 1 6.80293022588540543e-03 -7.72744667109782034e-03 -9.05943528426315578e-03
8 1 -9.07605398029751737e-03 7.92304343751462983e-03 3.64268020924749794e-03
8
Step 29000
1 1 5.82515666781109089e-03 -2.22340505298717489e-03 -7.45719245075108909e-04
2 1 6.99346738340633593e-03 7.16174185381999919e-03 -3.05226400137639407e-03
3 1 -6.71436446584351265e-03 -4.81352572269984827e-05 -4.65664203242275102e-03
4 1 -1.39708052581624513e-03 -2.36694247457097228e-03 -3.37228945611875832e-03
5 1 7.34436105163447598e-03 3.92924444599724535e-03 -5.98595049896019377e-03
6 1 5.34263776338673915e-03 5.07644729131782185e-03 -5.87826340167205835e-03
7 1 -8.87501453550302438e-03 1.20444128338861953e-02 9.65209790946890481e-03
8 1 7.65812158580014141e-03 -7.95172687232225880e-03 -1.23830075756867718e-03
8
Step 30000
1 1 -5.42356314395199893e-03 -6.23007254055074687e-04 -1.35115708666986548e-03
2 1 -4.08751962641788497e-03 -7.19241363243367567e-03 4.86376708233546577e-04
3 1 1.39127638284556304e-02 2.52610045942299128e-03 7.23229868340059465e-03
4 1 2.71598648683649959e-03 1.37738027824831407e-02 -4.53286764161643478e-03
5 1 -8.25183687154775955e-03 -3.13439715379912288e-03 1.44318989630551732e-03
6 1 -2.83224206061035615e-03 -9.22492723990142268e-04 -3.34602334431314489e-03
7 1 5.28422658197070551e-03 -1.22591859900012968e-02 -6.77155485499487432e-03
8 1 -9.03703929608741345e-03 7.54575466268429113e-03 7.66834308838912110e-04
8
Step 31000
1 1 6.91829954303144982e-03 1.82248897340541913e-03 2.33496339544549516e-03
2 1 3.02065321193455095e-04 7.24255759145363883e-03 5.22641149124661829e-03
3 1 -1.41704946874256135e-02 -1.03414039142334536e-03 -6.94730526334306781e-03
4 1 -1.81563454712914320e-03 -2.06179116363696159e-02 1.20437192803163774e-02
5 1 8.09130240213984386e-03 -1.12976639264760446e-03 5.64413031745683840e-03
6 1 1.58449360394758874e-03 -3.90564133597426106e-03 6.58710814178811548e-03
7 1 2.97438750844942947e-03 6.41277880557414651e-03 -1.49559076240823587e-04
8 1 9.36092140158794467e-03 -4.01619577730203108e-03 1.12127601817925784e-03
8
Step 32000
1 1 -1.15292367508911895e-02 -1.12577492108900386e-03 -1.52783574195892394e-03
2 1 9.16598821396279791e-04 -7.29945786095557384e-03 -1.24897882863624042e-02
3 1 7.76699913552463938e-03 -3.19577177653949116e-03 4.43675560433034934e-03
4 1 -1.84406676779495337e-03 1.75250093096337121e-02 -1.36000611129354996e-02
5 1 -7.59249176048859293e-03 5.72686836966219449e-03 -1.29335435677585871e-02
6 1 -5.12599867672177572e-04 6.56610512515849298e-03 -7.35423227247175397e-03
7 1 -1.10198890051650591e-02 3.10572568609485122e-03 8.42533251852120753e-03
8 1 -4.63812879032309607e-03 -3.26881146684241666e-03 -4.04116378914929145e-03
8
Step 33000
1 1 1.80260534323591175e-02 -2.26479395335974594e-03 -1.22003831239992440e-03
2 1 3.83805653441915851e-03 6.54873739689195832e-03 1.68320155463401108e-02
3 1 -2.16804630922815119e-03 6.24614271939048869e-03 -2.43456318005829927e-03
4 1 5.87470110395558673e-03 -6.83586700776332625e-03 8.89953077165474803e-03
5 1 8.88866243998310233e-03 -8.05505196626034488e-03 1.68315538434644606e-02
6 1 -1.02902258895005289e-03 -6.20173185042708925e-03 5.51560998608140781e-03
7 1 1.37649305410612443e-02 -1.12197333192972822e-02 -1.41095020556656504e-02
8 1 -3.47310821438244878e-05 1.03983186439904150e-02 3.39418031259899281e-03
8
Step 34000
1 1 -1.71684772449796977e-02 6.27192872021159909e-03 5.62584526141355311e-03
2 1 -1.02937228965754544e-02 -4.14885074130134316e-03 -1.42277136014067711e-02
3 1 -2.92838325036506517e-03 -6.17720040787864393e-03 1.33122809318934930e-03
4 1 -9.04123095450968563e-03 -6.23916905649879103e-03 -2.22370375321239572e-03
5 1 -8.32397560533462179e-03 4.89613147604983298e-03 -1.28094124419862038e-02
6 1 2.61591705390304494e-03 2.34690314200131350e-03 -9.16861525030857158e-04
7 1 -7.83504520664437924e-03 1.27879550190648037e-02 1.17584525300471233e-02
8 1 2.61549220104363147e-03 -1.64696545151861128e-02 -4.92868178735556776e-03
8
Step 35000
1 1 1.07340678853265255e-02 -7.97048795889601647e-03 -8.43168876851211301e-03
2 1 1.23227601596837804e-02 1.44063121734316294e-03 6.75424959863213988e-03
3 1 8.19031986524067397e-03 2.61434675090213824e-03 -5.85449271364774982e-04
4 1 1.17001503381677970e-02 1.98323195951829942e-02 -3.64051854629787383e-03
5 1 6.80694626963399257e-03 1.13915389361756578e-04 6.12255387100841056e-03
6 1 -1.07153513291339121e-03 9.58018250488364143e-04 -3.48786695974053276e-03
7 1 2.57449155443635180e-03 -1.44308700021490120e-02 -1.14789936714310425e-02
8 1 -2.21372066837358409e-03 1.86881774401878864e-02 8.24893035105429134e-03
8
Step 36000
1 1 -4.53110839613837715e-03 5.68518887938705957e-03 8.94732118730251318e-03
2 1 -1.19277935792502371e-02 3.45123375383923675e-04 4.59198876016673444e-04
3 1 -1.48758869028762161e-02 3.96569701010969413e-03 -7.40767736287756382e-04
4 1 -8.25717082594030517e-03 -2.46512102951497343e-02 6.74262275284731941e-03
5 1 -5.53648986329087749e-03 -3.27668316994728873e-03 -2.53851946638779464e-03
6 1 -3.06835919255685208e-03 -3.91766800919003070e-03 2.87150166881710526e-03
7 1 -3.58172415674184986e-04 1.62477387883040898e-02 1.17935195234147704e-02
8 1 -8.71187945308312252e-04 -1.46938833782934274e-02 -1.05818023946180496e-02
8
Step 37000
1 1 2.25964483415212877e-03 4.05800582683852988e-04 -9.02611173756945155e-03
2 1 1.15600972198670587e-02 -1.16986091231952136e-03 -5.83279643275267431e-03
3 1 1.78901916541918844e-02 -1.09070096707483809e-02 3.04769160538201616e-03
4 1 4.94748913480101715e-04 1.57022870170805823e-02 -4.55557515009928464e-03
5 1 2.82392820424375631e-03 4.57847677626885361e-03 1.35423218315078092e-03
6 1 7.82821661403586451e-03 4.63316729318821729e-03 2.32619146119769204e-03
7 1 1.65038946190430641e-03 -1.47342258200851336e-02 -8.21040303374512455e-03
8 1 4.35669269271119451e-03 4.52778173563286260e-03 7.89499345709668808e-03
8
Step 38000
1 1 -5.27779758765429576e-03 -8.51891372779344826e-03 1.03999606248489796e-02
2 1 -1.16057487206251281e-02 5.93012422900524245e-04 9.49433335521481132e-03
3 1 -1.52927124058240705e-02 1.31721453793407304e-02 -5.72464634990083390e-03
4 1 5.33833782838906076e-03 -4.44023659961598639e-03 3.51636854752575528e-04
5 1 3.60101975087452836e-03 -4.89704600217766035e-03 -1.30850722582256463e-03
6 1 -1.12910926771424367e-02 -2.58626444977339129e-03 -8.26707365149753799e-03
7 1 -4.20922275218386845e-03 9.33174355978218066e-03 2.39512869479672867e-03
8 1 -6.45765055527700808e-03 4.64003673121391597e-03 -1.85780273054192576e-03
8
Step 39000
1 1 1.06845782181884726e-02 1.28522383759676236e-02 -1.03987248939322041e-02
2 1 1.50448676369030251e-02 1.87420399140339066e-03 -1.06995573294337305e-02
3 1 1.19098443166550418e-02 -7.25747980825890409e-03 7.79344598960506237e-03
4 1 -6.43478384851395042e-03 -2.56853677184216717e-03 3.37207681514439372e-03
5 1 -1.39244436494975702e-02 5.37980329353176211e-03 1.17579607498158236e-03
6 1 1.26775907274267463e-02 -1.31128119743804711e-03 1.28822330960664862e-02
7 1 5.30574955248815615e-03 -2.27806549976741941e-03 1.93003060960669727e-03
8 1 7.11118416974716207e-03 -1.04293841914063594e-02 -5.73709914560450833e-03
8
Step 40000
1 1 -1.43649422114734346e-02 -1.11531175155749028e-02 8.68891574601072560e-03
2 1 -1.85060906220341874e-02 -7.01217490102395979e-03 8.43202847005189784e-03
3 1 -9.42162839697044049e-03 -2.10783647310989813e-03 -8.46735296684063277e-03
4 1 3.59433283881231214e-03 3.89902180532430368e-03 -5.16183858496693532e-03
5 1 2.21161190734806348e-02 -7.64942284412504364e-03 2.86968945004742042e-05
6 1 -1.11504816393984216e-02 5.05976058623302215e-03 -1.37475413612960350e-02
7 1 -6.12466008186307587e-03 -2.97081831538742241e-03 -5.38987382802983816e-03
8 1 -5.28895140686051063e-03 1.14628527711457939e-02 1.24179220353055394e-02
8
Step 41000
1 1 1.34699811776309610e-02 6.87587792479419768e-03 -5.79875141567573731e-03
2 1 1.42997189543727261e-02 7.67849407872752722e-03 2.86861364584281131e-04
3 1 8.85368852206797757e-03 9.94771138037186045e-03 7.38280395604022817e-03
4 1 1.30803410687335589e-03 -1.29491984539827749e-03 5.66152158150209917e-03
5 1 -1.90338864478352132e-02 1.09320819179881679e-02 -2.13944555355682995e-03
6 1 6.07190886024242416e-03 -5.97470624990249950e-03 9.06903998679812161e-03
7 1 6.64421082936881603e-03 5.61727722949167344e-03 1.00283180231796418e-02
8 1 6.07819337808084567e-04 -6.54225000463472001e-03 -1.44378819540759585e-02
8
Step 42000
1 1 -8.75940370565507324e-03 -2.13420202924601921e-03 1.79484776426733520e-03
2 1 -1.15119742603338130e-02 -6.25298714323208743e-03 -6.36065257629206664e-03
3 1 -9.72962315144533865e-03 -1.43422002782902288e-02 -4.88897923379290073e-03
4 1 -5.99449030149738337e-03 -1.97113191941353499e-03 -5.69949535135634046e-03
5 1 5.92812114213947007e-03 -1.23423280174752830e-02 3.59702786951259174e-03
6 1 1.32369405329505136e-03 2.52837851084186747e-03 2.38442954663676811e-04
7 1 -6.11550732417371744e-03 -6.41346433455562259e-03 -1.49541082494784091e-02
8 1 4.73040281384395824e-03 -4.64174981242496048e-05 1.20264184901923109e-02
8
Step 43000
1 1 1.88048519485440224e-03 -2.39625788848496675e-03 2.92865463139013781e-03
2 1 1.23871818712248862e-02 5.90341923021514298e-03 6.48146040009983312e-03
3 1 1.13741324405705387e-02 1.42226016612686454e-02 1.81679308603974481e-04
4 1 7.05731219117604596e-03 3.60252426308823193e-03 4.34277288326811485e-03
5 1 8.71786458386172164e-03 9.57528390743490020e-03 -2.89589938665143522e-03
6 1 -7.57006722931839130e-03 4.15844610755760832e-03 -9.92700085005992008e-03
7 1 4.77541102055211320e-03 5.07505464138103320e-03 1.53265749999825091e-02
8 1 -8.89633294278660385e-03 3.27117249888051560e-03 -9.52231242444710052e-03
8
Step 44000
1 1 6.80653917171359507e-03 7.68755263773241663e-03 -9.61664614049443159e-03
2 1 -1.36535036044254515e-02 -5.81582081088178725e-03 -2.37663022023292978e-03
3 1 -1.32818789900323968e-02 -8.89432362185635546e-03 6.95365130182026836e-03
4 1 -3.98986367320095566e-03 -3.63578115300988236e-03 -1.78421513700787425e-03
5 1 -1.46973295547618843e-02 -3.12847229308123916e-03 -2.07144068207693380e-04
6 1 8.47371157237121302e-03 -1.03545426894918729e-02 1.35606701365162240e-02
7 1 -3.23992675408020904e-03 -2.55292381034016164e-03 -9.90892225168539878e-03
8 1 1.33078099300916811e-02 -3.11263880854592730e-03 6.44457484374990567e-03
8
Step 45000
1 1 -1.08418419834877891e-02 -9.54034857625345525e-03 1.41205592103913341e-02
2 1 1.34789236585903423e-02 5.39509156587197804e-03 -3.79023931377659926e-03
3 1 1.20584415706037409e-02 1.00230700686727132e-03 -1.21030990253469511e-02
4 1 -1.54965604919873141e-03 4.51122455631238189e-03 -2.54344137763609754e-04
5 1 1.29518695116078858e-02 -4.29099651979581408e-03 4.50371222268176972e-03
6 1 -4.43337111181653625e-03 1.26577013887150171e-02 -8.62057102296634285e-03
7 1 2.52566774248328026e-03 -5.14443446160312750e-04 3.42093117726119302e-03
8 1 -1.48397079726517167e-02 -3.07516182092491016e-04 -2.16526038725004465e-04
8
Step 46000
1 1 5.94587953654749594e-03 4.23941798091238397e-03 -1.33321337370459619e-02
2 1 -1.11677348944680989e-02 -4.84617616220966736e-03 9.85877971517623401e-03
3 1 -7.17706852397001754e-03 4.70757416401292039e-03 1.14159009802106380e-02
4 1 7.25107121914663616e-03 -6.62994391034473288e-03 1.66593551628006829e-03
5 1 -6.84671941140589137e-03 1.07282984179939318e-02 -8.73909576399654366e-03
6 1 -2.68831851659649137e-04 -1.16851972584962084e-02 -3.08480018134310921e-04
7 1 -2.85273985085263571e-03 3.48905559148973135e-03 3.91213994536767132e-05
8 1 1.33404537792890920e-02 6.22224757287677139e-03 -6.57084263487331052e-03
8
Step 47000
1 1 3.67850396044396054e-03 3.81883785766578372e-03 1.06100068758283039e-02
2 1 6.34521178113590066e-03 4.41959349112357267e-03 -1.23088704407029233e-02
3 1 6.26423689390175238e-03 -3.20566435309952791e-03 -1.11442426165921996e-02