8
Step 0
1 1  3.150466861893e+02   2.246015875957e+02  -1.189583106621e+02 
2 1  2.824320836499e+02  -2.679123380825e+02  -6.433532097239e+02 
3 1 -6.128985042370e+02  -1.785520606898e+02  -4.561212775229e+02 
4 1  1.220967065569e+02  -2.945216604014e+02   4.948961430616e+02 
5 1  7.684853632279e+01  -4.290256390294e+02  -2.550871084409e+02 
6 1  2.912046244045e+02   2.399012807977e+02   4.111758419916e+01 
7 1  1.834143281444e+02  -1.906719895516e+02  -2.771540086974e+01 
8 1 -5.060789772355e+02   8.181270283469e+01  -3.402975628332e+02 
8
Step 1000
1 1  1.924987986622e+02   1.006299462342e+02   1.706816839665e+02 
2 1 -1.186787438635e+02   2.640015890561e+01   2.307027381595e+02 
3 1  1.391049885389e+02   2.755037137309e+02   1.739479323650e+02 
4 1 -2.223340363262e+01  -1.672309308409e+02  -2.498835537848e+02 
5 1 -2.042776861262e+02   3.089689435634e+02   3.266405602077e+02 
6 1  2.764807838588e+02  -2.445844602505e+01  -1.044205203148e+02 
7 1  1.169825895866e+02  -1.375755496696e+01  -1.258637807358e+01 
8 1  5.676135991211e+01   2.383145915761e+02  -5.081150233860e+02 
8
Step 2000
1 1 -1.547229165535e+02   4.348655026495e+02  -3.044789666488e+02 
2 1 -1.645013380083e+02   5.087168571155e+01   3.824257124770e+02 
3 1 -3.401264424931e+02  -3.679077789381e+02  -3.042032839461e+02 
4 1  5.739695915038e+02   1.838489832383e+02   3.676278135042e+02 
5 1 -1.523827663180e+02  -2.936018464332e+02  -5.477863926420e+02 
6 1 -2.216453140825e+02   2.643726520448e+02   1.718344022097e+02 
7 1  3.199547899571e+01  -3.449917972565e+02  -4.691686572461e+02 
8 1 -1.970946802803e+02   4.617096369907e+02   7.022582573845e+02 
8
Step 3000
1 1 -3.359198304557e+01  -2.833180573806e+02   3.578271506494e+02 
2 1  1.113656485920e+00   2.832373696242e+02   6.469413138359e+01 
3 1  2.059589687735e+02   6.052816837339e+02   1.794048588189e+02 
4 1 -2.171586885095e+02  -2.394346580810e+02  -3.121791561916e+02 
5 1 -6.800629930224e+02   2.044672599680e+02   3.483696481522e+02 
6 1 -6.561655026119e+01  -9.070205400150e+02   1.232398494602e+02 
7 1  2.883928503395e+02   4.953244437552e+02   6.257904350575e+02 
8 1  1.075843592263e+02   1.400173141645e+02  -7.860648826305e+02 
8
Step 4000
1 1  4.566177865406e+01   3.926791423834e+02  -1.894202008777e+01 
2 1 -2.824757515666e+02   1.511387163063e+01   3.987637546844e+02 
3 1 -3.228995280654e+02  -1.433841709484e+02  -4.614041465152e+02 
4 1  6.316370323823e+01   1.208685710671e+02   4.517877570095e+02 
5 1  1.857038273213e+02  -6.689567720447e+02  -2.865083777422e+02 
6 1 -9.662384805147e+01   8.069335242649e+02   1.804029128943e+02 
7 1  2.813161027296e+01  -3.947782703231e+02  -6.437708841547e+02 
8 1 -7.084602874573e+01   4.014116953381e+02   5.599371880473e+02 
8
Step 5000
1 1 -2.370963686023e+02   8.521406805446e+01   4.727423081562e+02 
2 1 -2.116649595364e+01   2.937088773575e+02  -2.132384702918e+02 
3 1 -2.860301638504e+01   3.044655763227e+02   1.934634247841e+02 
4 1 -8.721544162649e+01  -1.841553043947e+02   2.304450814107e+02 
5 1 -3.066709838814e+02   1.840575997580e+02   3.899915967664e+01 
6 1  2.074334807996e+02  -5.814106116680e+02  -1.280374679528e+00 
7 1  8.563045266032e+01   5.464775682291e+02   2.013585567921e+02 
8 1  6.674681174104e+01  -4.979984847331e+02  -3.977548913750e+02 
8
Step 6000
1 1  6.722626333477e+01   1.256694162684e+02  -1.815575222282e+02 
2 1 -5.168737959908e+02  -4.979197413817e+01   4.447301616941e+02 
3 1 -4.463379282296e+01   1.091429445653e+02  -2.655957924293e+02 
4 1  1.377021483476e+02  -2.795393501120e+02  -3.222336351650e+02 
5 1  4.543098829131e+02  -7.069636021276e+01   1.896774017552e+02 
6 1 -1.630439287355e+02   6.034445673252e+02  -1.591078017933e+02 
7 1 -1.200595808752e+02  -4.834202428922e+02  -3.672582842503e+02 
8 1 -6.312323884976e+00  -1.550377728472e+01   5.365421977154e+02 
8
Step 7000
1 1 -4.354941601239e+02  -2.579673509964e+00   5.303312717591e+02 
2 1  3.242119728633e+02   2.390628976618e+02  -3.883368165383e+02 
3 1  1.413329372717e+02  -2.082583141565e+02  -4.992813054191e+01 
4 1  4.198521194030e+02   3.213634327231e+01   4.520984297996e+02 
5 1 -3.747313471880e+02   3.263447622640e+02  -5.615105647697e+02 
6 1 -4.005350911960e+02  -4.124927839124e+02   1.283125647372e+01 
7 1  2.639672372243e+01   5.482750408452e+01   2.230181539708e+02 
8 1  1.996977119459e+02   2.870027912652e+01  -5.069133281258e+01 
8
Step 8000
1 1  1.851670082572e+02  -1.046510940023e+02  -1.613969365340e+02 
2 1 -2.871820545114e+02   3.517849164976e+01   4.508537858798e+02 
3 1  5.770485451326e+01   3.369469514596e+02   7.499792559849e+01 
4 1 -2.060832717858e+02  -3.903031877455e+02  -5.946361615507e+02 
5 1 -2.289624506746e+02  -1.933883993298e+02   3.048680013418e+02 
6 1 -2.005567091795e+02   1.840241812865e+02   1.157360502210e+01 
7 1  4.992545595060e+02  -2.038895424634e+02  -4.344591855982e+01 
8 1  4.754647550996e+01   2.100565296720e+02  -1.543320146501e+02 
8
Step 9000
1 1 -3.565021429469e+02   2.234903550228e+02   4.253385625149e+02 
2 1  1.949241756590e+02  -1.320672695938e+01  -1.487170323704e+01 
3 1 -9.251076189498e+01  -6.197394353495e+02  -3.249620632896e+02 
4 1  8.036549046850e+01   2.570201353301e+02   6.140797280142e+02 
5 1 -2.072405339204e+02  -1.536572106900e+02  -5.626299331981e+02 
6 1  7.194792391674e+01   3.678660639788e+02   1.816822179127e+02 
7 1  5.839985703291e+02   1.646822227284e+01  -6.676536712076e+01 
8 1 -3.077324065584e+02  -2.650833070997e+01  -2.919688127377e+01 
8
Step 10000
1 1  3.641011941714e+02  -4.384596818677e+02  -3.559808436890e+02 
2 1 -2.201983114374e+02   7.570428749999e+01   2.798970471385e+01 
3 1 -8.424831700441e+01   7.414922317442e+02   3.516696260358e+02 
4 1 -3.333246322656e+02  -9.849624458133e+01  -4.738446319585e+02 
5 1  1.530509993686e+02  -1.016948470360e+02   3.090519100229e+02 
6 1  4.229317385898e+02  -2.110477439146e+02   1.336978676450e+02 
7 1 -2.296764850442e+02   1.137519763051e+02  -1.566123959960e+02 
8 1 -1.452050104903e+02  -3.704939624978e+02  -1.671686332979e+02 
8
Step 11000
1 1 -5.675407634001e+02   2.488535550151e+02   5.064377204321e+02 
2 1  2.658930426480e+01   2.854083532827e+02   2.032515830222e+02 
3 1 -1.359600561542e+02  -5.150097447761e+02  -4.448647497297e+02 
4 1  3.321413781230e+02  -1.605098416871e+02   1.100424486071e+02 
5 1  4.057870302649e+02  -1.577509223665e+01  -2.788967771348e+02 
6 1 -2.897687721392e+02   4.982950344765e+02   8.064841770597e+01 
7 1 -2.329519378117e+02  -3.804892894242e+02  -6.814026719052e+01 
8 1  4.010834124438e+01   3.600322387038e+01   4.250027107867e+02 
8
Step 12000
1 1  1.991136073581e+01  -2.905966338246e+02   2.101387948069e+01 
2 1 -3.161493525537e+01   9.847220616417e+01  -3.036871021612e+02 
3 1  2.990113437330e+01   2.055554895091e+02   4.011669139489e+02 
4 1  9.483293944939e+01   1.111127220453e+02  -2.672595593975e+01 
5 1 -2.916347703725e+02  -1.170763198161e+01   3.174634486848e+02 
6 1 -2.565737165668e+02  -3.425961602743e+02  -9.282551258789e+01 
7 1 -2.266188088842e+01   1.058395315153e+02   6.813459621738e+01 
8 1  4.099530049110e+02   1.197259308008e+02  -5.279253035838e+02 
8
Step 13000
1 1 -1.900556303117e+01   2.778695029703e+02  -4.890207323524e+01 
2 1 -1.617279014244e+02   2.584045550538e+00   6.528935694570e+02 
3 1 -3.322251254499e+01  -3.113327589398e+02  -4.125344505988e+02 
4 1  3.276121036147e+02  -9.442070196111e+01  -3.750428998400e+02 
5 1 -2.334251031007e+02  -1.909736967501e+02  -6.687762094147e+01 
6 1 -1.392393981316e+02   6.893030379140e+02  -1.062134500562e+02 
7 1  7.240552705018e+02  -3.828824503794e+01  -3.890670832145e+01 
8 1 -4.484709011125e+02   9.722953559058e+01   1.966897151130e+02 
8
Step 14000
1 1 -1.594064169528e+02  -3.031407403267e+02  -4.055149481286e+01 
2 1  9.537997823715e+01  -1.395341443298e+02  -6.768141353038e+02 
3 1  6.823285530529e+01  -1.847709333892e+01   2.647575669179e+02 
4 1  2.313635182185e+00   3.202084974860e+02   3.326710765377e+02 
5 1 -2.758220051396e+02  -3.493699518248e+02  -9.177560922099e+01 
6 1  5.812797712112e+02  -3.451079493268e+01  -1.364054437474e+02 
7 1 -2.996160380747e+02  -1.015889105350e+02   2.450368081314e+02 
8 1  1.875533513907e+01  -4.569218398377e+02  -3.557725715986e+02 
8
Step 15000
1 1  2.341263116241e+02  -8.936028562688e+01  -2.100906691528e+02 
2 1 -2.823228254093e+02   1.122663779257e+02   4.632588326506e+02 
3 1  2.373750757197e+01   9.372653698089e+01  -5.335494155968e+00 
4 1 -7.459742732326e+01  -2.024194910075e+02  -5.270391641563e+02 
5 1  3.418017033568e+02  -1.271909565050e+02   1.535818838967e+02 
6 1 -4.793066704766e+01   1.737234504839e+02   1.630252175697e+02 
7 1 -1.282640644611e+02  -8.948011815838e+01  -2.449134325664e+02 
8 1  1.991573433506e+02   6.828347816196e+01   2.063386601280e+02 
8
Step 16000
1 1 -5.603508488925e+02   6.970288127300e+01   3.717741207124e+02 
2 1  2.620310913037e+02   1.885325025675e+02  -3.883614293819e+02 
3 1  1.693105824562e+01  -1.854862750473e+02  -2.193034437524e+02 
4 1 -3.240844164481e+01   2.397792628651e+00   7.572560875050e+02 
5 1  1.536160493900e+02  -2.399340073785e+02  -3.851198183724e+02 
6 1 -4.223898816361e+02   1.520106366228e+02   6.024295965837e+01 
7 1  2.968387075726e+02   4.020336719033e+02   8.812813851155e+01 
8 1  4.029658179251e+02  -1.009941983768e+02  -3.266323617235e+02 
8
Step 17000
1 1  2.009712467055e+02   2.120840730236e+02  -1.454258570163e+02 
2 1 -1.094936804555e+02  -2.308954367023e+01   1.489661085575e+02 
3 1 -1.213746137456e+02   3.626400136936e+01   2.150368604067e+02 
4 1 -1.346421167581e+02  -1.908446971903e+02  -6.324053031529e+02 
5 1  1.848221984348e+02   2.298814079754e+02   3.541074632787e+02 
6 1 -2.276724184459e+02  -2.319113597480e+02   1.262734766024e+02 
7 1  5.431093030141e+02  -2.128396342783e+02  -5.635524236575e+01 
8 1 -1.349053504580e+02   9.805508484650e+01  -2.546184870116e+02 
8
Step 18000
1 1 -2.649814127650e+02   2.607226193621e+02   1.982007003513e+02 
2 1  1.380519537255e+02  -2.999218257796e+00  -1.165622340828e+01 
3 1 -5.151038999456e+01  -2.902358916023e+02  -7.066255233143e+02 
4 1  2.405237126569e+02   5.659676121179e+01   6.192142137355e+02 
5 1  2.585153455556e+01   2.271395395206e+02  -5.908075115320e+02 
6 1  4.337257059276e+02  -5.395029400929e+01  -2.792770132236e+02 
7 1 -4.911316477820e+01   4.616980732635e+01   4.781064639646e+02 
8 1 -1.071755481672e+02  -2.058797189397e+02   1.638009904990e+02 
8
Step 19000
1 1  2.534444989887e+02  -3.656918696137e+02  -2.255420044627e+02 
2 1  3.686362797468e+01  -2.199569242742e+02  -2.849531404581e+02 
3 1  9.549704378893e+00   2.977289692924e+02   6.262767817905e+02 
4 1 -3.455567578936e+00   7.262005196583e+01  -4.740621926800e+02 
5 1 -2.122359576405e+02   5.785311521170e+01   3.727984786007e+02 
6 1 -2.889653043905e+01  -2.353966897516e+02   6.455835369710e+01 
7 1 -4.365373996863e+02  -1.644301889836e+02   7.699937295126e+01 
8 1  4.192619941782e+02   1.850440117138e+02  -3.663865869503e+02 
8
Step 20000
1 1 -2.387167194012e+02   2.020743923307e+02   2.179367598281e+02 
2 1 -1.717814959136e+02   1.995443501477e+02   4.109269361110e+02 
3 1  1.983110112705e+02  -1.674058958351e+02  -5.063223735494e+02 
4 1  2.839159513802e+02  -2.741044333036e+02   3.230878924384e+02 
5 1 -2.951201756323e+02  -2.176268613338e+01  -4.599455156386e+02 
6 1  1.618885849739e+01   4.503395717223e+02   2.381532408761e+00 
7 1  2.022958708599e+02   3.213577334816e+02  -1.439508921022e+02 
8 1  2.948806072486e+02   9.951697193141e+01   3.994161806124e+02 
8
Step 21000
1 1 -9.991520839642e+01  -1.919426817801e+02   1.247243933886e+02 
2 1  2.675566887854e+02   6.559886454787e+00  -6.162323623743e+02 
3 1 -8.117745265743e+01   1.992719966522e+02   6.083433652242e+02 
4 1 -1.814253009384e+02   1.342885302927e+01  -1.965997418328e+02 
5 1 -3.659536413378e+02  -6.833517952200e+01   6.823612828799e+02 
6 1 -2.144071706978e+01  -2.336156946488e+02   3.926183034563e+02 
7 1  3.464845863472e+02  -3.275053973173e+02  -1.489634640092e+02 
8 1 -2.439717875444e+02  -2.308686831021e+02  -2.788001804494e+02 
8
Step 22000
1 1  2.625038901946e+02   2.103321302370e+02  -1.829479327105e+02 
2 1 -2.206711857005e+02   1.093965522939e+02   4.795058240102e+02 
3 1  6.631399926375e+00  -2.440086044079e+02  -1.388622069572e+02 
4 1  1.349437960269e+02  -1.429952909289e+02  -1.213017643024e+02 
5 1  7.667882424773e+00   2.816480038411e+02  -2.077640582095e+02 
6 1  2.243888679395e+02   1.201838675324e+01  -2.407687412877e+02 
7 1  1.301266116803e+02   8.073419799576e+00  -1.048760926576e+01 
8 1 -1.956588365702e+02   1.603217374052e+02   3.660945251850e+02 
8
Step 23000
1 1 -2.863365317577e+02  -1.258223879051e+02   2.707950528407e+02 
2 1  4.186974985913e+02  -8.062466983082e+01  -6.057810306840e+02 
3 1 -1.424764629025e+02   1.479904344242e+02   2.400761982446e+02 
4 1 -2.095924980645e+02   2.780716424556e+02   1.967380631338e+02 
5 1  9.594587549146e+01   1.218461243833e+02   3.321377334891e+02 
6 1  1.688809127507e+02  -5.797131273023e+02  -3.494020836827e+02 
7 1 -5.484137084806e+02  -2.192352210646e+02   1.945423434573e+02 
8 1 -3.486280914587e+01  -2.215328484177e+01  -2.902017369438e+02 
8
Step 24000
1 1  2.950556925750e+02  -7.077623484385e+01  -2.648316466489e+02 
2 1 -3.922703485603e+02   1.262873414931e+02   5.455499400554e+02 
3 1  1.186494972707e+02   7.935924623115e+01   1.173546589617e+02 
4 1 -1.946389240752e+01  -4.295663604460e+01  -4.581083781282e+02 
5 1  2.291272562317e+02  -1.910255741822e+02  -3.833105769314e+01 
6 1 -8.846196726765e+01  -1.306252154936e+02  -2.361842916628e+01 
7 1 -7.947616396846e+01   3.943309114970e+02   7.481527719065e+01 
8 1  7.651662634115e+01   1.319597977533e+02   9.481447496544e+01 
8
Step 25000
1 1 -4.210317566702e+02   1.030611764360e+02   4.547424384803e+02 
2 1  3.342136963329e+02   2.443825332821e+01  -4.528879782249e+02 
3 1  1.109481805865e+02   3.585186748712e+01  -4.019150267998e+02 
4 1 -1.353122564739e+01  -3.346276240348e+00   6.310121839351e+02 
5 1  1.357440423391e+02  -2.126137511723e+02   4.487005145372e+01 
6 1 -3.950004711259e+02   1.542926456268e+02   9.019211459110e+01 
7 1  4.881938030071e+02   1.251939322379e+02  -1.351409441999e+02 
8 1 -5.927465011233e+01  -4.512745782319e+02  -1.853226581035e+02 
8
Step 26000
1 1  3.970795804993e+02  -4.995558788987e+01  -5.418850751145e+02 
2 1 -2.291247588641e+02  -1.529770018960e+02   2.573209334686e+02 
3 1  2.337549361736e+02   1.516850419433e+02   3.865975699420e+02 
4 1 -1.817509071098e+01  -4.625754889890e+01  -4.417606548746e+02 
5 1 -5.707355710446e+02   3.119959690365e+02   2.382689159411e+02 
6 1  4.520328532971e+01  -6.246672345173e+00   1.543446663221e+02 
7 1 -2.329796087687e+02   3.036545838881e+01  -5.598377272648e-01 
8 1 -4.318841265000e+02  -1.248038838943e+01   1.394833332924e+01 
8
Step 27000
1 1 -3.406540778392e+02   1.885803021240e+02   4.098738384640e+02 
2 1  2.426065715185e+02   3.148936032717e+01  -1.249580305971e+02 
3 1 -9.779430896027e+01  -1.550228003152e+02  -3.994955286700e+02 
4 1  8.317085522546e+01  -2.253559513154e+02   2.794309965526e+02 
5 1  1.780870517531e+02   1.613213560050e+02  -5.037060052733e+02 
6 1  5.756396621653e+02   8.048652133711e+01  -1.849676908567e+02 
7 1 -5.028586040693e+02  -1.689826122112e+02   1.166102789908e+02 
8 1  7.583998210639e+00   8.055735291637e+01   2.826676237295e+01 
8
Step 28000
1 1  1.861641156786e+02  -1.483353276081e+02  -3.144336767921e+02 
2 1 -1.049975577712e+02  -2.098792203563e+02   3.835134860106e+01 
3 1  1.242710406490e+02   2.749022457359e+02   3.943380437025e+02 
4 1 -2.034772759283e+02   5.700264483093e+02  -2.320878526091e+02 
5 1  1.404889782387e+01  -1.020789312284e+02   3.904177660888e+02 
6 1 -1.997119373282e+02  -5.556380800844e+02   7.670773381007e+01 
7 1 -4.057982110134e+01   1.287767228274e+02   7.847800368937e+01 
8 1  3.503761962513e+01  -2.602772486660e+01  -4.816337798029e+02 
8
Step 29000
1 1 -1.996195652297e+02   1.950511164824e+02   2.601725909580e+02 
2 1  3.340297392311e+02   3.182824638774e+02  -1.003997381555e+02 
3 1 -4.049901065001e+02  -4.461272765497e+02  -5.694716546396e+02 
4 1  2.385107729653e+02  -3.635849311575e+02  -1.624398920761e+02 
5 1  2.957919091124e+02  -1.713965843630e+02  -4.924109827830e+00 
6 1 -5.191636095338e+02   2.751300679360e+02  -2.181447555793e+02 
7 1  4.356059272149e+02   7.205826751498e+02   1.608629592131e+01 
8 1  6.275815723716e+01  -2.970383758117e+02   3.066667725110e+02 
8
Step 30000
1 1  6.881477586809e-01  -7.015238115586e+01  -4.957709725683e+01 
2 1  7.499659115931e+01  -4.147296746018e+02  -2.250667712966e+02 
3 1  1.128207850077e+02   1.693436316905e+02   1.452352405290e+02 
4 1 -2.244436520016e+02   4.236077742128e+02   2.474459961019e+02 
5 1 -4.388759833206e+02  -3.583032587124e+01   2.200571624594e+02 
6 1  1.656125398407e+02  -2.520561922582e+02   1.759353687975e+02 
7 1  1.616302939098e+02  -1.718700025762e+02  -4.858607748427e+01 
8 1 -2.656490224540e+02   1.947048533885e+01  -6.913193840847e+01 
8
Step 31000
1 1  1.060056935329e+02   1.444599376019e+02  -4.952934931623e+01 
2 1 -5.582873710696e+01   4.294073308693e+02   3.966568776162e+02 
3 1 -4.138391799431e+02  -3.182577612982e+02  -2.396689560161e+02 
4 1  3.708602617988e+02  -2.932425519898e+02  -2.213774776767e+02 
5 1 -1.849804289495e+02   4.225482922135e+02  -3.553407621663e+02 
6 1  4.762040139326e+02   3.710850492924e+02  -3.573701123493e+02 
7 1 -6.911555450990e+02  -1.051715759341e+02   7.112182082308e+01 
8 1  2.746793980107e+02   4.519909099404e+02   6.834964236369e+02 
8
Step 32000
1 1 -2.689546621846e+02  -1.215946779927e+02   2.867164616375e+02 
2 1  1.267177671915e+02  -3.084171354900e+02  -3.384330234990e+02 
3 1  2.613532314103e+02   2.588167864058e+02   2.350885675556e+01 
4 1 -2.453210656353e+02   1.279252590872e+02   3.327259701761e+02 
5 1  8.723475658528e+01  -1.061996618803e+02   7.013061497749e+01 
6 1  2.357214046694e+00  -3.787866879138e+02   1.595998153186e+02 
7 1 -1.103269923112e+02   3.727508217011e+01   8.956482660561e+01 
8 1  1.698945425994e+02  -2.055504865954e+02  -7.185500051380e+02 
8
Step 33000
1 1  4.592738732608e+02   6.594796847508e+01  -5.272833747734e+02 
2 1 -2.591783971128e+02   1.667879160261e+02   4.513283457663e+02 
3 1 -2.520123518633e+02  -3.981307992734e+02   1.235042690617e+02 
4 1  2.397715207303e+02  -1.486177131561e+02  -3.584993689087e+02 
5 1 -2.102479818675e+02  -2.007658770597e+02   6.894701261064e+02 
6 1 -3.688006834889e+02   4.362406320392e+02  -4.201543573452e+02 
7 1  2.292823572850e+02   4.757015601726e+02  -1.904302936846e+01 
8 1  2.815042495586e+02  -1.590018588160e+02   3.263093424025e+02 
8
Step 34000
1 1 -3.595863660238e+02   5.286132908813e+01   4.767503692334e+02 
2 1  2.640630459243e+02  -1.654675675369e+01  -4.413315984447e+02 
3 1  2.309777859737e+02   5.575107685074e+01  -8.555975625592e+01 
4 1 -2.142952976347e+02   9.229588876589e-01   1.617335390069e+02 
5 1 -1.030770205200e+02   2.286754290311e+01  -1.051663633097e-02 
6 1 -2.731449953136e+02   4.049292077918e+01   8.756050425534e+00 
7 1  5.816349269444e+02  -2.659022814104e+02  -1.256861144955e+02 
8 1 -2.337970836776e+02  -3.604702339987e+02  -3.520980449924e+02 
8
Step 35000
1 1  3.412672448828e+02  -2.787378757047e+01  -4.808753684394e+02 
2 1 -2.379299669568e+02  -1.715213722979e+02   3.860643163109e+02 
3 1 -2.519124780041e+02   1.122661514498e+02   3.832364785743e+02 
4 1  8.968643074261e+01   2.942068912181e+02  -2.137815678881e+02 
5 1 -1.990109055276e+02  -2.579446368495e+02   5.028968876550e+02 
6 1  8.544992402625e+01   1.502228774090e+02  -4.842485323332e+02 
7 1 -2.405885950146e+02  -2.853349949834e+02   8.819674082921e+00 
8 1 -1.707735008375e+02   1.942064487078e+02   5.565501627368e+01 
8
Step 36000
1 1 -3.813804247133e+02   1.582683256694e+00   5.565201369996e+02 
2 1 -2.488576862806e+01   3.384915904284e+02  -1.329705862198e+02 
3 1  2.324952645332e+02  -8.904226634996e+01  -2.893963262028e+02 
4 1  1.470041028635e+01  -2.070142708851e+02   8.561601507772e+01 
5 1 -8.254130227111e+01   1.569093764478e+02  -2.866819957312e+01 
6 1  3.536834834745e+02  -1.790771459632e+02   1.468922719658e+02 
7 1 -2.612592263628e+02  -1.488874370700e+02   1.520705181146e+02 
8 1  3.570579110947e+02  -1.309196166410e+02  -1.926350382140e+02 
8
Step 37000
1 1  1.769902727159e+02   2.716783928436e+00  -3.623605404218e+02 
2 1 -1.954171210492e+02  -2.229109833513e+02   1.289081420391e+02 
3 1  8.150998546116e+01   1.628876801176e+02   3.352649352735e+02 
4 1 -5.115751367745e+01   6.395119740170e+02   9.509776204645e+00 
5 1  1.365561002536e+02  -3.412170952955e+02   3.481429132655e+02 
6 1 -3.161127381393e+02  -1.920415137461e+02  -2.035251320614e+02 
7 1 -1.328102260870e+00   2.971957841305e+02  -1.033675683521e+02 
8 1  8.431712835943e+01  -2.519322252205e+02  -1.180211797203e+02 
8
Step 38000
1 1 -7.567128861489e+01   3.145626629020e+01   2.853015598857e+02 
2 1  9.652488515099e+01   4.786697122422e+02   2.595702062709e+01 
3 1 -4.251698108545e+01  -2.521338308234e+02  -2.801419884100e+02 
4 1  3.946784375603e+01  -5.266368259492e+02  -5.546687858157e+01 
5 1  5.350607764067e+01   3.237326216084e+02  -1.551516882469e+02 
6 1 -1.005733039782e+02   4.405511692725e+02  -9.621983276908e+01 
7 1 -7.865288671457e+00  -4.838349476790e-01   4.716896210655e+02 
8 1  1.844526878844e+02  -2.446355044801e+02   9.661148793982e+01 
8
Step 39000
1 1 -1.399249865764e+01  -7.866069546856e+01  -1.006867517728e+02 
2 1 -5.247925575177e+01  -3.723945472905e+02  -6.711136115381e+01 
3 1  2.331181324053e+02   3.780355813255e+02   3.084017935954e+02 
4 1 -2.304572000249e+02   5.845377471111e+02   2.644402713661e+02 
5 1  4.591672452944e+02  -3.782638188643e+02   1.675611803068e+02 
6 1 -6.394483067473e+02  -1.784795417781e+02   2.457909569734e+02 
7 1  2.138292611815e+02  -4.365575437748e+00  -2.335157588617e+02 
8 1 -1.866614703831e+02  -5.015851239941e+02  -2.434932106356e+02 
8
Step 40000
1 1  1.845702649086e+02   8.810690773378e+01  -1.950309861486e+01 
2 1  3.665939448985e+01   4.400351145806e+02   2.521417493407e+02 
3 1 -4.642557737317e+02  -2.582338074925e+02  -1.418404790280e+02 
4 1  2.665719763183e+02  -5.540480483949e+02  -2.123587940012e+02 
5 1 -4.059151974896e+02   1.335847497846e+02  -3.429761382859e+01 
6 1  3.521616129253e+02   2.436422128642e+02  -6.416294787704e+01 
7 1  4.847391897232e+02  -1.968970977417e+02   6.407076038329e+01 
8 1 -1.305632870106e+02   5.968142550103e+02   6.482966432203e+02 
8
Step 41000
1 1 -2.931301530597e+02  -2.756665983038e+01   2.205564300120e+02 
2 1 -4.958713201450e+00  -9.569360641859e+01  -3.530195375203e+02 
3 1  3.295225589966e+02   1.598133573383e+02   7.388136108744e+01 
4 1 -2.146576520449e+00   2.251567847158e+02   1.769566880549e+02 
5 1 -1.313593605831e+02   6.473931935382e+01  -1.182581813053e+02 
6 1  3.871716221553e+02  -2.597808917733e+02   2.800573499369e+02 
7 1 -5.100472787176e+02   3.773715532185e+01  -5.301313777260e+02 
8 1  4.749996524849e+01   8.744211380134e+01  -2.174101898651e+02 
8
Step 42000
1 1  3.480561927457e+02   2.316255505984e+02  -3.754644837868e+02 
2 1 -1.795185664458e+02   5.886939319740e+01   3.297382575269e+02 
3 1 -2.565975921735e+02  -4.458189564392e+02   1.320732408352e+02 
4 1 -2.091931877738e+02  -3.065717022739e+02  -2.995775773192e+02 
5 1 -3.081838851586e+02   4.267711102455e+02   5.214057531204e+02 
6 1  4.745834954613e+02   3.268199394693e+02  -4.999672686642e+02 
7 1 -3.438203089109e+02   1.880816024047e+02   1.678793139656e+02 
8 1  2.958856975060e+02   9.531268793125e+01   5.551534574138e+02 
8
Step 43000
1 1 -2.026490920912e+02  -2.450703030098e+02   4.728623576784e+02 
2 1  3.134679023129e+02  -1.846732225978e+01  -4.322922839014e+02 
3 1  3.846335431621e+02  -1.761012975284e+02  -2.049004082507e+02 
4 1  1.090404415222e+01   2.730854994934e+02   7.521613481413e+01 
5 1 -4.938686146817e+01   2.453501422460e+02  -1.095937161464e+02 
6 1  3.455985752438e+02  -2.873808869143e+02   2.401171723322e+02 
7 1 -2.237352543390e+02  -2.324767026668e+01   3.704007093406e+02 
8 1  1.094746890701e+02  -4.805764426861e+02  -3.253410086658e+02 
8
Step 44000
1 1  3.736016691319e+02   2.297460729903e+02  -4.046943343459e+02 
2 1 -2.324405033361e+02  -1.901591092705e+02   1.773338501015e+02 
3 1 -1.840392301907e+02   1.644555486856e+02   2.120771222640e+02 
4 1 -4.031998090084e+02   7.888026394722e+01  -1.685889402096e+02 
5 1  5.028909708711e+02  -8.869633326746e+01   5.187193196276e+02 
6 1  8.797448497059e+01   1.274922134145e+02  -5.901258391066e+02 
7 1 -2.622444333035e+02  -7.417834600934e+01   1.605386893000e+02 
8 1  4.500832344348e+01   2.703337060624e+02   1.802531681703e+02 
8
Step 45000
1 1 -1.975101072911e+02  -1.717843277381e+02   3.018987966790e+02 
2 1  1.033229188565e+02   3.584905110958e+02  -2.535152940623e+02 
3 1  1.591169559380e+02  -1.062192627823e+02  -2.414848791569e+02 
4 1  1.668011205530e+02  -1.922936138117e+02   5.043005553971e+01 
5 1  1.486802846385e+02  -2.166575068245e+02  -4.918185976641e+02 
6 1  2.992149470846e+01  -1.295911469977e+02  -9.262520535961e+01 
7 1  2.139784500562e+02   3.852636708905e+02   5.458362599088e+02 
8 1 -2.588189953992e+02  -6.305217754608e+01  -4.789766192056e+02 
8
Step 46000
1 1  3.113492914590e+02   3.615589215992e+02  -5.530763737532e+02 
2 1 -1.309435323668e+02  -3.754384787290e+02   4.569553967056e+01 
3 1  3.933330044928e+01   4.083245175788e-01   2.189549849903e+02 
4 1 -1.245454183216e+02   2.829679639140e+00   7.915145876628e+01 
5 1  3.780914723772e+02  -1.863137230139e+01   3.311102395218e+02 
6 1 -3.181505006806e+02   3.667412732905e+02  -9.654959116463e+01 
7 1 -2.665367696641e+02  -1.882684139494e+02  -1.563485446155e+02 
8 1 -2.973260737057e+01   2.546541980265e+02   2.232646458982e+02 
8
Step 47000
1 1 -3.271099920778e+01  -1.163349370521e+02   1.398788603519e+02 
2 1 -4.419558935083e+01   4.757493048570e+02   1.043488245289e+02 
3 1  1.007417360166e+02  -7.678067857271e+02  -4.724740211710e+02 
4 1 -4.760640438774e+01  -2.178157031782e+02   7.603188291047e+01 
5 1 -1.515811167377e+02   4.898143489048e+02  -3.624319389652e+02 
6 1  4.461594697847e+01   4.000921014505e+00  -3.134650289628e+01 
7 1  4.978959650844e+02   9.483868555480e+01   2.761861474697e+01 
8 1 -5.612956458148e+01  -3.748309552960e+02   2.749450298435e+02 
8
Step 48000
1 1  9.585927102314e+01   1.417372822580e+02  -2.544921303280e+02 
2 1 -2.640202464762e+00  -3.523740301282e+02  -2.065983272253e+02 
3 1  3.351783105410e+02   1.572043334938e+02   5.051849737618e+02 
4 1 -3.195353489398e+02   7.735690890309e+02   3.400594709378e+02 
5 1 -1.030959451135e+02   4.781861196941e+02   2.428632609226e+02 
6 1  1.153977129209e+02  -1.487546500470e+02   1.376525994098e+02 
7 1  1.023332784065e+02  -2.919247695816e+02  -2.624546109926e+02 
8 1 -2.546216371022e+02   1.204526018813e+02  -2.620722733536e+02 
8
Step 49000
1 1 -1.017108100234e+01  -6.514379053228e+01   5.946063556365e+01 
2 1 -2.751080419845e+02   4.138001140716e+02   2.938812330796e+02 
3 1 -1.994592748225e+02  -1.995182980790e+02  -1.296617775427e+02 
4 1 -1.994855493412e+02  -5.280459248856e+02  -9.462734187829e+01 
5 1  6.191679340422e+02  -1.156759977113e+02  -2.667782646898e+02 
6 1  2.514783841825e+02  -2.927365750999e+02  -2.746008319870e+02 
7 1 -1.534085006848e+02   3.388551139495e+02  -1.594460426041e+02 
8 1  1.041586841800e+02   1.034724297801e+02   3.570879243957e+02 
8
Step 50000
1 1 -1.426195018128e+02  -6.437354230145e+01   4.575584509336e+01 
2 1  1.753875245377e+02  -1.510426294017e+02  -1.951810403756e+02 
3 1  3.397248688587e+02   1.079845794977e+02   2.033834972581e+02 
4 1  3.739015822940e+02   7.022968922957e+01   4.329056556372e+02 
5 1  4.913924669003e+01  -4.161731555515e+02  -2.818510817025e+02 
6 1 -4.364585814709e+01   9.408794782602e+01   1.183302015567e+02 
7 1 -5.964616247966e+02   1.167068966227e+02   4.152390313842e+02 
8 1  7.038480870246e+01  -1.540896647853e+01  -3.578309343628e+02 
8
Step 51000
1 1  2.354603525876e+02   2.132440296071e+02  -2.142421873077e+02 
2 1 -2.487767190859e+02   1.197962461498e+02   3.821801359653e+02 
3 1 -5.358533312623e+02  -3.673948204320e+02   1.439275662861e+02 
4 1 -7.370503109015e+01  -1.357242579489e+02  -2.940803121113e+02 
5 1  2.755369455345e+02   1.450102997324e+02  -2.186941075828e+02 
6 1 -3.053700338400e+02   3.442268720119e+02  -4.264404226238e+01 
7 1  1.105116129683e+02   9.369768495239e+01  -3.000369343973e+02 
8 1  4.019403626574e+02  -2.097301863086e+02   4.935724392907e+02 
8
Step 52000
1 1 -4.610723573733e+02  -3.523640253945e+02   3.991331807824e+02 
2 1  2.941196291903e+02   3.340698978496e+01  -1.739870734950e+02 
3 1  3.710073217315e+02  -1.631585530593e+02  -2.203235103145e+02 
4 1  1.249535103635e+02   3.616552565774e+02   3.713944881250e+02 
5 1 -6.339311662592e+02   3.932012849480e+02  -1.179433522736e+02 
6 1  9.416776377936e+01  -9.483713096387e+01  -1.424463864808e+02 
7 1  3.791090399580e+02  -2.693050785973e+02   2.306999516586e+02 
8 1 -2.063651379351e+02   5.618267361849e+01  -3.187590728125e+02 
8
Step 53000
1 1  2.944687869859e+02   4.881656881267e+02  -3.588368441614e+02 
2 1 -2.742992915747e+02   2.997358512360e+01   6.605845371188e+02 
3 1 -6.433353268492e+02  -1.325561854658e+02  -1.100977502106e+01 
4 1 -4.466938622659e+02   2.377570034898e+02  -2.304830494170e+02 
5 1 -9.317844587906e+00  -3.401629502855e+02  -2.318862707961e+02 
6 1  4.214075042169e+02  -2.495477793761e+02   1.223842145997e+02 
7 1 -1.873884801577e+02   8.465066574218e+01  -1.096006057915e+02 
8 1 -4.067807135388e+01   2.410272659048e+02   1.689295262909e+02 
8
Step 54000
1 1 -2.560153418899e+02  -3.621103289686e+02   1.255976408340e+02 
2 1  3.052563866302e+02   2.867861621766e+02  -3.901980966333e+02 
3 1  6.518079091542e+02   2.725370744266e+02  -3.076560690082e+02 
4 1  4.489226191033e+01  -1.407237073834e+02   3.907623958505e+02 
5 1 -1.172888507185e+02  -2.167669176134e+02   6.050534680783e+01 