8
Step 0
1 1 1.30169982833796046e-02 -3.90915751393750097e-03 -5.83327556246204196e-03
2 1 -1.05951608021412503e-02 -1.16098773245166681e-02 1.07277371047130848e-02
3 1 -1.07423658785850019e-02 -5.97683642001379991e-03 1.20450904754861900e-02
4 1 -7.73869338668499527e-03 -4.35615425558102953e-04 8.98038550680538977e-03
5 1 1.06189168930768251e-02 -6.56090100612922739e-03 7.74287411624780680e-03
6 1 2.12746455148641357e-02 2.33319900961039550e-02 -7.65252933554583497e-03
7 1 8.78686633003783772e-04 -9.25198569326629930e-03 -1.78440220564071738e-03
8 1 -3.31235227931507732e-03 -1.15627910951489297e-02 1.39304607125808298e-02
8
Step 1000
1 1 -1.40913482430833226e-02 1.15294542140219423e-03 8.42207796057113829e-03
2 1 9.10232395476465563e-04 1.83098036357118993e-02 -8.33262581708756403e-03
3 1 5.57901180950234887e-03 8.94927867890586877e-03 -7.53506695165367339e-03
4 1 1.52320257890831932e-04 4.07200241286540931e-03 -7.93547753599586382e-03
5 1 -1.63763338292496965e-02 -1.54020666166146858e-03 -9.72473140002572990e-03
6 1 -2.03804236562918524e-02 -9.23978706987666973e-03 7.76946879007273713e-03
7 1 -3.75203851203725729e-04 9.01748013663619848e-03 8.32979459586404535e-03
8 1 -1.08651230171977350e-03 8.77308635037197561e-03 -7.95853184432557433e-03
8
Step 2000
1 1 1.28399360997344184e-02 -1.16270609351286553e-03 -7.76635563999514798e-03
2 1 3.46179435956736311e-03 -1.72356507066454279e-02 7.72196086725190391e-03
3 1 -1.62300224604451106e-03 -8.46186053773361445e-03 3.51264699716145109e-04
4 1 5.12195671123049506e-03 -9.49383035523188729e-03 3.45640680525933011e-03
5 1 1.82995106991417043e-02 7.96262659837680166e-03 9.76239439130807511e-03
6 1 1.40469305319065024e-02 -1.84489844333983574e-03 -4.12932046592716026e-03
7 1 2.38666631177064480e-04 -3.23625689505406761e-03 -1.27488714195542561e-02
8 1 5.39993833032722040e-03 -3.51955889363427020e-03 4.29674798077833014e-03
8
Step 3000
1 1 -1.03552612532919041e-02 4.06272038241343655e-03 4.81555093510069743e-03
2 1 -4.88952456703021024e-03 1.70944335142777862e-02 -6.93353984655286325e-03
3 1 1.93676127055145272e-03 3.68749975504326349e-03 3.62290894583772042e-03
4 1 -9.22502882488116654e-03 1.83285695206350553e-02 1.65894321450115183e-03
5 1 -1.91329175553230715e-02 -1.37488281496579469e-02 -8.57022979133689397e-03
6 1 -1.04651457944551010e-02 8.69268205612989606e-03 -2.90311151330275999e-03
7 1 1.77775275063955427e-03 -4.98606958601627553e-03 1.71004039055659939e-02
8 1 -8.40083780482427274e-03 -4.32641849577100395e-04 -2.79767997085815468e-03
8
Step 4000
1 1 1.00455318904252300e-02 -7.90451254775088354e-03 -2.54893505005954462e-03
2 1 4.32460536516552415e-03 -1.49950848761652555e-02 4.62172998635216117e-03
3 1 -6.02735567012970506e-03 1.97100983467673107e-03 -4.13852249051390245e-03
4 1 5.12079857370929727e-03 -2.02142746157976186e-02 -4.05473589830233124e-03
5 1 1.62158052417047879e-02 1.84990987687470715e-02 5.17325022208355630e-03
6 1 7.25423380178954590e-03 -1.31462507596192997e-02 1.10171261386440688e-02
7 1 -2.74776378148119038e-03 1.11950169857690483e-02 -1.43981193070138718e-02
8 1 1.07977583533261142e-02 3.69649456947556895e-03 1.19701544381450799e-03
8
Step 5000
1 1 -9.32880467525446996e-03 9.21066169364870464e-03 -1.88303914081038694e-05
2 1 -3.38036463295158683e-03 1.09591916050130311e-02 -4.44846453800768870e-04
3 1 1.08140957868134747e-02 -5.10870288552704027e-03 2.40533532092160459e-03
4 1 2.05071816835174095e-03 1.25701158082951805e-02 1.95738510198124622e-03
5 1 -9.16705958219619053e-03 -1.95609588984307775e-02 5.91683877263644940e-04
6 1 -4.61428104784084893e-03 1.35340845201152582e-02 -1.50419695500116669e-02
7 1 2.34122669724589260e-03 -1.26876093106417041e-02 4.25749624471681923e-03
8 1 -1.26367693129933352e-02 -6.54283310212757947e-03 1.73291972612769733e-03
8
Step 6000
1 1 6.45388363785420402e-03 -7.28344063719281801e-03 3.41242748317291704e-03
2 1 3.01247121977764017e-03 -7.32745181254680113e-03 -5.22826709404743909e-03
3 1 -1.17664197634798507e-02 3.41737593772997294e-03 1.50596804399156267e-03
4 1 -7.78349752806954936e-03 -4.51456165850423231e-03 2.73433186487295711e-03
5 1 2.51861114574641713e-03 1.82317561100690390e-02 -6.57829988656244424e-03
6 1 3.56047098272027455e-03 -9.36660449424353905e-03 1.19350000023619417e-02
7 1 1.57750895718570562e-04 9.94820746474587951e-03 6.86097504777999703e-03
8 1 1.35569494538347723e-02 8.85319374924197801e-03 -7.56040537048449212e-03
8
Step 7000
1 1 -1.48963573122142651e-03 3.12318807533730090e-03 -8.69192971342719854e-03
2 1 -3.79623356304704561e-03 5.67403963633155567e-03 1.05829857934979007e-02
3 1 7.31941628446447674e-03 2.00193136846331127e-03 -5.68043413011149346e-03
4 1 1.14423002332256218e-02 -2.23644943387608540e-03 -9.30941376101023996e-03
5 1 1.15854813514098664e-03 -1.62409960305865096e-02 1.11073327183967667e-02
6 1 -5.86157517929500500e-03 3.80930669919092189e-03 -3.99890803769121367e-03
7 1 -5.90092248862726220e-03 -5.11816124187235068e-03 -1.71474040091110468e-02
8 1 -1.15325952095939495e-02 -9.12261830739222700e-03 1.59676616976242546e-02
8
Step 8000
1 1 -5.94032007879692538e-03 2.87167225609466449e-04 1.97476888752813988e-02
2 1 3.95036649813258322e-03 -6.07619254878741851e-03 -1.15291580515538960e-02
3 1 2.68557296773783453e-03 -7.85984474683719229e-03 7.35220786834652005e-03
4 1 -1.08577765908463349e-02 7.84424004012247884e-03 1.48634321297442511e-02
5 1 -9.37672648159893667e-05 1.45080424265765281e-02 -1.33402427466557238e-02
6 1 1.12732686581857797e-02 6.38487575968224477e-04 -4.14837866195348799e-03
7 1 1.50163660345602693e-02 -5.56245643526807253e-05 2.71160258270809300e-02
8 1 6.55020760299374928e-03 5.41770728352801607e-03 -2.13029167232664865e-02
8
Step 9000
1 1 1.21061620180033663e-02 2.55414597155761199e-03 -2.78818019988106500e-02
2 1 -3.80714547230363680e-03 1.07899570699920445e-02 9.33095838130142650e-03
3 1 -2.01074333471115974e-02 1.23811480182045627e-02 -5.92830567357413487e-03
4 1 6.63303050094716726e-03 -1.27058556984850652e-02 -1.46203407070895509e-02
5 1 -2.64341404058467469e-03 -8.92889583766573978e-03 1.06760688585675542e-02
6 1 -1.72641822430362642e-02 -3.09167653069024979e-03 8.64505620264512109e-03
7 1 -1.84950796841315303e-02 4.27912491936114411e-03 -2.47213149538497851e-02
8 1 -1.99045541039898424e-03 -1.65730662071839605e-03 1.95895513275460877e-02
8
Step 10000
1 1 -1.06465289166509571e-02 -8.63373858247062052e-03 2.08196424638789901e-02
2 1 6.59310022995448618e-03 -1.54166919392119076e-02 -6.82621656801135450e-03
3 1 2.56864116323009747e-02 -1.24822216776588231e-02 2.90185298322198962e-04
4 1 -1.16825468836228826e-03 1.64787383694131317e-02 6.34272674633789245e-03
5 1 2.97381441449449642e-03 2.20610573883097587e-03 -5.66269308161870474e-03
6 1 2.11123922997540521e-02 4.44598911261875375e-03 -7.61654130447975575e-03
7 1 1.44836783600885543e-02 -3.88472926605386640e-03 1.30886716671532732e-02
8 1 2.47912945517773757e-04 1.67392637337304131e-03 -1.44303885448134085e-02
8
Step 11000
1 1 6.87034342497094656e-03 1.43869402444895440e-02 -1.13720495847778897e-02
2 1 -1.00225625952471975e-02 1.55249184415268728e-02 3.96948775967537193e-03
3 1 -1.59654714330784223e-02 4.03728772622424011e-03 4.85650698551276603e-03
4 1 -3.25178235750551558e-03 -1.91306446265850465e-02 3.90071204081361960e-03
5 1 -1.58273604279853832e-03 3.28034318777840547e-03 5.96298227852738727e-04
6 1 -2.09781559804534806e-02 -5.39320719730847567e-03 5.68540515841178991e-04
7 1 -1.19742342347711594e-02 2.01899305673910665e-03 -4.52189953345956842e-03
8 1 -1.33117337239250762e-03 -4.08482986552441765e-03 9.37908800022110162e-03
8
Step 12000
1 1 -2.65396980219402166e-03 -1.68862460719475839e-02 4.66920638805837750e-03
2 1 1.47556471016281332e-02 -1.36355025039438856e-02 -2.03477265848349366e-03
3 1 5.78231724797121857e-03 3.84949628599515908e-04 -6.32477479704582433e-03
4 1 7.04275868873044386e-03 2.20574473744078146e-02 -1.17792942552928555e-02
5 1 -1.47193502874374193e-03 -7.78315155048682483e-03 3.49887840541889634e-03
6 1 1.77096136161034798e-02 6.50947273984929693e-03 1.07968872207373622e-02
7 1 1.17074061635184315e-02 3.97533061026240800e-04 -3.86871766967616156e-03
8 1 4.76001998660291210e-03 7.43326453400372338e-03 -3.88901351919395451e-03
8
Step 13000
1 1 -7.83553954618812585e-04 1.59831168862599876e-02 -1.96105998278207558e-03
2 1 -2.21665934343408359e-02 1.34081893749417643e-02 1.52352897696296334e-03
3 1 2.72516041985578807e-03 -1.12029973772800624e-03 5.27906466377610784e-03
4 1 -1.15283315678222382e-02 -2.19069760523997008e-02 1.64711841766253322e-02
5 1 6.65940042977374025e-03 9.51757944887416177e-03 -4.02084558155359813e-03
6 1 -1.68396763849535391e-02 -9.27637315674429037e-03 -2.49728878814981861e-02
7 1 -1.40155305203341022e-02 -1.74186019860632932e-03 1.27926942759107962e-02
8 1 -1.07136196174681033e-02 -1.01120897076963159e-02 -2.09259739764993931e-03
8
Step 14000
1 1 2.44436640921446039e-03 -1.19461833941847378e-02 3.09338691119706794e-03
2 1 2.10162025639700489e-02 -1.20729917815312667e-02 -1.78369146226846310e-03
3 1 -8.81242812814697803e-03 1.81044477278109256e-04 -4.12622405493702753e-03
4 1 1.15822800343777406e-02 1.42589327111999984e-02 -1.39048260165879917e-02
5 1 -1.17068880356622565e-02 -5.75460933257442367e-03 -1.18588204734920255e-03
6 1 1.44681710303193305e-02 1.17957010165205822e-02 3.14368627849861623e-02
7 1 1.91218458029832825e-02 7.77984730354250179e-04 -2.25198144801886969e-02
8 1 2.03938495729610834e-02 1.18391974561849207e-02 7.95286527610204047e-03
8
Step 15000
1 1 -1.88735928467316624e-03 6.80271943876120493e-03 -7.72820981832914727e-03
2 1 -1.12546303705359143e-02 8.96073152230089827e-03 9.61926074978100435e-04
3 1 1.09158000568282034e-02 1.40143038273706183e-03 4.13891933045509083e-03
4 1 -6.12444828115125874e-03 -4.32100859533637773e-03 5.37659274950272673e-03
5 1 1.30013314192076682e-02 -3.46278467339605290e-03 1.02686427112394108e-02
6 1 -5.93059942666501489e-03 -6.80170084653145511e-03 -1.45405349634423978e-02
7 1 -2.08133200081846818e-02 1.79911919314983842e-03 2.64885788433155932e-02
8 1 -2.50901883842949737e-02 -7.56348626247675595e-03 -1.17295933833517080e-02
8
Step 16000
1 1 -1.32262868071781562e-03 -2.97039755196458217e-03 1.90029401647211042e-02
2 1 4.23814241749924381e-03 -9.35391054165444352e-03 -6.67691464208845288e-05
3 1 -6.65488554899688368e-03 -4.43247911788837833e-03 -7.35471362631878213e-03
4 1 2.69960943675453743e-03 -2.56848916886314382e-04 1.27152967956224044e-03
5 1 -9.78547051508942695e-03 1.34153879088125608e-02 -1.62449207787099641e-02
6 1 3.10252033079084577e-03 4.80986461284585182e-03 4.43568825909351934e-03
7 1 1.18331876528907122e-02 -2.59494636934671239e-03 -1.40047172066415943e-02
8 1 1.70976357139166202e-02 8.30831998623312923e-04 8.57598766968095498e-03
8
Step 17000
1 1 7.11401043529145613e-03 1.47423452147516626e-03 -2.69191871314803828e-02
2 1 2.87085640662746886e-04 1.18828982807844940e-02 -1.87508827441239668e-03
3 1 -7.78490195814163016e-04 7.29619382503621239e-03 1.30962188204757149e-02
4 1 8.90150324206997586e-06 1.89542625630901716e-03 -6.05554759051552417e-03
5 1 4.99758560299065537e-03 -1.55050556821812700e-02 1.20945707909404666e-02
6 1 -1.29720248160244771e-03 -3.09655095955957112e-03 9.02013933076881071e-04
7 1 -7.13758333214304513e-03 8.77615522589956327e-04 3.25170167104977441e-03
8 1 -8.86803665368751312e-03 2.70073186053915995e-03 -4.78636160829418785e-03
8
Step 18000
1 1 -9.74153345973115606e-03 -4.57697148006017736e-03 2.15309733626272252e-02
2 1 -2.64330007646346741e-03 -1.32869075629428266e-02 6.60417053955601827e-03
3 1 7.01427100135168340e-03 -6.34791694170738687e-03 -1.72968581486943745e-02
4 1 -2.36511090080103112e-03 -1.70056185605045769e-03 8.40750999312383368e-03
5 1 -8.04979264389577009e-04 8.87979316383180443e-03 -9.46807283428912315e-04
6 1 -8.77789899274949124e-04 -1.82695828059146396e-04 -4.40767702310445111e-03
7 1 8.99405771664200764e-03 2.12890677113958607e-03 3.98899559414975409e-03
8 1 5.29316311626615993e-03 -2.73899699162860784e-03 1.89106492287576195e-03
8
Step 19000
1 1 6.58052828938599128e-03 1.04050675518620496e-02 -1.25431047905994412e-02
2 1 2.62724998510389159e-03 1.25037513169642244e-02 -1.31220667876625445e-02
3 1 -1.18091134035994867e-02 1.54684922577182538e-03 1.84581627225302719e-02
4 1 4.86978748036320016e-03 1.13316828236757002e-03 -6.96535119685902718e-03
5 1 -1.37575381111154854e-03 -4.65675983295412745e-03 -9.03938688436775432e-03
6 1 5.03558063846566793e-03 5.23005329041533774e-03 8.51253570678019850e-03
7 1 -1.43284092817357860e-02 -5.28082712845148305e-03 -7.97454088214012008e-03
8 1 -5.84213615316923202e-03 1.23027849821279395e-03 6.68060436927066736e-04
8
Step 20000
1 1 -2.92874941024478326e-04 -1.52801831088750072e-02 6.27843980446018794e-03
2 1 -5.03656210996960684e-04 -8.48301061155583638e-03 1.62835869490789188e-02
3 1 1.36249695237331322e-02 4.30538152102054577e-03 -1.38343728237754759e-02
4 1 -6.80591874033288375e-03 -8.79796118098878188e-04 7.66794065124273058e-04
5 1 3.56568887731256636e-03 2.56770729722615929e-03 1.90206840125639459e-02
6 1 -1.07694307754344250e-02 -9.59527057075288889e-03 -1.14608032668965677e-02
7 1 2.19004333676325116e-02 8.31982722279094380e-03 9.43545140806908642e-03
8 1 1.10915886978217911e-02 2.01918421714761189e-04 -3.70743046489058030e-03
8
Step 21000
1 1 -4.32069404350675108e-03 1.51322109364483998e-02 -2.59662359421430162e-03
2 1 -2.06458118205718466e-03 2.27797581533605714e-03 -1.29810607385112235e-02
3 1 -1.26089923620671656e-02 -8.43653438206402179e-03 3.44200252179307923e-03
4 1 4.34278603903404895e-03 -5.09479253416602663e-04 9.64221942358228779e-03
5 1 -6.87482579787389910e-03 -3.18263970776590114e-03 -2.35991983536836987e-02
6 1 1.47760423712989791e-02 9.81371861552064739e-03 1.04031017707607188e-02
7 1 -2.73045004386824296e-02 -1.00595900629943114e-02 -8.54545805503907803e-03
8 1 -2.50722674065626087e-02 -1.22341715650167693e-04 8.41170932205207930e-03
8
Step 22000
1 1 5.59183527497945400e-03 -1.05641330217232984e-02 1.00738276116120701e-03
2 1 3.25791576321690342e-03 2.71822100710097242e-03 5.87825518388860723e-03
3 1 1.03172702435225284e-02 9.18282384791548403e-03 9.03166303336994970e-03
4 1 9.88533654315041158e-04 2.66219007593955720e-03 -2.08709558126590096e-02
5 1 9.06231514440505696e-03 5.17988948530401921e-03 1.49845592758257595e-02
6 1 -1.32759615778513303e-02 -4.83184503465065428e-03 -6.22027482892264106e-03
7 1 2.09122822772585953e-02 7.46719446463268641e-03 4.28248250628334316e-03
8 1 3.08038692339557135e-02 -4.84665329441054036e-04 -9.63521245147378955e-03
8
Step 23000
1 1 -6.36912785177408923e-03 7.37443331980197452e-03 -4.88929803240467122e-04
2 1 -2.20647672924408414e-03 -5.93229523130665501e-03 4.13859857600623951e-03
3 1 -7.73882259339954588e-03 -6.67413582149908695e-03 -1.75573104369118466e-02
4 1 -6.19380941826003749e-03 -2.45703960283119886e-03 2.68646780707896167e-02
5 1 -7.85117183199028103e-03 -7.10109388472286805e-03 2.09752623596023329e-03
6 1 1.08434233438158781e-02 -1.37932459522041757e-03 3.00573680731853598e-03
7 1 -8.46070692262208476e-03 -3.20291700382275982e-03 -3.26317817467043994e-04
8 1 -2.29739021939149440e-02 2.08298802231227228e-03 5.92891979916545814e-03
8
Step 24000
1 1 7.96593994458917945e-03 -5.20414636428673076e-03 7.02359326289690310e-04
2 1 -3.92505740231746062e-03 7.61855287556569092e-03 -1.43396774721139784e-02
3 1 4.37969622649142781e-03 2.52651291619532432e-03 1.85858540047114801e-02
4 1 7.70074147070644397e-03 -7.73432718195770762e-04 -2.04119628053079233e-02
5 1 5.50307186972453111e-03 6.74233568269577005e-03 -1.33195173067176195e-02
6 1 -6.87343904046357462e-03 8.35038971902104729e-03 1.62264944001063978e-03
7 1 2.76743698904617966e-04 1.46324443242717159e-03 -1.00511881691076510e-03
8 1 1.51991424072810133e-02 -3.85391022476336406e-03 -1.23600496441896024e-03
8
Step 25000
1 1 -1.09751644165617720e-02 3.24593562811946066e-03 -2.67787487598328483e-03
2 1 1.50152516457104160e-02 -7.05584958164541965e-03 1.71337080026033074e-02
3 1 -1.68428779356089259e-03 9.14232278683874030e-05 -1.38384740305794850e-02
4 1 -6.50940350564309898e-03 5.46397312744504454e-03 8.73504059726942783e-03
5 1 -2.76459445228138812e-03 -3.68191287969991303e-03 1.42765048358901771e-02
6 1 2.75233995434764509e-04 -1.55796040503900293e-02 -8.51555217989951631e-03
7 1 2.20809792458995973e-03 -1.67225457285134858e-03 1.19297435117778267e-03
8 1 -1.12651792105355909e-02 2.89897965466896475e-03 -4.05610522578209176e-03
8
Step 26000
1 1 1.56379561445858101e-02 -2.63360097585921401e-03 6.22941561122307072e-03
2 1 -2.31755511817699211e-02 4.69740991747509811e-03 -8.44643320299013310e-03
3 1 1.20626720817878000e-03 1.25444907303309881e-03 7.07970526164656069e-03
4 1 6.75179032318772368e-03 -1.13512600117856507e-02 1.07942476074427752e-03
5 1 4.61864747645345178e-05 -9.16947914532220232e-04 -9.56393506393976058e-03
6 1 6.27027356126424844e-03 1.93688122623824274e-02 1.51783552213270636e-02
7 1 -2.77071410293249344e-04 1.96058988271277483e-03 -9.30692215126327667e-04
8 1 1.05355158330804159e-02 8.95878522557141239e-04 9.09072292251189747e-03
8
Step 27000
1 1 -1.67332108459912060e-02 3.92693267612452632e-03 -8.03174842434507125e-03
2 1 2.11248125370031015e-02 -2.49353662068140577e-03 -3.39260799501129532e-03
3 1 -2.39598233085541170e-03 -5.49599213205151024e-03 -7.19535622497204813e-04
4 1 -8.49412605044132761e-03 1.49329502615020721e-02 -9.72151814563919706e-03
5 1 2.02494293267079092e-03 6.35912737291753627e-03 4.43997253951995338e-03
6 1 -9.12346482597244969e-03 -1.35394580697289213e-02 -1.43795891194716426e-02
7 1 -3.06882131909326072e-03 -1.93317724885240906e-03 6.42791978671906623e-04
8 1 -1.00875390588636774e-02 -4.27479177212830921e-03 -1.13536051665007291e-02
8
Step 28000
1 1 1.25355689457651454e-02 -4.48853492036276319e-03 4.40391108956971963e-03
2 1 -1.36170485789653493e-02 2.13347157746772908e-03 1.10478174702384815e-02
3 1 3.37674436090670870e-03 9.42775186499152096e-03 -3.75822426988308648e-03
4 1 9.81401308908215475e-03 -1.31151961030266054e-02 1.45295003852286796e-02
5 1 -2.96782385705683096e-03 -1.09492293200304028e-02 -1.92095139267590411e-03
6 1 7.48302406195374813e-03 4.62723133943982855e-03 6.15581335492354758e-03
7 1 5.29363962774499850e-03 1.17426366870745534e-03 -7.02529394359571388e-04
8 1 7.14075749076447611e-03 5.09173209672016038e-03 7.72029059946639958e-03
8
Step 29000
1 1 -9.75328393628993075e-03 5.04916439681559696e-03 1.65103750099190729e-05
2 1 5.83483429332307645e-03 -3.32040294633690171e-03 -1.53097454997304337e-02
3 1 -2.88126923938693226e-03 -1.21255340040433788e-02 6.32865257737709897e-03
4 1 -1.04184600797297359e-02 6.30690561791677571e-03 -1.35807148951214429e-02
5 1 1.66470805221973091e-03 1.18068143928122173e-02 3.48162536908634907e-03
6 1 -6.28629924498318778e-03 1.12841188622082129e-03 1.83284675081137006e-03
7 1 -6.13970533608171592e-03 5.51181324507979170e-04 5.91807477249609156e-04
8 1 -5.93899455162262471e-03 -6.39547556859336886e-03 -4.15796030167646900e-03
8
Step 30000
1 1 8.23702540040586323e-03 -6.49464958990188593e-03 -3.20554545764275937e-03
2 1 2.49077854818718003e-03 4.30800431066981956e-03 1.58891932126815662e-02
3 1 1.90967590422610935e-03 1.28577497828529733e-02 -8.72534829476825056e-03
4 1 1.02886070740959255e-02 2.85791394179142969e-03 8.46480156467421287e-03
5 1 1.68347289116016225e-03 -9.12230464511873569e-03 -6.26249100277579199e-03
6 1 3.67572368285867812e-03 -4.07900672806507398e-03 -9.29691951030127764e-03
7 1 5.48305480758277692e-03 -2.85769446054299396e-03 5.69322649872884166e-04
8 1 5.89799852833583233e-03 7.92364886018163614e-03 2.54978972576327088e-03
8
Step 31000
1 1 -6.81910992877331635e-03 7.76161410301711222e-03 6.51956168096052158e-03
2 1 -1.27456110293789285e-02 -5.01828577445896911e-03 -1.32141258425773206e-02
3 1 1.79652795388546049e-04 -8.55570472339059300e-03 9.40019906235943330e-03
4 1 -8.30986483476630483e-03 -1.20146561325004154e-02 -1.10467967366635936e-03
5 1 -4.79827252011968963e-03 4.33176780730881381e-03 5.07613968459007768e-03
6 1 4.79421842902445165e-04 3.86312763304849476e-03 1.31627498900673233e-02
7 1 -3.72873711528914084e-03 3.93417259499904796e-03 -4.25664422391428335e-03
8 1 -6.89794549639555048e-03 -9.55735964285684900e-03 -2.08758237345777311e-03
8
Step 32000
1 1 4.36366019234755292e-03 -7.60732089496857136e-03 -9.58326220552107276e-03
2 1 2.29650493835329601e-02 5.77980391900778483e-03 8.44813347207139763e-03
3 1 -3.38310710165711350e-03 1.68373026945887642e-04 -6.54332444260653096e-03
4 1 3.18586273580377579e-03 1.74005431762908440e-02 -5.13473280516411890e-03
5 1 8.22496111361275574e-03 1.98592625666944205e-03 -2.56796049781683050e-03
6 1 -3.97561854588132646e-03 -1.93991962914161426e-03 -1.24999319256468410e-02
7 1 1.72512137670135287e-03 -3.68934355080941835e-03 7.49109272288759828e-03
8 1 8.91632249884448218e-03 1.00298134504642582e-02 3.17376240825417320e-03
8
Step 33000
1 1 -1.19963050307286194e-03 4.04984144722168784e-03 1.01265302313582935e-02
2 1 -2.67961171396198100e-02 -6.43353283953345453e-03 -3.66892888111954420e-03
3 1 5.67970894086238832e-03 7.31574802879515068e-03 9.27965219204589589e-04
4 1 3.51760862805396580e-03 -1.47803457969195359e-02 5.64284149832862576e-03
5 1 -1.12822665872665765e-02 -2.75094365520880957e-03 -3.50755796108446604e-03
6 1 4.24651662555146966e-03 1.53534795807854494e-03 9.36599790841931984e-03
7 1 -2.48447865146993836e-03 3.60111065568875007e-03 -8.41991426215369862e-03
8 1 -9.45504181545532216e-03 -6.43029903476479477e-03 -5.02045287898556739e-03
8
Step 34000
1 1 1.26476336333735577e-03 1.76300090683335496e-03 -8.18124471139449784e-03
2 1 1.94666347863903279e-02 5.98045369525426578e-03 1.03241187311799046e-03
3 1 -4.15318125456450634e-03 -1.01138248722208481e-02 3.81203407073698675e-03
4 1 -7.84138162696067231e-03 6.39122358727938801e-03 -1.07524021966663155e-03
5 1 1.25099995761022882e-02 5.25750247549868367e-04 1.22401820804488911e-02
6 1 -3.03101973670849144e-04 -5.79598211038933643e-03 -3.58545177174649562e-03
7 1 5.21339087346587172e-03 -3.18549356738510956e-03 7.04260915995100645e-03
8 1 8.17262079309881082e-03 6.33985163822696073e-04 6.18206187367652781e-03
8
Step 35000
1 1 -7.03867793822076857e-03 -5.92508874956819160e-03 6.90137094361634000e-03
2 1 -1.04816904206134140e-02 -5.14234033848600530e-03 -2.05007096596602134e-03
3 1 1.27703518196471558e-03 9.09884116968259250e-03 -7.25025125975451400e-03
4 1 6.76784627418719129e-03 1.26523502945096985e-03 -3.27606055454737321e-03
5 1 -9.48876982403856414e-03 2.39155349572816580e-03 -1.73367704392556783e-02
6 1 -5.26707051518829784e-03 1.20399332376345328e-02 -6.03528821193619058e-03
7 1 -7.43757686644335152e-03 1.58492002243426481e-03 -3.02958455409863990e-03
8 1 -5.55427226489971747e-03 2.60816854585581423e-03 -5.78139087829943749e-03
8
Step 36000
1 1 1.52927416781154946e-02 5.81066667638243262e-03 -7.64511276094019879e-03
2 1 6.85135639244181804e-03 5.64025981036508049e-03 4.10402321544609591e-03
3 1 2.93612331272348872e-03 -3.64515335350288619e-03 1.00435034475046016e-02
4 1 -3.40277405486664455e-03 -3.66543399240421399e-03 4.47246277184630472e-03
5 1 2.05106272952499747e-03 -2.96407560883767476e-03 1.27407043522108632e-02
6 1 1.07428812988060746e-02 -1.39244388819738715e-02 1.48114254411086752e-02
7 1 7.74359906756642933e-03 9.57503413244446757e-04 -2.88128137304292800e-03
8 1 1.60493172335351422e-03 -1.94754042923178813e-03 4.44855941003946195e-03
8
Step 37000
1 1 -1.98623725430424093e-02 -1.24516929738296110e-03 9.06356216973237296e-03
2 1 -6.46610464472212754e-03 -5.63392077975924648e-03 -6.11043426706319934e-03
3 1 -9.82748463624547909e-03 -6.73144433234405988e-03 -1.21255961555441251e-02
4 1 -1.18893599655410238e-03 7.53303363590363960e-04 -3.43167693357840928e-03
5 1 4.94311855090380416e-03 7.12632171355261730e-04 -4.56009987562636630e-03
6 1 -1.20071663014245916e-02 1.22693265139934577e-02 -1.58720800834779990e-02
7 1 -6.34499631101480711e-03 -4.47037049477289582e-03 8.69873502546899928e-03
8 1 2.09477291607555608e-03 -1.63229922605543374e-03 -3.16181644670226331e-03
8
Step 38000
1 1 1.72246061386435792e-02 -4.47567679143849161e-03 -9.89107895019637751e-03
2 1 1.04228618149098604e-02 4.19557272511305451e-03 7.73901824497045393e-03
3 1 1.67499957396745613e-02 1.52744920477191036e-02 1.33027198923214036e-02
4 1 6.58471702403501998e-03 5.08920679337501475e-03 1.18430277195444842e-03
5 1 -5.77999888958758996e-03 2.27610723789537124e-03 3.67247664904976525e-04
6 1 9.62657737947035692e-03 -8.76720740262476594e-03 1.07048694153233578e-02
7 1 3.90126152940344344e-03 8.13659159797705880e-03 -1.17781493782862512e-02
8 1 -4.19882964756451618e-03 6.14048953885077808e-03 3.13758248562134336e-03
8
Step 39000
1 1 -9.28166820683372536e-03 6.46977067128209644e-03 9.10602960399953774e-03
2 1 -2.01086103714317836e-02 -6.85312330771532872e-04 -6.46980990215635220e-03
3 1 -1.80328287488453615e-02 -1.47403759276569322e-02 -1.06487371599110862e-02
4 1 -1.22238544891251008e-02 -1.21383852650484951e-02 1.94160765534537403e-03
5 1 2.53661748890588986e-03 -5.57662534585235802e-03 1.57453323118174706e-03
6 1 -6.97469435652881518e-03 4.60888154311277741e-03 -5.01745276033731952e-03
7 1 -1.19234134328238621e-03 -8.60093019587072211e-03 1.00286413955039400e-02
8 1 6.20351668703456646e-03 -9.40762656468666948e-03 -4.16265612140661895e-03
8
Step 40000
1 1 2.05438692573724907e-03 -3.50243478900820341e-03 -6.00255448192538871e-03
2 1 2.55146066880633689e-02 -4.38891776971750067e-03 -3.89289766132164131e-04
3 1 1.13375543971892655e-02 6.61317893716631498e-03 4.16665884355003728e-03
4 1 1.19634794237825463e-02 1.44261941378273865e-02 -2.57275423996003753e-03
5 1 2.45387882808945296e-03 7.92246547565856642e-03 -7.56525925507872243e-04
6 1 6.41770829520156919e-03 -1.37683615076400847e-03 1.95209701011636594e-03
7 1 2.71036402377756276e-04 5.19675396479276838e-03 -4.35205796100980764e-03
8 1 -1.07608940338082045e-02 1.06825782652845338e-02 6.36792815784099388e-03
8
Step 41000
1 1 -9.35979772757728986e-04 7.14774263412831746e-04 5.95183513488940774e-03
2 1 -2.42389066760940082e-02 6.59500221692586441e-03 7.66784611268314133e-03
3 1 -8.42611216168877644e-03 -3.91385063052825880e-04 -9.70889747758960932e-04
4 1 -2.56503393171720034e-03 -9.78909414831322794e-03 1.76918639415924546e-03
5 1 -5.29450801632021760e-03 -8.03403036185113689e-03 -3.60865870364006098e-03
6 1 -8.30731036039109721e-03 -1.17633356782649275e-03 -1.51155037622205000e-03
7 1 -1.58218593528692479e-03 -1.65111550694821353e-03 -2.76622394582717813e-04
8 1 1.14667045960835205e-02 -5.42300072330450036e-03 -5.37903024062821519e-03
8
Step 42000
1 1 3.37410940818066865e-03 1.79409782909144082e-03 -7.83347342286518783e-03
2 1 1.86014344442936505e-02 -4.89729207013515390e-03 -9.99910583360392145e-03
3 1 1.08510010129997045e-02 -1.06115697283728225e-03 -2.01903675717686861e-03
4 1 -9.83194632914038795e-03 3.50593668134466414e-03 4.72906778481893358e-04
5 1 4.09479151142273529e-03 4.66522587630365665e-03 8.34664647828658145e-03
6 1 1.37451335746707117e-02 3.28448657663283272e-03 4.08209878296703858e-03
7 1 2.85962411351827926e-03 -9.19482895283262134e-04 1.99051176426006358e-03
8 1 -1.00613681475117348e-02 -3.00482067448368294e-03 1.49590862932985624e-03
8
Step 43000
1 1 -7.73690888056140225e-03 -4.05779021573416093e-03 8.39487408898178383e-03
2 1 -1.22951760492196818e-02 1.73202489744604064e-03 6.97148561603321004e-03
3 1 -1.52873891726537404e-02 -2.18245412711026406e-03 5.75327074865349467e-03
4 1 2.42082087728799633e-02 2.01592420225294453e-03 -4.13502908771737603e-03
5 1 -4.05843445554114271e-05 -1.49054904424625198e-04 -1.03131500827759008e-02
6 1 -2.16674680751891419e-02 -4.61773469074383287e-03 -8.89901550305538351e-03
7 1 -3.02109530742994577e-03 1.77682006700785860e-03 -2.87644730529389723e-03
8 1 1.04144782645511635e-02 9.14235182446387386e-03 2.77857081127888495e-03
8
Step 44000
1 1 1.32828053307707094e-02 5.66258128549838608e-03 -6.56684588999195944e-03
2 1 7.79792192044839044e-03 2.65462777203068255e-03 -1.17344809250829367e-03
3 1 1.30484706637408535e-02 5.12001131610038615e-03 -5.47595826498580192e-03
4 1 -3.35650715071881267e-02 -6.30922050730289667e-03 9.03078026629995471e-03
5 1 -5.31062825636104650e-03 -1.66923190417310983e-03 8.20920421609129709e-03
6 1 2.08601864207601621e-02 4.77304462885215410e-03 1.07084487255620815e-02
7 1 1.75423779301621266e-03 -4.80232079522170403e-04 4.65189649937126828e-03
8 1 -1.14169661804563640e-02 -1.21491366526053340e-02 -8.22108651476018311e-03
8
Step 45000
1 1 -1.71446684179039632e-02 -5.79688149823566999e-03 2.97036131254648384e-03
2 1 -5.96446881105989861e-03 -8.97892252750890317e-03 -5.44087027770966906e-03
3 1 -1.05530220663782349e-02 -1.03763286064405200e-02 5.26737963260766068e-03
4 1 2.03018569277473721e-02 6.85922820104381981e-03 -1.07026591221265517e-02
5 1 9.18033987716743508e-03 1.03624200574465751e-03 -1.93830696242263778e-03
6 1 -1.26301187609220694e-02 -4.34167897002624408e-03 -7.42321478496164432e-03
7 1 1.54972662160908904e-03 -1.57842595523093369e-03 -6.62805986054668811e-03
8 1 1.19144513946820973e-02 1.19250424732237330e-02 1.38963860476512616e-02
8
Step 46000
1 1 1.37974147303923621e-02 1.84832879431663069e-03 7.14187218588542691e-04
2 1 8.64463154992666134e-03 2.00401452670715477e-02 1.32231115699704069e-02
3 1 8.44592295172079746e-03 1.37718824025994460e-02 -6.05974937849735988e-03
4 1 -3.15498680678643045e-03 -6.56930456871052029e-03 1.10502205314283106e-02
5 1 -9.92988022010723483e-03 6.89075795844030690e-04 -6.40144803072054992e-03
6 1 3.87661625144897432e-03 6.30225885514388868e-03 2.58561425785146411e-03
7 1 -6.88098646984613201e-03 3.21851064713219327e-03 6.39053911125541524e-03
8 1 -9.81005559108205465e-03 -8.53766969875894080e-03 -1.62391830915050751e-02
8
Step 47000
1 1 -5.03283880330731952e-03 5.08483883082561441e-03 -5.27773781594959284e-03
2 1 -1.04167068414438794e-02 -2.54077003884819463e-02 -1.34240856496177473e-02
3 1 -4.93118590720450448e-03 -1.27600923990097894e-02 6.76214742753425066e-03