12
 Atoms. Timestep: 0
1 1  0.000000000000e+00   0.000000000000e+00   0.000000000000e+00 
2 1  0.000000000000e+00   0.000000000000e+00   0.000000000000e+00 
3 1  0.000000000000e+00   0.000000000000e+00   0.000000000000e+00 
4 1  0.000000000000e+00   0.000000000000e+00   0.000000000000e+00 
5 1  0.000000000000e+00   0.000000000000e+00   0.000000000000e+00 
6 1  0.000000000000e+00   0.000000000000e+00   0.000000000000e+00 
7 1  0.000000000000e+00   0.000000000000e+00   0.000000000000e+00 
8 1  0.000000000000e+00   0.000000000000e+00   0.000000000000e+00 
9 1  0.000000000000e+00   0.000000000000e+00   0.000000000000e+00 
10 1  0.000000000000e+00   0.000000000000e+00   0.000000000000e+00 
11 1  0.000000000000e+00   0.000000000000e+00   0.000000000000e+00 
12 1  0.000000000000e+00   0.000000000000e+00   0.000000000000e+00 
12
 Atoms. Timestep: 1000
1 1  6.909660484328e-05  -3.039248752796e-05  -3.595914749948e-04 
2 1 -3.111115851639e-04   2.308906610358e-04  -7.200705303037e-05 
3 1  4.073686946929e-04   1.623605512256e-04  -2.595756847831e-04 
4 1 -5.348000413680e-04   1.040265513785e-04  -2.338083518984e-04 
5 1 -3.631753896721e-04  -1.831079290677e-04   3.921855071707e-04 
6 1  8.438686248063e-05   7.319971667035e-05   7.695121408808e-05 
7 1 -2.950095414680e-04  -1.746991724441e-04   7.239712542492e-05 
8 1  4.850525015021e-05  -1.280531517001e-04  -2.201018879241e-04 
9 1  1.803652093034e-04   2.485153191659e-04  -2.910399361646e-04 
10 1 -3.229299383718e-04  -3.070634600042e-04  -4.712332753623e-04 
11 1 -1.613748663739e-04   3.101238847234e-04   2.561900633926e-04 
12 1  1.671710359601e-04   2.217472662602e-05  -6.988831214382e-06 
12
 Atoms. Timestep: 2000
1 1  1.190799669130e-04  -8.060390433990e-05   3.020213499547e-04 
2 1 -4.845829983688e-05   1.614214306313e-04   5.335230666846e-05 
3 1 -3.711039244886e-04  -1.532120222405e-04   2.095645670467e-05 
4 1 -2.910347665159e-05  -2.371669756109e-04  -2.518645484330e-04 
5 1 -1.347307301672e-04   2.475075892628e-04   5.638013137023e-06 
6 1 -2.802258131061e-04   1.427307938015e-04  -1.631464065173e-04 
7 1 -1.312733155319e-04   1.913210625920e-04   1.140912332369e-04 
8 1  4.082124965333e-04  -3.066442998011e-04  -3.471936552603e-04 
9 1  9.692655651958e-05   2.451003880264e-04   3.142575813879e-04 
10 1 -4.913378240299e-05  -2.770586995716e-04  -1.582326576120e-04 
11 1 -4.608140922601e-04   5.506982964519e-04   3.004136609662e-04 
12 1  9.458475015562e-05  -1.196344205106e-04  -4.181412203048e-04 
12
 Atoms. Timestep: 3000
1 1  4.639358354475e-04  -7.465702791037e-05  -7.231235824347e-05 
2 1  1.688528831414e-04   6.650188637414e-05   1.902585410459e-04 
3 1 -3.825061452104e-04  -5.999456099583e-05  -1.007379065879e-04 
4 1 -1.348921614044e-04   1.440523968048e-05   5.621266977244e-05 
5 1  5.175816945154e-05   2.702008212548e-04  -1.568142337887e-04 
6 1 -1.816419739529e-04   5.384940134765e-05   1.979261404659e-04 
7 1  1.020427742559e-04  -3.515111494177e-04   5.151266397636e-04 
8 1  4.943300863176e-04   5.346289221799e-04   2.052094717047e-04 
9 1  2.244237457201e-04  -1.363896831275e-04  -3.939097257813e-04 
10 1  1.451900893256e-04   4.746204383874e-04   2.519439713404e-04 
11 1  2.777429032566e-04  -2.877097943867e-04  -4.607068841943e-04 
12 1  6.033919862262e-04  -2.920111270944e-04  -1.179114023309e-04 
12
 Atoms. Timestep: 4000
1 1  8.593759082623e-05   3.486287858792e-06  -2.400974932590e-04 
2 1 -7.553208124030e-07   3.407024334088e-04   4.748561085969e-05 
3 1  2.139514671163e-06  -2.547618589314e-04   2.204595438312e-04 
4 1 -1.018416786831e-04   8.805322221947e-05   1.335781727778e-04 
5 1 -2.395269984382e-04  -6.451017542059e-05   4.720350654496e-04 
6 1  2.072108903870e-04   1.105134987486e-04  -7.221574733944e-04 
7 1  8.048465174477e-05   1.020851781640e-04   1.783143940479e-04 
8 1  5.772295883601e-04  -3.253350641726e-05  -1.302420835046e-04 
9 1 -4.435086875869e-05  -8.638632902211e-05   2.899184928833e-04 
10 1 -3.302951604218e-04   4.315560094277e-05  -3.756059988839e-04 
11 1 -4.006110281574e-04   4.106717807310e-04  -2.673196824891e-04 
12 1  1.655321050994e-04  -2.197014299611e-04   1.405764597167e-04 
12
 Atoms. Timestep: 5000
1 1  7.661364483250e-05  -3.381381969267e-04  -2.949277495597e-04 
2 1  1.736959179126e-04  -2.405057327907e-04   1.886878901668e-04 
3 1 -5.698172520909e-05   5.590151692850e-04   6.899765278462e-05 
4 1  2.678907003204e-04  -6.362117532103e-05  -2.551645022858e-04 
5 1  8.265138240887e-07   3.962232117085e-04  -5.073653581499e-05 
6 1  1.662014355637e-04   4.013355029518e-04  -7.173992999666e-05 
7 1 -1.494583702562e-05   3.997710226209e-04   5.990860001998e-05 
8 1 -2.969476710678e-05   2.467019217727e-05  -3.563179862214e-04 
9 1  6.109856748370e-05  -4.730920545060e-04   1.480054703987e-04 
10 1  3.462687578620e-04  -4.570893504788e-04  -4.072584034689e-04 
11 1  3.666921170770e-05  -2.436258068828e-04  -2.947311972522e-05 
12 1 -4.305838003580e-05  -1.738940754498e-04  -2.108582406872e-04 
12
 Atoms. Timestep: 6000
1 1 -3.760781281405e-04   2.070863631904e-05  -4.792014572609e-05 
2 1  1.076861173008e-04   1.342716649330e-04   7.798476819227e-05 
3 1 -8.561481800148e-06  -1.888976921737e-04   5.745048196538e-05 
4 1  2.505409885728e-04   1.393152835092e-04   2.720361982267e-04 
5 1 -3.417362319517e-05   3.979922952833e-05   2.135559875591e-04 
6 1  2.294549194147e-04   2.478801861811e-04   6.266024951503e-04 
7 1 -1.092071148011e-04  -2.904755856868e-04  -6.664337676152e-05 
8 1  4.948665232171e-04   4.621331574962e-04  -5.051273809137e-04 
9 1 -1.444213425147e-04  -1.577876793390e-04  -3.820443836118e-04 
10 1 -3.335867468639e-04   3.470085212874e-04  -1.435919773074e-05 
11 1  8.951018931506e-05   3.261812865858e-05  -2.711225806620e-04 
12 1  1.057352130935e-04   2.252678624843e-04   1.565228739573e-04 
12
 Atoms. Timestep: 7000
1 1  3.403880363906e-04  -1.357243010155e-04   1.107778551394e-04 
2 1 -2.475607561214e-04   3.422446064818e-04  -7.868609264400e-05 
3 1  1.086449280630e-04   3.165001951741e-04   2.311936759039e-04 
4 1 -2.960893528605e-04  -1.214132969699e-04  -3.533974067474e-04 
5 1  2.935623707402e-04  -1.561940019205e-04  -1.816364507231e-05 
6 1 -4.007841397367e-05  -1.292932942863e-04  -9.512903118979e-05 
7 1  2.232625032314e-04  -9.716140153186e-06   3.807822467873e-04 
8 1  3.891433641196e-04  -1.046795898157e-05  -4.500640278141e-04 
9 1 -7.714387772806e-05  -9.881030562920e-05   1.032706606181e-04 
10 1 -1.399545216164e-04  -6.961649929818e-05   2.557922621827e-06 
11 1 -2.349322616769e-04   3.185023093642e-04  -1.079594473866e-04 
12 1  2.943410247287e-04   2.561681068368e-04   1.321409277802e-04 
12
 Atoms. Timestep: 8000
1 1  2.763681569026e-04   1.853873973911e-04  -2.406780599874e-04 
2 1  3.322522635652e-05   1.059080698992e-04   3.053362658408e-04 
3 1 -2.905453392899e-04   3.803464138995e-04   2.996643549587e-05 
4 1 -4.042163339661e-05  -2.844611332482e-05  -2.061079191018e-04 
5 1  2.351575948775e-04   2.993322978914e-04   1.245603617953e-04 
6 1  9.249259593368e-06  -1.051664917562e-04  -3.903146758927e-04 
7 1 -1.544498460894e-04  -4.218463998830e-04  -1.681970095993e-05 
8 1 -5.416220973522e-05  -3.445254092980e-04  -8.593600307221e-05 
9 1  1.372312401010e-04  -9.111852812616e-05  -1.870230694032e-05 
10 1 -1.102291365802e-04   1.172571078212e-04   2.458236935082e-04 
11 1  3.914744785616e-04  -1.039370395810e-04  -4.787560306553e-05 
12 1 -1.931658448495e-04  -4.060416653159e-04   7.295843790236e-05 
12
 Atoms. Timestep: 9000
1 1  4.951362206846e-05  -2.053991114203e-04   1.488303611373e-04 
2 1  3.288802901666e-04  -4.445059770391e-04   2.826420994844e-05 
3 1  1.116118826008e-04  -7.274949261820e-06  -1.423125796809e-04 
4 1 -5.502872493421e-05  -2.138830210591e-04  -5.360298461118e-04 
5 1  3.639666169836e-04  -7.869274963468e-06  -6.397019216666e-04 
6 1 -1.021276377075e-05  -3.094257054611e-04   2.224038829281e-04 
7 1 -2.787401919037e-04   2.914233623413e-04   4.496315612323e-04 
8 1 -1.644536846002e-04  -1.792612830930e-04   1.788823327845e-04 
9 1  5.445029197177e-04  -9.335969694252e-05  -1.282856143632e-04 
10 1 -2.031723293550e-04  -3.165676272299e-05  -2.942042309346e-04 
11 1  4.932935287394e-05  -2.357815454944e-04   7.072026214443e-05 
12 1  2.323669276041e-04   5.808082466453e-04   1.884559882360e-04 
12
 Atoms. Timestep: 10000
1 1 -7.851487919993e-05   2.213698259904e-04   2.146253237235e-04 
2 1  3.124488937485e-04   1.437664290536e-05  -4.053430882815e-05 
3 1  4.312854249804e-05  -1.058477028248e-04  -2.331872027137e-04 
4 1 -1.297204559154e-04  -5.678268356822e-04   2.362553890090e-04 
5 1  1.201117819603e-04  -6.471829346327e-06  -1.433039909991e-04 
6 1 -2.492626739707e-04   2.592768474695e-04   3.853357000141e-04 
7 1 -2.832877212664e-05  -5.935058360128e-05   7.564093529884e-04 
8 1 -1.706893965226e-04  -3.416149630738e-05  -1.704897932382e-04 
9 1  1.303755706234e-04   2.644054817015e-04   3.809546053118e-04 
10 1  2.323993476002e-05  -2.265229626538e-04   1.487594063479e-04 
11 1 -3.421819365249e-04  -8.530908985886e-06  -1.427404283421e-04 
12 1 -4.345537293368e-04  -4.507680311693e-04  -3.170221682871e-04 
12
 Atoms. Timestep: 11000
1 1  1.256491281791e-04  -6.111250986921e-04   2.460255712342e-04 
2 1 -3.258713125593e-04  -1.546594204974e-04  -1.882449446789e-04 
3 1  1.870282039903e-04  -2.530449448325e-04   4.962515349296e-04 
4 1 -2.288682432835e-04  -2.628570512535e-04  -3.321559979125e-04 
5 1 -7.262578160135e-05   3.843013380993e-04   1.492853361612e-04 
6 1 -1.192565473903e-04  -3.977777258983e-05   2.068409238873e-05 
7 1  3.971723152999e-06   2.313611239784e-04   2.083106846455e-04 
8 1 -4.619439123673e-05   2.544783491081e-04  -4.481788952785e-05 
9 1 -2.041046255640e-04  -5.393690182660e-06   2.842968446770e-04 
10 1  1.578467370777e-04   4.475634938711e-04   1.403996705908e-04 
11 1  1.584557474427e-04  -5.097451565785e-04  -1.325011752194e-04 
12 1  5.813553325174e-04  -5.504847645073e-05  -1.037793007990e-04 
12
 Atoms. Timestep: 12000
1 1  3.779934716334e-04   7.113480613434e-05  -1.670606040193e-04 
2 1 -2.544992248407e-04   7.801745518441e-05   9.750304340229e-05 
3 1 -1.879293502210e-04  -1.612846117745e-04   3.395554310230e-04 
4 1  1.460462375417e-05   4.684880496534e-04   3.742622144980e-04 
5 1  3.070239046435e-04   7.509359085171e-05  -3.306300510963e-04 
6 1 -1.363536076079e-04  -3.707588558617e-04  -2.093620031639e-04 
7 1  2.663011438845e-04   1.535026450231e-05   1.583822555824e-04 
8 1  3.477426189411e-04   1.685533484760e-06   6.440347813286e-04 
9 1  5.230453269480e-05  -5.129538269991e-04   1.406725730201e-04 
10 1  2.995851171650e-04   8.150736762162e-05  -6.224986228343e-05 
11 1  6.086905808963e-06   1.430515694628e-05  -2.901523768322e-05 
12 1  3.284682280294e-04  -3.504341570437e-05  -4.790374558295e-04 
12
 Atoms. Timestep: 13000
1 1 -3.243282175883e-04  -3.453207390390e-05  -1.864570037321e-04 
2 1  5.542642025238e-05  -5.381920814338e-04  -3.257040894202e-04 
3 1  7.999857921185e-04  -2.729223418320e-04  -1.276587664353e-04 
4 1  6.169396731802e-05  -3.391027527005e-05   3.328369770504e-04 
5 1  2.686953824636e-04  -1.546640129112e-04  -3.510893383721e-04 
6 1 -3.901916287755e-04  -4.006139571408e-05  -3.020528229779e-04 
7 1 -3.756653279624e-05  -1.345356872091e-04   1.173744411553e-04 
8 1  1.633043288974e-04  -4.464750674135e-05   1.205327316957e-04 
9 1 -4.530084058584e-06  -1.926951406375e-04  -4.042639845275e-04 
10 1  1.383894872003e-04  -4.170877895495e-04   1.957439607935e-05 
11 1  1.378729127278e-04  -2.827064413317e-04  -2.160629139888e-04 
12 1  4.746860937460e-05  -6.320545669144e-04  -1.732152739979e-04 
12
 Atoms. Timestep: 14000
1 1 -1.977726188990e-04   2.026966624350e-04  -1.181139970320e-05 
2 1  1.077808496590e-04  -3.467342141126e-04  -3.181838717153e-04 
3 1  1.723010205819e-04   2.220321153841e-05  -6.455198179364e-04 
4 1  2.386488843495e-04  -1.010183643753e-04  -6.314807315628e-05 
5 1 -4.586213167826e-04  -4.674053974684e-04   1.943760870378e-04 
6 1 -1.607286113467e-04   9.554932132689e-05   1.650695062688e-04 
7 1 -2.587400002005e-04  -1.547855532853e-04  -8.910963751198e-06 
8 1 -5.132275398893e-04  -1.253577746225e-04   1.880612560052e-04 
9 1  9.780101901845e-05  -1.597678503872e-05   1.266375334063e-04 
10 1  3.091765373684e-04   1.327211977994e-04   1.809784565020e-04 
11 1 -1.208598509516e-04  -2.873137362857e-04  -3.383799805123e-04 
12 1  2.701910984253e-04  -4.271650170300e-04   4.922150444372e-06 
12
 Atoms. Timestep: 15000
1 1 -1.098819713076e-04  -2.027864063464e-04  -2.016756375803e-04 
2 1  4.661440761216e-04  -3.135637061368e-04  -1.509373195829e-04 
3 1  1.835157381400e-04   4.815611040749e-04  -2.637280380122e-04 
4 1 -3.655096770319e-05  -3.992388391062e-05   2.089412698407e-04 
5 1  3.852441991780e-05   7.034774146629e-05  -2.486634804838e-04 
6 1 -3.861164713582e-04  -2.941094624050e-04   3.587863045952e-05 
7 1  5.943944030079e-05  -4.927053361950e-04  -3.491356871547e-04 
8 1  1.049492582241e-04   9.122971682879e-05  -3.151965853621e-04 
9 1 -4.287645748978e-06   3.536363452438e-05  -3.217684326245e-04 
10 1 -1.323419426530e-04  -3.714919375799e-05  -3.038449880487e-04 
11 1 -5.460548230406e-04  -4.425302654709e-05   3.643333393184e-04 
12 1 -1.306492579947e-04   2.959128027667e-04   2.652083739439e-05 
12
 Atoms. Timestep: 16000
1 1 -1.375662948724e-04   1.120501682224e-04   5.758617966625e-05 
2 1 -1.241896836222e-04  -1.151196771748e-04   5.011508186739e-05 
3 1  4.947521529837e-05  -3.220063987291e-05  -3.724843618652e-05 
4 1 -7.407980780778e-05  -4.703799580254e-05  -1.391736622918e-04 
5 1 -3.370843027509e-04   3.066102327703e-04   1.299332588395e-04 
6 1 -2.762636369534e-04  -3.294175149561e-04   1.918273620468e-05 
7 1 -2.733082229301e-04   6.643739683867e-05   4.018759349613e-04 
8 1 -3.149637178245e-04   3.039523017878e-04   2.654548081496e-04 
9 1 -1.462500629970e-04  -1.598285500501e-04  -1.735689795212e-04 
10 1 -1.402554569017e-04  -2.312635132418e-04  -3.318025443716e-04 
11 1 -1.061783176788e-04   2.029208732006e-04   2.090302815131e-04 
12 1 -4.847162743940e-04  -6.746169924418e-04  -5.940098088562e-07 
12
 Atoms. Timestep: 17000
1 1  5.812329832124e-05   2.113559000093e-04  -1.910398318621e-04 
2 1 -6.695648693894e-05  -2.200697596087e-04   3.013078791637e-04 
3 1 -1.012085347195e-04   4.207702713457e-04  -1.297037407259e-04 
4 1  3.655575597134e-04  -1.307808420214e-04   9.265173095835e-05 
5 1  3.305863757710e-05  -1.453811475037e-04   5.661195807450e-05 
6 1  9.774272642771e-05  -3.686715095904e-04  -6.390896294449e-05 
7 1 -7.094560404392e-05  -1.298752736966e-04   6.661421639313e-05 
8 1  3.430390947538e-04  -7.647708566672e-05   1.393552509406e-04 
9 1  3.824536261761e-04  -9.832975834537e-05   5.558552288888e-06 
10 1  9.309030017663e-05  -1.711413323604e-04  -3.521179835749e-05 
11 1 -6.142420204514e-05  -2.252539384008e-04  -2.552484927917e-04 
12 1 -2.610277848354e-04  -2.759296085923e-04  -3.016498304349e-04 
12
 Atoms. Timestep: 18000
1 1  5.625290517541e-05  -2.463932470217e-04   3.651308056385e-04 
2 1  3.557959884625e-04   3.903463015206e-05  -8.390975109323e-05 
3 1 -4.049670266539e-04  -2.536560135083e-04  -1.520541692684e-04 
4 1  1.347261214599e-04  -1.321900545420e-04   1.904156940096e-04 
5 1 -2.186186636436e-04  -8.639695016770e-05   7.263121089238e-05 
6 1 -1.094000220099e-04  -2.623318625763e-05  -5.546042223800e-05 
7 1  3.809338481162e-04   1.437955952962e-04  -8.283478701026e-05 
8 1 -2.113328332216e-04  -2.777776586664e-04  -2.444417048098e-04 
9 1 -1.015119125252e-04  -2.386760035209e-04   1.014665466833e-04 
10 1 -4.049175348843e-05   3.675376358050e-05  -5.168234343753e-05 
11 1 -2.587875268588e-04   7.243612660688e-05  -8.670115591992e-05 
12 1 -3.532048330716e-04   4.182816525486e-04   7.040368570689e-06 
12
 Atoms. Timestep: 19000
1 1  4.466482374849e-05   1.416767003968e-04  -6.652266298062e-05 
2 1  2.480749852796e-04  -1.009069246947e-05   2.790726798238e-04 
3 1  1.672588817904e-04   2.396864951497e-04  -1.833317447454e-04 
4 1 -1.530184308282e-04  -1.133308316535e-04   6.425398276107e-05 
5 1 -3.604704254465e-04  -2.823468527738e-04   8.562041251303e-05 
6 1  1.442189956434e-04  -2.547506678623e-04   4.282720442343e-04 
7 1  1.078399839496e-04   5.334537120644e-04  -4.583257493799e-04 
8 1  2.331160641030e-05  -1.861543200745e-04   5.512086431961e-04 
9 1 -9.086307986865e-05   2.397219387925e-04  -1.174528063852e-05 
10 1  1.007673550825e-04   1.931049270187e-04  -8.960514521706e-05 
11 1 -1.198118926221e-04   4.890510100785e-06  -4.034106700106e-04 
12 1  1.102767182859e-04   2.355920961977e-04   2.272295141093e-04 
12
 Atoms. Timestep: 20000
1 1  6.331868441250e-05  -2.428408409676e-04  -1.374153496583e-04 
2 1 -2.965807801040e-05   9.838675777912e-05  -4.777147982447e-04 
3 1 -1.890062276920e-04  -4.191372417517e-04  -3.938384509301e-04 
4 1 -1.136131477828e-04  -2.244967006042e-05  -3.170478470562e-05 
5 1 -2.405963164138e-04   1.444557646156e-04   1.206901447946e-04 
6 1  7.267980960968e-06  -4.990118707508e-04   9.081831092285e-05 
7 1  7.281165966655e-05  -2.239194020404e-04  -2.702537792939e-04 
8 1  9.602255008793e-05  -3.534494605198e-04   2.114738600819e-04 
9 1 -2.980303941504e-04   2.111092505790e-04  -3.986779628900e-04 
10 1 -2.324815139635e-04   2.799707682029e-04  -7.035166479190e-06 
11 1 -1.592539448291e-04   1.697665004873e-04  -3.682228683955e-04 
12 1 -3.457528322498e-04   4.029874609392e-04   2.440790884451e-04 
12
 Atoms. Timestep: 21000
1 1 -1.419317942710e-04  -4.094229026318e-04  -2.777298125089e-04 
2 1 -2.839985665721e-04   1.945564674912e-04   2.869753017248e-04 
3 1 -1.837488474996e-04  -3.569528822101e-04   2.405498399060e-04 
4 1  5.612819557864e-05  -9.890816912310e-05  -3.903461522214e-04 
5 1  2.931505695742e-04  -1.619941241873e-04   5.178170474786e-05 
6 1  1.238123754301e-04   1.522559123647e-04   8.046953027896e-05 
7 1  4.445420737545e-05  -4.769572727982e-04   3.054706029146e-04 
8 1  2.211092741062e-04   3.561675110644e-04  -1.940772190780e-04 
9 1 -2.367095528658e-06   3.922232177456e-04   8.128843739366e-05 
10 1  2.986809962958e-05   2.536959705638e-04  -1.649547058701e-04 
11 1 -4.629088003826e-04   3.937629438030e-04  -3.722825787114e-06 
12 1  4.942248332053e-04  -1.791022938771e-04   1.170494136674e-04 
12
 Atoms. Timestep: 22000
1 1 -2.874784069624e-04  -2.631873882003e-04  -1.288589214517e-04 
2 1  6.498755497410e-05   5.652245934963e-04  -1.718703322163e-04 
3 1 -6.667656394609e-05  -6.769736044000e-04   1.275850540722e-04 
4 1 -2.681837911815e-04   2.086254010544e-04  -3.027581422247e-04 
5 1  3.329343850396e-04   1.049315834964e-04   4.573528593016e-05 
6 1 -3.760829172497e-04   3.315101715642e-04   3.889258317389e-05 
7 1  2.328719465345e-04  -3.582372693042e-04  -2.330463822570e-05 
8 1 -6.469762316763e-04  -1.694408239351e-04  -3.991689348105e-04 
9 1  3.278726962611e-05  -1.827643304669e-04  -9.226891966636e-05 
10 1 -1.503546597918e-04  -1.499196920083e-04  -8.099029313415e-05 
11 1 -2.279400201569e-04  -7.694234839896e-04  -3.657606275102e-04 
12 1  1.423676266216e-05   3.863586163611e-04  -5.697072640830e-05 
12
 Atoms. Timestep: 23000
1 1  1.743368609683e-04   7.240151895514e-04   3.953690253864e-04 
2 1 -9.623739791425e-05   1.631939946644e-04   5.809749924097e-05 
3 1 -1.033322269866e-04   4.412948420052e-05   5.013660858153e-05 
4 1  1.119202226908e-04  -2.202040573415e-04   9.266570087389e-06 
5 1 -2.301285165229e-04   8.851561797757e-04  -1.414123925026e-04 
6 1  2.274821047024e-04   1.304605989333e-04  -1.550328240147e-04 
7 1  8.001737713950e-05   8.374294416906e-05  -2.719613338462e-04 
8 1 -1.693617915770e-04  -3.020340000694e-04   2.733016099314e-04 
9 1  2.540475048919e-04   2.685546544307e-04   1.761779859138e-05 
10 1 -1.164836693506e-04  -4.001537667914e-04  -2.459380495692e-04 
11 1 -1.999773329582e-04   1.091431702900e-04  -1.977899265434e-04 
12 1  8.685533636745e-05  -5.110214325394e-05   1.479771243788e-06 
12
 Atoms. Timestep: 24000
1 1 -2.387324075540e-04   3.185015065291e-04   1.761314065155e-04 
2 1  8.356246957913e-05   1.087555115108e-05  -3.751827939903e-05 
3 1  4.345976882757e-04  -1.024096109330e-04   6.392148755084e-05 
4 1 -8.484378471510e-05  -1.170016544971e-04  -2.622270229796e-04 
5 1 -3.200181988970e-04  -2.258049710044e-05   7.929783686657e-05 
6 1  2.356608269311e-04   4.760778783029e-05   2.778581144346e-04 
7 1  7.171266645639e-05   2.332300075483e-04  -9.120298455216e-05 
8 1  1.005135486179e-05   1.762721338643e-04  -5.476052168979e-05 
9 1 -1.008622161965e-05  -2.951320761523e-04  -4.429981714911e-04 
10 1 -2.610715434469e-04   3.399894403166e-04   5.596229907663e-05 
11 1  5.306538002504e-04   1.618578215603e-04   1.175976672938e-04 
12 1  1.449806659511e-04  -2.982774663033e-04  -7.239345229419e-05 
12
 Atoms. Timestep: 25000
1 1  4.607668972633e-04   1.677376291677e-04  -2.554715250276e-04 
2 1 -1.058255256714e-04   2.950502639493e-04  -2.740458144849e-04 
3 1  2.252609363053e-04  -2.312827083820e-04   3.541276051830e-06 
4 1  5.893439175015e-04  -9.516943866325e-05   5.366823294617e-04 
5 1  2.239094483231e-05  -4.670903567054e-05   1.284399629568e-04 
6 1  1.260992744573e-05  -1.774081329312e-04  -2.509970064877e-04 
7 1  7.745274613705e-05  -5.319552622144e-04  -2.668686013857e-05 
8 1  3.584648328160e-04   1.190758996865e-04   2.555179337412e-04 
9 1  2.414299533650e-04  -3.079961757894e-04   1.903294071968e-04 
10 1 -1.757793453952e-04  -1.885287114383e-04   1.358732248521e-04 
11 1 -2.818353617078e-04  -6.512379120692e-04  -1.160584395587e-04 
12 1  1.494566097313e-04   8.864327329849e-05   1.201603875023e-05 
12
 Atoms. Timestep: 26000
1 1 -2.511683288712e-04   2.597954851908e-05  -1.107170160901e-05 
2 1  2.411534456434e-04   4.888238498735e-04   2.141929801391e-04 
3 1 -2.247893435198e-04   1.193481458189e-05  -1.933116402588e-04 
4 1 -2.170712609461e-04   5.729389404770e-04   2.397560802464e-05 
5 1 -8.064184476511e-05   3.192910879115e-04  -2.507914838548e-04 
6 1 -3.162278433178e-05  -1.897166761700e-04  -2.433932129234e-04 
7 1  4.788119316347e-05   1.879759034177e-04   2.578305377122e-04 
8 1 -2.087894342826e-04  -3.411003732698e-04  -1.984507945727e-04 
9 1  2.737892347152e-04   1.305854304361e-04   2.494463990917e-04 
10 1 -3.975915502940e-05   3.007858526962e-04  -3.687241657648e-04 
11 1  9.127663578452e-06  -7.923849606926e-05  -4.175542740805e-06 
12 1 -6.041679590660e-04   1.182212097680e-04  -4.948035347125e-04 
12
 Atoms. Timestep: 27000
1 1 -8.403902334276e-05   2.001520390003e-05  -4.734789689240e-04 
2 1 -8.184307611765e-05  -2.146069763185e-04   2.470822796077e-04 
3 1 -2.385456749836e-04   2.390800577181e-04   1.404159070541e-04 
4 1  2.766387948885e-05   7.100875638024e-05   2.501936002423e-04 
5 1 -1.662381126298e-04   1.898442863229e-04   1.931394448259e-04 
6 1  1.635497936376e-05   1.765687434850e-05   2.858664035532e-05 
7 1  2.449615693141e-05  -1.242996076075e-04   4.259761094794e-04 
8 1  9.967781522358e-05   5.064267496190e-05   1.251726227788e-05 
9 1  1.030460019741e-04  -5.251745600824e-04   3.963051866660e-04 
10 1  1.068665639870e-04  -1.981800063956e-04   1.574651805966e-04 
11 1 -5.362309475586e-04   1.504706528463e-05  -3.335690129069e-04 
12 1  4.217761859024e-04  -4.201035059098e-04   4.536267054027e-04 
12
 Atoms. Timestep: 28000
1 1 -3.053606644398e-04  -2.171643637700e-04  -2.454509976294e-04 
2 1  5.015464569266e-05  -2.025441208901e-05   2.941202951082e-04 
3 1  2.830844396165e-04  -1.711308328746e-04   3.182749102227e-05 
4 1  4.115215751017e-05  -1.566395539311e-04  -2.287824925344e-04 
5 1 -1.604324669943e-04   4.973236956116e-05   8.889528226350e-06 
6 1 -2.317908955397e-05   5.826221845343e-04  -1.308887991264e-04 
7 1 -4.951095651794e-04  -2.028730821660e-04  -3.012539323966e-05 
8 1  2.772351000218e-04  -3.879445984750e-04  -4.225914695166e-05 
9 1  3.674418395027e-04   4.296768528248e-05  -4.668993061220e-04 
10 1  1.218900257093e-04  -3.626911316772e-07   2.091309105981e-04 
11 1  4.642718844558e-04   4.971723191791e-04   2.473524909686e-04 
12 1  9.645894094138e-05   2.274071815932e-04   1.627424717847e-04 
12
 Atoms. Timestep: 29000
1 1 -1.472857277516e-04  -2.366813271646e-04   3.788714570744e-04 
2 1 -1.314581316246e-04  -7.122945589857e-04  -3.203341906064e-04 
3 1 -2.896547287186e-05  -8.481668054788e-05  -1.043446147361e-04 
4 1 -3.379159310178e-04  -3.487354822643e-04  -1.257730396615e-04 
5 1  3.266260414752e-04  -9.778237623738e-05   3.235896794656e-05 
6 1  1.281088192940e-04   3.072712668438e-04   9.651953519465e-05 
7 1  2.195680715951e-05  -3.960316146267e-04   3.916950363925e-05 
8 1  1.925140884208e-04   2.130897725983e-04   2.502904086565e-05 
9 1 -5.900609073261e-04  -4.099331714054e-04  -3.339333861357e-05 
10 1  1.614179814482e-04  -3.808470103182e-04  -3.589476973541e-05 
11 1 -3.743893569759e-05   4.668915562201e-04   2.851376497421e-04 
12 1  5.294028872895e-06   2.831969019572e-04  -3.302278183705e-04 
12
 Atoms. Timestep: 30000
1 1  2.686731177505e-04   3.997733919874e-05   1.790637481818e-05 
2 1  2.131171380263e-04  -3.356825094828e-04  -3.532810798924e-04 
3 1  2.537891761095e-04  -2.403802653350e-04   9.383243739231e-05 
4 1 -4.242369001097e-05  -2.093909095003e-04   7.554826618297e-05 
5 1 -1.493434908205e-04  -2.081919803900e-04  -3.876191201460e-05 
6 1  5.447852990254e-05  -7.802162323114e-05   5.900856560932e-04 
7 1  2.761906739274e-05  -6.989221838039e-04  -2.032233300125e-04 
8 1 -1.933200104174e-04  -3.727595072712e-05  -5.204016232873e-05 
9 1 -2.096818868420e-05  -1.404287865407e-04   5.108906386395e-04 
10 1  4.271356123635e-04   1.448127706634e-04  -3.821689545817e-04 
11 1 -2.442767080968e-04   1.267111477222e-04  -9.252179636003e-06 
12 1  1.129634880216e-04  -3.051781776873e-04   1.347348002736e-04 
12
 Atoms. Timestep: 31000
1 1  1.524838852637e-04  -3.248270124149e-04  -1.097107653423e-05 
2 1 -2.945074894831e-04   2.118430131035e-04  -2.470132922145e-04 
3 1  5.816575801415e-05  -4.454114327251e-04   4.317870860148e-04 
4 1  3.772353709542e-04  -1.501753832857e-04   2.657574171666e-04 
5 1  3.511214126241e-04   1.066893833271e-04  -2.780238616174e-04 
6 1 -4.166977173228e-04  -3.819139197331e-05  -9.536724234440e-05 
7 1  3.790272900514e-04   2.683563498863e-04  -2.636274585119e-04 
8 1  5.420042274501e-04   7.978130614029e-05   3.225451512718e-04 
9 1 -3.861493429513e-04   1.293077197678e-04   1.209595778100e-04 
10 1 -1.180152814206e-04  -1.693511766234e-04  -2.297067995441e-04 
11 1 -6.063914961872e-05  -4.338113285015e-04  -6.373928165405e-05 
12 1  3.252009523772e-05  -2.442456981360e-04   1.036331839277e-04 
12
 Atoms. Timestep: 32000
1 1  2.901805396041e-04   2.842547994993e-04  -5.017062599286e-05 
2 1  1.481096039987e-06   4.422720150068e-04  -2.781510663751e-05 
3 1  1.700165948407e-04  -5.181519319620e-04   8.917964918929e-05 
4 1  8.844224273224e-05   1.682201409511e-04   1.105944875365e-05 
5 1 -4.619150260521e-04  -1.420268149491e-05   1.810210878995e-04 
6 1 -2.327957408460e-04   7.314859064742e-05  -3.592557913516e-04 
7 1 -2.554807743723e-04  -1.801618436784e-04   6.015821187838e-05 
8 1 -1.278811975602e-04   3.625148874340e-05   2.137362304978e-04 
9 1 -2.228700366153e-04  -1.269575811651e-04  -1.749638434973e-06 
10 1 -1.547828699472e-04   8.052075577989e-05  -6.911938634058e-04 
11 1  2.214169933760e-04   1.475127696289e-05  -1.139127525895e-04 
12 1 -1.568300238881e-04   2.026459878771e-04   2.373444364216e-04 
12
 Atoms. Timestep: 33000
1 1 -6.942572250571e-05   1.558324936440e-04  -1.411804773837e-04 
2 1 -1.393009749744e-04   1.485076237777e-04   1.668110565180e-04 
3 1 -3.198944481787e-04   4.189869192861e-05   1.012083421221e-04 
4 1 -1.076515565461e-04   2.162690983215e-04   1.875735170215e-04 
5 1  2.073714090276e-04   1.169425060106e-05  -9.122902813858e-05 
6 1 -6.565767458746e-04  -2.202077040448e-04   5.021651138522e-04 
7 1 -2.204909920662e-04   1.044487224478e-04  -3.367039664237e-04 
8 1  4.246979753168e-04  -6.083776441734e-05   2.446795565163e-04 
9 1 -3.039185229622e-04   3.333673563313e-04  -1.250030465764e-04 
10 1  7.098760913414e-05  -7.786440031696e-06   1.118532903186e-04 
11 1  1.633819336938e-04   2.867833570697e-04  -3.787755382351e-04 
12 1  3.657654306361e-04   4.468897117492e-04  -1.029405013886e-04 
12
 Atoms. Timestep: 34000
1 1 -8.333862973092e-05   1.073255376190e-04   3.853115845769e-05 
2 1 -4.040614598549e-04   1.133163170347e-04  -5.277362472569e-05 
3 1 -2.427939465357e-04  -6.695586255917e-05  -1.770093781828e-04 
4 1  2.321930209320e-04   1.355528832463e-04  -5.090312740799e-04 
5 1  1.237981955154e-04  -5.344744841262e-05  -7.852028529275e-05 
6 1 -2.780773182164e-04   1.115091089192e-04  -1.764944553478e-04 
7 1 -1.430092549871e-04  -1.422176665299e-04  -3.381861097158e-04 
8 1 -2.628067117882e-04  -2.383228253267e-04  -5.761822328212e-05 
9 1  4.454799751534e-04   3.932482943677e-04  -6.753300456591e-04 
10 1  2.017446822331e-04   3.620798357404e-04  -3.606032574200e-04 
11 1 -3.406817428849e-04  -2.101615409549e-04   6.410639282709e-04 
12 1  1.077684589544e-04   3.508892312965e-04   1.865544754315e-04 
12
 Atoms. Timestep: 35000
1 1  8.239312682214e-05  -2.420158044600e-05   3.127491047686e-05 
2 1 -1.901372658024e-04   8.738014704905e-04  -2.079470951691e-04 
3 1  4.674539464618e-04   9.766942565430e-05  -7.086779634543e-04 
4 1  2.841805922236e-04   3.818704285055e-05  -1.734827381614e-04 
5 1  2.217836249577e-04   9.804192417499e-05   1.199941223284e-04 
6 1  3.137686902265e-05   3.188419084799e-05  -1.853657814618e-04 
7 1 -6.220217379514e-05  -9.268822564548e-05   2.266029897355e-04 
8 1  1.432117664157e-04   3.605743927607e-04   1.563769938595e-04 
9 1 -3.741943526993e-04   3.442199980853e-04  -4.240423088244e-05 
10 1 -1.536185016575e-04   5.305958473310e-04  -1.109213855522e-04 
11 1 -3.768838711691e-04   2.021439759196e-04  -8.912353538255e-05 