12
 Atoms. Timestep: 0
1 1  0.000000000000e+00   0.000000000000e+00   0.000000000000e+00 
2 1  0.000000000000e+00   0.000000000000e+00   0.000000000000e+00 
3 1  0.000000000000e+00   0.000000000000e+00   0.000000000000e+00 
4 1  0.000000000000e+00   0.000000000000e+00   0.000000000000e+00 
5 1  0.000000000000e+00   0.000000000000e+00   0.000000000000e+00 
6 1  0.000000000000e+00   0.000000000000e+00   0.000000000000e+00 
7 1  0.000000000000e+00   0.000000000000e+00   0.000000000000e+00 
8 1  0.000000000000e+00   0.000000000000e+00   0.000000000000e+00 
9 1  0.000000000000e+00   0.000000000000e+00   0.000000000000e+00 
10 1  0.000000000000e+00   0.000000000000e+00   0.000000000000e+00 
11 1  0.000000000000e+00   0.000000000000e+00   0.000000000000e+00 
12 1  0.000000000000e+00   0.000000000000e+00   0.000000000000e+00 
12
 Atoms. Timestep: 1000
1 1 -1.569315098327e-04  -4.599870160765e-05   1.830006922294e-04 
2 1 -1.028510817710e-04   2.609007783141e-04   2.754203204937e-04 
3 1 -1.374684670466e-04  -3.184828896877e-04  -1.502405112367e-04 
4 1  1.170968372718e-04  -4.000269649050e-04  -1.147608514019e-04 
5 1 -2.344028071578e-04   5.030463017588e-04  -4.023270511007e-04 
6 1 -1.930601282715e-04   2.173250104762e-04  -3.509343828809e-04 
7 1  2.124384716904e-05   2.013218506682e-04   8.407128575639e-05 
8 1  2.858246226360e-04  -4.042913679505e-04  -2.942280486472e-04 
9 1 -1.173999665361e-04   8.576091543128e-05  -2.433275415244e-04 
10 1 -5.932473246289e-05   4.276197810525e-05   1.245447425393e-04 
11 1 -1.431973754329e-04  -9.362426229037e-05   2.104692940932e-04 
12 1  1.211427054267e-04  -3.938760564041e-04  -4.075412358479e-04 
12
 Atoms. Timestep: 2000
1 1 -4.749743640256e-04   7.236704167802e-05  -1.140450694070e-04 
2 1  4.718014286089e-04  -1.108404024316e-04   3.487617064780e-04 
3 1 -1.177423607357e-04  -1.978457479417e-04   2.451927839845e-05 
4 1 -1.402461139359e-04   4.183510021427e-04  -1.295932480077e-04 
5 1 -2.531987257815e-04  -1.294548587270e-04   1.447359311982e-05 
6 1  1.483745772545e-04  -6.641065400609e-05  -8.496962836849e-05 
7 1 -3.719205394321e-04  -8.566668047605e-04   3.370002906435e-04 
8 1 -1.022384336641e-04  -2.967273793577e-05   1.449669414746e-04 
9 1  1.997636405872e-04   1.285032768290e-04   2.574630891112e-04 
10 1 -6.639691917926e-05  -1.916119597345e-04  -2.158401670292e-04 
11 1  4.547377533463e-05   1.359329256958e-04   3.431753582661e-04 
12 1  2.923246275331e-04  -8.108441337920e-05   1.709556099649e-04 
12
 Atoms. Timestep: 3000
1 1  8.442217440774e-05  -9.368585804807e-05   1.772559597514e-04 
2 1 -5.346290071047e-04   7.040375581734e-05  -3.337715175141e-04 
3 1 -5.008357681532e-04   2.960049510869e-04   2.474510810957e-04 
4 1  1.597112811203e-04  -2.532489574280e-04  -6.240860024001e-05 
5 1  1.390155127960e-05  -2.222273207040e-04  -2.874456894760e-04 
6 1  1.459092157530e-05   3.069809668556e-04  -1.492315857539e-04 
7 1  1.427440242765e-04  -7.443335595596e-04   1.408901390547e-04 
8 1 -1.599960918994e-04  -9.390063237540e-05   4.139915584938e-05 
9 1  2.671478279788e-04  -3.702845666928e-05  -2.662855914876e-04 
10 1  1.626105262251e-07   8.026841046225e-05  -2.173205821256e-04 
11 1  1.804307874113e-04  -3.624948012465e-04  -1.041422489673e-04 
12 1  2.056287918782e-04   3.373773145228e-04   1.334235395027e-04 
12
 Atoms. Timestep: 4000
1 1  2.779957158059e-04   1.407944216053e-05  -7.433896123484e-05 
2 1 -7.566090608385e-05   2.374826151733e-04  -8.146197492218e-05 
3 1  2.512945407570e-04  -2.734978982587e-05  -4.945648613161e-04 
4 1 -4.623377871924e-04  -7.415590383542e-05   1.588741755081e-04 
5 1 -1.698128154989e-04   4.267295744593e-04  -1.262553258275e-04 
6 1  7.663285605840e-04   2.600475195471e-04   8.203957121230e-06 
7 1 -2.509633015079e-04  -4.371808970332e-04   1.574329177503e-04 
8 1 -2.588301853031e-04  -3.938543786038e-04  -3.217144096605e-04 
9 1 -5.157453702790e-04   1.476204873422e-04  -2.161634299734e-04 
10 1  1.224876214538e-04   1.217811957283e-04  -9.050223534113e-05 
11 1 -1.146117348600e-04   3.082202243000e-04  -1.270509275105e-04 
12 1 -6.110838820495e-05   2.480626558286e-04  -1.442413427154e-04 
12
 Atoms. Timestep: 5000
1 1  5.564489723611e-04  -2.788133212777e-04  -2.508924487284e-04 
2 1  4.172287043731e-04   2.891243024329e-04  -1.506709992003e-04 
3 1  1.550907955688e-04  -2.771800705932e-04   1.535153051220e-04 
4 1 -4.295391631502e-04  -5.023283660999e-05   2.421136267499e-04 
5 1 -4.903544266308e-05  -1.407734314513e-04   9.628003980047e-05 
6 1 -4.189335033119e-04  -2.664968296670e-05   6.044991784407e-05 
7 1  2.451370374430e-04  -1.488934572685e-04  -1.094875385110e-04 
8 1 -9.005416830558e-05   2.086921480914e-04   4.341132040597e-04 
9 1 -3.307357437488e-04   3.802289581594e-04   6.584947515215e-04 
10 1 -3.533827986215e-04   9.337152591086e-05   3.463800504020e-04 
11 1  5.160078923661e-04   1.776408292622e-04  -9.508188643302e-05 
12 1  7.046254053327e-06   1.633115485560e-04  -2.155383867973e-05 
12
 Atoms. Timestep: 6000
1 1  3.646197196452e-05  -7.131686778919e-05   2.399472901205e-04 
2 1  4.648018657080e-04   4.761565575793e-05  -2.910864950500e-04 
3 1 -1.849379479017e-04   2.987487313867e-05  -5.265544730591e-04 
4 1 -1.985840897956e-04   1.295404800272e-04   7.806229045111e-05 
5 1 -2.650142359950e-04   4.486531015661e-05  -8.598365782030e-05 
6 1 -1.835218028474e-04   1.838092434087e-04  -1.350086146429e-04 
7 1 -2.035955511380e-04   1.596948137322e-04  -3.176399793053e-04 
8 1  1.702242458987e-04   7.132960271914e-05  -3.786087816585e-05 
9 1  7.652926218085e-05  -9.347570479639e-05   5.132618880986e-04 
10 1 -4.902128486637e-04   2.640864015695e-05  -1.130197244789e-04 
11 1  3.566651172965e-04  -2.553196741390e-05  -3.085385143284e-04 
12 1  1.231552565861e-04   2.780136775293e-04   3.836268694824e-04 
12
 Atoms. Timestep: 7000
1 1  4.512325300272e-05   1.849181854709e-04   2.495070820113e-04 
2 1 -7.565948831917e-05  -2.894686559466e-05   1.026522515246e-04 
3 1  3.921560219824e-04  -2.127251583371e-04   4.690948058159e-04 
4 1  1.390574881062e-04  -2.563477505070e-04   2.425079177146e-04 
5 1 -3.955844955931e-05  -5.518817551439e-04  -3.115010500037e-04 
6 1  3.183502404790e-04   3.525275303172e-04   1.701036631705e-04 
7 1 -2.745542017276e-04   5.800199162635e-05   2.924759463526e-04 
8 1 -2.699164395472e-04  -1.834512739255e-04   1.737599966028e-04 
9 1 -2.892537845415e-04   2.942229743617e-04   4.737820385094e-05 
10 1 -2.602953733872e-04  -6.409317415209e-05   1.136912351611e-05 
11 1 -3.431116121717e-04   4.250650220830e-05  -1.113388598774e-04 
12 1  3.751329128354e-04   1.096625072308e-04  -2.482098218377e-04 
12
 Atoms. Timestep: 8000
1 1 -3.145798289451e-04   2.281143448531e-04  -5.597861452299e-04 
2 1 -9.867025740318e-05  -3.193743145121e-04  -1.443746359752e-04 
3 1 -3.737116185830e-04  -1.513931758916e-04  -1.307681134593e-04 
4 1 -3.109699321132e-04   9.592125518794e-06  -2.985552029663e-04 
5 1  1.672501584769e-05  -1.275243778816e-04   4.168426349119e-04 
6 1  1.814397900313e-04   3.129628821668e-04  -2.196800500238e-04 
7 1  2.085660896717e-04   2.268154574955e-04  -6.711650924801e-05 
8 1 -8.264153130858e-06   6.025057996515e-05  -1.478544137579e-05 
9 1 -2.408627201999e-04  -4.938650260530e-04  -2.959999630376e-04 
10 1 -1.935945723666e-04   6.507191363341e-05   6.036379550266e-05 
11 1  1.261575026242e-04  -1.287594906232e-04  -4.299450552857e-05 
12 1 -1.323116972101e-04  -3.003742742035e-04  -3.040727528120e-04 
12
 Atoms. Timestep: 9000
1 1 -7.443262153443e-05   3.075563977087e-04   1.682275243910e-04 
2 1  7.048401470597e-04   5.723539331622e-05  -1.722616014589e-04 
3 1 -1.724852337590e-04  -3.611323364299e-04   2.002623176882e-05 
4 1  2.748292253661e-04   1.003241502693e-04   3.039512168071e-04 
5 1 -9.634563607014e-05   3.032489716610e-05   3.823548888639e-04 
6 1  2.224954071325e-04   1.269284041832e-04  -2.703687022178e-04 
7 1  4.129947077949e-04   4.594681137382e-05   1.057722998599e-04 
8 1 -2.598791665407e-04   1.392257387856e-04   5.647228728876e-05 
9 1 -2.902949784515e-04   4.001383978379e-04   3.454619704082e-05 
10 1 -1.622869314420e-04   2.712668948313e-04  -2.966886294081e-04 
11 1  3.389130296340e-04   2.573097038406e-04  -7.564552026249e-05 
12 1 -1.733226844347e-05   2.187216308939e-04   2.332864313322e-04 
12
 Atoms. Timestep: 10000
1 1  4.032817734763e-04  -4.048710803396e-04   1.188236685104e-04 
2 1 -3.005382995941e-05  -1.310395971147e-04   2.629668272174e-04 
3 1 -7.656837903471e-05   9.000309584656e-05   5.822150999237e-05 
4 1 -2.238359667092e-04   1.781998962565e-04   6.347248162076e-05 
5 1  2.507571452054e-04   2.841244292148e-05   2.578704798549e-04 
6 1  3.682580869261e-04  -9.118592920773e-05  -7.967540976679e-05 
7 1  1.936971805585e-04   2.316764266482e-04   3.214754490575e-05 
8 1 -2.449635958099e-04  -3.314324837609e-05   9.497818005244e-05 
9 1 -2.234165493102e-04  -1.618105971215e-04   1.506988397637e-04 
10 1  9.118899102846e-05  -4.073923617396e-04   5.603129245662e-04 
11 1 -1.064575272617e-04  -8.418669656489e-06   2.233509508636e-05 
12 1  3.341011314824e-04  -8.843797578371e-07   2.683929312505e-04 
12
 Atoms. Timestep: 11000
1 1 -1.680729645294e-04   2.067415390571e-04   3.667625551377e-05 
2 1  4.303616561039e-06   4.103580606225e-04  -6.079854051504e-04 
3 1 -7.357070428913e-04   4.850572885848e-05  -8.716690563437e-05 
4 1 -4.096027410885e-04   4.056991141262e-04   7.439727116647e-05 
5 1  8.130068799959e-06  -1.463892770442e-05   2.331941016676e-04 
6 1 -2.283819244235e-04   1.011082509915e-04   2.115798912572e-04 
7 1  3.545983230930e-04  -4.187901067073e-05  -6.394694277767e-05 
8 1 -1.503497475006e-04  -1.866661861568e-04  -6.574339444275e-04 
9 1 -1.143920431656e-05  -1.114692969382e-04  -3.207956592889e-04 
10 1  3.545280676558e-04  -3.136778770103e-04  -6.235641678274e-05 
11 1 -1.580709079207e-04  -1.305385251761e-04   1.178601640010e-04 
12 1 -6.601114668148e-06   4.885468942636e-04  -8.293394897639e-05 
12
 Atoms. Timestep: 12000
1 1  1.535367194883e-04   2.864648872399e-04   2.384587762208e-04 
2 1 -3.816441133515e-04  -1.192187782287e-04   1.813551129942e-04 
3 1 -7.770585041837e-05   2.562736038725e-04  -6.048315622531e-05 
4 1 -7.951885985610e-05  -2.637224540235e-05  -1.592047225316e-04 
5 1 -3.970569486143e-04   4.698168866107e-05  -1.388535211805e-04 
6 1  2.629173837359e-04  -1.698025397856e-04   1.048953897304e-04 
7 1  1.461379642343e-05  -6.415111581826e-05   1.962312440347e-04 
8 1  1.554595722029e-05   3.239651366469e-05  -3.259927915424e-05 
9 1 -2.875587283696e-04  -2.835850747679e-04   1.775315396741e-04 
10 1 -1.910667249924e-04  -9.397531656787e-05  -1.497444170825e-04 
11 1 -1.425904892414e-04  -7.343074481612e-05   1.163203329696e-04 
12 1  1.943790683328e-04   3.646359812819e-04   2.302279428051e-04 
12
 Atoms. Timestep: 13000
1 1 -1.999376256404e-04  -3.002666854520e-04  -2.248399148248e-04 
2 1 -2.651006797365e-04   3.249623217267e-04  -2.155494391823e-04 
3 1 -4.705494618412e-04  -1.235478964249e-04  -2.636750157691e-04 
4 1  2.918736448391e-04  -1.293424362877e-04   3.080388013433e-04 
5 1  1.956339965718e-04   8.380358601820e-05   1.477687713530e-04 
6 1 -3.772413811008e-04  -8.256129359176e-05   2.471406856516e-04 
7 1  1.648187531738e-05  -1.596974680106e-04   4.317141526093e-05 
8 1  2.853217117847e-04   5.944448192105e-04  -3.164283942720e-04 
9 1  6.990512250991e-05  -3.507923944754e-04  -9.257891483352e-06 
10 1  3.226817734368e-04  -2.992622047974e-04   4.819467653300e-05 
11 1  1.144853023090e-04  -2.160815820372e-04  -1.393261541178e-04 
12 1  2.751752182248e-05   3.750728414333e-04  -5.098779344491e-05 
12
 Atoms. Timestep: 14000
1 1 -4.826256926209e-04   3.098649175573e-04  -4.278097607976e-05 
2 1 -1.565066647967e-04   3.597336899446e-04  -5.068848232816e-04 
3 1 -7.642134172376e-05  -1.734305447161e-04   3.691349305569e-04 
4 1 -3.114644708960e-05  -1.080663803071e-04   1.135063833147e-04 
5 1  2.422942045660e-04   2.494517199051e-04   7.251876835851e-05 
6 1 -1.129149980348e-04   4.295071054375e-04  -1.011665751283e-04 
7 1  1.281117621990e-05  -9.989918693682e-06   6.784666084971e-05 
8 1  2.156762155975e-04  -4.027435476439e-04  -3.106949368778e-04 
9 1 -2.984613634457e-04  -5.715064074808e-05   4.164388514984e-04 
10 1 -2.634561669137e-05   9.158845192452e-05   2.380340190730e-05 
11 1 -1.190496405609e-04  -7.621918358374e-05   1.232392344617e-04 
12 1 -8.556542994406e-05  -1.726669964797e-04  -2.053642073391e-04 
12
 Atoms. Timestep: 15000
1 1  1.640837507253e-04  -6.178262405387e-04  -2.346696876431e-04 
2 1  5.111592652973e-04   7.254821429607e-04   5.793678282146e-05 
3 1  1.359728280137e-04  -3.196326884743e-04  -1.932953517256e-04 
4 1 -3.657907200717e-05   5.756994374344e-04  -2.583314662102e-04 
5 1 -2.126694561594e-05   2.153908597176e-04  -5.019935665102e-05 
6 1  2.960240497858e-04  -2.045655919546e-04  -7.805698635380e-05 
7 1 -1.865365479973e-04   9.081883793382e-05   1.397205504162e-05 
8 1  5.716454324935e-05  -4.259625928472e-04  -2.473598756930e-05 
9 1  1.557314214304e-04  -1.322457231008e-04  -6.932134161584e-05 
10 1 -3.441558450998e-05  -1.104439246626e-04   6.863839146384e-05 
11 1 -1.534548620386e-04   2.754240696025e-05  -2.845723724810e-04 
12 1 -2.249042170258e-04  -4.264598533502e-04  -2.673392714401e-04 
12
 Atoms. Timestep: 16000
1 1  4.397234416182e-05   4.144620684194e-05  -3.212108953965e-04 
2 1 -3.339550828899e-04   4.485691529751e-05   1.664053185090e-04 
3 1  2.219246665431e-04  -1.723526702537e-05   2.943554081622e-04 
4 1  5.841658432546e-04   2.799726388447e-04  -3.140459310232e-04 
5 1 -3.273053390094e-04  -6.307983847070e-06   1.070492536929e-04 
6 1 -3.357619338297e-04   2.861396224027e-04   2.319617966771e-04 
7 1 -4.081080542938e-05   1.453187913797e-04  -4.538347087606e-04 
8 1 -7.151570448824e-05  -3.073701343658e-05   4.506360929269e-04 
9 1  3.864638268795e-04  -5.392153994853e-05   1.006296725215e-04 
10 1 -1.051260917876e-04  -1.153487547159e-04  -5.176997195415e-04 
11 1  9.939053555598e-06   3.535462327580e-04   5.012612372676e-04 
12 1  1.041524939656e-04   1.902488695226e-04  -5.916162850373e-05 
12
 Atoms. Timestep: 17000
1 1  2.865631189398e-05  -2.268987722945e-04   3.285695803843e-04 
2 1  4.143548618938e-05  -1.674733487210e-04   3.362753954491e-05 
3 1  1.169261783136e-04  -2.001970620505e-04  -2.670899079891e-04 
4 1 -1.414374798051e-04   1.223139106378e-04  -1.626137300464e-04 
5 1  2.165774272692e-04   2.303714264192e-05  -2.173107896797e-04 
6 1 -2.934014257013e-04   1.935471813506e-04   9.795042215218e-05 
7 1 -2.490381668156e-05   1.816867455893e-04  -2.012953599936e-05 
8 1  1.815528617757e-05  -3.315450631795e-04  -4.020143956682e-04 
9 1 -3.449831664135e-05   2.922985897046e-04   6.602863497657e-05 
10 1  1.304966788598e-04  -3.661168467139e-04  -1.501805363939e-04 
11 1 -6.302676309479e-05   1.033402743072e-04  -9.481990409991e-06 
12 1  3.169038270754e-04   3.966132703790e-05   2.596503819495e-04 
12
 Atoms. Timestep: 18000
1 1  3.501244771293e-04   1.169339454881e-04  -3.185313386887e-05 
2 1 -1.438071265686e-04  -4.138232280589e-04  -1.944949477275e-04 
3 1  1.981089752937e-05   4.421150455302e-04   2.188105333938e-04 
4 1 -2.545066920465e-05  -1.061569500759e-04  -4.040213696318e-04 
5 1  2.356637498021e-04  -2.407557853773e-04  -9.021940123182e-05 
6 1  3.593296551324e-05  -2.291572745730e-04  -3.080314603334e-04 
7 1 -2.267457943416e-04  -1.103205519516e-04  -1.783013368208e-04 
8 1 -1.593856117339e-04  -1.556560912257e-05   1.316819544437e-04 
9 1  3.811975868443e-04  -2.894766719229e-04  -4.372025032402e-04 
10 1 -2.318613303496e-04   3.434294921696e-04  -9.906141888211e-05 
11 1 -1.034166281763e-04  -3.309247871239e-04  -3.678927131910e-04 
12 1 -6.519832532865e-05  -6.709375522579e-04   2.914300080217e-04 
12
 Atoms. Timestep: 19000
1 1 -9.755119692068e-05  -2.605849801097e-04  -3.133139787359e-04 
2 1 -2.091829884974e-05   1.165614324175e-04  -6.088381646980e-07 
3 1 -1.123712450300e-04   6.718107823039e-05  -3.902569339251e-04 
4 1 -1.780450203846e-04  -4.551880411381e-05  -4.341219107815e-04 
5 1 -1.840314264668e-04  -2.077327859287e-04  -2.208591936908e-04 
6 1 -3.529520265786e-05   1.616842652337e-04   2.809656392340e-04 
7 1  6.310930725074e-04   4.460783019333e-04  -5.272342125081e-04 
8 1  6.599126898166e-04  -3.003423326527e-05  -8.382259751239e-05 
9 1 -2.840690538924e-04  -1.478988567202e-04  -4.668014996622e-04 
10 1  4.518713716022e-04   2.206677473987e-04  -4.179256024865e-04 
11 1  6.995483912287e-05  -2.071494082469e-04   8.956964274625e-04 
12 1  1.748901192011e-04  -2.896895122885e-04   1.805458964755e-05 
12
 Atoms. Timestep: 20000
1 1  3.585261536884e-04  -1.738054711443e-04  -1.747829384895e-04 
2 1  3.684035067563e-04   1.494139335473e-05   9.830852268404e-05 
3 1  2.023339534185e-04   9.422931314041e-05  -2.658526169258e-04 
4 1  1.019222177262e-04  -2.073740036091e-04   3.416292192282e-04 
5 1  1.804738203033e-04   2.376854727333e-04  -3.712891710407e-04 
6 1 -9.288441935143e-05  -4.088252327792e-04   4.156806976165e-05 
7 1 -4.560386557569e-05   5.911322911611e-05   3.544766230009e-05 
8 1  1.876244000023e-04  -2.355344370334e-04  -7.540459966747e-05 
9 1 -1.031521497045e-05  -7.458809660455e-05   8.740268859348e-06 
10 1  3.120172596540e-04   3.741484186046e-04  -1.445080779444e-04 
11 1 -4.249613548875e-05  -3.399230405029e-04  -9.161007710108e-05 
12 1  3.334050049672e-04  -6.143621201929e-04   2.753588361243e-04 
12
 Atoms. Timestep: 21000
1 1  3.869752363908e-04  -3.866418461361e-04   1.860108568611e-04 
2 1  3.168440345415e-04  -3.775860655943e-04   7.857433667982e-06 
3 1  1.232732389377e-04   4.774573442311e-05  -1.020565865768e-04 
4 1  3.986579436665e-04   4.346519734777e-04  -1.880450788970e-04 
5 1  2.253597758983e-04   9.333901744951e-05   4.539656285443e-04 
6 1 -8.399621588156e-05  -4.085242421806e-04  -2.043593263667e-04 
7 1  2.972939606978e-04   2.548147137338e-04   2.783035084274e-04 
8 1  1.229234993458e-04   1.380104751899e-05   1.432518842067e-04 
9 1  1.760066735991e-04   3.453646836683e-04   5.696744665690e-05 
10 1 -2.256590642132e-04   4.199899369267e-04   2.662570594596e-04 
11 1  1.509079776194e-04   1.696828204446e-04  -2.782207097036e-04 
12 1 -4.910856631887e-04   3.130113944513e-04  -1.225883774953e-04 
12
 Atoms. Timestep: 22000
1 1  1.117108315944e-04  -5.736794167936e-04   4.472495639062e-05 
2 1 -1.291841068195e-04   5.648702734769e-05  -1.474507052076e-04 
3 1 -3.154462547156e-04  -3.264636120823e-04   2.826746813669e-04 
4 1 -1.089200802815e-04   1.881464936847e-04  -6.473866276793e-05 
5 1  2.945030725035e-05   1.034345712515e-04   1.130322868600e-05 
6 1  4.345016162478e-05   2.496777541876e-05   2.222846645130e-04 
7 1  2.252979486975e-04  -6.122320927752e-04  -6.781416418840e-05 
8 1  1.426603729960e-04  -2.840479897820e-04   5.035012688123e-04 
9 1 -3.970223278711e-04  -7.872774464824e-05  -2.285269641450e-04 
10 1 -2.215435665272e-04   2.058074709543e-04  -6.589500535679e-05 
11 1  7.814395088466e-06   1.069376566949e-04   1.548830683000e-05 
12 1 -4.295036073318e-04   1.845850007886e-04   3.166305055672e-04 
12
 Atoms. Timestep: 23000
1 1 -2.475272108978e-04   3.173244011162e-04  -4.899475548587e-04 
2 1  3.053862894536e-04   1.669781593473e-05  -1.971474030342e-05 
3 1  9.620670637235e-05   4.642934244284e-04  -1.606370939735e-04 
4 1 -2.319653741629e-04   4.550581127583e-04   1.575119431151e-04 
5 1  1.091371196175e-04  -2.189794222943e-04   5.706751033669e-04 
6 1  2.075725274539e-04   1.057125181158e-04   1.843773979412e-04 
7 1 -1.375698791665e-04  -3.922135540115e-04   1.860379565583e-04 
8 1  2.704519169001e-04  -2.207553226017e-05  -2.445672024750e-04 
9 1  1.657467747716e-04   6.597566971320e-05   2.169655554886e-04 
10 1  3.203815459139e-04  -4.685332206857e-05  -4.745731654249e-04 
11 1 -3.207622875820e-04   3.455274591264e-04  -4.812035390078e-05 
12 1 -2.234000296212e-04   1.203543530770e-04  -4.591036192550e-04 
12
 Atoms. Timestep: 24000
1 1  1.777649641609e-04  -4.656053554430e-04   2.574111768128e-04 
2 1  1.419578469411e-04   2.178294023172e-04  -2.523857006175e-04 
3 1 -3.944133160703e-04   1.267189846928e-04  -2.486788173632e-04 
4 1 -1.982036638547e-04  -4.314197208556e-04  -1.271088407448e-04 
5 1  1.043706086993e-04   4.398677423411e-05   4.148505903306e-04 
6 1 -1.405052600262e-04  -7.922717716012e-05  -4.917774964312e-05 
7 1  1.436769984257e-04  -3.813886186199e-05  -2.024450377736e-04 
8 1  4.306928690316e-04  -1.355782011460e-04   3.875880202148e-04 
9 1  4.122310171254e-04  -1.128751173165e-04  -6.681832325050e-05 
10 1 -4.240023895649e-04  -1.407166300868e-05   2.424363225565e-04 
11 1  4.817556627106e-05  -1.075207283242e-04  -2.700288984441e-04 
12 1 -1.473042593126e-04   4.902031053032e-04   1.389192117175e-04 
12
 Atoms. Timestep: 25000
1 1 -1.930428438648e-04  -3.732076424769e-04  -1.216893437003e-04 
2 1  7.662320254912e-05   1.364183301020e-04   4.728534851128e-05 
3 1 -1.679735657549e-04  -9.725810089906e-05   7.749872348828e-05 
4 1  8.702783307904e-05   2.282993239821e-04   4.233956879108e-04 
5 1  4.180103268155e-04   9.947013024107e-05  -1.698916412229e-04 
6 1  4.248923083985e-04  -4.612718327947e-04  -2.626758562495e-04 
7 1  2.552016265210e-04  -2.428580671576e-04  -1.857272546900e-04 
8 1 -1.649950431884e-04  -8.587080924798e-05  -1.543773659337e-04 
9 1  4.596227358987e-05   8.390124259892e-05   4.750622668619e-04 
10 1  8.688593595139e-05  -3.831288580372e-04   1.197056279157e-04 
11 1  2.550837211863e-04  -9.235527512395e-05   1.352310589140e-04 
12 1  2.087236397014e-05   7.328769363406e-05  -3.166610616209e-04 
12
 Atoms. Timestep: 26000
1 1  1.712683085514e-04   2.667771842131e-04  -1.854862787717e-04 
2 1  6.863836097786e-05   1.287158872577e-04   6.238496897076e-04 
3 1 -1.393916800255e-04   7.890960767851e-05   1.642541244365e-05 
4 1  9.634760028563e-05  -1.683420629076e-04  -1.349580667197e-05 
5 1  1.081542217266e-04  -9.785266056645e-05  -2.021489760053e-05 
6 1  7.323720416763e-05   1.164540242142e-04   6.582879708471e-04 
7 1  3.671322761417e-04  -2.181517250516e-05  -1.455574669622e-04 
8 1  1.999211902744e-04  -1.079860223092e-04  -6.741669954518e-05 
9 1 -6.749182123781e-05   3.190003567406e-04   2.347108291245e-04 
10 1  8.426991512262e-05   2.993797859511e-04   7.808356071489e-07 
11 1 -7.007968856781e-04  -3.273762545305e-04  -2.625185726934e-04 
12 1  2.007395870531e-04   1.252091293255e-04   7.891116120672e-05 
12
 Atoms. Timestep: 27000
1 1  4.024914029955e-04   3.015040447435e-04   1.031930760415e-04 
2 1  1.169395837688e-04  -5.628977583545e-04   6.104084500451e-05 
3 1  7.043776772585e-06  -4.065789915134e-04  -1.104277359464e-04 
4 1 -2.052551448431e-06  -2.327630690573e-04  -1.358705145129e-04 
5 1 -1.037497555322e-05   2.902958941380e-04   1.159553664727e-04 
6 1  3.462672244453e-04   1.281341184859e-04   9.945562124063e-05 
7 1 -5.702589789200e-05   2.181230712315e-04  -1.913804984218e-04 
8 1  1.650127141574e-04   2.557737628333e-04  -4.737933647955e-05 
9 1 -2.234461637102e-05   1.814898059456e-05  -1.383913778321e-05 
10 1  1.025280247572e-05  -1.073367033647e-04  -4.007458238066e-04 
11 1 -2.924097059385e-04   1.752892553344e-04  -2.793938798507e-04 
12 1  5.694166446741e-06   1.630525631117e-04   4.540986794422e-04 
12
 Atoms. Timestep: 28000
1 1 -1.513688001283e-05  -4.102094359701e-04  -6.502509681920e-04 
2 1 -2.095649553052e-05   1.011126561577e-04  -1.355529723396e-04 
3 1  5.034705371830e-04   9.735898057957e-05   1.918168001828e-04 
4 1  2.655039235129e-04  -2.187998672687e-04  -2.495642934537e-05 
5 1  2.836306299102e-04   5.133432151831e-04  -8.943586100968e-05 
6 1 -1.966312869171e-04   1.757217245493e-04  -1.748640541795e-04 
7 1 -3.636953151695e-04   2.733842446418e-04  -7.117946253851e-04 
8 1  2.376456125277e-04  -1.103789186727e-04   2.222861135089e-04 
9 1 -1.604583891017e-04   1.277457635688e-04  -2.615092883206e-05 
10 1 -1.748594364342e-04   3.166421307703e-04   5.885189735710e-05 
11 1  2.121477584409e-04  -2.670821557541e-04   1.633289721790e-04 
12 1 -7.351170546942e-05   4.245535058813e-04   1.547556221274e-04 
12
 Atoms. Timestep: 29000
1 1  1.190530871194e-04  -5.461978722415e-05   9.151958619682e-05 
2 1  2.986531769786e-04  -2.991943331676e-04   8.985637969960e-05 
3 1 -3.168605119856e-04  -2.426087199739e-04  -3.290977154673e-05 
4 1  4.649388204353e-04   7.891220796346e-05  -4.144867616787e-04 
5 1 -5.192842617073e-04  -1.222876730499e-04  -3.348592005420e-04 
6 1  9.951454539645e-05   1.038144663767e-04   2.239583922773e-04 
7 1 -1.738310772275e-04   9.511820183559e-05  -5.710012735855e-05 
8 1 -1.239533209515e-04  -4.101532961472e-05   4.138727287289e-05 
9 1 -4.424814450988e-04  -2.701291138238e-04   3.382199798213e-05 
10 1  1.407878951220e-05  -1.347742833481e-04   9.774064637765e-05 
11 1  1.027028379197e-04   2.606310832802e-05  -8.377821857984e-05 
12 1  5.278131165013e-04  -8.335061078096e-05  -1.777105693197e-05 
12
 Atoms. Timestep: 30000
1 1 -5.263711673242e-06  -2.259116995918e-05  -2.930137132342e-04 
2 1  6.702544151201e-04   3.861283495981e-04  -2.269847790618e-04 
3 1 -1.296644478457e-04  -2.058146724599e-04   1.829787520325e-04 
4 1 -7.003976886023e-05  -3.686052006658e-06  -5.514954588968e-04 
5 1 -1.936570900435e-04  -1.225427161779e-04   5.274424832934e-05 
6 1  1.414112400466e-04   3.755526871139e-04   1.508750548197e-05 
7 1 -3.342508932558e-04  -2.615346445896e-04   3.458343032931e-04 
8 1 -2.261396613086e-04   4.324037199315e-04  -1.011190362291e-04 
9 1  2.296475736931e-05  -5.812989027757e-05   1.421297800808e-04 
10 1  3.915691523695e-04  -2.675457868722e-04  -7.764756695497e-05 
11 1 -2.202973047045e-04  -1.743578712772e-04  -5.404032969048e-04 
12 1  1.478666693010e-04   8.695024258801e-05   2.212478024186e-04 
12
 Atoms. Timestep: 31000
1 1 -5.655710499661e-04  -2.886538249987e-04   2.901567886926e-04 
2 1 -5.091656105255e-04   2.833281846263e-04  -2.578367254982e-05 
3 1 -7.709743284212e-05   1.737943527589e-04   1.253477043600e-04 
4 1  2.154456993978e-04   3.866704034157e-04  -3.194559618512e-05 
5 1  7.993177255066e-05   5.029499891540e-04   3.409761108935e-04 
6 1 -2.193152980160e-04  -3.511195573024e-05  -6.311747974804e-05 
7 1 -3.506118018001e-05   1.235700490322e-04   1.209207363619e-04 
8 1  1.863031153661e-04  -2.573553817859e-04   1.617668129264e-04 
9 1  3.197321823634e-04  -3.389539891430e-04   9.674443031609e-05 
10 1 -5.281537104363e-05   9.379299267124e-05  -8.314148449145e-05 
11 1 -1.024354601585e-04   2.304335196322e-04   1.263640752817e-04 
12 1  3.446883406797e-04  -2.097696868156e-04   3.548033644449e-05 
12
 Atoms. Timestep: 32000
1 1  1.061419968336e-04  -6.331223706249e-05   2.402416540564e-04 
2 1 -4.285410042769e-04  -1.455432580191e-04   5.630556109930e-06 
3 1 -3.684809797461e-04  -6.481484399827e-04  -1.622120894667e-04 
4 1  8.913045482174e-06   3.125400525506e-04  -3.314780294497e-04 
5 1 -5.058545108785e-05   3.905822694571e-04  -4.300906510371e-04 
6 1  1.826298242283e-04   2.182497479426e-04   7.027884078773e-05 
7 1 -1.012256345503e-04  -1.689924962068e-05   8.272560851762e-05 
8 1  1.990389736412e-04  -8.533945114467e-05   2.565673824703e-04 
9 1 -2.692360417300e-04   6.129706612123e-05   3.455299914127e-04 
10 1 -2.411324937559e-04   1.089508770158e-04  -1.317511700854e-04 
11 1 -6.313918403544e-05  -1.490000466420e-04   1.335221745406e-04 
12 1  2.189649657388e-04  -2.152429842423e-04   1.590930041934e-04 
12
 Atoms. Timestep: 33000
1 1 -6.190039856350e-05   3.483074035947e-05   2.462378375803e-04 
2 1  3.852753534021e-04   7.150800032699e-05  -1.251095982163e-04 
3 1 -7.831184843004e-05  -4.659923090640e-04   3.611903282105e-04 
4 1  2.858972433478e-04  -4.464481327922e-04  -2.068687715985e-05 
5 1  5.529327083263e-04   1.923602944386e-04  -9.773584116534e-05 
6 1 -3.500125589781e-04  -1.075305418978e-04  -1.337110021654e-04 
7 1 -3.842735036342e-04  -3.776269516558e-04   1.826716637204e-04 
8 1 -4.308337841263e-04   2.208738035433e-04  -2.298454304082e-04 
9 1  2.263359435258e-04   3.178379034881e-04   3.022738450895e-04 
10 1 -3.012617302595e-04   7.434025168426e-06   1.396908619658e-04 
11 1  1.779342149789e-04   5.495066132947e-04   3.666884848208e-05 
12 1 -9.971874292236e-05  -4.095657973660e-05   3.190834253192e-05 
12
 Atoms. Timestep: 34000
1 1 -9.897193382504e-05  -9.054384373004e-05   1.885628663790e-04 
2 1  1.083607667229e-04   7.654246495052e-05   1.935093514468e-04 
3 1  6.242800699204e-04   1.756234994948e-04   6.496037661320e-04 
4 1  1.389824797233e-04  -8.085917260661e-06  -4.664489665284e-04 
5 1  4.054621661939e-04   5.534090586926e-04   8.601966524009e-05 
6 1 -2.806582613911e-04  -9.663096307689e-06  -1.556694336001e-04 
7 1  2.147764033607e-04   2.599237711592e-04  -3.678450135288e-04 
8 1 -4.016047793439e-04   4.448857088658e-05   3.623959636808e-04 
9 1 -1.973473244567e-04   3.976951146470e-04   8.775909263028e-05 
10 1 -4.455134803633e-04   2.480024742448e-04   2.190271521947e-05 
11 1 -3.774053876242e-04  -8.112336576559e-05   3.201698464197e-04 
12 1  9.559100212437e-05   1.402355711018e-04  -2.189590047405e-04 
12
 Atoms. Timestep: 35000
1 1 -2.468672656945e-04   4.668617888042e-04  -3.645262740492e-04 
2 1  6.472326676862e-04   6.157398827248e-04  -1.528811779774e-04 
3 1  3.132696875053e-04  -2.206499153492e-05   4.792117031771e-05 
4 1 -3.278336788654e-05   1.329846103808e-04   4.330721113663e-04 
5 1  7.663482873103e-05   5.861754676211e-04  -6.636367130680e-04 
6 1  3.587659325800e-04   3.195812843784e-04   3.033322344024e-04 
7 1  4.198364522586e-05   9.782970576258e-05   4.331837242718e-04 
8 1  1.204757174044e-04  -3.949285601338e-05   1.871126651068e-04 
9 1 -2.193340156842e-04  -3.051296007760e-04  -1.675109206670e-04 
10 1 -9.944673835792e-05   4.125345711756e-04  -5.560868416080e-04 
11 1 -1.199623545547e-04  -1.623734862090e-04   4.672293686592e-04 