12
 Atoms. MD step: 0
1  3.757474098038e+01   7.738858600032e+01   2.814684358682e+01 
1  5.877959719005e+01   9.026852854105e+00  -3.631759210363e+01 
1 -1.137622820308e+01  -7.529375926520e+01   2.060449460305e+01 
1  6.383694945653e+01  -4.717075753243e+01   7.401454531912e+01 
1  3.350876561591e+01   5.920902965126e+01   5.283963976368e+01 
1  4.722591121164e+01  -4.523980946534e+01  -4.995389399119e+01 
1  3.403079549046e+01   2.965800605878e+01   1.150739926118e+01 
1 -6.692984929198e+01   4.449774620584e+01   7.076654766736e+00 
1 -2.100734760880e+01   2.935729868240e+01   7.210294435976e+01 
1 -8.874757245159e+00  -5.639709921291e+01   3.168265344501e+01 
1 -6.033102251108e+01  -5.847017090869e+01  -5.154007678348e+01 
1 -7.365963092257e+01  -2.002447690314e+01   6.394759323180e+01 
12
 Atoms. MD step: 1000
1  6.126158696913e+01   2.090331378088e+01   2.334826664795e+01 
1 -1.819088084252e+01  -5.007942940446e+01   7.889137316675e+01 
1  2.379749842554e+01   1.958044738397e+01  -2.470574736945e+01 
1  6.305257087367e+01   2.364970696326e+01   2.998433710944e+01 
1  3.216930728781e+01   4.419689924164e+00   1.712289424740e+01 
1  4.111690440974e+01  -3.311277501626e+01  -6.560025559533e+00 
1  2.691848893647e+01   3.771601883029e+01  -1.211411237018e+01 
1  2.878679025094e+01   6.662378772714e+01   5.782703694901e+01 
1  3.549470028921e+01   3.432168646176e+01   5.293439912645e+01 
1 -2.177549524627e+01   1.138909097261e+01   3.376115936812e+01 
1  1.443553997462e+01   4.463273487482e+01   1.030145382882e+01 
1  3.083169802463e+01   4.791575046145e+00   6.938021310371e-01 
12
 Atoms. MD step: 2000
1 -9.601825883745e+00   1.792071915027e+01   1.551444786352e+01 
1 -3.228991627681e+01  -5.654503872417e+01   2.428044697021e+01 
1 -3.630335314840e+01  -1.664835789564e+01  -5.739055191195e+01 
1 -4.034204610129e-01  -6.364989301363e+00   8.188730768496e-01 
1  2.858937721789e+01  -1.053372959388e+02  -5.923363103894e+01 
1  1.128948358389e+01  -5.079485816630e+00  -6.869382056391e+00 
1  7.804300471573e+00  -4.627539969600e+01  -1.094660762695e+01 
1  9.273751742283e+00  -9.244191005215e+01  -6.599230425071e+01 
1  3.798929335059e+01  -2.733490436056e+01   1.420822819306e+01 
1  5.315584088188e+01   4.450438797238e+01  -4.337111572100e+01 
1  3.783491168589e+01  -6.350534128547e+01   7.232074830737e+00 
1  3.411686739566e+01   2.668251728152e+01  -3.434210923650e+01 
12
 Atoms. MD step: 3000
1 -5.402006624508e+01   4.410662504102e+01  -4.984692847653e+01 
1  5.560148571220e+01  -6.875196896860e+00   1.171989717409e+00 
1 -4.122120250771e+01   3.437040469975e+01  -1.221722592538e+01 
1 -2.747770081548e+01   6.257424652139e+00   6.171635160949e+01 
1  1.048656642727e+02   4.108175243982e+01  -7.805099827207e+00 
1 -1.864567029093e+01  -8.719918729526e+00   2.484598146895e+01 
1 -2.446684183176e+01  -4.172319100118e+01   2.402637799094e+01 
1  1.158010907753e+01  -3.128703861877e+01  -2.573628260976e-02 
1 -4.132091268059e+00  -4.510255291719e+01  -1.455468276072e+01 
1 -8.432060880793e+01  -5.756004163694e+01  -1.302629830003e+01 
1 -5.512784154859e+01  -2.419746331426e+01  -2.146444998328e+00 
1  6.384389243843e+00   2.888432664419e+01   1.534237498151e+01 
12
 Atoms. MD step: 4000
1  3.998262858494e+00   1.428419932656e+01   2.002607699743e-01 
1 -7.290986853292e+00  -4.793276531508e+00   1.603752790266e+01 
1  1.329017502270e+01   1.747457113385e+01  -1.154060108591e+01 
1  4.926425547068e+01  -2.362100688404e+01  -3.699441434294e+01 
1  3.320375995918e+01   1.301361963649e+02  -4.236370954660e+00 
1  8.235754643754e+01   1.933691587819e+00  -1.216356701321e+00 
1  1.545677224873e+01  -1.170965335717e+01   5.753805289037e+01 
1 -6.210938929988e+01  -1.120478114872e+01  -3.608029215785e+01 
1 -8.545274605991e+00   2.921215229761e+01   4.197882021545e+00 
1  7.113592387260e+01  -2.924496749271e+01   6.397487240028e+01 
1  4.184928601938e+01   3.189292891335e+01  -4.824516155352e-01 
1 -2.580660354708e+01   3.806224271180e+01  -7.548321235582e+00 
12
 Atoms. MD step: 5000
1 -2.099857066450e+01   7.037038403788e+01   2.087610995077e+01 
1  2.175910509913e+01  -2.564338334056e+01  -2.851530952344e+01 
1 -4.983787657528e+01   4.035880535145e+00  -4.250518597516e+01 
1  1.320491252115e+01  -2.567603938782e+01  -4.087359417357e+01 
1  1.618411049979e+01  -8.558392473566e-01   4.755408062379e+00 
1  6.549030215922e+01   6.046891234742e-01   3.167341010282e+01 
1  5.234819177328e+00   1.795076783077e+01  -2.144959398460e+01 
1  2.910052447121e+00  -2.286457666523e+01   6.767227692121e+01 
1 -2.452613966212e+01  -3.505444151247e+01   6.033515347512e+01 
1 -2.560072343331e+01   4.278584441624e+01   3.398398711065e+01 
1  1.295796671684e+01  -4.318628010657e+01  -1.866430719424e+01 
1  7.577592578583e+01   3.510245967240e+01  -1.958806405181e+01 
12
 Atoms. MD step: 6000
1 -2.531937676723e+01  -1.990893643368e+00   6.763094552994e+00 
1 -1.413008079432e+01   1.443335888283e+01  -5.831792393563e+01 
1  2.424945804137e+01  -4.764167633222e+01   4.958581425119e+01 
1  7.143735972718e+01  -4.647006320279e+00  -9.569053462534e+00 
1 -3.458204522559e+00   4.885700078683e+01  -1.556286539125e+01 
1  9.701891865734e+01  -5.855338980378e+01   1.121157653686e+01 
1  3.634609270914e+01   9.984352581731e+01  -1.051418636259e+01 
1  2.196530999819e+01   3.762027492708e+01  -3.138729187038e+01 
1  6.111027274989e+00  -3.363016868234e+01  -1.329158392694e+01 
1 -7.489322351074e+00   2.259690377835e+01   2.825164254308e+01 
1  1.901047088259e+01   5.954475286758e+01   2.215877385170e+01 
1  2.253499815936e+01  -3.195210407223e+00   1.571672777789e+01 
12
 Atoms. MD step: 7000
1  2.607691878525e+01   4.842115247341e+00  -8.213676005571e+01 
1 -4.967869931311e+01  -2.368989541146e+01  -3.084670648895e+01 
1  8.435029064238e+01   1.587680705338e+01   1.178550761206e+01 
1  1.366338167239e+01  -8.625561711320e+00   1.826314062472e+01 
1 -3.386851398021e+00  -5.537358391091e+01   5.482707299349e+00 
1 -5.500599310234e+00  -7.608293450404e+00   7.955973068657e+01 
1 -1.883128310473e+00  -2.150126101534e+00  -5.040388595719e+01 
1 -1.150506078751e+01  -1.757845349308e+00  -7.073857458337e+01 
1 -3.104763342190e+01  -1.452828044408e+01  -2.178331166621e+01 
1 -2.623190270481e+01   2.257666817034e+01   1.106337120552e+01 
1  6.732350781630e+00   3.931107218832e+01  -4.070528560246e+00 
1 -1.287861087390e+01   1.275086889178e+01  -1.543155144572e+01 
12
 Atoms. MD step: 8000
1 -1.436056691693e+01   3.433469067424e+01  -5.740606336503e+01 
1  6.577348911960e+00  -2.160671816746e+01  -1.272096882121e+01 
1  3.776437662567e+01   3.660949453251e+01   4.794528816055e+01 
1 -3.287048528287e+01   3.926571162753e+01   7.444369683595e+01 
1 -5.398626307831e+01  -2.164110043877e+01  -6.353422420683e+01 
1  6.098544960161e+01   5.363759651909e+01   3.413463205818e+01 
1  2.977476352753e+01   8.693460659856e+00   2.973504536336e+01 
1  1.416156715604e+01   2.639649269541e+01  -1.124384379230e+01 
1 -1.535558673149e+01  -3.796348185006e+01   4.903162255385e+01 
1  8.257840519218e+00   3.318540009784e+01   1.847759508809e+01 
1 -7.382339277516e+00  -4.648612209854e+01  -1.934361770161e+00 
1  8.269140123680e+00  -2.868513865714e+01  -5.993063079966e+01 
12
 Atoms. MD step: 9000
1 -6.003247985729e+01  -1.784270274879e+01   5.464903873965e+01 
1  5.409440841866e+01  -3.948886023016e+01  -3.774924944509e+01 
1  1.514690402396e+01  -2.567849814000e+01   5.991982492086e+01 
1 -5.929039408820e+00   4.288198825665e+01  -5.081894305093e-01 
1 -1.026557504021e+01   2.659662550270e+01  -3.427285036183e+01 
1 -1.308802394708e+01   4.705614843300e+01  -5.184040490955e+01 
1 -2.545423980539e+01  -4.336559586648e+01   1.711028668005e+01 
1  3.325739689679e+00   4.316428051070e+01   8.469250036359e+01 
1  3.993172414896e+01   1.452415611750e+01   1.443667184397e+01 
1  3.451667731313e+01   1.382350963618e+01  -4.617376007998e+01 
1 -3.420253887251e+01   3.124990289099e+01  -2.356691793625e+01 
1  1.290796325754e+00  -1.612819978619e+01   1.598704084661e+01 
12
 Atoms. MD step: 10000
1 -3.819796408767e+01   3.386978950090e+01  -3.950289750969e+01 
1  4.643560751791e+01   4.908276176183e+00  -2.853258311055e+01 
1 -1.613771526533e+01  -3.095721311968e+01   4.792462191851e+00 
1 -1.907695355503e+01  -1.768755447486e+01  -6.818688709976e+00 
1  1.103399662434e+01   3.051035518529e+01  -4.330931983935e+01 
1  7.588745698014e+00   4.717386885933e+01  -4.740360395292e+01 
1 -5.339386235989e+01  -1.954547511045e+01   6.912480952106e+01 
1 -2.042397287574e+01  -1.990227609678e+01   2.526543551775e+00 
1  7.648382548609e+01   2.480934566735e+01  -1.060108335077e+01 
1 -4.029354128108e+01  -7.941476512506e+01   2.996054323238e+01 
1 -4.103201268019e+01  -1.288625973213e+01   1.426618158007e+01 
1  3.407688817899e+01   9.437143790471e+00  -6.344800030410e+01 
12
 Atoms. MD step: 11000
1  6.456590655791e+01  -1.287952025982e+01   5.434049877471e+01 
1  2.413409458604e+01   1.801803658901e+01   5.254979218283e+01 
1  2.091480102446e+01  -3.364597607022e+01   2.246031499655e+01 
1 -2.800231133875e+01   4.868946392778e+00  -8.176882137634e+01 
1  3.635461976629e+01   3.337141542393e+01  -8.539935755621e+01 
1 -1.619253778624e+00  -3.813330554673e+00  -4.532915761048e+00 
1 -2.424643083319e+01  -3.921242614531e+01   6.003411857522e+01 
1 -3.294589534920e+01  -6.242458698252e+01  -4.328981106091e+01 
1 -1.326992849356e+01  -3.981440663229e+00   5.395282708951e+00 
1 -1.259847464750e+01   3.948264535342e+01   2.767960080960e+01 
1  7.625817747026e+00  -2.962374996892e+01   4.230121611824e+01 
1 -1.610658926192e+00  -3.660268077273e+00   9.022463716286e+00 
12
 Atoms. MD step: 12000
1 -7.403955128589e+01   1.332638197092e+01   7.036777629894e+01 
1  2.071170625689e+01   4.630873090853e+01   2.824336164134e+01 
1  3.646374013459e+01  -6.233232977134e+00   4.984872877995e+01 
1 -1.411718721902e+01  -1.713331071331e+01  -3.261120005655e+01 
1  6.441931535969e+01  -3.113628126760e+01  -8.561202512927e-01 
1 -3.147295662957e+01   5.832619465975e+01  -4.189274998422e+01 
1  5.384207579543e+01  -3.240222710247e+01  -2.370821260259e+00 
1 -6.535654859147e+01   9.324535483525e-01   1.298358283572e+01 
1 -1.496043674808e+01  -2.896518838925e-02   2.939689583746e+01 
1 -2.867784783241e+01  -1.844930643429e+00   2.385468840153e+01 
1 -6.613146289903e+01  -2.765864557846e+01   5.705820843618e+00 
1  9.592230928482e+00  -3.984997049138e+00  -3.088549847433e+01 
12
 Atoms. MD step: 13000
1 -8.474004114759e+01  -3.004411173171e+01  -3.737965097857e+01 
1  7.960150728609e+01  -2.982559893899e+01  -6.618224028092e+01 
1 -5.028066149681e+01  -4.822627591857e+00   2.171280083848e+01 
1  2.643918707178e+01   6.870744857823e+00  -1.857643793365e+01 
1  5.363678284919e+01   3.261660343987e+01   5.470757560547e+01 
1 -6.967767845220e+00  -3.203939745212e+01   3.642129259318e+01 
1  7.147926456398e+00   3.578876661896e+01  -2.706148324535e+01 
1  5.644101761884e+00  -3.292578724833e+00   5.126936653413e+01 
1  4.031417553794e+01  -6.859652777829e+00   2.874668814506e+01 
1  2.189716044192e+01   3.022365646397e+01   4.481562793591e+01 
1 -4.225081452699e-01   4.219997470211e+01   1.021650030597e+01 
1 -2.092899632465e+01  -2.824389257799e+01  -1.138089656817e+01 
12
 Atoms. MD step: 14000
1 -2.246015561617e+01  -1.821472809709e+01  -5.712906388024e+01 
1  3.385583255452e+01  -3.561333509072e+01   9.275698813916e+00 
1  5.959802627177e+00   7.080308230246e+01   4.464103069544e+01 
1  3.681252839727e+01  -1.855155531252e+01  -6.721786648244e+00 
1 -3.403504250061e+01  -8.435290268540e+00   1.728483105215e+01 
1  4.702191566115e+00   2.516788389137e+01  -1.698007672170e+01 
1 -3.334580556591e+01   3.062998546881e+01   2.507514306435e+01 
1 -7.001742138433e+01  -1.814218601446e+00  -2.901563611276e+01 
1 -4.562626200342e+01  -6.347285008576e+01   1.224037714934e+01 
1  1.191081956546e+01  -1.260762087552e+01  -9.063796545552e+00 
1 -8.889156799265e+00  -5.055046696145e+01  -9.506410463090e+00 
1 -1.125931334697e+01  -3.641982284010e+01   4.069378127692e+01 
12
 Atoms. MD step: 15000
1 -1.992493530967e+01  -5.210089917916e+01  -3.609557259047e+01 
1  6.961106129717e+01  -4.734825293242e+01   6.003346941770e+01 
1  3.111981701002e+01   1.235600894567e+01  -3.640969280286e+00 
1  4.613331355932e+01   1.547206977117e+01  -3.085463107517e-01 
1 -1.913740168825e+01  -2.343621674973e+01  -8.086502978038e+00 
1 -1.169878910032e+01  -2.089654388292e+01  -2.407474333120e+01 
1  7.178691641778e+01  -1.583875628297e+01   3.908331568351e+00 
1  1.810766231339e+01   1.298152193311e+01   1.228389352387e+01 
1 -1.080972481786e+01   5.081172471800e+01  -5.552784458190e+01 
1 -1.071065676792e+01  -6.428266255359e+01   2.502167796874e+01 
1 -6.774618389682e+01   7.086248801986e-01  -6.949122653559e+00 
1 -2.591870615135e+01  -5.632312633867e+01  -1.759036582666e+01 
12
 Atoms. MD step: 16000
1 -3.129387440525e+01  -2.972753566426e+01  -1.779197265742e+01 
1  7.638690645529e+00   2.753980445297e+01   5.473915777802e+01 
1  1.606361438911e+01  -3.934007849729e+01  -8.693738506578e+00 
1  4.552398920489e-01  -7.057142177426e+01   9.887411533348e+00 
1 -1.878887436814e+01  -4.299430977973e+01   4.619508798522e+01 
1 -3.068038571906e+01   3.975942354555e+01   2.595346464121e+00 
1 -5.131763887713e+01  -6.634325832451e+01   2.396576252589e+01 
1  1.199092924499e+01  -2.145561046833e+01   1.222177829891e+01 
1  5.304389566131e+01  -3.195556307211e+01   9.963645905458e+00 
1  3.989592468901e+01   2.698940620012e+01   6.052613434708e+01 
1 -2.056545332514e+01   2.248633004806e+01  -3.921676181246e+01 
1 -3.125337373515e+01  -5.444578580391e+01   3.319907494568e+01 
12
 Atoms. MD step: 17000
1 -1.237248781950e+01  -1.268273672979e+01  -4.222438013934e+01 
1 -2.015625805200e+01  -1.636006516445e+01   3.109276643878e+01 
1  1.954295327613e+01  -2.981915148381e+01   1.094929003901e+01 
1  1.370804452150e+01  -3.640891853828e+01   4.295171333318e+01 
1  3.374040284513e+01  -4.589578810276e+01   2.654468447290e+00 
1 -6.323910539621e+01   4.250260876060e+01  -3.894296268850e+01 
1 -7.556738986326e+01   1.721660868432e+01   5.876032788865e+01 
1  2.207688353528e+01  -4.038905396887e+01   3.746133266840e+01 
1 -7.416533330245e+01  -5.913032358033e+01  -2.510955056844e-01 
1 -2.764341260532e+01   6.771510067397e-01   2.107401462698e+01 
1  2.409712736953e+00   2.952561547462e+01   1.318306481572e+01 
1  1.423424579260e+02  -6.778549368552e+01  -1.289864976033e+01 
12
 Atoms. MD step: 18000
1 -4.560106290121e+01  -1.924309553933e+01  -8.081022834733e+00 
1  6.535707323164e+01  -3.016025380706e+01   2.204187269685e+01 
1  4.747917754418e+01   2.044178151946e+01   5.715510279093e+00 
1 -2.016479387900e+01   3.627049547799e+01  -3.143557455383e+01 
1  7.377284522736e+01   1.094115878186e+01   4.874708698801e+01 
1  8.340986135703e+00  -1.828174085662e+01  -1.331777856201e+00 
1 -5.685250222295e+01   3.299314116490e+01   4.366058364235e+01 
1 -3.155369989030e+01  -4.064304803447e+01   1.065872951481e+02 
1  7.474555636144e+00   7.946199351395e+00   4.803761466270e+01 
1 -5.666946735989e+01  -4.660559761616e+01   1.607295873122e+01 
1  3.073775817717e+01  -1.682595348799e+01  -2.140829609921e+01 
1  1.287741251206e+01   1.881003176492e-01  -7.221742831260e+01 
12
 Atoms. MD step: 19000
1 -1.462848755331e+01  -3.737780032935e+01   4.074996158126e+01 
1  1.661763819998e+01  -2.015041597186e+01  -4.772415339417e+01 
1  2.689689145122e+01  -6.658831405737e+01  -1.558192768783e+01 
1  3.778026129811e+01  -2.308840333695e+01  -4.591163498842e+01 
1  7.011757505423e+00  -1.433611524201e+01  -6.715128599757e+01 
1 -2.861928960796e+01  -2.667313774771e+01   7.036508924337e+00 
1 -3.160472828988e+01  -5.051720180857e+01  -7.253200416593e+00 
1 -8.133728337937e+00  -2.281133585852e+01   3.375544514859e+01 
1  7.389926899009e+00   1.934429534956e+01  -7.328092965583e+01 
1  2.500792558982e+00  -1.699318906089e+01   1.844597043052e+01 
1 -7.645308027007e+01   5.602754653052e-01   2.930027449302e+01 
1  1.233489228945e+01   8.848308973055e+01   1.248139728438e+01 
12
 Atoms. MD step: 20000
1  2.169806661372e+01   3.442158574197e+01   4.064788814632e+01 
1  1.603083952153e+01   1.854148030933e+01  -5.803665310200e+01 
1 -1.062137748775e+01  -4.879342402465e+01  -3.166120095026e+01 
1  4.583648361839e+01  -7.471039172352e+01  -2.229150016522e+01 
1  1.038179301195e+01   1.632612200903e+00  -6.140142995028e+01 
1 -4.093503127833e+01   4.337531692410e+01  -1.081996911958e+00 
1  1.481842279217e+01  -4.582134480213e+01  -3.298022469532e+01 
1  1.272813671090e+01  -4.618734778261e+01   2.611677390779e+01 
1  8.969341048272e+00  -1.617981579991e+01   3.305185372184e+01 
1 -3.079268487084e+01   4.529079649090e+01   2.165003511685e+01 
1  4.732485702524e+01  -7.832769701411e+01  -1.533371132313e+01 
1 -2.086531440415e+01  -4.738237899371e+01   5.633914593480e+01 
12
 Atoms. MD step: 21000
1 -3.097654760730e+01  -4.073037146180e+01   6.071823346947e+01 
1  3.743824707168e+01   4.637926018744e+01   2.606295524940e+01 
1 -5.364924815080e+01  -2.728594649105e+01   8.531222071160e+00 
1 -2.320284402161e+01  -6.374609201480e+01  -2.450671973499e+01 
1 -2.189501257236e+01  -1.488972374671e+01  -1.976559767085e+01 
1  5.644119441873e+01  -4.133462517739e+01  -1.894957573909e+00 
1  4.823317082746e+01   3.436035199748e+01   1.375319606334e+01 
1 -3.013973408748e+01  -8.826507421062e+00   2.710907240845e+01 
1  1.973407747689e-01  -9.757892175418e+00   1.124841232732e+00 
1 -4.214218685710e+01   2.852888707564e+01   6.872041285972e+01 
1  1.873485811491e+01  -9.674948745297e+00  -1.031477608503e+01 
1 -2.008844381095e+01  -3.076589653978e+00   2.809908409261e+01 
12
 Atoms. MD step: 22000
1 -6.526400090373e+01  -1.187793408480e+01  -5.710239997634e+01 
1 -2.112117122485e+01   4.482534372872e+01   2.517565641450e+00 
1 -2.498983445357e+01  -4.608500934661e+01  -3.768304505118e+01 
1 -2.825218841070e+01  -1.657449180458e+01   6.300434708520e+01 
1 -1.042174111019e+01   6.157287038752e+01   1.120279324905e+01 
1  3.251943248089e+00  -1.573721794411e+01   3.509481399732e+01 
1  8.707202642880e+01  -7.866012014137e+01   1.246349566728e+00 
1 -2.731407002932e+01   3.188510953084e+01  -9.490466336482e-01 
1 -2.215596741058e+01   2.809473151309e+01   7.113571183081e+01 
1 -1.177163141932e+01   2.636783087626e+01   6.148375619798e+01 
1  8.070227322881e+01  -1.289670131767e+01   4.600437240518e+01 
1 -3.860294104876e+01   4.952309464514e+01   1.278406706674e+01 
12
 Atoms. MD step: 23000
1 -2.148779157076e+00   1.516432916924e+01  -1.606632154200e+01 
1  2.355732369576e+01   2.242915081813e+01  -3.254688568084e+01 
1  1.513524226865e+00  -1.298609913314e+01   5.457794096200e+01 
1  4.706789872036e+01   1.612565463439e+01  -3.115078939781e+00 
1  1.359554675875e+01  -5.220971594578e+00  -3.378549721267e+01 
1 -1.571257082186e+01   1.718739726325e+01  -5.342631932406e+00 
1 -1.007162752993e+00  -3.268493930676e+01   3.051287144874e+00 
1  8.129531122523e+00   8.905851689385e+01  -2.968519306066e+01 
1  2.193911363500e+01   7.980509697602e+01   2.463207270201e+01 
1  4.880966942932e+01   6.770523870020e+00   5.141179098702e+01 
1  2.264421077885e+00   1.745215648626e+01   1.295399035738e+01 
1 -4.169759138719e+01   4.191843205133e+01   1.590090772328e+01 
12
 Atoms. MD step: 24000
1  3.389583039712e+01   6.280775018312e+01   7.217018321135e+00 
1 -9.619401348203e+00  -1.015783001737e+01   3.546057264272e+01 
1  3.351609863314e+00   1.830012730045e+01  -3.419714096795e+01 
1  5.459673226420e+01   3.291740477633e+01  -4.142793958038e+01 
1 -2.520205708471e+01   1.350556443601e+01  -1.981883320099e-01 
1  4.881701905850e+01  -1.018340195853e+01   3.200958267399e+01 
1  2.271445587192e+01   1.295229117618e+01  -4.746459848663e+01 
1 -6.404717838366e+01   2.182760344954e+00   1.250332894060e+01 
1  1.792074618796e+01  -1.345223502050e+00   4.607561742571e+01 
1  3.056000743512e+01  -3.388465306647e+01   2.190422454970e+01 
1 -6.150525883600e+01   1.061901312067e+01  -2.481710895438e+01 
1 -3.283562392736e+01  -4.189581152243e+00   2.585619806178e+01 
12
 Atoms. MD step: 25000
1  3.279161290677e+01  -7.486805339880e+00  -8.600801689733e+00 
1  4.217470146814e+01   2.644763948271e+01  -5.411684479471e+01 
1  1.533786366149e+01   5.581829104788e+01  -2.174961525120e+00 
1  6.532266977288e+01   2.684283506371e+01  -4.321069755373e+01 
1 -2.550547731409e+01   2.732021390280e+01  -7.261957272124e+00 
1 -1.212365153015e+01   3.458765832815e+01  -1.671392778301e+01 
1  1.382919802149e+01   7.920374601873e+00  -6.325284998209e+01 
1 -1.081095355856e+01   6.729137505742e+01  -3.051601561974e+01 
1  5.065213163869e+00  -2.360043759188e+01  -2.265005047433e+01 
1 -3.389067054014e+01   3.308823467091e+01  -4.117911764763e+01 
1  7.369987591266e+01  -5.031117294416e+01   2.612628838060e+01 
1 -6.884969119567e+01   4.904253287601e+01  -1.188727420938e+01 
12
 Atoms. MD step: 26000
1 -1.024930266857e+01   6.432566835436e+00   3.200028032766e+01 
1 -8.751780650607e-01  -2.238467898544e+01   3.796792765341e+01 
1 -1.348609810378e+01  -9.066669300839e+00   1.691806795029e+01 
1  2.055663880450e+01   2.917466228880e+01   6.410714224253e+00 
1 -3.237117116021e+01   3.420793078073e+00   1.675585199280e+01 
1  3.395201854495e+01   2.320748905681e+01  -1.892045675127e+01 
1 -2.305469326068e+01  -3.007629402949e+01   1.914904617386e+01 
1 -1.646282469790e+01   1.957753682578e+00  -3.795367865654e+01 
1  9.183913045221e+00   1.401352370999e+01   2.319060213500e+01 
1  6.173236882671e+00   1.682529746544e-01   5.449804387511e+01 
1  3.445972629982e+01   1.061554531958e+01  -3.291483536001e+01 
1 -1.591166575398e+01  -2.200455161207e+01  -5.788130250110e+01 
12
 Atoms. MD step: 27000
1  5.494836855958e+01   2.009410609378e+01  -4.508748294889e+01 
1 -1.855650205792e+01  -3.368027316135e+01   2.037992201816e+01 
1  6.047729509516e+00   2.882651376534e+01   5.464673756630e+00 
1  2.781550919624e+01  -3.996420422046e+01   2.111242901936e+01 
1  5.947062727563e+00   7.090225982023e+01   4.098339175731e+01 
1 -3.403254037054e+01   4.661552343683e+01  -3.501733792026e+01 
1  4.529036784531e+01  -2.209647684527e+01   1.990303645061e+01 
1 -4.152149307769e+00  -3.542637140529e+00   1.660350487222e+01 
1 -8.851552434746e+00  -3.927854755100e+01  -1.672954743868e+00 
1 -3.057253408433e+01  -1.542732499598e+01   7.855989289503e+00 
1  4.088584903648e+01  -2.024452482728e+00  -2.618928155230e+01 
1  3.502314222074e+01  -4.539896433243e+01   4.202805155543e+01 
12
 Atoms. MD step: 28000
1  2.676268240375e+01  -1.474424548989e+01  -4.362029626239e+01 
1  2.441054492874e+01  -4.969353804906e+01  -3.027866818716e+01 
1 -3.303200603124e+01  -4.044572832557e+01  -9.329289423389e+00 
1 -1.882639055112e-01   8.876520669377e+01  -2.475463678339e+01 
1 -2.919674088111e+01   1.386747380256e+01  -6.957665585355e+01 
1  4.177366339624e+01   4.410557272832e+01   3.931930334261e+00 
1 -8.532556100209e+00  -5.074034473676e+01  -3.590423942015e+01 
1  6.248040416622e+00   1.373152546243e+01   8.447028685378e+00 
1 -1.574946511510e+01   1.613392146096e-02  -9.412767040855e+00 
1 -5.030747960934e+01   5.170474962273e+00   3.650288855506e+01 
1 -6.558263686959e+01  -4.451704507325e+00   4.306281369474e+00 
1  7.427336368732e+00  -3.532966666103e+00   2.908522354421e+01 
12
 Atoms. MD step: 29000
1  4.716261940442e+01  -3.365148864658e+00  -4.356259851679e+01 
1  1.575080551291e+01   3.981124249854e+01  -1.579933809967e+01 
1 -4.466003787882e+01   5.760697420585e+01   1.690297824492e+01 
1 -6.776815870617e+01   2.530863595854e+01   2.824945228222e+01 
1 -2.071316222508e+01   1.905542455535e+01   5.750129577186e+01 
1 -7.239350942237e+01  -3.412450995259e+01  -1.108151168638e+01 
1  1.523671974743e+01  -6.248923463078e+01  -4.981423010758e+01 
1 -7.436295315380e+01   5.617941187053e+01   5.765067157662e+01 
1  3.360934493396e+01  -4.865458427130e+00   4.873180795637e+01 
1 -4.635880717523e+00   6.519447511321e+00   2.073504758438e-01 
1 -1.880995953100e+01  -1.829098547516e+01   1.393672594530e+01 
1  6.266428896145e+00   7.053259825041e+00  -5.721511246780e+00 
12
 Atoms. MD step: 30000
1  1.018704502185e+01   6.945088887150e+01  -3.235084366395e+01 
1 -4.978861954600e+00   3.196376263019e+01  -7.629582808793e+00 
1  1.818593576218e+00  -3.079484800513e+01  -1.244675174819e+01 
1  6.197800884008e+01   1.690264374020e+01   6.462807536919e+00 
1 -2.780665453757e+01  -5.727069513287e+01   8.732369892246e+00 
1 -3.066020781852e+01   6.090641511622e+01   4.457418783837e+01 
1 -1.793479592014e+01  -1.599422958222e+01  -5.423706093107e+01 
1 -4.129707617134e+01  -5.939761163581e+00  -5.527009796718e+00 
1  1.685331656242e+01   4.006384045126e+01  -3.688458810960e+01 
1 -4.836102874241e+00   6.704751199501e+00  -5.031551093080e+00 
1 -5.895017843101e+01   7.063367105942e+00   2.979288330323e+01 
1 -7.855276332058e+01   2.884101933006e+01   5.017540900353e+01 
12
 Atoms. MD step: 31000
1  2.236682753274e+01  -2.607347809162e+01   1.302007139334e+01 
1 -1.994986084101e+01  -3.199868943871e+01   4.238749511738e+01 
1  3.674404015605e+00  -4.954938718126e+01   1.312387848584e+01 
1  1.814896379563e+01   4.009455486668e+01  -2.185541991218e+01 
1  5.139568628200e+00   1.571884445565e+01  -4.818189547733e+01 
1 -4.649368239180e+01  -2.259344652066e+01  -2.644447315586e+01 
1  5.629921528211e+01  -9.789944455089e+01   3.891384087831e+01 
1  3.749322744228e+01   6.154470457414e+01  -5.277016055361e+01 
1 -7.565503772576e+01   1.105015491025e+01   3.457196490777e+00 
1  1.572034750971e+01  -7.901838297136e+01   2.413810695629e+01 
1  4.610720015462e+00  -2.533766852851e+01  -3.321511169542e+01 
1 -7.139488684939e+00  -1.463143380675e+01  -2.061456061120e+01 
12
 Atoms. MD step: 32000
1 -8.218818584959e+01  -2.892450696274e+01   5.672928445041e+01 
1 -5.439096816260e+00   4.488217902120e+01   1.599388482608e+01 
1 -1.216973829272e+01  -2.182814751536e+01   6.803177742435e+01 
1 -1.868846176476e+01   2.997989821314e+01   3.868372243169e+00 
1 -2.287313819247e+01   8.284325510630e+01  -9.017392359375e+00 
1 -3.423941273215e+01   3.301995282097e+01   2.281463048215e+01 
1  3.682474154109e+00   3.780528629293e+01   4.081316915518e+00 
1  4.328361165611e+01   1.284962349776e+01  -2.409853671765e+01 
1 -6.973455742202e+01  -1.773837457706e+01  -1.192861006019e+01 
1  3.344805251294e+01  -7.693458260611e+01   2.448479653194e+01 
1 -8.163214711336e+00   2.250840825993e+01   4.235003802334e+01 
1 -5.230726121115e+01  -5.560008021770e+01   4.946810297757e+01 
12
 Atoms. MD step: 33000
1  2.043759317263e+01  -1.015653753698e+01  -6.182263828218e+01 
1  2.669144189004e+01  -7.444918342252e+00   3.714954379362e+01 
1 -4.501255419247e-01  -1.563599864970e+01   9.269427093781e+00 
1 -1.962463516149e+01  -1.216859851218e+01  -3.703748295475e+01 
1  1.129690161421e+02   1.773160011692e+01   4.799663952649e+01 
1 -4.189949564831e+01  -1.813545910950e+01   6.230078139147e+01 
1 -2.249241204149e+01   3.333478329532e+00   1.740517641149e+01 
1  6.985908959390e+01  -5.962569846592e+00  -4.599422914017e+01 
1  6.626373627099e+01  -1.122837310324e+01   1.715406435415e+01 
1 -1.836901337084e+01   1.364592150525e+01   8.908855798332e+00 
1 -4.241438635086e+01  -3.283448241162e+01   4.878243927702e+01 
1  2.729155607966e+01  -3.066823446709e+01   2.630349652730e+01 
12
 Atoms. MD step: 34000
1  5.021117097120e+00  -2.275631854955e+01   3.585349923523e+01 
1  4.730778477776e+01  -1.472400495386e+01  -5.773642126090e+01 
1  1.814626010992e+01   2.787591998543e+01   1.566555241820e+01 
1  2.552001741412e+01  -4.464485209715e+00  -4.334579351260e+00 
1 -4.562173996454e+01  -2.760981478311e+01   6.830240736106e+01 
1 -1.033427660776e+01   1.227788199156e+01   2.479478465121e+01 
1 -8.899262662539e+00   1.096410478684e+01  -2.045732181685e+01 
1  2.727034963941e+01  -6.683720947492e+01  -7.708857745706e+01 
1 -1.905287534393e+01   7.910240883941e+01   2.625193151466e+01 
1 -7.242479811749e+01   1.999702612743e+01  -5.658379974465e-01 
1  5.403510788053e+01   1.547671097130e+01   3.450724663063e+01 
1  1.900436994758e+01   1.550740793037e+01  -4.949839485099e+00 
12
 Atoms. MD step: 35000
1 -4.543255543481e+00  -2.596461020045e+01   2.223817272902e+01 
1  5.662163504109e+00  -2.178373579512e+01   4.439233384501e+01 
1 -6.038430402591e+00  -2.185048982035e+01  -3.056652390035e+01 
1 -1.955251945823e+01  -1.936648646605e+01   3.196954173932e+01 
1 -3.836118034312e+01  -1.549913150416e+01  -2.831639508817e+01 
1 -4.119971542723e+01  -9.706495595431e+00  -1.511598452595e+00 
1  1.940456127847e+01  -1.994185023834e+01   6.251924243374e+01 
1  5.278716335775e+01   3.747949534972e+01   2.235268486847e+01 
1  1.894507059728e+01   4.786391444384e+01  -4.940373824212e+01 
1  3.144719626256e+01   3.100376372489e+01   2.594335275845e+01 
1 -1.006982173353e+01  -4.524219025421e+00  -7.506181104567e+00 
1  1.366045374730e+01  -1.072537291738e+00  -4.841947372476e+01 
12
 Atoms. MD step: 36000
1 -6.334347094381e+01   1.933510862483e+01   3.546530710752e+00 
1  3.929247846416e+01   1.515763577203e+01   9.141619435767e+00 
1 -1.280330066758e+01   2.488670546683e+01   3.226151399501e+01 
1 -5.866526922404e+01  -3.115572061125e+01   1.159643449724e+01 
1 -1.247527655665e+00  -2.990095296154e-01  -4.377885203524e+01 
1 -3.749668786547e+01   5.050956576560e+01   4.275870059653e+01 
1  4.956153134899e-01  -4.549136010732e+01   4.621323979257e+01 
1 -3.111349830795e+01  -1.408947547247e+01  -1.619496068431e+01 
1 -3.032067087753e+01   3.344583275264e+00   1.408363327119e+01 
1 -2.325183511332e+00  -3.640786075953e+01  -6.501297887533e+01 
1 -2.354288730137e+01  -3.672565162237e+00  -4.178740763103e+00 
1 -1.059133217536e+01  -8.667298390789e+00  -1.197963554780e+01 
12
 Atoms. MD step: 37000
1  3.160209019281e+01  -7.003681350798e+01   6.917201826085e+00 
1 -2.228432426426e+01   3.996363791973e+01  -6.786742400715e+01 