12
 Atoms. MD step: 0
1 -6.610085898997e+01   7.083600934888e+01   6.533814645721e+01 
1  7.465336605873e+00  -7.219004755346e+01   2.495313829011e+01 
1 -1.132018421816e+01  -3.677704352613e+00   6.232255431947e+01 
1 -5.510359259102e+01  -1.534475690951e+01  -8.577217568351e+00 
1  3.537603854538e-01   5.684854111635e+01   1.248785577188e+01 
1  2.555447169043e+01   4.338019884497e+01   7.285143226611e+01 
1 -4.782904092367e+00  -5.858598343808e+01   1.694139546728e+01 
1 -6.591486621077e+01   1.278986068007e+01  -3.627727346113e+01 
1  5.613318727319e+01  -5.536176051131e+01   7.661050419681e+01 
1 -4.789271451693e+01   7.693469959612e+01  -3.553440809440e+01 
1  3.433357907402e+01   6.304927109636e+01  -7.689863272802e+01 
1 -5.237282525819e+01  -1.236360124735e+01  -5.449088440958e+01 
12
 Atoms. MD step: 1000
1  5.360251038433e+01  -2.843849830982e+01   2.730011841038e+01 
1  7.642390264729e+00  -1.399475717076e+01  -1.505983471017e+01 
1  2.833252742752e+01  -2.234857053574e+01   5.206652429403e+01 
1 -1.488910278942e+01   2.507504811954e+01   2.936123145396e+01 
1  7.679434995937e+01  -4.337972459836e+00   4.122985570571e+01 
1 -3.813045551631e+01  -4.197510443703e+01  -3.401181586372e+01 
1  1.907784322131e+01   4.825688559084e+01   2.661951937967e+01 
1  5.272780551478e+01   5.479949787036e+01   3.148684332893e+00 
1 -1.958400251829e+01  -8.361994371333e+00   1.789348024683e+00 
1 -6.768244574727e+01  -3.908517177672e+01   3.519518372358e+01 
1 -2.501485172912e+01  -2.654249821312e+01   1.165141995224e+01 
1 -6.407557259660e+00   5.239158152614e+01  -2.293501066092e+01 
12
 Atoms. MD step: 2000
1 -4.857015840504e+01   5.532598851948e+01  -6.874998755511e+00 
1 -1.113038690668e+01  -2.008070120356e+01   6.364919529806e+01 
1 -3.457415694079e+01  -8.974550460503e+00   6.569046801803e+01 
1 -4.335384783900e+01  -1.937070659458e+01   1.028146807730e+01 
1  6.181853813647e+01  -8.951521369992e-01  -4.658890728371e+01 
1 -3.687235847492e+01  -5.686621401801e+00  -5.264384157829e+01 
1 -5.547013850477e+00  -5.357795379657e+00  -1.673363248009e+01 
1  2.118114339947e+01  -3.719188386876e+01   5.476550076016e+01 
1  2.114091525871e+01  -7.026630967141e+01   3.831308461831e+01 
1 -3.630462690652e+01  -8.308786131998e+01   2.844964193260e+01 
1  6.362798145463e+00  -4.248983816529e+01  -4.557380304603e+01 
1  1.473869422368e+01   2.868863220794e+01   1.280379225105e+01 
12
 Atoms. MD step: 3000
1 -1.872605009357e+01  -2.747149390391e+01  -1.212833416853e+01 
1 -1.170855936932e+01  -3.391569016234e+01   5.173205282241e+00 
1  3.767838466788e+01  -1.628907955082e+01   3.780431579119e+01 
1 -2.877288498519e+01  -4.429410338103e+01  -3.475887614542e+01 
1  7.264418510175e+01  -1.426876624884e+01   3.139190720274e+01 
1 -3.499038065173e+00  -3.118184359053e+01  -9.371790776723e+00 
1 -5.802682646823e+01  -5.619171131528e+01  -2.679822502528e+01 
1  1.490030759571e+01  -5.540109070856e+01   1.908492676923e+01 
1 -3.387515999173e+01  -3.116778738927e+00   1.491265504364e+00 
1 -2.901508279765e+00  -3.825455519233e+01  -1.667427157857e+01 
1 -5.673408519223e+01  -2.757930170130e+01   2.577830790043e+01 
1 -1.741956525625e+01  -4.534422475758e+00   4.349807806580e+01 
12
 Atoms. MD step: 4000
1 -2.346634091341e+01  -3.486941104656e+01   9.820145109706e+00 
1 -2.520941680172e+01   6.312183789375e+00  -6.009879410057e+01 
1  2.527359849011e+01  -2.845174860586e+01  -3.361848499347e+01 
1  3.676660815039e+01   4.574721941294e+01   2.902751728505e+00 
1  1.466085657641e-01   4.697792703388e+01  -1.181690516987e+01 
1  3.245572911942e+01   2.900844728913e+01   1.218178842685e+00 
1 -2.162719702636e+01   2.280147821711e+01   5.609747705425e+01 
1 -4.229030710991e+01   3.448579582905e-01  -3.383048883440e+01 
1  2.787964092735e+01   1.026835683440e+01   3.686140160287e+01 
1  5.467027306350e+01  -2.986868288611e+01  -1.133500669740e+00 
1  3.087824619085e+01  -3.621934041752e+01  -2.659556232788e+01 
1  7.104749457354e+00   2.027138872311e+01  -1.394252933542e+01 
12
 Atoms. MD step: 5000
1 -4.106798617502e+01   3.142619781466e+01   2.250210787196e+01 
1 -1.834293761084e+01  -1.456207137458e+01  -4.540165403504e+01 
1 -3.858775288048e+01   5.504048426568e+01   1.388452589085e+01 
1 -1.656942672885e+01   1.162321223365e+01   2.705156801439e+01 
1 -8.022561732486e+01  -7.765409716798e-02  -5.516374909292e+01 
1 -2.125329636994e+01   3.599567546556e+00  -3.237258643925e+01 
1  2.133791417763e+01   6.760045010841e+01   1.665095072286e+01 
1 -1.149269901361e+01  -3.816899143781e+01  -1.470993961678e+01 
1  4.182177393328e+01  -1.174384192121e+01   2.492248576081e+01 
1  3.430351764789e+01  -3.318193375826e+01   1.528630394846e+01 
1 -1.194341769405e+01  -1.183265257246e+01  -1.532019689012e+01 
1  2.867882992338e+01   5.249906675902e+00  -1.115155569647e+01 
12
 Atoms. MD step: 6000
1  2.769409816366e+01  -4.571331211106e+01   3.304109218939e+01 
1  6.226871602690e+01   9.325262355628e+01   7.756892137500e+01 
1  5.664636034472e+00  -3.143052594269e+01   3.450576279823e+01 
1 -8.778322375123e-01  -3.846039648103e+01  -2.610835309762e+01 
1  4.998963349742e+01  -5.975000211285e+01   4.489698303721e+01 
1  3.768774793845e+01   8.181355587462e+01   1.102602078807e+01 
1 -3.369329624286e+01   3.880832936167e+01  -1.678438719796e+01 
1 -3.320825863558e+01   4.198807749784e+01  -1.299556634984e+01 
1 -9.068446604783e+01   4.087904958681e+01  -3.425995413254e+01 
1 -5.842051846047e+01  -1.719993401033e+01  -1.611216712927e+01 
1 -1.546073064407e+01  -5.941391332196e+01   3.060284404497e+01 
1  2.765560682434e+01  -9.828074558766e+00   4.020773376696e+01 
12
 Atoms. MD step: 7000
1 -3.413377312952e+01   2.476479548500e+01   2.254895596890e+01 
1  5.578019704186e+01  -3.782049722538e+00  -1.293594758782e+01 
1 -3.971101915521e+00   5.417965458598e+00  -6.677642170266e+01 
1  7.776549599549e+01  -2.899670477176e+01  -1.554286225616e+01 
1  5.403587956417e+01  -1.391711023728e+01  -1.915996566338e+01 
1  4.702329563738e+01   4.445297934053e+00   3.670471910109e+00 
1 -6.222905218883e+01   1.754242081565e+01   2.472193808158e+01 
1 -1.329438757305e+01  -4.173265025268e+01  -2.286345212151e+01 
1 -1.592890876676e+01  -4.796188845120e+00  -8.790305211509e-01 
1 -3.886313515987e+01   4.646526862428e+01   2.344438394369e+01 
1  4.870945590168e+00   3.101271198282e+00   1.040272476709e+02 
1 -1.404873015529e+01  -9.560557797018e+00   5.312882625646e+01 
12
 Atoms. MD step: 8000
1  1.813819694743e+01  -1.640519409881e+01  -7.776422148870e+00 
1  3.258897996104e+01  -5.909311786121e+01  -2.860322323680e+01 
1  1.766850545005e+01   1.244468032819e+01   3.407588939341e+01 
1 -1.800280712926e+01   4.707203683844e+01   1.251311184171e+01 
1 -1.249255097166e+01   1.500825138630e+01  -9.005414546814e+01 
1  3.493188896481e+01  -5.614211630269e+01   7.483534838458e+00 
1 -1.416591464170e+01  -6.260456571367e+01  -7.821751001084e+01 
1  3.624634431265e+01   5.500432366001e+01  -7.225996554572e+01 
1  4.231311293399e+01  -5.736442936512e+01   1.614995277890e+01 
1 -4.931570281405e+01   2.167049187633e+01  -9.264924648585e+00 
1 -2.583771712709e+01   5.838987871249e+00  -6.892520370004e+01 
1 -5.895028998874e+00   5.344402282518e+01  -4.313066803516e+01 
12
 Atoms. MD step: 9000
1  4.164272677262e+01   4.534796854026e+01  -6.961588926630e+00 
1  8.691901004335e+01  -1.740969647539e+01  -3.422875512915e+01 
1  1.174427723806e+02   6.351110589904e+01   1.247621666266e+01 
1  1.291444878326e+01   1.189479555671e+01   4.918519673975e+01 
1 -4.030192750307e+01   3.499130333062e+01  -2.964700947076e+01 
1 -1.804334674571e+01  -5.004021412260e+01  -2.061610444297e+01 
1 -9.840124723742e+01  -2.193493326053e+01   4.957846349366e+01 
1 -3.534878956555e+01   5.733458321793e+01  -2.144812908320e+01 
1 -6.206676684542e+01  -1.824095586748e+01  -5.842759204129e+01 
1 -7.474218325301e+00  -6.459109255214e+00  -5.606091312822e+01 
1 -7.334984142737e+01  -3.986108707434e+01  -3.930943031932e+01 
1 -6.967875290617e+00   3.246444715972e+01   3.759842083329e+01 
12
 Atoms. MD step: 10000
1  3.597786536808e+01  -6.216136455566e+00   5.403926519473e+00 
1 -1.006118355085e+00  -2.316214608582e+01   1.769289560043e+01 
1  9.101544335705e+00   3.158799486844e+01   3.576409144339e+01 
1  5.446657040929e-01   3.223972761077e+01  -1.258809649191e+01 
1 -1.431574563393e+01   1.433006934745e+01   2.253035340054e+01 
1  8.911830248078e+00  -5.456790912057e+00  -1.160286921874e+01 
1 -3.210001111799e+01  -6.983929470933e+01  -1.703728037740e+01 
1  7.015762926406e+00   2.879260611602e+00   2.111076000528e+00 
1  8.949550096057e+00   2.284108885877e+01  -1.858629753783e+01 
1 -1.086873481854e+01  -1.240667056626e+01  -2.269896297198e+01 
1 -1.495538635458e+01   2.701063879033e+01  -6.399384355975e+01 
1  4.290842779394e+00   4.251930903463e+01  -4.003616932949e+01 
12
 Atoms. MD step: 11000
1 -6.534747538003e+00   2.609310341026e+00   5.709035658250e+01 
1  1.791134851027e+01   3.065257756967e+01   7.474019120661e+01 
1  2.953194506963e+01  -3.952310612404e+01   5.394621342890e+01 
1 -1.108532065995e+01  -3.860469830805e+00  -3.262252493908e+01 
1 -2.351473385664e+00   3.259455237849e+01  -1.187815614518e+01 
1 -3.038007137488e+00   9.016917077414e+01  -5.007859269679e+01 
1 -8.051854694307e+01  -2.453035649767e+01  -4.554990409683e+01 
1 -4.438778348814e+00   5.055512124759e+00   7.724519516439e+00 
1  3.661461587855e+01   4.504286292112e+01   7.936298233029e+00 
1 -3.464945633387e+01   4.541004337578e+01  -2.716119565083e+01 
1  1.760965038247e+01  -5.269114184323e+01  -4.405662061796e+01 
1  3.853848875966e+01  -3.041400007798e+01   1.264332830804e+00 
12
 Atoms. MD step: 12000
1  1.218151046543e+01  -3.608360042574e+01  -9.287577512188e-01 
1  5.985331111663e+01   2.401263200904e+01   9.175092887247e+00 
1  6.604321902824e+01  -2.493316723421e+01   7.517703599641e+01 
1  2.405366629122e+01  -1.846598710660e+01  -2.194574090971e+01 
1  1.332553845611e+01   2.810803459593e+01  -6.629924155885e+01 
1  7.936826901224e+00   1.866194709664e+01   4.004832406642e+01 
1 -1.924911165688e+01  -3.532944251584e+01  -3.580767681442e+01 
1 -6.778252170427e+01  -3.679910937391e+00   3.807239415247e+01 
1  2.036625330476e+00  -1.584888944054e+00   1.461925632743e+01 
1  4.464730790893e+01   1.678052387312e+01   2.590895606919e+01 
1 -1.816468167452e+01  -1.834625868596e+01   2.535589352594e+00 
1 -1.587083795324e+01   3.729618085375e+01  -1.244178533234e+01 
12
 Atoms. MD step: 13000
1 -5.175963581353e+01  -2.969565531961e+01  -3.086955090341e+01 
1  6.094468007556e+01  -1.445276408161e+01  -5.592310235268e+01 
1 -2.101099253470e+01   2.941371749138e+01   1.992824581553e+01 
1 -2.287084098752e+01  -1.468285359133e+01  -2.375197190298e+01 
1  3.078124545233e+01   4.808041402482e+01  -3.025818111439e+01 
1  5.444809049604e+01  -1.371197816750e+01   6.113150313300e+01 
1 -5.779723728823e+01   6.582466437774e+00  -6.231374946626e+01 
1  9.799796127553e+01  -5.528953305060e+01  -4.265573339509e+01 
1  2.387548306420e+01   3.134941525470e+01   4.255024375070e+01 
1  2.759613780206e+01  -2.830784467803e+01   3.193448462735e+01 
1 -5.843797750171e+01  -9.107211056733e+00   2.369767466541e+01 
1 -1.704598478935e+01  -1.919011346328e+01   1.358558673553e+01 
12
 Atoms. MD step: 14000
1 -5.029708765478e+01   7.659087456032e+00  -3.157065180215e+01 
1  3.536419385816e+01  -1.692047827694e+01  -3.475559490028e+01 
1  5.135685225825e+01   2.014890827172e+01   1.818998238354e+01 
1 -2.096743188476e+01   4.941167650151e+00   4.376118545271e+00 
1  2.311328311200e+01  -2.673503152195e+01   3.999109389138e+00 
1 -7.772525457720e+00  -5.482784852808e-02  -2.652397014148e+01 
1  2.913930329911e+01   4.719968151645e+01  -2.252007015086e+01 
1  7.380107188037e+01  -7.162420503182e+00   3.036172281242e+01 
1 -2.892803876457e+01  -3.170131337803e+01  -4.584284991329e+00 
1  1.436718829996e+01   1.199511169176e+01   1.745199181950e+01 
1 -3.573434642188e+01  -5.978416094564e+01  -3.426100195761e+01 
1 -2.612547684327e+01   2.211842065503e+01   5.370309203044e+01 
12
 Atoms. MD step: 15000
1 -2.241608859418e+01  -5.640369830808e+01   1.824739707326e+01 
1  9.526031408950e+01   4.284907163732e+01  -2.292494291884e+01 
1  4.698275489909e+01   4.139501405235e+01  -1.912906926183e+01 
1  7.064278486421e+01   6.871335392836e+01   9.974682385801e+00 
1 -7.714621281684e+01  -8.254208626238e+00   3.529939032857e+01 
1  6.005678086030e+01   3.068164541966e+01   5.605253191289e-01 
1 -4.153828753766e+01  -4.915155586088e+01  -3.761197449975e+00 
1 -4.145461330198e+01   3.871511969985e+01   2.645582550085e+00 
1 -1.744021441457e+01   8.085422240018e+01   1.789364377603e+00 
1 -1.490187461228e+01   3.072448120270e+00   7.612526433021e+00 
1 -4.035700859364e+01   4.179697335824e+01   9.036476908109e+00 
1 -5.504644879239e+01   1.781076025974e+00   3.335609270051e+01 
12
 Atoms. MD step: 16000
1 -1.898303835069e+01   1.024035636980e+01   5.268943465891e+00 
1 -2.478503599288e+00  -8.679004695038e+00   5.522790445508e+01 
1  4.024918484787e+01  -5.761733366999e+01  -4.188705294799e+00 
1 -5.757043752991e+00   5.277196316400e+01   3.016659064921e+01 
1  3.487112651664e+01   1.664868178215e+01   3.588488038184e+01 
1  1.543371884571e+01   1.725089754906e+01  -1.294765099410e+01 
1 -4.861353861223e+01  -4.597170000199e+01  -4.186345287080e+01 
1  1.595614332832e+01   6.633303720715e+00  -3.745401127419e+00 
1 -3.684647615903e+01   8.743059613228e+01   6.498305018499e+01 
1 -1.475734674025e+01   3.132831138283e+01   1.080428486358e+00 
1  1.227205323497e+01   4.612814343542e+00  -4.830398611969e+01 
1  4.191604171799e+00  -4.526604824456e+01  -7.991545188310e+00 
12
 Atoms. MD step: 17000
1 -5.742354780220e+01   3.132259554044e+01   4.906700059025e+00 
1  1.967450004349e+01  -4.241533632541e+01   7.745673450539e+00 
1 -8.993322554909e+00   1.370830821185e+01   2.980472825368e+01 
1  2.978601780830e+01  -8.879856977006e+00   2.126200124421e+01 
1  9.844600969981e+01  -1.788110002788e+01   2.962726032015e+01 
1 -3.375720785807e+01  -7.079114701525e+00  -3.580278403343e+01 
1 -3.090133488331e+01  -6.547297967144e+01   7.592040104987e+00 
1  1.169474299358e+01  -4.555572552143e+01   7.710027514051e+01 
1 -9.855813702242e+01  -1.615988822019e+01   5.923838019845e+01 
1 -3.957437057543e+01   1.296774195878e+01   3.061847787104e+01 
1  2.889559711342e+01   4.043640672140e+01  -2.395639162731e+01 
1  8.182214746245e+00  -6.462507126950e+01   7.133992856174e+00 
12
 Atoms. MD step: 18000
1  3.053558321999e+01   2.995840386457e+01  -2.030831586024e+01 
1 -1.146604437006e+01   4.023728116502e+01   2.253480423832e+01 
1 -2.498340846299e+01   3.041426513956e+01   3.664691204277e+01 
1 -3.219682322285e+01   5.899395033742e+01   7.836474691625e+01 
1 -2.595217768611e+01   1.823572287295e+01   4.856809869672e+01 
1  3.724771219621e+01   2.117763832475e+00  -2.768991259928e+01 
1  2.559466418410e+01  -1.933967221759e+01   5.747607390300e+01 
1  5.749135165857e+01  -2.621337820999e+01   2.592657551221e+01 
1 -2.037540364476e+01  -3.497763045569e+01   4.597450655631e+00 
1 -2.197408302198e+00  -1.426835296452e+01   3.794215130279e+01 
1 -2.553579173580e+01   6.445876852246e+01  -6.133345920900e+01 
1 -1.370535577520e+01  -4.775490308288e+00  -3.171377999681e+01 
12
 Atoms. MD step: 19000
1  6.056962302999e+01   7.438994759094e+00   2.114717473531e+00 
1  3.542751952494e+00   2.638060132151e+01  -1.747955119128e+01 
1  5.230100979858e+01  -4.644266456807e+01  -1.002849241211e+01 
1  3.748557080058e+01  -2.664441916981e+01  -4.994189674207e+01 
1 -1.375932733143e+01  -4.320592743334e+00   1.787174485630e+01 
1 -5.637128183202e+00   8.338910627100e+00   7.301332820512e+00 
1 -4.918342452042e+00   2.634677564335e+00   8.074459103130e+01 
1  2.875535480108e+01   2.613490894975e+01  -3.477742798911e+00 
1  6.889302224398e+01  -5.173967064660e+01   1.262036169962e+01 
1  5.927289680888e+01  -1.798211097239e+01   3.112679415733e+01 
1  1.328140711433e+01   2.975121405189e+00  -9.483163093136e+00 
1  1.787026934270e+01   7.067196147164e+01  -6.421652721417e+01 
12
 Atoms. MD step: 20000
1 -2.609662029295e+01   3.746816253018e+01   1.732239246045e+01 
1  2.977302477723e+01   2.393880425737e+01  -5.347175343890e+01 
1  6.260830848408e+00  -7.801714201943e+01  -3.962965157226e+01 
1  2.906458429833e+01   2.845456548472e+01   6.738346209624e+01 
1  2.827756212791e+01  -2.227751318584e+01  -1.886342395898e+01 
1  1.581348654540e+01  -2.579607469969e+01   1.390374454639e+01 
1  4.151072693297e+00   1.991977336479e+00   1.054159900237e+01 
1 -2.019425836499e+01  -5.458329113410e+01   4.937450433298e+01 
1 -4.386942432829e+01   1.940891289699e+01   4.721822084838e+01 
1  7.709136936262e+00   1.561104828523e+01  -1.664104050281e+01 
1  5.411182506115e+01  -7.650806442950e+01   2.365721025874e+01 
1  3.303346021654e+01  -2.339249981039e+01   9.441304597604e-01 
12
 Atoms. MD step: 21000
1 -2.083895125734e+01  -3.815119381836e+01   6.155779792193e+01 
1 -6.616360740093e+01   3.303025326151e+01   4.332974452767e+00 
1 -6.437177199342e+01  -5.661449023654e+00  -6.072329971503e-01 
1  5.947696888995e+01  -4.584255640763e+01   2.931556881489e+01 
1 -1.509589645881e+01  -5.554274201752e+01   1.433445493185e+01 
1  2.868716406113e+01  -3.259142347610e+01  -5.330669991536e+00 
1 -4.471562031209e+01  -1.863830494011e+00  -1.373247289004e+01 
1 -3.558713627353e+01  -2.274658538060e+01   5.267095432395e+01 
1  3.964029705179e+01   3.691961657855e+00   3.995889872708e+01 
1 -2.209270560894e+01   4.739400107550e+01  -5.787641186428e+00 
1  4.555302968890e+01  -6.170852514229e+00  -4.087857013501e+01 
1 -5.814369287566e+01   1.131985942462e+01   7.188220848896e+00 
12
 Atoms. MD step: 22000
1  1.924670578190e+01   1.575673655122e+01  -3.474368373477e+00 
1 -1.401038507409e+01  -1.222088485557e+00   5.066235710159e+01 
1  3.434270851445e+01   5.874964683356e+00  -2.702000869624e+01 
1 -5.099779773313e+01   3.453530458258e+00  -2.876263113256e+01 
1 -3.444643876778e+01   2.537531730835e+01  -4.588347948585e+01 
1 -1.048797999069e+01  -2.181199868576e+01   7.872240009871e+00 
1  8.182007504307e+00  -3.891496036141e+01  -5.350846685322e+01 
1  7.014864941595e+00   6.809937338410e+01   2.537653897150e+01 
1  1.456000932270e+01  -4.775531520500e+01   1.453394078435e+01 
1 -3.357542530212e+01  -2.698447950111e+01   2.226165686895e+01 
1  5.119220106164e+01   2.039764064146e+01   6.293879628032e+01 
1 -4.240871535745e+01   3.608226245937e+01   4.313860228215e+00 
12
 Atoms. MD step: 23000
1  2.135572942682e+01  -4.969100051856e+00  -2.302976059287e+01 
1  4.514805296463e+01   3.461163303528e+01   5.001407953201e+01 
1  1.425800356027e+01   2.379681025257e+01   2.872187490906e+00 
1 -1.420768251894e+01  -2.323443918285e+01  -3.095937338085e+01 
1  2.474613880627e+01   1.272079456953e+00   2.208119253143e+00 
1  1.098533702851e+01   1.200354328495e+01   9.127307629388e+00 
1 -5.060214892015e+01  -3.954749859141e+01  -1.036553911285e+01 
1  3.809730565984e+01   3.877239205029e+01  -3.412069662389e+01 
1 -2.916954793058e+00   1.437924180793e+01  -6.740158501341e+01 
1  4.409024841586e+01  -2.474534919466e+01   9.428635672910e+00 
1 -2.286100651476e+01  -1.926381322071e+01  -3.093268593053e+00 
1 -3.297029089672e+01   1.607468825816e+01   3.822578251873e+01 
12
 Atoms. MD step: 24000
1 -5.179145914395e+00   3.976305683925e+01   4.447437137424e+01 
1  4.899794595972e+01   1.369202207233e+01   5.857623935916e+00 
1  2.284586759393e+01   4.817002799792e+01  -2.567144504511e+01 
1  2.950755178763e+01   1.106764230313e+01  -1.530355357831e+01 
1 -7.163282523859e+01   2.893526925709e+01  -4.852648214460e+01 
1  5.480882720413e+01  -3.402959115653e+00   3.227180638201e+01 
1  6.016009392230e+01   3.160428971878e+01  -7.708682834831e+01 
1 -2.579846052987e+01   2.361430163005e+01   5.015951962264e+01 
1  3.371894930354e+01   6.609587562621e+01   7.889860226795e+00 
1 -1.364110458364e+01  -2.386232068883e+00   4.569069337467e+01 
1 -1.929517634261e+01   9.433549860872e-01  -5.734739494637e+01 
1  1.210481193800e+01   4.342764885427e+01  -2.274444941203e+01 
12
 Atoms. MD step: 25000
1  4.776407740373e+01   5.874272486087e+01  -6.190959560670e+01 
1  2.055801119552e+01  -4.164111862174e+00   3.411056338049e+01 
1  4.573105728922e+00   7.855205663010e+01   1.295328367407e+01 
1  6.240163586511e+01  -1.280303326764e+01   3.709712507221e+01 
1 -3.365542416548e+01   4.937047068876e+01   1.141786984398e+01 
1  2.535087642613e+01   2.186007179666e+01  -9.315551755513e+00 
1 -2.121152496707e+00   5.894385781952e+00  -5.452615943226e+01 
1  3.989639172747e+01  -2.360032436031e+01   6.082235209801e+01 
1  5.049847972621e+01  -3.083808595081e+01   2.594584440014e+01 
1 -1.887991998180e+00  -3.704333451279e+01   1.805952716832e+00 
1  4.344164800839e+01   5.776930839648e+01   5.124796681322e+00 
1  4.315283912061e+01  -4.708002960932e+01   1.349904833419e+01 
12
 Atoms. MD step: 26000
1  8.802804590966e+00   3.529967950103e+01  -4.289161419621e+01 
1 -2.168778247602e+01  -4.554567009470e+00   3.973479760645e+01 
1 -1.468769711298e+01   4.135556394573e+01   2.080593940438e+01 
1  2.897313509402e+01  -3.327314027822e+01   6.098334867132e+00 
1 -4.486022956398e+01  -5.161899359033e-02  -1.943005307566e+01 
1 -1.677473807117e+01  -1.575755148414e+01  -2.642200293448e+01 
1  1.905705884659e+01   1.914484830889e+00   4.106721394026e+01 
1 -5.556891883105e+01  -2.346319832803e+01  -2.911023410101e+01 
1  5.147480811234e+01  -1.162532223277e+01   1.414646365717e+01 
1  1.478221909267e+01   6.880836479191e+01   3.782295691546e+01 
1  5.070151676489e+01   2.652939754164e+01  -8.819489820487e+00 
1 -1.751861139055e+00   3.669228692978e+01  -4.499117916021e+00 
12
 Atoms. MD step: 27000
1  3.570352120604e+00   2.979193659796e+01  -2.973219014471e+01 
1  1.420611047508e+01  -3.710885962412e+01  -1.157230376423e+01 
1  2.932722455087e+01   1.753111327395e+01   3.631684563456e+01 
1  1.494543233947e+01  -6.857905648171e+01  -2.496496093119e+00 
1 -7.552599221327e+01   2.844723746196e+01  -7.163792707632e+00 
1  2.429603896212e+01  -3.215661728819e+01  -1.172311329729e+01 
1 -9.137595723638e+00   3.465513447582e+01  -2.180719405223e+01 
1  3.887460849189e+01  -5.919729180965e+00  -2.745266330296e+01 
1 -9.183061347403e+00   1.700885055779e+00  -6.323320500429e+01 
1 -9.440784080252e+01  -1.298786195257e+01  -2.897253568393e+01 
1  1.470367887563e+01   6.318809671608e+01  -7.235460362901e+01 
1  4.681745165101e+01  -5.915341734387e+01   4.129196811693e+01 
12
 Atoms. MD step: 28000
1 -1.771274579134e+01  -1.493393830587e+01   2.021797506574e+01 
1  3.726793419994e+01   4.858741234794e+00  -8.639086294313e+00 
1  2.153170032481e+00   1.631454346702e+01  -5.105884232461e+01 
1  8.014435613656e+00  -2.780344758723e+01  -4.363969428359e+01 
1 -8.500754356018e+00   5.626642417803e+01  -5.497021393250e+01 
1  7.317384084564e+00   4.430716390569e+01  -1.494656823898e+01 
1  5.848648394839e+01   3.124808267338e+01  -1.037304170351e+01 
1 -8.619787854779e+00   7.632039576397e+00   3.493632419076e+01 
1  2.558787718247e+01   5.423276175987e+00   5.067823783853e+01 
1  2.368861547633e+01  -7.118112360158e+00  -7.287221975845e+00 
1  4.241389690587e+01   3.243617841511e+01  -3.058178080265e+01 
1 -1.827192740213e+01   4.814181401972e+01   5.313196028425e+01 
12
 Atoms. MD step: 29000
1  2.608647684055e+01   1.291869027106e+01   1.252224308245e+01 
1  4.004996362487e+01  -4.873158900743e+01  -1.851650846948e+01 
1 -4.331411831146e+01   1.715324733420e+01  -1.064987297300e+01 
1 -3.713740133090e+01   1.673410812959e+01   1.895075312328e+01 
1  1.893532190592e+01   3.079483267016e+01   4.455786094908e+01 
1 -4.018943436973e+01   3.731656948175e+01  -8.909255938146e+00 
1  2.904759413519e+01  -7.513012965284e+00  -3.008787150278e+01 
1 -3.054230226406e+00   9.957709247194e+00   2.731234890957e+01 
1 -5.283822489446e+01  -4.880023485258e+01   4.330232216609e+01 
1 -9.702405695966e+01   1.422600352553e+01  -1.065045996261e+01 
1 -2.164228479087e+01   2.274120847192e+01   8.132403282349e+01 
1  5.195013728980e+01  -1.516685869857e+01   1.061277546303e+00 
12
 Atoms. MD step: 30000
1  1.932577785660e+01  -8.762648926716e+00  -5.557088978603e+01 
1 -5.209059992305e+00   1.881424383771e+00  -4.942637807822e+00 
1 -1.475048430481e+01  -3.224840166557e+01   1.125646689312e+01 
1  7.166596523590e+01   7.203620496115e+00  -2.217210894169e+01 
1 -1.868138512024e+01  -3.727356677385e+01   2.108445912703e+00 
1  6.133147026804e+01  -3.401561271707e+01   4.925072238184e+01 
1 -6.971900925469e+00  -8.830622235520e+01   1.599021925792e+01 
1  1.782283053598e+01   1.235208511247e+01   4.466083093623e+01 
1  4.326428603684e+01   7.164339389914e+01   3.608128347481e+01 
1  8.816366054358e+01   3.935825588370e+01   1.177919740820e+01 
1  3.233352517869e+00  -6.140011412919e+01   2.610270490975e+01 
1 -7.490735456905e+01   1.628441291393e+01   4.817211931952e+01 
12
 Atoms. MD step: 31000
1 -3.124227574184e+00   2.757293191722e+01   5.035771083030e+01 
1  7.377586734803e+00  -1.784601430206e+01   4.238626933255e+01 
1 -3.182623920017e+01  -3.991208084439e+01  -3.973258631355e+01 
1  4.108393628775e+01   1.963041810403e+01   3.233011694929e+00 
1 -1.980332511473e+01  -1.657525152871e+01   6.712698875749e+01 
1  3.931723760469e+01  -4.368813667745e+01   3.805003086758e+01 
1  1.004447356312e+01  -4.122302847962e+01   8.517951149748e+01 
1  3.793377528344e+01  -4.873939816944e+00  -4.875222272636e+01 
1 -1.754528537266e+01  -1.756912636798e+01   5.222014884415e+01 
1 -3.049965374177e+01  -2.597476251741e+01   4.544773962863e+01 
1  3.296294650019e+01  -3.110333144956e+01   1.569147962839e+01 
1 -2.231142030366e+01  -5.229480748994e+00  -5.113642014516e-01 
12
 Atoms. MD step: 32000
1 -4.086573804461e+01   3.974588470363e+01  -1.008184754814e+00 
1 -4.048886505954e+01   4.798301012221e+01   1.505259550520e+01 
1  1.722085983856e+01  -4.102793516444e+01  -4.350654472970e+01 
1  1.125720921377e+01   5.297937790002e+01   4.550856502451e+01 
1 -6.240572486879e+01  -5.463955722949e+00   3.208463946610e+01 
1 -6.939396802323e+01   5.418969589776e+01  -3.145649096676e+01 
1  1.282512856371e+01  -4.531638219220e+01   4.363570560661e+01 
1 -1.262209861379e+01  -1.676251182077e+01  -8.320431498424e+00 
1 -3.000057912462e+01  -2.166439292344e+01   6.523732068286e+00 
1  4.354318970248e+01  -4.081755234268e+01   1.691523176974e-01 
1 -5.259134796586e+01   2.709602442623e+01  -4.954984620005e+00 
1 -1.589029174166e+01  -1.415343389047e+01   3.248594272879e+01 
12
 Atoms. MD step: 33000
1 -1.329176827156e+01  -1.576375124384e+01  -8.249838220674e+01 
1 -3.316850296611e+01   2.144881186039e+01   1.393757636045e+01 
1  2.254473843679e+01  -1.612395001477e+01   1.105598075967e+01 
1 -2.866034104969e+01   9.060140997554e+00  -1.454682145397e+01 
1  6.772352621377e+01   6.769673238098e+00  -5.520656464684e+01 
1 -7.124058950502e+01  -3.369876428755e+01   2.255464523565e+01 
1 -1.779404047104e+01   1.888338663071e+01  -1.797122690545e+01 
1 -3.837912257308e+00   4.300488585635e+01   1.149627117379e+00 
1  5.544794156224e+00   2.870302747137e+01   2.769532708921e+01 
1  6.412906902988e+00  -8.747489717358e+00  -1.512814357568e+01 
1 -4.909714016554e+01  -1.082041639769e+01   4.775759653835e+01 
1  2.386920974655e+01   4.404975154840e+01  -5.254274108571e+00 
12
 Atoms. MD step: 34000
1 -5.558319079837e+01   8.959767188887e+00   3.128954396768e+00 
1 -9.429655580913e+00  -2.426331913184e+01   4.001892736969e+00 
1  1.260557296303e+01   4.191990468121e+01   9.255122756513e+00 
1  8.435722657433e+01  -4.457940824491e+01  -6.057914878958e+01 
1 -8.248490024431e+00  -4.130637714029e+00   2.283497394343e+01 
1 -1.546267889883e+01   3.678722655879e+01   1.081314736893e+00 
1 -1.611639796914e+00  -1.167347356859e+00   1.731333066261e+01 
1  4.617089378358e+01  -1.717268499867e+00  -3.910169915308e+01 
1 -2.561237994396e+01  -4.600165086672e+01  -5.538127439107e+01 
1 -1.815386257197e+01   7.939241893695e+01   2.933051534397e+01 
1  3.994999507055e+00   6.152733209469e+01  -9.192371273576e+00 
1  4.806663828745e+01   2.479898445699e+01   1.864112004097e+01 
12
 Atoms. MD step: 35000
1  5.729788731479e+01  -3.769410627162e+01   2.508270737526e+01 
1  2.962567586750e+01  -6.794006822736e+00  -2.458283246047e+01 
1 -1.579481487554e+01  -5.626414806691e+01  -1.117405853031e+02 
1 -8.608544811486e+00  -1.377478664958e+01  -3.842135027095e+00 
1  7.324703556668e+01  -6.452353523750e+01  -1.630099553252e+01 
1 -1.263630343731e+00   2.077743594137e+01   4.526695080177e-01 
1 -4.142707073543e+01   1.053806798442e+01   1.664641752554e+01 
1  1.853807307865e+01  -1.961376486491e+01   2.485584426430e+01 
1 -4.846752164448e+00  -8.669833515271e+01   3.165722090933e+01 
1  8.091345617204e+00   4.612923141935e+00   3.252488311186e+01 
1  2.995106700290e+01   3.329565818935e+01  -6.508430882123e+01 
1 -2.208317309629e+01  -5.487345513894e+01   1.638225298903e+01 
12
 Atoms. MD step: 36000
1 -5.940886994511e+01  -1.870410234856e+01  -2.351693970764e+01 
1  1.760040414648e+01   2.460657780474e+01  -3.378512483377e+01 
1  5.422997072846e+00  -4.596184220902e+01   1.403812505828e+01 
1  2.817758205487e+01  -1.111488265075e+02  -1.965051296547e+01 
1 -1.689712267837e+01  -4.089099618623e+01  -2.084278900118e-01 
1 -2.569224889761e+01   8.411872439768e+01  -6.392078160191e+00 
1  2.192454905812e+01  -1.066565983601e+01  -3.392484167397e+01 
1 -5.283077651787e+01  -6.452017709247e+01  -1.151145206465e+00 
1  1.458900188826e+00  -1.716187802587e+01   3.367149808405e+01 
1 -1.407430143166e+01  -5.169555931040e+01  -2.204904013498e+01 
1 -8.439102576531e+01  -6.378312831104e+00  -2.629232474198e+01 
1  2.433992099932e+01   5.071834005349e+00   2.581494328282e+01 
12
 Atoms. MD step: 37000
1  1.541887426130e+01  -9.788355156521e+01  -8.128019295556e+00 
1  2.319472638547e+01  -5.736217964396e+01  -7.239167697621e+01 