12
 Atoms. MD step: 0
1  3.150861410852e+01  -9.301571246868e+00   3.440920863491e+01 
1  3.508328597204e+01   3.130542196074e+01  -2.670203460945e-01 
1  1.635493210967e+01  -1.649546653923e+01  -7.127011558924e+01 
1  1.804583531854e+01   6.462043943370e+01  -1.491725894858e+01 
1  4.417688390860e+01   4.819906604440e+01   1.415514166277e+01 
1 -7.132316882148e+01   7.651424869577e+01  -7.405719155666e+01 
1 -1.328670785085e+01  -6.356731122936e+01   6.796569663401e+01 
1 -3.059735062394e+01   5.077208138384e+01  -7.361080571590e+01 
1  3.683351664953e+01  -4.219646942199e+01  -3.534456193641e+01 
1  3.678449794286e+01  -1.857920440701e+01   4.832674068319e+01 
1  6.395395420967e+01   6.335054235128e+00   1.839101851262e+01 
1 -2.666538682232e+01  -1.848475326079e+01   3.745135147559e+00 
12
 Atoms. MD step: 1000
1  4.130279662454e+01  -8.464527937714e+00   1.801210978578e+01 
1 -1.030339325647e+01  -3.379085935371e+01   7.161072338645e+01 
1  9.496177368261e+00   3.931772432750e+01  -4.403314674492e+01 
1  2.635953781545e+01  -4.232556789777e+00   6.615502461188e+01 
1  7.993374518528e+01  -1.733598108861e+01   1.143228938883e+01 
1  9.653376956030e+00  -3.712660804570e+01  -2.438450022227e+01 
1  4.149935864610e+01   2.098171134430e+00  -3.155609524290e+01 
1  1.912385300217e+01  -2.317327027797e+01   5.748438523722e+01 
1  1.720474237128e+01  -3.808190717579e+01   4.367124690317e+01 
1 -1.460638859403e+00   1.416449816842e+01  -5.209902517979e-01 
1 -3.668950295994e+01   3.869597885609e+01   6.040418494182e+00 
1  2.521348638553e+01   3.499812172985e+00   2.686242477334e+01 
12
 Atoms. MD step: 2000
1 -1.016227102753e+01  -2.179556444321e+01  -1.853384486955e+01 
1 -9.226928597757e+00  -4.064154234610e+01   7.144827829137e+00 
1 -1.592903558232e+00   8.184239075412e+00  -5.692741271559e+01 
1  4.967860192982e+01  -6.207520496856e+01   5.509686587345e+00 
1  4.409965612424e+00  -6.498331189722e+01  -2.670151830081e+01 
1  2.387623221153e+01  -1.387009385369e+01  -2.264854228853e+01 
1  2.356959837900e+01  -4.256577053028e+01  -4.311509697580e+01 
1 -2.320124125653e+01  -6.358713171299e+01  -3.572028659982e+01 
1  3.851595523692e+01  -3.271256374246e+01  -1.017552751590e+01 
1  5.050990250118e+01  -2.087697968305e+00  -3.981952196447e+01 
1  6.253420327534e+01  -4.677973781279e+01  -7.440049181844e+00 
1  3.103041046166e+01   2.885929792678e+01  -4.242704674247e+01 
12
 Atoms. MD step: 3000
1 -3.851207419915e+00   2.495157743119e+00  -4.133175293607e+01 
1  2.971456809121e+01   5.346642504182e+00   3.177526655531e+01 
1 -2.686160960894e+01   7.365626298882e+01   3.612036547033e+01 
1 -2.557183284113e+01   2.827208530636e+01   3.442257493488e+01 
1  8.928089048991e+01   4.644086899109e+00   2.592934073398e+01 
1 -1.414057195457e+01  -5.370114724707e+01   8.459224473642e+00 
1 -2.717263937562e+01  -1.071068216136e+02   5.729336403281e+00 
1  1.946293391574e+01  -5.377297640012e+01   2.636255062279e+01 
1 -9.109208677526e+00  -6.663741186349e+01  -1.151424129259e+01 
1 -5.595160522285e+01  -5.893190834724e+01  -3.768586211912e+01 
1 -1.035451582989e+02  -3.582895477078e+01  -5.010527535378e+00 
1  1.918133121195e+01   2.382617917814e+01   2.548077794592e+01 
12
 Atoms. MD step: 4000
1  6.228366712436e+00   2.078613213709e+01  -6.255352228443e+00 
1  1.615887841763e+01  -2.271299202785e+01   2.583940013349e+01 
1  9.724811187977e+01   3.221498995962e+01  -3.731277193102e+01 
1  7.742269888303e+00  -3.719337505650e+01   3.142970682304e+01 
1  2.482773359227e+01   9.778513397006e+01   1.012314390060e+01 
1 -8.492045908310e+00   1.635180714796e+01  -1.405571653594e+01 
1  2.327491746513e+01  -5.829734703782e+00   1.339321076067e+01 
1 -3.546984390881e+01  -3.914701941413e+01   8.517886270888e+00 
1 -4.383725354962e+01  -1.676457487200e+01  -8.622554231276e+00 
1  8.745615668056e+01  -2.044270790856e+01   5.413436697116e+01 
1  4.148955879811e+01  -2.145214137276e+01  -2.795579611809e+01 
1  2.429878719364e+01   5.159881336403e+01  -1.695256750273e+01 
12
 Atoms. MD step: 5000
1  4.975372619632e-01   5.325372599032e+01   3.777645093544e+01 
1  4.081518770239e+01  -2.688652658804e+01   8.526133699444e+00 
1 -5.769499779201e+01   1.344347164439e+01  -3.436717613137e+01 
1 -6.241986854258e+00  -3.550692635404e+01  -2.193658452299e+00 
1  4.521584107873e-01   1.486432611016e+01  -3.567980878088e+01 
1  6.995240427526e+01   1.237438227796e+01  -3.887438349268e+01 
1  3.014049545797e+01   6.491031627281e+00  -3.447344396873e+01 
1  2.012425061570e+01  -9.483422636793e+00   5.067285777162e+01 
1 -1.040544211503e+01  -2.305953443134e+01   5.497079706799e+01 
1  7.824402618411e+00   2.684749686558e-02   2.667238245475e+01 
1 -1.325570771137e+01  -2.165145427072e+01  -3.618142660898e+01 
1  6.848401377952e+01  -6.855344658909e+01   2.456770548555e+01 
12
 Atoms. MD step: 6000
1 -5.202889291352e+01  -2.723576024609e+01   2.767762508205e+01 
1  3.865039033675e+01   5.168487605996e+01  -1.011579195764e+02 
1  6.050472028456e+01  -2.648717997576e+01   4.381477001787e+01 
1  1.593190385657e+01  -9.580716069945e+01   1.099716638829e+01 
1 -2.145776551925e+00   3.359269339932e+01  -1.000552177611e+01 
1  7.970193817696e+01   5.499528049876e+01  -1.295195757115e+01 
1  9.665227649103e+00   7.784762701792e+01   1.432698513479e+00 
1 -5.900080258345e+00   8.879887156234e+00   1.916748687117e+01 
1 -2.408137225374e+01  -8.115501362765e+01  -1.686708775844e+01 
1 -2.401132582659e+01   2.082120605062e+00   1.035710041273e+01 
1 -3.083793738164e+01   4.503596334342e+00   2.229205735271e+01 
1  1.735146444934e+01   3.194514934666e+01   2.554690696146e+01 
12
 Atoms. MD step: 7000
1 -3.759094207512e+01  -1.175391098034e+01  -3.984096134619e+01 
1  1.801123733521e+01  -3.597901004645e+01  -1.901801285469e+01 
1  5.350762290664e+01   3.718669077611e+01  -3.462906129455e+01 
1  4.149235871012e+01  -3.019623631932e+01  -1.308694985310e+01 
1  7.310779192022e+00  -5.127937986905e+01  -1.247211927764e+01 
1  7.094894000169e+00  -3.386136486915e+01   2.988994678590e+01 
1 -1.934992131511e+01   2.800537427613e+01  -6.862242552601e+01 
1  2.620012835630e+01   1.373216202246e+01  -5.297265161788e+01 
1  2.203818519439e+01   3.203778239931e+01   2.025927257732e+01 
1 -1.773646455696e+01  -2.829284982836e+01  -3.473414127954e+00 
1  1.863586052781e+01   1.950875117691e+01   2.823733838994e+01 
1 -3.567347254736e+01  -1.954721515749e+01   2.528123586054e+00 
12
 Atoms. MD step: 8000
1 -2.322835140254e+01   6.995374846020e+01  -5.298827340519e+01 
1  3.922872033113e+01  -2.143083137517e+00  -3.730808337736e+01 
1  3.651769477863e+01   2.277432278123e+01   5.965805235534e+01 
1 -2.936028144421e+01   2.709122719778e+01   3.745931147107e+01 
1 -5.945208177355e+00  -1.632238382808e+01  -6.609646015790e+01 
1  4.898943507747e+01   4.371728913924e+01   4.804099278586e+01 
1  1.804474125660e+01  -1.989602231958e+01  -2.175662930410e+01 
1  2.248070740323e+01   6.641484809190e+01  -5.251805206717e+01 
1  5.627709033330e+00  -3.930497078778e+01   2.932710522001e+01 
1  2.941717308973e+01  -2.365696906522e+01   2.272856264129e+01 
1 -1.637339882332e+01  -3.199514685042e+01   3.323683408476e+01 
1  4.892905687362e+00  -1.207415745865e+01  -7.509326966958e+01 
12
 Atoms. MD step: 9000
1 -1.376857388114e+01  -3.090967087140e+01   8.693646139475e+01 
1  5.000353257163e+01  -1.894858821802e+01  -4.656532198615e+01 
1 -2.279543286603e+00   1.820023219653e+01  -2.011940623928e+01 
1  3.786068736917e+01   4.135378039881e+01   2.349975509562e+01 
1 -2.380171647596e+01   1.914513760890e+01  -8.137428002719e+01 
1 -2.961784139171e+01   5.466756989800e+01   1.157288786901e+01 
1  5.726511197964e-01  -9.158117928535e+00  -3.791962777380e+01 
1  8.099343653570e+00   2.933493188666e+01   1.017933917092e+01 
1  2.297561817422e+01  -2.410954340218e-02  -3.628683772875e+01 
1  1.292723557694e+01   1.395335358351e+01  -4.308661103063e+01 
1 -1.925927122204e+01   7.012155545427e+00  -7.011602482258e+01 
1  1.101848211673e+01   3.708366864368e+01   1.865830681742e+01 
12
 Atoms. MD step: 10000
1  1.987585485857e+01   8.309748917369e+00  -4.473851288955e+01 
1 -2.536542252461e+00  -2.070515927152e+01  -4.478041192887e+00 
1 -6.974562899675e+00  -1.778602586688e+01   6.345575657081e+00 
1  4.175150319333e+01   1.257021041826e+01   2.035560989615e+01 
1 -1.411762352855e+01   3.042101980628e+01  -5.487871699447e+01 
1  1.062037297026e+01   2.396409958745e+01  -2.204827594295e+01 
1 -3.470547251235e+01  -1.459278408935e+01   2.705715067291e+01 
1 -4.616314187380e+01  -4.969724093631e+01   5.332930431158e+01 
1  8.922937398703e+01   1.154470489269e+01   4.015565343220e+00 
1 -2.182074259770e+01  -4.008735458300e+01   6.938785055481e+01 
1 -2.210939576258e+01  -5.228702808248e-01   1.062756677380e+01 
1  1.738869664300e+00   2.465873460478e+01  -3.876359481875e+01 
12
 Atoms. MD step: 11000
1 -6.121635874859e+00  -6.690302861617e+01   1.320584129967e+01 
1 -1.930106509956e+01   1.552549619818e+01   3.496959486789e+01 
1  6.379670993482e+00   4.782488325182e+00   2.296962589446e+01 
1 -4.744169644562e+01   1.396107959737e+01  -7.506780280845e+01 
1  1.576594449847e+01   2.790016448541e+01  -6.139164068339e+01 
1  1.717219802196e+01   5.678561458880e+01   5.721926622877e+01 
1 -3.215599234280e+01  -2.994922221958e+01  -2.297663094471e+00 
1 -7.840475073735e+00  -3.464925386565e+01  -1.550310426645e+01 
1  6.556755565890e+00   1.933414602084e+01   2.077475193433e+00 
1 -1.328511528304e+01   8.318206980605e+01   5.445561759074e+01 
1 -1.219520248532e+01  -2.063963732600e+01  -1.938685310520e+01 
1  4.569693887801e+01   3.405765572537e+01  -6.359184977113e+00 
12
 Atoms. MD step: 12000
1 -5.769818483466e+01   3.797698640961e-01   2.763955740724e+01 
1  2.491048848211e+01   1.523578510692e+01  -3.806715543613e+00 
1  8.247661928366e+01  -1.167494415172e+01  -1.555206657718e+01 
1  7.448261580227e+00  -1.093292628553e+01  -1.404985430165e+01 
1  3.268602664155e+01  -6.678841422484e+01  -2.465989964638e+01 
1 -1.634767670125e+01   6.008392877190e+01  -1.347602344047e+01 
1  1.170719474634e+01   4.131888810321e+01  -8.480997362838e+00 
1 -2.775200543881e+01  -1.976656591148e+01   2.477647685736e+01 
1  2.649361538515e+01   1.762318023358e+01   7.382401646723e+00 
1 -3.929754062171e+01   3.323141058986e+01   1.730844255946e+01 
1 -3.867252435028e+01   9.576644451659e+00   2.222645319429e+01 
1 -2.104523665930e+01  -2.367142434986e+01  -2.831239556931e+01 
12
 Atoms. MD step: 13000
1 -9.518805541330e+01  -1.368966982650e+00  -2.683011122131e+01 
1  4.962658546488e+01   5.848746137594e+00  -5.228304962274e+01 
1 -3.550455058527e+01   5.522029146777e+01   2.005137765627e+01 
1 -1.923359751689e+01  -6.315829385036e-01  -2.542045006130e+01 
1 -2.681699935678e+00   1.850542062198e+01   7.096908948653e+01 
1  7.853808308466e+00  -6.320580423663e+01   6.493106186060e+01 
1 -5.223699591987e+00   1.665709779529e+01  -2.042926352404e+01 
1 -2.459312450254e+01  -2.168396819299e+01   3.548863736434e+01 
1  5.733849707439e+01  -3.202464904861e+01   8.373579219879e+00 
1  1.854852136438e+01   8.320712790192e-01   1.994489349714e+01 
1 -5.508058621058e+01   1.433048585293e+01   2.943415510526e+01 
1  2.950494318234e+00  -4.270523392288e+01   1.560437123008e+00 
12
 Atoms. MD step: 14000
1 -8.543387262798e+01  -7.401585853030e+01  -9.825757277302e-01 
1  3.828277076076e+01   1.050792021008e+00  -7.440312126014e+01 
1  3.521802502114e+01   7.701847402939e+01   3.281904322669e+01 
1  8.316465852563e-01  -3.663591754875e+01   1.953339360084e+01 
1 -5.345793237744e+01   5.052759993010e+00   9.567578773588e+00 
1  2.271759575136e-01   2.782902272875e+01  -4.193201007309e+01 
1  4.079671107973e+01  -1.595470103642e+01   3.709428383953e+01 
1 -6.887435644581e+01   3.784690126182e+00   1.238311404837e+01 
1 -5.433234072350e-01  -1.569361709024e+01   4.873626358170e+00 
1 -2.526573524298e+01  -2.251776390013e+01   1.849304030123e+01 
1  2.984949283609e+00  -4.506838046553e+01   6.310659066491e+00 
1 -1.378103929373e+00  -8.052110193057e+00   4.424891354934e+01 
12
 Atoms. MD step: 15000
1 -3.573911273403e+01  -3.393593018454e+01   5.152980379269e+00 
1  2.266959491099e+01  -2.934038354964e+01   3.060607904257e+01 
1  3.625447779113e+01   2.385939169019e+01  -1.305119834359e+01 
1  5.897905988890e+01  -2.283005025844e+00  -3.442200158201e+01 
1 -1.871955160214e+01  -3.850362901921e+01   1.800717236767e+01 
1 -3.993727937867e+01   2.839784714874e+01  -1.664560386750e+01 
1  9.184821925081e+01   1.324460082426e+01  -2.055081523196e+01 
1  2.678883440186e+01  -9.718032785064e+00  -1.442371036878e+01 
1  3.999116375559e+01   3.359944545119e+01  -3.734122132499e+01 
1 -5.160849762970e+01   2.516794719955e+01   3.249084083428e+01 
1 -5.716573088165e+01  -1.591371601988e+01   2.782699959286e+00 
1  1.939382618079e+00  -7.401447342468e+01   5.028065531101e+01 
12
 Atoms. MD step: 16000
1  4.593419383186e+01  -5.859965499255e+00   3.320013294760e+01 
1 -1.023716242030e+01  -6.778014030965e+00   5.536408208732e+01 
1 -3.191629569120e+00  -5.814884203619e+01   7.426195341362e+00 
1  2.144250481925e+01  -8.690364755289e+01   5.137978614984e+00 
1 -4.013994054683e+01  -3.944395199582e+01   7.640033920170e+01 
1  3.344941562890e+00  -2.471827066013e+01   2.730615693763e+00 
1 -5.097695244282e+01  -5.718906075639e+00   5.420666274880e+01 
1 -1.000221123940e+01   2.399005860638e+00   1.889529279795e+01 
1  5.814439406369e+01   1.873501595836e+01   3.539670473029e+00 
1 -3.834196352952e+01   3.640331382299e+01   1.718795914051e+01 
1 -2.526574006402e+01   2.640428831737e+01  -4.724537222916e+01 
1 -3.844768195747e+01  -2.239825841688e+01   7.585927756364e+00 
12
 Atoms. MD step: 17000
1 -4.058988953827e+01   5.296180573651e+01  -3.082688634626e+01 
1 -2.891987399681e+01   2.013382739318e+01   3.070234193140e+01 
1 -1.690090338460e+01   1.258001242519e+01  -7.410189916941e+01 
1 -2.182700063273e+01  -2.262658878779e+01  -9.115541916399e-01 
1  2.294770893054e+01  -3.562802674513e+01   3.104517893119e+01 
1 -1.011551869897e+02  -1.652126399861e+01  -1.925776698775e+01 
1 -5.928369720747e+01  -4.411614938852e+01   7.430302078092e+01 
1 -6.360652330907e+00  -2.110082710669e+01   2.249730388760e+01 
1 -5.832292819085e+01   1.594199145533e+01   5.152050328321e+01 
1 -5.769873138991e+01   6.930033252167e+01  -3.342769847290e+01 
1  1.142354148255e+00   4.918162590006e+01   2.494714109059e+01 
1  9.440142880054e+01  -4.783812705587e+01   8.732493542834e+00 
12
 Atoms. MD step: 18000
1 -1.042086703677e+01  -3.442015097338e+01   9.783179477238e+00 
1  4.284844930622e+01   1.349994431859e+01   2.970655829451e+01 
1  7.674072525187e+01   2.912152476180e+01   2.985573653716e+01 
1 -3.848017134645e+01  -7.628686620270e+00  -4.457850102579e+00 
1  2.325108396309e+01  -4.388800767574e+00   4.510511015660e-02 
1  6.693618566099e+01   2.019887683518e+01  -1.722696752745e+01 
1 -3.740026534192e+00   1.382427789482e+01   5.948371150415e+01 
1  6.653370614150e+00  -1.144165762063e+01   8.909689284163e+01 
1  6.407802652148e+01  -3.029349723531e+01   4.139478053801e+01 
1 -4.496253106610e+01  -2.835915510465e+01   7.217746764921e+01 
1  1.289591749225e+01   2.205285563320e+01  -3.495466140764e+01 
1  1.259771356682e+00  -8.314562813707e+00  -1.561240835099e+01 
12
 Atoms. MD step: 19000
1  1.383382378677e+01  -5.255746342051e+01   8.878188096675e+01 
1 -2.105656325219e+01  -9.900271571328e+00  -2.638489906826e+01 
1 -2.882613009952e+01  -5.810724107491e+01  -1.758428872828e+01 
1 -4.215171865274e+01  -2.430938954022e+01  -5.836458116351e+01 
1 -4.228352146898e+00   5.018641076539e+00  -3.693606350957e+01 
1 -7.365785961622e+00  -2.736370689961e+01  -1.377348202929e+01 
1 -2.355585800502e+00  -3.855293326101e+01  -6.625221232336e+00 
1  7.398310942279e+00   7.223069074221e+00   4.220932036325e+01 
1  5.023010608041e+00  -9.346375095950e+00  -3.647252498706e+01 
1  4.592959835976e+00   1.350008022477e+01   4.655173697777e+01 
1 -4.846701659624e+01  -4.590771914307e+01   3.996499361793e+01 
1  1.890604425886e+01   8.484744022643e+01  -5.499774176180e+00 
12
 Atoms. MD step: 20000
1  1.899153670357e+01   5.192535852724e+01   3.865755987841e+01 
1  3.201109676594e+01  -1.370977391992e+01  -7.029296352808e+01 
1 -2.020013766087e+01  -2.945146623609e+01  -4.284243331271e+01 
1  3.000906037082e+01  -7.451103330497e+01   3.433038396906e+01 
1 -1.628281467463e+01   2.331465688263e+01  -1.553761246691e+01 
1  1.123173233018e+01   4.825059993762e+01  -1.430903900413e+01 
1  1.006118895555e+01  -1.944318661850e+01  -1.964969662847e+01 
1  4.183829760574e+01  -2.321442984479e+01   1.088245521481e+01 
1  3.462989313391e+01  -1.751540986425e+01   3.252281716915e+01 
1 -7.468919717790e-01  -7.302957353129e+00   2.758079094494e+01 
1 -4.391042206745e+00  -5.306641397120e+01  -9.182060334316e+00 
1 -1.017054132602e+01  -1.833415374494e+01   3.087989816756e+01 
12
 Atoms. MD step: 21000
1  5.453031116794e+00  -6.218311020370e+01  -2.856533816135e+01 
1  1.963162241992e+01   5.389849588192e+01  -8.373173030940e+00 
1 -3.873065234790e+01  -1.345452549423e+01  -2.050972497940e+01 
1 -1.692226037826e+01  -7.198431643656e+01  -1.737752859839e+01 
1  3.210932524738e+01  -2.415409590996e+00  -2.747840980378e+01 
1  2.391900477442e+01  -1.745544947233e+01  -2.359877851996e+01 
1 -2.017784845426e+01   7.701565793610e+01   3.076981889472e+01 
1 -3.962345147868e+01  -1.865055665453e+01   3.872308770674e+01 
1  1.092287287819e+01  -4.228997830542e+00   1.895207746346e+01 
1 -1.155195548682e+01   3.141735353637e+01   5.711319521849e+01 
1  1.562560917472e+01  -2.220401090520e+01   3.034648055007e+00 
1 -3.322144774973e+01   3.511894201568e+01   2.889392202412e+01 
12
 Atoms. MD step: 22000
1 -7.284452031084e+01   8.205133570647e+00  -3.934994947604e+00 
1  5.520369247462e+01   3.056412027651e+01   5.689101094173e+01 
1  3.702640900306e+01  -3.957435226230e+01  -5.129774786723e+01 
1 -4.589211749951e+01  -2.715204834826e+01   9.654911554527e+00 
1 -2.924803808256e+01   8.558755046265e+01   2.477625294483e+01 
1 -4.897158497119e+01  -2.929288545738e+01   8.586597059143e+01 
1  3.384573513267e+01  -8.311990606863e+01  -7.791639120406e+00 
1 -4.066335495918e+01   2.733604538398e+01   5.951854221470e+00 
1 -5.340241787919e+01  -1.395566133325e+01   6.988423778590e+01 
1  1.755622199005e+00  -1.195750082680e+01   4.135418895410e+01 
1  7.861293794688e+01   3.130153179798e+01   5.904409728776e+01 
1 -5.816174456793e-01   5.329642807545e+01   4.622186919309e+01 
12
 Atoms. MD step: 23000
1 -5.917560252721e+00   1.672996756769e+00   3.484444210662e+01 
1  2.429030106255e+01   3.829846987112e+01   2.069006382787e+01 
1 -8.607119983462e+00  -2.052816347797e+00   5.265756560471e+01 
1 -1.787856764905e+01  -4.047776295260e+00   3.181615614678e+00 
1  1.558103416452e+01   2.205211185381e+01  -3.805536719385e+01 
1 -1.537993392006e+01   9.806198880191e+00   4.968151350790e+01 
1  9.094856197686e+00  -5.627261083057e+01  -1.012482253279e+01 
1  7.583731204241e+00   4.605440032675e+01  -2.217355355875e+01 
1  7.118085894187e+01   1.982522115579e+01  -2.118085268202e+00 
1  2.104032668047e+01  -4.056697549454e+01   5.862899851512e+01 
1  1.667273065785e+01  -2.361952554695e+01  -1.775372958465e+01 
1 -6.676950186370e+01   4.895004007259e+01   1.280658297654e+01 
12
 Atoms. MD step: 24000
1  2.741251189729e+01   6.526213329764e+01   3.854108035570e+01 
1 -3.944793967737e+01  -7.549438743200e+00   5.836923185760e+01 
1 -3.722109165627e+01  -1.345583726977e+01   8.456064248085e+00 
1 -4.476612736331e+00   1.562868830102e+01  -8.849465755970e+01 
1 -5.315696896983e+01   4.084051279748e+00  -4.015209118353e+01 
1  6.974835996198e+01   2.614935134693e+00   1.723139431015e+01 
1  1.767219204250e+00   2.015883358398e+01  -6.621924729388e+01 
1 -3.804518951403e+01   4.457360978239e+01   3.623338559737e+01 
1  6.797568362381e+01   2.087136314495e+01  -1.039502168564e+01 
1  4.401944089862e+01   5.079790619438e+00   3.346698317237e+01 
1  1.783350517178e+01   3.168436906213e+01   4.098057561513e+01 
1  3.166607352357e+01  -1.050342023718e+01  -1.804212804610e+01 
12
 Atoms. MD step: 25000
1  2.859712003989e+01   2.156945676443e+01  -2.178753759293e+01 
1  3.968593208699e+01  -1.165760774110e+01  -4.716470057705e+01 
1  3.032205387342e+00   6.705622112926e+01   1.190117452916e+01 
1  3.377140290982e+01   7.421652657449e+00  -5.430566305521e+01 
1 -3.411162783226e+01   1.169233907229e+01   5.281907354140e+00 
1 -8.293307390025e+00   2.725589747831e+01   2.851700807137e+01 
1 -3.819789021946e+01   1.992386377126e+01  -3.454021507267e+01 
1 -1.862770527670e+01   4.658582865915e+01   2.660798045594e+01 
1  1.592245852926e+01  -4.988999787305e+01  -6.430934138888e+01 
1 -7.564043503881e+01  -6.800664092130e-01   1.898656838728e+01 
1  1.291050924412e+02  -3.959501834214e+00  -5.774931413952e+00 
1 -3.554998819879e+01   2.256149985213e+01   3.243662167810e+01 
12
 Atoms. MD step: 26000
1 -8.882288697051e+00   2.860177007137e+01   9.989030870731e+00 
1  2.780909765603e+00   5.410655339668e+00   4.406326836417e+01 
1  6.932862239314e+00  -1.772809751597e+01   8.027567646002e-01 
1 -1.165084471534e+00   2.900257390487e+01   9.558801132482e+00 
1 -4.717843832050e+01   3.833304561182e+01  -9.044260542980e+00 
1  1.235016167606e+01  -2.552241044219e+00  -5.965168855482e+01 
1 -6.693861005621e+01  -6.540101126990e+00   2.602679548743e+01 
1 -2.911260452513e+01   2.266216089821e+01   1.519031611979e+01 
1  3.664144940370e+01  -1.677507609270e+01   3.082724126631e+01 
1 -2.689191676189e+01   1.660108715075e+01   2.587637800920e+01 
1  9.321449873102e+01   3.267018828151e+01  -1.425564846771e+01 
1 -5.474255750216e+00  -5.184329569324e+01  -5.969815824930e+01 
12
 Atoms. MD step: 27000
1  2.637485370927e+01   1.804046880850e+01  -7.909148502792e+01 
1  3.499672306994e+01  -2.446042425238e+01   6.811939628019e+01 
1  1.891468641768e+01  -6.165736334035e+00   3.088972491775e+01 
1  1.260776954146e+01  -7.535081472519e+01   1.748080276244e+01 
1  3.957815680360e+01   5.305594177663e+01   4.721468160915e+01 
1 -2.425390334580e+01  -2.342268809316e+01  -3.399982252059e+01 
1  5.355743976673e+01   1.909482050236e+01  -2.038551122526e+01 
1  1.756678671507e+01  -3.695961580802e+01  -2.126228538305e+01 
1 -2.440476904077e-01  -4.657319209979e+01  -6.509456396513e+01 
1 -9.279288971005e+00  -6.812269944184e+00  -4.708669445168e+01 
1  7.617079016257e+01   1.864223102364e+01  -1.960946859282e+01 
1  5.562907621626e+01  -2.574804347533e+01   2.776219734285e+01 
12
 Atoms. MD step: 28000
1 -5.787136984973e+01   1.040076964285e+01  -2.767374905429e+01 
1  5.632828862070e+01  -1.133324195632e+01  -4.779939018729e+01 
1 -3.294956552049e+01  -5.546033872519e+01  -3.790337321181e+01 
1 -5.968454201890e+00   5.807341403657e+00  -4.596832616559e+01 
1 -1.565805711521e+00   2.614049649767e+01  -3.805348028623e+01 
1  1.431610470496e+01  -1.975163716332e+01  -2.321011951586e+00 
1  4.388344768179e+01  -3.683037896079e+01  -2.004023914964e+01 
1 -3.526407197773e+00   3.350138975470e+01   1.547979417760e+01 
1  1.035103316149e+01   2.972840933039e+01   6.190199160345e+00 
1 -7.041766913830e+00   4.714764004341e+01   9.937259266983e+01 
1 -5.131588382218e+01  -7.962939794738e+00  -4.675786624078e+00 
1  1.054145016575e+01  -4.096000263375e+01   5.451112648580e+01 
12
 Atoms. MD step: 29000
1  3.105650154509e+01  -9.557770318859e+00  -4.529275281678e+01 
1  5.836848881290e+00   4.943698628998e+00  -2.774944961156e+01 
1 -4.970264517432e+01   6.452613918086e+00  -9.770038735478e+00 
1 -5.597351109879e+01  -4.490855466090e+01   2.930358304694e+00 
1  2.576608052592e+01   7.031870240238e+01   2.903966199015e+01 
1 -5.193871185008e+01  -8.593525650555e+00  -9.154157919957e+01 
1  1.509442228214e+01  -6.943675675170e+01  -3.445232999968e+01 
1 -2.021891607512e+01   8.611384192380e+00   4.425724205740e+01 
1 -5.205186757085e+01  -7.767348413508e+01   1.185607115709e+01 
1  3.343656867551e+01   2.772043682393e+01   9.847402210939e+00 
1  8.054421518020e+00   2.853452990627e+01   4.939073957511e+01 
1  2.676486433190e+01  -6.522126828934e+00  -1.009152501993e+01 
12
 Atoms. MD step: 30000
1  5.738097751056e+00  -2.126013184679e+01  -3.855869843492e+01 
1 -4.540294089663e+00  -4.642953274085e+00   3.978595620129e+01 
1  3.598523993191e+01  -3.407621524145e+01  -2.598570687845e+01 
1  8.423907518422e+01   1.095415068100e+01   1.992577249380e+01 
1 -1.852251997312e+01  -9.547889541967e+00  -3.045504603828e+01 
1 -6.691915024848e+00  -1.217816189338e+01   2.493024132159e+01 
1 -9.689520946848e+00   8.753376397094e+00  -4.389013916134e+01 
1  3.436580215580e+01   7.347462013305e+00  -6.750339980695e+00 
1  7.214800396490e+01   3.071350283930e+01  -2.594580539015e+00 
1 -3.119274270338e+01   2.137318667104e+01  -3.957066626201e+01 
1 -3.206557387624e+01  -2.752664347664e+01   1.707576131069e+00 
1 -5.920631649198e+01  -2.220140199981e+01   1.376856536967e+01 
12
 Atoms. MD step: 31000
1  1.138272021037e+01   1.806010949019e+01   2.877443510283e+01 
1 -2.696193164580e+01  -8.787261522678e+00   3.430687497635e+01 
1 -5.952636337534e+00  -6.437019860829e+01   2.821166678653e+01 
1  1.325731316896e+00   4.283832460842e+01   1.594993277612e+01 
1  4.516806125517e+00   3.262393131187e+01  -1.947751903016e+01 
1 -6.672465296285e+01  -3.336582181163e+01  -3.676679964822e+01 
1  6.508697003019e+01  -7.362242859731e+01   2.032822081846e+01 
1  5.587357375181e+01   1.830173720450e+01  -1.950412005593e+01 
1 -5.867898114073e+01   1.484275216221e+01  -4.185051493240e+00 
1 -5.893194989436e+00  -7.963855465212e+01   2.195287271579e+01 
1 -1.489698061259e+01  -4.075508752521e+01  -1.822028822496e+01 
1  3.405257442116e+01   2.167446095697e+01  -2.085502215494e+01 
12
 Atoms. MD step: 32000
1 -5.855669745554e+01   4.037036575304e+01   9.643461725754e+00 
1 -2.458356335737e+01   1.952297315934e+01   1.226984274769e+01 
1 -2.343753998335e+00  -5.382755842613e+01   6.356183407754e+00 
1  5.364822204139e+00   1.851781830351e+01   3.062001765120e-01 
1 -3.098665837934e+01   5.065228456783e+01  -3.243838815061e+01 
1 -1.830169560538e+01   4.320077047738e+01   4.481155720556e+01 
1  5.912175088914e+00   5.489898635016e+00   1.651434984414e+01 
1  2.906717236252e+01  -1.730801298715e+01  -1.661895565334e+01 
1 -5.727254627783e+01  -1.139215498547e+01  -1.106748858779e+01 
1  1.011559404248e+01  -4.109265882643e+01   7.051371811953e+00 
1 -1.656569580460e+01   1.370890210116e+01   3.974298031300e+01 
1 -1.412503950302e+01  -4.483265362501e+01  -5.629874215835e+00 
12
 Atoms. MD step: 33000
1 -4.297877947805e+01  -1.751090463744e+01  -2.360730135622e+01 
1  4.974278814624e+00   1.630541374757e+01  -7.304732832063e+00 
1 -5.338048534300e+00  -2.275630477578e+01   1.220797933230e+01 
1 -4.747725924308e+01  -3.573012310193e+00  -5.321578819879e+01 
1  5.667564123201e+01   3.166727797759e+01   3.840740239392e+01 
1 -7.649841002658e+01   3.144991212198e+01   3.136188860409e+01 
1 -7.070007124988e+00  -4.425945339010e+00  -3.783254079498e+01 
1  1.316464549945e+01   3.039160386338e+01  -1.343806647297e+01 
1  2.725005742664e+01   5.696292702148e+01   6.863910506474e+00 
1  2.765921642704e+01   2.295234981225e+01  -4.732416472756e+00 
1 -2.216995401054e+01  -3.119868474421e+01   4.786557419024e+01 
1  1.455147664586e+01  -1.727426948369e+01   5.994966354000e+01 
12
 Atoms. MD step: 34000
1 -3.740918511953e+01  -2.983235288873e+01   3.512501625803e+00 
1  3.391840129611e+01   8.460468966193e+00  -7.374759640382e+01 
1  1.180436837109e+01   3.209239011719e+01   4.160270876359e+01 
1  2.889590747807e+00  -2.199450153586e+01  -4.542455230371e+01 
1  4.228172690346e+00  -3.758609404518e+00   5.601303093036e+01 
1 -4.069692814362e-01   2.860184801172e+01  -9.573344356171e+00 
1  2.326846653456e+01  -8.496744665684e+00  -5.435298256793e+01 
1  2.056688656098e+01  -4.255403943945e+01  -3.296114922766e+01 
1  2.266750031809e+01   9.410491428129e+01   4.087911329803e+01 
1 -5.089938755545e+01   3.505985608947e+01  -6.994572069993e+00 
1  1.982768516233e+01   3.796496539047e+01   3.313098737615e+00 
1 -2.312981853262e+01  -1.161853883101e+01   9.880987591334e+00 
12
 Atoms. MD step: 35000
1  1.874096923843e+01  -9.113254539702e+00   2.269245809049e+01 
1 -4.495297290492e-01  -5.679924803090e+01   2.461936793022e+01 
1  3.006176202047e+01  -1.289999251483e+01  -4.076259614909e+01 
1 -2.152385791842e+01  -2.957415770023e+01   5.459068328563e+01 
1 -1.053667988204e-01  -7.383714816580e+00  -3.910362434775e+01 
1 -3.025634018922e+01   2.435973715589e+01   1.558566605690e+01 
1 -1.186547041819e+01  -2.131849876272e+01   2.117040032109e+01 
1  4.947909594928e+01   3.306595783114e+01  -2.250201310246e+01 
1  1.106013210539e+01   1.689921893352e+01  -5.989847845734e+01 
1 -1.226836174417e+01   1.411483533646e+01   3.323025708435e+01 
1 -6.804433507793e+00   1.374238113938e+01   4.311138349530e+01 
1  2.481976610907e+01  -1.608852021651e+00  -4.121012241976e+01 
12
 Atoms. MD step: 36000
1 -5.670690812350e+01  -1.770198135143e+01  -9.440956264360e+00 
1  1.343147860839e+01  -5.221873142770e+01  -3.657935428313e+01 
1  1.967121946931e+01   3.868971231205e+01   9.980210714665e+00 
1 -5.291525650863e+01  -3.955336222484e+01   3.210307953253e+01 
1 -1.376164174342e+01  -2.129887340573e+01  -5.701287570973e+01 
1 -1.808891797336e+01   5.398160354528e+01  -9.215738940359e+00 
1 -4.317480583043e+01  -2.843890607274e+01   3.780665830118e+00 
1 -4.380998477037e+00  -2.727469565540e+01   5.354525817594e+01 
1  3.014732316079e+00  -8.034145383424e+00   1.581381427331e+01 
1 -2.118667418769e+01   1.246617436866e+01  -6.472102638089e+01 
1 -8.796443974296e+01   1.767972067634e+01   2.627968925176e+01 
1 -1.753994676018e+01  -3.784783148172e+00   4.905116833459e+01 
12
 Atoms. MD step: 37000
1  5.316962162614e+01  -8.001662919957e+00   2.819749000639e+01 
1 -7.697527460829e+00   6.652005399489e+00  -6.657968286180e+01 