12
 Atoms. MD step: 0
1  1.107900787152e+01  -4.791721451156e+01   3.499687142961e+00 
1 -4.820618022332e+01  -4.000521571209e-03   3.112151126406e+01 
1 -5.343691019730e+01  -6.027377040743e+01   2.301660989745e+01 
1 -5.689236570219e+01   6.138728559742e+01   2.952081869538e+01 
1  5.724113037591e+01   5.541895713484e+01   8.684798653504e+00 
1 -5.983856000485e+01   5.356777111990e+00   4.036007125920e+00 
1  5.162101775288e+01  -9.693990607405e+00   2.624873426411e+01 
1 -2.414716756303e+01  -3.756517808781e+01  -1.584015444950e+01 
1  7.786984443763e+01  -4.353929122553e+00  -4.978911696366e+01 
1 -3.420872266629e+01  -2.752033995039e+01  -5.435771936143e+01 
1  6.575629693654e+01   2.813335566027e+01  -3.109170395432e+01 
1 -2.616032971593e+01   6.905088814233e+01   1.616908585097e+01 
12
 Atoms. MD step: 1000
1  3.697934503697e+01  -2.051282726752e+01   4.454464829597e+01 
1  2.997579755701e+01  -4.753396599764e+01   2.534514890223e+01 
1 -2.723230107416e+01  -2.254790596288e+01   6.144968423603e+01 
1  5.298682205976e+01  -5.759882182726e+00   6.174533521895e+01 
1  8.828081702281e+01   1.828155444495e+01  -1.928795574410e+00 
1 -9.341632131448e+00  -2.234274717698e+01  -3.504366936413e+01 
1  4.884804388991e+01   3.020769744465e+01  -1.292805913968e+01 
1  1.247673084315e+01   3.811021794212e+01   4.279737168797e+01 
1 -2.741787834599e+01  -2.368708547216e+01   2.569970924682e+01 
1  4.125997420010e+00  -7.570749475122e+00   7.783082724720e+01 
1 -3.025436000874e+00  -4.021239518670e+01  -8.993668689046e+00 
1 -1.793369964188e+01   3.134297683526e+01  -1.287286855823e+01 
12
 Atoms. MD step: 2000
1 -2.848399083170e+01   1.346167420003e+01  -2.770547083515e+01 
1  1.293021208313e+01  -3.765187595363e+01   5.067159038416e+01 
1  1.031301302032e+01  -8.017900470701e+00   1.024402769730e+01 
1 -6.428883463545e+00  -9.453193595436e+00   2.813420909883e+01 
1  5.562518200786e+01  -3.712555516742e+01  -3.676535327543e+01 
1  2.424114582086e+01  -1.156765207895e+01  -2.625884804336e+01 
1  2.019444987698e+01  -3.671362651289e+01  -3.849088596642e+01 
1 -3.419913877954e+01  -1.930323409857e+01   5.749939500562e+01 
1  2.348917722648e+01  -4.459151320080e+01  -1.692527773315e+00 
1 -6.757212628870e+00  -4.259408253755e+01   2.860145459521e+01 
1  8.824214914620e+01  -1.067334824013e+02  -6.546044559672e+01 
1  8.955933988785e+00   3.309870683406e+01   2.705974272234e+01 
12
 Atoms. MD step: 3000
1 -5.480213628127e+01  -2.745852625240e+01  -1.069822915371e+01 
1 -1.089196321271e+01  -2.441986898302e+01  -1.436568387799e+01 
1  3.515083739930e+01   1.356160291095e+01   3.735521442129e+01 
1 -1.255831087537e+01  -6.429719161425e+00  -2.396830652250e+01 
1  7.240544651999e+01  -1.827365098034e+01   4.184915036006e+01 
1 -1.457145164907e+01  -1.368625899916e+01  -2.561102307562e+01 
1 -4.572466338299e+01  -1.750419529076e+01  -6.261545129169e+01 
1 -2.329286210674e+01  -1.002911940356e+02  -2.142215257270e+01 
1 -3.411603686891e+01   3.857213040037e+01   4.623727273630e+01 
1 -1.925773271019e+01  -7.836691278040e+01  -4.759797074269e+01 
1 -7.753845008890e+01   1.408684752885e+01   6.755150449052e+01 
1 -6.298411851401e+01   2.097051624037e+01   4.109059423290e+01 
12
 Atoms. MD step: 4000
1 -7.500704496044e+00  -3.377893632661e+01   2.448449230519e+01 
1 -2.110477208039e+01  -3.458816196916e+01  -3.681527521857e+01 
1  2.104780293259e+01   4.211079783709e+00  -5.365631110490e+01 
1  4.388522002087e+01   1.811321021221e+01   6.265634187548e+00 
1  2.866085685515e+01   7.294732735554e+01  -4.806291010634e+01 
1  2.178279133911e+00   9.128471445857e+00   7.297288951241e+01 
1 -2.814666040334e+01  -4.747266179917e+00   2.278908155732e+01 
1 -7.817352223576e+01  -2.233558287278e+01  -2.399060133503e+00 
1 -5.251656821470e+00   6.533968636270e+00  -3.325881565353e+00 
1  8.733776030094e+01  -3.523967372153e+01   4.961898566165e+01 
1  4.789636109935e+01  -5.694330541862e+01   2.102654369049e+01 
1 -9.492258112719e+00   3.993768662247e+01  -2.505891205492e+01 
12
 Atoms. MD step: 5000
1 -2.655004887577e+01   5.572973462250e+01   4.697710362088e+01 
1 -3.485103101114e+00   1.137778540862e+00  -5.460943843328e+01 
1 -3.204432611607e+01   9.121732294072e-01   1.663380170552e+00 
1 -3.467270617131e+01   1.098686308159e+00   2.878596790151e+01 
1 -3.817365722037e+01  -2.733681595876e+01  -3.114635906606e+01 
1 -1.385336465051e+01  -5.298579778999e+01  -3.226904235905e+01 
1  2.880937037531e+01  -4.564678500234e+00   1.863899122399e+00 
1  6.127063386241e-01  -1.977218949473e+01   4.250587083960e+01 
1  1.043848472327e+01   5.078346067143e+01   4.887668426756e+00 
1 -2.457999669602e+01   4.013308364387e+01   3.543155950897e+01 
1 -1.129117037401e+00   2.239240545236e+01  -1.439861965649e+01 
1  5.013184392455e+01   1.234686819786e+01   2.293979675500e+01 
12
 Atoms. MD step: 6000
1  2.241221080672e+01  -4.257342676256e+01   1.381401359909e+01 
1  1.565849940759e+01   5.093449454338e+01   1.228352397618e+01 
1  1.837526468380e+01  -2.121104355476e+01   3.184818520335e+01 
1 -2.596393010228e+01  -6.283779669701e+01  -3.128416704951e+01 
1  1.160744651834e+01  -2.905876180720e+01  -7.369607060754e+00 
1  1.458953746066e+01   3.832375290994e+01  -3.482272649710e+01 
1 -8.561447931415e+00   8.023058624116e+01  -1.040197383969e+01 
1 -6.592009924830e+01  -7.533199205151e+00   2.523540366804e+01 
1 -4.383572072713e+01   1.944184825726e+01   1.864347670803e+01 
1  1.173194145152e+00  -5.025873495157e+01  -5.759397157810e+00 
1 -5.761867123930e+00  -2.684387107622e+01   4.961575058750e+01 
1  2.516928868421e+01  -1.080104660246e+01   1.243765256302e+01 
12
 Atoms. MD step: 7000
1 -6.442134188937e+01   2.604911485089e+01  -1.134513933446e+00 
1  8.284077901385e+01  -2.183949734049e+01   2.846167170808e-01 
1  1.552521103635e+01  -1.315779926142e+01  -6.951950637052e+01 
1  8.504235315222e+01  -9.715077289915e+00   1.300126581225e+01 
1 -1.076831203629e+01  -8.875684677457e-01  -1.588571053416e+01 
1  4.685782910057e+00  -3.772133330304e+00   2.301803480862e+01 
1 -4.241785731276e+01   1.463014726778e+01  -3.282947877109e+01 
1 -6.417613002704e+01  -2.365373311190e+01   2.649754669705e+01 
1  1.570232441836e+01   1.464925041824e+01   7.513023552585e+00 
1 -3.288997043541e+01   3.795620368493e+01   2.983656666577e+01 
1  6.253695565155e+01  -5.547228832716e+01   7.983968859741e+01 
1 -6.758424050199e+01  -3.762626189447e+01   1.516515120974e+01 
12
 Atoms. MD step: 8000
1 -1.748916725514e+01  -2.918715153579e+01   1.659770479978e+01 
1  4.225807326509e+01  -4.581026053380e+01  -5.006394465744e+01 
1  5.366383213648e+01  -1.257261973493e+01   5.088439430276e+01 
1 -3.035431233715e+00   5.787880747820e+01   4.484206863981e+01 
1 -3.068263590144e+01  -5.515819501682e+00  -8.503910128454e+01 
1  3.289251220918e+01  -1.423299080376e+01   5.574777392899e+01 
1  9.499853948785e+00   1.765923371907e+01  -4.756379286531e+01 
1  3.404329745500e+01   7.471000487654e+01  -5.386889727025e+01 
1  2.118581489659e+01  -1.959444068883e+01   2.278137255515e+01 
1 -8.335319576843e+00  -8.692540520172e+00  -1.429533349366e+01 
1 -6.154203381597e+01   1.409889630394e+00  -3.523435398026e+01 
1  2.137643184354e+00   4.605637001078e+01  -4.618063282261e+01 
12
 Atoms. MD step: 9000
1  2.688363799549e+01   1.696648715337e+01   1.311738378643e+01 
1  3.987090243006e+01   3.176061178051e+01  -1.456844073981e+01 
1  5.445956948147e+01   4.246126778305e+01   3.674229632023e+01 
1  4.413556267125e+00   3.201488989321e+01   8.476650144400e+01 
1 -5.285433710653e+01   3.861169098970e+01   1.963366240117e+01 
1 -1.420513823861e+01   3.540519303534e+00  -2.593814735334e+01 
1 -1.687083957091e+01  -1.138542929575e+01  -2.285713935283e+01 
1  3.879504508338e+00   4.374426704939e+01  -4.156223863446e+01 
1 -7.864998741821e+01  -2.379201220273e+01  -4.085170591896e+01 
1  2.218842231326e+01  -1.844021358639e+00  -5.316670352188e+00 
1 -3.052822932600e+01  -1.105818774387e+00  -4.725547004909e+01 
1 -1.798187414110e+01  -3.184868348593e+01  -8.057219410473e+00 
12
 Atoms. MD step: 10000
1  2.065326177111e+01  -3.231178843409e+01  -2.284995006120e+01 
1 -2.063679995634e+01   1.395095552841e+01   1.805677051174e+01 
1 -1.670989506064e+01   2.484815998128e+01   4.185725330224e+01 
1  2.261941230494e+01   6.148459750094e+01  -2.700739148401e+01 
1 -1.297900837272e+01   1.333689912107e+01   2.281240121007e+01 
1  3.278124560472e+01  -2.723770452753e+01  -5.764507564379e+01 
1 -3.615000389265e+01  -2.691868347109e+01  -6.149509357492e+01 
1  9.604357107739e+00  -1.440437041437e+01   3.018662158851e+01 
1 -1.541011791935e+00   6.174569496103e+00  -4.300989271721e+01 
1 -8.225474743927e+00   1.540972844396e+01  -2.900381559425e+01 
1  3.303793843785e+00  -1.785914992614e+00  -1.409474356601e+01 
1  6.966502832719e+01   5.559565395109e+01   2.759117990732e-02 
12
 Atoms. MD step: 11000
1 -2.905543912871e+01   5.659214114033e+01   1.823980175627e+01 
1  5.358693775839e+01   4.747003198146e+01   6.126987579201e+01 
1  1.290611387014e+01   9.771654207040e+00  -3.021411239293e+01 
1  2.499071703484e+00   2.704127442185e+01  -2.197553679402e-01 
1  2.137845058505e+00  -2.725285620537e+01  -2.477639963851e+01 
1  2.054507689899e+01   8.246794555891e+01  -2.091340432984e+01 
1 -4.340323197468e+01  -3.240268832298e+01  -4.862436326489e+01 
1  8.082496695998e+00  -1.501125497886e+01   4.787765961011e+00 
1  5.312299863900e+01   2.412013040399e+01  -1.253930788338e+01 
1 -2.923550382744e+01  -1.839108516258e+00  -2.505575346245e+01 
1 -1.097488472651e+01   1.103956424917e+01  -7.877786573208e+00 
1 -2.209443979118e+01  -1.639775653152e+01   1.428638867024e+01 
12
 Atoms. MD step: 12000
1 -4.972050844856e+01  -2.012500354888e+01   3.569466916661e+01 
1  4.639479076831e+01   1.524665705057e+01  -6.808631595863e+00 
1  8.269269602119e+01  -6.363442693526e-01   1.913754001774e+01 
1 -9.692646489697e-01  -4.618062715695e+01  -5.814055358849e+01 
1 -2.292663773532e+01  -8.248596354046e+00  -2.218930071268e+01 
1  3.218768408978e+00   5.360876033275e+01   4.184342899743e+01 
1 -4.273580914872e+01   6.899414174932e+00  -3.535985363784e+01 
1 -6.572057435081e+01   1.093200461792e+01  -3.412398564035e+01 
1  1.680381672481e+01   5.687927812784e+01   1.370873964167e+01 
1 -5.806958858814e+00   1.475470139294e+01   3.959896011446e+01 
1 -3.985797256614e+01  -2.707117200238e+00   4.235389331570e+00 
1 -4.644138083833e+01   8.499706026816e+00   3.341059180648e+01 
12
 Atoms. MD step: 13000
1 -2.212136102190e+01   1.125516615099e+01  -1.900147632653e+01 
1  2.658679233498e+01   4.782840310606e+01   1.015752853750e+01 
1 -7.746335739141e+01   5.517389417630e+01   4.471109640953e+01 
1 -3.235894636843e+01   1.297636336205e+01  -6.106459573199e+01 
1 -2.245444712332e+01   6.103675968993e+01   3.459871869559e+01 
1  6.774705610612e+01  -1.720235719358e+01   8.137996244684e+01 
1 -6.932841598148e+01   1.882303390132e+01  -7.090927171648e+01 
1  1.276734703982e+01  -4.367089223072e+01  -3.159124351350e+01 
1  4.425317243635e+01   3.363252979511e+01   5.223622807208e+01 
1  1.965921038209e+01   2.545337849627e+01   1.903325134057e+01 
1 -5.117403721881e+01   2.927223296142e+01   4.859957890820e+01 
1 -1.522849833983e+01   3.408881262120e+01   3.701707683090e+01 
12
 Atoms. MD step: 14000
1 -4.086989358579e+01  -2.306436612601e+01  -3.705653407140e+01 
1  3.048137307362e+00   1.241676403249e+01  -1.818106842461e+00 
1 -2.230933022016e+01   2.566172050945e+01   7.922587188796e+01 
1 -2.667663647399e+01  -1.162594272241e+01   1.065237857463e+01 
1  3.694648314355e+01   2.912485227242e+01  -7.499502067567e+00 
1  2.435563649700e+01  -1.707967147129e+01  -5.027534758491e+01 
1  7.336844434038e+01   3.250700916069e+01   1.207579179289e+01 
1  6.025427140403e+01   3.931036394209e+00   4.251500797533e-01 
1 -4.143789603356e+01  -2.679424779451e+01  -9.606220442500e+00 
1 -3.954964369889e+01  -7.790717950313e-01   3.348431067109e+00 
1 -7.879270308980e+00  -2.514289710219e+01   2.795890734063e+01 
1 -4.358196267197e+01   3.524752762935e+01   4.673609493541e+01 
12
 Atoms. MD step: 15000
1 -1.601372736692e+01  -2.265928132922e+01   4.817486520325e+01 
1  3.014005955920e+01   4.225495907286e+01  -3.734506982700e+00 
1  3.715701053819e+01  -1.387831510491e+01   7.052893225702e+00 
1  6.517036784093e+01   6.262282591190e+01  -2.472213701268e+01 
1 -6.630125631947e+01  -1.549783793154e+01   3.071687880050e+01 
1  5.516804393665e+01   5.309513753584e+01  -9.004167638963e+00 
1  1.229515089717e+01   4.109835481526e+01   4.520632164459e+01 
1 -2.639787246909e+01   8.696652266620e+00   4.385796448305e+01 
1  3.688689403883e+00   2.563992919490e+01   2.817818396244e+01 
1  3.228833822412e+00  -5.295601211894e+00   4.741291227195e+01 
1  2.350224795621e+01   1.921992843241e+01  -8.270594424392e+00 
1 -2.660324676935e+01  -3.814906227754e+01   3.087432086855e+01 
12
 Atoms. MD step: 16000
1  1.793676568163e+01  -2.297917336640e+01   1.267869721597e+01 
1  1.987323594071e+01   2.907429658767e-01   3.238445656673e+01 
1  8.595451135472e+00  -2.775287691888e+01   1.226696155838e+01 
1  1.487889288661e+01   1.426346643180e+00   1.886945517708e+01 
1  3.147949915934e+01  -3.380816571413e+01   1.069628015079e+01 
1  3.636158223676e+01   4.556922742046e+01   2.375136260962e+01 
1 -4.014628137608e-01  -2.640617723963e+01  -5.300776481006e+01 
1  2.528315322047e+01  -1.026626927612e+01  -7.783391623267e+00 
1 -6.463522945439e+00   6.214383417200e+01   5.095993713123e+01 
1 -6.681916145965e+00   3.431998677276e+01   6.357064432552e+01 
1  1.425288683252e+00   6.582170347916e+00  -5.704436056958e+01 
1  4.090453287569e+01   3.557690310406e+01  -1.908584548042e+00 
12
 Atoms. MD step: 17000
1 -6.691981193084e+01  -1.787275027341e+01   1.119225244142e+01 
1  6.532735709992e+00   1.490898413385e+01  -2.974472341474e+01 
1  8.541776830143e+00  -2.685048420117e+01   1.239891842419e+01 
1 -5.255202101796e+01  -4.675961429198e+00   1.083148752536e+01 
1  4.166853298368e+01  -3.471545118494e+00   3.158088573143e+00 
1 -7.016482832932e+01   1.731438187655e+01  -1.586443226218e+01 
1 -3.497059997456e+01  -5.351323499611e+01   1.915923751305e+01 
1 -3.441413974287e+01  -3.271777003843e+01   3.928874433021e+01 
1 -1.065254986688e+02   1.797204261477e+01   3.573846037772e+01 
1 -3.211756734868e+01   4.390503819485e+01   1.956494239702e+01 
1  1.401794750504e+01   5.801448319536e+01   1.477300694175e+01 
1  6.564488265847e+01  -2.580009736427e+01   5.982157449142e+01 
12
 Atoms. MD step: 18000
1  3.957040343075e+01   2.913324887398e+01  -5.127864648052e+01 
1 -2.676367534655e+01   1.112051013456e+01   3.029859081497e+01 
1  1.528500593986e+01   5.453998986872e+01   4.826171983962e+01 
1 -3.887758547889e+01   6.385476767561e+01   3.181121870507e+01 
1 -3.799192494753e+00   1.330643976627e+01   2.695808648972e+01 
1  3.785101719534e+01   2.349764123115e+01  -3.842356377755e+01 
1 -3.554642122787e+01  -4.306433687420e+00   5.497393928716e+01 
1  4.861860283369e+01  -1.129464949389e+00   7.798277367791e+01 
1  9.671974721107e+00   5.437039230300e+00   2.211333674208e+01 
1 -1.378139191090e+01  -2.534437360241e+01   4.642722541399e+01 
1  6.233191038745e+00   2.499078980252e+01  -4.585194531002e+01 
1  4.749623452639e+01  -5.631820349105e+01  -9.057783094072e+00 
12
 Atoms. MD step: 19000
1  4.144471999866e+01  -2.501463426876e+01   2.596141346578e+01 
1 -2.741716060888e+01   6.928724851428e+00  -3.770770240620e+01 
1  6.170512994705e-01  -6.462779569398e+01   1.130922047198e+01 
1  1.479119903294e+01   4.386313165629e+00  -2.900718478049e+01 
1  1.437668924247e+01   1.153895570284e+01  -1.826366895387e+01 
1 -3.576661082504e+01   3.100904203910e+01  -4.077848189429e+01 
1 -2.440642145270e+01  -6.607886749056e+01   8.532624682599e+01 
1  1.426526622505e+01   2.558058544587e+01  -5.593308630826e+01 
1  4.987247641132e+01  -5.662573124815e+01   1.874632235734e+01 
1  4.114330043861e+01  -2.668380930130e+01   3.041083164676e+01 
1  1.201911943919e+01  -5.951808415441e+00   4.938765356981e+01 
1  9.617816797074e+00   6.110529744108e+01  -5.571511878019e+01 
12
 Atoms. MD step: 20000
1 -3.123678773549e+01   5.128222557471e+01   2.092594377358e+01 
1  3.529642810897e+01   1.180253709324e+01  -2.807286742648e+01 
1  2.270813071081e+01  -9.251851319395e+00   8.747497339865e+00 
1  3.367279713321e+01  -2.130960701586e+01   4.189999819460e+01 
1  2.780055479282e+01  -1.864094409669e+01  -1.821113186446e+01 
1 -4.150008957162e+00   2.877962205263e+01   7.530789007527e+00 
1  8.052385084357e+00   4.097376186514e+01   3.439343399188e+01 
1 -4.768738295261e+00  -2.128210709560e+01   7.768984021463e+00 
1  2.082468456908e+01  -1.075667515653e+01   9.514584590557e+01 
1  2.237305742023e+01  -2.740924285719e+01  -2.214103496657e+01 
1  3.584482641710e+01  -9.631565054072e+01   6.001817960700e+01 
1  2.800467647698e+01  -4.742924820336e+01  -2.919183502506e+00 
12
 Atoms. MD step: 21000
1  1.314433792822e+01  -1.052415784677e+01   5.010945259733e+01 
1 -1.729168091331e+01   2.033476122228e+01  -2.153038157524e+01 
1 -2.988655797560e+01   3.332030410555e+01  -2.642274387268e+01 
1  4.028394265115e+01  -5.089545137532e+01   3.823492619160e+01 
1 -1.718592740821e+01  -2.060912618630e+01  -1.017046193905e+01 
1  1.414280017613e+01  -3.463815752903e+01  -3.143903292270e-01 
1 -3.787407302619e+01   6.553957875412e+01  -2.782962278620e+01 
1 -2.422985074401e+01  -4.893985006974e+01   7.227246278926e+01 
1  2.536829959993e+01  -4.669392583641e+01   1.913936024917e+01 
1 -8.209440362022e+00   1.462113705274e+01   4.142917340252e+01 
1  7.057043065117e+01  -4.713729082800e+01  -2.752127156211e+01 
1 -8.710960745515e+01   4.424238518925e+01   1.843041429691e+00 
12
 Atoms. MD step: 22000
1  3.319533677632e+01   4.415108284633e+01   7.688728274772e-01 
1 -1.009853717493e+01  -6.454598929729e+01   6.697243836470e+01 
1  4.121700992500e+01   4.275034044214e+01  -6.941535293448e+00 
1  1.699619855036e-01  -1.566745068033e+01   2.423560118350e+01 
1 -5.718852650424e+01   1.584650472771e+01  -4.480158001184e+01 
1  1.066063849016e+01  -4.589455733014e+01   1.484760332992e+00 
1  5.093654914758e+00   1.044508551654e+01  -4.106780753418e+01 
1  4.648246233932e+01   7.320649137601e+01   7.798735157886e+01 
1  1.888251154427e+01  -1.368038609597e+01   3.434591586815e+01 
1  9.804952722452e+00  -1.177499734458e+01   3.190478039048e+01 
1  5.831116344481e+01   8.259166962602e+01   9.001824098856e+01 
1 -2.913098907207e+01  -4.995099925501e+00   2.142641272076e+01 
12
 Atoms. MD step: 23000
1 -6.346182825054e+00  -6.662400838265e+01  -4.222351955638e+01 
1  4.601573381790e+01   3.794574347110e+01   1.359828519880e+01 
1  7.723796645558e+00   3.401472277041e+00  -3.116036477081e+00 
1 -2.151279726683e+01   5.734863826704e+00  -1.259180232956e+01 
1  3.903809344355e+01  -6.963622100514e+01   1.245485442649e+01 
1 -3.202980161090e+01  -1.373599473507e+01   3.594708318248e+01 
1 -4.709341341592e+01  -4.645655226293e+01   1.841597185807e+01 
1  3.322555009542e+01   5.556911550173e+01  -5.188425221637e+01 
1 -2.268855219151e+01  -2.733244634665e+01  -3.574493778808e+01 
1  2.180604780529e+01   3.369298358348e+01   4.067559354636e+01 
1  1.399338956932e+01  -1.375057552723e+01  -3.772324061002e+00 
1 -2.394771612591e+01   3.572248117437e+01   2.335445022650e+01 
12
 Atoms. MD step: 24000
1  1.823371211168e+01  -9.829786765963e+00   1.291892574672e+01 
1  9.217205813301e+00  -4.330388725176e+00   1.220773929852e+01 
1 -3.897354583732e+01   2.384664372542e+01  -2.034772728079e+01 
1  1.572681714794e+01   2.230004316143e+01  -7.626425372277e+00 
1 -4.932916723420e+01   2.619910099447e+01  -4.004772430407e+01 
1  3.495539235333e+01  -5.418793843576e+00  -7.802149187939e+00 
1  4.688188539552e+01   1.113912040457e+01  -5.808231603399e+01 
1 -1.668777677316e+01   2.414699349208e+01   3.157203074760e+01 
1  2.868864447561e+01   5.995294910974e+01   4.479341789899e+01 
1  2.995981471524e+01  -2.731904795252e+01   4.344591931629e+01 
1 -5.390861752190e+01  -2.241614981054e+00  -4.053924957797e+01 
1 -1.509385507991e-01   5.176153387812e+01  -1.195938846774e+01 
12
 Atoms. MD step: 25000
1 -1.426597597931e+01   3.459272871844e+01  -1.829257737003e+00 
1  3.536828268042e+01  -2.293262629396e+01   1.680316862711e+01 
1 -1.025398329271e+01   8.504355526552e+01  -2.726775679736e+00 
1  9.338801033410e+00   2.460118219881e+01  -5.453736576744e+01 
1 -6.962686642496e+00   1.785278158395e+01  -1.748730992218e+01 
1  1.314726727332e+01   3.999385117662e+01   1.054016108705e+01 
1 -2.011945163710e+01   6.914682638335e+01  -3.729423389918e+01 
1 -1.869891757447e+01  -9.950364315576e+00   5.464870072216e+00 
1  8.694058871484e+00  -9.625021235366e+00  -1.306693481116e+01 
1 -7.390234607159e+00   2.540500066126e+01  -1.527440683521e+01 
1  9.379771527336e+01   9.110695949640e+01   3.820590625457e+00 
1 -2.188402556306e+01  -9.984478380894e+00  -9.384246300679e-01 
12
 Atoms. MD step: 26000
1  3.883464450132e+01   1.898453008563e+01  -3.088907288824e+01 
1 -5.279859717592e+01  -4.815006851927e+01   1.855667612318e+00 
1  1.407397755994e+01   2.105099086779e+01   3.811476472751e+01 
1  3.786637992435e+01  -5.588214949650e+01  -9.246931058868e+00 
1 -2.161878349805e+01  -2.443126833062e+01  -2.080169562552e+00 
1 -1.778561266375e+01   1.033398117134e+01  -2.085656256629e+00 
1 -2.864034340572e+01  -1.638099074655e+01  -1.252173927577e+01 
1  5.465522506691e-01   1.752182922756e+01   3.164712266508e+01 
1 -3.824531598087e-01  -1.263600532255e+01   2.421811462516e+00 
1 -4.911189282308e+00   6.274776258629e+00   5.729560967203e+01 
1  4.824526828308e+01   1.434212559251e+01  -7.722497652469e+00 
1  5.216037960324e+01  -3.247512285769e+00   4.434307548484e+01 
12
 Atoms. MD step: 27000
1  2.711639885298e+01   2.529750709289e+01   3.340824309002e+01 
1 -2.710147281283e+00  -1.756974652009e+01  -9.176181641843e+00 
1  4.076608883612e+01  -2.449376342580e+01   4.844224553588e+00 
1  1.630054142974e+00  -5.540823331697e+01  -1.532824692729e+01 
1 -1.365529348443e+01  -8.023357172397e+00  -1.424427961808e+01 
1  1.736835217941e+01  -8.525985298586e+00  -1.657533933019e+01 
1  1.872249595112e+01   3.274052047825e+01  -6.791787055502e+01 
1  1.659355118112e+01  -1.662574443689e+01  -7.731281496046e+00 
1 -1.304384776886e+01   3.694161807520e+01  -8.373716675251e+01 
1 -5.234682706853e+01  -3.459708818779e+00  -3.041942454436e+01 
1  6.036193905342e+01   4.419509466099e+01   1.091092737353e+01 
1 -4.959007647220e+00  -1.818467317910e+01  -7.886568061491e+00 
12
 Atoms. MD step: 28000
1  1.232434723522e+00   3.471073859791e+01   2.314152233527e+01 
1  1.119648723125e+01   8.767832163138e+00  -4.887428667030e+01 
1 -4.138213992201e+01   9.992712474682e+00  -3.951380422863e+01 
1  1.406215127813e+01  -1.076623652945e+01  -4.977284307763e+01 
1 -1.522145790959e+00   4.479637875334e+00  -5.222506697132e+01 
1 -7.986777756185e+00  -2.450755896968e+01   3.915345597277e+00 
1  8.759932372843e+01   2.987914619734e+01   4.983593146545e+00 
1 -2.311943945666e+01   5.829973393777e+01   2.809387072977e+01 
1 -1.399868636740e+01   4.879481956716e+00   8.973563590892e+01 
1  1.470719296311e+01   1.342359721173e+01  -4.070655185891e-01 
1 -4.030941856956e+01  -2.580127699714e+01  -5.147343143983e+01 
1 -3.317108754304e+01  -6.806077895347e-01   4.148433860940e+01 
12
 Atoms. MD step: 29000
1  4.047175836698e+01   4.006622564855e+01  -5.762871468313e+01 
1  3.069003785094e+01   4.868463524175e+01   2.771436713821e+00 
1 -4.827706086868e+01   1.872492046197e+01  -1.070487145157e+00 
1  5.225823676137e+00   2.312820687396e+01   5.425619644891e+00 
1  9.556591773822e+00   6.706927945505e+01   3.110266456290e+01 
1 -4.592494414714e+01  -1.538766475916e+00  -3.886449851139e+01 
1  3.266182070554e+00   1.572613325444e+01  -3.025199977450e+01 
1 -2.988664447134e+01  -5.103570346278e+00   3.298284664262e+01 
1  5.745744770546e+00  -4.321373780842e+00   2.616097352769e+01 
1 -5.530704207865e+01   3.761200186758e+01   5.781350149393e+00 
1  8.751874951743e+00  -1.732575583866e+01   6.606955147570e+00 
1  3.219179383970e+01  -4.949922622383e+01   2.326990201003e+01 
12
 Atoms. MD step: 30000
1  5.680255534287e-02  -3.425691278186e+01  -5.565750736021e+01 
1 -2.439240029266e+01   3.961143926521e+01   4.313804295256e+01 
1  4.386455945144e+00   1.196140965693e+01  -6.872341502429e+00 
1  6.248716305231e+01   4.903357619948e+01  -1.329360337301e+01 
1  3.056590172872e+00   1.692429643957e+00  -1.173933994952e+01 
1  3.932841016091e+01  -8.306206942230e+00  -2.491046261000e+01 
1  1.221932967512e+00   6.591999734450e+00   3.434124599246e+01 
1  4.203192110793e+01   8.305992893141e+00   2.534052252674e+01 
1  4.778827611387e+01   7.259919986205e+01  -2.359854986610e+01 
1 -6.241877502319e+00  -4.924734121201e+00   4.566823225645e+01 
1  3.900616178108e+01  -7.220774278898e+01   3.652319649831e+00 
1 -6.732974820210e+01   5.136010904382e+01   8.157493628743e+00 
12
 Atoms. MD step: 31000
1 -8.712501559018e-01   3.910410388352e+01   4.185995223635e+01 
1  3.530616352458e+01  -3.537272657922e+01   6.302373654256e+01 
1 -3.057334875070e+01  -4.854343294471e+00  -3.375820581738e+01 
1 -1.723415062771e+01   3.590232957007e+01  -1.373423622434e+01 
1 -6.726522103133e+01  -8.325978347739e+00   5.489591855619e+01 
1  4.403548997062e+01  -1.463041060597e+01   3.543448185659e+01 
1 -2.736112601812e+01  -5.860896724899e+01   8.976490784976e+01 
1 -2.811506867736e+01   6.420421246937e+00  -3.602706568449e+01 
1  7.640380342395e+00  -1.403693508806e+01   1.512692435831e+01 
1  6.288496882445e+00  -1.239392962449e+01   4.459620990343e+01 
1  8.470418269666e+00   2.004271478054e+01   2.229757690196e+01 
1  1.525524679018e+01   4.164404895565e+01   3.955178597785e+00 
12
 Atoms. MD step: 32000
1 -8.072180506009e+01  -6.688386856718e+00   6.802446031022e+00 
1 -3.157696093060e+01  -1.741570458695e+01   4.990555261100e+00 
1 -1.298349101619e+01   1.057199628122e+01  -2.676338599111e+01 
1 -1.735402728553e+01   2.465142765073e+01   1.595748508675e+01 
1  1.369676116915e+01   1.210732098671e+01  -1.423662364009e-01 
1 -2.019964158141e+01   3.470997425578e+01   3.575655982363e+01 
1  3.082916399741e+01  -4.655144959652e+00   2.121201729591e+01 
1  2.024497007518e+00  -1.982723294289e+01  -3.753342593880e+01 
1 -6.474443939794e+00   8.547029863326e+00   1.675433361127e+01 
1  2.550714417105e+01  -5.154042107598e+01   6.962319365312e+01 
1 -5.495045100923e+01   8.432820002902e+00   9.629266378418e+00 
1  1.251910647000e+01  -3.411862904689e+01  -3.000796620671e+01 
12
 Atoms. MD step: 33000
1 -3.092279514990e+00  -2.592192890578e+01  -4.583153731213e+01 
1 -3.655468328755e+00   2.133472790029e+01  -5.018243408359e+00 
1  5.536252552948e+01  -7.553465198019e+00  -1.051051080756e+00 
1 -2.150596943118e+01  -1.619053581908e+01  -5.693024245287e+01 
1  3.193245498997e+01   1.797178016296e+01  -1.727368229974e+01 
1  2.003657245799e+01   4.156732333080e+01  -3.396488437362e+01 
1  4.866832589318e+00   1.978167788375e+01   2.554589997995e+01 
1 -4.190695692364e+01   4.010954642437e+01  -3.190121181564e+01 
1  2.331818690900e+01  -6.231068697961e+00   2.801671508747e+01 
1  6.401551397417e+00  -9.938268919928e+00  -9.572937665927e+00 
1 -4.724994160782e+01  -4.075214982415e+01   7.324773509046e+01 
1 -2.813752423177e+01  -1.437183277226e+01   3.716815180020e+01 
12
 Atoms. MD step: 34000
1 -2.712738607806e+01  -2.156803509833e+01  -2.212130165873e+01 
1  2.967975181727e+01  -2.087029930307e+01  -1.923920683415e+01 
1  3.897906652080e+01   4.239717389244e+01   2.833077555237e+01 
1  3.212869175626e+01  -5.331028006580e+01  -5.384527962067e+00 
1 -4.208391363178e+00  -1.382499827380e+01   1.756499043740e+01 
1  3.478685895397e+01   1.585813125249e+01   1.257325110698e+01 
1  1.462226677663e+01   8.083774442032e+00   2.492883201693e+01 
1  5.532122685091e+01   8.885860146360e+00  -2.423476589220e+01 
1 -4.692921172313e+01  -4.328402165439e+01   4.639429257849e+01 
1 -5.264649003262e+01   1.602308898170e+01   3.941547172080e+01 
1  3.990803222065e+01   4.519724284586e+01  -7.535174182929e+01 
1  1.454201301931e+01  -2.856018149373e+01  -1.196799432935e+01 
12
 Atoms. MD step: 35000
1  3.816244505857e+01  -1.218379834855e+01  -8.542662560394e+00 
1  1.226313559833e+00  -1.020355175017e+02   1.714044424030e+01 
1 -3.972687328641e+01  -3.682021548473e+01  -1.145107262773e+01 
1 -3.160964082167e+01  -3.018595911890e+01   3.518167214877e+01 
1  3.416230291645e+01  -1.844030426060e+01  -3.422052218570e+01 
1 -5.677998777110e+00  -8.800742976175e+00   2.194168672877e+01 
1 -2.680004518008e+01   1.617973935580e+01   8.247931757745e+00 
1  6.822312247641e+00  -5.362295121147e+01  -1.447311602931e+00 
1  4.459388722248e+01  -6.566085951819e+01   1.670497873481e+01 
1  1.967483413279e+01  -6.004428695648e+01   5.811739392836e+01 
1  3.353232166935e+01   1.025026277291e+00  -2.292535432990e+01 
1  3.459802787011e+01  -2.177571979617e+01   5.549619284893e+00 
12
 Atoms. MD step: 36000
1 -4.533408263763e+01  -3.079227756021e+00  -6.106607868397e+01 
1  2.653846269273e+01   3.020965265991e+01  -7.968058786764e+01 
1 -2.571376030687e+01  -2.307844017622e+01   5.458867697915e+01 
1  1.604459651715e+01  -7.394339708662e+01   3.453138577189e+01 
1 -7.986553884091e-02  -4.200089394843e+00   6.595163117975e+01 
1 -4.789280853340e+01   9.337540617442e+01   1.787296779818e+01 
1  3.261700707910e+01   9.346689566839e+00  -3.286291636332e+00 
1 -6.355019017923e+01  -2.091982076312e+01   4.074636216368e+00 
1  6.827067824425e+00  -2.109909375980e+01   3.330351695173e+01 
1 -3.717484437579e+01  -2.244146623149e+01  -5.517082430147e+01 
1 -9.052892371409e+01   4.301665969143e+01   2.117002167098e+01 
1  2.486441143436e+01   5.693744411494e+00   6.832696951853e+01 
12
 Atoms. MD step: 37000
1  3.594388445346e+01  -5.618003472847e+01   1.774884332315e+01 
1  7.625639060437e+01  -2.335086671438e+01  -9.310449896159e+00 