12
 Atoms. MD step: 0
1 -7.251101773222e+01   3.657822359039e+01   5.309576457862e+01 
1 -2.490080991862e+01   1.265955454514e+01  -1.622195853981e+01 
1  1.498437380136e+00  -7.072153615316e+01   2.410039478428e+01 
1 -1.719855083682e+01  -7.883807003202e+01   9.042671568073e+00 
1  3.235358640126e+01  -2.751512429518e+01  -6.167348564267e+00 
1  3.978275189898e+01  -3.318854633538e+01   7.405005367148e+01 
1  5.324687910874e+01   1.914496542452e+01  -7.499457034469e+01 
1  5.654761672126e+01  -6.792565999237e+01  -4.314744841033e+01 
1  6.212715806057e+01   6.886673411240e+01  -9.508130353372e+00 
1  9.681295396546e+00   1.366521817229e+01   4.673292046898e+01 
1  7.619220276211e+01   6.143213639992e+01  -7.818870445293e+01 
1 -7.565997035653e-02   6.691395273547e+01  -5.215097645747e+01 
12
 Atoms. MD step: 1000
1  3.069930879693e+01  -7.914800451818e+00   4.584704842152e+01 
1  2.477006573994e+00  -2.781196401105e+01   5.349669817805e+01 
1  3.271922297401e+01  -2.023998098291e+01   4.618678186190e+01 
1 -3.999807495239e+00   2.871275451522e+01   4.756988534428e+01 
1  8.382346934292e+01  -3.176881831356e+01   2.718848219167e+01 
1  8.725681438192e+00  -2.490204687800e+01   6.262571465883e+00 
1  5.077268721022e+01   5.055428093966e+01   4.908342956857e+01 
1  4.310336754010e+01   1.249330352663e+02   1.371404775991e+01 
1  4.316774570708e+01  -2.750189136686e+01   1.585420876521e+01 
1 -9.505790507592e+01  -3.777554474650e+01   5.594558459713e+01 
1 -4.533695246909e+01  -3.574288951737e+01  -3.830360667373e+01 
1 -1.309866734945e+01  -3.792851526667e+00   1.699106847313e+01 
12
 Atoms. MD step: 2000
1 -2.732358021982e+01   3.166202453779e+01   2.479697924473e+01 
1  9.340589411286e+00  -1.914616005041e+01   1.133668561447e+01 
1  2.675778522127e+01   3.532441028611e+01   3.801596837894e+01 
1 -4.685605652850e+01  -6.611399348291e+01  -1.500610649982e+01 
1  4.090106642490e+01  -1.238955824196e+00  -7.346865591449e+01 
1  1.965891932138e+01  -3.235977710754e+01  -3.459016268472e+01 
1 -5.489408700258e+01   2.574346857877e+00  -3.047093758797e+01 
1 -4.095934284269e+00  -4.248002167330e+01   1.440594258412e+01 
1 -5.851544005872e+00  -5.126896795837e+01   3.511426745473e+01 
1  2.619852024106e+00  -6.221995501910e+01  -1.012564542974e+01 
1 -1.162337965513e+01  -3.322297155736e+01  -3.646464185477e+01 
1 -1.964484422829e+01  -5.255894375776e+00   3.732284807578e+01 
12
 Atoms. MD step: 3000
1 -6.313612126786e+01  -8.516548983347e+00  -2.242685432899e+01 
1  6.987174549526e+00  -2.850594584312e+01   4.195057983577e+01 
1 -5.727951873529e+00  -1.022672921604e+01   1.725379935165e+01 
1 -3.744241204325e+01   1.377099359218e+01   6.182455781577e+01 
1  5.297072517839e+01  -3.437542798324e+00   4.224607760250e+01 
1  3.633960339644e+01  -5.821846803788e+01   2.898668419176e+01 
1 -2.532633528788e+01  -2.989987170027e+01   1.059301824850e+01 
1 -7.339029386766e+00  -6.497914865537e+00   3.391692184974e+01 
1  1.701806869469e+01  -2.884357572832e+01   8.705186789688e+00 
1 -4.418866854259e+01  -2.058770966342e+01   6.701758649435e-01 
1 -6.958387649317e+01   4.536173752395e-01   3.153824990903e+01 
1 -1.758767352025e+01   2.372429939197e+01   1.717984660316e+01 
12
 Atoms. MD step: 4000
1 -2.792374424413e+01   2.989582879424e+01  -3.778350705251e+01 
1  5.105582430718e+00  -2.323644765772e+01   1.094870160861e+01 
1  1.896789852034e+01   3.317339081000e+01  -2.966200484836e+01 
1 -2.789318591796e+00   8.369405032502e+01   4.860272356686e+00 
1  1.516957225694e+01   5.354412686836e+01  -2.696279617819e+01 
1  2.251638928266e+01  -1.215531282493e+01  -6.558102750093e+00 
1 -5.077489580435e+01   3.124687195895e+01   6.429297204847e+01 
1 -3.271267810607e+01  -3.863878672027e+01  -2.331496879806e+01 
1  7.478831928537e+01   2.747285236000e+01   8.094025552143e+00 
1  6.803701756423e+01  -2.772640448699e+01  -4.090729931960e+00 
1  1.692199967022e+01  -5.081696406578e-01  -4.276818127177e+01 
1  7.318572943592e+00   3.705024558421e+01   2.453888694384e+01 
12
 Atoms. MD step: 5000
1  3.567298791512e+00   3.613584650228e+01  -6.489147970512e+00 
1 -2.846497099549e+01  -3.728628858910e+01  -7.355068821442e+00 
1 -3.493491391766e+01   4.564634151067e+01  -9.710840281924e+00 
1 -1.745796429912e+01  -2.036443571718e+01  -1.078102460420e+01 
1 -4.236050773150e+01   4.068870066937e+01  -7.986683900303e+01 
1  3.257802041906e+00  -1.955189050825e+01   2.559217743870e+00 
1  2.882190689755e+01   5.340179942803e+01  -3.651414645011e+01 
1 -3.353376151335e+01  -5.352192793936e+01  -3.117292745593e-01 
1  2.249750182798e+01   2.881929433303e+01   3.013723890852e+01 
1  3.434890954678e+01  -1.279107873402e+01   4.128008995370e+01 
1  1.304226763241e+01   4.586316075674e+01  -1.354836192375e+01 
1  2.000820697840e+01  -2.339786974788e+01   3.110907653359e+01 
12
 Atoms. MD step: 6000
1 -1.154009638452e+01  -2.577671208667e+01  -1.497870691962e+00 
1 -1.625124302399e+01   3.463410802018e+01   7.156644435620e+01 
1  1.321869604698e+01  -7.103174440046e+00   4.652318334627e+00 
1  3.800506214190e+01  -1.763034864503e+01  -3.273795043804e+01 
1  3.466271586349e+01  -3.860974548856e+01   2.937316243819e+01 
1  6.769636688400e+01   1.801500561110e+01  -1.585096604996e+01 
1 -2.095614394475e+00   3.244096789012e+01  -8.264243373455e-01 
1 -4.187169576928e+01   2.519628718165e+01   6.709291693445e+00 
1 -3.148953195256e+01  -8.943851000915e+00  -5.322109418338e+01 
1 -6.914393480094e+00   3.553676259274e+01  -8.098571455178e+00 
1 -3.625096600060e+01   5.940020766562e+00   5.476910985886e+00 
1  2.170460984571e+01   2.012454362446e+01   7.916103763151e+01 
12
 Atoms. MD step: 7000
1 -1.999893682608e+01   4.543388713858e+01  -1.010001151449e+01 
1  2.216446605729e+01   2.433158245957e+01   5.160857858255e+01 
1  5.484299454710e+01  -4.132191460280e+01  -3.539421361260e+00 
1  3.317255758331e+01   5.419977591093e+01  -2.187280191023e+01 
1  6.302614588131e+00  -5.512249504980e+01   4.162019440013e+01 
1 -1.153420805417e+01   3.614806343238e+01   2.074297612250e+01 
1 -6.010509252685e+01  -5.482280847343e+01  -4.381824011407e+01 
1 -6.459344492941e+00  -3.742767575991e+01  -1.667182156002e+01 
1 -4.662122263495e+01   3.258087808006e+01   1.796062953343e+01 
1  1.833266125728e+01   2.581198516305e+01   6.112042436025e+01 
1  5.224092372359e+01  -1.219049348512e+01   3.820924507299e+01 
1 -2.441583178905e+01   2.274006707579e+01  -4.176046014139e+00 
12
 Atoms. MD step: 8000
1  4.076532833846e+01  -1.177742815655e+01  -5.472835451158e+01 
1  4.929277788430e+01  -1.958682764363e+01  -1.496153790947e+01 
1  5.025263101399e+00  -2.472691894359e+01   1.377877383581e+01 
1 -4.520504022359e+01  -7.758542896334e+00   8.757961048354e-01 
1 -4.963686450890e+01   4.715877500620e+01  -1.228341720328e+02 
1 -3.410485510171e+01  -1.371312498667e+01  -1.352586026674e+01 
1 -6.386532072038e+00  -2.621872570143e+01   8.660797549221e+00 
1  6.517124333238e+01   2.962660643876e+01  -7.361230444380e+01 
1 -1.970662142234e+01  -1.915148690629e+01   6.282971932116e+01 
1 -7.789229688490e+01   3.145300745379e+01  -3.228051470641e+01 
1 -2.918651908953e+01  -2.530980532766e+00  -5.276186277560e+01 
1 -1.701510180638e+01   4.019365753180e+01  -5.344908174433e+01 
12
 Atoms. MD step: 9000
1  3.471771939721e+01   3.232665817087e+01  -4.149585084865e+01 
1  1.153079827988e+02  -4.721782642812e+01  -9.847615432687e+00 
1  2.254946028207e+01   2.116846546645e+01  -9.765513806337e+00 
1  1.201076289566e+01  -1.147611143924e+01   7.763150329644e+01 
1 -5.856157249288e+00   1.264635409231e+00   1.692448723856e+01 
1  3.389928348364e+01  -4.354069973819e+01  -1.910672828654e+01 
1 -5.153014809136e+01  -3.229050049163e+01   3.409929951010e+01 
1 -8.088522585598e+01   4.107895122851e+01  -3.278392038488e+00 
1 -8.424014107429e+01   6.915580428701e+00  -4.260181000792e+01 
1 -1.408459347932e+01  -4.146657454297e+01  -5.616550819911e+01 
1  9.205138688167e+00  -1.222995907834e+01  -1.012468463741e+01 
1 -7.136454224998e+00   1.018432766129e+01   4.873078406256e+01 
12
 Atoms. MD step: 10000
1 -1.205236066813e+01   1.139070049730e+01  -3.199271133403e+01 
1 -2.632635959756e+01  -4.394323646118e+01  -3.125910559029e+01 
1 -4.337953485328e+00  -7.565876064178e+00  -9.144578415414e+00 
1 -3.230565431413e+01   1.703746127538e+01  -2.116706759156e+01 
1  2.634567419390e+00   5.119932529398e+01  -2.234214178014e+01 
1 -4.147152026674e+01   1.335498233837e+00  -1.228919263433e+01 
1 -3.848345113087e+01  -3.460645804714e+01   1.279618642277e+01 
1 -2.967679574837e+01   4.978729861516e+01   3.988953853575e+00 
1  7.154100755710e+01   4.846515593080e+01  -3.270458597601e+01 
1 -2.352837363836e+01  -1.024641663032e+01  -1.569697906495e+01 
1 -2.504406365783e+01  -2.455846997140e-01  -3.927283380728e+01 
1 -1.308280457757e+01   3.425379751855e+01  -4.721741220136e+01 
12
 Atoms. MD step: 11000
1  4.372237727582e+01  -1.356878982879e+01   9.999516296579e+00 
1  1.284822179395e+01   1.957992798256e+01   5.041104884106e+01 
1  4.335862452038e+01  -5.502545492170e+01   8.989349824218e-01 
1 -2.407154831545e+01   9.292709322186e+00  -3.418351134008e+01 
1 -1.111051458977e+01   2.127591666376e+01   1.369307852411e+01 
1  1.699562553468e+01   6.121446946615e+01  -2.513103186356e+01 
1 -8.576295773722e+01  -2.981028281908e+01  -4.239790584450e+01 
1  1.820883464025e-01  -1.430425896597e+01  -3.199962412509e+00 
1  3.718007611177e+01   6.321321320030e+01   5.483474339031e+01 
1 -2.793627244983e+01   1.181138335600e+01  -2.823153028987e+01 
1  4.683052393852e+01  -2.375853779825e+01  -2.702914583951e+01 
1  3.641037961525e+01  -1.451008985656e+01   1.210457090522e+01 
12
 Atoms. MD step: 12000
1 -7.165702053795e-01  -3.468835145656e+01   4.736887256597e+01 
1  2.777552279760e+01   1.315117892627e+01  -4.953515688982e+00 
1  2.445893883353e+01  -5.643048411941e+01   2.559721111398e+01 
1  1.901284482525e+01  -6.180612954418e+01  -1.585312421699e+01 
1 -1.337783077644e+01   7.510981203210e+01  -3.388363713706e+01 
1 -2.969304535381e+00   6.549813799790e+00  -1.576278594993e+01 
1 -1.982520448000e+01  -4.373217244113e+01  -2.937212234391e-01 
1 -6.129115344678e+01   2.402985068426e+01   6.848935334340e+01 
1 -2.022523619878e+01   2.583387474214e+01   1.599885539712e+01 
1 -3.154167996520e+01  -1.888594327359e+01   3.830640639551e+01 
1 -5.151976910275e+00   3.187188465639e+01  -4.687183271047e+01 
1 -1.900164805597e+01   1.971979262051e+01  -1.537865583650e+01 
12
 Atoms. MD step: 13000
1 -6.856587663208e+01  -6.303337940236e+01   4.022720617770e+00 
1  1.023886816553e+02  -1.223042632254e+01  -4.851562584944e+01 
1 -4.846340430632e+00   4.349987570582e+01  -8.284347027341e+00 
1  1.742471346887e+01   1.921119489870e+01  -4.688828738172e+01 
1  3.318836552768e+01   4.698893748299e+01   1.417279477513e+01 
1  2.048571439538e+00  -6.677083347367e+01   8.434420272903e+01 
1 -6.959291368645e+01   2.682401154749e+01  -4.113365796021e+01 
1  2.861721296791e+01   2.628904450890e+01  -3.546672230981e+01 
1  2.074488697239e+01   5.870376498345e+00   4.066768595652e+01 
1  4.075321380456e+01  -7.830949759449e+00   4.430935760110e+01 
1 -5.854480052678e+01  -1.449969631530e+01  -4.363157616790e+00 
1 -3.591263103477e+01   2.835681913238e+01   1.938204073879e+01 
12
 Atoms. MD step: 14000
1 -5.622787740733e+01   2.254244735137e+01  -6.615641871554e+01 
1 -4.483362912529e+00  -3.697927682444e+01  -1.751959381928e+01 
1  1.215391665832e+01   2.071437628986e+01   4.195658127790e+01 
1  6.192296290066e-01  -1.611624674242e+01   3.554443022522e+01 
1  2.970298714798e+00  -3.158378400261e+01  -1.300470020399e+01 
1 -1.103618668192e+01   6.545391894411e+00  -3.122146929157e+01 
1  8.672342298926e-02   3.628237404663e+01   7.031582558162e+00 
1 -2.955698372374e-01  -1.280152321881e+00  -3.883788908617e+00 
1 -3.811327615769e+01  -3.121821414541e+01  -2.211252572697e+01 
1  1.348947614973e+01   1.917240594795e+00  -2.167450603325e+01 
1 -6.072342075441e+00  -3.504347379097e+00   2.493405148825e+00 
1 -3.180631207031e+01   3.155523235506e+01   7.116553491088e+01 
12
 Atoms. MD step: 15000
1  1.978695627387e+01  -4.235246261415e+01   2.613714812900e+01 
1  5.759760348258e+01   3.613365064427e+01   9.228064407040e+00 
1  2.984620785044e+01   2.878493058109e+01   2.193893449598e+01 
1  4.810793298147e+01   5.159062759839e+01  -7.350577983844e+00 
1 -2.351418136090e+01  -3.322169785064e+01   3.371151006933e+00 
1 -1.917947193017e+00  -1.118102091895e+01  -1.925397960782e+01 
1 -2.627714802205e+01  -3.102338065509e+01   1.770190347029e+01 
1 -2.910479841444e+01   2.933057690554e+01   1.233505667630e-01 
1 -1.817588502197e+01   9.744199090474e+01   2.269722269234e+01 
1  1.670737483168e+01  -7.748147304522e+00  -1.778141314590e+01 
1 -6.765549423397e+01  -1.496850415387e+01  -2.955845199563e+01 
1 -7.553806681512e+01  -3.804421579892e+01   2.538152655554e+01 
12
 Atoms. MD step: 16000
1 -5.265149500517e+01  -2.241271893162e+01  -9.106727434392e-01 
1  3.108259674525e+01   2.674196371416e+00   6.517155961829e+01 
1  7.995533627247e+00  -3.220028221752e+01  -3.034294648133e+01 
1 -2.310706251121e+01   4.519036553067e+01   3.966893593438e+01 
1  5.714308847047e+01   3.370963677738e+00   6.463926555378e+01 
1  4.030910715930e+00   1.396870620631e+01   1.754093759995e+01 
1 -6.660697176357e+01  -5.513228767159e+01  -8.367226877516e+00 
1  2.265159933052e+01   2.544102375735e+00  -5.867893195678e+01 
1 -1.587730687908e+01   1.461118879875e+01   3.777820495583e+01 
1  2.093756179699e+01  -1.499956117757e+00   1.721690964222e+01 
1  2.475307009070e+00   1.026929739022e+01  -2.596523637465e+01 
1 -2.139489403180e+01  -4.749110513417e+01   2.289532986905e+00 
12
 Atoms. MD step: 17000
1 -2.402925969372e+01   3.406801929530e+01  -7.065865458500e+01 
1  3.100308259884e+01  -2.261429065218e+00   6.317192798365e+01 
1  4.700933491678e+01   5.748820780780e+01  -2.443607205332e+01 
1  1.676701570374e+01  -1.676366533664e+01   1.680014864248e+01 
1  7.074604666922e+01   1.482131580544e+01  -5.647983004734e+00 
1 -5.385967012598e+01  -8.382134505539e+00  -1.030458532513e+01 
1 -7.419176726423e+01  -5.299169369365e+01   3.285745819924e+01 
1 -1.620688059251e+01  -3.811162223037e+01   3.911251528897e+01 
1 -6.153340406600e+01  -2.869339288456e+01   3.956183732100e+01 
1 -4.891377206666e+01   1.226139087878e+01  -1.237034001857e+01 
1  6.121336046111e+01   8.780168173779e+01  -7.571051127452e+00 
1  3.429104372114e+01  -7.651666708718e+01  -2.956202068709e+00 
12
 Atoms. MD step: 18000
1 -2.120915021381e+01  -1.695981216756e+01  -1.975223281789e+01 
1  6.441470330785e+01   1.164337789866e+01   4.157495621989e+01 
1 -6.010261134812e-01  -2.750888615910e+01   2.378125339212e+01 
1 -3.530538372759e+01   9.293514396061e+00   1.591490946044e+01 
1 -4.394982123064e+01  -1.339116420759e+01   3.869173041130e+01 
1 -2.324542455399e+01   1.356386137695e+01  -3.105542143702e+01 
1  8.620386809417e+00   5.188748229387e+00   5.192010712404e+01 
1  2.713642280340e+01  -2.237419174213e+01   1.432121368033e+01 
1  6.196273646772e+00  -3.110017310806e+01   4.010572021509e+00 
1  6.823783720457e+00  -2.252805140160e+01   6.194144639438e+01 
1 -8.103535209058e+00  -1.127307736297e+01  -5.265149307417e+01 
1  2.761447689835e+01   1.706908459888e+01   4.411082815242e+01 
12
 Atoms. MD step: 19000
1  4.517223054411e+01   8.937470047497e+00   5.948597310141e+01 
1 -4.740109868276e+01   2.749115496838e+01  -1.802532366072e+01 
1  3.385490890568e+01  -1.235396738329e+01   2.114087270523e+01 
1  7.761907852964e+01  -5.538789544359e+01  -3.566645001092e+01 
1  1.183783853386e+01   3.415919516391e+00  -3.679352082133e+01 
1  1.221934913770e+01  -2.960597012180e+01  -1.056037123878e+00 
1 -8.476036489449e+00  -1.450073179760e+00   5.016590928411e+01 
1 -9.500737799127e+00   5.529515881320e+01  -1.954809711068e+01 
1  3.254316063436e+01   1.302265050663e+01  -7.080643932467e+01 
1  7.606281983278e+01  -2.078443522693e+01   1.977638090382e+00 
1  8.083393530744e+01  -2.551531077375e+01  -1.205645320293e+01 
1  2.517797985256e+01   3.868580203905e+01  -5.474458561068e+01 
12
 Atoms. MD step: 20000
1  1.070397887647e+01   3.936576720314e+00   3.703616220294e+01 
1 -7.579454367290e+00  -1.839639825263e+00  -3.650358029017e+01 
1 -2.432851573994e+01  -4.693096892963e+01  -3.691766885767e+01 
1 -1.222388292329e+01   5.352090357785e+01   3.181232920303e-01 
1  6.100120004195e+00  -5.182913933380e+01  -7.109591680475e+00 
1  5.524340707601e+00   9.311664417599e+00  -1.932834856820e+01 
1 -4.732957399777e+01  -1.877780269439e+01  -2.854992952866e+01 
1 -1.948329338238e+01  -4.708908835196e+01   8.795852498271e+00 
1 -2.502607005963e+01   1.272935467109e+00  -4.921834197234e+00 
1  1.784083368022e+01   2.210150130962e+01   4.984853046179e+01 
1  6.858161195937e+01  -1.513231835572e+01   4.162856628308e+01 
1 -5.168180339130e+00   1.113723468033e+01  -1.399502363174e+01 
12
 Atoms. MD step: 21000
1 -8.076160036504e+01  -2.146605049218e+01   7.597010566931e+01 
1 -7.383083750324e+01   8.108595708731e+01  -4.178910166857e+00 
1 -4.901875939960e+00   6.990248797702e+00   3.267659954225e+01 
1  1.276338833915e+01   1.714877888261e+01  -2.360004127865e+01 
1 -3.966807219741e+01  -5.667879889852e+01   3.929332215805e+01 
1  1.035393185031e+00  -3.779697059919e+01  -1.777439828280e+01 
1  1.173008037460e+01  -9.602120312143e+00  -6.768685025965e+01 
1 -2.356839357618e+01  -3.099839887005e+00   1.996258540493e+01 
1  2.814005055116e+01   1.745772742760e+01  -6.533492412300e+00 
1 -3.462852712251e+01   2.512744841944e+01   5.500553990540e+01 
1  3.797090252020e+01   2.890465929563e+01  -1.818840809739e+01 
1 -1.291583396115e+00   1.783846626095e+01  -2.520578901853e+00 
12
 Atoms. MD step: 22000
1 -1.941708029368e+01   4.771597987202e+00  -5.571399315301e+01 
1 -6.509977475573e+00   1.808732396499e+01   4.129123138402e+00 
1  1.946244582419e+01   1.652400761280e+01  -2.643926318572e+01 
1 -5.601606454926e-01  -4.844066536972e+01  -5.889479556459e+01 
1 -9.641312260316e+00   5.259328844488e+01  -5.874602510332e+01 
1 -1.227706938460e+01  -1.491128814269e+01   6.359118732949e+01 
1 -2.095053100915e+01  -2.427380509841e+01  -4.502271301286e+01 
1 -3.192522652043e+00   1.032565382658e+02   4.873438260250e+01 
1  9.761184730002e+00  -4.567191974516e+01  -5.543275252115e+00 
1  4.053091074935e+01   1.852385483034e+01   3.077771532954e+01 
1  1.338573848084e+01   3.678944523481e+01  -5.789467069174e+00 
1 -4.661710192659e+01  -1.862185503924e+01   1.087856174276e+01 
12
 Atoms. MD step: 23000
1  3.826416954702e+01  -2.221432697921e+01   3.327338558771e+01 
1  2.340695963742e+01   2.106056479384e+00   2.457859190306e+01 
1  1.128293189348e+01  -3.363996134565e+00   1.407033267136e+01 
1  6.327539260624e+01   2.038155285355e+01   5.570540198160e+00 
1 -3.817074619072e+00  -2.547018553662e+01  -4.862457344595e+01 
1  2.049030266678e+01  -1.606700693160e+01   4.739998806721e+01 
1 -3.474980789961e+01  -5.259370893946e+01  -1.116212930579e+01 
1 -6.793259266086e+00   9.642512095095e+01   3.101680434621e+01 
1 -1.783513400482e+01  -1.039607564873e+01  -1.506725294283e+01 
1  1.177934032691e+01  -2.760420929635e+01  -3.285747529674e+00 
1  6.489986248071e+01   2.425645087674e+01  -2.903192256961e+01 
1  1.631749544183e+01   2.896900007326e+01   9.737525831841e+00 
12
 Atoms. MD step: 24000
1  5.401308135100e+01   4.970697093047e-01   6.553757643221e+01 
1  3.021558652367e+01   3.883657818153e+00  -2.564244738190e+01 
1  1.131671881134e+01   1.991019313814e+01  -1.156047692232e+01 
1  1.626227532995e+01   6.276994574413e+01  -2.329956870542e+01 
1 -1.007773000837e+02   3.336206167999e+01   1.403541390145e+01 
1  5.315567581866e+01   3.397284810320e+01   2.474323671439e+01 
1  3.029612288162e+01  -1.310665873562e+00  -4.257626507894e+01 
1 -1.191917372052e+01  -9.050031499162e-01   3.500505396313e+01 
1  3.569488633619e+01   2.995267309346e+01   1.517779457099e+01 
1  2.993236018752e+01  -5.841973074938e+01   8.707617536712e+01 
1 -2.021597896823e+01  -4.163145132953e+01  -1.023967275677e+01 
1  3.102116701955e+01   1.211311550499e+01  -9.260848679976e+00 
12
 Atoms. MD step: 25000
1  5.206089446309e+01  -1.111305359823e+01  -6.517594220200e+01 
1  6.864988767813e+01  -1.422810224987e+01  -5.720599420190e+00 
1  2.311884885253e+01   5.221976021724e+01   7.546869260999e+00 
1  3.799891001656e+01  -6.672752057471e+00   3.579478821330e+01 
1 -3.673374910554e+01   1.895047822666e+01  -1.758624094564e+01 
1  4.941009908052e+01   1.246114197500e+01   2.301157583578e+01 
1 -4.202453549292e+01  -1.573094184868e+01  -4.211059276730e+01 
1  5.451349633903e+01  -2.278050790771e+01   9.170402989450e+01 
1  2.947982815487e+01   3.278065210799e+01   3.878142453442e+00 
1  7.912165236849e-01   4.733817262799e+01  -1.942522137069e+01 
1  3.749163671231e+01  -3.715942033826e+01  -2.282636801731e+01 
1  1.487735795728e+01  -2.473756125748e+01   1.801813564376e+01 
12
 Atoms. MD step: 26000
1  3.232285646772e+01  -5.588255798673e+00  -1.111167269920e+01 
1 -5.366005195559e+01  -5.533899147926e+01  -1.507068497337e+01 
1 -3.289088339596e+01   2.456097243713e+01   4.458198672206e+01 
1 -5.099446414426e+01  -1.638317967063e+01   5.689799026402e+01 
1  9.076303585709e+00   3.742844457336e+01  -1.441500588979e+01 
1  4.630599980784e+00  -2.804927242937e+01  -3.614774387853e+01 
1  2.749885914529e+00   7.087810330226e+00   4.812354401679e+01 
1 -3.552381831188e+01  -4.065885450075e+00  -3.652954131447e+01 
1  3.333080573594e+01   2.352980031857e+01  -2.284964778791e+01 
1 -1.369609706178e+01   3.766891544867e+01   3.409057349837e+01 
1  6.106878567348e+01   8.324299382550e+00   1.597747671773e+00 
1 -4.684259764475e+01   5.081414572010e+01   1.918447566141e+01 
12
 Atoms. MD step: 27000
1  1.136064503734e+01   5.849433572509e+01  -3.724686431678e+01 
1  1.354734647282e+01   8.923483374219e+00  -4.436879371781e+00 
1 -1.200576560875e+01   1.634504549939e+01   2.756808613290e+00 
1  1.098702476760e+01  -1.052986458588e+01   1.133355228880e+01 
1 -3.915301729384e+01   7.959314429866e+00   2.832533899416e+01 
1  1.592981695846e+01  -1.352253681038e+01  -1.849509363335e+01 
1  1.157898223297e+01   3.566380891078e+01  -3.516673038059e+00 
1  8.952171740042e+00  -1.564774609133e+01  -3.371061867653e-01 
1 -5.890563417685e+01  -2.864520503455e+01  -2.594869467973e+01 
1  7.061427428744e+00   9.092654913786e+00  -1.140304171919e+01 
1  3.668710371024e+01   3.579706735245e+01  -3.860952156326e+01 
1  8.435692953097e+00  -4.006255743254e+01   2.731881981021e+01 
12
 Atoms. MD step: 28000
1  1.983686155368e+01   2.352071099212e+01   1.733570105090e+01 
1  8.820309473373e+01   1.227083376403e-01  -3.575705224041e+01 
1  4.034062519965e+00  -3.140952303993e+01  -2.487843043761e+01 
1  3.651751186001e+01  -2.739489307572e+01  -3.553316238864e+01 
1 -3.564560176029e+01   4.826949344731e+01  -5.428761025276e+01 
1  6.938801815832e+00   4.985435218887e+01   2.842511003186e+01 
1 -6.926633672188e+00   5.498460437269e+01  -1.391650807054e+01 
1 -4.479492715516e+01   9.144073538202e+00   7.687796391488e+01 
1 -1.832218545849e+00   1.378376384461e+01   1.466886661162e+01 
1  1.255750964196e+01   5.742016706385e+00   8.569530114209e-01 
1  1.858062786315e+01   3.149514614845e+01  -1.492142653823e+01 
1 -1.731328961881e+01   4.530512636810e+01   2.403482272035e+01 
12
 Atoms. MD step: 29000
1  5.073531514305e+01   4.235345524614e+01  -3.583382828359e+01 
1  4.075861725932e+01  -4.684114213357e+01  -5.229396885770e+01 
1 -6.176081955567e+01  -6.837528140772e+00  -4.348698760339e+01 
1 -4.299709862483e+01   2.284242056199e+01   7.350286765438e+01 
1  1.792012695461e+01  -2.441955888678e+00  -6.616688702179e+00 
1 -4.076623328085e+01   4.065662360884e+01   3.182445102462e+01 
1  6.408722614984e+01  -7.723224935582e+01  -2.045721519919e+01 
1  1.780600472860e+01  -1.989039525424e+01  -8.624926227553e+00 
1 -9.138124133662e+00  -5.090307101143e+01  -3.074672622927e+01 
1 -3.772564622026e+01  -3.882329565736e+01   5.772488299314e+01 
1 -4.865843888900e+01   7.550740664262e+00   2.528718535923e+01 
1 -3.911768251215e+00  -2.453581121217e+01   1.017085762337e+01 
12
 Atoms. MD step: 30000
1  1.437369385308e+01   2.736516463279e+01  -2.917113805882e+01 
1 -2.947125345457e+01  -5.244385969910e+00  -1.738515894818e+01 
1 -4.201718755945e+01  -9.784744525258e+00   1.998391590705e+01 
1  3.776115839761e+01   4.677794483123e+01  -4.199708198245e+01 
1 -2.960443281217e+01  -3.358963082671e+01   2.363785815211e+01 
1  3.039064433424e+01  -9.088275081111e+00   8.758401222228e+01 
1  3.845859767761e+01  -3.383968070450e+01   1.569419168072e+01 
1  1.238172166692e+01  -3.843898463362e+01  -6.071984910492e+01 
1  7.830707022341e+01   2.898725682753e+01   1.919162581601e+01 
1  4.919397605007e+01   2.255531225301e+00  -1.373228279773e+01 
1 -7.306803152135e+00  -4.959009387341e+01   7.259901699039e-01 
1 -5.680051748816e+01  -1.769043210071e+01   5.130695444836e+01 
12
 Atoms. MD step: 31000
1  5.453795022172e+01   3.459030570046e+01   9.752043486308e+00 
1 -3.264407421295e+00  -2.134108399505e+00  -4.015648429512e+01 
1 -1.137192034458e+01  -6.621856470030e+01  -2.701765014697e+01 
1  2.034240839567e+01  -1.520121915367e+00   3.509987869905e+01 
1  2.534120758809e+01  -2.447604907674e+01   4.377548095028e+01 
1 -9.980811214651e+00  -1.621564161488e+01   6.875096068802e+01 
1 -1.025362849317e+01  -4.267434311551e+01   5.129024124984e+01 
1  3.004288406893e+01   7.604651317955e+00  -3.776889455650e+01 
1 -7.052288998858e+01  -5.151206349689e+00  -1.595836237267e+01 
1  3.027426281679e+00  -2.976798903860e+01   6.283018451316e+01 
1 -2.228401140114e+01  -8.129209661240e+00  -4.509417867094e+01 
1 -2.867670365885e+01  -1.621054002256e+01  -2.911462782264e+01 
12
 Atoms. MD step: 32000
1 -6.358468751813e+01   3.020520894541e+01   9.053224885145e+00 
1 -3.818578749605e+01  -1.056841651241e+01   1.247215762330e+01 
1 -7.194711251378e+00   6.693108924165e+00  -1.805765907141e+01 
1 -1.251486715752e+01   1.174467572819e+01   1.324773282259e+01 
1  1.750128424153e+01  -2.716162111429e+01   2.760548668234e+01 
1 -6.096416416453e+01   4.594453713663e+01  -8.488875965715e+01 
1 -1.544397732433e+01  -1.834968290893e+01   6.585272756446e+00 
1 -4.859726803050e+01  -1.981346339432e+01  -5.208867289934e+01 
1 -4.786846711827e+01  -5.991744153675e+00  -2.604182945728e+01 
1  2.791331788076e+01  -6.438028858885e+00   3.232927413570e+00 
1 -6.708469336115e+01   2.560769885304e+01  -1.049624045739e+02 
1 -5.132810659872e+01  -2.067734520111e+01   3.177122439164e+01 
12
 Atoms. MD step: 33000
1 -1.049551759907e+01  -7.934148472613e+01  -7.591598745986e+01 
1 -6.846004872981e+00  -1.806340953686e+01   5.208844609482e+01 
1  4.821333856165e+01  -2.523822406236e+01   2.426624529527e+01 
1 -1.651113581911e+01  -1.075298662616e+01  -1.371261796224e+01 
1  5.397481634583e+01  -1.457551872174e+01  -3.990874250403e+01 
1 -9.336042796310e+01  -1.268986113708e+01   2.565838133711e+01 
1 -3.544440613385e+01  -3.378633476298e+00   3.062356238855e+01 
1  2.100661100207e+01   3.361095478644e+01   5.533721464192e+00 
1  5.453744829132e+00   3.294940966497e+01   5.989849174592e+01 
1  1.253997691629e+01   2.506608974688e+01  -2.624707071073e+01 
1 -3.085435591744e+01  -2.809575315291e+01   4.526402650858e+01 
1  4.810256141365e+01   5.369392478392e+01  -5.532287681346e+00 
12
 Atoms. MD step: 34000
1 -2.779546412499e+01   2.879798712657e+01  -5.280274022162e+00 
1 -6.577170638117e+00  -3.738734443991e+01   1.270873529184e+01 
1 -4.236214079040e+01   6.559093546264e+01  -3.619936579963e+01 
1  7.305677415180e+01  -3.811250555480e+01  -2.024870181492e+01 
1 -6.279476367935e+00  -2.182534506673e+01   2.377745376256e+01 
1 -5.517885952705e+01   1.922972407525e+01   3.831601837584e+01 
1  1.960365673683e+01  -3.197456830213e+00   2.654018706335e+01 
1  5.028987382379e+01   2.214049498602e+01  -3.284496717557e+01 
1  1.705389982858e+01  -1.324845497578e+01  -5.024549508647e+01 
1  7.683700771430e+00   1.672990026590e+01  -1.601083128878e+01 
1 -1.526342269965e+01   4.741218143075e+01   9.931699957656e-01 
1 -1.434627153680e+01  -2.982643380877e+01   2.355485463385e+01 
12
 Atoms. MD step: 35000
1  1.146001024172e+01  -3.816312740619e+01   1.193937415906e+01 
1 -6.252416919079e+00   7.957969763680e+00  -2.097404438213e+01 
1 -9.769172332428e+00  -6.739446755767e+01  -6.110421302205e+01 
1  5.396861564795e+00   3.555521821827e+00  -2.587404199667e+01 
1  1.713442643848e+01  -8.182633504436e+01  -4.912947483149e+01 
1  2.136044564017e+01  -5.421048293012e+01   5.644331153058e+00 
1  5.106809586433e+01   1.448229326969e+00  -6.288662764987e+00 
1 -3.730865028403e+01  -1.931928809334e+01  -4.940172280314e+01 
1 -6.188135093023e+01  -1.832350732554e+01   1.010561146938e+01 
1 -1.901733312461e+01   1.295940441979e+00  -5.887586119441e+01 
1  3.219358340271e+00   1.860806885617e+01  -7.017610467138e+01 
1 -1.819388835836e+01  -4.434484240982e+01   4.937579269706e+01 
12
 Atoms. MD step: 36000
1 -1.843378622081e+01   4.588451269826e+00  -5.634922452828e+01 
1  1.093979131339e+01  -4.810806667010e+01  -1.655775597127e+01 
1  3.925847477650e+01  -5.922320817667e+01   9.363563654812e+00 
1  2.053943900238e+01  -3.909077122019e+00  -4.620731579687e+00 
1 -2.099751308844e+01  -4.239927923432e+01  -2.215858255068e+01 
1 -7.520047708535e+01   3.753397322809e+01   2.560332178191e+01 
1  2.658628090253e+01  -1.102878227185e+01   8.269424710557e+00 
1 -3.879027272734e+01  -6.955942856418e+01   1.080174095243e+01 
1 -1.886759957246e+00  -6.477338042856e+00   2.169152673115e+01 
1 -1.856219574797e+01  -1.903395951480e+01  -1.446568429039e+01 
1 -3.180679708174e+01  -4.393514758293e+01  -6.183964847133e+01 
1  2.927175388897e+01   1.775166693398e+00   6.686904589459e+01 
12
 Atoms. MD step: 37000
1  5.172685465139e+01  -7.041206278692e+01  -8.111062319700e+01 
1 -9.815071568463e+00  -1.170437451863e+02  -6.052255666415e+01 