12
 Atoms. MD step: 0
1  2.604760117999e+01  -7.569930204612e+01   5.982929436137e+01 
1 -3.263234980244e+00   1.981230558761e+01   6.905310538674e+01 
1 -7.690810234904e+01  -4.553615618735e+00  -6.937616514685e+01 
1  4.619377787485e+01   6.716841022023e+01  -2.497078278011e+01 
1 -2.849558817300e+01   5.130783458688e+01   4.740528657035e+01 
1  1.942680710229e+01   1.839700625044e+01   6.709502772600e+01 
1  3.813775061984e+01   3.066811642369e+01  -3.623008942077e+01 
1 -3.563272739003e+00   8.129211565737e+00   2.289845713679e+00 
1  6.390257555917e+01   7.553335281499e+01   6.263992566801e+01 
1  5.725500394470e+01  -8.351309892564e-01   3.537103927812e+01 
1 -5.826443541009e+01   4.986931234637e+01  -7.234513190895e+01 
1  1.012768708970e+01   3.373964786045e+01   3.185087765715e+01 
12
 Atoms. MD step: 1000
1  7.337496496652e+01   2.112044132992e+01  -4.907763578724e+00 
1 -2.703913189463e+01  -8.860408941665e+00   4.949480132612e+01 
1  3.385156603018e+01   5.797006050088e+00  -3.363602107941e-01 
1  3.353453816769e+01   2.011299006471e+01   3.960606886194e+01 
1  4.219343950077e+01  -2.279715142680e+00   2.350975416725e+01 
1 -1.330045190874e+01  -3.508856921084e+01  -5.119755246092e+01 
1 -1.935795932903e+01   1.761103690019e+01   2.372987636921e+01 
1  3.182936726268e+01   5.769685718628e+01   4.220205410140e+01 
1 -1.138920077513e+01   4.483223893334e+01   1.601356617456e+01 
1 -2.355226521777e+01  -1.454579294404e+01   3.700516718920e+01 
1  3.883403216444e+01  -2.499083432448e+01  -9.049885163259e+00 
1  3.977129850475e+01   7.887258568609e+01   2.700337880313e+01 
12
 Atoms. MD step: 2000
1 -1.119287146839e+01  -3.877517225515e+01   1.554422240578e+01 
1 -8.817014817423e+01  -5.026437041290e+01   1.958795546415e+00 
1 -4.032051514499e+01   1.139334244295e+01  -3.277549485781e+01 
1 -4.260539635511e+01   2.636076737816e+01   4.631494121980e+01 
1 -3.263237851729e+01  -8.235830694994e+01  -5.590888672705e+01 
1  2.228490202242e+01  -9.180909711071e-01  -2.889138282794e+01 
1  5.802800632816e-01  -6.832836822417e+01  -1.982348892619e+01 
1  4.653888198704e+00  -5.597874022504e+01   3.320523522283e-01 
1  1.447145140664e+01   8.626721990153e+00   1.893704638848e+01 
1  4.954719453095e+01  -1.041526527800e+01  -4.068240434229e+01 
1  7.372569689445e+00   2.469986074329e-01  -1.987959246600e+01 
1  5.121455326910e+01   3.147786383112e+01   4.903379232502e+01 
12
 Atoms. MD step: 3000
1 -5.166375726153e+00   3.172896901922e+01  -1.070647731171e+01 
1  4.959262055178e+00  -1.393853597709e+01   2.010714423028e+01 
1  4.768377483433e+01   3.222287977019e+01  -4.501705993753e+01 
1 -2.071729848830e+01  -2.291769086340e+01   9.480479549223e+01 
1  1.126272236040e+02   2.547664394090e+01  -3.085568325186e+01 
1 -2.943071842953e+01   2.844927063015e+01  -1.112475737630e+01 
1 -2.339190364129e+01  -2.098519699275e+01  -5.069556222396e+01 
1  3.924556511137e+00  -3.832582698986e+01   1.896767102418e+01 
1  1.520801995383e+01  -1.050416512126e+02   4.849234848365e-01 
1 -7.373881246021e+01  -1.786439659011e+01  -3.447555305080e+00 
1 -2.714224718432e+01  -1.276047764940e+01   3.896554863423e+01 
1 -1.156967951380e+01   4.079932196877e+00   3.955229887030e+01 
12
 Atoms. MD step: 4000
1  3.734022635257e+00  -4.016265777642e+00  -3.214173996334e+01 
1 -3.453717373891e+01   1.551252880342e+01   3.248906373612e+00 
1 -8.551270136041e+00   5.023751948947e+01  -2.432373111442e+01 
1  1.696869013978e+01   7.221456359712e+00  -3.624623601497e+01 
1  2.567967351667e+01   1.164850883421e+02  -1.865970765239e+01 
1  7.988092271725e+01   2.984490531637e+01  -1.584302646432e+01 
1  6.266894162302e+00  -1.118553557819e+01   1.683318468216e+01 
1 -6.453855625407e+01  -3.936362143606e+01  -4.982367036956e+01 
1  6.205566843544e+01   4.226213157660e+01   3.058684114606e+00 
1  5.809804407869e+01  -5.732450826789e+00   2.496925272091e+01 
1  2.947427996020e+01   1.957452290960e+00  -1.776615691676e+01 
1  1.094231546368e+00   1.116276651061e+01   2.632372087191e+01 
12
 Atoms. MD step: 5000
1 -5.907440708501e+01   4.711495321738e+01   7.804628814488e+00 
1  4.126466292957e+01  -3.392406267124e+01  -4.386049579338e+01 
1 -1.367027543538e+01  -1.702744754215e+01  -3.063929295881e+01 
1 -2.898090361255e+01  -1.278987009814e+01   2.728841031940e+00 
1  1.261754960750e+00   3.304405211723e+00   1.218622954775e+01 
1  5.574934970340e+00   4.471548677783e+01  -2.146750219474e+01 
1  1.637316942282e+01   2.768822095728e+01  -1.466021994564e+01 
1 -4.264611403432e+01  -3.896245913184e+01   8.559958831604e+01 
1  3.595114908759e+00   3.106558503155e+01   7.110675182658e+01 
1 -9.479246779728e+00  -9.200605039143e+00   6.228304225632e+01 
1 -6.330058315054e+00   1.072820675185e+00  -7.542011299738e+01 
1  7.498545157570e+00   1.404614965847e+01   7.302481981344e+01 
12
 Atoms. MD step: 6000
1 -4.272584562099e+01   1.332237047959e+01   1.408779001445e+01 
1 -1.882589363669e+01   3.721516252593e+01  -1.578817839790e+01 
1  3.810679735086e+01  -2.679107244387e+01  -4.707717799796e+00 
1  1.703819683577e+01  -1.722972823759e+01  -6.746902268839e+00 
1  1.783320357042e+01   7.490585425956e+00   2.605036832710e+01 
1  7.170131399832e+01   2.493742224307e+01  -6.803442032631e+01 
1  1.582952241003e+01   6.860838003722e+01  -4.212586891511e+01 
1 -8.002115715738e+00   7.252586092753e+01  -8.191960062788e+00 
1 -3.199246291092e+01  -5.492748836754e+01   8.978432800173e+00 
1 -1.683257261685e+01   2.980642793751e+01   1.197236348556e+01 
1  1.248841984110e+01   1.230746846251e+01   1.301190563429e+01 
1 -1.078203676565e+01   8.677537046947e+00   6.508909603566e+01 
12
 Atoms. MD step: 7000
1  3.098915436743e+01  -2.348629328105e+01  -3.980741713485e+01 
1 -6.228351090295e+01  -8.967368876051e+00  -1.016660734388e+01 
1  3.655566633326e+01   6.058523492665e+01   2.255651182780e+01 
1  8.934646879774e+00  -9.499716011761e+00  -2.447408969761e+01 
1 -1.545432307868e+01  -2.312332890305e+01   7.434893670849e+00 
1  1.096515996522e+01  -1.984805462120e+01   5.883258387511e+01 
1  6.288662784584e+00   7.214465422821e+00   2.072448514107e+01 
1 -3.814873141637e+01  -1.138519305259e+01  -5.529507995199e+01 
1  4.074970600651e+01   3.532403078041e+01  -2.862151047682e+01 
1  3.680952361969e+01  -3.282733244982e+01   2.473074350379e+01 
1 -1.048074802731e+01   5.670953734874e+01   6.974690001143e+00 
1 -1.256896632413e+01   3.606059265806e+01  -5.801045011247e+01 
12
 Atoms. MD step: 8000
1 -1.214877477227e+01  -3.670937117026e+00  -6.369038808113e+01 
1  1.884397923134e+01   9.277849994939e-01   5.275562323245e-01 
1  8.260933606965e+00   6.600182129386e+01   3.985418910700e+01 
1 -6.307360645523e+01  -4.922021520659e+01   4.336038014276e+01 
1 -1.358675959115e+01  -3.600337845128e+01  -5.577104967599e+01 
1  2.063888640578e+01   2.356721871818e+01   4.025957751964e+01 
1  2.651771360880e+01  -4.584088726218e+01  -1.668689363405e+01 
1 -5.588534261244e+00   4.525500319547e+01  -4.649956494060e+01 
1 -4.165687284277e+01  -1.832666767135e+01   4.605672795288e+01 
1 -2.978637736062e+01   1.775705341838e+01   1.912279628085e+01 
1 -1.525691534992e+01  -5.297789771260e+01  -1.292315216692e+00 
1  1.562768376661e+01  -3.221081615469e+00  -7.718616462829e+01 
12
 Atoms. MD step: 9000
1 -2.106190069007e+01  -1.304140962619e+01   5.955550461141e+01 
1  1.843701144557e+01  -3.775456848758e+01  -2.900817350932e+01 
1  3.044710955773e+01  -6.953930612612e+01   4.824265010156e+01 
1 -2.492388777896e+01   1.367389436283e+01   3.819633007027e+01 
1 -2.800362441535e+01   1.303356787566e+01  -1.573924654300e+01 
1  2.271754192057e+01   1.083526262492e+01  -6.024010737070e+01 
1 -4.487328804588e+01  -1.896579026117e+00   7.099466059540e+00 
1 -2.354763807662e+01   1.770204516915e+01   1.275491325593e+01 
1 -8.998355339220e+00   2.698244341044e+01   4.418272966404e+01 
1  4.217944474291e+01  -2.041054372908e+01  -5.009844145387e+01 
1 -3.658010846518e+01   1.618866985296e+01  -1.313832197315e+01 
1  4.206222397502e+01  -4.912331990495e+01   2.830324431962e+01 
12
 Atoms. MD step: 10000
1 -1.109128384747e+01   2.394559705277e+01  -4.246418853038e+01 
1  5.528802363574e+01   2.082042550604e+01  -3.614509465211e+01 
1 -1.032968803878e+01  -1.147299547435e+01   9.109848450520e+00 
1 -1.866269319060e+01  -1.655392675615e+01  -2.136839794929e+01 
1 -5.922190063886e+00   1.216837614660e+01   3.531603229221e+01 
1 -3.785497893156e+01  -1.275397933919e+01  -9.721283846537e+01 
1 -2.848589157003e+01  -4.196625189675e+01   6.197882727153e+01 
1 -2.934460417659e+01  -1.222883931676e+01  -3.688731477073e+00 
1  8.998978060210e+01   4.088454740006e-01  -9.540554903893e+00 
1 -5.825758787488e+01  -5.985076580619e+01  -3.814531006988e+01 
1 -5.268257698387e+01  -3.675038188169e+01  -2.526581205991e+01 
1  3.353555342926e+01   2.059709103264e+01  -1.823811443044e+01 
12
 Atoms. MD step: 11000
1  2.665104160789e+01  -1.302166462789e+01   2.156215220000e+01 
1  2.754233393891e+01   2.991638386457e+01   2.730402988572e+01 
1  3.927136639680e+01  -2.531666650633e+01   4.470468898705e+01 
1 -7.114187398495e+01   1.370837939770e+01  -5.737816089470e+01 
1  1.622336063290e+01   1.734354078765e+01  -2.559863907139e+01 
1 -3.154533540951e+01   6.656831298817e+01   1.052386543310e+01 
1 -3.786512547076e+01  -2.096526847399e+01   2.633577389097e+01 
1 -7.826514001798e+01  -2.489573305861e+00  -4.366939655763e+01 
1  2.458438012462e+01  -2.527103361940e+01   2.186702652244e+00 
1 -3.461478252716e+01   4.258072746849e+01   1.659401999071e+01 
1  1.792703346944e+01  -4.693644177108e+01   1.771335957857e+01 
1  2.409887445403e+01   3.036734686340e+00  -6.486442129670e+00 
12
 Atoms. MD step: 12000
1 -6.026851267110e+01  -3.908502371653e+01   4.760867062708e+01 
1  1.490585317581e+01   1.236248885839e+00   3.565080708517e+01 
1  3.287219144935e+01  -7.561893515328e+00   3.801426626550e+01 
1  5.134156800864e+01  -5.634120483210e+01  -4.652581511595e+01 
1  1.487737385519e+01   6.864904989084e+01  -6.323748560494e+00 
1  2.424827202239e+01   2.761169573887e+00  -3.080762059351e+01 
1 -1.879542052985e+01  -7.605210350032e+00  -3.470709181058e+00 
1  1.326091939360e+01  -3.250874811128e+01  -1.864348710343e+01 
1 -5.062083371835e+01   1.316877727831e+01   3.589807526215e+01 
1 -3.136641954091e+01   6.676683915735e+00   1.585510686531e+01 
1  2.333304191877e+01  -1.285011617345e+01  -6.445126821939e+00 
1  6.263422511909e+00  -5.516711370816e+01  -9.813187168403e+00 
12
 Atoms. MD step: 13000
1 -8.372526524977e+01  -7.119555159733e+01  -8.100874148888e+00 
1  4.803367165709e+01  -1.013099737362e+01  -1.630356197436e+01 
1 -7.233358043780e+00   1.614850588567e+01  -3.580412464105e+00 
1  9.236090732022e+00  -7.440675495142e+00  -4.919247756964e+01 
1  3.872452199566e+01   1.602923879209e+01  -4.513677690728e+00 
1 -1.416938418432e+01  -4.735784701280e+01   1.998255282381e+01 
1 -2.718169575206e+01  -2.075542364386e+01  -8.379256741992e+00 
1  3.890423713671e+01  -2.105672790872e+01   7.899927289475e+00 
1  1.558355099273e+01   2.569442920092e-01   1.174249893264e+01 
1 -2.023266919647e+01   2.567648757932e+01   2.242877097307e+01 
1 -1.458552191295e+01   4.655354461498e+01   1.612581403272e+01 
1 -3.573491642012e+01  -6.521875195705e+01   4.451653285521e+01 
12
 Atoms. MD step: 14000
1 -4.580173953198e+01   5.667164881459e+00  -2.458181444881e+01 
1  2.556083204062e+01  -3.242351711876e+01   1.002825200027e+01 
1 -5.452774801881e+00   8.206016454448e+01   5.098134980187e+01 
1  1.688172224630e+01   2.748111882939e+01   2.597767642313e+01 
1 -2.690970268743e+01  -3.860475728820e+01   1.023164680492e+02 
1 -1.813006454950e+01   3.305948429978e+01  -4.849712335534e+00 
1 -6.031733020340e+01   3.719581872213e+01   8.112423522026e+00 
1 -2.589060878526e+01  -4.397939298941e+01  -1.929723065903e+01 
1 -2.650680767499e+01  -2.865227098545e+01   1.925316852568e+01 
1 -3.101954043451e+01   2.263530654023e+01  -2.901258786672e+00 
1 -1.764295905871e+01  -2.445604619150e+01  -5.980418650300e+01 
1 -1.143903959693e+01  -4.631488178727e+01   3.842888052008e+01 
12
 Atoms. MD step: 15000
1  3.827721246933e+01  -4.845493324395e+01  -3.566962317204e+00 
1  4.660272143323e+01   1.216960870772e+01   8.887639774837e+01 
1  3.038144552626e+01  -1.605358562436e+01   5.620398346926e+01 
1  3.156222635093e+01   2.597341105652e+01  -3.476409481351e+01 
1 -1.547251292850e+01   1.853471262331e+01  -9.804795551856e-01 
1 -3.884556931868e+00  -7.138461809115e+00   5.871765672143e+00 
1 -1.086066089430e+01  -3.392653322160e+01   1.762076266257e+01 
1 -6.083475521172e+01   5.052495124683e+01  -5.692941724032e+01 
1  1.402549756274e+00   6.487515965341e+01  -5.531474449165e+01 
1 -3.135494488012e+01  -6.309015862817e+01   1.625268723915e+01 
1 -2.307584382739e+01  -8.141648068476e-01  -2.408045281989e+01 
1  2.166360405235e+00  -7.228815722191e+01  -4.673032423852e-01 
12
 Atoms. MD step: 16000
1 -6.089709122629e+01  -3.554713498263e+01  -1.236860116812e+01 
1 -5.232073797835e+00  -4.609757462302e+00   7.217934444246e+01 
1  5.947323688647e+01  -6.708430748656e+01   2.790028423029e+00 
1 -4.594165800507e+01  -9.462836085519e+00  -4.855462120155e+01 
1  2.385692368746e+01  -2.642846370732e+01   7.529763422194e+00 
1 -5.489906240184e+01   1.537060414249e+01  -1.268828843139e+01 
1 -5.615463974865e+01  -8.853039154987e+00  -1.186704305807e+01 
1 -4.961589453334e+00  -3.311604161162e+01   1.556833931868e+01 
1  1.403574896818e+01  -3.874072851012e+01  -2.330301769066e+01 
1  1.573004244601e+01   2.122875247047e+01   2.326690328070e+01 
1 -2.771118298560e+01   6.142651711185e+00  -2.224761486819e+01 
1  1.504308837167e+01  -1.221696239535e+01  -3.165146380693e+00 
12
 Atoms. MD step: 17000
1 -2.667103702647e+00   4.045725985075e+01  -6.185432357309e+01 
1  2.556245487507e+01  -2.810753740456e+01   4.740313112048e+00 
1  4.527428293940e+01  -4.226356187224e+00  -3.356494815069e+01 
1  6.048479991846e+01  -6.232454193397e+01   2.554952779946e+01 
1  5.711204675629e+01  -7.050414155676e+01   3.062748006160e+00 
1 -5.327998848008e+01   4.046057424297e+01  -8.698378984337e+00 
1 -9.852229004421e+01   4.049796567862e+01   5.783053911478e+01 
1 -1.750911853983e+01  -5.111618748860e+01   6.932226640607e+01 
1 -8.687248810286e+01  -5.146879377436e+01   2.597892797668e+01 
1 -5.067298982788e+01   2.661184823458e+01   2.916520062040e+00 
1  3.870403303232e+01   5.143276635810e+01   1.384199461078e+00 
1  9.664762271357e+01  -3.757351290425e+01  -1.471302050632e+01 
12
 Atoms. MD step: 18000
1 -2.795188744882e+01   5.090758072172e+00  -2.522281102774e+01 
1  3.923079555555e+01  -4.409726924541e+01   2.181418974881e+01 
1  4.358761117716e+01   1.274801356239e+01   3.581878981919e+01 
1  1.672967061713e+01  -1.173667947777e+01  -2.506007008834e+01 
1  2.368252280438e+01   1.484709944129e+01   2.836432812185e+01 
1 -4.103545373514e+01   2.438716193658e+01  -1.636505502762e+01 
1 -2.172554341297e+01   2.615248125115e+01   3.381489239764e+01 
1 -2.204934954045e+00  -6.440461780993e+00   5.699115669804e+01 
1  1.118604345479e+01  -7.452437612924e+00   4.035352955637e+01 
1 -3.932707671519e+01  -7.205414554606e+00   4.452689820065e+01 
1 -2.205911856871e+01  -5.867625246695e+01   7.135392901302e+00 
1 -2.913653661144e+01  -4.307775580959e+01   1.046276202734e+01 
12
 Atoms. MD step: 19000
1  5.904274201338e+01  -3.702882935113e+01   7.545628967092e+01 
1  4.345607860927e+01  -6.276555215892e+00  -1.187449352596e+02 
1  1.792696961358e+01  -5.522742317635e+01  -1.956439320856e+01 
1  3.214287300112e+01  -4.055142589373e+01  -3.401084113465e+00 
1  1.564836180989e+01   3.003792477201e+01  -6.420057773365e+01 
1 -1.358041158675e+01  -3.777059646072e+01  -2.062672440161e+01 
1  2.182296449741e+01  -6.675223867562e+01  -2.509913872587e+01 
1 -3.023098384190e+01  -1.303513642361e+01   9.940424561238e+00 
1  2.028881742413e+01   2.138877945396e+01  -7.798565430068e+01 
1  2.832867138526e+01  -1.029780856791e+01   9.236518794129e+00 
1 -5.023224970033e+01   8.611730079467e+00   1.426697773506e+01 
1  4.506354573627e+01   3.126455199933e+01  -1.996293627056e+01 
12
 Atoms. MD step: 20000
1 -1.109848538672e+01   6.387723434003e+01   5.064678309749e+01 
1 -1.801117426979e+01   1.539263276500e+01   3.579838109812e+00 
1 -1.571927075678e+01  -7.727879815141e+01   3.319851926480e+01 
1 -3.713874416667e+01  -1.847656035522e+01  -2.517501904909e+01 
1 -2.866178768366e+01  -7.258115566018e+00  -6.055649936774e+00 
1 -4.908043995580e+00  -1.554064237061e+01   9.588657062509e+00 
1 -2.057994323998e+01  -5.508290506889e+01  -5.856108092485e+00 
1  2.619792744094e+01  -5.390117330066e+01   2.827655279382e+01 
1 -3.376708817734e+01  -2.390815994796e+01   8.130642631637e+00 
1 -5.112616201911e+01   5.271354535958e+01   2.526535747441e+01 
1  1.770480679933e+01  -9.304700428416e+01  -1.372972965903e+01 
1 -2.696499954798e+01  -3.477936664514e+01   4.565608196668e+01 
12
 Atoms. MD step: 21000
1 -2.207458224853e+01  -3.903426813947e+01   4.579779736332e+01 
1 -1.967941531951e+01   1.706055302617e+01  -3.395178354539e+00 
1 -6.611399905936e+01  -5.583549412647e-01  -1.294424057177e+01 
1 -2.233353266118e+01   1.102350390602e+01   2.730187137888e+01 
1 -2.568943279547e+01  -3.907556452102e+01   1.582079380705e+01 
1  5.740129521665e+01  -5.794982485925e+01   2.566402188817e+00 
1  1.098607477899e+02   5.793969325744e+01  -2.937203285582e+01 
1  1.344622282797e+01  -5.043229889316e+01   5.808066455083e+01 
1 -1.569941972795e+01   2.229629742926e+01  -4.104498770246e+01 
1 -3.769026729532e+01  -1.056050755686e+01  -1.297913956270e+01 
1  1.156943216961e+01  -2.584845304300e+00  -4.411385382776e+00 
1 -2.034617703233e+01   9.080329588512e+00   4.104848207376e+01 
12
 Atoms. MD step: 22000
1 -4.560188834025e+01   1.984963273123e+01  -5.559617908171e+01 
1 -4.955711886882e+01   2.151796805891e+01   1.568977871116e+01 
1 -2.169519315992e+00  -6.759459661314e+01  -4.691907136189e+01 
1  6.938791472050e+00  -3.332779024855e+01   3.492710806874e+01 
1 -3.904102845472e+01   5.537423011749e+01  -2.324053211470e+01 
1 -6.631620353566e+00  -2.828717137959e+01   3.717991727257e+01 
1  7.336239935199e+01  -3.950238628199e+01  -3.575452403740e+01 
1 -2.073427545899e+01   8.353189158204e+01   6.195246853071e+01 
1 -3.976132067785e+01   2.772968596916e+01   1.820586675300e+01 
1 -1.450709553031e+01   4.888745130954e+01   3.393942592671e+01 
1  8.484357108065e+01   1.407872846713e+00   6.651642939671e+00 
1 -2.487129247914e+01   4.412471393014e+01  -2.239975291162e+01 
12
 Atoms. MD step: 23000
1  2.303391921334e+01   5.346717412728e+01  -1.194607899464e+00 
1 -2.288758567919e+01  -2.861479441391e+00   2.383289770305e+01 
1 -6.104314531272e+00   1.011182517604e+01   3.904680339125e+01 
1  3.078857621727e+01  -7.792713182415e+00  -2.209345067305e+01 
1 -4.022285500404e-01   1.905258827697e+01  -4.012174394253e+01 
1  3.268827744761e+00  -1.197264144999e+01   1.991568572246e+01 
1 -3.828556609596e+01  -8.268019613200e+00  -1.738239247246e+01 
1  3.002050399217e+01   3.854310568555e+01  -2.791850187527e+01 
1  3.753826810497e+01   4.423175819747e+01   2.410443429353e+01 
1  4.354543550902e+01   1.253923859187e+01   4.129339934242e+01 
1  5.379551712496e+01  -1.741952116446e+01  -3.245030732060e+00 
1 -1.307930939226e+01   3.087498733636e+01   3.197172116258e+00 
12
 Atoms. MD step: 24000
1  6.078411682780e+01   5.229035250109e+01  -7.817975205772e-01 
1 -1.606157176202e+01  -4.699287986193e+01   2.137303043329e+01 
1  2.809532189181e+00   3.572537294212e+01  -1.066711401795e+01 
1  1.986081233374e+01   2.215068566947e+01   1.723204878901e+01 
1 -3.646527597343e+01   6.944710362568e+01  -2.726270299887e+00 
1  3.022871351814e+01  -1.289416080561e+01   3.300951864719e+01 
1  4.924338505703e+01  -2.296735954861e-01  -5.831052208648e+01 
1 -6.311985561335e+01  -4.307255829025e+00   3.345342468575e+00 
1  1.760644551228e+01  -5.741279924520e+01   4.274273986290e+01 
1  3.930536039681e+01  -4.126504769778e+01   4.289701717617e+01 
1 -1.716623691314e+01  -1.715272593241e+01  -3.125264625635e+01 
1  3.821838770428e+00   1.551240190105e+00   2.515742640956e+00 
12
 Atoms. MD step: 25000
1  3.759051157221e+01  -4.584029312814e+01  -2.456406996974e+01 
1  2.722861787409e+01   1.476058496813e+01  -2.348231500143e+01 
1  3.889062243776e+01   4.264807566125e+01   5.081400336474e+01 
1  3.863017380845e+01   5.838163001550e+00  -2.800249198440e+01 
1 -1.117913149199e+01   3.830656868671e+00   8.816538617813e+00 
1 -1.911111599644e+01   5.046153382056e+01  -2.648419104466e+01 
1 -4.064509470538e+00   1.760401412100e+01   3.965366874799e+00 
1  6.259844230063e+01   3.107238095501e+01  -2.728773913197e+00 
1 -4.924803710312e+00  -4.934422934170e+01  -1.781106080221e+01 
1 -1.490490409931e+00   4.679209565819e+01  -1.820882248799e+01 
1  7.993845600530e+01  -7.157285033659e+01   2.302151989490e+00 
1 -5.618746930885e+00   2.926391452845e+00   1.351499852304e+01 
12
 Atoms. MD step: 26000
1  5.328372753983e+00  -3.570356371187e+01   4.162968868206e+01 
1 -6.229297537463e+01  -4.160563821616e+01   5.608066276182e+01 
1 -5.147703221585e+01   2.810062969793e+01   1.656381537435e+01 
1  4.010398507106e+01   7.592042588825e+01   4.083593496527e+00 
1 -2.657420870883e+00  -1.549062238199e+01  -3.299154699478e+00 
1  9.866304627681e+01  -2.032186810509e+01  -2.600693390579e+01 
1 -1.165891939386e+01   2.428066520433e+01   6.707690821182e+01 
1 -4.015295161018e-01  -1.407839143231e+01  -3.683825030668e+01 
1 -1.973522096434e+01   2.660550098932e+01   1.235783893941e+01 
1  2.888089406672e+01   2.864561387511e+01   8.175013867225e+01 
1  6.614596425497e+01   1.865467962270e+01  -4.413302695191e+01 
1  3.215435269775e+01   3.575776871263e+01  -4.621176251157e+01 
12
 Atoms. MD step: 27000
1  3.901565105935e+01   2.922446844008e+01  -4.621360986141e+01 
1  5.017956144404e+01   1.751224945458e+00  -1.493015993728e+01 
1  9.780698371082e+00   4.316977840531e+00   3.167830854083e+01 
1 -7.277005042942e+00  -2.899815585481e+01   9.587126139298e+00 
1  2.438602823022e+01   6.137434302115e+01   6.794674415381e+01 
1 -6.103817548565e+01   4.620644324947e+01   2.823080191283e+01 
1  4.842775955168e+01   1.963354725495e+01  -5.460953884701e+00 
1 -1.709471506950e+01   2.505324036139e+01   3.770009064081e+01 
1 -6.040756242845e+01  -3.827703605217e+01  -1.074603729035e+01 
1 -2.325102127123e+01   4.158910662630e-01  -2.246038652005e+00 
1  8.761636891188e+01   5.087783800998e+01  -1.532442194951e+01 
1  1.437762023908e+01  -6.183731462686e+01   2.993015861598e+01 
12
 Atoms. MD step: 28000
1 -3.085367543363e+01   2.628838080205e+00  -4.426802046546e+01 
1  1.473274459169e+01  -1.361164323321e+01  -5.873244106117e+01 
1  1.021164689089e+01  -4.085168019149e+01   2.334846198886e+01 
1 -2.672024803968e+01   7.143714601191e-01  -3.960959899755e+01 
1 -3.389521783858e+01   5.361589910797e+01  -8.495397634137e+01 
1  4.147269396437e+01   1.367821996731e+01   5.143728768944e+01 
1  2.837630642127e+01  -4.784914284593e+01  -3.017370682530e+01 
1  4.160031437890e+01   2.437368612038e+01   4.502490984709e+00 
1 -6.055425200871e+00   1.142678960530e+01   2.076597500482e+00 
1 -1.504590265453e+01  -2.472485060062e+01   1.288866321469e+01 
1 -2.415646777809e+01  -3.134799843993e+01  -2.842786850364e+01 
1 -1.221859464984e+01   1.389601396273e+01   6.342328279939e+01 
12
 Atoms. MD step: 29000
1  8.223009396061e+01  -2.135000952560e+01  -4.367657144723e+01 
1 -9.857521097960e+00   1.759068282044e+01   5.741872110465e-02 
1 -3.456546037701e+01   2.510914352576e+01  -1.936053998471e+01 
1 -2.199801416886e+01   5.869233786381e+01  -6.545213836343e+00 
1  1.135270534248e+01  -1.348608410041e+01   2.471790835985e+01 
1 -1.283203456949e+00   3.952405629387e+01   2.797139188040e+01 
1  5.105327964766e+01  -7.410221049354e+01  -1.027635194275e+02 
1  9.367036565584e-01   1.848066133978e+01   5.026260830279e+01 
1  3.416693460382e+01  -4.329949262342e+00   1.039537572196e+01 
1  2.585568467175e+01   7.075727759511e+00   7.941232884370e+00 
1 -2.509490602626e+01  -5.810595898556e+00   2.422845858061e+01 
1  1.034765407093e+01   7.266073398042e+00   5.777972757110e-01 
12
 Atoms. MD step: 30000
1  1.475028184190e+01   4.853149056791e+01   1.667313893265e+01 
1  8.763639108051e+00  -1.298167338781e+01  -3.588285006403e+00 
1 -7.269548520219e+00  -1.587973917948e+01   1.505232044492e+01 
1  5.826972906574e+01   1.573435815095e+01   1.619482188820e+01 
1 -2.121809868603e+01  -5.068067208490e+01   2.943006429293e+01 
1 -2.803181666586e+01   2.707081983009e+01   2.473130174886e+01 
1  9.309208494267e+00   7.242176017501e+00  -2.951850873258e+00 
1 -3.359261571406e+01  -3.715242649725e+00  -3.571792437457e+01 
1  5.092419841130e+01   2.618119434281e+01   5.233748906297e+01 
1 -2.840650428705e+01   1.249637173180e+01   1.957974568495e+01 
1 -5.482727385332e+01  -1.445696394708e+01   2.936139671849e+01 
1 -2.009940126974e+01  -6.341531376358e+00   6.634541040449e+01 
12
 Atoms. MD step: 31000
1 -3.072851481583e+01   3.285892329041e+01   2.602535716468e+01 
1 -1.491253114100e+01  -2.905065288152e+01  -2.404801291786e+01 
1 -7.976571347541e+00  -8.310992871703e+01   4.071438828241e-01 
1 -4.540580479485e-01   1.067447490110e+01  -3.357253792376e+01 
1 -1.348845248789e+01   3.601358486649e+01  -2.034060976155e+01 
1 -2.131861189244e+01  -5.754039431496e+01   8.548893658990e+00 
1 -3.501585034400e-01  -6.807972021180e+01   4.134714403800e+01 
1  2.673643584361e+01   1.704206350602e+01  -2.106343968663e+01 
1 -3.600306717911e+01   3.105398705403e+01   2.444525312563e+00 
1  3.026773420667e+01  -4.248907298584e+01   3.605543185432e+01 
1 -5.717779456662e+01  -7.177168307886e+00  -3.166282995094e+01 
1  3.349311282379e+01  -1.675946368811e+01  -5.957136551962e+01 
12
 Atoms. MD step: 32000
1 -9.006703987358e+01  -3.203874683499e+00   6.832727743755e+01 
1 -4.577738158896e+01   1.867892118216e+01   1.208845408975e+00 
1  2.165210742134e+01  -1.625030906740e+01   4.837093111683e+01 
1 -6.834223389683e+00   1.534524830586e+01  -1.375031329316e+01 
1 -2.407679791716e-02  -1.866221838144e+01   3.173585669508e+01 
1 -1.301323042660e+01   1.211007920983e+01  -2.502472396320e+01 
1 -2.141473848687e+01   1.915962028777e+01   7.747319051751e+01 
1  1.426948082100e+01   5.809027097336e+01  -1.935298110160e+01 
1 -4.661504741175e+01   3.527587278194e+00   5.668958385071e+00 
1 -5.111103021888e+01  -4.166847508063e+01  -1.334195135053e+01 
1 -8.387434857804e+01   5.068549029363e+01   2.070494952705e+01 
1 -2.872706023236e+01  -2.599245541442e+01   6.735841795266e+01 
12
 Atoms. MD step: 33000
1 -7.388739390714e+00  -2.370390570560e+01  -7.913900365497e+01 
1  2.165524331637e-01  -3.391144451106e+01   4.056628231121e+01 
1  2.783611218179e+01  -1.467278601261e+01   2.895075316981e+01 
1 -1.582772321119e+01   2.082114952189e+01  -3.957454388537e+01 
1  7.333109377508e+01   3.202775342929e+00   5.410569922420e+01 
1 -4.962172777741e+01   9.218617157010e+00   5.540655296555e+01 
1  6.972190972719e+01   2.122472674844e+01   1.297554040369e+01 
1  2.304161665338e+01  -5.219020392529e+00   3.162357301908e+01 
1  8.697234123803e+00   8.274736341116e+00  -5.812451078516e+00 
1 -1.884865171664e+01   2.583583574631e+01  -1.441495325502e+01 
1 -6.076343558472e+01   2.339657866615e-02   2.566791301875e+01 
1  2.804047482367e+01  -6.232410435057e+00  -2.851804464927e+01 
12
 Atoms. MD step: 34000
1  4.334188272121e-01  -2.699946324328e+01   1.104493493862e+01 
1  1.175162435610e+01  -1.861531424613e+01  -3.203206488155e+01 
1 -2.029788475365e+01   3.368765443172e+01  -1.782860087671e+01 
1  6.588045283866e+01   3.645142499725e+01  -5.796789673457e+01 
1 -3.651133742198e+01  -5.005610215224e+01   4.524323972865e+01 
1 -2.343857123700e+01   1.689440788244e+01   2.344746299670e+01 
1  6.053835832357e+00   2.920783999956e+01  -6.163590314951e+00 
1  1.904684646679e+01  -5.156452943999e+01  -3.260746381799e+01 
1  3.694430062594e+00   4.130918933266e+01  -1.918809503654e+01 
1  1.807465813495e+01   2.052333456553e+01  -2.569940273750e+01 
1  8.141271884606e-02   7.882253321458e+01  -3.848196706342e+00 
1  1.016593830239e+01  -2.356298181562e+01  -5.189887718387e+01 
12
 Atoms. MD step: 35000
1  2.678017404956e+01  -1.741459277025e+01   6.794433183787e+01 
1 -8.166027793154e+00   1.994332696968e+01   7.936223600628e+00 
1 -2.417335548683e+01  -2.660513662355e+01  -9.580003886478e+01 
1 -2.189852566137e+01  -5.936744210278e+01  -2.674314067367e+01 
1 -1.519774595772e+01  -1.379450980507e+01  -2.525946639913e+01 
1  2.903607806276e+01  -1.169736844178e+01   1.326212516755e+01 
1  4.498762772737e+01  -4.207657262423e+01   7.980511466592e+01 
1  4.725884638349e+01   1.170626417123e+01  -1.024814419076e+01 
1 -2.817860268812e+00  -1.726504083844e+01  -2.890602632637e+01 
1 -2.429252804822e+01   3.640241695086e+01  -2.924106137438e+01 
1 -4.378465940773e+01   3.315976604691e+01  -3.421709200501e+00 
1  2.876010467010e+01  -2.485066753400e+01  -1.293159025594e+01 
12
 Atoms. MD step: 36000
1 -8.950644251449e+01   5.660591484555e+00  -1.225491615628e+01 
1  3.611660277687e+01  -3.589769817396e+01  -4.514239491255e+01 
1 -1.535591677599e+01  -2.661994896726e+01   4.162208185076e+01 
1 -6.502530519923e+01   5.882504083260e+00  -6.245530705362e+00 
1  3.521146886517e+01   5.477324369290e+00  -3.650116302715e+01 
1 -5.016430415845e+01   4.095761638411e+01   4.754815288487e+01 
1  7.482362149304e+00  -3.563837080741e+01  -3.811977521468e+00 
1 -5.542288703444e+01   2.187072761794e+00  -2.854852873016e+01 
1 -2.775507187409e+01   4.497208540583e+01   4.783795803917e+01 
1 -2.190774169601e+01  -1.011752622849e+01   2.091305297523e+01 
1 -4.718432661914e+01  -5.398873167760e+01  -4.486693378933e+01 
1 -3.595033254587e+01   2.411130070989e+01   3.458259703120e+00 
12
 Atoms. MD step: 37000
1  6.459465512299e+01  -8.087808450851e+01  -1.518532382582e+00 
1 -6.120490780741e+00  -2.887241139107e+01  -9.166178170953e+01 