12
 Atoms. MD step: 0
1 -2.150753032680e+01  -2.565681149869e+01   6.279166954928e+00 
1 -3.824138616709e+01   5.839488223901e+01  -7.302569395059e+01 
1  2.541628832300e+01   3.465462290232e+01  -5.371473847674e+01 
1 -6.059389453689e+01  -5.454076795599e+01  -1.610260368652e+01 
1  6.240194764382e+01  -4.535836469502e+01   5.627916144285e+01 
1  3.983285965930e+01  -7.145832476338e+01   7.688149655831e+01 
1 -4.517605543194e-01  -6.011325319298e+01   4.156795330838e+01 
1 -5.585628667821e+01   4.825637031260e+01  -7.255081305254e+01 
1 -3.313748983393e+01  -1.156050187459e+01  -7.233888658324e+00 
1  5.040052549137e+01  -4.636765713716e+01  -9.351704164463e-01 
1  3.194016207070e+01   5.421681248596e+01   5.061340291552e+01 
1 -4.138366824333e+01  -5.378204015614e+01  -6.955601678347e+01 
12
 Atoms. MD step: 1000
1  6.101904347676e+01   1.019671645832e+01   9.781901209491e-01 
1 -1.240071207722e+00  -4.084445657499e+01   1.986176241163e+01 
1  4.251988881309e+01   2.354412164178e+01   3.451253140788e+01 
1  2.109843003610e+00   5.933502067921e+01   4.954129817558e+01 
1  7.805980121948e+01  -6.245958767485e+01   6.038362538069e+01 
1  1.613006052727e+01  -4.710837196363e+01   1.304531621275e+01 
1  1.196332555449e+01   1.135486075386e+01   2.445165282115e+01 
1  6.412474974460e+00   1.192041534856e+02   5.253260195007e+01 
1  2.516875632109e+01  -3.661627274520e-01   3.705579430114e+01 
1 -4.713379571957e+01  -2.727678824754e+01   2.959376246612e+01 
1  1.058198029275e+01  -1.818424898654e+01  -4.084693470032e+01 
1  4.571721510759e-01   7.042466436521e+01   5.789474767305e+01 
12
 Atoms. MD step: 2000
1  2.756776230183e+01  -9.969725332770e+00   2.865871288381e+01 
1 -7.942252669267e+01  -2.042086002076e+01  -2.690277250512e+01 
1  5.049486640965e+00   3.937675204099e+01   2.228080049536e-02 
1 -2.656577870547e+01  -5.702677137893e+01   2.610715324083e+01 
1  2.749610278940e+01  -2.497474833342e+01  -5.886226163926e+01 
1  4.682302795201e+00  -8.542045646628e+00  -2.021972704491e+01 
1  1.085138618068e+01   5.137226444381e+01  -5.405815514449e+01 
1  9.866661774730e+00  -4.096738756468e+01  -7.088464969798e+00 
1 -1.496291183796e+01  -3.104163061777e+01  -1.997878076476e-01 
1  2.943181178818e+01  -1.425498017170e+01  -2.274697760620e+00 
1 -6.167444634793e+00  -2.744453901781e+01  -5.732788852692e+01 
1 -1.347132052534e+01   1.928259094004e+01   2.229669815109e+01 
12
 Atoms. MD step: 3000
1 -3.829888597884e+01   1.913058173699e+01  -3.140218409664e+01 
1  5.560785830070e+01  -2.548768060795e+01   5.898247082008e+01 
1  6.576593550202e+01  -1.807244235805e+01  -3.561952972336e+01 
1 -4.087429208112e+01   1.976073244251e+01   7.548382911209e+01 
1  7.229050458302e+01   3.070240923454e+01   3.210549986740e+01 
1  1.697858636847e+00  -4.211167425933e+01   2.197840028559e+01 
1 -3.508182821447e+01   4.741221012182e+01  -3.107825235865e+01 
1  1.353504878971e+01  -1.108721325423e+01   1.960916556739e+01 
1 -1.081094292236e+01  -5.602029786739e+01   2.913684408002e+01 
1 -5.242700443346e+01  -2.464138432662e+01   1.921133876858e+01 
1 -5.996406401054e+01   2.863417733203e+01   4.113251526055e+01 
1 -3.230444142334e+01  -1.938344753714e+01   1.266143481231e+01 
12
 Atoms. MD step: 4000
1 -3.690497253324e+01   1.017730984794e+01  -2.408370944325e+01 
1 -5.962333755721e+00  -2.577539960188e+01   1.397400340473e+01 
1 -1.901245078904e+01   3.964424951091e+01   2.253568324084e+01 
1  4.979904061250e+01   4.738315506200e+01  -2.889620867984e+01 
1  3.413118826702e+01   3.542070202169e+01  -8.398256201989e+00 
1 -2.658741128214e+01  -1.660354181156e+01  -1.072779668541e+01 
1  3.829712877007e+00   5.004643880651e+01   2.124428842947e+01 
1 -1.887137316169e+01   2.386776498220e+00  -2.238563116259e+00 
1  1.093407534119e+02   1.710475638649e+01   2.529356356343e+01 
1  4.453573752538e+01  -2.632774371853e+01   1.779378600871e+01 
1  3.140314497487e+01  -2.835351915114e+01  -1.495082298774e+01 
1  9.488120627310e+00  -1.910162142478e+00   3.617574089568e+01 
12
 Atoms. MD step: 5000
1 -7.702081136283e+01   6.323100728259e+01   2.418884184606e+01 
1 -3.356455845969e+01  -5.884981518048e+01  -8.586988189108e+00 
1 -3.619317989795e+01   3.879673786424e+01  -3.237607805164e+01 
1  1.977213759664e+01  -1.000915336559e+01  -2.635698339188e+01 
1 -1.365263637350e+01   3.279639427017e+01  -3.913809293730e+01 
1  4.333926718984e+01   1.369093855782e+01  -1.409078369629e+01 
1 -2.976209099582e+00   5.004769145912e+01  -1.244325541859e+01 
1 -2.538501645990e+01  -6.073772048039e+01  -2.936416553517e+00 
1  4.271252521670e+01  -9.157041562205e+00  -1.695489088614e+01 
1  4.429965086951e+01  -1.855846489153e+01   1.343986311680e+01 
1 -4.556331575856e+01   4.147623552478e+00  -3.059577103953e+01 
1  1.156218672658e+01  -1.952077852044e+01   4.830908793613e+01 
12
 Atoms. MD step: 6000
1 -2.754833815950e+01   1.174346371397e+00  -1.697899342343e+01 
1 -5.931866895924e+01   2.745297556689e+01   5.217578192776e+01 
1  4.021023939139e+01  -1.787461893797e+01   4.951410113218e+01 
1  4.314640505593e+01  -2.768050333684e+01  -2.489282452893e+01 
1  4.826407358410e+01  -1.805157289346e+01   3.272186223269e+01 
1  7.921982230616e+01   1.796842448976e+00  -2.458029962805e+01 
1  2.525835426177e+01   2.988615303949e+01   1.079413450995e+01 
1 -3.818077523942e+01   3.672089117223e+01   2.903028457161e+00 
1 -3.541388900030e+01  -1.959270768692e+01  -6.795135893121e+01 
1  3.556556498036e+01   2.655658775054e+01   1.235466695141e+01 
1 -4.411640733300e+01   1.051198729889e+01   3.724475574988e+01 
1 -6.732128467846e+00  -1.335497848965e+01   2.801858508923e+01 
12
 Atoms. MD step: 7000
1  6.392571873142e-01  -7.642879139440e+00  -4.565471725799e+01 
1 -1.071240046144e+01   9.551820595339e+00   8.760858380847e+00 
1  3.726838839068e+00   2.857476876305e+01  -3.568090691258e+01 
1  5.631477017176e+00   4.398392987660e+01  -4.341378395374e+01 
1 -3.456917319150e-01   1.714595180423e+01   5.110835168637e+01 
1 -3.020358746173e+01  -2.592173194845e+01   1.936306577129e+01 
1  1.912127121574e+00  -2.661593856940e+01  -3.778019420702e+01 
1  5.568364289953e+00  -4.435135729064e+00  -4.833247784804e+01 
1  2.460372100137e+01   2.498902490285e+00  -9.195507826180e+00 
1  4.899622528348e+01   2.912042100008e+00   3.708608739910e+01 
1  5.084015021417e+01   1.578699966309e+01   3.055641534364e+01 
1 -5.173037378210e+01   1.581622506340e+01  -4.286369512068e+00 
12
 Atoms. MD step: 8000
1  4.231430091605e+01  -2.832707825453e+01   3.514651042690e-02 
1  3.956569710837e+01   2.175419798469e+01   7.167856025433e+00 
1  4.106404745841e+01   3.258743071730e+01   3.613942426904e+01 
1 -1.886704309337e+01  -2.622608297077e+01   4.774867680969e+01 
1 -2.967262087204e+01   1.695551522922e+01  -1.185962628572e+02 
1 -2.305483715380e+01  -2.506427731535e+01   3.254923552651e+01 
1 -1.067498197814e+01  -5.336518846758e+01   2.747262875759e+00 
1  2.725844644956e+01   2.761196362804e+01  -5.199150801231e+01 
1 -4.611816443906e+00   2.980647384670e+01   7.624145287029e+01 
1 -2.964317167123e+01   1.574890151426e+01  -1.152689887246e+01 
1 -3.162145850294e+01  -1.255656371011e+01  -1.997888419216e+01 
1  1.183138033324e+01   4.469158115226e+01  -2.945210622880e+01 
12
 Atoms. MD step: 9000
1  1.307188255615e+01  -2.036404660586e+01  -7.800563222615e+00 
1 -6.870357301986e+00  -4.314990065782e+01  -1.062544325638e+00 
1  3.978137018303e+01   1.247771499901e+01   1.521669768435e+01 
1 -3.159529403711e+01  -8.461804195422e+00   2.288253177215e+01 
1 -5.984361110669e+00   3.501701578823e+00  -3.544552654202e+01 
1  4.230219770928e+00  -2.647714847432e+01  -9.828385590938e+00 
1 -8.170047348751e+01  -1.951682805474e+01   8.359231039787e+00 
1 -2.196448849012e+01   1.302615022276e+01  -1.101217664508e+00 
1 -1.412771505049e+01  -2.257974136907e+01  -2.547513432138e+00 
1  2.775458141084e+01  -5.302171070692e+01  -1.931522879424e+01 
1 -4.405178085855e+01  -2.244852058430e+01  -3.222214635756e+00 
1  1.715304946554e+01  -3.788358068136e+01   1.228921491877e+01 
12
 Atoms. MD step: 10000
1 -4.822707993732e+01   5.379550776267e+01  -4.427067343550e+01 
1  1.569921755930e+01   2.051618982536e+00  -5.469728988187e+01 
1  6.847339974149e-01  -1.692921165696e+01  -5.492967909093e+00 
1 -1.593688413812e+00  -1.655030587715e+01  -2.487601685604e+01 
1 -2.505261134103e+01   2.549008152431e+01  -1.849457117755e+01 
1 -6.990193537684e+01   3.504023692495e+00  -4.117116288573e+01 
1 -4.798707048950e+01  -5.582831430174e+01   3.020854716664e+01 
1 -3.185081612499e+00   1.981063371744e+01  -8.802202534589e+00 
1  9.280999751773e+01   3.694485579414e+01  -3.295331988966e+01 
1 -4.492810705672e+01   7.173841849547e+00  -7.664442303832e+01 
1 -2.452921804816e+01  -1.565045639479e+01  -3.078487067532e+01 
1 -2.234251526181e+01   2.446113970748e+01  -5.434171390791e+01 
12
 Atoms. MD step: 11000
1  4.708922906876e+01  -3.126829693117e+01   1.057673687384e+01 
1  1.754629599569e+01  -1.660871125306e+01   9.173951918488e+01 
1  1.059400710709e+02  -4.027072651394e+01   2.846882253343e+01 
1 -3.780868756443e+00  -2.794593395016e+01  -4.769304502563e+01 
1  1.507469745208e+00   1.854128059393e+01  -2.723042176733e+01 
1  1.501990373578e+01   4.727944137275e+01  -2.639763931918e+01 
1 -8.830621448847e+01  -1.862667765968e+01  -1.122469702884e+00 
1 -2.055820148602e+01   1.009787113943e+01   4.102135801697e+01 
1  2.852681415811e+01   2.735016017264e+01   5.552336619970e+01 
1 -6.115452196000e+01   5.368513667458e+01   6.943716245292e-01 
1  4.365231225506e+01  -1.913850348673e+01  -1.522870056105e+01 
1  2.751378006763e+01  -5.106215490933e+01   1.029942314071e+01 
12
 Atoms. MD step: 12000
1 -4.154909259081e+01  -5.973872568521e+01   1.977741420789e+01 
1  5.487474128634e+01   1.761056129009e+01  -3.418945267639e+00 
1  3.279089238914e+01  -5.255123444356e+01   3.396180401117e+01 
1  3.874953145245e+01  -5.002829276057e+01  -1.274557954659e+01 
1  3.802193534134e+01   5.947212845553e+01  -4.806310697095e+00 
1 -1.527827892291e+01   2.011335183688e+01  -3.056641139290e+01 
1 -1.853943513004e+01  -1.678099825515e+01  -2.013467756194e+01 
1 -2.280914160239e+01  -6.816255757427e+00   2.522047343143e+01 
1 -4.433050828433e+00   4.401428532976e+01   6.362750573531e+00 
1 -9.983153448134e+00   3.414998192411e+00   3.815964111835e+01 
1  2.149543771876e+01   1.536246854179e+01  -3.463971936438e+01 
1 -2.394873793725e+01  -5.005949643067e+01  -3.285632005270e+01 
12
 Atoms. MD step: 13000
1 -4.887398271685e+01  -3.140736219177e+01   1.934064819961e+01 
1  9.179464404057e+01  -4.051106448275e+01  -8.529161824520e+00 
1  3.890101772389e+01   3.813363318742e+01   1.953360952969e+01 
1 -1.561060600673e+01   1.739994509817e+01  -7.168271849404e+01 
1  1.355554961710e+01   2.012348948014e+01  -9.609320840047e+00 
1  3.010423594253e+01  -4.295592500565e+01   2.311577751437e+01 
1 -4.456115053173e+01   1.772160682104e+01  -2.606713256740e+01 
1  3.165916892654e+00  -5.360045677096e+01   1.751808044186e+01 
1  9.569078577401e+00   3.572609424798e+01   2.416418062136e+01 
1 -2.123804053406e+01   3.608613320881e+01   2.512690412522e+01 
1 -4.327293175132e+01   3.457516816598e+01   1.833572770842e+01 
1 -3.443191928777e+01  -5.167011594432e+01   3.319606874115e+01 
12
 Atoms. MD step: 14000
1  5.980633695745e-02  -1.661488882324e+01  -3.630283976614e+01 
1  2.409196239489e+01  -6.468945944022e+01   4.435873138009e+01 
1  1.016804562039e+01   6.199363417598e+01   6.576797480236e+00 
1  1.070841147984e+01   1.521798848601e+01   1.666410995284e+01 
1 -3.343489073810e+01  -5.466324923449e+01   3.287110282721e+01 
1 -2.339507182176e+00  -2.280642179742e+01  -6.513637690885e+00 
1 -2.797418625705e+01   3.359651872756e+01   3.475286966461e-01 
1 -3.192920300439e+01   1.777532006121e+01   1.892788621069e+01 
1 -6.402429098276e-01  -2.123206248369e+01  -4.044975833705e+01 
1 -5.312444646225e+00   2.295412718761e+00  -1.316190196126e+01 
1  6.602665677031e-01  -5.255951176699e+00  -3.706567061849e+01 
1 -1.116989671395e+01   9.684887166119e+00   6.802900815212e+01 
12
 Atoms. MD step: 15000
1  1.036889890976e+01   1.776720211395e+01   3.210903375593e+01 
1 -1.779521007824e+00  -4.678611143208e+01   3.815081553472e+01 
1  1.397513944833e+01   3.572965422728e+01   5.291525139642e+01 
1  3.885000888303e+01  -1.968975372957e+01   5.586607902803e+00 
1 -1.532643822425e+01  -2.679165336893e+01   5.785311398190e+00 
1 -3.042907709252e+01   1.110380318881e+01   1.396079139802e+00 
1  1.043994883807e+00  -3.741066738875e+01   1.438430697425e+01 
1 -4.535083972013e+01   7.556594938430e+01  -2.291971192271e+01 
1 -2.210609694897e+01   8.458205442783e+01  -7.974721122448e+00 
1 -3.272118612101e+00  -2.109272173535e+01  -7.136989337313e+00 
1 -2.588747563508e+01  -9.605666217359e+00   2.933544924316e+00 
1 -1.145013836940e+01  -8.914404869538e+00   3.622440220962e+01 
12
 Atoms. MD step: 16000
1 -5.460250735339e+01  -2.965898221902e+01   2.431797033764e+01 
1  4.290780736885e+01  -5.080420353892e+00   4.538869126190e+01 
1  9.106955541794e+00  -4.250454714340e+01  -3.993884673576e+01 
1 -8.564687574038e+01  -1.046133194256e+01   2.559657112622e+01 
1  6.679284000242e+01  -9.654217639326e+00   2.200352219467e+01 
1  8.980939232682e+00  -1.388070832903e+01  -1.966646436244e+01 
1 -5.072066989000e+01  -4.210937128750e+01   3.370425971641e+01 
1  1.459041283107e+01  -1.069563075179e+01  -6.155633047534e+01 
1 -3.717732995023e+01  -5.651148517225e+00  -3.033976730954e+00 
1  2.618691323454e+01   1.962038453379e+01   6.669829101538e+01 
1 -1.215091137434e+01  -2.596782164095e+01  -6.858683853341e+01 
1 -1.262175857293e+01  -4.443544812001e+01   5.176821984539e+00 
12
 Atoms. MD step: 17000
1 -1.456094726188e+01   5.446886781699e+01  -8.980621067771e+01 
1  2.124170710066e+01   2.258857057202e+00   2.701921632905e+01 
1  3.001402280954e+01   4.250642601910e+01  -6.499203708444e-01 
1  4.764037407699e+01  -4.665737748463e+01   3.412074338442e+01 
1  3.644946765381e+01  -2.691503803558e+01   1.929581418843e+01 
1 -2.001369211103e+01  -3.952148368772e+00  -1.766094471725e+01 
1 -7.441808571791e+01  -2.264596817487e+01   4.219919103003e+01 
1 -1.669280910135e+01  -8.464359482284e+00   8.601464862935e+01 
1 -6.271190219074e+01  -6.312700996550e+01   2.291691282420e+01 
1 -5.653760018632e+01   5.172143307384e+01   9.927464168470e+00 
1  5.033691520931e+01   5.215903044664e+01  -1.857610939753e+00 
1  2.837979916707e+01  -5.443762895367e+01  -3.228105538048e+01 
12
 Atoms. MD step: 18000
1 -5.478916702721e+01  -1.627633579021e+01  -1.699194292330e+01 
1  5.959372480822e+01   2.450905306424e+01   4.647094202063e+01 
1  1.724113655640e+01  -4.815490912306e+01   5.902757770493e+00 
1 -5.861370426293e+00   8.901501616632e+00   3.394622081314e+01 
1 -3.117906043977e+01   2.329759892333e+01   3.829032706059e+01 
1 -3.194960841256e+01   3.842628246581e+01   7.904316359821e+00 
1  1.550799258697e+01   2.430835803025e+01   5.487882663314e+01 
1  2.607569694742e+01  -1.134196193956e+01   1.930532187926e+01 
1 -2.813801565019e+01   1.009990049210e+01   6.084959584713e+01 
1  7.367956451426e+00  -4.552490412083e+01   5.663859395044e+01 
1 -3.675963726766e+00   4.541463849745e-02   1.438249863722e+01 
1  5.457453211355e+00   5.156311664032e+01  -3.163305810027e+00 
12
 Atoms. MD step: 19000
1  5.549502191870e+01   1.203114391562e+01   8.945062141255e+01 
1  2.146872828411e-01  -1.537585752797e+00  -6.072891265126e+01 
1  3.358593396894e+01  -3.635633935455e+01   3.741637741789e+01 
1  6.553325400791e+01  -3.835683476249e+01   2.347940325738e+01 
1  2.952981434576e+01   3.441192025823e+01  -2.410719760390e+01 
1  2.715693927977e+00  -4.515625298958e+01  -3.607019194122e+01 
1 -5.344189870276e+01  -7.227929650305e+01   6.074335233949e+01 
1 -7.974355681953e+01   2.160769810050e+01   3.616070765332e+00 
1  5.020612609290e+01   2.920827938370e+01  -2.221206967755e+01 
1  3.883299835481e+00  -3.457481872706e+01   4.430284154092e+01 
1  7.019202587140e+00   1.197617466617e+01  -8.328548726077e+01 
1  1.476433210505e+01   5.834299729810e+01  -3.490161349266e+01 
12
 Atoms. MD step: 20000
1 -3.390580056846e+01   4.649095604226e+01   5.541355781382e+01 
1 -4.603323889847e+01   4.617794195536e+00  -2.388158757329e+01 
1 -3.683460577674e+01  -6.406898530673e+01   2.335871620796e+01 
1 -3.152766755543e+01   3.508504725710e+01  -4.318818927758e+01 
1 -2.700645155290e+01  -4.862241276662e+01   2.908006050430e+01 
1  9.012557496783e+00   3.569424124881e+01  -8.239471575631e+00 
1 -2.589126211111e+01  -3.838808938739e+01  -1.862637234744e+01 
1 -1.466762100909e+01  -2.272483211333e+01   2.357059810606e+01 
1 -2.515957454919e+01  -3.042686437385e+00   6.038308327453e-01 
1 -4.414820297318e+01  -1.949413268698e+00   4.697907786268e+01 
1  4.234722283745e+01  -1.609896478033e+01   2.101812201437e+01 
1 -4.564832045344e+01   4.729223365563e+01  -1.183456417370e+01 
12
 Atoms. MD step: 21000
1 -8.211150872433e+01   9.486845972678e+00   3.661847329243e+01 
1 -7.136868406327e+01   7.914388832009e+01  -4.105463438045e+00 
1 -4.315996349638e+01  -1.633370251533e+00   1.837142865779e+01 
1 -4.175945753672e+01  -2.837155904027e+01   1.933669362582e+01 
1 -5.024955083238e+01  -5.133850196014e+01  -1.821457319857e+01 
1  3.387405008535e+01  -4.119387352629e+00   1.246726708292e+01 
1  2.607015867209e+01  -2.490042038778e+00  -6.931991011165e+01 
1 -1.606345337974e+01  -2.509024620760e+01   2.120828542872e+01 
1 -1.102975197132e+01  -1.482393871328e+01  -2.650533535211e+01 
1 -1.091116531004e+01  -3.303890136821e+01  -6.371486733156e+00 
1  7.820153625849e+00  -4.266332047729e+00   1.613100163749e+01 
1  3.658509582090e+01  -1.748460283716e+01   2.865657243973e+01 
12
 Atoms. MD step: 22000
1 -3.940689582575e+01   6.491494353801e+01  -5.367847277037e+01 
1 -1.276470996162e+01   1.228783062128e+01   2.268061168046e+01 
1  3.736314067101e+01   8.016173412952e+00  -5.919767896288e+01 
1  1.308221960262e+01  -5.404217661084e+01  -4.561530160695e+00 
1 -2.440709785136e+01   3.825388043929e+01  -3.750153479083e+01 
1 -1.249161132323e+01  -2.154812027494e+01   2.387398055165e+01 
1  2.097702421007e+00   2.925465185193e+01  -2.952062821764e+01 
1 -2.405564685673e+01   1.097397682323e+02   1.823822858914e+00 
1  2.401895650843e+01  -5.674711563236e-01   2.712778817318e+01 
1  3.240904789338e+01   1.059773646118e+01   3.496235709638e+01 
1  4.292186247651e+01   6.915629476026e+00  -1.073968405674e+00 
1  8.635777470325e+00  -6.031430341283e+00  -3.490936521770e+01 
12
 Atoms. MD step: 23000
1  5.053091573360e+01  -1.596414806427e+01   6.035180714965e+01 
1 -2.850018873498e+01  -1.906685968098e+00   2.337078977005e+01 
1 -6.749628867257e+00  -4.068214082893e+01   3.872027090388e+01 
1  6.362931625008e+01  -3.721729475421e+01  -2.216231121709e+01 
1 -1.214294697913e+01   1.774954504898e+01  -9.313205734856e+01 
1 -8.969100645419e+00  -2.240747486538e+01   1.257139433148e+01 
1 -1.951715254054e+01   9.850412233051e+00  -3.018895104248e+01 
1 -1.512124203924e+01   6.206218333947e+01   2.438611442518e+01 
1 -6.836743418823e+00   8.830884503681e+00  -1.639583031756e+01 
1 -5.553235723277e+00  -2.287474575525e+00   6.154040026538e+01 
1  8.293059808035e+01  -2.946893107268e+01  -9.817966984849e+00 
1  2.245685746261e+01   1.527402319500e+01   4.894158425065e+01 
12
 Atoms. MD step: 24000
1  3.429619333939e+01   6.726542375022e+01   4.562590076802e+00 
1 -7.064910853380e+00  -3.965305651314e+01   2.184717559589e+01 
1  4.338503579807e+01   1.280484151936e+01   1.351709533341e+01 
1  3.470173069521e+01   7.833049613234e+01   9.261865751184e+00 
1 -7.081539101515e+01   4.155420392329e+01  -3.400328283756e+01 
1  5.027823189959e+01   1.682197944031e+01   3.029432987588e+01 
1  2.183328740089e+01   2.903550064182e+00  -2.579192462184e+01 
1 -7.387033266450e+01   1.043878315572e+01  -1.942017736012e+01 
1 -1.509381708819e+01  -1.584988731131e+00   3.202853881052e+01 
1  7.066255182296e+01  -4.298004182155e+01   3.495667425121e+01 
1 -2.114655818414e+01  -1.601040009533e+01   6.963711948847e+00 
1  2.934414874078e+01  -4.004576507085e+01  -1.606744141785e+01 
12
 Atoms. MD step: 25000
1  5.800632924942e+01   9.799360577424e+00  -2.843541942507e+01 
1  3.540347574247e+01  -1.259770365602e+01  -1.742759582257e+01 
1  4.336260352224e+01   5.131320446680e+01   1.864676399616e+01 
1  2.586938301419e+01  -2.184953254543e+01  -3.637024150624e+01 
1 -6.062119830066e+01   7.666106563331e-01   1.208595213932e+01 
1 -2.650816991692e+01   7.136223550345e+01   2.316941345494e+01 
1 -4.449342220459e+01   2.368077594471e+01   5.201192951770e-01 
1  6.757212958765e+01   1.176404489353e+01   5.406813775866e+01 
1  6.589066015755e+00  -1.525502362210e+01  -5.088663751844e+01 
1 -8.485093119287e+00   7.788038019487e+01  -2.798809378588e+01 
1  2.819213849283e+01  -3.963611721186e+01  -2.184444619354e+01 
1  2.151207406768e+00  -1.658873206403e+01   4.380635065927e+01 
12
 Atoms. MD step: 26000
1  6.206395362978e-01  -4.345038164103e+01   3.101414873137e+01 
1 -5.799173874230e+01  -5.519579209741e+01  -4.046586502099e+01 
1 -2.438239221738e+01   1.598104216933e+01   2.563033098423e+01 
1 -1.390463572591e+01   4.229851601736e+01   2.837236122396e+01 
1 -7.322438254778e+00   1.895611585947e+01  -5.971048051204e+00 
1  3.901761969997e+01  -3.245417668190e+01  -8.955636349826e+01 
1 -3.849966992028e+01   1.599380081892e+01   6.489388348553e+01 
1 -3.477543362031e+01   2.095378103263e+00  -2.626496710583e+01 
1  1.239211538418e+01  -7.729702965361e+00  -2.674478886391e+01 
1 -1.179456851621e+00   1.306916473965e+00   5.141080033771e+01 
1  1.224709482170e+02   4.279039638960e+01   5.793600279068e+00 
1 -2.541380820492e+01   2.669624500271e+01  -1.943604477637e+01 
12
 Atoms. MD step: 27000
1 -1.547750864047e+01   1.061998313462e+01  -4.680168291240e+01 
1  1.732101351639e+01   5.770220098912e+01  -1.435026773235e+01 
1 -1.651594103079e+00   4.743435314689e+01   2.569348986126e+01 
1  1.841987580800e+00   4.330722014806e+00   2.208081056058e+01 
1 -5.586955532484e+00   3.503358983305e+00   3.187799173215e+01 
1 -5.262509992001e+01   2.471065677517e+00  -5.029935613243e+00 
1  3.203445282447e+01   4.055148012132e+00   1.401523329849e+01 
1 -1.914341903907e+01  -1.988324865350e+01   2.106310094426e+01 
1 -5.092537172601e+01  -3.145040261083e+01  -1.500661308012e+01 
1 -8.159898280880e+00   1.432431398636e+01   3.163633177748e+01 
1  8.275562309043e+01   2.203043458361e+01   2.315220596949e+00 
1  9.603439706002e+00  -6.062852633387e+01  -1.727827218180e+01 
12
 Atoms. MD step: 28000
1 -3.472222862871e+00   5.021478534919e+01   4.920639769545e+01 
1  4.772042472276e+01  -1.550779457183e+01  -2.924197670308e+01 
1 -4.103560018201e+01  -4.127540039367e+01  -1.872627809738e+01 
1 -2.062455289130e+01   8.726995459560e+00  -3.104853568208e+01 
1 -5.759095860049e+01  -3.013837852790e+00  -5.347034290847e+01 
1  4.001526183997e+01   1.170436573191e+01   5.194542400915e+01 
1  4.374988095467e+01  -2.254895243526e+01   4.737082340977e+01 
1 -2.377772912426e+01   2.528118659626e+01   1.525586120625e+01 
1  1.159048545261e+01  -8.138555703859e-01   9.902659501344e+00 
1  1.534499279960e+01  -3.822671244719e+01   5.722636330609e-01 
1 -2.243718077982e+01   2.519273004196e+01  -3.463230464175e+01 
1 -6.209106717911e+00  -1.363101632389e+01   2.431034302367e+01 
12
 Atoms. MD step: 29000
1  4.789454219926e+01   1.447345347751e+01  -4.394785875853e+01 
1 -1.436387460295e+01   1.514839633653e+01  -3.166978931385e+01 
1 -1.300074046930e+01   3.094548789326e+01  -2.483578262559e+01 
1 -7.262830321457e+01   2.881318708790e+01   6.875395972488e+01 
1  6.186475640858e+01   4.425875019132e+00   3.954876615775e+01 
1 -2.805087623011e+01   2.586855316274e+01   5.505463775869e+00 
1  6.752724780848e+01  -7.620791494937e+01  -4.939220843419e+01 
1  1.999165286520e+01   3.232217112527e+00   1.461170494530e+01 
1  5.275286404880e+01   8.662211433129e-01  -1.222696129723e+01 
1 -6.600032643585e+00  -1.430206508617e+00   1.998912882957e+01 
1 -4.244132299919e+01  -1.678650714724e+00   2.988867047284e+01 
1 -4.679677121635e+01   1.663364843413e-01   6.449050833008e+00 
12
 Atoms. MD step: 30000
1  1.343907853936e+01   3.585691766325e+01   2.201238371307e+01 
1 -7.226143886092e+01  -4.442769802108e+01   1.203349377319e+01 
1 -9.706054792520e+00   7.956904571789e+00  -1.643297409118e+00 
1  4.926938588383e+01   2.812976366042e+01   4.041763344183e+01 
1 -4.368138043563e+00  -2.592417503122e+01   1.862328798662e+01 
1 -1.225574015563e+01  -2.734017310039e+01   4.849798738604e+01 
1  5.267655784944e+01   1.278441816349e+01  -2.687319753054e+01 
1  1.184845197587e+01  -5.941596512107e+01  -3.334744658495e+01 
1  5.527501759567e+01   2.998798688387e+01   1.841871091355e+01 
1 -2.760039454463e+01   3.172728831124e+01   9.904000804848e+00 
1 -6.889107303991e+00  -1.206133636544e+01   6.421367516836e+01 
1 -4.808884097095e+01  -1.886112691912e+01   3.147423910811e+01 
12
 Atoms. MD step: 31000
1  6.379130660495e+01   5.713395853723e+01  -1.139730124073e+01 
1  3.982420182743e+01  -4.051553243579e+01  -2.610930425577e+01 
1 -1.345849832973e+00  -8.271830666026e+01  -2.361960289442e+01 
1 -1.143014583417e+01  -3.230974070601e+01   3.684282236512e+00 
1 -2.252213622643e+00  -4.219024760774e+01  -2.166394470460e+01 
1  6.722662437634e+00  -2.947677808703e+01   4.029330770326e+01 
1 -1.414160889224e+00  -6.084913354929e+01   2.979543960776e+01 
1  7.707442520522e+00   3.516621729694e+01  -4.136661935458e+01 
1 -7.742510506292e+01   4.340133445227e+01  -1.510789544022e+01 
1  1.976662376818e+01  -4.093806849513e+01   5.177076329236e+01 
1 -2.567879488915e+01  -2.848216346617e+01  -4.600234240313e+01 
1 -3.028798647753e+01   5.082129596168e+00  -4.275363735197e+01 
12
 Atoms. MD step: 32000
1 -7.827493029661e+01   1.795694945890e+01   1.178884817612e+01 
1  3.000924325590e+00   1.729747566317e+01   5.550659039872e+00 
1  4.109247225771e+01   5.673079033299e+01   2.873349544745e+01 
1 -9.438059876871e+00  -1.736420232931e+01   3.096238702218e+01 
1  1.252669764596e+01  -5.711228804795e+01   6.683699374183e+01 
1 -5.006050310465e+01   5.268667246354e+00  -5.546186093453e+01 
1 -6.858093128012e+00   1.949865427073e+00   2.957605463168e+01 
1 -3.398241381735e+01   2.504056267094e+01  -5.588963081421e+01 
1 -1.666229495947e+01  -6.862053852467e+00  -4.156229691807e+01 
1  1.237596946964e+01  -3.163065865677e+01   7.902413707124e+00 
1 -6.115206561891e+01   4.792581514825e+01  -5.000928232157e+01 
1 -5.618015213704e+01  -4.916772347171e-01   2.908957761374e+01 
12
 Atoms. MD step: 33000
1 -2.124835942482e+00  -4.907441518130e+01  -9.207894090768e+01 
1 -3.919344978987e+01  -2.982724887852e+01   5.294990483081e+01 
1  4.116707815399e+01   2.610292469500e+01  -1.032934387636e+01 
1 -4.127015917525e+01   4.647694136126e+01  -2.173671336101e+01 
1  4.559445015011e+00  -2.315193477500e+01   1.550477406874e+01 
1 -3.061750965527e+01   8.573810855217e+00   4.860816303702e+01 
1  5.138709851408e+01   4.345900660497e+01   2.191275277326e+00 
1  6.011003392124e+01  -8.161492736446e+00   3.813825984099e+01 
1 -1.500462802121e+01  -1.158081339679e+01  -4.400190418731e+00 
1  2.553914879830e+01   2.192345893484e+01  -3.121407864520e+01 
1 -5.745883635442e+01  -6.417456308897e+01   2.807516240964e+01 
1  4.322265137269e+01   2.494703417507e+01  -1.813530022206e+01 
12
 Atoms. MD step: 34000
1 -2.849421788318e+00   9.317783224051e+00  -1.517811897187e+01 
1 -7.894944390182e+00  -3.209101392876e+01  -2.679359873137e+01 
1 -8.658146613160e+01   2.760057187759e+01  -8.512750903105e+01 
1  4.867368241294e+01   2.247956537948e-02   9.121346430126e+00 
1 -5.716420388011e+01  -8.401222697067e+01   2.258275831267e+01 
1 -8.536157711018e+00   1.696412705276e+01   4.209569180543e+01 
1 -8.803139492428e+00  -1.289380609678e+01   4.366337029835e+01 
1  6.859936376192e+01  -1.726274706209e+01  -6.318422871732e+01 
1  2.778800604671e+01  -2.494420080914e+01  -3.911552946070e+01 
1  5.336236128663e+01  -6.775465119793e+00  -2.059832948439e+01 
1  2.875914690426e+01   6.373593385314e+01  -3.139075829385e+01 
1 -1.085119614387e+01  -3.692188907572e+01   8.002640673145e+00 
12
 Atoms. MD step: 35000
1  4.022096925397e+01  -6.862375055361e+01   6.979848809958e+01 
1 -6.730037254330e+01  -4.552891102956e+01   8.588669160605e+00 
1 -4.455811834999e+01  -3.970130258353e+01  -7.424301451425e+01 
1 -4.249712847840e+00  -3.731637041100e+01  -6.412900532633e+01 
1 -6.349135723470e+00  -9.764566162110e+01   2.937411319466e+01 
1 -1.135478672583e+01  -5.935859191324e+01  -2.013498395513e+01 
1  3.874115955415e+01  -2.726077402340e+01  -8.080656060884e+00 
1 -6.912198348000e+00   3.319903491029e-01  -4.411452450719e+01 
1 -8.119783003630e+00   1.288989062050e+01   7.403920530987e+00 
1 -9.892601229236e+00  -2.205696384337e+01   1.315445772906e+01 
1 -6.742680760579e+00   3.828394866880e+01  -7.666718572224e+01 
1 -2.708288868801e+01  -1.795680197925e+01   2.808767105613e+01 
12
 Atoms. MD step: 36000
1 -4.906309607824e+01  -4.959680494149e-01  -1.560996690372e+01 
1 -2.866123707476e+00  -4.232614951696e+01  -4.726196230903e+01 
1 -1.949083190261e+01  -8.204291714837e+01   3.219611744438e+01 
1 -9.804889674353e+00  -2.684421337187e+01  -2.421126306935e+01 
1 -1.453817839411e+01  -1.722743754804e+01  -4.774893438153e+01 
1 -6.431472798732e+00   1.966734883871e+01   7.063148584705e+00 
1 -5.484794772687e+00  -2.696690474755e+01  -1.103207651328e+01 
1 -3.663356521090e+00  -1.322534048258e+01  -7.826064390618e+00 
1 -4.172112394648e+01   4.842902211404e+01  -4.585411703755e+00 
1 -4.017524291768e+01   1.161828624087e+01  -8.307469263816e+00 
1 -1.766457380970e+01  -4.505394444781e+01  -3.273173514145e+01 
1  2.338367165068e+00   1.724716924466e+01   7.462352493321e+01 
12
 Atoms. MD step: 37000
1  5.290850491384e+01  -3.145583737710e+01  -2.869179388374e+01 
1 -3.526653934678e+01  -6.841134599969e+01  -6.923816024487e+01 