12
 Atoms. MD step: 0
1 -4.136480284675e+01  -6.733924332456e+01  -7.296873238579e+01 
1  8.358044679952e+00   2.243269184022e+01  -6.087774910326e+01 
1 -4.531143192270e+01  -7.475930792796e+01  -1.910206864163e+01 
1  3.597228715058e+01  -4.360449338159e+01   4.115082967918e+00 
1 -5.243345262330e+01   7.816972799382e+01   9.782048857875e+00 
1  7.380049928743e+01  -5.473068267623e+01  -2.505269487972e+01 
1  5.300560042916e+01  -6.452009096289e+01  -5.504421554415e+00 
1 -5.782308293435e+01   1.432362492750e+01  -1.546731161176e+01 
1  3.613693402372e+01   7.813177370494e+01  -5.631815618387e+01 
1  3.203138489122e+01   5.613385430129e+01  -8.034310466731e+00 
1  2.487749424284e+01   5.330252612637e+01   2.878814673376e+01 
1 -2.667715154475e+01   7.483531585516e+01   5.607656718694e+01 
12
 Atoms. MD step: 1000
1  4.422847442335e+01  -2.414941648034e+01  -3.193484125260e+00 
1 -6.053566235593e+00  -4.408182232530e+01   5.684422456680e+01 
1 -3.372325527302e+00   5.984436690710e+00   3.124856138464e+01 
1  2.090194547131e+01  -1.601414233161e+01   6.007360989994e+01 
1  4.496095982883e+01   6.710832486208e+00   3.744974597736e+01 
1  3.497493607361e+01   7.198651847039e+00  -2.854785623909e+01 
1  2.838249306881e+01  -1.726994375627e+01  -4.038261441375e+01 
1 -1.438709914786e+01   3.842508027336e+00   4.655426635423e+01 
1 -3.926375637264e+00   7.672275790796e+00  -5.572967092698e+00 
1  8.606898461590e+00  -4.294962995361e+01   4.017328558780e+01 
1 -1.595293762649e+01   1.712025851123e+00   2.234399087498e+01 
1  1.443791345386e+00   2.282483665450e+01  -7.508648672003e+00 
12
 Atoms. MD step: 2000
1  9.687892898437e+00  -4.209949252454e+01   8.470201146665e+00 
1  2.996579471738e+01  -3.046649133147e+01   6.165682258357e+01 
1 -2.077813695320e+01  -4.149844854002e+01  -3.820503379223e+01 
1  2.272797678588e+01  -5.210366147507e+01  -2.946029372789e-01 
1  3.481898164756e+01  -3.024473665440e+01  -3.494046149438e+01 
1  3.209611773924e+01   9.872990786513e+00  -4.097463831172e+01 
1  2.319649351271e+01  -3.674903895299e+01  -4.572040083307e+01 
1 -1.171785880932e+01  -7.115253452511e+01   1.114017318340e+00 
1  5.222805595089e+01   2.181828630838e+01   2.440202239917e+01 
1  1.069991094644e+01  -7.139867290125e+01   2.408917743266e+00 
1  9.463694777698e+01  -8.108875442334e+01  -3.812083315200e+01 
1  2.543443966774e+01   2.045947591318e+01  -4.043262652986e+01 
12
 Atoms. MD step: 3000
1 -6.372114396773e+00  -5.011449417123e+01  -2.725029072805e+01 
1  2.294487425170e+01  -6.952155917915e+00   2.778399664962e+00 
1 -3.955870092249e+01   3.410308749860e+01   2.492111863793e+01 
1 -2.803811327846e+01   3.287645518893e+01  -7.271008047732e+00 
1  1.012260294660e+02   3.034986916988e+01   2.957451455149e+01 
1 -6.773776254842e+01   1.178652417349e+01  -6.355753821247e+00 
1 -2.325383087743e+01  -5.760242894916e+01  -5.043789561009e+00 
1  3.733206127683e+01  -5.708384352778e+01  -2.384565602896e+01 
1  4.620270482630e+00   6.103338663635e+01   1.915918284988e+01 
1 -9.694377681080e+00  -3.760310972093e+01  -3.708966907106e+01 
1 -5.893536326224e+01  -1.628571387299e+00   2.868973066163e+01 
1  3.432411282307e+00  -1.009556964159e+01   2.399668649579e+01 
12
 Atoms. MD step: 4000
1  2.478121331387e+01  -4.039594049863e+01  -5.554323917799e+00 
1 -2.243666993782e+01  -1.201501640880e+01  -1.268442932650e+01 
1  2.253731824772e+01  -1.600226336783e+01  -4.044160607739e+01 
1  4.041783025842e+01   1.364736506753e+01   3.947143629350e+01 
1  1.363688860201e+01   1.034993719792e+02   3.596624676881e+00 
1  1.630869603206e+01   1.492476235768e+01   1.010316311324e+01 
1 -2.466608198690e+01  -1.187312217444e+01   3.292477428806e+01 
1 -1.141149990946e+01  -5.748723224654e+01   8.623737740711e-01 
1 -4.908435675282e+01  -1.385339673598e+01   1.702642586998e+01 
1  7.192336007918e+01  -4.028599704553e+01   3.326748468479e+01 
1 -7.913371968273e+00  -4.971654484128e+00   1.731841927664e+01 
1  6.577976527091e+00   2.308197879674e+01  -1.268276864076e+01 
12
 Atoms. MD step: 5000
1 -2.452312680819e+00   2.238844231058e+01   2.076588606589e+01 
1  4.727004266734e+01  -3.378914025750e+01  -3.752854802813e+01 
1 -4.557480443501e+01   6.534654505207e+01   4.463821380709e+00 
1 -4.736717942856e+00  -2.261873494455e+01  -1.629677909943e+01 
1 -5.490983908252e+00   2.244337376008e+01  -2.565635552230e+01 
1  2.526512417012e+01  -3.786242549985e+01  -5.541966453263e+01 
1  4.032000134003e+01   6.754090486111e+00   2.245606622262e-01 
1  6.585391761981e+00  -1.096578746475e+00   3.492222567803e+01 
1 -5.401360806219e+00   2.586167273223e+01   1.740527868130e+01 
1 -1.630945784125e+01   2.672370194646e+01  -2.177464870041e+01 
1  1.716516860065e+01   1.064434485789e+01  -2.331600192401e+01 
1  7.500413778531e+01  -1.427979384643e+01   1.813126291177e+01 
12
 Atoms. MD step: 6000
1 -5.687589302765e+01  -4.569413743423e+01  -1.210319303246e+01 
1 -4.241312769380e+00   4.977427546009e+01  -3.342258960195e+01 
1  3.386778062971e+01  -5.628142136287e+01   4.931470153638e+01 
1 -4.506034410631e+00  -7.343518659271e+01   1.330403130043e+01 
1 -3.110663821482e+01   2.792018311538e+00  -1.627235385412e+01 
1  4.371098618892e+01   5.688801640419e+01   4.326386684522e+01 
1 -8.687557430983e+00   8.022317778835e+01  -2.072762357356e+01 
1 -1.035803032205e+01   3.888829880992e+01  -3.715165718031e+01 
1 -3.851856240791e+01  -3.053560905974e+01  -4.664536009126e+00 
1 -9.554777425912e+00  -2.242713099253e+01   1.137841867559e-01 
1  2.144428731890e+01   5.919357125801e+00   2.364133871092e+01 
1  5.135830428390e+01   3.321110758884e+01   2.091065845326e+01 
12
 Atoms. MD step: 7000
1 -3.876091762453e+01   5.115605190735e+00  -1.651727150916e+00 
1  7.820868757520e+01   2.709044399228e+01  -3.080252827787e+00 
1  6.190156841919e+01   3.197475639582e+01  -4.070395956512e+01 
1  5.090424639921e+01  -1.856369472585e+01  -3.001261607624e+01 
1 -1.612233193863e+01  -2.114372395777e+01  -2.042818415327e+01 
1 -4.496414467599e+01  -4.030201403881e+01   2.798330549777e+01 
1  1.404906910857e+01   1.331897719863e+01  -1.798343617580e+01 
1 -4.872784376448e+01  -1.370466539546e+01  -1.278788605875e+01 
1  3.492934920552e+01   1.684075166168e+01   3.964425355784e+01 
1 -6.476616154931e+01   2.420031165894e+01   4.423001312713e+01 
1  8.610714517391e+01  -6.049325661505e+01   5.276049464102e+01 
1 -7.570997138599e+01  -2.087263823084e+01   8.965227200412e+00 
12
 Atoms. MD step: 8000
1  1.013538318990e+00  -1.002296997462e+01  -5.826097247464e+00 
1  6.952585819757e+01  -2.156191333363e+01  -1.940691299787e+01 
1  4.157245998931e+01   3.977993718831e+01   8.675852499249e+01 
1  2.616403825471e+00   7.713495221702e+01   4.475275218063e+01 
1 -6.764926366254e+00   3.594492076622e+01  -7.491823922811e+01 
1  4.103490181354e+01   1.855503135505e+00   3.532676343972e+01 
1  2.846217412441e+00   1.304005363172e+01  -3.236252415045e+01 
1  2.888653892352e+01   4.016426710790e+01  -6.713751279554e+01 
1  3.440510324150e+01  -6.011832487477e+00   3.114965128159e+01 
1  7.227297113985e+00  -1.640743293553e+01   2.913707845341e+01 
1 -2.976428045441e+01  -2.466852352301e+01  -2.048736464735e+01 
1 -3.018536409421e+01  -3.576874817696e+01  -4.533262188299e+01 
12
 Atoms. MD step: 9000
1  2.932729110329e+01  -5.065272733429e+01   6.798100861286e+01 
1  7.241011601796e+01  -5.223079571195e+00   7.432529498953e+00 
1  2.871890661117e+01   3.048768137119e+01   4.006944166676e+01 
1 -1.463255673520e+01   1.486377119518e+01   2.807228736023e+01 
1 -1.575539817488e+00   5.022004292281e+01  -6.159154378683e+01 
1 -1.608040365857e+01  -7.494040381246e+00   9.334071824877e+00 
1  1.436625365551e+00   5.800715954193e+01  -5.827675712039e+00 
1  9.265530060234e+00   3.144209111556e+00  -3.420126948971e+01 
1  3.651875745378e-01  -5.505435320341e+01  -6.064566103887e+01 
1  1.439030184132e+01  -4.391212144910e+00  -1.818006717320e+01 
1  1.510289919578e+01  -1.253823212732e+01  -5.204605300121e+01 
1  1.569664896033e+01   1.882318808620e+01  -1.583420504642e+01 
12
 Atoms. MD step: 10000
1 -6.127927142636e+00  -1.962562096760e+01  -1.138404515505e+01 
1  2.071332950596e+01   5.759540683238e+01   1.435476330913e+01 
1 -3.756954610963e+01   1.914631786628e+00   9.053619371605e+00 
1  2.288974797466e+01  -1.409795193877e+01   1.832384782362e+00 
1  1.053844755563e+01   1.430826113341e+01  -1.537128795423e+00 
1  1.208174378996e+01  -9.438535894020e-01  -3.653036928354e+01 
1 -5.523503629801e+01  -3.291904540931e+00   3.879180763729e+01 
1 -2.153798029052e+01  -4.252085350565e+01   2.971950332185e+01 
1  1.518157432470e+01   4.702226198678e+01   2.455131654828e+00 
1 -2.719238163853e+00  -8.724125775771e-01  -1.107025433602e+01 
1 -5.004547869194e+01  -3.283484420280e+01   2.064484966148e+00 
1  6.046887738950e+01  -1.284829776669e+01  -2.701030039765e+01 
12
 Atoms. MD step: 11000
1 -3.224270214520e+01  -4.641221731446e+00   3.602929521634e+01 
1  3.367865625433e+01   4.341709008668e+01   2.326990464852e+01 
1  3.909798845704e+01   7.943951248111e+00  -1.688006849873e+01 
1 -3.173948025215e+01   9.061270117129e+00  -3.818407092728e+01 
1 -8.212051402321e+00  -1.256359245401e+01  -1.226795211410e+01 
1  2.402016392142e+01   8.696518306546e+01   7.401470328619e+00 
1 -1.629892072265e+01   5.990712054161e-01  -1.975991487051e+01 
1  1.284595428256e+01   1.503785565869e+01  -6.439176055715e+00 
1  3.970758657243e+01   8.086197970020e+00   2.403110563227e+01 
1  2.282578822353e+00   4.519399508790e+01   5.055811306387e-01 
1 -8.760818965070e+00  -3.037453955568e+01  -1.716962169838e+00 
1  3.481221685280e+01  -1.813419651116e+01   8.911925900320e+00 
12
 Atoms. MD step: 12000
1 -4.403853295855e+01   5.860010637355e+00   4.587846903184e+01 
1 -9.337458165075e+00   2.680773310422e+01  -3.854819021111e+00 
1  8.023549576081e+01  -1.064000817194e+01   3.976133009932e+01 
1 -2.314296633656e+01   1.373003746464e+01  -2.964641452060e+01 
1  8.110386185330e-02  -3.077143749294e+01  -5.361629167568e+01 
1 -2.955841769593e+01   2.347517999854e+01   9.781697543284e+00 
1 -2.053567433150e+01   5.410268167486e+01  -1.022576055294e+01 
1 -6.478622271531e+00   2.863396031179e+01   2.147981335011e+01 
1  4.684436629901e+01   2.098033874491e+01   4.600385293974e+01 
1  5.704312161079e+00   3.367168923667e+01   5.001226188081e+01 
1 -7.022812449885e+01   1.528336014917e+01   8.520646872847e-01 
1 -1.909178224486e+01  -2.558979067586e+01  -1.378826448408e+01 
12
 Atoms. MD step: 13000
1 -6.666903371851e+01   4.771013378120e+01  -5.135416704088e+01 
1  1.060907391873e+01   8.141010718087e+00   9.831387938128e+00 
1  1.606101708288e+01   3.695542871323e+01   5.364936564324e+01 
1 -3.687786229879e+01   3.670168818630e+01  -4.318840596376e+01 
1 -2.442570245541e+01   5.651371463609e+01   3.378602403144e+01 
1  1.538690142394e+01  -3.347406084635e+01   5.803540855272e+01 
1 -1.061454477297e+02   7.290705184719e+00  -7.238735572335e+01 
1 -3.470222314879e+01  -5.242209366009e+01  -2.910391197481e+00 
1  7.473617304947e+01   3.534013818200e+00  -1.059384697517e+01 
1  4.593236741843e+01  -2.712349598658e+00   1.503433417981e+01 
1 -2.751921938800e+01   1.512591654377e+01   3.991535531369e+01 
1 -7.170118938376e+00  -3.790521326464e+01   3.303672488427e+01 
12
 Atoms. MD step: 14000
1 -8.352638167480e+01  -1.664675477037e+01  -5.430764326418e+01 
1 -5.690326942087e+00  -2.853964990775e+01  -3.668964975751e+01 
1 -6.507994623038e+01   4.229058910774e+01   2.342367891869e+01 
1  1.146259105211e+01  -5.248377320510e+01   6.224522849946e+00 
1 -3.706572842751e+01  -6.675703954052e+00   2.027317333091e+01 
1  2.854954813407e+01  -1.814853383666e+01  -5.165406921281e+01 
1  8.117015361818e+01  -6.823841757257e+00   4.780455569009e+01 
1 -4.686975428678e+01  -1.052890885116e+01   1.040445073769e+01 
1 -4.360521069310e+01  -3.196835963313e+01   9.777231077174e+00 
1 -3.790699373071e+01   1.434692629864e+01   2.839231169368e+01 
1 -7.578291622731e+00  -5.760765370618e+01   2.553949345959e+01 
1 -1.473973151867e+01  -3.323475460570e+01   5.249608153977e+01 
12
 Atoms. MD step: 15000
1 -3.687541268311e+01  -3.750683544360e+01   4.745557538167e+01 
1  7.123076352045e+01  -1.415094147606e+01  -1.742880896966e+01 
1  7.546869173250e+01   2.931730040607e+01  -2.082879800174e+01 
1  6.825470523217e+01   6.373811857087e+01  -2.137048627896e+01 
1 -6.387805256934e+01  -1.172476670618e+01  -1.882384687990e+01 
1 -1.766219458152e+01   2.652527659611e+01  -1.322516344458e+01 
1  8.178502920310e+01   3.732586756138e+01   3.156993517263e+01 
1  4.274913328939e+00   1.644174732075e-01   2.931369017566e+01 
1  2.483221959353e+01  -1.567790373666e+01  -6.501095230377e+00 
1 -5.847863121191e+00  -2.285155973426e+01   3.474840892103e+01 
1 -2.235354158476e+01  -7.919377157625e+00   4.947807817064e+01 
1 -3.246780629636e+01  -2.497726436389e+01   4.172584185730e+01 
12
 Atoms. MD step: 16000
1  3.022055571760e+01  -3.822475912255e+01   3.544847998105e+01 
1  2.090473710464e+01  -1.503582186113e+01   2.824639461555e+01 
1 -1.043611625486e+01  -1.164360778480e+01   2.390473479476e+01 
1  2.355336015680e+01  -5.951984764435e+01  -1.717075569766e+01 
1 -3.539695228845e+01  -2.781328242704e+01   1.568678735594e+01 
1  7.900016290998e+00   1.554840949981e+01   7.044941486199e+01 
1 -1.014476503584e+01   6.209656270917e-01   7.665569503730e+00 
1 -2.574130658457e+01   3.460923420237e+01   4.242516084122e+01 
1 -8.655403483667e+00   1.856122388594e+01   1.293612727973e+01 
1 -2.996695960496e+01  -3.062400134489e+00   7.171758630081e+01 
1 -3.154138360566e+01   5.315233365795e+01  -3.579868315718e+01 
1 -1.476223875178e+01  -1.749083093921e+01   3.571445913255e+00 
12
 Atoms. MD step: 17000
1 -8.084371037724e+01  -2.679599113033e+01  -2.016398176886e+01 
1 -1.914932553743e+01   2.937560800609e+01  -1.088986424424e+01 
1  6.788269682008e+00   1.494789058994e+01  -2.936311030886e+01 
1 -7.064649006762e+01  -2.932538225147e+01   2.272197958050e+01 
1  2.307085776750e+00  -2.070482867978e+01  -1.053764111670e+01 
1 -1.034246052255e+02  -3.200504306792e+01  -1.342104537755e+01 
1 -6.280133345704e+01  -8.242549549311e+01   4.961783208398e+01 
1 -1.651138776968e+01  -4.424895301918e+01   4.079954627720e+01 
1 -6.016720823720e+01   3.578253014369e+01   2.235059197850e+01 
1 -1.298512037627e+01   4.959165336783e+01   5.949291470724e+00 
1 -1.035743614937e+01   4.241476950524e+01   3.163933397805e+00 
1  8.426477236870e+01  -5.183561954406e+01   6.361138299405e+01 
12
 Atoms. MD step: 18000
1  7.040653253943e+01  -1.656548996549e+01  -1.777737297560e+01 
1  2.656354277963e+01  -6.952880576980e+00   2.787532606806e+01 
1 -2.635007305861e+01   3.860695780832e+01   3.975556080211e+01 
1 -2.675921480567e+01   5.669813725035e+01   3.351916244125e+01 
1 -2.887418201558e+01  -6.584803396398e+00   2.746305576095e+01 
1  2.475965722918e+01   4.519929300055e+01  -7.050403290274e+01 
1 -2.493725045481e+01   4.008934284258e+01   4.868168127149e+01 
1  7.165765429607e+00  -3.512905457091e+01   9.779194472887e+01 
1  2.064910041278e+01  -3.312826303650e+00   6.663689317076e+01 
1 -3.738248413236e+01  -3.497685308964e+01   5.557978810399e+01 
1 -1.522059569316e+01   7.104629254913e+00  -6.018767311191e+01 
1  4.580507394298e+01  -3.339812280551e+01   1.282390458682e+01 
12
 Atoms. MD step: 19000
1  4.213673335531e+01  -3.373176329943e+01   4.221723922681e+01 
1 -1.271843259893e+01  -1.292685842932e+01  -8.288353981577e+00 
1 -1.550658605948e+01  -4.823346627347e+01  -3.333929240601e+00 
1 -3.659661837818e+01   1.252338500418e+01  -1.723355341629e+00 
1 -3.019866384943e+01  -2.948484306988e+01  -4.084091875957e+01 
1 -4.430965857287e+01   7.505445733124e+00  -8.395426509010e+00 
1 -2.716862865733e+01  -3.838990441617e+01   1.422105370219e+01 
1  8.276501520784e+00  -7.983942547639e+00  -5.690818668428e+00 
1  2.408686833000e+01  -2.492413786379e+01   2.707298324767e+01 
1  5.463127251294e+01  -1.179800224529e+00   1.833025612252e+01 
1 -1.160039826247e+01  -1.533157690981e+01   3.521083824025e+01 
1  2.711385535600e+01   1.166873895228e+02  -1.304283099022e+01 
12
 Atoms. MD step: 20000
1 -3.078327483608e+01   2.651241972683e+01   6.727934886072e-01 
1  4.336656467727e+01   2.344407322413e+01  -1.108174346305e+02 
1  4.823346290116e+00  -3.152441246886e+01  -2.405762436954e+01 
1  2.264984717537e+01  -8.115388396149e+01   2.018104877899e+01 
1 -1.665612096483e+01   1.091397019252e+01   3.436164158523e+00 
1 -2.361258121832e+01  -1.508202396053e+01   2.226548678739e+01 
1  2.938003952811e+01   4.279970447112e+01   9.635950944892e+00 
1  2.979093974821e+01  -6.812154269233e+01   1.287153158990e+01 
1  2.763712467741e+01   1.076803919878e+00   8.246822355970e+01 
1 -6.581908594673e+00  -1.801708390601e+01  -3.466600376541e+01 
1 -7.171711114840e+00  -1.042673814469e+02   3.343807816022e+01 
1 -4.321270260036e+01   1.981692808917e+00   4.415530372222e+01 
12
 Atoms. MD step: 21000
1  2.036929490242e+01  -7.219670702142e+01  -7.601420767140e+00 
1 -3.286103094490e+01   5.390791241645e+01   7.971304323023e+00 
1 -4.177034339499e+01   5.071612274080e+00  -7.923941892019e+00 
1  4.304422663497e+01  -8.961060505684e+01  -2.591622282443e+01 
1  3.848249781462e+01  -2.511982066957e+01  -2.625685278860e+01 
1  2.934355522047e+01  -1.311503132478e+01   2.165740451067e+01 
1 -3.109162116781e+01   4.836504349290e+01   1.577848267230e+01 
1  2.787476017759e+01  -1.197414742867e+01   6.886060244699e+01 
1  1.693785369197e+01  -2.572689636959e+01   2.031254836296e+01 
1  9.943887410981e+00   3.920727777402e+01   6.408589717165e+01 
1  1.524154792416e+01  -1.653572757991e+01  -2.183295394235e+01 
1 -3.323528712051e+01   5.031336506837e+01   2.173616164232e+01 
12
 Atoms. MD step: 22000
1 -5.411080395458e+00   2.787157866569e+01  -2.207303504673e+01 
1  5.045287945949e+00  -2.435873875672e+01   6.364487388199e+01 
1  4.428209445729e+01  -5.299031071814e+01   3.840912952051e+01 
1 -5.390026965409e+00   5.457042921891e+00   1.920417916591e+01 
1 -2.375207910292e+01   3.249201102575e+01  -4.523961980204e+01 
1 -4.513612258859e+01  -1.127632563501e+01   3.701444346180e+00 
1  5.257411414193e+01  -1.341650129049e+01  -4.382821674815e+01 
1 -3.938288866608e+01   6.074890105822e+01   6.559898814098e+01 
1  3.486659682251e+01  -2.171415350768e+01   4.321325611103e+01 
1  2.380909276714e+01  -3.124513544083e+01   3.238043781595e+01 
1  3.175791141187e+01   2.560703661063e+00   6.217850158301e+01 
1 -2.012294900454e+01   3.446462747567e+01   3.183623895678e+01 
12
 Atoms. MD step: 23000
1  1.269561319478e+00   8.326128027080e+00   1.171925492195e+01 
1  3.801642503733e+01   8.531269003554e+01  -7.119324852560e+00 
1 -1.875308155685e+01  -6.801913582097e+00   7.297850609934e-01 
1 -1.050484943986e+01  -1.047568854889e+01   4.589129088424e+00 
1  1.437587607452e+01   2.941838896890e+01  -4.119179427301e+00 
1 -3.489874576956e+01  -1.529339723818e+01   3.893643040398e+01 
1 -3.842065207745e+01  -4.725370764478e+01  -5.768011243149e+00 
1  8.097090719222e-01   2.232353575383e+01  -2.476639842133e+01 
1  5.645033588918e+00  -1.902909330687e+01  -9.295896638906e+00 
1 -1.968390542354e+01   1.584910928194e+01   3.003116346229e+01 
1  1.201441759467e+01   1.142859159765e+01  -4.726352420387e+01 
1 -2.526699338117e+00   5.348416235937e+01   1.463548373356e+01 
12
 Atoms. MD step: 24000
1 -4.330457686895e+00   5.541411473133e+00   2.187771045271e+01 
1 -1.057018624457e+01  -2.113330992881e+01   1.366803267215e+01 
1 -1.853977757231e+01  -1.619304538773e+01  -6.580222805579e+00 
1 -1.208195000803e+01   1.434055179486e+01  -5.736535958315e+01 
1 -1.071016390932e+02   2.523334713959e+01  -2.479567996181e+01 
1  7.372721638787e+01   1.288366255181e+00   8.991331056305e+00 
1  6.050560123415e+01   4.283005691285e+01  -7.290587028131e+01 
1 -9.621689113056e+00   6.803096717588e+01   9.286306515696e+00 
1  2.869603359213e+01   6.324800890110e+00  -8.793598952986e-01 
1  2.578664776676e+01   1.288813518187e+01   6.390990093809e+01 
1  1.033058047794e+01   2.827568875141e+01  -8.973244837519e+00 
1  1.824567395646e+01   9.896335725312e+00  -1.948897775939e+01 
12
 Atoms. MD step: 25000
1  1.767418880479e+01   5.459905706265e+01   3.714467486594e+00 
1  3.661981545816e+01   1.502265050995e+01  -5.431420756639e+01 
1  2.003936551403e+01   6.383892636974e+01  -1.833895659382e+01 
1  8.336560333067e+01   4.801037320211e+01  -4.620027445376e+01 
1  2.272903428075e+01  -1.908888277195e+01  -2.357600125587e+01 
1  6.900082661808e+00   3.057248546023e+01  -2.010092991113e+01 
1 -2.675253796347e+01   3.708101346970e+01  -3.503586379491e+01 
1 -6.088060592088e+00   2.641826164480e+01   5.562807031714e+00 
1  2.017022324658e+01  -5.601631312627e+01  -1.505702449842e+01 
1 -5.194988848094e+01   5.429661043642e+01  -7.411500624081e+00 
1  1.079451932595e+02   9.366629497271e+00  -2.109611010534e+01 
1 -6.075478675589e+01   4.337910655693e+01  -1.306691993598e+01 
12
 Atoms. MD step: 26000
1  2.540765211824e+01   1.291538431161e+01  -2.895317641516e+01 
1 -4.606186369633e+01  -3.079031922217e-01   9.781741931059e+00 
1 -1.229875048094e+00   8.536034903251e+00   2.403211283080e+01 
1  1.027651213854e+01   2.881914604102e+01  -2.182887650088e+01 
1 -2.085310052123e+01   1.266957724248e+01  -3.833894184698e+01 
1 -2.993731866214e+01  -1.150768282678e+00  -2.979324088988e+01 
1 -7.336276897148e+01   1.019437643088e+00  -1.466277653715e+01 
1  1.260127107114e+01  -9.317827364998e+00   5.830807345376e+01 
1  5.621490047093e+00   1.083689328486e+01   4.410649993985e+01 
1 -3.424888277080e+01   8.981599328928e+00   1.304037310895e+01 
1  5.978356998050e+01  -1.103283150400e+01  -9.440194256843e+00 
1 -8.778894538649e+00  -1.897371069402e+01  -4.700333831186e-01 
12
 Atoms. MD step: 27000
1  3.965241200950e+01   3.136490623846e+01   4.673498929867e+00 
1 -3.762887836969e+01  -4.785233648316e+01   4.322908350907e+01 
1  1.190103907634e+01  -2.203316961012e+01   4.306579304950e+00 
1 -5.421771709832e+00  -4.105925230893e+01   2.096961189926e+01 
1  9.611319874362e+00  -6.312950278327e+00   1.599840139335e+01 
1  1.824522112113e+01   1.671064392048e+01  -1.952042453001e+01 
1  5.644906661604e+01   1.269950063091e+01  -4.083712872371e+01 
1  1.956145147344e+01  -2.076830953167e+01   1.270681669338e+01 
1  1.647319038638e+00  -2.975253989430e+01  -4.128574154622e+01 
1 -7.517096625368e-01  -3.674811343337e+01  -6.138958692238e+00 
1  7.600437764379e+00   3.943705425927e+01   2.629317381924e+01 
1  3.130798281844e+01  -7.069172384800e+01   3.698863995453e+01 
12
 Atoms. MD step: 28000
1 -4.415424481591e+01   4.706361536316e+01  -2.010711731008e+01 
1 -1.458653072401e+00   1.058153542792e+01  -3.906853613392e+01 
1 -3.533941399411e+01  -3.005639784226e+01  -3.111070512444e+01 
1  3.233696854573e+01  -2.957892140937e+01  -1.167799025243e+02 
1 -2.888510829148e+01  -3.565958969211e+01  -6.065555371047e+01 
1 -3.019445274811e+01   2.388214336227e+01  -3.950895661785e+00 
1  3.380708465376e+01  -6.964356863775e+00   1.520916836730e+01 
1  1.528680597720e+01   4.142193205404e+01   1.932990825722e+01 
1  2.069636617769e+01   1.465124014805e+01   5.239374287982e+01 
1  3.520506902262e+01   3.724472282363e+01   5.064100302869e+01 
1 -3.483199432377e+01   1.475385775027e+01  -3.287397427674e+01 
1 -3.594491928884e+01  -1.534713172695e+00   7.465869878961e+01 
12
 Atoms. MD step: 29000
1  3.379781606532e+01   2.712951870371e+01  -6.198704647686e+01 
1  1.175695191622e+00   7.491651387838e+00  -4.305735142515e+01 
1 -7.144185113268e+01   7.023889792048e+00  -1.384684168197e+01 
1 -2.263580917501e+01  -3.851689301022e+01  -3.336714258009e+01 
1  7.170875563042e+01   9.941353471863e+01   3.227369127650e+01 
1 -3.602409193306e+01   2.426561214248e+01  -5.810506272798e+01 
1 -1.705070643091e+01  -4.093643788060e+01  -2.968822669598e+01 
1 -2.343920106927e+01   2.366686165928e+01   5.219802501636e+01 
1 -5.914023268878e+01  -4.769928237987e+01   8.491600039348e+00 
1  6.751625562638e+00  -1.021743359810e+01   1.606027204001e+01 
1  3.340896706849e+01   3.710897922188e+01  -6.099134625547e+00 
1  2.160276244738e+01  -3.625919993392e+01  -1.860746721723e+01 
12
 Atoms. MD step: 30000
1  3.767585465455e+01  -5.985358492098e+01  -6.586922056911e+01 
1 -4.560864217741e+00   1.618652972495e+01   2.722018967169e+01 
1  7.834323764241e+01   8.277155501817e+00  -6.856550613641e+00 
1  5.995109368171e+01   5.879827007655e+01   8.253577789045e+00 
1 -6.054861901255e+00  -2.989360381092e+00  -3.672749698515e+01 
1  3.869054833584e+01  -1.189470635879e+00   1.961194112606e+01 
1  1.556779400390e+01  -4.481234379488e+01   1.825918648180e+01 
1  3.582713713322e+01  -1.554145862659e+00   1.339822643584e+00 
1  5.982174514334e+01   6.197984824775e+01   1.896888678912e+01 
1 -1.179020588412e+01  -1.978445486971e+01   1.007623197401e+01 
1  3.282186831054e+01  -7.424614701378e+01  -1.984344532858e+01 
1 -5.267347328519e+01   3.467558619849e+01  -1.296366662187e+00 
12
 Atoms. MD step: 31000
1  3.344230883444e+01  -8.348557416819e+00   4.150569199600e+01 
1  9.719499893240e+00  -1.689959544168e+01   4.712972704543e+01 
1 -2.465169630411e+01  -6.529681301975e+01   5.517834529912e+01 
1 -6.423224820771e-03   2.936086626569e+01   2.212127543314e+01 
1 -5.721807069113e+01   2.042606416423e+01  -2.463204352950e+00 
1 -2.844470382408e+01   2.684883610727e+00   2.149059760712e+01 
1  8.626444839079e+00  -3.384165490339e+01   6.098774863057e+01 
1  1.354038103909e+01   3.620846112127e+01   3.596821755504e+01 
1 -4.700536609597e+01   1.335810387729e+01   7.420979424955e+00 
1  1.966695090814e+01  -3.776079976572e+01   6.269429249589e+00 
1 -2.674066415933e+01  -1.563108135080e+01   2.098596247357e+01 
1  6.352004509694e+01   4.722656955068e+01   3.134809893490e+01 
12
 Atoms. MD step: 32000
1 -7.933347872099e+01   5.377318746557e+00   5.693513130818e+00 
1 -3.024646104753e+01   6.453225649406e+00  -9.711753005519e+00 
1 -1.044418885974e+01  -4.486936498777e+01   2.166255960801e+00 
1 -3.158233295646e+01   3.809639993625e+01  -7.262766261163e+00 
1 -4.556327675955e+00   2.969921015925e+01   5.914318391536e+00 
1 -2.533482145344e+01   3.939289611614e+01   3.586079346638e+01 
1  2.459946345631e+00  -3.295192124340e+00   1.682633238466e+01 
1 -9.893154428175e+00  -2.017533105063e+01  -3.088603490613e+01 
1 -3.174510269403e+01   1.402049592057e+01   3.080351323231e+01 
1 -1.891663077118e+01  -5.810455559871e+01   1.016980464844e+01 
1 -2.417790926698e+01  -4.999384855375e+00   2.507526091468e+00 
1  1.086013273428e+01  -1.971729301475e+01  -4.976247897237e+01 
12
 Atoms. MD step: 33000
1 -8.362249231015e+00  -9.573893743022e+00  -5.050923748177e+01 
1 -4.544181161343e+00   5.799149288285e+01   1.008251393012e+01 
1  3.430558464826e+01   7.997775269891e+00   8.003327603195e+00 
1 -4.251668129389e+01   2.915285464231e-01  -7.384113532452e+01 
1  4.802242260047e+01   3.614271081925e+01  -2.971331324802e+00 
1 -2.266353921441e+01   8.061167976209e+01   7.323991554962e+00 
1 -1.792991598812e+01   4.773595310120e+01   4.175184757950e+00 
1 -5.518483927183e-01   3.436408108096e+01  -2.113327900843e+01 
1 -1.741308238843e+01   2.784549890595e+01   8.881736052178e+00 
1  2.301767104451e+01  -1.526209754489e+01   1.726638753046e+01 
1 -2.263090204769e+01  -2.016533411781e+01   3.687064781365e+01 
1 -9.752528948794e+00   1.821275512462e+01   6.709255927671e+01 
12
 Atoms. MD step: 34000
1 -2.309548168069e+01  -3.476920721973e+01  -4.474593207924e+01 
1 -9.323639773997e+00   1.291952566574e+00  -5.846186453395e+01 
1  2.370255997673e+01   3.930116987503e+01   1.701967008820e+01 
1  3.708459967125e+01  -4.667549496694e+01  -5.928998061649e+01 
1  2.498562656095e+01  -3.828988453047e+01   6.514206235191e-02 
1  3.486932483983e+01   2.249861921969e+01  -1.015229448882e+01 
1  4.239274279285e+00  -1.074920178986e+01  -3.281153534113e+01 
1  2.267107213270e+01  -2.873850379607e+01  -2.762391390132e+01 
1  1.432165530030e+01   3.185606732829e+01   1.681281535685e+01 
1 -5.759574759112e+01   3.330642262824e+01  -1.697881843278e+01 
1  1.368203702454e+01  -4.320405634278e+00  -2.464765389423e+01 
1  7.466076671547e+00  -1.478234649395e+01  -6.078753105256e+00 
12
 Atoms. MD step: 35000
1  4.600976054610e+01   5.157204707590e+00  -3.768348330526e+01 
1 -6.711547847408e+01  -3.781825963315e+01   1.913011327341e+01 
1  2.536104895914e+01  -5.907075696623e+00  -6.404043044007e+01 
1 -2.357325028667e+00  -4.606068995615e+01   4.627812818481e+01 
1  5.056695657274e+01   4.378636448558e+01  -3.529507843580e+01 
1 -4.870006611937e+00  -3.382992347054e+01   9.677616521934e+00 
1 -3.204082606008e+01   6.246075266567e+00   4.987985735098e+01 
1  2.712793125762e+01  -2.471118086159e+01   4.990195346122e+00 
1  2.597297817057e+01   1.182586804779e+01  -3.046955727558e+00 
1  3.658866810093e+00  -2.739517672440e+01   7.476022737655e+01 
1 -3.428293295223e+01   1.180133769125e+01  -5.364273117643e+00 
1  5.685432092339e+01  -3.497401548681e+01  -1.317770516684e+01 
12
 Atoms. MD step: 36000
1 -3.111609423301e+01  -4.429072673624e+01  -5.209116904758e+01 
1  2.457419445864e+01   1.027360217798e+01  -3.142277873171e+01 
1  9.307747048870e+00   3.448374240199e+01   2.915721643135e+01 
1 -1.351117904269e+01  -4.837729275480e+01   7.122953965472e+01 
1  3.317386770560e+01  -2.613721007740e+01   2.642347636152e+01 
1 -5.879416842974e+01   8.453631178913e+01  -3.622043623714e+01 
1  2.448702009016e+01  -4.154945957863e+01  -1.472406151575e+01 
1 -4.805930084871e+01   3.317839687928e+01   1.370925890840e+01 
1  3.090535216924e+01   1.823367675311e+01   4.179317393436e+01 
1 -6.229533651984e+01  -1.903181636895e+01  -6.343336647135e+01 
1 -5.187097164091e+01  -5.263710324655e-01   2.616130197413e+01 
1  2.005416537632e+01  -4.912435115142e+00   9.873683536893e+01 
12
 Atoms. MD step: 37000
1  4.150216314716e+01  -4.265656265247e+00   2.950133535800e+01 
1  7.276709220200e+01  -5.342802705697e+00  -1.380281698165e+01 