12
 Atoms. Timestep: 0
1 1  4.511210480865e+02   3.688393410597e+02  -2.358278413772e+02 
2 1 -3.056850019910e+02   5.861365256319e+02   1.705919106157e+02 
3 1  1.106294959596e+02   2.738956518947e+02   2.784711947480e+02 
4 1  7.449573481960e+01  -1.657893047138e+02  -1.670657813159e+02 
5 1 -5.091441721214e+02  -1.209723232237e+02  -1.884097112929e+02 
6 1  3.743244658676e+02   5.799642225270e+02  -2.344126128323e+02 
7 1  3.712240431767e+02   1.004591922686e+02  -2.959722873567e+02 
8 1  3.672394289742e+02  -2.031851891553e+02   4.243441715181e+02 
9 1 -6.810981279500e+02  -2.418940063084e+02  -3.795368133753e+02 
10 1  3.124091282911e+02   5.853417187631e+01  -2.260462104667e+02 
11 1  2.614731872151e+02  -4.461503331289e+02  -4.041818268882e+01 
12 1 -9.390611017430e+01   7.059486965106e+02   5.048184204883e+01 
12
 Atoms. Timestep: 1000
1 1 -1.345704122035e+02   1.784530598629e+02   4.637922321869e+02 
2 1  1.793632668853e+02   1.554997610788e+02   5.591500841130e+02 
3 1 -5.217087777510e+02  -1.474962265052e+02   1.033655617675e+02 
4 1 -1.410835328940e+02  -2.031779805535e+02  -1.787265806020e+02 
5 1  1.779440663340e+00  -1.393907197955e+02   1.257675176075e+02 
6 1 -4.956541814033e+01  -8.310968314706e+02  -1.562129699812e+02 
7 1  5.099132069498e+02   3.989019386683e+02   4.315495448166e+02 
8 1  4.686374996944e+02  -2.387603964936e+02  -6.386521363394e+02 
9 1  1.786227389532e+02   8.497419970718e+02  -2.245258110820e+02 
10 1 -1.760321675349e+02  -1.446677044180e+02   4.001522401556e+02 
11 1 -3.107439796739e+02   5.207404071015e+02  -4.616574341186e+01 
12 1 -2.179140550699e+02   1.404915553820e+02  -4.480419338728e+02 
12
 Atoms. Timestep: 2000
1 1  4.921783050730e+02  -9.259666443968e+01   2.031589478511e+02 
2 1 -6.578293857597e+01   1.180268482722e+02  -1.098475559951e+02 
3 1  1.847004177744e+02  -1.709418757667e+02   1.650730681008e+02 
4 1 -5.411427637977e+02  -1.519407614411e+02  -6.105992576400e+01 
5 1  1.593374890782e+02   1.115992218359e+02  -2.894034514303e+02 
6 1 -2.908312708589e+01  -4.974574157138e+01   3.672417042781e+01 
7 1  3.730070249646e+01   2.556664167932e+01  -2.163785224015e+02 
8 1  6.846876286896e+01  -4.983789699906e+01   5.601822847110e+01 
9 1 -4.835245653331e+02   4.673997257594e+02   1.546623487204e+01 
10 1  4.029473507537e+02   2.988747590964e+02  -1.571358469398e+02 
11 1  1.726671057916e+02   1.684268198985e+02   3.592917206489e+01 
12 1  3.361266286556e+02   1.572286254612e+02  -3.526819719017e+01 
12
 Atoms. Timestep: 3000
1 1 -5.229044580303e+02  -1.395809479210e+02   3.245996395944e+02 
2 1  2.416334696330e+02   3.471708907877e+02  -4.209999103473e+02 
3 1  7.812356468089e+00   3.483871368228e+02   6.800979525805e+01 
4 1  3.445994929754e+01  -2.940240378531e+02  -1.522152790656e+01 
5 1 -2.663238701603e+01  -3.563186811785e+02  -8.337149890714e+01 
6 1 -5.476698706810e+01  -2.438898387079e+02  -1.223382816755e+02 
7 1 -5.390223228236e+02   4.597062109041e+02  -2.737036568252e+02 
8 1 -5.659020007207e+02   2.659999919744e+02   3.295341721751e+02 
9 1 -5.862959601740e+02   7.667166243715e+02   1.499278400648e+02 
10 1  6.086380978229e+01   2.331767435036e+02  -3.001712056693e+02 
11 1  2.711309207784e+02   3.623561601579e+02   5.456536835971e+02 
12 1  1.283143161343e+02  -4.821317738020e+02   1.192292770414e+02 
12
 Atoms. Timestep: 4000
1 1 -3.262278624669e+02   1.278499430551e+02  -2.862266268586e+02 
2 1 -1.961466650660e+02  -4.707040475185e+01  -4.319744754509e+02 
3 1  6.544575889124e+02   6.893634462416e+02   3.626920168547e+02 
4 1 -1.589973921382e+02   2.412241492053e+02   2.451111259431e+02 
5 1  3.330273339320e+02   3.180173193660e+02  -3.766028268201e+02 
6 1  6.805679736235e+02  -5.234209956210e+02  -1.542396400803e+02 
7 1 -5.720062581642e+02  -5.621248988448e+02   3.062665719155e+00 
8 1 -5.179710256480e+02   5.265700332826e+02   2.543517979586e+02 
9 1 -2.818560268461e+02   1.526177540842e+02   1.938922958336e+02 
10 1  1.816977219484e+02  -2.301715773846e+02  -1.016613657038e+02 
11 1 -2.033388804960e+02  -2.824773300067e+02   1.300833708029e+02 
12 1 -7.473120059867e+02   5.159938861264e+02   3.780573336253e+02 
12
 Atoms. Timestep: 5000
1 1 -1.542888267515e+02   2.277165108260e+02  -8.395172418646e+00 
2 1 -1.223483549088e+02   1.973531363433e+01  -2.460836663290e+01 
3 1 -6.346895814259e+01   3.750887654849e+01  -1.265694713419e+02 
4 1 -8.542250986723e+01   6.843702061847e+02   2.392339606926e+02 
5 1 -2.686165474912e+02   1.927632716800e+02   2.973725266083e+02 
6 1 -5.786880501352e+01   1.334331012253e+02   3.286778994174e+01 
7 1 -1.485955429973e+02   5.880549769836e+01  -1.162806960280e+02 
8 1  8.486529768426e+01  -3.032369579082e+02   6.329276754678e+01 
9 1  9.179759023347e+01  -3.081755618293e+01   4.587915874963e+01 
10 1  2.471431897732e+02  -5.009030843379e+01  -4.079562054741e+02 
11 1  1.638774965063e+02   7.745607315999e+01   2.956981833406e+02 
12 1 -7.128880262106e+01   2.354705983075e+02  -3.593623160582e+02 
12
 Atoms. Timestep: 6000
1 1  4.121635862963e+01   1.151645517332e+02   1.259874199519e+02 
2 1  1.754182180558e+01  -2.066856185003e+02  -1.379487277757e+02 
3 1  2.828364214517e+02  -2.561754437800e+02   2.318002084830e+02 
4 1 -2.983712802047e+01  -1.039018887556e+02  -6.628031457481e+01 
5 1  1.343173395660e+02   5.827995523806e+02   5.449306897050e+01 
6 1  1.905578206022e+02  -3.490682798822e+02   8.068159816677e+01 
7 1  1.537343246756e+02  -1.637579810292e+02  -3.778384166590e+02 
8 1 -1.552992477293e+02  -4.297262723470e+02  -1.329388816556e+02 
9 1  7.347383840627e+01  -5.351633050216e+01   2.244752869701e+02 
10 1 -3.391606529457e+02  -1.046317396591e+01   2.794852393625e+02 
11 1 -1.938100950556e+01  -2.778897103095e+02   1.852989873562e+02 
12 1 -3.000074203567e+02   3.940342811755e+02  -4.167947220579e+01 
12
 Atoms. Timestep: 7000
1 1  6.418390206622e+01  -2.391474919103e+02  -1.147975540965e+02 
2 1 -2.334735262247e+02   1.316723801697e+02   3.152262085306e+02 
3 1  3.126243830258e+02  -4.291106498234e+02   5.389448193941e+02 
4 1 -1.048081755400e+02   2.719888206298e+02   2.985774637658e+01 
5 1  3.318187415000e+02   1.784034777740e+02   1.528101325117e+02 
6 1 -2.516747455401e+02  -2.120593294606e+02   2.628434229221e+02 
7 1  3.822028020998e+02   1.693540391552e+02  -1.784944239917e+02 
8 1 -2.364641316282e+02  -7.003080727117e+01  -4.387825267225e+01 
9 1  1.932565602593e+01   1.898506272449e+02  -1.119273481261e+02 
10 1 -1.379240201380e+02  -3.321189067428e+02  -2.879559131894e+01 
11 1 -2.691917533641e+02   1.847448388637e+02   1.851319678171e+02 
12 1 -2.370688843208e+02   1.535556011804e+02  -6.121640772223e+02 
12
 Atoms. Timestep: 8000
1 1 -6.166295109546e+01  -1.561377663890e+02   7.904523710648e+01 
2 1  3.711276709370e+02   1.880148147085e+01  -4.154119715197e+02 
3 1 -5.933997569679e+02  -9.090068449770e+00  -2.714668190527e+02 
4 1  1.481455723037e+01   3.118548795893e+02  -2.189588996204e+02 
5 1  4.380273741281e+02   4.698364033520e+02   5.178278446041e+01 
6 1 -4.137914687800e+01  -5.793520833656e+02  -3.548366460369e+02 
7 1  3.005439065580e+02  -3.132762837197e+02   5.814582752655e+02 
8 1  4.286159879201e+02   6.481167968534e+02   2.867020955519e+01 
9 1  8.473689857569e+01   4.638870764076e+02   3.608943290718e+02 
10 1  4.691994049358e+02   1.044240607856e+02  -9.708166197303e+01 
11 1 -4.176357204476e+02   5.096305567502e+02   1.937605406872e+02 
12 1 -4.690961886906e+02   7.958393867431e+01   1.534426306395e+02 
12
 Atoms. Timestep: 9000
1 1  1.533046791314e+02  -4.084618451854e+02   4.889553683513e+02 
2 1 -3.123417765059e+02   2.493261234722e+02  -2.438684034998e+02 
3 1 -9.360707165237e+01   2.884258387006e+02   5.906601845784e+02 
4 1 -8.658325146857e+01   3.329868862084e+02  -1.518583839623e+02 
5 1  1.055241652109e+02   5.735494252741e+02   2.541441510749e+02 
6 1  3.137182116865e+02  -4.684249889918e+01  -4.629967657204e+01 
7 1 -2.441203952688e+02  -1.028267604585e+02  -4.590908441231e+02 
8 1 -6.184335879102e+01   5.670297987383e+01   2.094264193427e+02 
9 1 -6.467593499309e+02  -4.704135705508e+00   1.103357355416e+02 
10 1  8.237900732229e+01   1.433480495561e+02   1.179357487424e+02 
11 1  2.040718052856e+01   6.741347057730e+02   5.061398448857e+02 
12 1  3.886860507864e+02  -9.621375581783e-01  -6.257512527689e+02 
12
 Atoms. Timestep: 10000
1 1 -3.288253835999e+02   1.873823978155e+02  -1.563537577865e+00 
2 1  1.532344669386e+02  -1.699255868746e+02  -1.787099153181e+02 
3 1  1.580986169040e+02  -1.203685388882e+02   1.763835766648e+02 
4 1  3.019598595575e+02  -3.993509491294e+02  -3.606936855454e+02 
5 1 -6.447555310175e+02   5.357170053508e+02  -7.146196974984e+01 
6 1 -8.537848346261e+01   2.083129405628e+02   3.929421701908e+01 
7 1 -1.963202104449e+02   3.739190980127e+02   1.550328921176e+02 
8 1  1.607903709901e+02  -4.823108813379e+02  -3.567775212960e+02 
9 1 -5.330880235547e+02   1.144706634926e+02  -9.421898624970e+01 
10 1 -6.321927849057e+02   2.107504116068e+02  -7.859912970405e+02 
11 1  1.591951043459e+02   1.488854011242e+02  -1.701913797573e+02 
12 1 -2.157835254031e+02  -2.474294588137e+02  -1.999134445348e+02 
12
 Atoms. Timestep: 11000
1 1  4.269848242759e+02   2.366891998794e+02  -1.534607258786e+02 
2 1 -6.976195202172e+02   5.495120926103e+02  -1.887916361829e+02 
3 1 -2.980374630423e+02  -2.485301260289e+02   1.853238136318e+01 
4 1  4.821289115582e+02   1.336115803840e+02   1.363379188639e+02 
5 1  1.193315144103e+02   4.482259968323e+02  -6.776403929000e+01 
6 1 -3.277541045912e+02  -8.859720275516e+01   2.023373187123e+02 
7 1  2.615357200449e+02   3.447856046753e+01   2.277504721590e+02 
8 1 -7.009576078677e+01   2.381277464483e+02  -1.830323623953e+02 
9 1  1.586701023933e+02  -3.271203818661e+02  -9.925745961721e+01 
10 1  6.794681530110e+01   3.859642542248e+02   5.023890158775e+02 
11 1  2.563494895924e+02   4.182206760757e+02  -2.728815185929e+02 
12 1 -2.872229298567e+02   2.545662222361e+02  -3.835583094998e+02 
12
 Atoms. Timestep: 12000
1 1  1.240326556819e+00  -6.050818188901e+02   2.856356233641e+02 
2 1 -4.487862436919e+01  -5.824351018199e+02   2.643656761806e+02 
3 1 -2.231154633160e+02   1.139721682785e+02  -2.830122448007e+02 
4 1  3.317899087785e+01  -2.854024849144e+02   7.725892100387e+02 
5 1  1.596137877665e+02   4.048927332113e+02   6.408126340011e+01 
6 1 -6.648729260395e+01  -1.520623272251e+00   3.308716712343e+02 
7 1 -5.867520437895e+01   5.298824113490e+02  -3.005879805863e+02 
8 1 -1.997091075318e+02  -1.859330838580e+02   2.395494869170e+02 
9 1 -2.240672709063e+01   3.068210765455e+02   2.657083925410e+02 
10 1 -2.009120568961e+02   2.418041802958e+02  -1.479853974457e+02 
11 1 -1.543372223568e+02   1.825876242319e+02   3.108152303079e+02 
12 1  2.333839890376e+02  -3.130258902005e+02   2.859645407536e+02 
12
 Atoms. Timestep: 13000
1 1 -7.387526349183e+02   5.629098013141e+01  -2.923723274310e+02 
2 1  1.278580178990e+02   8.781114796255e+01   4.614932969196e+02 
3 1 -1.431381508325e+02   1.828200283370e+02   1.994842513235e+02 
4 1  4.013445268778e+02   8.643271211532e+01   1.186909392132e+02 
5 1 -2.458194567403e+02  -1.887526705312e+02  -4.192764612758e+02 
6 1  1.518316964758e+01   4.554589814062e+01   1.483990488623e+02 
7 1  4.007292793165e+02  -3.678704737078e+02   8.997206242042e+01 
8 1  8.484513309498e+01  -1.049940498885e+03  -4.425042034564e+02 
9 1 -6.511551221876e+02   5.761181577786e+02   3.274248837862e+02 
10 1  1.289389184015e+02   7.613744746696e+02  -5.002530373728e+01 
11 1 -1.287467991539e+02  -3.291685026677e+02  -2.253638873465e+02 
12 1 -3.451742597146e+01   2.803074754884e+02  -5.395048291757e+02 
12
 Atoms. Timestep: 14000
1 1  4.556594600846e+02   4.747544652544e+01   1.911356048026e+02 
2 1  3.287088926070e+02  -3.004614174771e+02   8.043210155356e+00 
3 1  2.598203811469e+02  -5.096370155574e+02   1.235380193459e+02 
4 1  1.401273416439e+02   6.446461697282e+01   6.587222554922e+00 
5 1 -5.905245000794e+01  -1.203507610051e+02  -4.313443036690e+02 
6 1 -1.416490412589e+02  -5.874865552646e+02  -2.908462061099e+02 
7 1 -7.563654760062e+01   2.485138292738e+01  -6.984585076052e+00 
8 1 -2.349291466078e+02  -1.477101598155e+02  -1.674198488995e+01 
9 1 -1.586671719872e+02  -2.716263047941e+02   5.308588566246e+02 
10 1 -1.941950229358e+01  -4.091358016628e+02  -2.271149064087e+02 
11 1  7.357441212143e+01   2.874419671915e+01  -1.618239165629e+02 
12 1  1.598820327622e+02  -2.774889111110e+02  -4.267559706136e+01 
12
 Atoms. Timestep: 15000
1 1  4.009718247487e+02  -3.190160931467e+02  -5.223379132030e+02 
2 1  4.260410904169e+02   1.989534995433e+02  -3.217625063556e+02 
3 1  3.493504600008e+02   8.593056897939e+01   4.211147546571e+01 
4 1  4.310559830990e+02   3.358335821678e+02   2.093572821111e+02 
5 1 -4.165503704241e+02   4.669948578228e+02   1.156206415284e+02 
6 1  1.140289407452e+02   2.580069480713e+02  -2.490359523742e+01 
7 1 -8.296774361787e+01  -6.394834701710e+02   1.400772912806e+02 
8 1 -4.321822758229e+02   9.246073092419e+02  -3.187158899929e+02 
9 1 -7.357712102678e+02   2.660532455834e+02  -2.009549021934e+02 
10 1  3.450479112767e+02  -2.984956954656e+02   2.229441143744e+02 
11 1  2.413750045002e+02  -6.867796465002e+01  -4.117894820153e+02 
12 1 -4.490904840319e+01  -2.078349163769e+02  -2.809423882963e+02 
12
 Atoms. Timestep: 16000
1 1 -5.550884642238e+01   6.209541321876e+02   4.238840470020e+02 
2 1 -6.214097203513e+01   1.689505357798e+02   4.625233728630e+01 
3 1 -4.141472964818e+02  -2.224761421986e+02  -2.371697467421e+02 
4 1 -1.906338833818e+02   1.434003184397e+02   2.163326809949e+02 
5 1  9.657012281109e+01  -1.731304464491e+02   1.587167551669e+02 
6 1 -6.965031753629e+01  -3.545807148446e+02  -1.530278316139e+01 
7 1  2.008413139644e+02   2.050177727079e+02   8.563723106712e+02 
8 1 -2.842378918621e+01  -3.607442716843e+02  -3.079363766576e+02 
9 1 -2.140241951179e+01   8.209246971195e+01  -4.325973159925e+02 
10 1 -2.769972378141e+02   5.769559608121e+01   3.437103463051e+02 
11 1 -1.749979924971e+02   2.788878857054e+02   1.350589403441e+02 
12 1 -4.892688879712e+02   2.864571477905e+02  -1.140767668141e+02 
12
 Atoms. Timestep: 17000
1 1 -2.037965796376e+02  -2.315024942697e+02  -8.509556168550e+01 
2 1  8.071993141406e+01   1.464647065134e+02   3.561721092640e+02 
3 1  1.891809046729e+02  -9.709539002032e+00  -2.065365938234e+02 
4 1  5.818790038808e+00  -3.042822087325e+02  -3.732879167359e+02 
5 1 -2.298974978657e+02   2.677159101361e+02  -2.419659139860e+02 
6 1 -6.450646107469e+01  -5.824517026320e+02  -3.601240586033e+02 
7 1  4.138196579343e+02   2.271091231302e+02   1.889127642433e+01 
8 1  1.004858377387e+02   1.751817426680e+02   1.538296281433e+02 
9 1 -2.546444596037e+02  -3.811988784343e+02   9.021097343413e+01 
10 1  1.923242391940e+02  -2.696457415449e+02  -2.801587296124e+02 
11 1 -5.096513527915e+02   3.397681280354e+02   1.528788283617e+02 
12 1  4.498781343463e+02   3.816163869074e+02  -9.436668539433e+01 
12
 Atoms. Timestep: 18000
1 1 -1.296539013781e+02   2.453776661834e+02  -3.765101255340e+02 
2 1 -6.359893781604e+02   7.277715908440e+01  -3.675481165392e+02 
3 1  1.805884637291e+02   3.313795651825e+01   7.601209164868e+00 
4 1  1.719557990453e+02  -7.790133281204e+01   2.481633664784e+02 
5 1  1.399465807985e+02  -4.465581625871e+00   4.197418794587e+02 
6 1  9.807677616161e+01   4.453225366414e+02  -1.122746104146e+02 
7 1 -1.193240369050e+02   2.983404538384e+02  -2.311985486187e+02 
8 1 -3.128249039268e+02  -1.895457380895e+02  -5.963564516487e+02 
9 1 -2.708884230693e+02  -3.331060894188e+02   9.615873134399e+01 
10 1 -8.694740310118e+01   5.148102225584e+02   2.360300876333e+02 
11 1 -6.638650836469e+00   3.641356562875e+02  -4.652169280956e+02 
12 1  4.115578284399e+01   3.425537573239e+02   5.905275863234e+02 
12
 Atoms. Timestep: 19000
1 1 -3.243830444465e+02   5.698359863144e+02  -9.829646803554e+01 
2 1 -4.898516233548e+02  -3.876597459818e+02   4.770607735815e+02 
3 1  6.737747933911e+00  -3.717172966626e+02  -4.150890936036e+02 
4 1  1.594167203252e+02  -7.196032682045e+02  -3.894499102725e+02 
5 1 -3.445476573273e+00  -3.087379805479e+02  -8.047350406237e+01 
6 1  1.724852955626e+02  -2.300192132925e+02   1.268938982794e+02 
7 1 -2.772364742878e+02   5.380138401054e+02  -6.296420191804e+01 
8 1  4.704454129081e+02   4.748448728320e+02  -1.408341530836e+02 
9 1  1.698911922374e+02  -1.663593825993e+01   1.466026247945e+02 
10 1 -9.103742700259e+01  -2.008980608912e+02  -6.683950876692e+01 
11 1  4.530965728847e+02   1.524705823150e+02  -4.535337139790e+02 
12 1  7.785612413999e+02  -3.961380116596e+02   2.643539246437e+02 
12
 Atoms. Timestep: 20000
1 1  1.491714261403e+02  -2.442384857864e+01  -4.765915586400e+01 
2 1  9.098465046718e+01  -8.813557465378e+01  -1.417052435620e+02 
3 1 -8.844085870477e+01  -2.665013267040e+02   7.599660663303e+01 
4 1  3.748483928672e+02  -5.688773246710e+01   2.692021166122e+02 
5 1 -9.387071040151e+00   3.743619439274e+02   1.860102517015e+02 
6 1  5.007885054188e+02  -1.612359389051e+00  -2.916466431955e+02 
7 1 -1.544140128100e+02  -2.223206849468e+02  -3.940819752367e+02 
8 1  6.945865312126e+02   5.771516932510e+02   7.977809185936e+02 
9 1  1.524988758264e+02   6.392787559301e+02  -7.908051759265e+02 
10 1 -1.564903482615e+02   6.806790483663e+01  -1.046584383392e+02 
11 1 -1.031318153253e+02  -8.247161426633e+01  -1.254805066089e+02 
12 1  3.903993450767e+02  -1.361091079814e+01   1.183992167595e+02 
12
 Atoms. Timestep: 21000
1 1  1.150432361767e+02   5.701587797041e+02  -1.503229150416e+02 
2 1  1.207187719557e+01   1.078786406113e+02  -4.522150930091e+02 
3 1  2.683540914355e+01   4.638304160791e+02   1.316760018400e+02 
4 1 -5.527559385554e+02  -3.889341842318e+02  -3.072118763560e+02 
5 1  1.827207443190e+02   1.407483289114e+02  -1.974463704961e+02 
6 1 -2.495089450968e+02   1.522614301959e+02  -1.290963300277e+02 
7 1  5.330047119564e+02   1.058234680519e+02  -3.622002514335e+02 
8 1 -3.014908098957e+02  -2.908509387345e+02   1.043711090027e+03 
9 1 -4.756603623252e+02  -2.227146084800e+02  -4.887602416300e+02 
10 1 -2.921201665237e+02   4.505566132742e+02  -1.978384901687e+02 
11 1 -2.921348995092e+02   3.596738397876e+02   6.755024485319e+02 
12 1  2.489080127270e+02   2.451336013559e+02  -1.583571463942e+02 
12
 Atoms. Timestep: 22000
1 1 -7.768387708819e+01  -3.382225934677e+02   3.539327496614e+02 
2 1  2.701425195179e+02   4.236934588090e+02  -2.312964855235e+02 
3 1  2.592169930929e+02  -4.071665318541e+02   2.054794463549e+02 
4 1 -3.099263363294e+02  -5.808385866777e+02   2.728131875742e+02 
5 1  2.187333200392e+02   3.693118988181e+02   2.855844957915e+02 
6 1 -1.101896693015e+02   4.586016558765e+02  -5.319200212276e+02 
7 1 -3.320560612595e+02   5.244137200557e+01  -1.766599579927e+02 
8 1 -3.016781373934e+02  -6.438129892717e+01   6.261432009765e+01 
9 1 -1.534904961512e+02  -1.659339311841e+02  -2.355315748435e+02 
10 1 -2.786794735740e+02  -2.344160981510e+02  -6.728440304794e+02 
11 1  2.726211369898e+02   1.244789539113e+02  -2.166245790347e+02 
12 1  1.454201756044e+02  -6.331615561790e+01   1.788690080532e+02 
12
 Atoms. Timestep: 23000
1 1  3.845983055410e+02   2.005834465889e+02   1.773629176905e+02 
2 1  2.891357663468e+02   4.400050114756e+01   1.313704565362e+02 
3 1  1.534908571726e+02  -4.491135446606e+01   7.201389747408e+01 
4 1 -9.492157219806e+01  -8.300413574721e+02   1.180472280161e+02 
5 1  2.261096184768e+02  -7.162523933313e+02   6.894433222771e+02 
6 1 -4.222018008700e+02  -7.226120599040e+01   9.299852867491e+01 
7 1 -5.842374340781e+02  -9.706774280733e+00  -2.961490282393e+01 
8 1  5.515472410445e+02  -1.310285048071e+02  -8.081228894152e+02 
9 1  5.359391267555e+02  -1.328308451588e+02  -7.520215818280e+02 
10 1  4.496954479044e+01  -6.338770112333e+02   2.068688042180e+02 
11 1 -5.600023505241e+02   1.740420275957e+02   6.498915254980e+02 
12 1 -4.856128508142e+02  -4.400471208197e+01  -5.803630100933e+01 
12
 Atoms. Timestep: 24000
1 1 -6.784540366213e+01   4.399691311883e+01   2.393740252811e+02 
2 1  4.004421361521e+02   3.432633443741e+01   1.972322412957e+02 
3 1 -1.106763519124e+02  -3.051763346105e+02   5.002033326352e+01 
4 1 -2.123549203945e+02  -4.706424490305e+02   3.971847301969e+02 
5 1 -1.150964720829e+02   4.535980370336e+01   5.202988546070e+02 
6 1  2.191424031674e+02  -9.894889629497e+01   3.969125669699e+01 
7 1  5.581381428344e+01   1.912415445873e+02   7.398029303813e+00 
8 1 -2.116009019874e+02   1.939843167824e+02  -2.213047294587e+02 
9 1 -2.960315301126e+02  -4.715785254393e+02  -1.124601877165e+02 
10 1 -1.853709262738e+02   1.406669321859e+02   1.463164806147e+02 
11 1 -9.780747524090e+01  -5.147517207361e+02   1.216988619273e+02 
12 1  6.125573568882e+02   2.711342638959e+02   1.107104753591e+01 
12
 Atoms. Timestep: 25000
1 1 -4.757617516110e+00  -7.460181525155e+01  -4.667113744904e+02 
2 1 -7.597149090305e+02  -6.780731027011e+02   2.492366405158e+02 
3 1 -6.157725035848e+01   4.848301248302e+02  -1.991235712653e+02 
4 1 -1.036211765788e+02   2.749944517666e+02   2.763760165198e+02 
5 1  3.990262441486e+01   1.844261685910e+02  -5.108054684521e+02 
6 1 -5.710956257429e+01  -6.816401890837e+02  -6.254590983558e+02 
7 1  1.061815882779e+03   2.804798246257e+02   4.614417829854e+02 
8 1 -1.237615233888e+02   6.088880669955e+02  -1.875994739005e+02 
9 1  1.778306345236e+02   2.609524997464e+02  -6.631377305168e+01 
10 1 -3.689531346741e+02  -2.655205662686e+02   2.830487603530e+02 
11 1 -1.464123389793e+02  -2.157815098448e+01   4.824844447494e+02 
12 1 -3.114627267230e+02   8.258593638359e+02  -4.426802862086e+02 
12
 Atoms. Timestep: 26000
1 1 -1.327970950668e+02   7.573425519156e+02  -7.398594660120e+02 
2 1 -3.143456101618e+02  -2.687124223620e+02   2.558617020072e+01 
3 1 -2.773117551785e+02   6.657970315237e+02  -2.363173470177e+02 
4 1  5.950406975310e+02   2.287536109224e+02  -1.700880730295e+02 
5 1  2.538698279587e+02   4.807820301835e+02  -2.228124832179e+02 
6 1 -3.005456274118e+02   1.186386889375e+02  -4.365995115821e+01 
7 1 -6.183456280752e+02  -1.263426070479e+02  -1.197659562006e+02 
8 1 -2.281116172884e+02  -1.975531674692e+02  -2.637470260962e+02 
9 1 -1.739351373972e+02  -5.631956587374e+01   3.734363095190e+02 
10 1  1.924281207374e+02   4.358250363583e+01   3.893267372996e+02 
11 1  5.613256166064e+02  -3.592037331139e+02   4.706385988453e+02 
12 1 -1.422980090137e+02   2.650953189710e+02  -2.938065292826e+02 
12
 Atoms. Timestep: 27000
1 1  3.293258897582e+00   1.628764522929e+01   8.664008853447e+01 
2 1  6.450979914102e+02   1.654638917697e+02  -1.040627148660e+02 
3 1 -3.441732926149e+02   4.299691079278e+02   4.757522129613e+02 
4 1  5.174935737118e+02   3.080604819363e+01  -2.440124855254e+02 
5 1  9.561434610324e+00  -2.615977393941e+02   2.552794601339e+02 
6 1  6.867145397756e+01  -4.042934309790e+01   1.565122799346e+02 
7 1  2.447321232797e+02   1.825136383988e+02   9.858133684285e+01 
8 1  3.317879205914e+02  -4.956521331826e+01   7.781717833238e+02 
9 1 -1.532740732335e+02  -1.306932058176e+02   2.693050622739e+02 
10 1  2.800664798326e+02   2.027625225452e+02   4.377279530368e+02 
11 1 -3.350546046875e+02   3.305322076688e+02  -4.145700336178e+02 
12 1 -1.044862318068e+02   5.371640810423e+01  -3.284900299147e+02 
12
 Atoms. Timestep: 28000
1 1  2.250474132353e+02  -2.160346504609e+02   3.133042013307e+02 
2 1 -9.418280144551e+01   2.635296789070e+01  -1.465228608455e+01 
3 1 -5.098421788461e+01  -1.376808791301e+02   4.283051850566e+02 
4 1  8.360755848721e+01   5.338471140385e+02   2.035914898227e+01 
5 1 -1.040413344518e+02   7.216500722151e+00   2.504923091303e+02 
6 1  2.999556995202e+02   1.490142907401e+02  -1.349545735882e+02 
7 1 -1.426840009372e+02   1.936166459253e+02  -5.160035657163e+02 
8 1 -8.080611688668e+02   2.857847568164e+01   2.584691150242e+02 
9 1  3.100129203317e+01   1.445903952476e+02  -4.571236407236e+02 
10 1 -1.797814747526e+01   2.797508808664e+02  -2.148792020201e+02 
11 1  1.169533614070e+02  -8.469429064072e+01  -3.418805359464e+01 
12 1 -1.072230584047e+02   1.285519549946e+02   2.833493569327e+02 
12
 Atoms. Timestep: 29000
1 1 -6.259696381888e+01  -1.702811882684e+01  -1.589353216177e+02 
2 1 -6.074444092398e+01   6.225192800450e+02   2.425660102081e+02 
3 1 -2.499344079174e+02  -4.408958942443e+02  -1.466153012851e+02 
4 1 -5.786388911700e+00  -2.723382383677e+02   1.469711032027e+02 
5 1  3.402093199763e+01   3.049857489271e+02   8.315162309963e+01 
6 1  3.049181094283e+02  -5.667310360692e+02   3.081324974064e+02 
7 1 -3.518231826271e+02  -1.589554017883e+02   1.827664330355e+02 
8 1 -7.665968800142e+02   4.785617940649e+01  -2.768348352940e+02 
9 1 -6.756625948890e+02   2.216116136018e+02  -3.915575695124e+01 
10 1 -6.019250550227e+01   3.939033456822e+02  -7.002088616983e+01 
11 1  4.089858982220e+02  -1.016981941449e+02   1.394617051180e+02 
12 1  1.329300219938e+02  -2.328805642616e+02   1.060813098007e+02 
12
 Atoms. Timestep: 30000
1 1 -6.441860601864e+02   1.871532851137e+02   5.503023142478e+02 
2 1  2.246197651537e+02   2.831704169738e+02   1.717177281338e+02 
3 1 -2.383935499727e+02  -2.716855917387e+02  -2.588292020198e+01 
4 1 -3.843863330477e+02   4.020733375455e+02  -3.654582390538e+02 
5 1 -3.459548565640e+01  -4.828585472914e+01   5.260585460801e+01 
6 1 -5.196352971934e+02  -1.034352251589e+02   1.361517653546e+02 
7 1  3.214672335219e+02   1.708165149189e+02  -3.594875535038e+02 
8 1 -4.699415934586e+02   6.536687506033e+01   1.130305969562e+02 
9 1 -2.405459738973e+02   2.142519110669e+02  -2.431191882507e+02 
10 1  2.504394877040e+02   2.328855257870e+02  -4.842061081587e+01 
11 1  1.462780940916e+02   2.115678602198e+01   2.081763270265e+02 
12 1 -5.117816824339e+02  -2.899883861190e+02  -9.281167056066e+02 
12
 Atoms. Timestep: 31000
1 1 -1.498801955484e+02  -4.379721729278e+02  -4.116808067932e+02 
2 1 -1.374955168937e+02   1.884355494236e+02   2.359445743834e+02 
3 1 -2.000042576075e+02   5.572819629099e+01  -2.734614160219e+01 
4 1  9.693535317054e+01  -5.627225964545e+02  -4.993103173421e+02 
5 1 -5.144139782134e+01  -2.448474419895e+02  -5.164134793701e+01 
6 1 -3.719034310385e+02   2.787815675709e+02  -1.629673018108e+02 
7 1 -2.338593237094e+02  -1.631789965698e+02  -5.811684831485e-01 
8 1  3.752300897054e+02  -4.058149565276e+02   1.024134358747e+02 
9 1  3.128665312460e+02  -2.688387969703e+02  -2.909707731681e+02 
10 1  6.559256571474e+01  -4.821651534749e+02   8.973316679681e+01 
11 1 -6.117512106814e+02   6.964272458089e+01  -3.675211044478e+01 
12 1 -7.405490114017e+02  -1.567272490052e+02   4.267108466378e+02 
12
 Atoms. Timestep: 32000
1 1 -1.662443912981e+02   2.971513576715e+02  -3.507315442675e+02 
2 1  3.097763696102e+02  -1.259611256531e+02   1.988603713249e+02 
3 1  3.787596065698e+02  -3.066250221947e+02   7.613163931698e+01 
4 1 -2.039277308153e+02   1.529861294589e+02   9.815172282932e+01 
5 1 -3.523619689103e+02  -5.128991671542e+02   4.342277544874e+02 
6 1  3.314315524213e+02  -2.573610639747e+01   3.741686739704e+02 
7 1  5.911895457550e+02  -3.628864154571e+02   2.993454844384e+01 
8 1 -4.306022096231e+02   1.068402950356e+02  -5.375492368761e+02 
9 1  5.889340616318e+02  -2.025813551317e+02   2.248066162542e+02 
10 1 -6.053819245727e+02   1.487288235080e+02  -4.369811898142e+02 
11 1  3.986082899354e+02   1.537809002527e+01   3.064165996447e+02 
12 1  4.743701190567e+01  -3.990512463990e+02  -9.168190055348e+01 
12
 Atoms. Timestep: 33000
1 1  9.729614450017e+01   1.876728527442e+02   6.723851488111e+01 
2 1 -2.327896932707e+02  -2.361334553753e+02   3.972676932735e+01 
3 1  2.168239684929e+02   4.391395414191e+02   3.787071736137e+02 
4 1 -3.650506902836e+02   5.656950485317e+01  -7.177638427102e+02 
5 1 -3.114540157658e+02   5.949004196966e+02   1.855623793688e+02 
6 1 -2.356906632376e+02   1.031670477827e+02  -2.225219571671e+02 
7 1 -9.991441445803e+01   1.404004300983e+02  -6.019281315897e+02 
8 1  3.604530242984e+02  -2.555786561448e+01  -2.283618180552e+02 
9 1  4.229308027560e+02   7.458360680140e+02  -6.142106353559e+01 
10 1  1.617923949018e+02  -1.072567890445e+02  -8.310995747694e+02 
11 1 -8.069756336812e+01  -4.238245680277e+01   5.004031660518e+01 
12 1  1.872015609256e-01   5.528564615372e+01  -1.189354437744e+02 
12
 Atoms. Timestep: 34000
1 1 -4.113476148004e+02  -4.434050319641e+02  -4.911694613462e+02 
2 1  4.859379740164e+02   5.795201757117e+02   2.966023650553e+02 
3 1  5.127879530377e+01  -2.524520073726e+02  -1.840440291513e+02 
4 1  1.205239637930e+02  -2.903912810190e+02   3.392696108773e+01 
5 1 -3.264449661494e+01   1.772592264061e+02  -6.890490913502e+01 
6 1 -2.446730808480e+02   1.355926683250e+02   2.419945705978e+00 
7 1 -1.810489127283e+02   6.393519640490e+02   2.083583274842e+02 
8 1  2.561065212856e+02  -4.239098057161e+02  -4.881583998041e+02 
9 1  1.872542182833e+02   6.962253333542e+01  -2.786811676068e+02 
10 1 -1.119625547976e+02   5.317655453378e+01  -8.661937346476e+00 
11 1  3.354773612317e+02   4.880564485096e+02   4.448459662016e+02 
12 1 -3.527350010594e+02  -1.670188251843e+02   2.170181200316e+02 
12
 Atoms. Timestep: 35000
1 1 -1.634789138562e+02   1.831971975940e+02   3.456052424783e+02 
2 1 -3.832165354217e+02   7.107355326019e+01   7.909389713646e+01 
3 1 -5.292298090922e+00   2.281864341722e+02   2.798226196109e+02 
4 1 -2.838571805768e+01  -8.576212804237e+01  -2.659569621920e+01 
5 1 -4.192492189900e+01   6.194879348397e+02  -1.202323843592e+02 
6 1 -1.115031408781e+02   3.096355522066e+02  -1.834729091102e+02 
7 1 -9.000202988912e+01  -3.287105546455e+02   1.197960113845e+02 
8 1 -5.709544499333e+01   2.175768386955e+02   2.202940921357e+01 
9 1  5.224479426607e+02  -3.640273594413e+01   3.204782679045e+02 
10 1  1.683529297080e+01  -6.724349785647e+01  -4.711540582635e+02 
11 1  1.692363120765e+02   3.674039475179e+01  -4.663241868378e+01 