12
 Atoms. Timestep: 0
1 1 -1.502685528509e+01  -5.079292449393e+02  -7.202569927779e+01 
2 1 -8.428904876950e+02  -7.053675470773e+02   4.506873550786e+02 
3 1 -4.374340692047e+02   3.729136559970e+02  -3.245260292515e+01 
4 1 -1.985676808899e-01  -6.045920471991e+01  -3.017697000780e+02 
5 1  2.127320985768e+02  -2.763501978920e+02   1.754920044787e+02 
6 1  5.765706371318e+02   2.017859094940e+01   1.962614589068e+02 
7 1  2.842344805118e+02  -3.927342483760e+02  -8.888111597825e+01 
8 1  1.653021977285e+02   6.926702711960e+02  -1.694251819216e+02 
9 1 -2.751377652431e+02   2.045866460225e+02  -2.271728769597e+01 
10 1 -8.990707690318e+00   6.121616209943e+01   4.124020974468e+02 
11 1  1.020090465249e+02   1.717975734692e+02  -1.087885683194e+02 
12 1 -2.540270096208e+02   8.012232130325e+01   5.112626169466e+02 
12
 Atoms. Timestep: 1000
1 1 -7.694399346085e+02  -1.632498736977e+02  -7.749928082850e+01 
2 1  1.711148466751e+02   2.790273583720e+02  -1.485011753192e+02 
3 1  3.944470044682e+02  -1.569913461635e+02   1.865590787036e+02 
4 1 -9.179127824855e+01  -2.756337486543e+01  -2.139680996780e+02 
5 1  5.564411401242e+02  -3.059483452355e+02   2.278445154233e+02 
6 1  4.216209458659e+02   1.526957445378e+02  -1.449562435749e+02 
7 1 -1.473985329295e+01  -1.963337592683e+02  -2.320575350464e+02 
8 1  2.854910892545e+02  -1.562623080418e+02   4.124558426847e+02 
9 1  1.056813480198e+02  -7.781697198352e+01   2.302559547118e+02 
10 1 -1.446016402355e+02   3.401096229764e+02   2.230816492699e+02 
11 1 -7.575763107395e+02  -2.403858395630e+02   5.061554144771e+02 
12 1 -1.529569226086e+02   2.448420997422e+02  -6.796065209703e+02 
12
 Atoms. Timestep: 2000
1 1 -9.423960013428e+01   5.596351258245e+01   1.024583099148e+02 
2 1  3.001733115434e+02  -4.684579712443e+02  -1.781801377657e+02 
3 1  4.416861495250e+02  -4.124425463378e+02  -5.186895447759e+02 
4 1  2.310774410630e+02   2.410900808204e+02   5.276255286552e+02 
5 1 -2.648608952409e+02   3.775341192867e+02   9.106511904920e+01 
6 1 -2.436664940217e+02   2.450947087481e+02  -1.530508731202e+02 
7 1  1.175607270263e+03   3.036936771986e+02   1.911970819816e+02 
8 1 -3.411258727051e+01   8.916920008539e+01   2.538120792069e+02 
9 1  4.093177868674e+02  -1.478783735175e+02  -1.864397084640e+02 
10 1 -4.091115379788e+01   3.254746751318e+01   4.432335200273e+01 
11 1 -1.512044758370e+02   3.281535796870e+01   3.275597465979e+02 
12 1  5.736590500220e+02   3.182594583630e+02  -2.574196163050e+02 
12
 Atoms. Timestep: 3000
1 1 -1.022932035525e+02  -2.332069606443e+02   3.843258367444e+02 
2 1  1.416972422380e+02   2.211148310068e+02  -4.991737305822e+01 
3 1  9.140092115407e+02  -2.273845579525e+02   3.591232732571e+02 
4 1  6.233302488719e+02  -4.035286898730e+01  -1.068325160996e+02 
5 1 -5.340774163467e+02   5.297563436470e+02   1.167515823975e+02 
6 1 -6.918463369830e+01  -3.968973337169e+02   2.310407084164e+01 
7 1  3.712943912073e+02   3.584927682184e+02  -1.259726391647e+02 
8 1  3.984367013704e+02   1.798923559222e+02  -1.802009179549e+02 
9 1 -1.376070592736e+02   4.554023782080e+01  -2.781808051093e+02 
10 1  2.588302115710e+02   2.412893685768e+02  -1.450453398967e+02 
11 1 -2.504645512022e+02  -1.745650534929e+02  -2.338251030416e+02 
12 1  1.601289619878e+02   7.941788978379e+01  -4.253364523712e+02 
12
 Atoms. Timestep: 4000
1 1  7.321424195189e+01   5.578337460729e+01  -1.848181469583e+01 
2 1  3.803022046304e+01   6.606303713992e+01  -3.680719841895e+02 
3 1 -8.586125629363e+02   3.981082881288e+02   4.061834840905e+02 
4 1  2.288537489259e+01  -1.636424571218e+02   5.843383867231e+02 
5 1  2.548034492819e+02  -3.315887155636e+02  -2.357325452480e+00 
6 1 -7.467100248100e+01   1.461936001523e+02   4.351246545811e+01 
7 1 -1.021415057567e+02  -3.698939840495e+01   9.518283718916e+01 
8 1 -1.491622032260e+02  -2.580707918744e+02  -1.809471651113e+02 
9 1 -4.067160745855e+02   1.969790899533e+02  -1.989975374147e+02 
10 1 -4.677839893022e+02  -2.142819943215e+02  -6.757990298932e+01 
11 1 -4.932758064784e+01  -2.871257351777e+02   8.016050658113e+02 
12 1  7.589643970854e+01   4.418946852597e+01  -2.601532285012e+02 
12
 Atoms. Timestep: 5000
1 1 -2.910824076216e+02  -7.696970560799e+02  -1.864416070542e+02 
2 1  4.991189911670e+02   3.663460762347e+02   1.409764379326e+02 
3 1 -2.007043205640e+02   4.542244112381e+02   1.434061702043e+02 
4 1  1.146277529809e+02  -4.075322323325e+02  -3.130153152996e+02 
5 1  4.415681438533e+02  -1.047494230323e+01  -2.030480385089e+02 
6 1 -5.399102515152e+02   4.750250296900e+01   1.376062810843e+02 
7 1 -2.592526443422e+01   2.102541351573e+02   1.252610471544e+02 
8 1  2.350174084369e+02   8.065427855467e+01  -9.587667463798e+02 
9 1 -2.487446040604e+02  -8.189372255485e+01  -6.148926415095e+01 
10 1 -4.059779896437e+02  -3.726932649533e+02  -5.364870232973e+01 
11 1  2.975538463552e+02   2.380673757562e+02  -3.275409137850e+02 
12 1  3.376107023721e+02   4.879727559786e+02  -1.918526697093e+02 
12
 Atoms. Timestep: 6000
1 1  2.347720155032e+02  -3.910784006390e+02   7.339765716668e+02 
2 1 -1.937733444282e+02  -5.560134455183e+01  -4.930257232084e+01 
3 1 -2.275066442791e+02   2.732221768166e+02   2.500598606635e+02 
4 1  4.102098999422e+02  -6.625293990423e+02  -1.322796237223e+02 
5 1  7.381362782000e+02  -1.507985274094e+01  -8.131104370739e+01 
6 1  1.219991882933e+02  -5.535165566519e+02   2.454174026872e+02 
7 1 -3.266387163990e+01  -4.163075829694e+02   1.328724943221e+02 
8 1 -3.688103530095e+02  -7.269057790584e+02   1.426346063594e+01 
9 1  4.317988444430e+02  -1.984059839738e+02   9.157908640321e+01 
10 1 -2.638231179834e+02   5.280978837955e+01   1.756124524861e+02 
11 1  6.209804587499e+02   5.765257221800e+02   1.728022905867e+01 
12 1 -9.750833725754e+01  -4.892949119591e+02  -7.515182129235e+02 
12
 Atoms. Timestep: 7000
1 1 -2.515550789570e+02   5.019120292490e+01  -3.940073756432e+02 
2 1  2.838348720457e+02  -5.559844707005e+02  -6.323747311593e+01 
3 1  7.548700800815e+01  -4.206162327111e+02   2.831841179527e+01 
4 1 -5.159720087695e+01   9.823258264083e+01  -4.217467208764e+02 
5 1 -5.998931282740e+02   1.774479573020e+02  -1.637626516876e+02 
6 1  8.068551351507e+02  -1.129537947410e+02  -2.457508229627e+02 
7 1 -6.454367357789e+02   3.077580001705e+02   3.501736585191e+02 
8 1  2.751193316814e+02  -5.504100353799e+02   3.547001638428e+00 
9 1  9.090101578670e+01  -5.198095968198e+02   8.850646184857e-01 
10 1 -6.252563552737e-01  -2.467554682195e+01  -2.925500277212e+02 
11 1 -3.905166703628e+02  -3.407071363008e+02  -4.494860969982e+02 
12 1  2.055603706235e+02   7.920320499459e+01  -2.919823780168e+02 
12
 Atoms. Timestep: 8000
1 1 -7.836226920033e+02   7.666378342753e+02   3.683887647211e+01 
2 1 -5.344841664644e+01  -1.548971320126e+01  -1.195368235900e+02 
3 1 -1.230791485046e+02  -2.157144239372e+02   3.621621804910e+02 
4 1 -6.822876749980e+01   4.232246201870e+02  -9.568941563813e+01 
5 1 -4.728758802495e+02  -1.471393770057e+02   7.749738368472e+01 
6 1 -2.167221766047e+02   4.455168940043e+02   3.941889835800e+01 
7 1  3.363819230346e+02  -3.221159374115e+02   1.377436800387e+02 
8 1  3.291621899639e+02  -2.055913205546e+02  -2.455284911090e+02 
9 1  1.772518001144e+02  -1.301099935513e+02   2.955921705238e+02 
10 1  2.871295840707e+02   3.480920887572e+01  -2.109586676412e+02 
11 1 -6.702554181900e+02   1.574711829816e+02  -2.016958123472e+02 
12 1 -2.247201302338e+01  -6.369311831598e+02  -1.845491665237e+01 
12
 Atoms. Timestep: 9000
1 1 -2.460249671443e+02  -1.097166223280e+02  -4.680554207758e+02 
2 1  5.072987303246e+02   3.267644926177e+02  -3.999561059946e+02 
3 1  2.471095668497e+02   1.579216895372e+02   1.391789904111e+02 
4 1 -1.687506448628e+02   3.259275235956e+02  -1.205518386311e+02 
5 1  1.223421304221e+02   4.775951961893e+02  -4.868827586166e+02 
6 1 -8.503882964732e+01   3.813387981999e+01   4.194847599641e+02 
7 1 -2.236410494060e+01  -6.447112306419e+01  -3.765337113035e+02 
8 1 -1.536149875775e+02  -7.338687159460e+02   6.193881789943e+02 
9 1  2.608554627443e+02  -7.110258632886e+01  -3.135790854416e+02 
10 1 -4.327212993669e+02   6.706804799831e+01  -1.424162659450e+02 
11 1  2.630432780007e+02   2.154207989298e+02  -2.006406390187e+02 
12 1 -1.000088873696e+03   6.085976196540e+02   3.648572055935e+01 
12
 Atoms. Timestep: 10000
1 1  4.576227131546e+02   6.658656897434e+02  -2.457224357382e+00 
2 1  2.815812719792e+02   2.046619493187e+02  -1.234815259207e+02 
3 1 -2.512494275210e+02   2.890003281630e+02   2.256276302957e+02 
4 1 -3.294834664937e+02  -1.036119603308e+02  -4.673767507684e+00 
5 1  1.043088996722e+02   2.930468156266e+02   1.031705170862e+03 
6 1  9.016324427510e+01   5.722120483868e+01  -5.656218171770e+02 
7 1 -4.514263067777e+02  -1.733542118085e+02   4.021840396484e+01 
8 1 -1.582573554628e+01  -6.849193590942e+01  -1.671136642798e+02 
9 1  2.539935331877e+02   5.072695140141e+02   4.542667777345e+02 
10 1  3.610820349237e+02  -6.040745814011e+02   3.416122851322e+02 
11 1 -1.426674789334e+02  -1.459425059255e+02   2.023298811649e+02 
12 1  2.896031923710e+02   2.471954443091e+02  -1.824719735306e+02 
12
 Atoms. Timestep: 11000
1 1 -9.771676855547e+01   1.419622212320e+02  -6.792024979499e+02 
2 1 -1.442711665414e+02  -6.732765774754e+01   2.522188316862e+02 
3 1  3.310119543646e+02  -2.490238813731e+01   9.237861674831e+01 
4 1  3.085728649225e+02  -1.893234644915e+02  -5.319586043973e+02 
5 1 -2.807279333194e+02   6.486332417285e+00   3.164525506167e+02 
6 1  5.467716479579e+01   2.252504987877e+01  -4.491919792439e+02 
7 1  2.165394449427e+02   1.804593290960e+02   8.947248211367e+01 
8 1  1.919269245785e+02   3.557375006479e+02  -9.237729454393e+01 
9 1 -5.007606564708e+02   7.755498436473e+01   4.979097050796e+02 
10 1  2.914149474173e+01  -4.743188116718e+01   6.226202939231e+01 
11 1  2.083651419478e+02  -4.282334948246e+02  -1.510966226474e+02 
12 1  1.267510613571e+02   9.861602909635e+01   5.798928878972e+01 
12
 Atoms. Timestep: 12000
1 1  5.211417869297e+02  -4.863923032085e+02  -2.885043909211e-01 
2 1  3.611941997270e+01   7.615413749639e+02   9.897980028717e+01 
3 1 -2.046057555468e+02  -3.585811205211e+01   8.258740964538e+01 
4 1  5.346783908248e+02   1.991172205219e+02  -6.290112789076e+02 
5 1  3.776070325374e+02  -5.989782841054e+02   1.974041944110e+01 
6 1  2.492246904836e+02   2.891169155838e+01  -6.543194386451e+02 
7 1  4.757199802724e+02   2.833260420540e+02   2.539965047566e+02 
8 1 -3.896381120834e+02  -2.857764755951e+02   1.852710681500e+02 
9 1  1.948663939001e+02   4.555014193508e+01   6.276004766511e+02 
10 1  3.238720289246e+02   1.624397646483e+02  -1.045736985940e+02 
11 1  9.454362068682e+01   7.473220921936e+02  -2.171169669813e+02 
12 1 -9.339812618391e+01   1.456905238876e+02  -2.432039421459e+02 
12
 Atoms. Timestep: 13000
1 1 -4.260926405680e+02   2.491727439472e+02   1.660683768377e+01 
2 1  7.184594654547e+01   7.073899064258e+02   1.174563403877e+02 
3 1 -3.472745018499e+02  -5.075043802394e+02   1.071927322316e+01 
4 1 -3.387530507306e+02  -2.412736137164e+02   5.511162007558e+01 
5 1 -4.657612646271e+02   3.599905561488e+02   2.813645429565e+02 
6 1  8.256091592648e+01  -2.694355795649e+02  -1.378759650171e+02 
7 1  8.086468040327e+01  -4.005892870146e+01   3.602314989410e+01 
8 1  3.489398455189e+02  -5.409660286053e+02   1.460164511831e+02 
9 1 -1.412898041566e+02   2.364850491464e+02   1.541108536322e+02 
10 1  1.440850975689e+02   2.559815995413e+02   6.394183272119e+02 
11 1 -1.815504819860e+02  -2.653388768169e+02  -1.262862975092e+02 
12 1 -1.874941364590e+02  -1.554634166931e+02   2.769192787586e+00 
12
 Atoms. Timestep: 14000
1 1  1.681698174121e+02  -3.121122153499e+02   9.810707533183e+01 
2 1  3.118139584694e+02   3.209148105714e+02   1.528827281779e+02 
3 1 -2.276664663090e+02  -2.179097027512e+02   1.250623164909e+02 
4 1 -3.072426803705e+02  -2.928350933558e+02   1.084371562565e+02 
5 1 -6.311594082475e+01   7.534452561577e+02   3.116347271482e+02 
6 1 -3.716897276480e+01   2.019417334375e+02   3.611605726201e+02 
7 1 -4.641100379228e+02   2.597117547011e+02   2.991550579257e+02 
8 1  7.015011135528e+02   4.140548488314e+02   3.101022622490e+02 
9 1  1.264527660713e+02   3.996159616124e+01  -4.419083030281e+02 
10 1 -3.820742822158e+02   2.530279168937e+02   5.460990110873e+02 
11 1 -1.277330235672e+02   7.302330704068e+00  -9.248225036565e+01 
12 1 -3.390951102438e+02  -1.356355121790e+02   4.576084606184e+02 
12
 Atoms. Timestep: 15000
1 1 -2.549778707119e+02  -3.375298136165e+01  -2.209381769830e+02 
2 1  8.008632891454e+02  -4.033366078063e+02   3.912956228344e+02 
3 1  1.001063887843e+02   4.862353526448e+02  -3.150000941153e+02 
4 1  1.436348327672e+01  -3.727874475848e+02   5.969706744778e+02 
5 1 -2.633353555009e+02   6.188835258492e+01  -3.155655241349e+02 
6 1 -5.806553213050e+01  -4.388804109152e+01   1.225480435521e+02 
7 1 -4.987632603965e+02   3.762920343945e+02  -1.415395048384e+02 
8 1 -4.140665461281e+02   2.384222530213e+02  -1.956434357970e+02 
9 1  1.375627817789e+02   1.393842151444e+02  -5.171627751465e+02 
10 1 -1.654492736238e+02   2.766293312927e+02   2.775587360117e+02 
11 1  3.967140590609e+00  -3.610929142990e+02  -2.104217917143e+02 
12 1  6.564396747908e+00  -5.668843811000e+02  -8.687513240202e+01 
12
 Atoms. Timestep: 16000
1 1 -1.483868521019e+02   5.399769668422e+01   3.194484568826e+02 
2 1  1.195116189384e+02  -3.988382466365e+01   6.425569322002e+01 
3 1 -6.607718627296e+01  -8.301579671607e+02  -6.323303024200e+02 
4 1  5.758101234198e+02   1.337471051767e+02  -1.626350535108e+02 
5 1  5.932319049640e+02  -4.376034760168e+02  -2.976495133800e+02 
6 1  2.609179731906e+02   3.318860458643e+01   8.524905018231e+01 
7 1 -5.948650247689e+02  -3.933182499914e+02   2.725632433452e+02 
8 1 -5.121681261807e+02   2.131760791163e+02   1.617496879946e+02 
9 1 -2.725510489143e+00   1.892908368257e+02  -1.518185385874e+02 
10 1  1.209969959052e+02  -1.004325299022e+01  -4.872593893740e+02 
11 1 -5.132430811979e+02  -2.024489764495e+02   3.123694452940e+02 
12 1  8.933196583134e+02   1.226375498695e+02  -3.199877329771e+01 
12
 Atoms. Timestep: 17000
1 1 -3.019231400481e+02   5.576141517447e+02  -2.848592200751e+02 
2 1  4.677376770377e+02  -3.038298682252e+02   3.121192303892e+02 
3 1  3.650715559744e+02   7.228851379001e+01  -3.229153074451e+02 
4 1 -2.107329223701e+02   6.371344386318e+01  -4.107759521167e+02 
5 1  4.122710644319e+01   4.006000240456e+01   4.732821633762e+02 
6 1  9.033554027698e+02  -3.987094004821e+02   3.379423300308e+02 
7 1 -1.006809990835e+02  -9.097861641415e+01   7.187647892698e+01 
8 1  7.609251334787e+01  -1.691987289326e+02  -3.394767354327e+02 
9 1 -2.279016485839e+02  -3.893411414194e+02   2.802884088337e+02 
10 1 -6.203452808641e+02  -3.778179368264e+02   3.171744135215e+02 
11 1  4.541215744505e+01  -4.407253318856e+02  -1.580238007926e+02 
12 1  3.296330519742e+02   2.234448310885e+02  -3.772382062420e+02 
12
 Atoms. Timestep: 18000
1 1  4.278574400051e+02  -6.594745008456e+01  -5.469691134024e+02 
2 1 -2.138748654419e+02  -2.754124195753e+00   4.441872775062e+01 
3 1  3.069953393553e+02   2.774422089467e+02   9.775608729201e+01 
4 1  5.551920523648e+01  -7.896958189096e+02   1.740811010936e+02 
5 1  3.598859192756e+02   1.452299264070e+02   2.955595537652e+02 
6 1  4.619175461769e+02   5.526244026838e+02  -1.809489140928e+02 
7 1 -1.329145218549e+01   9.182542680690e+02   4.324023939213e+02 
8 1  3.385707303235e+02   6.634943540733e+02   1.537790580184e+02 
9 1 -1.469609632761e+02   2.807312116764e+02  -1.641990735472e+02 
10 1  1.202164003802e+02  -2.585426194314e+02  -1.206230019738e+02 
11 1  1.805016692265e+00  -4.622806964382e+02  -1.151058740341e+02 
12 1  2.522795518654e+02   2.723776767456e+02   5.849177016643e+02 
12
 Atoms. Timestep: 19000
1 1  3.775813810019e+02   3.247212830322e+02   5.146898529768e+02 
2 1 -2.076725372648e+02   1.918134811349e+02   6.064181752454e+01 
3 1 -5.614079266194e+02  -6.462828699748e+01  -3.297151151216e+02 
4 1  9.355474670645e+01   3.008739261384e+02  -2.952909624924e+01 
5 1  2.206959343676e+02   4.102026252244e+02   8.484831933220e+02 
6 1  3.919176929810e+02  -1.881453257481e+02   2.410862898446e+01 
7 1  1.970575251765e+02  -8.239222863199e+02   2.408278727378e+02 
8 1 -1.054051644847e+02   6.269814428958e+02  -5.227938521277e+02 
9 1  1.212605021624e+02  -3.770707114974e+02  -5.309802734628e+02 
10 1  3.366204095963e+02   3.903576992764e+02   9.241974053630e+01 
11 1 -1.075695974340e+02   3.290170647490e+01   9.352970395413e+02 
12 1  2.525880860659e+02  -2.630208779428e+02   1.624792372113e+02 
12
 Atoms. Timestep: 20000
1 1  3.959027489602e+02   1.370714667585e+02   2.977251956253e+02 
2 1  4.295719142369e+02   4.788723099122e+02   1.434800969204e+02 
3 1  7.832613514476e+02   1.967794827636e+02  -2.222119109086e+00 
4 1  3.890501133564e+01  -1.485572173151e+02  -4.006493874490e+02 
5 1 -3.285417525279e+02  -6.063057961358e+02  -4.542946381638e+02 
6 1  9.729761269389e+01   6.560671894988e+02  -2.301543844422e+02 
7 1  9.622185935574e+01  -3.832654857611e+02   4.427931286022e+02 
8 1  1.006704841807e+02   1.317022692091e+02  -1.717604432288e+02 
9 1 -2.594641785227e+02   5.097315305565e+01   2.127319196103e+02 
10 1  3.846357461175e+01   2.461331737166e+02  -2.840996448602e+02 
11 1  5.648378847534e+02  -8.019728210878e+01  -6.126380329649e+00 
12 1  1.092526163974e+02  -5.881101970467e+01   5.741537209893e+02 
12
 Atoms. Timestep: 21000
1 1  3.461415850053e+02   3.800906159621e+01  -1.693044530322e+02 
2 1 -1.411957211097e+02  -1.954460165714e+02  -7.950866665221e+01 
3 1  2.928048388204e+02   4.232130149104e+02   3.832495685423e+02 
4 1  3.001266333196e+02   2.758710241936e+02   3.130377005571e+02 
5 1 -1.383486148892e+02  -2.668159518728e+02   6.878538919312e+01 
6 1 -3.869721808022e+01  -3.873888091793e+02  -9.568137539114e+01 
7 1  5.710592582286e+01  -2.190359286314e+02   8.448232014380e+00 
8 1 -2.653383014205e+02   6.451828457071e+01  -3.877564370095e+02 
9 1 -3.388647916693e+01  -6.344378415029e+02  -4.293468752778e+01 
10 1  2.440919462275e+02  -2.729159053235e+01  -6.982585621601e+02 
11 1 -2.828250874097e+02  -1.209924641312e+02  -5.798000926346e+02 
12 1  1.160999719698e+02   2.852628783427e+01   2.422911788849e+02 
12
 Atoms. Timestep: 22000
1 1  3.857899622833e+02  -3.813670324746e+02   3.108144897554e+02 
2 1  4.140828779222e+01  -2.185761778257e+02  -3.591697580909e+02 
3 1 -2.389007900718e+01   3.486547437898e+01  -4.854610944338e+02 
4 1  1.846886624134e+01   1.195369440972e+01   1.864979019048e+02 
5 1 -1.149585750859e+02  -2.139974810256e+02  -1.474237496457e+02 
6 1 -2.090814024991e+01  -4.676961596405e+02   4.222401253875e+02 
7 1  5.319294668923e+02  -1.462922697208e+01  -4.285342014436e+02 
8 1 -2.631814290114e+02   1.519322625043e+02   2.432151233035e+02 
9 1 -3.443105845670e+00   1.597054742628e+02   1.898378014244e+02 
10 1  5.989391048499e+01   3.177358618709e+02  -4.296643445307e+02 
11 1  5.420019614367e+02   2.892545175606e+02  -2.432018618185e+02 
12 1  2.516171193777e+02   3.980090099155e+02  -8.944027509395e+01 
12
 Atoms. Timestep: 23000
1 1  5.669831205396e+02   1.653790715371e+02   2.834732535531e+02 
2 1 -4.226859238892e+02  -6.374795430565e+01   3.252865362616e+02 
3 1  7.887436320985e+01   1.066324494223e+02   4.459112755888e+01 
4 1  2.086205975871e+02  -6.098987795406e+02  -4.044226576097e+02 
5 1 -4.993756637814e+02   2.107504385832e+02  -5.626143764308e+02 
6 1 -1.179858351958e+02   2.061879678835e+02  -1.677403395524e+02 
7 1 -3.793199475952e+02  -1.748608423088e+02   5.453754669984e+02 
8 1 -4.198878313367e+02  -3.037146995510e+02  -5.735393905795e+02 
9 1  2.355603186923e+02  -2.467863386428e+02  -2.924561504687e+02 
10 1 -4.561605757679e+02  -6.759534147049e+02  -4.570066839006e+02 
11 1  9.534143204190e+00  -1.707021775143e+02  -4.164104554766e+02 
12 1 -5.812009246129e+01  -5.791029795773e+01   4.467405281935e+02 
12
 Atoms. Timestep: 24000
1 1 -4.812680656459e+02   7.686137512521e+01  -4.481330884628e+02 
2 1 -4.462447665969e+02   5.414152757998e+02   1.021122620487e+02 
3 1  1.157197419080e+02  -1.381179765950e+02   7.510553407267e+01 
4 1 -7.094121543370e+02   6.999442162044e+02  -2.085843764132e+02 
5 1 -1.144139217152e+02  -3.923025504893e+02   4.831088934845e+02 
6 1  1.119611111659e+02  -7.959829460198e+01   1.295198287685e+02 
7 1  6.164358508505e+02  -4.438269638181e+01   1.415538729318e+00 
8 1 -1.350318583376e+01   2.499966529900e+02  -7.199567037999e+02 
9 1  1.413629271022e+02   7.828869198740e+02  -5.043964381756e+02 
10 1  8.921226406325e+01   9.409226098405e+01   9.141631054590e+00 
11 1  3.223737649439e+02   1.732130765578e+01  -4.897068102153e+01 
12 1  2.892562238464e+02  -1.845309710009e+02  -1.201411154237e+02 
12
 Atoms. Timestep: 25000
1 1 -1.427068139182e+02   1.753214234411e+02  -5.972141427995e+02 
2 1  4.526685207224e+02  -6.651799037025e+01   5.313420527093e+02 
3 1 -1.098441480125e+03   1.299789145565e+02   3.664179312855e+02 
4 1  3.982820367316e+01   2.678646402182e+02  -6.618611760649e+02 
5 1 -2.444372688299e+02  -3.724444163617e+02   8.340400137909e+01 
6 1 -3.956791793426e+02  -3.182985500008e+02  -8.002822135902e+01 
7 1  3.682376724633e+01   3.314212090823e+02   2.610368021249e+02 
8 1 -3.743444951573e+01  -1.292036799538e+01  -9.476209540302e+01 
9 1 -4.012218249611e+01  -3.149001646201e+02  -1.003665404414e+03 
10 1 -2.116685734266e+02   1.247091050515e+02  -2.111357720414e+02 
11 1  3.327924443471e+02   8.677726220020e+01   5.496131428805e+02 
12 1 -3.769495052285e+02   8.442771855423e+00  -2.377456588320e+02 
12
 Atoms. Timestep: 26000
1 1 -3.989587041194e+02  -3.030615941248e+02   3.766584452864e+01 
2 1  1.169084995578e+02   6.615964337486e+01  -1.587669662232e+02 
3 1 -8.248595199970e+00   3.693380558100e+02   3.332357021774e+02 
4 1  6.064340175648e+02   5.709974320467e+01   3.630122551683e+02 
5 1 -8.638566297827e+01   3.551869518932e+02  -9.079571056792e+01 
6 1  3.183838809255e+02  -3.346046785431e+02  -2.080646000836e+02 
7 1  2.797332217014e+02   3.266197633250e+01  -2.158372251618e+02 
8 1  6.188579410821e+02   2.384992260824e+02   3.334543652202e+02 
9 1  1.129489283172e+02   6.570059622262e+01  -4.535040976047e+01 
10 1 -6.328003148826e+01  -3.391792645945e+02  -2.734985530512e+02 
11 1  7.059847574809e+02  -3.198913337453e+01  -5.152826112709e+02 
12 1 -1.982052910449e+02   2.127662682915e+02   4.829349190931e+02 
12
 Atoms. Timestep: 27000
1 1 -1.819662801176e+02  -1.246028230860e+02   2.936318796183e+02 
2 1  4.074526639378e+02  -4.462533101699e+02  -3.892149440654e+02 
3 1  2.319240951481e+02  -4.684635759495e+01   5.331181077908e+02 
4 1 -2.954564731796e+02  -4.432139197713e+02  -3.349684308048e+02 
5 1 -2.550804431466e+02  -1.483345965485e+02   2.462114850767e+01 
6 1  5.295229915450e+01   1.729441018578e+02  -3.678295828052e+02 
7 1  5.239860113397e+02   2.176695352398e+02  -1.771032967668e+02 
8 1  4.891918899869e+02  -7.656666623265e+00  -2.484040843145e+02 
9 1 -2.939143165714e+02   7.172477036524e+02  -1.170447133080e+02 
10 1 -2.303251332076e+02  -4.857621359980e+02   3.639664423811e+01 
11 1  1.757631437856e+02  -5.684920053382e+02   1.466712771768e+02 
12 1 -1.004729677178e+01  -1.088208645976e+02  -1.801353487780e+02 
12
 Atoms. Timestep: 28000
1 1  3.551397021536e+02  -4.635790832392e+02   1.146447928937e+02 
2 1  9.888152966081e+01  -3.136841795518e+02   3.438131257962e+02 
3 1 -4.640238694454e+02  -1.868185129164e+02  -1.711829950324e+02 
4 1 -2.600572978269e+02  -2.452584665814e+02   7.913015317927e+02 
5 1 -6.950342769236e+02  -1.995097208803e+01   2.317833838519e+02 
6 1 -1.927007599593e+02   3.684966352280e+02   1.312603903113e+02 
7 1 -4.135581436388e+02   2.942012684114e+02  -2.897897246737e+02 
8 1  3.629400414446e+02   5.711815132019e+02  -2.860216850808e+02 
9 1 -7.754909104786e+01   2.252679005721e+02  -5.992894581527e+01 
10 1 -6.222858755155e+00   1.161663123817e+02  -5.219475606560e+02 
11 1 -6.238113590357e+02   3.160758330230e+02   4.557001020371e+02 
12 1  1.209952489510e+02   2.754914291013e+02  -1.565930680794e+02 
12
 Atoms. Timestep: 29000
1 1 -7.334521512661e+01   6.384731581965e+01   4.996801665019e+01 
2 1 -1.870827906392e+02  -5.684845012853e+02   1.335147961902e+02 
3 1 -4.370967979977e+02   1.117492678879e+02   3.020578596376e+02 
4 1  4.945038718143e+02   1.505370355305e+02  -1.552466327201e+02 
5 1  2.445971649352e+02   2.034366927217e+02  -7.792183024528e+01 
6 1  2.289653456260e+02  -2.389513619240e+02   7.818722770958e+02 
7 1 -5.615355947243e+01   2.211798354670e+02  -1.539388389751e+02 
8 1  5.161124962318e+02  -4.871637570847e+02   5.292324530172e+01 
9 1 -5.555719291725e+02   2.901979631074e+01  -3.541662333911e+02 
10 1 -2.432574498818e+00  -5.520010492275e+01   2.504227415360e+02 
11 1 -2.114089763919e+02  -6.210517324818e+02  -5.634212726421e+01 
12 1 -1.538191953194e+02  -6.877286362308e+02   7.409993530918e+02 
12
 Atoms. Timestep: 30000
1 1 -6.450122728318e+02   6.970095712556e+02  -6.933259613658e+01 
2 1  2.525860436749e+02  -5.232227958723e+02   3.410898147745e+02 
3 1  2.695210185756e+01   4.609508428425e+01   7.046759788870e+02 
4 1  1.054628812245e+02   5.129102057479e+02   3.458447435346e+02 
5 1  3.680615989176e+01  -3.109664752398e+02  -1.139361711480e+02 
6 1  2.939906370876e+02  -3.335943325845e+02  -8.183545176405e+02 
7 1  3.643423169219e+02   8.183899384027e+02  -5.143903911303e+01 
8 1  7.421873326540e+00   2.457350130785e+02   1.991367613275e+02 
9 1 -7.476818844531e+00   7.804664716542e+01   2.751043420800e+02 
10 1  1.767311729854e+00   3.934696411728e+02   3.211691400923e+02 
11 1 -2.886226671247e+01   1.767306805623e+02  -1.274989691633e+02 
12 1 -3.206098566548e+02  -3.672857211076e+02   3.506567998035e+01 
12
 Atoms. Timestep: 31000
1 1  3.684905187481e+01  -2.912540207558e+02  -1.379120366840e+02 
2 1 -1.917092879672e+02  -1.291105078352e+02   2.897863674794e+02 
3 1 -5.750940177495e+01   8.976785303359e+01   6.266170369677e+02 
4 1  9.029036335951e+01  -4.973925267236e+02   1.191812310623e+02 
5 1  2.545027555587e+02  -7.951037216239e+01   1.201769325317e+02 
6 1  7.293029315798e+02   2.253614323993e+02   3.038520572875e+02 
7 1 -1.503959591494e+02   1.457225917234e+02   1.760280894300e+02 
8 1 -1.079656440494e+02   3.819576771761e+01  -2.074715542702e+02 
9 1  4.585530773984e+01  -1.190922783251e+02  -2.270951688345e+02 
10 1  4.954862241542e+01   9.726204944596e+01  -2.381278220109e+02 
11 1 -4.286690631874e+02   3.554006995763e+02  -4.532084700182e+02 
12 1  4.892503591561e+01   4.586656288060e+02   7.776020590930e+02 
12
 Atoms. Timestep: 32000
1 1 -4.536996388412e+02  -9.453493606755e+01  -1.082182936599e+02 
2 1  3.950720971564e+02   1.387563664236e+02  -2.562995834647e+02 
3 1  1.319492149056e+02   1.193007283952e+02  -9.965554286167e+01 
4 1  5.382534240211e+02   1.839685119584e+02  -1.915372921513e+01 
5 1  5.429835294455e+02  -9.280403983761e+01   2.494424675779e+02 
6 1  7.151360864189e+01   5.054365151983e+02  -1.740642009457e+02 
7 1  1.810425505186e+02  -5.688935772391e+02   4.127740845444e+02 
8 1  6.746105856176e+01  -1.364772540176e+02  -3.214940127646e+02 
9 1  1.038911327633e+02   3.459529666034e+02   3.079921393214e+02 
10 1 -5.624415578429e+02   8.500666797153e+01   2.232049532184e+02 
11 1  2.058182629967e+02   4.314959877025e+02   2.642593073648e+02 
12 1 -4.459597403142e+02  -2.406495586498e+02  -1.084788874894e+01 
12
 Atoms. Timestep: 33000
1 1  6.018805380962e+02   2.759292182919e+02  -1.842119603013e+01 
2 1  3.698828022535e+02  -2.892354548264e+02  -3.636344208569e+02 
3 1 -5.262180656178e+02  -1.649244507753e+01   6.528118667731e+02 
4 1 -9.111783785913e-01  -1.097207344652e+02  -4.107266714400e+02 
5 1  2.375647421310e+02  -1.018216750242e+02   1.463807237454e+02 
6 1  3.458885253149e+02  -1.320928947970e+02   2.483768454817e+02 
7 1  2.348523321089e+02   4.342718974405e+01  -8.265859122086e+01 
8 1 -1.058598858074e+02   2.766281086747e+02   1.341350937987e+02 
9 1  2.501627328570e+02   2.451744882939e+02  -3.039228569865e+01 
10 1 -4.244624419183e+02  -2.775153228553e+02  -2.067869010357e+02 
11 1  2.618860941583e+02  -2.930486973761e+02   1.569866978359e+02 
12 1  2.240168275687e+01  -1.090365717767e+02   2.290663215088e+01 
12
 Atoms. Timestep: 34000
1 1  5.602771798740e+02  -3.356728198891e+02  -9.104273385253e+00 
2 1  6.711075234285e+02   1.393306663329e+02  -2.328498965366e+02 
3 1 -5.138190587264e+01  -4.249726746549e+02   6.296499531813e+02 
4 1 -4.256109039506e+02  -7.912090007079e+02   3.859293957994e+02 
5 1 -1.993858644695e+02   1.643739829918e+02  -4.286843325444e+01 
6 1  6.368838722365e+01  -1.543740920136e+02   1.459537621590e+02 
7 1  5.720267529411e+02   9.232851810180e+01  -6.370439417090e+02 
8 1 -5.846353233629e+02  -2.218603710984e+02  -3.674067944184e+02 
9 1  3.479506825448e+01  -1.721245272962e+02  -4.810707706532e+00 
10 1 -6.196084708290e+00   6.649902591735e+01  -5.920758017161e+02 
11 1 -3.648496092995e+02   6.121600987848e+02  -6.773543870129e+00 
12 1 -1.817285671163e+02   4.830335821784e+02   4.739987276730e+02 
12
 Atoms. Timestep: 35000
1 1  1.583001741415e+02   6.231861929461e+01   5.106974796574e+02 
2 1 -3.903016360805e+02   3.072684826547e+02   3.087745538927e+02 
3 1  2.055117287325e+02   1.119583290663e+01  -3.637362472998e+02 
4 1  9.576293274653e+01  -1.462213633881e-01  -4.113676886617e+01 
5 1 -3.714866508096e+01   1.731130968707e+02  -4.966149178619e+02 
6 1  1.136995495330e+02  -6.214015448410e+01   1.129219157902e+02 
7 1 -3.076819080843e+02  -2.375402970393e+02  -1.136584200394e+02 
8 1  7.061607185490e+01   3.895061597793e+02   2.589838450853e+02 
9 1 -7.484160096502e+02   1.231114563762e+01   1.430309824217e+02 
10 1  1.578579883603e+02  -6.690590581132e+02  -1.198076461999e+02 
11 1 -2.457231804143e+02   2.015616593266e+01   2.982566976065e+00 