12
 Atoms. Timestep: 0
1 1  6.033415998078e+02  -3.780312794946e+02   2.377506437082e+02 
2 1 -8.542764790484e+02   4.383155572195e+01  -1.823346967037e+02 
3 1 -2.123335670342e+01   3.665383584188e+02   1.119987804028e+02 
4 1  7.459329935833e+01   4.943602404315e+01  -1.506034571499e+02 
5 1  1.572546006916e+02   5.337841510441e+01  -3.944808253504e+02 
6 1 -1.131711625197e+02   1.960454471285e+02  -3.157756283958e+02 
7 1  1.024240725046e+02   5.740837308191e+02   7.345842374792e+01 
8 1  9.978422143306e+01  -4.686457955988e+02  -1.973516221970e+02 
9 1  3.851215540312e+02  -3.331829732355e+02   1.557682308140e+02 
10 1 -1.738019286885e+02  -1.717671494757e+02   2.813753958242e+01 
11 1  1.242413476222e+02  -1.210119027495e+01   3.093110947947e+01 
12 1  7.737411821676e+00  -1.279273305229e+02   6.201917067022e+02 
12
 Atoms. Timestep: 1000
1 1  4.186432859324e+02  -3.960168017553e+02   3.165074960747e+02 
2 1 -5.551843412076e+02  -6.467783783632e+02   1.004994337558e+03 
3 1 -7.519873258511e+01   2.630089003022e+02   3.104241885944e+02 
4 1  3.253973370289e+02   1.097335074089e+02  -1.442129529150e+02 
5 1  1.769365928077e+01   1.675951219320e+02  -3.156189445210e+02 
6 1  2.976061938602e+02  -3.979812916599e+02   3.936625967212e+02 
7 1 -3.593311053470e+02   3.603853677779e+01   1.455159801315e+01 
8 1  4.101999677850e+02   1.218202093275e+02   7.732763850141e+01 
9 1  8.558172257604e+02  -2.430220920932e+02   4.340110292415e+02 
10 1 -1.441025903916e+02  -9.722681969812e+01   8.739863459656e+01 
11 1 -1.510868093610e+02  -2.136759993178e+02  -1.774857239740e+02 
12 1  1.153116434916e+02  -5.896277938553e+02   5.844231617116e+02 
12
 Atoms. Timestep: 2000
1 1 -1.042636846481e+02   3.898031297151e+02  -6.020312664284e+02 
2 1  6.532971876948e+01  -6.612559436024e+02   4.759572546220e+02 
3 1  4.897747151490e+02  -5.340228841104e+02  -3.805683378763e+02 
4 1 -3.977350955515e+02  -3.594548112876e+02  -2.550419696900e+02 
5 1 -6.693494294080e+02  -5.646025116128e+01   6.423941412624e+01 
6 1  5.731296594969e+01   1.956985894366e+02   3.082814836173e+02 
7 1  5.029065585606e+02  -1.361883320242e+02   3.087472487762e+02 
8 1 -1.480548811976e+02   2.004609243955e+02   2.610764734627e+02 
9 1  9.896974471175e+02  -9.129646808054e+01   3.239021931649e+02 
10 1  3.150555436408e+02  -2.396416550176e+02  -1.273666835956e+02 
11 1  2.086654777057e+02   2.284270293781e+02   2.526120781660e+01 
12 1 -5.252295520076e+00  -2.011069138423e+02  -5.331520742269e+02 
12
 Atoms. Timestep: 3000
1 1  3.811241361911e+02  -3.561390727458e+02   1.109032610187e+01 
2 1  3.467356289592e+02  -2.241166881497e+02  -1.955706043661e+02 
3 1 -2.321800773400e+02   2.992982272389e+01   5.983542303791e+02 
4 1 -1.779284904165e+02   2.057872766251e+02   1.566841719258e+02 
5 1 -3.140658205090e+02   8.820217930971e+01   1.231113542149e+02 
6 1 -2.695670511986e+02  -3.079053068760e+02   1.805630267941e+02 
7 1  6.852655346149e+02   2.676549106575e+02  -6.647984958220e+02 
8 1  6.956152023963e+02  -7.981281362001e+01   5.129972948788e+02 
9 1 -1.647778967036e+02  -2.149822582822e+02  -4.303644365639e+02 
10 1 -3.692638918400e+02  -4.925383181395e+02   2.213187059295e+02 
11 1 -1.710384321326e+02  -4.480216339659e+02  -3.216581784463e+01 
12 1 -2.530075596561e+02  -3.354230285982e+02   5.908753280056e+02 
12
 Atoms. Timestep: 4000
1 1 -4.314335943072e+02   4.980468931289e+02   3.360063450121e+02 
2 1 -5.656779907144e+02   4.932350378432e+02  -3.034933925646e+02 
3 1  1.558914691334e+02   3.715225034084e+02  -1.928217514430e+02 
4 1  7.036991120159e+01   4.887588607789e+02   6.202350366666e+01 
5 1  1.585819813514e+02  -1.710098091413e+02   1.472042279963e+02 
6 1  3.843724676846e+01  -8.991013985803e+01   2.570412135316e+02 
7 1  1.420539561622e+02  -1.112168945013e+02   4.086876172491e+02 
8 1 -3.267948082949e+02  -5.964367474863e+02   3.701445652093e+02 
9 1  2.237139616920e+02   3.199929873488e+02   4.454224823484e+02 
10 1  2.868567422540e+02  -2.915134680358e+02   2.423404111653e+02 
11 1  1.809202409555e+02   2.725701290859e+01   7.170482881730e+01 
12 1  4.107089253476e+02   2.419828731165e+02  -3.606080456667e+02 
12
 Atoms. Timestep: 5000
1 1  9.260818589271e+01   4.819344860871e+02  -2.690243464780e+02 
2 1  8.277498270064e+01  -5.430122174709e+02  -4.083988681903e+02 
3 1 -1.610039218227e+01  -5.246585241025e+02  -1.567854772717e+02 
4 1  2.639723449795e+02  -2.944027819436e+02   6.066729101547e+02 
5 1  1.758305390282e+02  -3.456971474257e+02   9.898788504166e+01 
6 1  2.857703403985e+02  -1.566345120793e+02  -1.509896296419e+02 
7 1  3.971761879396e+02   9.309786244345e+02  -4.360324715368e+02 
8 1 -5.643190283478e+01   4.900591934026e+02   3.815441303244e+02 
9 1 -2.997837839228e+01  -1.308553884217e+02  -1.159410597003e+02 
10 1  8.425822049448e+02   1.090976348296e+02   2.143395886004e+02 
11 1 -3.191826563335e+02  -3.610298815147e+01   1.877578501835e+02 
12 1 -3.868148999456e+02  -4.244944407128e+01  -3.066618022088e+02 
12
 Atoms. Timestep: 6000
1 1 -2.865692908189e+02  -1.522476751064e+02   7.777432908780e+00 
2 1  1.839891740850e+01   1.964555042222e+02   2.714053516356e+02 
3 1 -3.694939764298e+02   4.968986449460e+01   1.459571937900e+02 
4 1 -2.289608002221e+01  -6.576740207769e+01  -1.819661107324e+01 
5 1 -2.303382608758e+02   3.138556962295e+02   2.055744347447e+02 
6 1  9.108838480444e+02  -6.370567329388e+01   5.372158740507e+01 
7 1 -4.721778391302e+01   5.014557154545e+02   1.360423445381e+02 
8 1  1.555497924488e+02  -2.191019909443e+00   4.325521513192e+02 
9 1 -2.574054295951e+02  -3.786298005862e+02   1.596663076786e+02 
10 1 -2.543387035246e+02   3.270215652243e+02  -4.503920180645e+02 
11 1  2.899706808040e+02   3.793579756841e+02   4.461159385909e+02 
12 1 -3.479142077309e+02  -2.321070123444e+02   2.857492800264e+02 
12
 Atoms. Timestep: 7000
1 1  1.429317227093e+02  -4.787541072598e+02  -1.512702811133e+02 
2 1  4.992627430170e+02  -5.717198961143e+02  -1.098926334696e+02 
3 1  3.843234823498e+02  -9.743063176603e+01  -1.585172308899e+02 
4 1 -6.163478237634e+01   1.324242869022e+02  -4.480630044158e+01 
5 1  1.260209760910e+02   8.448245590637e+01   2.373538653316e+02 
6 1 -4.985444841074e+02  -2.375827187526e+02  -9.775271300823e+01 
7 1  8.489251344848e+02  -9.741244919879e+01  -4.768451268012e+02 
8 1 -3.006108688337e+02  -4.797449796533e+02   3.070199128573e+02 
9 1  1.611110284105e+01  -2.349173898169e+02   7.032069546232e+02 
10 1  2.115856256824e+02  -3.323401564909e+02  -1.925586110317e+02 
11 1 -4.846755957958e+02   1.783081237229e+02  -4.189834942270e+02 
12 1 -6.992994643603e+01   1.826348939739e+02  -5.136115414225e+02 
12
 Atoms. Timestep: 8000
1 1  1.168940112676e+02   2.072575275501e+01   3.246512925471e+02 
2 1  1.446650903845e+02  -2.228848194435e+02  -2.437100544898e+02 
3 1 -2.335405400352e+02   4.223764297143e+02   3.092304770816e+02 
4 1 -5.945539991074e+01   1.960398525524e+02   2.979165320147e+02 
5 1 -1.050731608149e+02   3.694042086222e+02  -3.432568374731e+02 
6 1  3.677836086619e+02  -4.386910226753e+01  -2.999277830866e+02 
7 1  2.467155961193e+02   1.045686509728e+03   5.360486162822e+01 
8 1 -1.647502851364e+02  -1.113384322026e+02   3.211712749728e+02 
9 1 -2.754007049223e+02  -2.049154538136e+02   1.062067474303e+02 
10 1 -6.924039793354e+01   8.084337125808e+01  -7.797844576318e+01 
11 1 -2.679711308355e+02   1.398661881893e+02   3.265968957508e+02 
12 1  2.163780948111e+02  -9.094314794276e+01  -1.960500954689e+02 
12
 Atoms. Timestep: 9000
1 1  1.708674621650e+02  -1.567097906115e+02  -8.800748648786e+01 
2 1 -1.842369986755e+02   2.439652036207e+02  -1.311184775339e+02 
3 1 -4.442656184852e+02  -6.581714257078e+01   6.860039592133e+02 
4 1 -4.217594703229e+02  -6.865168016131e+01   1.224627516626e+02 
5 1 -9.684788806458e+01   7.963438409409e+01   4.049260359540e+02 
6 1  3.189871480979e+02  -6.604961912254e+01  -1.466202513710e+02 
7 1  2.118509537662e+02  -1.024339065146e+02  -6.438528174061e+02 
8 1  1.026749465356e+02  -8.089983685438e+01   1.666294048841e+02 
9 1 -3.308403971432e+02  -1.032868408327e+02  -5.576100309396e+01 
10 1 -2.866216136219e+02  -1.412945316896e+02  -1.422287812319e+02 
11 1 -2.582643301837e+02   3.052754562270e+01   9.936856936838e+01 
12 1 -2.621080413195e+02  -1.476032374267e+02   2.848803707211e+02 
12
 Atoms. Timestep: 10000
1 1  4.989416556931e+02  -9.218143817684e+02  -3.242815665988e+02 
2 1 -4.005731783618e+02   1.869993499925e+02   1.215527102099e+02 
3 1  5.924361178945e+02   5.093803010691e+02   9.103206999306e+01 
4 1 -2.147708634605e+00   1.245131136205e+02   1.852982798159e+02 
5 1  6.767495608298e-01  -8.544653035535e+02  -4.434611558555e+02 
6 1 -1.546890321750e+02   1.893365235116e+02   2.530226765197e+02 
7 1  1.774709818032e+02  -1.590338566008e+02   3.717655125039e+01 
8 1  2.057585542220e+02   2.183515347630e+02   3.126520788796e+02 
9 1 -3.691128403215e+02   5.508972690797e+02   2.854409373956e+02 
10 1  1.082461281735e+02  -1.860795616694e+01  -1.853808475465e+02 
11 1 -3.350618771025e+02  -1.176829265261e+02   7.962617016325e+01 
12 1  5.247068445970e+02  -2.241680832195e+02   6.208545351219e+02 
12
 Atoms. Timestep: 11000
1 1  3.766121872282e+02   3.597108286704e+02  -2.605262028740e+02 
2 1 -1.157554819244e+02   1.130548933980e+02  -2.202874620480e+02 
3 1  1.540359541670e+02   1.030805029972e+01  -2.068077574573e+02 
4 1 -8.470082973939e+02   3.893017944186e+02  -1.997751544149e+02 
5 1  2.614773350012e+02   8.868962215687e+02  -3.056269501203e+02 
6 1 -5.506345837396e+01   3.686544102930e+02   6.137272865420e+01 
7 1 -1.295580909766e+02   1.360089599447e+02  -5.569604536500e+02 
8 1  2.704273107936e+01   1.362418091289e+02  -1.103881103560e+02 
9 1 -1.976687697190e+02  -1.976021532357e+02  -4.905176177018e+02 
10 1 -7.163063295507e+01  -1.652140023606e+02  -1.247739277305e+02 
11 1 -1.481046952672e+02  -4.926701421072e+01   3.468103030571e+02 
12 1 -2.036329723124e+02   2.876027800412e+02   1.879527524481e+02 
12
 Atoms. Timestep: 12000
1 1 -1.688622733875e+02  -1.102784781182e+02   2.664533911078e+02 
2 1 -1.295077919076e+02   1.854257852051e+02  -8.383923852154e+01 
3 1 -1.264263407684e+02   3.820919670803e+01   3.467460825004e+02 
4 1  7.369248580142e+02  -2.084616750502e+02   6.049925862586e+02 
5 1  1.783047209838e+01   2.277575285073e+02   2.532708499584e+02 
6 1 -4.445720967680e+01   1.716785587627e+02  -8.257085740414e+01 
7 1 -2.621537449913e+01  -1.016482984769e+03  -1.080114361041e+02 
8 1 -3.266307827026e+02  -1.205816421071e+02  -9.121430042738e+01 
9 1 -4.799220358559e+02   4.831884499635e+02  -1.549404144084e+02 
10 1 -3.502373220097e+02  -5.722113415759e+02   5.047566352114e+01 
11 1 -4.442462229296e+01  -6.418707481239e+02   1.586272672839e+02 
12 1 -5.313499675793e+01   5.025718199340e+02  -2.563455394809e+02 
12
 Atoms. Timestep: 13000
1 1  1.916561587906e+02   4.989600157523e+02   4.352832223803e+02 
2 1  1.817488697324e+02  -2.610334194359e+02  -2.584611427901e+02 
3 1 -2.697594746378e+02   2.394764468722e+02  -6.687116091772e+01 
4 1 -3.797734101877e+02  -1.894740218468e+02   6.630336385282e-01 
5 1 -1.246609481401e+02  -8.575508877688e+01   2.242247356571e+02 
6 1 -2.946154273699e+02   3.664904218343e+02  -1.555517703719e+02 
7 1 -7.976030269380e-01   2.255381979071e+02  -2.969908987991e+02 
8 1  5.894314209751e+01  -2.655975642305e+02  -1.895173875945e+02 
9 1  4.122126810894e+02  -1.079588249916e+02  -2.025271672730e+02 
10 1  1.255183444935e+01  -1.863775099856e+02  -1.842710954124e+02 
11 1 -1.197248539274e+02   1.123119597011e+02  -4.476329108385e+02 
12 1  6.340840975957e+02   3.466710296131e+01  -2.293780035942e+02 
12
 Atoms. Timestep: 14000
1 1  2.163180287577e+02  -6.275129119071e+02  -3.760166362472e+01 
2 1 -1.424874588581e+02   3.263770479750e+02  -7.675483848500e+01 
3 1  4.692749775594e+02  -6.970900849815e+02  -1.634708251803e+02 
4 1 -1.214134015740e+02   1.204522919206e+02   1.123831537324e+02 
5 1  4.219939122465e+02  -4.379083711060e+01   3.186616683214e+02 
6 1  1.930395037385e+02  -2.501125973483e+02   3.996545039922e+02 
7 1 -7.362154618159e+01   4.948436244936e+02   4.869729482146e+01 
8 1  4.630469773900e+02   5.066172121112e+02   2.084686196533e+02 
9 1  1.324857695495e+02  -3.410469020937e+02   8.912624473954e+01 
10 1  1.288504792563e+01  -4.381350226644e+02  -3.169086752146e+01 
11 1 -3.990147744514e+01   3.247610505426e+02   6.495123296309e+02 
12 1  4.806936823904e+01   5.138032880272e+02   2.086983929524e+01 
12
 Atoms. Timestep: 15000
1 1 -2.550273775455e+02   4.498735144862e+02   1.364509472130e+02 
2 1 -3.420953306544e+01   3.816708171868e+02  -3.597577920927e+02 
3 1  2.311925730921e+02   2.131178786410e+02  -7.475507087153e-01 
4 1  3.658675474506e+02   4.156726580898e+02   2.880933025655e+02 
5 1  2.634686497285e+02   4.450871733075e+02   2.735514173239e+02 
6 1 -9.013775881710e+01  -3.350584248293e+02   3.425352568197e+02 
7 1 -3.073170828529e+01  -8.862573339780e+02  -3.309477925450e+02 
8 1  7.890019007505e+01   4.606223316724e+02   3.719845737212e+02 
9 1 -6.008219953938e+00  -8.016318675507e+02   4.568014857633e+02 
10 1  4.099530839115e+01  -2.852669615897e+02  -2.740801654077e+02 
11 1 -7.341265571770e+02  -1.480555175303e+02   7.569857394759e+00 
12 1  2.778328323718e+02  -1.720775642862e+02   5.925176632268e+02 
12
 Atoms. Timestep: 16000
1 1  3.185024856414e+02  -4.211608899002e+01  -3.302649218823e+02 
2 1 -4.128737447600e+01  -3.195646382682e+02   1.277817716312e+02 
3 1  4.327788836355e+01   2.755475914561e+02   1.856162935249e+02 
4 1  2.414721292054e+02  -3.539825381047e+02  -2.896115761971e+02 
5 1 -5.588270146184e+02   1.537682215601e+02  -7.085782968525e+00 
6 1  4.796899570435e+02   3.924473209638e+02   4.984740974195e+02 
7 1 -2.729687205217e+02   2.171114393863e+02  -1.219466651795e+02 
8 1 -9.372357606283e+02   4.807379086565e+01   1.809802526783e+01 
9 1 -9.761469440358e+01  -1.924018535885e+01   4.259336376416e+02 
10 1  1.857956614502e+01   4.000610173266e+02  -5.570300856033e+02 
11 1  1.720611729478e+02   5.420714493508e+02  -2.557419532337e+02 
12 1 -2.871160200742e+02  -4.327725493445e+01  -8.908866512503e+01 
12
 Atoms. Timestep: 17000
1 1  2.608884240530e+02   7.850577180838e+01   6.869829522368e+02 
2 1 -2.613095410672e+01  -1.861284922345e+02   4.736083040407e+02 
3 1  5.046500786958e+01   1.053403843771e+02  -1.921593024260e+02 
4 1 -1.035540106213e+02  -3.047763133468e+01   3.028243149168e+02 
5 1 -3.114736136020e+02   3.387209930093e+01   3.205658816276e+01 
6 1 -4.053064825906e+02   5.438238712053e+02  -3.137703587494e+02 
7 1  2.309649084045e+01  -2.327804830939e+02   1.291690046211e+02 
8 1  5.634931999674e+01  -2.918973898764e+02   1.287942397283e+02 
9 1  9.095609607386e+01   9.287399065992e+01  -1.129506549370e+02 
10 1  1.624608232827e+00   4.583826284664e+01   5.958586751084e+02 
11 1  3.998366934607e+02   3.992504915496e+02   1.824420706012e+02 
12 1  1.824951607606e+02   4.516052978339e+02  -3.037923889266e+02 
12
 Atoms. Timestep: 18000
1 1  9.263993948491e+01   5.060867758119e+02   3.945574831657e+00 
2 1  3.158908300570e+02   4.191716619220e+01  -2.999876909062e+02 
3 1  8.033061181160e+01  -1.345077912358e+02  -3.896531231670e+02 
4 1 -6.853235841987e+01   2.738477549656e+02  -1.165520878218e+02 
5 1  3.447169559742e+02  -4.087670513579e+02  -5.025505880798e+02 
6 1  2.453555009231e+01   1.081805674979e+02  -6.514314082235e+01 
7 1  2.944882185287e+02  -5.206203641139e+02   1.619131930449e+00 
8 1  2.633158814455e+02  -3.751050929092e+02  -2.771119037749e+01 
9 1 -7.575223543258e+01   3.291733144432e+02  -1.937870270622e+01 
10 1  1.999163804264e+02  -1.320074774465e+02   5.720515201447e+01 
11 1  9.207752324584e+01   1.514972979710e+02  -2.418513010709e+02 
12 1  5.673508071648e+01  -1.774755633989e+02  -3.021638705518e+02 
12
 Atoms. Timestep: 19000
1 1  3.073136444891e+01   3.972864917300e+02  -5.551023831919e+02 
2 1 -1.934671623476e+02   1.015094513180e+02   5.483664629853e+01 
3 1  2.900643370027e+01  -3.417544932866e+02  -3.352996205986e+02 
4 1 -1.387757840140e+02   2.440857281218e+02  -2.370554120570e+01 
5 1 -1.064904698374e+02  -2.116875652141e+02   3.481725461495e+02 
6 1  1.635781305014e+01  -1.965644100356e+01   3.324765695488e+02 
7 1 -5.759796858440e+02   7.338611702945e+01  -3.599154135238e+02 
8 1  2.232333034594e+01   2.212562793682e+02  -2.292502047578e+01 
9 1  9.293751241321e+01   2.824158744569e+02  -2.883607781316e+02 
10 1  1.068503650338e+02  -1.320874522604e+02   1.404385534477e+02 
11 1 -3.886848228910e+02  -4.981440850112e+01  -1.535221914412e+02 
12 1 -4.558410491175e+01   7.003742308372e+02  -1.220818771036e+02 
12
 Atoms. Timestep: 20000
1 1  1.272378126691e+01  -4.115522627539e+01  -1.410908873624e+01 
2 1  3.519822903279e+01   3.087737309291e+02   4.596645172583e+01 
3 1 -2.642765530016e+02   2.133632366671e+01  -6.635568588342e+01 
4 1 -7.279176510358e+01  -1.723313395899e+02   1.952652152443e+02 
5 1 -1.267470211350e+02   4.534531691810e+02  -1.854584115648e+02 
6 1  1.696739914516e+02  -9.764047757284e+02   2.066870702298e+02 
7 1  2.974375191878e+02  -2.119675930990e+02  -2.549417000258e+02 
8 1  1.970138333537e+02  -7.060469895554e+01   5.577941888048e+02 
9 1  2.177876130632e+02  -3.794612886460e+02   1.915165899337e+02 
10 1  5.437117674015e+01  -2.344951999665e+01  -1.031879987561e+02 
11 1  1.186778690613e+02   5.533676074452e+01  -2.629159313592e+02 
12 1 -1.265180512799e+02  -9.804181504641e+02   7.552617371138e+01 
12
 Atoms. Timestep: 21000
1 1 -4.601855234583e+01   2.565700268325e+02   7.177470808180e+01 
2 1 -6.803034129382e+02   2.083606414869e+02  -3.872012246905e+02 
3 1  3.891095213579e+02  -4.334148639631e+02  -1.299919012574e+02 
4 1 -6.520684211338e+02  -2.050638376760e+01  -2.777562203325e+02 
5 1 -2.352533228549e+01  -2.975537423064e+02  -4.062382533098e+01 
6 1 -2.482937745688e+01  -2.414448589226e+01  -1.869658632026e+01 
7 1 -4.267639702418e+02  -3.702038438125e+02  -3.803258476526e+02 
8 1  6.190981767112e+00  -4.312355309865e+02   1.922613610862e+02 
9 1 -1.549935233897e+02  -2.682322930304e+02   4.621045790686e+02 
10 1 -5.990192982482e+01  -4.047652507098e+02  -9.202828974176e+01 
11 1  2.562428720054e+01   8.652054599933e+01   6.283838288496e+01 
12 1 -4.012020564560e+02   4.961120402024e+02  -1.825277975818e+02 
12
 Atoms. Timestep: 22000
1 1 -7.412793045475e+02  -4.152251825622e+02  -4.384114227138e+02 
2 1  6.850926333399e+02   7.025509517515e+02  -1.689703617394e+02 
3 1  1.833987833565e+02   4.952335867152e+02   2.779273923067e+02 
4 1  3.012068994099e+02  -2.968121721287e+01  -4.961410593799e+02 
5 1  2.364254497072e+02  -9.919963958327e+01  -2.012075237624e+02 
6 1 -4.220351109214e+02  -1.441376194561e+02  -3.221484355380e+02 
7 1 -2.076803816080e+02   2.727298750790e+02   4.061283425127e+02 
8 1  2.976935747809e+02   2.795262398116e+02  -2.313884011430e+02 
9 1 -6.605799042639e+02   4.945813821824e+02   1.527684371875e+02 
10 1  2.014790811355e+02   1.130961842043e+02   3.490869680507e+02 
11 1  5.215153314983e+02  -4.880303389806e+02   4.745593959661e+02 
12 1  2.314862022459e+02   1.947682147126e+02  -1.156587226077e+02 
12
 Atoms. Timestep: 23000
1 1 -8.228128963004e+01   9.654224053501e+01  -3.465425649209e+02 
2 1 -7.366809017493e+02  -1.502149586116e+01  -2.530447427402e+02 
3 1  1.848258794547e+02   1.612467250565e+02  -6.898471673554e+01 
4 1 -3.359913072206e+02   1.376573761492e+02  -1.700937594606e+02 
5 1  3.597634626889e+02  -5.583452947433e+02   1.139868581726e+02 
6 1 -2.684548451578e+02  -4.138650898621e+01  -2.785862876120e+02 
7 1  7.777561468765e+01   6.658469004697e+01  -4.670577531692e+02 
8 1  1.653796244670e+02   5.647062390136e+02   2.951180339451e+02 
9 1 -2.467202246006e+02   1.823526314607e+02  -6.746270143531e+02 
10 1  1.316149193896e+02   1.832657209186e+02   4.797650676912e+02 
11 1 -4.558775915551e+02   2.729905276923e+02   2.731589590183e+02 
12 1  4.667777817618e+02  -1.286979809483e+02  -2.181753093356e+02 
12
 Atoms. Timestep: 24000
1 1  1.922501372987e+02   6.499971220451e+01   1.491296323919e+02 
2 1 -1.517703299921e+02   1.706609704539e+02  -1.169002040899e+02 
3 1  5.645434829456e+02   8.876452999916e+01  -1.463364241075e+02 
4 1 -6.986771357069e+01   3.833691813501e+02  -9.219231671664e+01 
5 1 -2.556484414837e+02   2.393762389132e+01  -1.506874303320e+02 
6 1 -4.888375933236e+02  -2.102665791496e+02   3.807223217514e+01 
7 1 -6.637509623220e+02  -1.337861652425e+02  -1.037108108565e+02 
8 1  1.061119607188e+02  -1.793450009043e+01   2.514679083351e+02 
9 1 -4.254050785446e+01  -1.647083274559e+02  -8.532842469211e+01 
10 1 -3.646231622528e+02   3.926342090615e+02   5.771107417685e+01 
11 1 -2.634387291229e+01  -3.510165197024e+02   1.074429634110e+02 
12 1 -2.323313757010e+02   1.155933626157e+00   2.948245055123e+01 
12
 Atoms. Timestep: 25000
1 1 -1.994693188300e+02   1.191479299830e+02   2.453431825360e+02 
2 1  1.661962642462e+02   3.845855791294e+02   4.001622511044e+02 
3 1 -4.437358536582e+01  -1.662701322921e+02  -6.473451463240e+00 
4 1  3.239866103774e+01  -5.482996954015e+00  -6.817239702700e+02 
5 1  4.516940365306e+02  -7.676602783978e+01   2.036422417345e+02 
6 1 -5.032588059505e+02   7.582350175908e+01   2.933137373040e+02 
7 1  9.069370865547e+01  -5.067455451800e+01  -1.602834438826e+01 
8 1  5.183607794687e+02  -6.143216358947e+02  -7.148596113448e+02 
9 1 -6.382095741740e+01   4.262423551238e+02  -1.918064718765e+02 
10 1  6.560389776340e+01  -2.159536655809e+02  -9.342943581752e+01 
11 1  1.812848298314e+01   1.217914502491e+02  -8.421069411227e+01 
12 1 -3.994983896311e+02   5.176370922881e+02  -2.180208641992e+02 
12
 Atoms. Timestep: 26000
1 1 -1.562707610718e+01  -1.984211945225e+02  -6.685783416301e+02 
2 1  5.366830195583e+01  -2.088477672707e+02  -2.689102609703e+02 
3 1  4.913828053692e+02   2.183633820809e+02  -7.363260140110e+01 
4 1 -1.677793625392e+01   6.278036038873e+02   3.821294735671e+01 
5 1  3.923603294026e+02  -4.379138154676e+01   6.013064387832e+02 
6 1  1.285909129024e+02   1.302585694367e+02  -3.208500931890e+02 
7 1 -2.567563060597e+02  -8.223128156153e+01  -2.894057359580e+02 
8 1  5.740259311070e+01  -6.773667774755e+00   1.393888419652e+02 
9 1  1.574806328058e+02  -8.967044067018e+01   2.014257356529e+02 
10 1  3.780103426465e+01  -6.471849988797e+02   1.517115393545e+02 
11 1  2.064580142839e+02  -1.787000366184e+02  -1.321115512699e+02 
12 1 -3.855407369232e+02   2.735340960149e+02  -2.598177882918e+02 
12
 Atoms. Timestep: 27000
1 1 -1.894032700133e+02   1.849395601894e+02   7.496444309656e+02 
2 1 -6.226449749138e+02  -3.726466257717e+01  -5.020104814081e+02 
3 1 -5.832394589699e+01   2.339000311043e+02   2.510952550088e+01 
4 1  2.126757242956e+02   9.413186795113e+01   1.513888144184e+02 
5 1  3.174502555713e+02  -6.327806243359e+01   2.959265204719e+01 
6 1 -7.522158706029e+02   2.003549388211e+02  -1.055652116273e+02 
7 1  2.648153774230e+02   4.129328841263e+02   4.390841726968e+02 
8 1 -4.337236619124e+02   2.357597528100e+01   2.204027491474e+02 
9 1  1.734988804476e+02  -1.120371832926e+02  -1.583503297153e+02 
10 1  3.864593846050e+02  -6.023234075021e+01  -2.238503160082e+02 
11 1  5.114621436106e+02   2.842435173818e+02  -1.920998889124e+02 
12 1 -1.029827051164e+02   6.804035688099e+01  -2.634246107594e+01 
12
 Atoms. Timestep: 28000
1 1 -3.872927962608e+02  -7.444616077221e+01  -6.758891823664e+02 
2 1 -3.887676978634e+02  -1.782700380975e+02  -1.108910921319e+02 
3 1  7.308493014867e+01  -6.291836693729e+02   3.277738909276e+02 
4 1 -1.638524656352e+02  -1.381908067610e+02   1.382007424833e+02 
5 1  3.105842690216e+02  -7.623401565037e+01   1.870891271614e+02 
6 1  1.479758870567e+02   5.348715421342e+02   8.094558531831e+01 
7 1 -3.061083871031e+02   1.247358909514e+01  -1.013838064322e+01 
8 1 -2.657576242800e+02   9.088174415394e+01   2.949431159792e+02 
9 1  9.224016414667e+02  -3.958041146942e+02   9.492985150800e+01 
10 1 -2.068998170182e+02   1.574000741417e+01   2.302636575096e+02 
11 1  1.447412298990e+01   1.537845533539e+02   8.807832007955e+01 
12 1  1.782023253428e+02  -2.251710597721e+02   1.187830361734e+01 
12
 Atoms. Timestep: 29000
1 1  4.531118358680e+02   2.286147416665e+02  -3.992753551590e+02 
2 1 -2.863032694960e+02  -3.211525231664e+02  -9.211654543315e+00 
3 1 -2.235661264599e+01  -3.126886603597e+02  -1.379012522400e+02 
4 1  6.257676214525e+02   3.468132634011e+02  -2.269699534127e+02 
5 1 -2.824211182186e+02   6.423139618536e+02   5.174253246091e+02 
6 1  2.075727920913e+02  -7.878182910454e+02  -1.714112215495e+01 
7 1 -3.297283215720e+01  -6.619685072998e+02   3.604808286489e+02 
8 1  2.829554978741e+02  -8.470250585627e+02   3.442001391021e+02 
9 1  5.933830978981e+01  -5.221760019162e+01   2.146603880085e+02 
10 1  1.516940104924e+02   3.031316304759e+02   4.393849191581e+02 
11 1 -2.235834880219e+02  -3.897480086773e+02  -7.239270739269e+02 
12 1 -4.265366651573e+02  -6.334428109274e+02   3.953706544906e+02 
12
 Atoms. Timestep: 30000
1 1  1.822850440144e+02   2.250366235873e+02  -9.165090584712e+01 
2 1 -1.623978865908e+02  -5.849021538908e+02   1.380972822693e+02 
3 1  1.046225236883e+02  -1.934015976908e+02  -2.354092597965e+02 
4 1  7.147620348503e+01   1.476832203938e+01   1.296575139688e+02 
5 1 -3.213377429242e+02  -8.195975391805e+01  -1.489711093600e+02 
6 1  2.722012036075e+02  -8.709331626256e+01  -1.526259617285e+02 
7 1  8.342973846234e+01  -1.727668340473e+02   3.944437276297e+02 
8 1  9.416597272449e+01   3.219048720423e+02  -2.898708665982e+02 
9 1 -2.541411345730e+02  -4.074239281564e+02  -1.927295222474e+02 
10 1 -1.785681644199e+02   9.556042971432e+01  -4.997815809240e+02 
11 1 -1.820599196380e+02  -3.191138630903e+01  -7.287442180363e+02 
12 1 -2.428497795283e+01  -2.248034092669e+02  -1.281437915220e+02 
12
 Atoms. Timestep: 31000
1 1  3.294246002605e+02  -4.735280552062e+02   7.519743857698e+00 
2 1  1.107602453932e+02   2.342709641039e+02   5.878643169044e+02 
3 1 -8.298149867031e+02   1.544649379108e+02  -1.578348405217e+02 
4 1 -3.575109307894e+02  -3.209698953968e+02  -9.519462367706e+01 
5 1  1.512005436129e+02  -5.962775800383e+02  -1.488561917760e+02 
6 1  3.039036151261e+02  -3.028775544608e+02  -4.797864131282e+02 
7 1 -3.299318305129e+02  -2.086355407363e+02   4.834499612751e+02 
8 1  1.682738756591e+02   2.844801532528e+02  -2.378398384519e+02 
9 1  2.184136429879e+02  -2.815610696115e+02   1.358212626898e+02 
10 1  3.767205387291e+01   1.459739196006e+02   1.423767924750e+02 
11 1  1.246184051284e+01   2.763237781653e+02   5.970444553261e+02 
12 1  1.928988971700e+02  -3.263936806575e+02  -1.144952233137e+02 
12
 Atoms. Timestep: 32000
1 1 -7.184747005963e+01  -6.643765449785e+01  -9.157978388489e+01 
2 1 -1.227036611692e+02  -7.679253688752e+01   4.182842678916e+02 
3 1  7.523674872396e+01  -1.633588154939e+02  -1.811665442053e+02 
4 1  1.043373709415e+03   2.249410861713e+01   1.510736652785e+01 
5 1  5.580892297426e+02   4.383904987729e+01   1.982598201413e+02 
6 1  1.536021345459e+02   2.511388216430e+02  -8.256803578403e+01 
7 1 -1.650041422493e+02   9.854524577982e+01  -4.733384500024e+02 
8 1  3.463269059604e+02  -1.034152748376e+01  -3.888076175584e+02 
9 1  1.411817692935e+02   3.867326795084e+02   2.384811901683e+02 
10 1  1.464422028637e+02   4.954470272663e+02  -6.976665859375e+01 
11 1 -4.373628968893e+01  -5.868294561882e+02  -3.841229312361e+02 
12 1 -2.186785408857e+02   2.732467629825e+02   1.849384981704e+01 
12
 Atoms. Timestep: 33000
1 1  3.259006900515e+02   2.170261811825e+02  -5.146409695120e+02 
2 1 -2.617900066727e+02   2.741701708066e+02   4.386821003080e+02 
3 1  1.796910866747e+02  -4.710400764465e+02  -1.204390361780e+02 
4 1  3.501281631098e+02  -3.265740761308e+01   1.581773438321e+02 
5 1 -2.013337871012e+02  -1.228015515518e+02   8.077119530747e+01 
6 1 -3.798265125605e+02  -1.657303812524e+02  -7.336841760782e+02 
7 1 -1.785686482523e+02   3.200284505870e+02   1.151120027620e+02 
8 1  4.245290052039e+02  -3.245883496428e+02   3.393563353349e+02 
9 1  1.534712901945e+02  -1.648818315656e+02   3.651455648991e+02 
10 1 -7.913509142264e+01  -2.124286268487e+02  -4.666634686611e+02 
11 1  5.932969985459e+02   4.818141246226e+02   2.534756118886e+01 
12 1  2.965555231859e+02   1.237497674972e+02   7.039238539555e+02 
12
 Atoms. Timestep: 34000
1 1 -2.922416120550e+02  -1.060186142112e+03  -5.660061386942e+02 
2 1  1.719847845150e+02  -2.538505465049e+02   4.301668536261e+01 
3 1  1.428386040169e+02   1.783892134372e+02  -1.685884101614e+02 
4 1  6.057048206401e+02  -6.384541143202e+01   1.785198461861e+01 
5 1  1.585618485500e+02   2.821214366662e+02  -2.403715118670e+02 
6 1  2.898079645355e+02  -1.711428119782e+02  -2.358271939312e+02 
7 1 -1.930935338290e+02  -3.027504376193e+02   8.991234955973e+01 
8 1 -6.267181256595e+02   3.296780783729e+02  -2.722877993682e+02 
9 1  2.521495250405e+02   6.916776747991e+02   2.508714430764e+01 
10 1  6.678307934491e+01   1.346209267183e+02  -4.160500535748e+02 
11 1  5.087471334739e+01  -1.853724914115e+02   6.495363717069e+01 
12 1 -2.951245654799e+01   3.889435481167e+02  -1.544514413545e+02 
12
 Atoms. Timestep: 35000
1 1  7.226952953294e+02  -4.205589476327e+02  -4.955049390657e+02 
2 1  2.799509695073e+01   3.587934354723e+02   3.066779256321e+02 
3 1 -2.709952390395e+02   1.702569690053e+02  -6.431427844200e+01 
4 1  3.156726036341e+02   2.488655510539e+02  -6.923696740560e+02 
5 1  9.226992703028e+00  -2.608262989252e+01   6.279304624887e+01 
6 1 -2.060881901469e+01  -5.168757807384e+02   1.270308657863e+02 
7 1  2.853944633183e+02   3.209917620970e+02   2.729948509030e+02 
8 1 -1.940596061622e+02   1.652335718198e+02  -1.161406667367e+02 
9 1  4.115549533443e+02  -2.344191717527e+02   7.870836771772e+01 
10 1 -2.086446194176e+02  -1.408147215988e+02  -2.132391129714e+01 
11 1  2.617067321905e+02  -3.522229578199e+02   3.316445051787e+02 