12
 Atoms. Timestep: 0
1 1  4.004069951656e+02  -8.197210752701e+02   4.116216831778e+02 
2 1  2.918471373686e+02  -2.467929261794e+01  -5.070776254753e+02 
3 1  6.606521434841e+02  -3.724968678215e+02   2.307330019506e+02 
4 1  3.284057861724e+01   2.938297464843e+02  -1.395356698436e+02 
5 1 -1.702987856424e+02  -2.389272575802e+02  -3.098871723327e+02 
6 1  3.891458930866e+01   2.242806679793e+02   1.359813596064e+02 
7 1 -5.395968504057e+01  -1.416139295308e+02   3.563435124890e+02 
8 1 -1.692031450683e+02  -9.286144245555e+01  -6.428048434649e+02 
9 1  3.248642894975e+02   2.122183414645e+02  -9.390011643754e+01 
10 1  1.125281409828e+02   1.825792314281e+02  -8.018808944433e+01 
11 1 -2.818698833462e+02   5.131644380175e+02   1.729001166261e+02 
12 1  1.415594826814e+02  -7.003997020464e+02   3.340350569818e+02 
12
 Atoms. Timestep: 1000
1 1 -5.432772305687e+01   1.400699522242e+02   1.149663521062e+01 
2 1 -4.411002684077e+01  -1.916382098948e+02  -3.002774473140e+02 
3 1 -6.493723860428e+01  -2.539647619685e+02   1.750246977853e+01 
4 1  4.697501641784e+02   3.647061124673e+02   2.060047681201e+00 
5 1 -4.705645333517e+02   3.238834189891e+02  -1.069637517471e+03 
6 1  2.478941247495e+01  -2.042255597111e+02  -1.039365976378e+02 
7 1 -3.192079134770e+02   4.842057283023e+02  -2.364090630847e+02 
8 1 -1.407018140232e+02  -1.741404673757e+02  -1.155820543080e+02 
9 1 -2.404751331191e+02  -1.018296795154e+01   2.433903920439e+02 
10 1 -6.896034393860e+02  -2.499700146687e+02  -2.986930659404e+02 
11 1  3.177090244237e+02   1.040876237654e+02  -8.200367970810e+01 
12 1  1.570677888855e+02   1.615382824323e+02   6.534000728839e+01 
12
 Atoms. Timestep: 2000
1 1 -2.578652778162e+02  -2.074098441457e+02   4.020547860955e+02 
2 1 -3.370094109684e+02  -5.073800848666e+02   7.141635259321e+01 
3 1 -1.848012711586e+02   2.800310444137e+02  -8.990953606695e+01 
4 1 -2.058192601139e+02   7.151003980769e+01   1.235504350571e+02 
5 1 -8.556622944200e+01   6.186416687925e+02   2.672220227630e+01 
6 1  5.569998963683e+02  -6.684258296861e+02   2.318918800019e+02 
7 1 -5.118537525308e+01  -6.534003284122e+02  -5.360996061272e+01 
8 1 -1.622847803925e+02   6.035057761522e+02  -6.189248006575e+02 
9 1  6.570043895219e+02  -9.687705138142e+01  -2.403912965730e+02 
10 1  2.502982552116e+01  -9.482844650578e+01   2.183657445142e+02 
11 1 -2.584553346916e+02   4.524731757734e+02  -2.487373136688e+02 
12 1 -8.221838239791e+02   2.036730005076e+02   5.060028725572e+02 
12
 Atoms. Timestep: 3000
1 1 -1.902486499893e+02   1.702353884028e+02  -3.729430853228e+02 
2 1 -4.614633073323e+02   5.603577162695e+02   1.307669998251e+02 
3 1  3.975286203704e+02  -2.050704973686e+02   1.578736024366e+02 
4 1 -1.509355234290e+02  -3.355773319164e+02   3.361135947022e+02 
5 1 -1.173681411533e+02  -3.758575117933e+02   9.722667409379e+01 
6 1 -1.817738490895e+02   1.881749635475e+02  -1.568632761979e+02 
7 1  2.954195277125e+02   2.028131059645e+02  -2.585886682063e+02 
8 1 -1.099786990770e+02   6.160284607460e+01  -5.279923933809e+01 
9 1  2.193453681847e+02   1.807768508062e+02   1.633881384958e+02 
10 1 -1.084305814719e+02   3.360499010924e+02   2.427202058633e+02 
11 1  7.026993846110e+02   6.010248098228e+01  -3.740178226049e+02 
12 1 -2.355152360020e+02  -8.080692773443e+01   4.090648354897e+02 
12
 Atoms. Timestep: 4000
1 1  3.047080876515e+02  -1.865374898228e+02   3.272719482815e+01 
2 1  2.881037617490e+02  -3.546401046954e+02   6.991124527999e+02 
3 1  1.736247386619e+02   4.940262384148e+01  -6.268134225176e+02 
4 1  2.034691279342e+02   6.429564872027e+01  -4.052744932895e+01 
5 1  5.756353253338e+02  -5.332069579386e+02   4.067073062795e+02 
6 1 -1.535276638776e+02   4.500944860281e+02   6.929306484025e+02 
7 1 -4.189662136921e+02   1.760617471944e+02  -5.268349986344e+01 
8 1  6.121105770384e+01  -8.062937380361e+01  -1.249939409367e+02 
9 1 -1.867241019034e+02  -2.122628274191e+02  -2.644860546175e+02 
10 1 -8.336666460647e+01  -4.966706316452e+02   4.771233455311e+02 
11 1 -2.007743788108e+02   4.285913371686e+02   6.200354378412e+01 
12 1  3.057447130122e+02  -9.291995597468e+01   1.102204213546e+02 
12
 Atoms. Timestep: 5000
1 1 -1.973669854632e+02   3.297837066686e+02  -1.326033649362e+02 
2 1 -2.691495187737e+02  -3.655065748466e+02  -1.334845568391e+02 
3 1 -4.742903236397e+02  -5.279526224848e+02  -4.804074092839e+00 
4 1 -1.797963924389e+02  -5.266652629918e+02   2.753768006069e+02 
5 1  2.541763621466e+02  -2.528997579804e+01  -6.138588617214e+02 
6 1  7.238942973248e+00  -3.239850644984e+02  -1.579129079071e+02 
7 1  3.995485700294e+02   2.037009801779e+02  -5.048114975387e+01 
8 1 -2.104291269496e+02   3.892081988805e+02  -1.285510048364e+02 
9 1 -3.410835682170e+01   3.217807151015e+02  -2.005874410660e+02 
10 1 -6.795305108050e+02   4.507300118175e+02   1.851592907241e+02 
11 1 -3.551892723178e+02   7.812536853386e+02  -2.440123876935e+02 
12 1  7.923190311736e+02   5.135736890171e+01  -1.702572545028e+02 
12
 Atoms. Timestep: 6000
1 1  2.378349845009e+02  -4.700039056375e+02   1.286168104218e+02 
2 1 -2.910842636642e+02  -2.326750433347e+02   3.236975516477e+02 
3 1  1.879412295489e+02   3.911890021186e+02  -1.263621181033e+02 
4 1  4.935879865803e+01   2.620681665045e+02   2.065205652721e+02 
5 1  6.660805208282e+02  -3.235057671293e+02  -4.380217766892e+02 
6 1 -8.942944159501e+02   2.156795590800e+02   2.270251084092e+01 
7 1  1.004442325210e+02   7.505757451588e+00  -1.378914788090e+02 
8 1  2.223209991978e+02   4.921363950691e+02   1.893963106732e+02 
9 1 -3.496022962907e+01  -9.422020930246e+01  -3.241415807220e+02 
10 1 -8.912687678016e+02  -4.330078528712e+01   1.767911006881e+02 
11 1 -3.281768169881e+02  -1.374835620889e+02  -2.265922209947e+02 
12 1  9.068586462660e+01   4.748489972775e+01  -4.656987882922e+02 
12
 Atoms. Timestep: 7000
1 1 -2.921490434723e+02  -3.258941132186e+02   1.363202191448e+02 
2 1  4.984891400551e+02  -2.215441996898e+02  -1.022492834739e+02 
3 1 -3.004719006522e+02  -3.585653759361e+02  -2.605781388639e+02 
4 1  1.884794606097e+02   2.763310616420e+02  -5.253210276714e+01 
5 1 -7.230555966044e+01   3.560794914347e+02   4.962019746422e+02 
6 1  5.155753712901e+02  -1.056106953542e+02  -3.828331160916e+02 
7 1 -1.897356471034e+02   3.483461433532e+02  -4.452436708761e+02 
8 1 -2.049503772779e+02   1.036892661271e+02  -4.044824239347e+02 
9 1  3.670531638609e+02  -2.939633961606e+02  -9.741796634396e+01 
10 1 -1.449903274508e+02   3.153434700189e+01   3.469233853612e+02 
11 1 -3.915532094694e+02  -2.990761582232e+02  -7.779564593813e+02 
12 1  2.108209813381e+02  -4.460009399148e+02  -1.315202495980e+02 
12
 Atoms. Timestep: 8000
1 1 -5.688060560597e+02   1.544957875158e+02  -5.863404754745e+02 
2 1  6.074843606803e+00   5.383528348765e+02  -6.806679102471e+02 
3 1 -3.857639686812e+02  -6.987117603112e+01   1.584258727806e+02 
4 1  1.555328420371e+02  -1.893628556291e+02  -3.959810108151e+02 
5 1 -1.875750624412e+01  -1.728398438801e+02   1.916142829218e+02 
6 1 -3.786668256798e+01  -1.662220965647e+02  -6.230041150960e+01 
7 1 -4.477887261503e+02  -3.266665936281e+01   2.554114805639e+02 
8 1  1.039971278982e+02  -2.070329227335e+02   4.574217927246e+02 
9 1  5.999506667169e+01   1.109183549970e+02  -2.810506097736e+01 
10 1 -8.840023176682e+02  -8.104285990803e+01   3.609843760866e+02 
11 1 -5.307203192567e+02   1.921271508859e+02  -2.352480024229e+02 
12 1  2.546985743574e+02   4.407059140731e+01   1.928228220174e+02 
12
 Atoms. Timestep: 9000
1 1  1.960455092740e+02   3.294672633529e+02   2.270987222596e+02 
2 1  1.025075517328e+02  -1.220834018974e+02  -2.002560214986e+02 
3 1  3.050178997385e+02   2.003650438165e+02  -2.076513988661e+02 
4 1  1.775232905553e+02   2.556684584168e+02   1.670426930099e+02 
5 1 -9.738012470414e+01  -2.625935475915e+02   1.746132359062e+02 
6 1 -1.522540175069e+01  -5.688555175862e+01  -1.990951174782e+02 
7 1 -2.987025418715e+02   1.625257465359e+02  -4.707664882800e+02 
8 1  2.934252197699e+02   8.936419536652e+01   4.708742510983e+02 
9 1 -8.115054487419e+01   2.938286959147e+02  -1.136903680102e+02 
10 1 -7.084337943597e+02  -6.644084157949e+02   8.784738343161e+01 
11 1  5.409062201262e+02   1.523111923705e+02   1.606686449956e+02 
12 1 -2.651302277244e+02  -1.178077760758e+02  -1.133035947216e+02 
12
 Atoms. Timestep: 10000
1 1 -3.935042948868e+02   6.878886600275e+01   5.109105369407e+01 
2 1  1.427130810302e+02   7.870524721175e+01   4.449532276004e+02 
3 1 -2.586914783657e+02  -8.145756937558e+02   2.063491020577e+02 
4 1  4.707949769903e+02   1.569173440208e+02   1.733259071477e+02 
5 1  5.477807583161e+01  -9.651311244509e+01  -3.585134676389e+01 
6 1  1.317626207868e+02   7.547095310825e+01   2.254902604463e+01 
7 1 -7.645673515351e+01   4.630830891891e+02   3.895187826945e+02 
8 1  6.593319373854e+01  -2.863584740061e+02  -3.954500965099e+02 
9 1 -9.697288816537e+01   1.195272169047e+02   3.251414218725e+02 
10 1  1.380192749194e+02  -2.876304249502e+02  -4.646937533285e+01 
11 1 -1.572723524665e+01  -4.371877836938e+02   1.407396793611e+02 
12 1 -5.175946192126e+02  -1.147064544429e+02   1.483785954709e+02 
12
 Atoms. Timestep: 11000
1 1  8.575169241488e+01   4.502712013334e+02  -1.520403818844e+02 
2 1  4.188289943415e+02   2.608843736981e+02   1.278305520547e+02 
3 1 -1.583163956416e+02  -9.175126598480e+01   2.471313577238e+02 
4 1  9.873595735735e+01  -3.926940031515e+02  -7.761737011702e+02 
5 1 -1.392525565605e+02  -4.380242117532e+02   4.114593690361e+02 
6 1  3.638623309864e+02   4.682063179893e+02  -1.965284137451e+02 
7 1  1.334934914471e+02  -2.907096859482e+02   2.724103633188e+02 
8 1  4.150902482392e+02  -4.199783498197e+02  -3.923657857119e+02 
9 1 -5.727720038084e+02  -3.171790613190e+02   1.245823354142e+02 
10 1 -2.733179205114e+02   2.631496787961e+02   5.660370547049e+02 
11 1  3.956308780051e+02   4.247556661762e+02  -3.767594958189e+02 
12 1 -4.490886706949e+01  -5.567040618106e+02   4.583731939843e+02 
12
 Atoms. Timestep: 12000
1 1  1.616795630746e+02   1.374661287156e+02  -4.854289841597e+01 
2 1 -2.659394281526e+02   1.681520178543e+02   2.333971807218e+02 
3 1  1.978186416229e+02   2.337343530148e+02   4.042298332218e+02 
4 1 -1.031040256963e+02  -9.902322521018e+01   2.019622356758e+02 
5 1 -2.500964808284e+02  -4.234002931294e+02  -1.347828545720e+02 
6 1  3.311929968945e+02   1.678139421410e+01   2.556208040412e+02 
7 1 -5.766273032756e+01   1.289671921350e+02  -2.818966162721e+02 
8 1  5.370657901347e+02  -4.284393562182e+02   1.102175368295e+02 
9 1 -5.026316456254e+02   4.175983311501e+00  -4.027435647645e+02 
10 1 -7.089573311827e+01  -3.928318438357e+02   2.325845649410e+02 
11 1  7.485356224409e+01   3.894642334253e+02   4.353444019488e+01 
12 1  1.401241172074e+02   5.381506317999e+02   1.742859176326e+02 
12
 Atoms. Timestep: 13000
1 1  3.842237202464e+02   3.683165095971e+02   3.319580129890e+02 
2 1 -5.145795298733e+02  -1.591604915428e+02  -1.893708005142e+02 
3 1 -5.280714012292e+02  -5.138339170212e+01  -9.319024716263e+01 
4 1 -2.973094576004e+02  -4.448691237694e+01  -2.676463560605e+02 
5 1  1.453144958283e+02  -1.879039021856e+02  -1.038791877619e+02 
6 1  1.562015165257e+01  -2.899916996058e+02  -3.464857136251e+02 
7 1 -4.102255075658e+02   1.176595678056e+02   2.258445632805e+02 
8 1 -2.948634504321e+01  -2.982938430489e+02   3.160394310524e+02 
9 1 -1.174479953908e+02  -1.540479006562e+01  -2.195796462572e+02 
10 1 -6.803009889386e+02   1.864419474019e+02   2.578212331749e+02 
11 1  3.672481311829e+02   2.833902014103e+02  -3.497471683870e+02 
12 1  1.589200870527e+01   6.347990238702e+02  -5.053009474921e+02 
12
 Atoms. Timestep: 14000
1 1 -7.453707911869e+02   1.261892467116e+02   9.201602494995e+01 
2 1  5.792920889338e+02   1.116771708064e+02  -1.184160103260e+02 
3 1 -3.231309455824e+02   2.847782184630e+02   2.374589636839e+01 
4 1  1.964601006506e+02   4.462607852753e+02   1.537024473191e+02 
5 1  5.447721602768e+02  -3.083500686736e+02  -1.705900226284e+02 
6 1  6.543716580288e+01  -7.525300600117e+02   3.189544305948e+02 
7 1  3.373104105472e+02  -8.628445637814e+02   4.474849429250e+02 
8 1 -5.480182620045e+02   1.727516149413e+02   1.014405820573e+02 
9 1  5.441306114096e+01  -1.124646228203e+02  -2.800015904411e+02 
10 1  9.112064129580e+01  -3.905076654030e+01  -8.252479336730e+01 
11 1  5.249005484136e+02   4.271487296254e+02   6.205080404065e+02 
12 1  9.152407395972e+02  -7.147754946545e+02   2.106327918300e+02 
12
 Atoms. Timestep: 15000
1 1 -2.955270872888e+02   4.661965352442e+01   6.681398343074e+01 
2 1  5.306306882573e+01   7.140125429828e+01  -1.798218695598e+01 
3 1 -3.662465079415e+02  -3.120905414608e+02   2.344938262620e+01 
4 1  3.589200482571e+01   1.514557694457e+02  -1.018847002942e+02 
5 1  3.893447696387e+02  -2.115513310660e+01  -2.829570641630e+02 
6 1  3.987098889238e+02  -8.367713315047e+01   5.672276686960e+01 
7 1  8.159572343301e+01  -7.169933339381e+01   6.550208595910e+02 
8 1 -3.126716412016e+02   1.457926032159e+01   3.833332855955e+01 
9 1 -4.862486554434e+02  -5.620456451882e+02   6.084913051712e+02 
10 1 -5.932973856525e+02  -3.167810238740e+02   1.174463285017e+02 
11 1 -4.611650681121e+02  -3.526263521630e+02   8.369256977196e+02 
12 1  5.900361120657e+01  -1.656465468355e+02  -2.980203936518e+02 
12
 Atoms. Timestep: 16000
1 1 -5.301772727015e+02  -3.362390486492e+02  -1.828247221242e+02 
2 1 -3.650673911149e+02   2.309146447769e+02   2.198162138943e+02 
3 1 -2.125958614059e+02   1.364034966899e+02   6.035696431104e+02 
4 1  5.114390727027e+01   3.463259945628e+02  -1.021036530801e+02 
5 1  4.089905825629e+00   8.237240585560e+01  -2.549504021695e+02 
6 1 -1.510623385476e+02   9.317993996000e+01   1.257559671166e+02 
7 1 -5.862698171254e+02   6.825639805416e+02   2.861351500716e+02 
8 1  4.844206216356e+02  -1.613112527410e+02   8.537929011918e+01 
9 1  1.665949924402e+02  -7.475423822746e+02   5.135861687240e+02 
10 1  2.082724837417e+02  -1.693137797549e+02   2.439189732654e+02 
11 1  5.594265847501e+02  -5.048279860342e+02  -4.148381722854e+02 
12 1  2.177395037012e+02   1.285418857988e+02   7.504168576948e+01 
12
 Atoms. Timestep: 17000
1 1 -2.609687280249e+02  -3.697924346349e+01   2.688543690989e+02 
2 1 -6.986467019189e+01  -7.674336020824e+02   1.657459221625e+02 
3 1  7.828558398013e+02  -8.732135615735e+01  -2.265007288045e+02 
4 1  3.995144309815e+02  -1.738348239831e+02   2.109347302311e+02 
5 1 -3.468394296766e+02  -3.139017603893e+00  -2.426787404656e+01 
6 1 -3.767035939741e+02  -5.410569852068e+02  -1.417891721573e+02 
7 1 -8.323615818833e+01  -2.521401830547e+02   1.536995639787e+02 
8 1 -1.693735188143e+02   1.591030115196e+02  -2.330097160730e+02 
9 1 -4.312489830131e+02   1.013684415004e+02  -2.406594523073e+02 
10 1 -1.524963018750e+02   3.411089028424e+01  -2.901318790944e+02 
11 1  5.629437515508e+02   1.982930610819e+02  -2.296790611458e+01 
12 1 -1.303501243578e+02   6.406561406270e+02  -3.110629895271e+01 
12
 Atoms. Timestep: 18000
1 1 -4.099533311605e+02   3.523017573049e+02  -1.215795525571e+00 
2 1  9.194283288986e+02  -9.443267519849e+02   3.199483392392e+02 
3 1  6.603357159997e+02  -4.133510854333e+02  -1.985904448137e+02 
4 1  3.051042848819e+00   1.922658344108e+02  -5.566578173221e+02 
5 1 -2.570593664565e+02  -1.610949388810e+01   1.236769857729e+02 
6 1  1.047896565058e+01  -1.360487986121e+02   2.023377792547e+02 
7 1 -1.572574298028e+02   1.719020173859e+02  -5.649465537668e+02 
8 1 -7.374976517455e+02  -1.707759572474e+02  -1.590075957114e+01 
9 1  1.441179033299e+02  -1.961723109230e+02   1.054648654687e+02 
10 1 -5.929698662141e+01  -4.537810874660e+02   3.041678486776e+02 
11 1  1.934738331388e+02  -2.020266935327e+02   5.069634960793e+02 
12 1 -6.771872787563e+02   6.085544108571e+02  -5.501536421104e+02 
12
 Atoms. Timestep: 19000
1 1 -3.241015072014e+02   8.326500761388e+01  -2.076268795900e+02 
2 1 -1.014080916287e+02   3.240166549212e+02  -1.854705593449e+02 
3 1 -4.979579499500e+02  -4.416080472477e+02   2.314298204139e+02 
4 1 -4.323646093959e+02  -2.188980882877e+02  -1.184210907788e+02 
5 1 -7.672243481962e+02   2.846096686674e+02  -1.515497372665e+02 
6 1 -1.456163477055e+02  -1.523935366371e+02   6.699201363716e+01 
7 1  2.560241259031e+02  -3.427232719726e+02   5.242772167886e+02 
8 1  3.891387618886e+01   2.906259723939e+02  -4.914517107533e+02 
9 1 -3.564778293714e+02   2.696453777470e+02   1.116548196837e+02 
10 1  6.815042336521e+01  -4.912932686218e+02  -7.668503083206e+01 
11 1 -2.380735284501e+01  -2.364416727348e+02  -1.812769115249e+02 
12 1 -3.721321020500e+02   7.040108010354e+02   7.041207177336e+01 
12
 Atoms. Timestep: 20000
1 1  6.780838568046e+02   4.102587412229e+02   9.839174286018e+01 
2 1  3.555906933289e+02   4.445277097666e+02  -2.315775411139e+02 
3 1 -1.658724156138e+01   1.102880965589e+03  -1.306392728645e+02 
4 1  2.528545910094e+02  -3.364930097793e+02   3.035644392760e+01 
5 1 -1.427168360152e+01   1.991749643158e+00  -1.951442253421e+02 
6 1 -2.060020187037e+02  -2.033884384349e+01  -2.519685940203e+02 
7 1 -4.333576937592e+02   1.442071642501e+02   7.946126227590e+00 
8 1 -2.506688141550e+02  -9.376014949563e+02   3.437304556062e+02 
9 1  7.138150711702e+01  -1.651625276839e+02  -6.734110286064e+01 
10 1  1.708336771210e+01   1.909300770457e+02   1.770533781532e+02 
11 1 -8.920821891941e+01   3.106975382245e+02   1.951897634734e+02 
12 1 -1.553642975292e+02  -1.997787718948e+01  -1.834299329348e+02 
12
 Atoms. Timestep: 21000
1 1  4.907910204280e+00  -5.664456412105e+01  -1.767982374489e+02 
2 1  6.788822076465e+02  -4.602120103567e+02   1.910317245575e+02 
3 1  1.662685922127e+02   1.002465675383e+02   1.209867941692e+02 
4 1  3.546598972845e+00   6.388312839660e+01  -2.268190457961e+02 
5 1  4.075158394142e+02   1.787918779435e+02  -8.579606787597e+02 
6 1 -3.712826774026e+02   1.745043707968e+02   4.865345590017e+01 
7 1  1.543686038969e+02   1.081493745847e+02   2.121914609001e+02 
8 1 -4.176571854806e+02  -1.898127993757e+02  -2.348595385150e+02 
9 1  1.081237679603e+02  -8.429947973011e+01  -2.603535132023e+02 
10 1 -5.217613543659e+02  -9.041939226119e+02   7.201329199175e+01 
11 1 -3.247503172432e+01   2.515697109564e+02  -2.275186619891e+02 
12 1 -1.193829665680e+02  -3.044896960940e+02  -2.815362373470e+02 
12
 Atoms. Timestep: 22000
1 1 -1.135409155868e+02  -2.575672191208e+02   2.118961247576e+02 
2 1 -3.412309782321e+02  -3.967732682423e+02   3.601659130989e+02 
3 1  4.308716148748e+02  -5.751383605504e+01  -2.436057446579e+02 
4 1 -4.073246625879e+01  -1.536748320545e+02  -1.344102931148e+02 
5 1  4.100445341855e+02   9.335063695828e+01  -2.237989519689e+02 
6 1 -1.913239114718e+02  -3.359898978913e+01   1.626444301340e+02 
7 1 -5.516988887462e+01   4.472700264318e+02  -4.385974999750e+02 
8 1 -2.089318565937e+02  -2.978670043893e+02  -4.372357708284e+02 
9 1  1.785939506112e+02  -3.499786291391e+02   5.152535673135e+01 
10 1 -4.756366120010e+02  -3.093302103676e+01  -1.332503881800e+02 
11 1 -5.964449512365e+02  -5.564750183676e+01   4.613208073392e+02 
12 1 -2.083621101537e+02   1.992469588452e+02   4.720590493329e+02 
12
 Atoms. Timestep: 23000
1 1  7.506375464444e+01  -1.575009623516e+02  -2.481347600237e+02 
2 1  8.308860946060e+02  -4.609388821454e+01   2.207132186569e+00 
3 1 -1.284395914017e+02   3.244156992696e+02   1.679859637785e+02 
4 1  4.246753636253e+02   2.678496389919e+02   2.057015547857e+01 
5 1 -1.103152913260e+02   3.730468058014e+01   6.814296845694e+01 
6 1  1.029068477338e+01   1.976661492453e+02   4.471756385571e+01 
7 1  3.169426235997e+02   4.276294101336e+02  -3.951642776270e+02 
8 1  1.824248764471e+02   4.329097467018e+02   4.247564146734e+02 
9 1  2.628122406159e+01   1.318529246020e+01  -4.672057129884e+02 
10 1  3.923040695412e+02   5.123686361274e+02  -2.461111533751e+02 
11 1 -7.644385692383e+02  -5.124495827280e+02   1.101025858421e+01 
12 1 -6.599724495609e+01  -3.498108630903e+02   2.854387484019e+02 
12
 Atoms. Timestep: 24000
1 1  9.416932713270e+02  -2.637885921928e+02   2.314970150715e+02 
2 1 -2.378057242884e+02   3.425782569465e+02  -3.696091768075e+02 
3 1  6.823154439593e+00  -3.119085790808e+02  -1.472154709999e+02 
4 1 -6.522190863526e+02  -5.905595346791e+01   3.488513051394e+02 
5 1  2.742484319512e+02  -7.798070934465e+02   1.512986463945e+02 
6 1 -4.311933520778e+02   5.394004261146e+02   5.183247665975e+01 
7 1 -1.131825320613e+02  -1.658937846751e+02  -4.466236757560e+02 
8 1 -2.770815068028e+02  -1.956425646045e+02   8.847062273188e+01 
9 1  1.039023393535e+02  -1.382177011077e+02   1.465011259134e+02 
10 1 -1.000150028796e+02   2.554477375459e+02  -5.357829024509e+02 
11 1  2.039894945888e+01   7.815590547928e+02  -1.478712633791e+01 
12 1 -2.419665212403e+02   8.289065435517e+01  -2.286208782345e+02 
12
 Atoms. Timestep: 25000
1 1  3.159504692968e+02  -2.843940475911e+02  -3.507847143030e+02 
2 1  1.429318469819e+02  -5.048941667951e+02  -1.515344842299e+02 
3 1 -2.288532129978e+02  -4.788742067280e+02   2.825746850125e+01 
4 1 -4.114853032296e+02   1.622217451437e+01   2.174844178564e+02 
5 1  1.311344203047e+02   1.074357920521e+01  -1.001689580223e+01 
6 1  1.308177652813e+02   2.976239248257e+02   2.209205633957e+01 
7 1 -2.995852243862e+02   3.817955865442e+02   4.341509229414e+02 
8 1 -5.179386115576e+02   5.792471452521e+02  -2.373953431766e+02 
9 1 -5.707847642122e+01  -4.110402488066e+02   2.375644557315e+02 
10 1  1.751639833795e+02   3.630077077043e+02   6.635556505172e+01 
11 1 -4.898657753910e+02   3.907257867156e+02   3.620188197160e+01 
12 1  1.721703487634e+02   6.274373828183e+02  -2.681872994541e+02 
12
 Atoms. Timestep: 26000
1 1 -2.164401877120e+02   2.923545661168e+02   3.563968820543e+02 
2 1 -1.575211842210e+02  -4.489992895430e+02  -3.398182775251e+02 
3 1  1.424911442645e+02   3.462073220609e+02  -9.712091902358e+01 
4 1  5.771859338149e+00   3.547136947518e+02   2.967026909467e+02 
5 1  1.852906099205e+02   2.416403323157e+02   9.534343141502e+01 
6 1  4.823673247933e+02   8.247200165149e+01  -8.873262800620e+01 
7 1  5.863982617598e+01  -1.415353690411e+02  -7.929597795164e+01 
8 1 -9.692814768722e+01   6.553685015654e+02  -4.097031469173e+01 
9 1 -7.032113807877e+02   1.167075719441e+02  -1.290177798491e+02 
10 1 -4.095126365868e+02   4.218517241640e+01  -2.068003726690e+02 
11 1 -2.754623898167e+02  -3.027422490064e+02   1.815354741457e+02 
12 1 -4.573272197493e+00   7.981129075057e+00  -1.035341352294e+02 
12
 Atoms. Timestep: 27000
1 1 -4.826880539485e+01  -4.455869674857e+01  -2.958303836152e+02 
2 1 -7.949553082384e+01  -2.769331400976e+02  -5.201262719725e+02 
3 1 -8.891435070609e+01   2.390332244604e+02  -4.636971160898e+02 
4 1 -6.494439124992e+01   2.801017062451e+02  -4.031656862299e+02 
5 1  1.013432147508e+02  -2.752229714956e+02  -2.386793749432e+02 
6 1 -2.160396698559e+02   2.886453060852e+02  -2.748046468723e+02 
7 1 -1.725449346026e+01  -2.966148870248e+01  -7.505386730270e+02 
8 1  3.350021924801e+01  -9.381744856833e+01  -1.741204130552e+02 
9 1  4.324594682408e+02   6.082373485710e+01   3.814775360268e+01 
10 1 -2.811568329497e+02   3.354049215267e+02   3.106672088290e+02 
11 1  4.430413156182e+02   2.901688157568e+02   5.686726100540e+02 
12 1  6.142474500916e+01  -8.816651257163e+01   5.227259157510e+02 
12
 Atoms. Timestep: 28000
1 1 -7.658192721659e+00   3.617030853792e+02   6.392004451388e+02 
2 1  2.030612850133e+02   6.655687663694e+02   3.365036815921e+02 
3 1 -3.973401133011e+02  -3.422975574525e+01   2.103832220938e+02 
4 1 -7.158841631746e+01  -3.616033510554e+02  -4.423485154145e+02 
5 1 -2.889085633209e+02   1.252971215097e+02   1.991508304777e+02 
6 1 -4.608700287344e+02   3.490428474783e+02   2.236837330500e+02 
7 1 -2.203853127680e+02   1.918294872756e+02   3.373433017112e+02 
8 1  7.037011059637e+01   1.511634148842e+02   9.871858193736e+01 
9 1 -6.217640000911e+01  -4.064387049985e+02  -4.429794881997e+02 
10 1 -3.354692169002e+02   2.672998052637e+02  -1.130726360431e+02 
11 1 -2.028402031563e+02  -3.531767993817e+02   5.107726375874e+01 
12 1  2.857519378384e+01  -5.990798310041e+01  -4.571765363519e+01 
12
 Atoms. Timestep: 29000
1 1 -6.537598540703e+02   2.850300951872e+02   2.917691795410e+02 
2 1 -4.479115834346e+02  -7.347400052536e+02   1.034761662225e+02 
3 1 -1.666123386893e+01  -1.355353068514e+02   1.076728706724e+02 
4 1 -4.658655745609e+02   1.428987957256e+02   2.733644398374e+02 
5 1 -3.612985526101e+02  -5.539210878125e+02  -2.226141516377e+02 
6 1  3.849192476884e+02   2.769115509577e+02  -8.205117203385e+01 
7 1 -5.189822218670e+02   3.000834518791e+02   4.730368976147e+02 
8 1  1.157813739497e+02  -1.729921737072e+02   2.217302300617e+02 
9 1  5.725998337317e+02   4.958833644248e+00  -2.342170437976e+02 
10 1 -2.723638102592e+02   1.756846075768e+02  -5.239835464213e+02 
11 1  7.276693967803e+01   5.989706500557e+01  -1.703855201192e+02 
12 1 -1.447329179922e+01  -3.721614127855e+02   6.851983980536e+01 
12
 Atoms. Timestep: 30000
1 1 -3.717049484887e+01  -1.637992999068e+02   2.448114385759e+02 
2 1  3.152474071256e+02  -1.047539332549e+02  -2.659420758393e+02 
3 1 -1.249678649176e+02  -2.514586356837e+02   1.957594027103e+02 
4 1  1.715238203898e+02   1.589664934239e+02   5.111161021331e+01 
5 1  2.040285196539e+02   2.856777621205e+02   6.699908606378e+01 
6 1  1.963402674655e+02   4.339706505341e+02  -2.190914349546e+02 
7 1  1.047063664987e+02  -4.968942770393e+02  -4.923599678136e+02 
8 1 -2.149757085911e+02  -2.217391615300e+02  -1.725020938531e+02 
9 1  7.223522400430e+02  -2.679877429299e+02  -3.423103100666e+02 
10 1 -2.448224058998e+02  -2.779803117743e+02  -2.130250062537e+02 
11 1 -3.456159608899e+02  -8.860927868309e+01   1.271308894207e+02 
12 1 -1.985381868735e+02  -1.738306930349e+02  -5.351458773486e+02 
12
 Atoms. Timestep: 31000
1 1  1.587162482670e+02   2.968010210232e+02   5.448937887602e+02 
2 1  2.187974527091e+02  -1.508581113867e+02   1.657064675567e+02 
3 1  1.285554446220e+02   2.815623783884e+01   1.986286947975e+02 
4 1  5.530101401698e+01  -3.577770740192e+02  -9.640612952528e+01 
5 1 -3.969303324588e+02   1.162613532244e+02  -1.173923773490e+02 
6 1 -3.058767791912e+02   1.233048421299e+02   1.635126880789e+02 
7 1  1.349616458763e+02   8.326810804544e+02   5.510488239455e+02 
8 1 -3.429364359206e+02  -7.671772501003e+02   2.847300308626e+02 
9 1 -6.833812401653e+01   7.393552332656e+02  -1.207074555761e+02 
10 1 -1.063579312420e+02  -2.563643794388e+02   2.501748305470e+02 
11 1  1.920312292478e+02  -5.784633843278e+02  -4.135054878541e+02 
12 1 -7.019572845268e+01  -3.024013691627e+02  -2.525277593281e+02 
12
 Atoms. Timestep: 32000
1 1  3.671666488817e+01   1.097301680081e+02   5.020469962028e+02 
2 1 -1.599482986097e+02  -1.524205871811e+02  -4.493828268036e+02 
3 1 -2.549097329104e+02   3.684778470776e+01  -3.949681844254e+02 
4 1  3.015036026125e+02  -8.020409862839e+01   1.701222589213e+02 
5 1 -9.032632379503e+01   2.145445398663e+02  -1.334433724468e+02 
6 1  4.145409083226e+02  -1.100558018931e+02   6.322206067252e+02 
7 1 -3.209028315255e+00  -3.059326986548e+01  -5.263970404876e+02 
8 1  1.330269034176e+01   4.055644739769e+02  -3.614538312377e+02 
9 1  2.399947136299e+02   2.665354571260e+02   1.254870897914e+02 
10 1 -3.115603226067e+02   6.043315948399e+01  -2.383950961732e+02 
11 1 -7.175149457381e+01   4.049323748741e+02  -4.809632112694e+02 
12 1 -3.216851058195e+02   9.063693442943e+01   3.043548387008e+02 
12
 Atoms. Timestep: 33000
1 1 -1.035889412855e+01   9.616485561166e+01  -8.791253571362e+01 
2 1 -3.257727839199e+02  -2.299615989832e+01  -3.058496404904e+02 
3 1 -1.209024180927e+02  -3.903755609310e+02  -2.727460097393e+01 
4 1 -4.256677120929e+02  -3.549510204979e+02   1.204463491685e+02 
5 1  7.215574139532e+01   1.805846831141e+02   9.887816510448e+01 
6 1  1.722508596420e+02   3.050656693400e+02   1.801164247690e+02 
7 1  4.688227793099e+00   3.007669500700e+02   1.528773815807e+02 
8 1 -1.722747546824e+02   7.083251774633e+01   3.729955033249e+02 
9 1 -4.431175234483e+02   2.956381647838e+02  -4.052167350523e+02 
10 1  3.821090218313e+02   4.076042459859e+02   3.141889121708e+02 
11 1  4.938287674789e+02  -6.444425421272e+01   2.913055100137e+02 
12 1  2.085762845844e+02   1.730478786968e+02  -1.979614746428e+02 
12
 Atoms. Timestep: 34000
1 1 -2.152119281024e+02  -2.413285623157e+01  -8.134117776954e+01 
2 1 -3.877657103997e+02  -1.419176441502e+02  -2.270085696458e+02 
3 1  2.113485031766e+02  -6.955933213222e+01   2.709060241281e+02 
4 1 -3.946543569135e+02  -2.284463068220e+02   3.319812927498e+02 
5 1 -2.024808010338e+01  -4.787028378781e+02   4.239194818216e+01 
6 1  3.616396365729e+02   2.159545190809e+02   1.731058587655e+02 
7 1 -2.320132371317e+02   3.665030180641e+02  -3.854134473051e+02 
8 1  3.283661661279e+01   3.656310626436e+01  -1.552809836100e+02 
9 1  7.741466733147e+01   3.765911732198e+02   3.636514733624e+02 
10 1  1.150943580292e+01   3.951956782736e+02  -6.702835215939e+01 
11 1 -4.960436409340e+02   3.635674822375e+02   1.630228342932e+02 
12 1  5.963156396083e+02   1.136363005991e+02  -3.946312437590e+01 
12
 Atoms. Timestep: 35000
1 1  2.928871102030e+02   2.642162189974e+02  -2.473281715498e+01 
2 1  3.933268010686e+02  -2.298051594832e+02  -4.288160164993e+02 
3 1 -1.013461512157e+02  -6.167149730435e+01  -1.163467751829e+02 
4 1 -7.265384830447e+01   5.778454121293e+02   1.282253912294e+02 
5 1  3.380543570865e+02   1.900224815054e+02   3.685178905326e+02 
6 1  9.901120100915e+01  -3.548758674647e+02   1.373071739447e+02 
7 1  8.291679231374e+02   7.530574752418e+00   2.840766902907e+02 
8 1 -5.548893714922e+02   2.727196024512e+01   3.279015195438e+02 
9 1  1.889014159825e+02  -5.745004348016e+02  -3.741548222533e+02 
10 1 -9.332500801392e+02   4.511070862615e+02  -1.296851328214e+02 
11 1 -8.961715065438e+01   3.339482235790e+02  -3.113709979377e+02 