3
 Atoms. Timestep: 0
1 1  0.000000000000e+00   0.000000000000e+00   0.000000000000e+00 
2 1  0.000000000000e+00   0.000000000000e+00   0.000000000000e+00 
3 1  0.000000000000e+00   0.000000000000e+00   0.000000000000e+00 
3
 Atoms. Timestep: 1000
1 1  1.863033071159e-05   2.027753525109e-05   2.322145010508e-05 
2 1  1.474280417735e-04   9.058189004699e-05   7.383256314639e-06 
3 1 -2.299753472283e-04   3.861711729419e-05  -8.028759417769e-05 
3
 Atoms. Timestep: 2000
1 1  4.624440412587e-05  -1.215020989880e-04  -8.628735598245e-05 
2 1 -4.127684613838e-05   1.933637080888e-04   4.431095335433e-05 
3 1 -5.834800213636e-05   1.197740246704e-04  -1.951172491227e-04 
3
 Atoms. Timestep: 3000
1 1 -1.009476113224e-04   1.472099180211e-04   9.591191084353e-05 
2 1 -1.342768200457e-04   1.068220220538e-04  -1.168454387091e-04 
3 1  1.120536084572e-04   1.297158741907e-05   1.652218764543e-04 
3
 Atoms. Timestep: 4000
1 1 -1.581676773603e-04  -1.392362153686e-04  -1.458783179905e-04 
2 1 -7.355961633547e-05  -1.091705296003e-05   2.222770024180e-04 
3 1  2.665040321453e-04  -1.480029151326e-04   5.046260636066e-05 
3
 Atoms. Timestep: 5000
1 1 -2.905467861177e-04   9.131361126246e-05  -3.479021139134e-05 
2 1  2.540508571294e-06   1.733733429786e-04  -8.357084179985e-05 
3 1 -6.336684181060e-05   1.228301751146e-04   1.823169696817e-05 
3
 Atoms. Timestep: 6000
1 1 -1.689287337656e-04  -2.450118870392e-04   6.036196851174e-05 
2 1 -3.592450303509e-04   9.481508187996e-05   1.268311308540e-04 
3 1  2.180607228858e-04   2.303717731619e-04  -2.055867526200e-04 
3
 Atoms. Timestep: 7000
1 1 -4.828176286668e-05   2.712997953512e-04  -7.164949104877e-05 
2 1  1.383441729223e-04  -1.272262095995e-05   1.289418870257e-04 
3 1 -1.341055769659e-04   7.384364861535e-05   3.998757972426e-05 
3
 Atoms. Timestep: 8000
1 1  3.986772707863e-05  -4.481666744503e-05  -3.047167335691e-04 
2 1 -5.542562253550e-05  -1.224074447923e-04  -4.488556621911e-05 
3 1 -6.321609390460e-05  -2.194564621081e-05  -1.406954494384e-04 
3
 Atoms. Timestep: 9000
1 1 -7.827524385865e-05   3.292622447421e-04  -1.147865499814e-05 
2 1  1.520923478815e-04  -5.407261859176e-06   1.290836114284e-04 
3 1  4.179868786128e-05  -1.356411152438e-04   2.645336122157e-04 
3
 Atoms. Timestep: 10000
1 1 -2.330371359692e-05   1.396131863491e-04  -1.076371194711e-04 
2 1  8.622668154718e-05   8.970732072174e-05  -5.401839084473e-05 
3 1 -1.396201384044e-05  -5.440812365559e-05   1.602480169635e-04 
3
 Atoms. Timestep: 11000
1 1  3.063318495431e-05   1.207689581209e-04   1.363460639326e-05 
2 1  7.424363020550e-05   1.615081522543e-04  -2.245308220825e-04 
3 1 -2.953222922844e-04  -3.423799588360e-05   4.629194864245e-05 
3
 Atoms. Timestep: 12000
1 1  2.487971749492e-04   3.684390699690e-05  -1.561408981114e-05 
2 1  1.023440362382e-04  -1.259504648762e-04   2.545607927170e-05 
3 1  8.356678751437e-05  -7.764915197527e-05   1.128767484803e-05 
3
 Atoms. Timestep: 13000
1 1 -3.142809603095e-05  -1.238551179126e-04   1.251285589199e-04 
2 1 -2.303966490384e-05  -8.979467798480e-05   8.270252098835e-06 
3 1 -1.303075724895e-04  -2.998494622861e-05  -6.947904587951e-05 
3
 Atoms. Timestep: 14000
1 1 -1.004981507634e-04  -5.032817572099e-05  -1.469583241186e-04 
2 1  1.415708090218e-04   5.372671056444e-05   2.128725455580e-04 
3 1 -2.263890651760e-04  -6.249173045058e-06   9.915884887384e-05 
3
 Atoms. Timestep: 15000
1 1  1.480741029536e-04  -1.256745494583e-04   1.170754923080e-04 
2 1  4.134489028931e-04   1.030548179066e-04  -1.400512498447e-05 
3 1  8.877865747324e-05   8.399199529398e-05  -6.235641004907e-05 
3
 Atoms. Timestep: 16000
1 1  4.271113636736e-05   1.412236704665e-04  -1.849636181815e-05 
2 1 -2.750350153741e-04   1.480765350635e-05  -1.003411371305e-04 
3 1  5.575565074203e-05   7.226107103052e-05   6.741155992145e-05 
3
 Atoms. Timestep: 17000
1 1 -1.090693084391e-04   2.007083144911e-04   9.317201886221e-05 
2 1 -3.454428015613e-05  -1.209069522333e-04   1.361416086203e-04 
3 1  4.034753631163e-05  -1.692443103786e-04   8.951532749850e-05 
3
 Atoms. Timestep: 18000
1 1  1.347404998102e-04   3.013670903322e-04  -1.931194141447e-05 
2 1  9.810305645367e-05   9.933579727658e-05   2.185043539839e-05 
3 1  3.859539608173e-04  -2.257773344192e-04  -7.439573496911e-05 
3
 Atoms. Timestep: 19000
1 1  6.579106841662e-05   2.519501256077e-05   4.062308163858e-05 
2 1 -2.950889239114e-04  -8.713270915093e-05   1.477764148532e-04 
3 1  3.722149504529e-05   5.067006074693e-05   7.757104244605e-05 
3
 Atoms. Timestep: 20000
1 1 -2.906436345095e-05   2.267678992255e-04   2.255766131452e-04 
2 1  2.904246585739e-04   1.328657816006e-04   5.185668604359e-05 
3 1 -6.927257832625e-05  -1.127919247503e-04  -1.452869249638e-06 
3
 Atoms. Timestep: 21000
1 1  2.038120594507e-04  -2.141599581753e-04   2.487835352894e-05 
2 1 -1.209768168589e-04   6.762516273991e-05  -8.146703767366e-05 
3 1  2.318036119467e-04   1.299419883814e-05   1.267150005971e-04 
3
 Atoms. Timestep: 22000
1 1 -1.240867852184e-05  -1.964519440470e-04   2.160443537072e-05 
2 1  1.120983744444e-04   1.452077078386e-04   2.365734905187e-05 
3 1  1.513503644567e-04  -2.357509735562e-04   2.361117088773e-04 
3
 Atoms. Timestep: 23000
1 1 -5.967115487454e-05  -1.108526240433e-04   1.454156515661e-04 
2 1 -1.220618948671e-04  -1.730531977845e-05  -1.245528248993e-04 
3 1  1.222831909318e-04   2.556673878013e-05   8.328797600417e-06 
3
 Atoms. Timestep: 24000
1 1 -1.650600037850e-05   2.839772969873e-05  -1.959252590005e-05 
2 1  4.872979433531e-05   8.661595686668e-05   2.413025310124e-04 
3 1  9.882814305355e-05   4.504039102323e-05  -8.130567882544e-05 
3
 Atoms. Timestep: 25000
1 1 -7.631426146987e-06   1.179103905390e-04  -1.691019529538e-04 
2 1 -1.636460432100e-04   2.208607495184e-04  -1.954543023181e-04 
3 1  8.604288989436e-05   1.175413576717e-05  -2.018547387991e-04 
3
 Atoms. Timestep: 26000
1 1 -8.296816475114e-05   1.907872263848e-04  -1.114813376237e-04 
2 1  5.160402614154e-05   7.755282186308e-05  -7.635649753332e-05 
3 1  2.612839681070e-05   7.513084580654e-05  -1.869103317025e-04 
3
 Atoms. Timestep: 27000
1 1 -9.340334304182e-05  -2.914953814963e-04  -4.691837195800e-05 
2 1  1.184338115188e-04  -3.006649942790e-06  -9.844879845254e-05 
3 1  1.820159021066e-04  -1.966247061770e-04   5.655535576550e-05 
3
 Atoms. Timestep: 28000
1 1 -2.535860898657e-04   1.732964589649e-04   3.144574789375e-05 
2 1 -5.852744532567e-06   6.421437269513e-05  -1.052108990716e-04 
3 1  1.481225250763e-05   1.067554367089e-04   2.456221303058e-04 
3
 Atoms. Timestep: 29000
1 1 -8.879750618922e-07  -1.208098507633e-04  -5.395368958728e-05 
2 1 -1.674452093241e-04   1.868938103248e-04   5.022546516493e-05 
3 1 -1.984164822259e-04  -2.520086301514e-04   1.231920370194e-04 
3
 Atoms. Timestep: 30000
1 1 -2.200512414576e-04   6.378858472692e-05   1.172934949116e-04 
2 1 -1.340250565857e-04   6.105069527816e-05   1.048235189838e-04 
3 1 -1.394614538061e-04   2.206061518722e-04   1.154426965927e-04 
3
 Atoms. Timestep: 31000
1 1  2.413436850559e-04   2.200816791408e-04  -8.413944201300e-05 
2 1  1.162909069710e-04   1.339246115559e-04  -3.371552548943e-05 
3 1  1.399769510867e-04  -1.435804753765e-04  -5.751459209967e-05 
3
 Atoms. Timestep: 32000
1 1  1.599990838389e-05  -2.093939084887e-04  -1.392152204931e-04 
2 1  4.259541254389e-06  -1.072815546635e-04   1.880350084898e-04 
3 1  2.172929124147e-04   1.465503351169e-04  -9.169611599693e-05 
3
 Atoms. Timestep: 33000
1 1 -1.749995099950e-04  -1.273828690370e-04  -1.162070840875e-04 
2 1 -1.255092724977e-04   3.347463937305e-05   3.915326978982e-05 
3 1 -5.080822405209e-05  -6.697673417831e-05  -8.496780875679e-05 
3
 Atoms. Timestep: 34000
1 1  1.208456982185e-04   3.539619883453e-05   7.166972472683e-05 
2 1  1.012450226784e-04  -2.603622182002e-04  -1.106440272743e-04 
3 1 -1.319911191580e-04   6.948678977550e-05   1.340321305244e-04 
3
 Atoms. Timestep: 35000
1 1 -6.814314032563e-05   2.810065351551e-04  -6.772641931303e-05 
2 1  7.359685301823e-05  -3.765305002369e-05   1.301059592944e-04 
3 1  1.018971664941e-05   6.964687742024e-05   2.942056611541e-06 
3
 Atoms. Timestep: 36000
1 1 -4.397281563526e-05   1.597300528310e-04  -8.885795908107e-05 
2 1 -4.861601963825e-05   9.298792362473e-06  -1.247938678446e-04 
3 1  1.313217377777e-04   1.302105770782e-04  -1.483721238610e-05 
3
 Atoms. Timestep: 37000
1 1 -2.156015847032e-04  -2.743001281985e-05  -9.557718712303e-05 
2 1  1.688423065382e-05  -8.592269383526e-05  -5.037998524827e-05 
3 1  7.841737314845e-05   7.604561797049e-05  -1.054703607201e-04 
3
 Atoms. Timestep: 38000
1 1 -2.095362884533e-05   1.524480808268e-04   1.096212214227e-05 
2 1 -1.078221882703e-04   3.430681624198e-05   5.217379753678e-05 
3 1  1.812879584297e-04  -6.911341944359e-05  -1.830614909421e-04 
3
 Atoms. Timestep: 39000
1 1 -2.097549567710e-05  -3.422385362315e-04   1.591236559356e-04 
2 1 -3.198560243078e-05   1.309170174947e-04  -1.908267844642e-04 
3 1 -1.280129882418e-05   1.002892567746e-04  -6.898415378830e-05 
3
 Atoms. Timestep: 40000
1 1 -9.854980295103e-05  -6.276897738735e-05   3.165510268957e-04 
2 1  3.518008037700e-04   1.124699143255e-04  -4.171003294619e-06 
3 1 -1.686202227113e-04  -3.568429534932e-05  -5.265870195632e-05 
3
 Atoms. Timestep: 41000
1 1 -3.866678839032e-05  -4.711486660347e-05   5.140717905045e-05 
2 1 -8.062525814844e-05   1.356344075311e-04  -2.713706968834e-05 
3 1  1.453610172716e-05  -1.778627959709e-04   2.563913963474e-05 
3
 Atoms. Timestep: 42000
1 1 -4.552410132719e-04  -1.387683396732e-04  -2.609745294890e-05 
2 1  6.474208915898e-06   5.341099241380e-05  -2.857528961675e-06 
3 1  1.406910075297e-04  -3.336066729555e-05  -1.382370212116e-04 
3
 Atoms. Timestep: 43000
1 1 -1.686785520307e-04  -8.207728306535e-05  -1.239427774824e-04 
2 1 -8.689439368984e-05  -7.468389775988e-05   9.850483220709e-05 
3 1 -6.551635355312e-05   1.594801435434e-04   5.963341627408e-05 
3
 Atoms. Timestep: 44000
1 1  5.838006372747e-05  -1.731192199246e-04  -1.032397025059e-04 
2 1  3.977216438287e-05   8.223998776519e-05   8.953029991660e-05 
3 1 -1.299218294096e-04  -2.098911338539e-04  -1.491145754094e-04 
3
 Atoms. Timestep: 45000
1 1 -6.699298232151e-05   4.649843587780e-04   1.097089730263e-05 
2 1 -8.740277928696e-05  -1.110946634100e-04  -1.446735653138e-04 
3 1 -6.161802752817e-05  -1.277012736500e-04   1.173991389773e-04 
3
 Atoms. Timestep: 46000
1 1  9.624350004273e-05  -5.168280998189e-05  -1.164086326542e-04 
2 1 -3.131977057273e-05   7.792730281863e-06  -1.222026944930e-04 
3 1  1.811212311032e-05   1.525161862762e-04  -2.202914408078e-04 
3
 Atoms. Timestep: 47000
1 1 -2.236558099019e-04   2.310628242686e-04   5.159288485003e-05 
2 1 -4.820213108054e-05   1.165041513187e-04   2.051913070541e-04 
3 1 -2.686064321119e-05   7.121464532760e-05   2.561749886461e-04 
3
 Atoms. Timestep: 48000
1 1 -1.699090482120e-04   1.468341704802e-04   3.504238485940e-05 
2 1 -4.681249150592e-05   4.194950135593e-05   3.864492706510e-06 
3 1  1.592678926144e-04  -6.932469307941e-05   2.272474057114e-05 
3
 Atoms. Timestep: 49000
1 1  5.505672227243e-05   9.541688566117e-05  -1.199877105156e-04 
2 1 -1.659094815929e-04  -2.488652906215e-04   1.152383411091e-04 
3 1 -1.290530806950e-04   3.457680532176e-05   1.788146842261e-04 
3
 Atoms. Timestep: 50000
1 1  2.460035361084e-04   1.285176357993e-04   2.806565857205e-07 
2 1  5.498655886514e-05   1.539930921408e-04   5.117160182550e-05 
3 1  1.903737066480e-04   1.700814388399e-04   5.750617853317e-05 
3
 Atoms. Timestep: 51000
1 1 -2.123293120306e-05  -1.000213258588e-04  -6.419228743154e-05 
2 1  2.138266046089e-04  -2.023199407308e-04   1.845430839835e-05 
3 1  1.101563120973e-04   1.825474676643e-05   2.226364486099e-04 
3
 Atoms. Timestep: 52000
1 1  4.210963355152e-05  -2.820900074242e-05   9.238141313477e-05 
2 1 -2.579300767943e-04   2.169366503646e-04  -2.625737859084e-04 
3 1  9.253548399108e-05   1.854491724244e-04   1.778926598967e-04 
3
 Atoms. Timestep: 53000
1 1 -1.759731033822e-04   1.139484549985e-04  -8.098310579274e-05 
2 1  1.658136006675e-04  -2.144068934830e-04  -1.678078708195e-04 
3 1 -5.003863518339e-06  -6.513602308389e-05   3.492611925578e-05 
3
 Atoms. Timestep: 54000
1 1  1.170695818809e-04  -1.636506710706e-04   6.162092073124e-05 
2 1  1.675774811248e-04  -1.648703535108e-04   5.118856291922e-05 
3 1 -1.510838156421e-04  -1.111228231722e-04   1.525260946747e-04 
3
 Atoms. Timestep: 55000
1 1  9.048864031102e-05   1.578323959545e-04   6.972642464673e-06 
2 1  3.003614031782e-04   4.079555511443e-06   4.686587474645e-05 
3 1  4.204581437863e-05   9.115445143199e-05   3.621048764009e-05 
3
 Atoms. Timestep: 56000
1 1  1.049527142901e-04  -2.545423147662e-04  -2.058151990706e-04 
2 1 -1.095729454746e-04   9.712163796243e-05  -1.353511910654e-04 
3 1 -7.777628058748e-05  -2.626660679087e-04   4.327746393648e-05 
3
 Atoms. Timestep: 57000
1 1 -8.565365889941e-05  -3.276108914327e-04  -7.368582552106e-05 
2 1  6.164739067669e-05  -1.993795902663e-05  -7.827124267528e-05 
3 1  1.200814380024e-04  -1.149182962641e-04   1.603982112249e-04 
3
 Atoms. Timestep: 58000
1 1 -5.186550473362e-05   1.034441814762e-04   1.733189501020e-04 
2 1  1.531821672132e-05  -3.395770719706e-04  -8.731055681427e-05 
3 1  4.805743145948e-05   3.893590628726e-05   8.345884267273e-05 
3
 Atoms. Timestep: 59000
1 1 -2.568878391434e-06   2.852380457506e-04  -2.059672826399e-04 
2 1  8.708716531607e-06  -1.531200788969e-04  -9.614451476926e-05 
3 1  2.100686302974e-04   4.679301968447e-05  -2.196889442108e-04 
3
 Atoms. Timestep: 60000
1 1 -7.123023730615e-05  -1.249018419903e-04   8.620694022872e-05 
2 1 -3.385901467741e-05  -6.178128455704e-05  -1.927251019488e-06 
3 1 -9.296023636994e-05  -3.037349244314e-05   1.003232348800e-04 
3
 Atoms. Timestep: 61000
1 1  1.211954027857e-04  -1.614287108664e-05   1.071250340389e-04 
2 1 -1.238076251030e-04   1.671382565274e-04  -2.066498944975e-04 
3 1 -1.087488448040e-04  -1.202710136964e-04  -8.880042445523e-05 
3
 Atoms. Timestep: 62000
1 1 -1.965978840262e-05  -7.550075839444e-05  -1.408895717618e-05 
2 1  1.823993186018e-04  -5.474127535410e-05   1.463271351652e-04 
3 1 -3.680192064149e-05  -1.335546042886e-04   7.386339056508e-05 
3
 Atoms. Timestep: 63000
1 1  3.328666656195e-05   8.100045192036e-05   9.196862914015e-06 
2 1  1.019348142402e-05   2.364590427329e-04   3.840649030126e-05 
3 1 -5.737015587746e-05   1.310473809737e-04  -8.741237778581e-06 
3
 Atoms. Timestep: 64000
1 1 -2.951956339868e-05   6.149395668728e-05   1.415031286881e-04 
2 1 -3.453357616136e-05  -3.410676982987e-05   7.867600714010e-05 
3 1 -1.019158659811e-04   7.204924549739e-05   1.951116982100e-05 
3
 Atoms. Timestep: 65000
1 1 -1.288656479526e-05  -2.532667192365e-04   1.131383163544e-04 
2 1  9.652728474497e-05   2.430225703593e-04   1.598435913542e-05 
3 1 -3.030835508807e-06  -3.351020688925e-05   1.346471798959e-04 
3
 Atoms. Timestep: 66000
1 1 -8.233120529104e-06   5.052946837901e-04   8.096336386365e-05 
2 1 -9.700189454785e-05   9.042109596697e-05  -4.366336264261e-05 
3 1 -1.020856769917e-04  -1.749156894352e-04   3.506331527022e-04 
3
 Atoms. Timestep: 67000
1 1  1.394749295517e-05   1.661272886990e-04  -7.030529767971e-05 
2 1 -1.379268739636e-04   2.831704166981e-04  -1.934293365585e-05 
3 1 -1.338175961699e-04  -2.353698961782e-04   1.749647357600e-04 
3
 Atoms. Timestep: 68000
1 1  1.198409919674e-05   4.019609675932e-05   4.943086561384e-05 
2 1  2.039196689293e-04   6.411776556503e-05   7.871501139785e-05 
3 1  7.915015703325e-05  -2.515854983375e-04   6.633563834227e-05 
3
 Atoms. Timestep: 69000
1 1 -6.729994353979e-05  -1.398942533657e-04   1.220878433374e-04 
2 1 -1.399223647381e-04   3.177272705538e-05  -2.305574205323e-04 
3 1 -2.209253634044e-04   7.713235707567e-05   3.832073899839e-06 
3
 Atoms. Timestep: 70000
1 1  1.536964730758e-04   5.147048579787e-05  -1.420133688564e-06 
2 1 -8.550870844907e-05  -6.101573476927e-05   7.052888562706e-05 
3 1  1.906727469338e-05   1.428748069219e-04  -3.557199531747e-04 
3
 Atoms. Timestep: 71000
1 1  1.824707405582e-04   4.418011440630e-05  -4.820375499068e-05 
2 1 -1.333351220475e-04   4.735831112752e-05  -1.146004180843e-04 
3 1  6.935768341372e-05  -3.653272988632e-05  -1.487586516248e-04 
3
 Atoms. Timestep: 72000
1 1 -8.292527749065e-05   1.559872241015e-04  -1.141795064388e-04 
2 1  1.092971846355e-04   5.471172915039e-05   2.878835328732e-05 
3 1 -4.061038609184e-05  -1.344635850022e-04   1.050706881848e-04 
3
 Atoms. Timestep: 73000
1 1 -8.804572775718e-05   9.078533712384e-05  -1.232566357810e-04 
2 1 -9.192366627966e-05   1.145381337803e-04  -1.076039930099e-04 
3 1  6.954009784814e-05   2.959079968861e-06   1.148390982397e-04 
3
 Atoms. Timestep: 74000
1 1 -1.324709409059e-06  -3.620904477569e-04  -5.493145801051e-05 
2 1  7.076895836867e-05  -1.224622546105e-04  -7.724228792762e-05 
3 1  2.132998366925e-04   5.216511625150e-05   1.986065348397e-04 
3
 Atoms. Timestep: 75000
1 1 -1.052432361875e-05   1.063402579809e-04  -8.415952433450e-06 
2 1  1.826553774907e-04   1.298507811746e-04   3.873972159904e-05 
3 1 -3.112588290277e-04  -8.502389206199e-05  -8.703722741293e-05 
3
 Atoms. Timestep: 76000
1 1  1.231105774694e-04   2.084677442225e-04   1.979785827189e-06 
2 1 -4.479028366003e-06  -1.123793674686e-04   3.787300221936e-06 
3 1  2.554721658110e-04   1.456150066180e-05  -1.672986782468e-04 
3
 Atoms. Timestep: 77000
1 1  5.182863655152e-05   3.026146195977e-04   1.145543702141e-04 
2 1  1.221325018479e-04   1.093256790441e-04  -6.492284995006e-05 
3 1  1.519791604944e-04  -8.509715427351e-05   3.769701255317e-04 
3
 Atoms. Timestep: 78000
1 1  4.550151629874e-05  -7.746606470101e-05  -2.355468465525e-06 
2 1  3.994827094319e-04   1.356728747412e-04   5.982645725731e-05 
3 1  1.763992761996e-04   4.281257345254e-05   5.463425652401e-05 
3
 Atoms. Timestep: 79000
1 1 -1.417175441352e-04   3.367487587913e-04  -3.159403853263e-04 
2 1  6.715563500960e-05   2.117502760298e-04   3.588640379241e-05 
3 1  1.089958333878e-04   3.781860313847e-05   3.041995738244e-05 
3
 Atoms. Timestep: 80000
1 1 -1.000848812092e-04   7.282302282332e-05  -1.404205508245e-04 
2 1  1.308013128182e-04  -2.413647107709e-05   4.994653474789e-05 
3 1 -1.258813267283e-04  -1.820452067432e-04   3.126246445208e-04 
3
 Atoms. Timestep: 81000
1 1  6.514877680434e-05  -1.493991237620e-04  -2.600520653533e-04 
2 1  9.031544385278e-06  -2.408637358776e-04  -7.130166036452e-05 
3 1  1.483267502739e-04   2.593547588265e-05  -2.587271034741e-04 
3
 Atoms. Timestep: 82000
1 1  9.410077948667e-05  -1.236326833767e-04   1.077116571572e-04 
2 1  1.403917143783e-04   1.657473569306e-04  -1.593738376534e-04 
3 1  1.412233470812e-04  -3.046544095005e-04  -1.176649562317e-04 
3
 Atoms. Timestep: 83000
1 1  2.398717625223e-05   2.369580661623e-04   4.099278749833e-07 
2 1  4.304816340821e-05   3.412077455310e-05   5.945953375909e-05 
3 1  4.732600232939e-05  -1.560985251302e-04   9.630270814917e-05 
3
 Atoms. Timestep: 84000
1 1 -4.435543559020e-05  -1.320726502929e-04   1.048323458293e-04 
2 1 -1.815125585688e-04   1.716031588298e-04  -9.706334964424e-05 
3 1  2.181505618961e-04   1.163809694218e-04   1.407791142058e-04 
3
 Atoms. Timestep: 85000
1 1 -2.182106828320e-04  -2.524332274794e-04  -6.779780258448e-06 
2 1 -9.277418004888e-05  -4.078320314511e-05   9.542641817165e-05 
3 1 -3.104881958644e-05   5.658380712103e-06   3.247227550794e-04 
3
 Atoms. Timestep: 86000
1 1 -2.202708904404e-05  -9.369825269706e-05   1.546245243069e-04 
2 1 -5.475289222841e-05  -1.139919426123e-04   3.744625100230e-05 
3 1  1.012164351747e-04   7.522353896269e-05   5.470588335973e-05 
3
 Atoms. Timestep: 87000
1 1  7.877318491764e-05  -1.393752702366e-05   4.395603954481e-06 
2 1 -1.735865966326e-04   1.438243252997e-04   8.482720657899e-05 
3 1 -2.442490412689e-04  -7.830034741013e-05  -8.023974671214e-05 
3
 Atoms. Timestep: 88000
1 1 -3.212277038257e-04  -7.568936228309e-05   6.485627202834e-05 
2 1 -1.310228973647e-04  -1.111987238198e-04  -8.586589601316e-05 
3 1  2.512890439872e-04   2.176794889653e-04   1.412546030823e-04 
3
 Atoms. Timestep: 89000
1 1 -3.538106434530e-05   4.455146439247e-05  -3.473856399978e-05 
2 1  8.624545883207e-05  -4.619959413157e-05  -3.476541276406e-05 
3 1 -2.715553786132e-05   1.669310807793e-04  -8.739381497325e-05 
3
 Atoms. Timestep: 90000
1 1  1.949616114108e-04  -2.710048764432e-04   1.242512955344e-04 
2 1 -2.378014867574e-04  -5.522593900486e-05  -3.158481340237e-06 
3 1 -3.319868078726e-05   8.754392606352e-05   1.560772286826e-04 
3
 Atoms. Timestep: 91000
1 1  2.790856426506e-04   1.687678136811e-05   1.430063564345e-04 
2 1 -1.137894614015e-04  -2.465113011906e-05   2.164864689715e-04 
3 1  5.221154482085e-05  -9.231090338783e-05   2.863505444693e-04 
3
 Atoms. Timestep: 92000
1 1  7.485929680224e-05   2.045646457430e-04   2.020841689908e-04 
2 1  2.251200062282e-04  -8.314582689677e-05  -5.298181471087e-05 
3 1 -1.474944049752e-04  -2.432843049666e-06   1.464503786739e-04 
3
 Atoms. Timestep: 93000
1 1 -1.494010702402e-04  -2.573977406580e-04   4.022574507141e-05 
2 1  9.284316291998e-06   7.556535994651e-05  -3.735936376585e-05 
3 1  1.354931173374e-04   2.406339764194e-04   1.754728224369e-04 
3
 Atoms. Timestep: 94000
1 1  2.249018095301e-05   3.298064707576e-05   7.333499445959e-05 
2 1 -3.614527487268e-05   3.147931945830e-05   1.803496767561e-04 
3 1  7.727137431768e-05   1.807466847724e-04  -1.187811526298e-04 
3
 Atoms. Timestep: 95000
1 1 -7.898468696536e-06   1.285838255241e-05   7.508643476850e-05 
2 1 -4.882192016339e-05   8.624612327527e-05   9.232210198981e-05 
3 1  1.570285258241e-04  -9.132488723905e-05   2.502434689082e-04 
3
 Atoms. Timestep: 96000
1 1  1.820077576417e-04   1.516864859093e-04  -7.281019064314e-05 
2 1 -1.115993520925e-05   1.277050965922e-04   5.840329733710e-05 
3 1  7.592309223662e-05  -1.155631436578e-04  -1.553808599184e-04 
3
 Atoms. Timestep: 97000
1 1  2.654197572395e-05   2.768049631952e-05  -1.194721185387e-04 
2 1 -6.274588139216e-05  -1.739688833258e-04  -1.396951135792e-04 
3 1  1.584922863841e-04  -2.496717070082e-05   4.085997326494e-04 
3
 Atoms. Timestep: 98000
1 1 -2.451206987290e-04  -8.848004294622e-05   1.404426866976e-04 
2 1  3.448772284781e-05   1.204324770288e-04   2.078477441303e-04 
3 1  5.034610628653e-05   1.387625694379e-05  -5.289746775033e-05 
3
 Atoms. Timestep: 99000
1 1  1.453824457127e-04   1.686811111986e-05   2.095185540602e-05 
2 1  1.189702317586e-04  -5.953317935747e-05   7.314854184067e-05 
3 1 -4.124994059185e-05  -9.932967957568e-05  -1.115072653644e-04 
3
 Atoms. Timestep: 100000
1 1 -2.792900650491e-04   8.371633470549e-05  -3.280378318888e-05 
2 1 -7.333608881570e-05   4.622160539544e-05  -1.844193146020e-06 
3 1 -1.432792975576e-04  -3.920429343615e-05   1.378923254247e-04 
