3
 Atoms. MD step: 0
1  1.836888343932e+01  -3.125793896447e+01  -2.670708534845e+01 
1  5.799293195736e-01  -3.270945060877e+01   3.163135100353e+01 
1  4.879762736392e+01   5.145877806755e+01  -2.660277116871e+01 
3
 Atoms. MD step: 1000
1 -2.535336986731e+01   3.800550725490e+01   6.592706110753e+01 
1  3.740029321561e+01  -3.623146465096e+01  -6.997946777928e+01 
1  5.031047861248e+01  -5.623409202449e+01  -4.430872923370e+00 
3
 Atoms. MD step: 2000
1 -2.392604783412e+01   7.246365344370e+01  -4.073692445124e+01 
1 -2.940340387355e+01  -1.348155758653e+01   2.870979581948e+01 
1  7.487015400527e+00   1.383531192876e+01   7.981430012419e+00 
3
 Atoms. MD step: 3000
1 -2.524735596893e+01  -4.580480392534e+01  -5.017268279466e+01 
1 -1.449596700852e+01  -4.161769005622e+01   1.372005994581e+01 
1  1.937287812931e+01  -1.635220790093e+01   2.334996591619e+01 
3
 Atoms. MD step: 4000
1  1.135541567286e+01  -2.047938487451e+01  -3.560269205714e+01 
1  4.137553202315e+01   7.992936882492e+00  -4.474310000397e+01 
1  1.785809571702e+01   1.668506027313e+01   7.935717379231e+00 
3
 Atoms. MD step: 5000
1  5.189782521183e+00   7.467534318297e+01   1.079042198863e+01 
1  3.100402817939e+01  -3.304388455411e+01  -4.489387162015e+01 
1 -5.503372798448e+01   3.294266326341e+01  -4.473229797358e+01 
3
 Atoms. MD step: 6000
1 -5.518558039787e+01   5.270154501455e+00  -4.581865977363e+01 
1 -2.948806563155e+01  -9.306134745610e+00  -2.711277731479e+01 
1  1.055078870405e-01   2.658114364525e+01   2.864426983134e+01 
3
 Atoms. MD step: 7000
1  4.459481024349e+00   7.986046817994e+01   2.501237891307e+01 
1  1.424325716507e+01   4.493421419443e+01   1.635967622557e+01 
1 -8.875022632535e+00  -3.696302246079e+01  -2.619024232495e+01 
3
 Atoms. MD step: 8000
1  6.930088402485e+00  -7.790791097821e+00   5.904142845772e+01 
1  4.713890644308e-01   2.994128685307e+01   3.746976831245e+01 
1 -3.153611986190e+01   4.251580992615e+01  -2.673995962432e+01 
3
 Atoms. MD step: 9000
1 -2.757802855041e+01  -1.065711716022e+01  -2.821267108527e+01 
1  1.556269408942e+01  -4.191273694920e+01  -2.594652838757e+01 
1  1.742425389626e+01   1.450191917748e+01  -1.842131568085e-01 
3
 Atoms. MD step: 10000
1  1.245934592779e+01   4.542386080808e+01  -2.295288596624e+01 
1 -1.268862521792e+01  -3.748735260864e+01   1.425658217895e+01 
1 -1.470680712814e+01  -6.212513912546e+00  -1.254569876589e+01 
3
 Atoms. MD step: 11000
1 -4.822495783605e+01  -1.983068804404e+01   3.099907078126e+01 
1  5.101226985792e+00   3.083614818196e+01  -5.766505137301e+01 
1  8.317559354151e+01  -8.052806206018e+01   1.252033100870e+01 
3
 Atoms. MD step: 12000
1  1.868526888860e+01   1.186227268580e+01  -6.165074330574e+01 
1  1.202762471712e+01  -4.415514029743e+01   3.960507026583e+01 
1  2.703649268745e+01   4.892411007482e+01  -6.180370504970e+00 
3
 Atoms. MD step: 13000
1  1.724690608968e+01  -3.496701196276e+01   1.505850658312e+01 
1  6.912749072206e+01   1.709166377182e+01   5.118060726573e+01 
1 -5.788589142253e+01  -2.394288946376e+01   3.559730871924e+01 
3
 Atoms. MD step: 14000
1  5.725802593623e+01   2.522430889375e+01  -7.604250548161e+01 
1  1.616566698912e+00   4.158600100075e+01  -6.187228881456e+01 
1  1.007557372242e+01   1.265229552034e+01  -3.204222004582e+00 
3
 Atoms. MD step: 15000
1  3.572795787807e+00   2.949010244364e+01  -6.349109551739e+01 
1 -1.305146423562e+01  -1.810622179109e+01  -3.728058475891e+01 
1  1.698018831758e+01  -8.454506545938e+00  -6.308480659023e+01 
3
 Atoms. MD step: 16000
1  2.026770911659e+01   2.519465067306e+01   3.135787020687e+01 
1  3.671732755650e+01   6.296682595141e+00  -4.613434536919e+00 
1 -2.541362210940e+01  -3.212855580076e+01   9.075633384667e+00 
3
 Atoms. MD step: 17000
1 -2.477598858706e+01   1.241670503962e+01  -4.649724971255e+01 
1  2.522889067224e+01   1.158676558934e+01   4.847022788755e+01 
1 -5.175752677766e+01  -3.917770060748e+01  -2.712946717765e+01 
3
 Atoms. MD step: 18000
1 -2.029367815967e+01  -9.211606368673e+00   7.241032538481e+01 
1  1.831505532593e+01   5.852108197056e+01  -5.030322325923e+00 
1 -4.127175565350e+00  -4.330657920836e+01   2.847355264064e+01 
3
 Atoms. MD step: 19000
1 -1.535308470960e-01  -1.762191850713e+00   3.463201193845e+01 
1 -3.435786073129e+01  -9.505156361682e-02   7.962311703289e+01 
1 -3.325880566724e+00  -5.257402339588e+00   7.699979773754e+00 
3
 Atoms. MD step: 20000
1  4.488398030535e+01   6.509548920342e+01   3.234071849548e+01 
1  2.249303475921e+01   9.511740936940e+00   3.023770556719e+01 
1  1.300799414310e+01   4.148037169169e+01  -1.527858730245e+01 
3
 Atoms. MD step: 21000
1 -9.685369772624e-01  -8.562260568426e+00  -3.019750614137e+01 
1 -3.577394458088e+01   2.090151521541e+00   1.028653285041e+01 
1  1.421562826131e-01   3.389948927257e+01  -3.352799503448e+01 
3
 Atoms. MD step: 22000
1 -1.892501527707e+01   3.618527955902e+01   7.721894645397e+01 
1  2.873884972014e+01  -2.413742437359e+01  -5.389756877346e+01 
1  1.532908821843e+01  -8.653875237711e+00  -1.693812566020e+01 
3
 Atoms. MD step: 23000
1  3.224335492243e+00  -4.619792811139e+00  -3.392575151503e+01 
1 -4.590151025455e+00  -2.257835493053e+01  -1.541941321244e+01 
1  2.139735096540e+01  -1.902430269981e+01   4.936069503090e+01 
3
 Atoms. MD step: 24000
1  3.883256295300e+01  -1.136434290922e+01  -5.253991407582e+01 
1 -1.556243626454e+01  -1.232814312606e+01   9.599046509763e+00 
1 -1.024793588036e+02   3.927783022350e+01  -1.412521651391e+01 
3
 Atoms. MD step: 25000
1  1.515908427722e+01   1.772965130792e+01  -3.484680644058e+01 
1 -8.413828113672e+00  -8.819395881453e+00  -2.027687914022e+01 
1 -1.131878331383e+00   2.611738155751e+01   5.055562142311e+00 
3
 Atoms. MD step: 26000
1  1.872969491459e+01   8.307707539903e+00   8.897419985463e+00 
1  2.372802627167e+00   7.027809582981e+01   2.442838920896e+01 
1  4.325529353380e+01   2.249963208032e+01   7.164232593009e+00 
3
 Atoms. MD step: 27000
1  9.524298255346e+00  -4.738378366402e+01   3.840202005958e+00 
1 -6.685201375494e+00  -3.800743874886e+01  -3.014016548900e+01 
1  3.370949130507e+01  -5.525650332562e+00  -3.885790355168e+00 
3
 Atoms. MD step: 28000
1 -1.932831056040e+01  -2.763708345932e+01  -2.653386021524e+01 
1 -3.934029487082e+01  -4.748988082163e+00  -5.129742107060e+01 
1 -9.587148497128e+00   2.178700099870e+00  -1.938416094173e+01 
3
 Atoms. MD step: 29000
1 -1.148626381129e+01   2.346682239114e+01  -4.068987607038e+00 
1  1.291126394837e+01  -5.788789881034e+01   1.384073762819e+01 
1 -1.555694276153e+01  -2.403022614399e+00   4.492442305098e+01 
3
 Atoms. MD step: 30000
1  4.437553102619e+01  -2.678887694150e+01  -2.786633346128e+01 
1 -6.175570182565e+00  -8.938238913963e+00   3.095644139439e+01 
1 -2.872116097004e+01   2.613013988327e+01  -3.485190003290e+01 
3
 Atoms. MD step: 31000
1  4.176808915771e+00  -2.740738659707e+01   3.962817344681e-01 
1 -1.331897507820e+01  -2.289252559345e+00  -4.449164925814e+01 
1  7.974985670927e+00  -1.500002703347e+01  -4.629222888358e+01 
3
 Atoms. MD step: 32000
1  1.693477931381e+01  -1.421503594279e+01  -2.866271889909e+01 
1 -3.450642228076e+01  -4.771273056176e+01  -7.141287201899e+00 
1 -1.953303222863e+01  -1.910480977012e+01  -9.850444411847e+00 
3
 Atoms. MD step: 33000
1  1.815457616601e+01  -2.157981455709e+01   1.896290152198e+01 
1  2.475899553953e+00   1.688983009647e+00  -3.251824739906e+01 
1  1.369101892059e+01   5.694924590578e+00   2.231596271285e+01 
3
 Atoms. MD step: 34000
1 -1.742096537620e+01  -3.274180835285e+01   5.534697713908e+01 
1 -3.929423201467e+01   2.511233799881e+01   3.748291452552e+01 
1 -2.805075414218e+01  -7.190381692936e+01   6.526137485189e+00 
3
 Atoms. MD step: 35000
1  2.629951150882e+01   2.131996679976e+01   2.938177402533e+01 
1  8.750046469167e+00   7.576626762282e+00  -3.341474384543e+00 
1 -1.972495167053e+01   2.543664278759e+01   2.847583431243e+01 
3
 Atoms. MD step: 36000
1 -5.104012158595e+01  -3.323493714234e+01  -3.550039670173e+01 
1 -1.924392366726e+01  -3.876736702262e+01   3.833982696772e+00 
1  4.146384610479e+01   2.836345782946e+01  -2.489347586968e+01 
3
 Atoms. MD step: 37000
1 -7.353422932800e+01   2.293848851680e+01   5.480543524064e+01 
1  9.142322378079e-01  -2.350391495227e+01  -6.335620480934e+01 
1 -1.574668850605e+01   3.585235215352e+01   3.823158828572e+01 
3
 Atoms. MD step: 38000
1 -7.891527940868e+00   4.059446947893e+01  -9.927873904710e+00 
1  2.558045086830e+01   1.091955485417e+01  -1.247161598369e+01 
1 -2.667102189680e+01  -9.626632312245e+00  -1.611407982550e+01 
3
 Atoms. MD step: 39000
1  1.703095707398e+01  -7.217083906697e+01   1.613797493245e+01 
1 -9.809947843138e+00  -7.070369752484e+01  -9.237879373814e-01 
1 -2.102135783158e+01  -1.731676706925e+01   5.834768347405e+00 
3
 Atoms. MD step: 40000
1  5.367436999836e+01   2.297929506293e+01   5.302582725266e+00 
1 -3.898902711271e+01   1.167316454081e+01   1.187605266695e+01 
1  2.806208977072e+01  -5.314549983803e+01  -8.521417707154e+00 
3
 Atoms. MD step: 41000
1  2.407661689738e+01   1.774649210776e+01  -3.667630525672e+01 
1  1.364905453137e+01  -1.546563047412e+01  -2.670709931691e+01 
1 -1.102359573469e+01  -1.122718034861e+01  -8.107387828432e+00 
3
 Atoms. MD step: 42000
1  8.363398615879e+01  -7.519921363955e+01   3.176383496895e+01 
1 -5.090136023455e+00   4.610561256209e+01   1.592566726790e+01 
1  4.041826810645e+01   3.274897192085e+01   1.331599369828e+01 
3
 Atoms. MD step: 43000
1  5.102895287982e+01   1.299625477783e+01  -3.048497456118e+01 
1  3.415781269497e+01  -1.173844460386e+01   7.202618036533e+01 
1  7.420752732287e+01  -2.342258586740e+01   1.808096938884e+01 
3
 Atoms. MD step: 44000
1  4.257553145396e+01   3.036849883640e+00  -2.258030283192e+01 
1  4.806532929164e+00  -1.035074825950e+01  -9.013059594033e+00 
1  5.699293861596e+01  -9.097291178998e+00  -1.284773572515e+01 
3
 Atoms. MD step: 45000
1 -9.393610636505e+00   3.832460572272e+01  -2.215205072657e+01 
1 -4.444429262162e+01  -1.741799143860e+01   1.794802706313e+01 
1  4.986494869069e+00  -1.768916407341e+01   1.617689579166e+01 
3
 Atoms. MD step: 46000
1  5.202849852179e+01   1.197160195552e+01  -9.212497170883e+00 
1  7.813347635504e+00   5.156836937088e+01   4.022459645466e+01 
1 -5.171208522478e+01   3.835075872410e+01  -3.288483729254e+01 
3
 Atoms. MD step: 47000
1  4.788174180005e+01   5.204962649924e+01  -3.625033659945e+01 
1 -6.838919597209e+01   1.555514366236e+01   4.073952716287e+00 
1  2.630275253786e+01   4.898023506135e+01   4.041331997865e+00 
3
 Atoms. MD step: 48000
1  2.256819349430e+01   3.680161166292e+01  -3.330785245127e+01 
1 -1.463211947331e+01   1.579432586366e+01  -1.747229286948e+01 
1  1.968102298363e+01   6.766979652967e+01  -4.638366687946e+01 
3
 Atoms. MD step: 49000
1 -7.746860946146e+01  -2.368583355564e+01  -4.258923022369e+01 
1  1.264491194825e+01   3.718801943450e+01  -5.824296284156e+00 
1  1.227983122488e+01   9.868828232201e+00   2.409379964743e+01 
3
 Atoms. MD step: 50000
1 -7.104011103319e+00   3.940622315054e+01  -1.601749998951e+01 
1 -2.766917710085e+01  -3.134495718730e+00   1.721108781236e+01 
1 -2.384754980846e+01  -1.079548964131e+01   2.131041978264e+01 
3
 Atoms. MD step: 51000
1 -1.811145888371e+01   1.505700514447e+01  -7.055090056551e+00 
1  2.558779174140e+01   1.280537618773e+01  -1.052703257503e+01 
1  8.048528476570e+01   2.837328261102e+01   2.916668789651e+01 
3
 Atoms. MD step: 52000
1 -2.957346037634e+01   3.188629098077e+01  -3.195934277099e+01 
1 -3.505295160260e+01  -4.029536256352e-01  -1.522614843452e+01 
1 -3.650561439391e+01  -8.229327480684e+01  -8.438740975543e+00 
3
 Atoms. MD step: 53000
1 -5.417641919922e+01  -1.509674294563e-01   2.359961730533e+01 
1 -7.484812592127e+00  -6.437776092116e+01  -1.283411075849e+01 
1  6.764665437935e+00   6.861894439769e+01   3.219845948790e+01 
3
 Atoms. MD step: 54000
1  2.552487280345e+01   2.412698435511e+01  -8.240141813666e+00 
1 -3.591675103632e+01   2.108587280231e+01   1.659614361065e+01 
1  1.092126901891e+01   1.648044403665e+01   7.041505769082e+00 
3
 Atoms. MD step: 55000
1  4.845359301583e+00  -1.097088199263e+01   1.258099840827e+00 
1  1.471856145267e+01  -2.876439404118e+01   5.932788738782e+01 
1 -1.540928752102e+01   8.141245514620e+01  -3.230143391250e+01 
3
 Atoms. MD step: 56000
1 -3.482886099315e+00  -9.528761216794e+00  -7.640205248811e+00 
1 -6.829112091240e+01   1.896792745536e+01   1.196356625046e+00 
1  2.449862903358e+01   6.376618465482e+01   4.680702060225e+01 
3
 Atoms. MD step: 57000
1  2.369099608225e-02  -1.856674005275e+01   9.675892621258e+00 
1  2.045791160215e+01   3.715701615213e-01   3.736035835339e+01 
1  6.800662918237e+00  -1.383117750278e+01   5.056366506695e+01 
3
 Atoms. MD step: 58000
1  2.882419333742e+01   6.517905265390e+00   2.541728333113e+01 
1  3.308512722409e+01   8.318952843100e+00   6.106920112283e+01 
1 -4.392251483878e+01  -6.390329506210e+01   2.674351451417e+01 
3
 Atoms. MD step: 59000
1 -2.809632988068e+00   1.871598148303e+00  -7.902604890628e+00 
1  2.081715268482e+01  -1.314866656326e+01  -2.960967667690e+01 
1 -4.947910431300e+00  -6.637473459778e+01   5.685988452728e+00 
3
 Atoms. MD step: 60000
1  3.782500185001e+00  -6.216292473974e+00  -6.371942923426e+00 
1 -1.158601455240e+01  -2.454994492883e+01  -1.649502468776e+01 
1 -2.996178899278e+01   1.141244676328e+01  -6.186899334280e+00 
3
 Atoms. MD step: 61000
1  2.353291258180e+01   1.654741873354e+01  -5.353917957362e+01 
1  1.618059370544e+01   2.168754266464e+01  -3.385420973101e+01 
1  3.294366903754e+01  -3.317643090798e+01  -3.534766574303e+01 
3
 Atoms. MD step: 62000
1  2.519776725393e+01   1.989853571581e+01  -1.344301637331e+01 
1  2.402873884147e+01  -1.030279238104e+01   1.045483655334e+01 
1  4.647073643988e-01   9.971142565396e-01   4.556960911686e+01 
3
 Atoms. MD step: 63000
1  4.525131614517e+01   2.048116956476e+01   1.068781712069e+02 
1 -1.219307383057e+01   7.059743703596e+01   1.027028550492e+01 
1 -2.468579911603e+01   2.635924275548e+01  -4.064083666833e+01 
3
 Atoms. MD step: 64000
1  4.050267206952e+01   2.768103024819e+01   4.769900247355e+01 
1  3.629907447772e+01  -2.691340862920e+01  -6.392517693514e-01 
1  1.064809362635e+01  -4.003811017935e+01  -2.081934870888e+01 
3
 Atoms. MD step: 65000
1 -1.111629117307e+01  -3.867050724397e+01   4.902294271571e+01 
1  3.788800741098e+01  -3.161902979368e+01   1.972876127877e+01 
1  1.681505080754e+01  -5.386188004561e+01  -3.393097493143e+01 
3
 Atoms. MD step: 66000
1 -5.795772817615e+00  -1.511346331348e+01   1.707058775489e+01 
1 -3.821192476237e+01   4.327093853261e+01   1.414158168558e+01 
1 -4.837606178353e+00  -2.866451476713e+01  -1.059250057298e+02 
3
 Atoms. MD step: 67000
1  5.035096232854e+01  -2.400916241191e+01  -5.651553351221e+00 
1 -1.339353265495e+00   1.660395001906e+01  -8.834343748570e+01 
1  2.881990537939e+01  -4.582933652660e+01  -4.712260585613e+01 
3
 Atoms. MD step: 68000
1  4.471009112224e+01   2.069183460416e+01  -1.730632008570e+01 
1  1.558280414313e+00   3.766887895931e+01   1.026354019932e+01 
1  3.256387829206e+01   7.725917430679e+00   8.440318056292e+01 
3
 Atoms. MD step: 69000
1 -1.916444501152e+01   2.160720245591e+01   1.736566543180e+01 
1  1.684421243916e+01  -5.837051884275e+00   4.240732740709e+01 
1  3.696699058570e+01   1.584073167299e+01   4.813533229617e+01 
3
 Atoms. MD step: 70000
1 -2.209394649321e+01   4.184742359816e+01  -1.216947157780e+00 
1  5.384925439690e+01   4.132204418409e+00  -2.112563785702e+01 
1  4.236429703872e+00  -1.353946868198e+01   6.280842991971e+00 
3
 Atoms. MD step: 71000
1 -2.825006146385e+01  -3.732675079297e+01  -1.308155048731e+01 
1 -5.834139743236e+01   1.674533261756e+01  -2.744802263281e+00 
1 -1.868645485721e+01  -1.710525574649e+01   2.280905699573e+01 
3
 Atoms. MD step: 72000
1 -5.174004950113e+01  -2.637884849968e+01   3.574410543876e+01 
1 -2.828392795117e+01   2.514480604445e+01  -2.891834869755e+00 
1 -1.225272465713e+01  -3.849449162813e+01  -2.172426898511e+01 
3
 Atoms. MD step: 73000
1  1.066945424165e+01  -6.008558756155e+01   3.245989784863e+01 
1  3.200195829165e+01  -1.507359955759e+01   3.016163947036e+01 
1  8.246415080103e+00   4.917103184358e+01   6.975539466078e+00 
3
 Atoms. MD step: 74000
1 -1.423593610176e+01  -2.505331653743e+00  -3.763955161314e+01 
1  6.378934474389e+00   2.737067066610e+01  -1.181362454863e+02 
1 -1.706907737339e+01  -1.626494505348e+01  -4.482473640293e+01 
3
 Atoms. MD step: 75000
1 -1.323266775458e+01   1.018614514679e+01   3.269355881191e+01 
1 -1.183024029761e+01   3.965450529098e+01  -2.884894163235e+01 
1  7.714716912569e+00  -9.495600485097e+00   5.123213552041e+00 
3
 Atoms. MD step: 76000
1  4.095587659989e+01  -1.039161018487e+01   7.816169027512e+01 
1 -4.035463837684e+00   2.858919723797e+01   5.208505684340e+00 
1  5.281453877806e+01  -1.182090387698e+00   5.987761689830e-01 
3
 Atoms. MD step: 77000
1  9.289026176399e+00   4.593762974524e+01  -2.184746816961e+00 
1  4.934775298884e+01   1.580740763805e+01  -1.701023311419e+01 
1  5.617728372951e+01  -3.718834305011e+01  -2.168279922009e+01 
3
 Atoms. MD step: 78000
1  7.256894792360e+00   7.279246042433e+00   4.354147158181e+01 
1  1.298844544461e+01   4.654610413878e+01   8.284193050305e+01 
1 -6.726995425820e+00  -2.747840007438e+01  -4.933745636092e+01 
3
 Atoms. MD step: 79000
1 -1.098570417925e+01   5.378604904508e+01  -3.761583547340e+01 
1  2.238731768224e+01   1.242602053102e+01   6.549638265359e+01 
1  6.913417855797e+00  -6.183534276272e+01   1.176864628345e+00 
3
 Atoms. MD step: 80000
1 -1.271295692893e+00  -6.299744761579e+00  -2.032468405876e+01 
1  3.154879760573e+01   1.182865224863e+01  -3.585311595839e+01 
1  7.616161397446e+00   1.389107134403e+01   8.197189316982e+00 
3
 Atoms. MD step: 81000
1 -4.256691158845e+01   5.793917628706e+01   5.123646531639e+01 
1 -2.653598096769e+01   2.985142583274e+01   2.253847414397e+01 
1  3.376626025172e+01  -2.248422967942e+01   6.676602258143e+01 
3
 Atoms. MD step: 82000
1  1.314266551311e+01   2.170185350962e+01  -3.592572968571e+01 
1 -4.593847628055e+01   3.677737803529e+01   2.263256940595e+01 
1 -2.081610028345e+01   4.302953824964e+01  -1.217743853003e+01 
3
 Atoms. MD step: 83000
1 -9.375118075653e+01  -3.227049456889e+01   2.558925525146e+01 
1  2.716867288059e+01   6.816786924628e+01   4.688138796552e+01 
1  3.720373922080e+01   1.477485801395e+01   3.626744320265e+01 
3
 Atoms. MD step: 84000
1 -5.148395912276e+01   4.793150837142e+01   2.838261901643e+01 
1 -2.980114095323e+01  -1.703925991693e+00   3.066228844292e+01 
1  4.408554949955e+01   6.549338460550e+01  -7.672041417746e+00 
3
 Atoms. MD step: 85000
1  5.036974875411e+01  -4.816543575451e+01  -1.887399435468e+01 
1 -1.973908042153e+01   2.183088083994e+01   3.612312093686e+01 
1 -4.419840524666e+01   8.528531367911e+00   2.671131831886e+00 
3
 Atoms. MD step: 86000
1 -4.639437269291e+01  -1.544684244654e+01  -4.247683096415e+01 
1 -6.468187460264e+00  -2.345572599272e+01   5.326897661620e+01 
1 -1.555310725017e+01   1.430703806251e+01   4.250111857267e+01 
3
 Atoms. MD step: 87000
1  3.437865193322e+01   4.605606010544e+01  -3.130479090217e+01 
1  6.230286485731e+01   1.682731925845e+01  -3.020153328636e+01 
1  3.952179690801e+01  -1.057148280260e+01   2.564358802751e-01 
3
 Atoms. MD step: 88000
1 -2.545739148519e+01   3.325872285050e+01   1.034656917789e+01 
1  2.107319177741e+01   5.643370145081e+01  -1.576690738670e+01 
1 -1.203389892040e+01  -4.695002535485e+01   3.823067367104e+01 
3
 Atoms. MD step: 89000
1  5.071287378834e+01  -1.060890481950e+01  -9.412608352922e+00 
1 -2.985082974486e+01  -2.023152093288e+01   3.588450972382e+01 
1 -2.351896176145e+01   1.688227130995e+01  -1.762526733362e+01 
3
 Atoms. MD step: 90000
1  2.602725641454e+01   1.908954698709e+01   3.382379395728e+01 
1  2.396892416892e+01   2.230098241483e+01   2.192761269758e+01 
1  3.009866795949e+00  -3.691001350602e+01   2.067808264451e+01 
3
 Atoms. MD step: 91000
1 -2.771325588350e+01  -1.392741539242e+01  -1.168634875456e+01 
1 -5.115359171378e+01   1.514508243594e+01   6.339694742610e+00 
1 -1.020404343770e+01  -2.573133648485e+01  -6.912820444126e+01 
3
 Atoms. MD step: 92000
1 -3.746067064085e+01  -1.033030184047e+01  -2.559938764967e+01 
1  3.978232096804e+01  -3.262217750674e+01  -3.086153753754e+00 
1  1.608404965185e+01   3.639825822394e+01  -1.273767698622e+01 
3
 Atoms. MD step: 93000
1  1.284561041931e+01   2.279037825229e+01   8.855512383431e+01 
1  1.924602702984e+01  -1.344016947632e+01  -1.148172493319e+01 
1  5.483775857320e+01   2.675687154050e-03  -3.251613874853e+01 
3
 Atoms. MD step: 94000
1  4.991971559465e+01   1.987126039914e+01   2.454304610306e+01 
1 -5.215862167563e+01   4.933313321885e+01  -2.529613565686e+01 
1 -3.396517560851e+01   2.893231234317e+01  -3.690282664990e+01 
3
 Atoms. MD step: 95000
1 -2.754320999821e+01   1.545232868915e+01  -4.172091139523e+01 
1 -2.391580443420e+01   3.561771369456e+01  -3.289181545570e+01 
1 -1.713410000786e+01   6.739384913863e+00   3.626874838686e+01 
3
 Atoms. MD step: 96000
1 -2.249472826258e+01  -1.409367033456e+01   2.688456049137e+01 
1 -3.278192443548e+01  -7.225617230817e+00   4.136626093735e+01 
1  4.709020694278e+01  -4.574780815461e+01   6.730007908892e+01 
3
 Atoms. MD step: 97000
1  7.995200291774e+01   2.088776642352e+01  -7.124888019845e+01 
1 -6.321509656306e+00   3.943397770087e+01   5.835976866087e+00 
1 -4.140222396140e+01  -4.428160383369e+00  -2.100029592423e+00 
3
 Atoms. MD step: 98000
1  6.782713797552e+01  -1.586017673022e+00  -4.592909273725e+01 
1  4.860235094336e+01   1.159794057869e+01   2.243652475955e+01 
1  8.645321743015e+00   1.790722145359e+01  -2.306665566936e+01 
3
 Atoms. MD step: 99000
1  5.414948608633e+00   3.709790009507e+01   8.106096632619e+00 
1 -8.028507013694e+00   2.346645660297e+01  -3.050798910395e+01 
1  1.409778815474e+01   2.730428040780e+01  -2.430270251036e+01 
3
 Atoms. MD step: 100000
1  2.820625258443e+01   3.035697193224e+01  -4.311538840196e+01 
1 -1.337193637098e+01  -1.444414150375e+01  -4.917556968117e+01 
1  7.015258435850e+01   2.572042332042e+01  -9.219999773892e+00 
