3
 Atoms. MD step: 0
1 -9.669086971854e+00  -5.646013262403e+00   3.798058803011e+01 
1 -3.736070693732e+01  -1.097714855100e+01   1.859770781562e+00 
1 -3.386780391494e+01   3.136107775586e+01  -3.410866630824e+01 
3
 Atoms. MD step: 1000
1 -8.373846211855e+00   1.979157405980e+00  -1.502498959376e+01 
1  4.763186989431e+01  -6.525676554419e+00  -5.302933474757e+01 
1  6.236277620447e+01  -1.771799547638e+01  -6.820376781857e-01 
3
 Atoms. MD step: 2000
1 -1.578158215288e+01   3.514689787815e+01   7.699286235387e+00 
1 -9.377333553949e+01  -1.854935823969e+01   1.140262286368e+01 
1  2.168309496221e+01   4.817148544926e+00   6.967701979833e-01 
3
 Atoms. MD step: 3000
1  3.242308739774e+01  -3.969624080247e+01  -3.196517505535e+01 
1  1.336815520256e+01  -2.654042654871e+01  -3.227211887670e+01 
1  3.473756144301e+01   8.387756915846e+00   2.743814366225e+01 
3
 Atoms. MD step: 4000
1  1.671811562324e+01  -1.960466774660e+01   3.978442364155e+00 
1 -7.551381017315e+00  -1.172049852611e+01   2.941691263920e+01 
1  2.888321580758e+01  -4.388930466457e+01   1.033037343034e+01 
3
 Atoms. MD step: 5000
1 -2.597915305935e+01   1.045592182871e+02   2.972901715784e+01 
1 -2.570626585930e+01  -3.883080376517e+00  -2.369998812058e+01 
1 -1.784820030228e+01  -6.033183512656e-01  -3.751233784881e+01 
3
 Atoms. MD step: 6000
1 -1.930059436995e+01  -3.793424963185e+00  -7.105057107003e+01 
1  1.666418410700e+01  -5.884481555187e+01   3.625576724505e+00 
1 -1.902205475587e+01   5.275454123768e+01   3.423802894594e+01 
3
 Atoms. MD step: 7000
1 -8.758126111297e+00   3.971215433506e+01   6.511669619396e+00 
1  6.622030765199e+01   3.807282400224e+01   5.418158005015e+01 
1  1.172163591515e+01  -1.248370577438e+01  -7.587447173125e+01 
3
 Atoms. MD step: 8000
1 -4.082020277540e+01   2.235055124348e+01   4.463753868548e+01 
1 -3.465047982364e+00   5.452529378799e+01   5.345279560242e+01 
1  5.274915977519e+00  -8.144329784321e+00  -8.216737196549e+00 
3
 Atoms. MD step: 9000
1 -3.957502603370e+01   9.553245315282e+00  -8.020452173929e+00 
1 -9.035144287811e+00   8.443531067605e+00  -3.427213622391e+01 
1  2.304991179274e+01   8.002014534856e+01   2.895266981211e+01 
3
 Atoms. MD step: 10000
1 -4.310122404526e+01   2.861355070679e+01   7.500956335398e+00 
1 -2.550819764045e+01  -3.854493558150e+01   3.181167450838e+01 
1 -1.854967539672e+00  -5.517495555331e+01  -1.425886505744e+00 
3
 Atoms. MD step: 11000
1  2.016381699183e+00   2.745989061490e+01   5.311951369636e+01 
1 -4.173765152314e+01   3.480251996366e+01  -1.285862132597e+01 
1  2.166639492495e+01  -2.858672691060e+01  -3.520241412291e+01 
3
 Atoms. MD step: 12000
1 -4.019591515001e+01  -2.762595662277e+01  -3.186912859055e+00 
1 -5.091187285568e+01   1.806955211967e+01  -5.074185016736e+00 
1  8.138866989328e+00  -2.429614354335e+01  -4.180489674373e-01 
3
 Atoms. MD step: 13000
1  4.774336883495e+01   9.689832292562e+00   2.568217361475e+01 
1  6.091750234004e+01   6.741402069638e+01   4.715613692045e+01 
1  1.951736736502e+01  -3.486922966265e+01   2.695112645436e+01 
3
 Atoms. MD step: 14000
1  5.145685556963e+01   5.260994036785e+01  -9.412779040506e+00 
1  4.474208389641e+00  -1.850861351005e+01   1.868094015033e+01 
1  1.844173530748e+01  -9.105130825041e+00  -2.689812325367e+01 
3
 Atoms. MD step: 15000
1 -9.360505821241e+00   5.404883387704e+01  -2.656238792224e+01 
1  1.751801252231e+01   2.466983911522e+01   5.304334743903e+01 
1 -2.907503298783e+01  -6.180822098570e+00   3.033572635956e+01 
3
 Atoms. MD step: 16000
1 -9.344525311900e-01   3.624672737772e+01   3.789383174313e+01 
1  4.698608515788e+01  -1.328508639494e+01  -6.164398708097e+01 
1 -3.265009590470e+01   2.460560051868e+01  -4.125821080782e+01 
3
 Atoms. MD step: 17000
1 -1.277672476481e+01  -3.830588518496e+01  -2.830454183263e+01 
1 -1.780204793794e+00   2.147666320030e+00   4.154878599889e+01 
1 -5.169934886289e+01  -2.808148667352e+01  -4.102376213329e+01 
3
 Atoms. MD step: 18000
1  2.307194982405e+01  -3.070953780650e+00   2.706924612686e+01 
1 -1.720365841711e+01   9.263471772919e+01  -3.112674882966e+01 
1  4.272550715669e+01  -9.412310912813e+00   3.545578757153e+01 
3
 Atoms. MD step: 19000
1 -6.858709788174e+01   5.246242063860e+01   7.026162559388e+01 
1 -6.450900727598e+01  -2.006687301653e+01   7.285054444202e+01 
1  2.005765736003e+01   5.692529905093e+01   4.738219533450e+01 
3
 Atoms. MD step: 20000
1  3.012043702605e+01   1.960070515660e+00   5.150283744009e+01 
1  1.750901041904e+01   4.201109537895e+01  -1.283962549393e+00 
1 -5.659698030769e+01   1.631921231157e+01   2.922245848485e+00 
3
 Atoms. MD step: 21000
1  7.638641715442e+00  -2.701668818274e+01  -2.468792013530e+01 
1 -3.329183041524e+01  -4.406422945903e+01  -3.484631411334e+01 
1  2.390858960822e+01   5.802312913673e+01  -5.572379984030e+01 
3
 Atoms. MD step: 22000
1 -2.058819722030e+01  -5.424069094240e+01   6.999615424982e+01 
1  1.451908699197e+01  -2.397331850177e+01   1.070724376483e+01 
1 -7.052875588762e+00   1.179815219633e+01  -3.665123473412e+00 
3
 Atoms. MD step: 23000
1  1.603912014343e+01   4.329260210716e+01   2.255083651295e+01 
1 -1.826861155479e+01  -1.420893984007e+01  -2.086904376340e+01 
1 -3.258759751335e+01   1.393504576348e+01   3.530982728791e+01 
3
 Atoms. MD step: 24000
1  1.429935985454e+01  -1.107452761291e+01   6.068101366607e+00 
1 -2.736434925291e+01   5.240422004350e+00  -4.304156146072e+00 
1 -9.212188094759e+01   2.666462453637e+01   1.876886524196e+01 
3
 Atoms. MD step: 25000
1 -5.808868433117e+00   2.807069521705e+01   3.422377906933e+00 
1 -2.389436952968e+01   3.096123546663e+01   2.239037012218e+00 
1  7.910346815285e+00   2.135252686588e+01  -2.729626311458e+01 
3
 Atoms. MD step: 26000
1  8.034694467377e+01   1.739189362904e+01  -5.074555009753e+00 
1 -1.446376697637e+00   8.058240436235e+01  -3.682748986629e+01 
1  2.713131797431e+01  -1.350711105807e+01   3.476732369645e+01 
3
 Atoms. MD step: 27000
1 -7.955015973168e+00  -1.810173676425e+01   1.025564067249e+01 
1  1.070512797936e+01   1.212057368677e+01   9.910707119284e+00 
1  5.281037404887e+00  -1.886688751206e+01  -5.213623664740e+00 
3
 Atoms. MD step: 28000
1 -5.083032783241e+00  -3.517422533281e+01   4.146859030514e+00 
1 -4.625298245167e+00  -2.186141595924e+01  -3.671305988993e+01 
1  8.335999387723e+00  -1.015515301225e+01  -4.169573051732e+01 
3
 Atoms. MD step: 29000
1 -6.281452613836e+00   4.048017643499e+01  -5.166364792109e+00 
1  3.009707364405e+01  -2.645908466814e+01   1.762836153309e+01 
1 -4.269620383128e+01   2.578925616253e+00  -2.276851773033e+01 
3
 Atoms. MD step: 30000
1 -1.150584838806e+01  -2.871629934551e+01  -7.301747369198e+01 
1 -1.619309814899e+01  -4.241114578387e+01   5.026153043277e+01 
1  3.480413737113e+01  -1.581304571000e+00  -2.687183578664e+01 
3
 Atoms. MD step: 31000
1 -2.580849867571e+01   3.852791002482e+01  -4.793514813826e+01 
1  3.910695500477e+01  -4.963069606178e+00  -1.844484132243e+00 
1  2.151915843389e+00  -6.746334416796e+01   1.018309750731e+01 
3
 Atoms. MD step: 32000
1  7.552333240584e+00   1.729506770987e+01  -3.821420765194e+00 
1  1.479000351530e+01  -2.670821157890e+01  -3.733118479009e+01 
1 -4.841659517075e+01   4.479507457054e+01  -3.474180601305e+01 
3
 Atoms. MD step: 33000
1 -2.226708892601e+01  -2.421144179566e+01   1.794660490911e+00 
1  6.018067549339e+01   8.662064276714e+00  -3.950472839530e+00 
1 -6.283015570422e+01  -5.062309976594e-01  -2.689878571010e+01 
3
 Atoms. MD step: 34000
1  1.355166870441e+01  -3.680788589969e+01   3.932083087691e+01 
1 -6.928499112164e+01  -5.943539422698e+01   5.428368305874e+01 
1  3.109281594840e+01  -5.244084414413e+01   7.736049555850e+00 
3
 Atoms. MD step: 35000
1  5.180805858785e+01   7.611991154258e+00   3.227585133039e+01 
1  1.924476388424e+01   7.135186306587e+00  -1.956857784172e+01 
1 -5.990567537284e+01  -1.943364091730e+01  -1.069488499076e+01 
3
 Atoms. MD step: 36000
1  1.065479898617e+01  -2.783800273200e+01  -3.030601820698e+01 
1 -5.278850810460e+01  -2.193164359142e+01   3.746979346380e+00 
1 -2.093275622982e+01   5.664399751959e+01  -1.553064054732e+01 
3
 Atoms. MD step: 37000
1 -2.823345640006e+01  -6.072372263036e+01   1.810291559470e+01 
1 -2.296989171190e+00  -2.522423007782e+01  -4.016829555521e+01 
1 -1.847952175632e+01   2.877354359937e+01   4.343002870323e+01 
3
 Atoms. MD step: 38000
1  1.318488230249e+01  -9.837682865050e+00   2.429016713348e+01 
1 -1.988180451389e+01   7.564683603051e+00  -5.550023128179e-01 
1  1.867806743043e+01  -3.217395471312e+01  -5.630337263219e+01 
3
 Atoms. MD step: 39000
1 -3.068200072639e+01  -2.982010465369e+01  -7.218147560171e+00 
1 -1.750738414065e+01  -5.561221558132e+01  -3.344642683434e+01 
1 -2.614332254173e+00   2.018992847625e+01  -1.537454752470e+01 
3
 Atoms. MD step: 40000
1  2.089885465315e+01   3.428298202804e+01  -6.186145411084e+01 
1 -7.817611657463e+01   5.293389102794e+00   2.450325304595e+01 
1 -5.930406522557e+01  -1.399360321521e+01  -8.997767040764e+00 
3
 Atoms. MD step: 41000
1  4.101992418610e+00   1.506062803527e+01  -3.211566125011e+01 
1  4.576919255140e+00  -1.370239743910e+01   3.808435393824e+01 
1  2.388688895813e+01  -1.492248454956e+01  -3.061221080262e+01 
3
 Atoms. MD step: 42000
1  6.645585340664e+01  -5.421826960874e+01  -1.289680526646e+01 
1 -1.695636354264e+01   3.514842941158e+01  -1.489295154205e+01 
1  6.820815111689e+01   8.742557964906e+01   8.753670096802e+00 
3
 Atoms. MD step: 43000
1 -4.054061168104e+00   7.345839403511e+00  -4.405070279709e+01 
1 -2.815266231097e+01  -3.330415372156e+01   2.566113463969e+01 
1  4.428069265693e+01  -3.998888943698e+01   1.792551166253e+00 
3
 Atoms. MD step: 44000
1  4.984489572150e+01  -7.966022733482e+00  -4.465608249746e+01 
1 -8.606590003783e+00  -4.218502977446e+01  -3.675755323783e+01 
1  4.866240303987e+01  -1.800131521092e+01  -6.869407581850e+01 
3
 Atoms. MD step: 45000
1  3.504567949191e+01   2.065401683320e+01  -1.184638296233e+01 
1 -5.576857136891e+01  -5.286294884371e+01   8.218081595725e+00 
1 -1.286871860660e+00   1.880931661588e+01  -5.849151267733e+00 
3
 Atoms. MD step: 46000
1  1.728500048572e+01  -1.078907263648e+01   1.971650550545e+01 
1 -7.234714781264e+01   1.715418582943e+01   5.177360771054e+01 
1 -2.202997249970e+01   5.532440678066e+00  -1.317637492819e+00 
3
 Atoms. MD step: 47000
1  6.372890843388e+01   9.070753165205e+00  -4.661172489633e+01 
1 -8.847678481883e+01   4.360135152835e+01   3.797564194867e+00 
1  1.477610377181e+01   4.722076224006e+01  -6.916033870577e+00 
3
 Atoms. MD step: 48000
1 -3.661326461375e+00   1.277153894363e+01  -1.471234499304e+00 
1  2.839313792712e+01   1.000084437210e+01  -3.641896818836e+01 
1  2.211869706008e+01   2.510358234178e+01  -1.071838120150e+01 
3
 Atoms. MD step: 49000
1  1.528697409809e+01  -3.398285781031e+01  -3.309654425168e+00 
1 -3.637287613439e+01   5.021647869510e+00  -4.311994869186e+00 
1  9.926352148955e+00   5.315590243894e+00  -3.937889023614e+01 
3
 Atoms. MD step: 50000
1 -5.715829350166e-01   2.607112339857e+01  -5.587449066783e+00 
1  6.996878643502e+01   3.262498677976e+01   1.427902936709e+01 
1  1.238502373988e+01   5.069633533182e+01   2.244243483102e+01 
3
 Atoms. MD step: 51000
1 -2.740977185032e+01   2.945766502619e+01  -1.810208170239e+01 
1  1.154359644419e+01   1.210133505553e+01   1.825934563610e+01 
1  5.843421815644e+01   3.617240404876e+01   5.907685200876e+00 
3
 Atoms. MD step: 52000
1  9.998184744247e+00   3.052526124657e+01  -3.345881151932e+01 
1 -7.250790316668e+01  -4.757926439165e+01   6.770632301053e+00 
1  5.408878611440e+01   2.898375340594e+00  -6.921475067478e+01 
3
 Atoms. MD step: 53000
1 -4.594347950009e+00   2.966813577903e+01   5.771935477826e+01 
1 -4.421786141372e+00   6.862274329351e+00   6.535200765360e+00 
1 -4.862120203486e+00   6.827396295467e+01   2.160422975530e+01 
3
 Atoms. MD step: 54000
1  2.865738135037e+01  -1.402366575822e+01  -1.009971812991e+01 
1 -2.961525005941e+01   9.349844160637e+01  -3.287169293921e+01 
1  1.901528464816e+01   2.157158160267e+01   2.431528681808e+01 
3
 Atoms. MD step: 55000
1  7.797744237056e+00  -1.649499834941e+01  -3.601245485977e+01 
1 -1.177110048761e+01  -7.156941146396e+01   3.533753987424e+01 
1  1.460284213589e+01   1.251621312039e+01   2.768891769590e+00 
3
 Atoms. MD step: 56000
1 -5.722366241267e+01   6.128870345771e+00   3.770675287125e+00 
1 -1.752230783471e+01   4.404844846627e+01  -2.416504694721e+01 
1  5.841779607539e+00   2.944779672685e+01   5.036333153813e+01 
3
 Atoms. MD step: 57000
1  3.275898419685e+01   1.550755828151e+01   4.480846888417e+01 
1  3.884144022144e+01   9.007356662582e+00   3.865993112227e+00 
1  8.230552112832e+00  -1.116468345934e+01   3.465521385768e+01 
3
 Atoms. MD step: 58000
1  5.154161335975e+01  -2.358221690995e+01   6.418301328257e+01 
1  4.553033600771e+01   3.621488885171e+01   4.900757475059e+01 
1 -3.435442703578e+01  -2.686534788084e+01  -1.602321956873e+00 
3
 Atoms. MD step: 59000
1  9.422027092687e-01   6.816433099215e+00  -2.312000951429e+01 
1 -1.766603771690e+01  -3.357785090561e+01   2.585707137531e+01 
1 -4.402982078981e+01  -5.738687359458e+01   3.633089061557e+01 
3
 Atoms. MD step: 60000
1 -7.984098032855e+01   1.563118280099e+01   1.052170182058e+01 
1  2.852124776190e+01  -6.407324868703e+00  -3.256479080972e-01 
1 -4.735306547656e+01  -3.312891839941e+01  -6.954027471766e+00 
3
 Atoms. MD step: 61000
1 -4.327055595929e+00  -2.211123484170e+01  -1.035852079529e+00 
1 -6.516302784921e+00  -1.423524149582e+01  -4.634264439546e+01 
1 -4.779542586845e+00  -3.865794071361e+01  -8.976564598628e+00 
3
 Atoms. MD step: 62000
1 -3.800842541497e+00   1.719420611907e+00   2.425482760164e+01 
1 -2.112008493766e-01  -3.267820995849e+01   3.125686992530e+01 
1 -4.548319856334e+01   3.043526196537e+01   5.067055944935e+01 
3
 Atoms. MD step: 63000
1 -1.383623438482e+00   5.927686518561e+01   2.705847236183e+00 
1 -4.041283131076e+00   8.848107350378e+01   2.402767964841e+01 
1  1.291084002721e+00  -1.128511317832e+01  -4.413585221433e+01 
3
 Atoms. MD step: 64000
1  4.406749433751e+01   3.136414004865e+01   4.850167672756e+00 
1  2.258856441090e+01  -8.395099921624e+00   9.721893453638e+00 
1 -1.653199571680e+01  -7.686568454745e+00   2.920846401092e+01 
3
 Atoms. MD step: 65000
1 -4.492893994356e+01  -2.627339035646e+01   7.072481298499e+00 
1  3.896974899386e+01   6.658519139458e+00  -2.971459205064e+00 
1  2.408328134757e+01  -3.344505830792e+01  -2.509118227477e+01 
3
 Atoms. MD step: 66000
1  2.914275146755e+00  -4.894722345312e+01   1.204566721476e+01 
1 -1.963280823589e+00   2.777688958829e+01   3.662116890013e+01 
1 -1.804162291372e+01  -1.391841285776e+01  -5.858358192203e+01 
3
 Atoms. MD step: 67000
1  2.406044294484e+01  -6.052169486115e+00   4.811262924363e+01 
1  1.932364441954e+01   2.404150187337e+01  -6.532607367849e+01 
1  9.794321250314e+00  -3.406236744754e+01  -2.530244313702e+01 
3
 Atoms. MD step: 68000
1  4.130320495379e+01   6.165767921234e+01   2.066613889127e+01 
1 -1.582617482335e+01   1.680644518839e+01  -1.186313305446e+01 
1  1.316205295874e+01   5.157797529530e+00   3.697375569158e+01 
3
 Atoms. MD step: 69000
1  1.719224227843e+00   2.289940366057e+01   4.569284967441e+01 
1  1.439078559714e+00  -2.491372097874e+01   6.040947086664e+01 
1 -3.421783865190e+00   4.512319022697e+01   1.054231751476e+01 
3
 Atoms. MD step: 70000
1  3.010948054377e+01   3.754406727264e+01  -3.324054921812e+01 
1  2.922626692914e+01  -1.977291331565e+01   8.437220839694e+00 
1  7.016602086199e+00   1.303034522328e+01  -4.749124978157e+01 
3
 Atoms. MD step: 71000
1 -6.160011165450e+01   1.314290918102e+01   5.038097748413e+00 
1  2.575063212327e+00  -2.240106191021e+01   1.873016195326e+01 
1  3.637305267623e+00   2.490141751693e+01   9.673994908606e+00 
3
 Atoms. MD step: 72000
1 -2.824098595711e+01  -1.280013275961e+01   5.187372158439e+01 
1  1.110190446142e+01   4.147390290845e+01   2.925360771580e+01 
1 -6.332065560785e+01  -1.089420822591e+01  -1.209984084754e+01 
3
 Atoms. MD step: 73000
1  4.366011126360e+01  -3.266569638753e+01   7.915146450574e+00 
1  5.521719189262e+01   2.241799282982e+01   2.208709231228e+01 
1  2.225888383907e+01  -1.575932912670e+01   3.197948668095e+01 
3
 Atoms. MD step: 74000
1 -3.647543197811e+01  -1.904863156147e+01  -1.264107982819e+01 
1 -7.884357276845e+00   2.457062477233e+01  -5.910652520367e+01 
1 -1.133427793862e+01   2.544441315107e+01  -2.037630637612e+01 
3
 Atoms. MD step: 75000
1  5.019167064442e-01   3.962115330877e+01   3.029559733275e+01 
1 -6.164799811008e+00  -6.115233687711e+01  -1.252023826590e+01 
1  1.166550445828e+01   5.358839331332e+00   1.370702611979e+01 
3
 Atoms. MD step: 76000
1  5.669735842988e+01  -1.155732298623e+01   5.882213808740e+01 
1  1.087130929358e+00   4.064892363836e+01  -2.240797240110e+00 
1  8.386998279146e+01   1.473784902120e+01   5.466423136005e+00 
3
 Atoms. MD step: 77000
1  2.000371507895e+01   3.380229744087e+01   1.174312851405e+01 
1  5.446541141607e+01   7.758683812617e+00   1.165559837266e+01 
1  6.230327408946e+01  -3.928106822747e+01   4.650697537019e+00 
3
 Atoms. MD step: 78000
1  3.728174169731e+01  -1.821447864732e+01  -1.968931884649e+00 
1  6.363964807721e+01   2.465346773585e+01   5.309456139400e+01 
1 -3.145129591559e+01   4.795031821192e+00  -3.050199053075e+01 
3
 Atoms. MD step: 79000
1 -7.458815323159e+01   3.673879635349e+01  -4.854595899125e+01 
1  3.802969831080e+01   9.037223315558e+00   1.311133034048e+01 
1 -5.391100731247e+00  -9.049884536585e+00  -3.637291797659e+01 
3
 Atoms. MD step: 80000
1 -4.928992112090e+01   3.066260554108e+01  -7.115184608149e+01 
1 -3.556036436528e+00   2.949610726001e+01  -2.256962090762e+01 
1 -1.174222138252e+00  -8.476159835572e+00   2.976710188863e+01 
3
 Atoms. MD step: 81000
1 -5.266574219470e+01  -1.601449638608e+01   5.866917048672e+01 
1 -5.715334465161e+01   1.235711293685e+01   3.227802385169e+01 
1  2.971294169422e+01  -1.409318182080e+01  -1.082754059529e+01 
3
 Atoms. MD step: 82000
1  2.130967313278e+01   5.275016040880e+01   2.898938165673e+00 
1 -6.742834537893e+01   2.621105983923e+01   8.924656429602e+01 
1  2.582217717543e+01   4.907904436820e+00  -1.846288694576e+01 
3
 Atoms. MD step: 83000
1 -6.355536823676e+01   1.490004461423e+01  -2.074911055085e+01 
1  3.983232929948e+01   6.490838007234e+01   4.404006010567e+01 
1  1.693962891832e+00   5.461099512769e+01   5.778463654581e+01 
3
 Atoms. MD step: 84000
1  3.513831897049e+00  -3.236579838731e+01   3.405015012173e+01 
1 -2.495983036357e+01  -4.649438431888e+01  -8.847593774759e+00 
1  4.104953435921e+01   1.037100779487e+02   2.413961186888e+01 
3
 Atoms. MD step: 85000
1  3.583594433526e+01  -6.956088604740e+01  -5.700054450245e+00 
1  2.475651530372e+01  -3.328736644035e+01  -2.066160276599e+01 
1 -4.964665194022e+01   1.899916445417e+01  -9.909285818940e+00 
3
 Atoms. MD step: 86000
1 -1.369164150942e+01   5.728057072389e+01   1.595500729030e-02 
1  1.046038899356e+01   5.418645131676e+00  -3.259011223502e+01 
1  3.406048285940e+01   1.134680932851e+01   5.926985487438e+01 
3
 Atoms. MD step: 87000
1  8.727836916651e+00  -2.106068863078e+01   1.108440022507e+01 
1  4.420857498921e+01   2.577408010450e+01   5.367470197621e+00 
1  1.492234015709e+01  -4.176623187333e+01   1.616633364260e+01 
3
 Atoms. MD step: 88000
1  4.981401853236e+01  -3.135962586718e+01   7.211042195626e+01 
1  3.381042445484e+01   4.811785243288e+01   1.357817995598e+01 
1  1.044575743227e+01   5.799750390902e+01  -1.122258900872e+01 
3
 Atoms. MD step: 89000
1  1.145493103134e+01   2.873657771320e+01   4.886934531216e+00 
1 -4.296252620396e+01  -5.073938003264e+01   1.205839759432e+01 
1 -6.519188940647e+01   3.590515110086e+01  -4.945173371955e+01 
3
 Atoms. MD step: 90000
1 -1.196290275836e+01  -3.937524082125e+01   4.821694219628e+01 
1  2.214778552941e+01   9.001916840799e-01   6.428358161969e+01 
1  5.561009870949e+00  -6.819102463222e+01   4.677897416065e+01 
3
 Atoms. MD step: 91000
1 -6.731644132153e+01   2.873572389368e+00  -5.438072608870e-01 
1 -8.492362706577e+00   1.627671378298e+01  -1.931969126227e+01 
1  2.453057245993e+01  -7.656494810813e-01  -1.485675156430e+01 
3
 Atoms. MD step: 92000
1 -4.309400489747e+01   1.037555824397e+00  -7.002507126917e+01 
1 -1.650761454901e+01  -3.173620788167e+01  -1.971472759192e+01 
1 -2.098756207302e+01  -3.188552107823e+00  -8.197819407261e+00 
3
 Atoms. MD step: 93000
1  2.264293180596e+01  -1.487377457963e+01   4.103325097948e+01 
1 -3.803625328578e+00  -3.898189658846e+01   3.241398589735e+01 
1  2.874212671191e+01   5.325487120116e+01  -5.154924595442e+00 
3
 Atoms. MD step: 94000
1  1.797391452825e+01   1.739283423164e+01   3.806406872063e+01 
1 -5.111167359004e+01   2.762036679697e+01  -6.980903377218e+00 
1  3.031694857997e+01   7.207405206843e+00  -3.855279577364e+01 
3
 Atoms. MD step: 95000
1  1.984814374700e+01  -1.964498124333e+01  -8.761350226801e+00 
1 -2.357131273133e+01   2.601350274903e+01  -3.757612908198e+01 
1 -1.481808366791e+01   2.568906638361e+01   6.381024775183e+01 
3
 Atoms. MD step: 96000
1  1.638391198455e+01  -2.782838311271e+01   2.404709350982e+01 
1  1.429363137755e+01  -1.150419084372e+01   2.907641153094e+01 
1  3.583440230358e+01  -1.327039584433e+00   4.958873516847e+01 
3
 Atoms. MD step: 97000
1  5.938861169020e+01   1.653483347340e+01  -5.832887956021e+01 
1  4.982179108085e+00  -9.498307471425e+00   2.232013320550e+01 
1 -8.251758388314e+01   3.290473525598e+01   4.057428415970e+01 
3
 Atoms. MD step: 98000
1  1.083770078510e+02  -2.346432602748e+01  -1.649546247778e+01 
1  1.556381884503e+01   4.172842750662e+01   3.608487933783e+01 
1  5.795866729120e+01   2.356187376006e+01   2.454099836594e+00 
3
 Atoms. MD step: 99000
1  3.578506064168e+01   4.765420934556e+01   7.454705082491e+00 
1  3.157669416803e+01   3.101067687780e+01  -1.986987086980e+01 
1 -1.999742757932e+01   1.880643923437e+01  -4.069082701666e+00 
3
 Atoms. MD step: 100000
1 -2.590897374958e+01  -5.327765299858e+01  -2.134704827559e+01 
1  2.193661831039e+01  -3.646935904112e+01  -4.810531824711e+00 
1  2.849964061478e+01   7.183344717717e+01  -2.352398294849e+00 
