3
 Atoms. MD step: 0
1  4.794470669584e+01   2.455400594003e+00  -1.935695369269e+01 
1  3.543481998889e+01  -4.760365527442e+01   3.864491888695e+01 
1 -1.794119911757e+01   1.020089413768e+01  -1.993421675186e+00 
3
 Atoms. MD step: 1000
1 -3.167361399130e+01   1.319762505642e+01   1.187146259906e+01 
1  4.899816941463e+01   1.207032562527e+01  -3.324297090446e+01 
1 -1.913190668536e+01  -1.158991512007e+01   2.028556090797e+01 
3
 Atoms. MD step: 2000
1 -2.343206040746e+01  -1.524393265875e+01  -5.502677582840e+01 
1 -1.423245911982e+01   2.988047681525e+01  -5.690765738291e+00 
1 -2.459295883753e+01   4.191581989385e+01   3.139452992528e+01 
3
 Atoms. MD step: 3000
1  5.367015088108e+00   1.215353036572e+01   1.993876758577e+01 
1  1.275931807994e+01   1.553784323205e+01  -1.858218021585e+01 
1  4.239878542204e+00  -1.603582529034e+01   9.272850236694e+00 
3
 Atoms. MD step: 4000
1 -4.435408076134e+01  -7.456455417364e+00  -1.526487756777e+01 
1  3.635155943208e+01   1.542216578875e+01  -6.875995918693e+00 
1  1.020312039422e+01   1.071995284858e+00   4.928800256301e+01 
3
 Atoms. MD step: 5000
1  3.872516647156e+00  -8.052427649719e+00  -3.434987672535e+00 
1 -3.188389646049e+01  -1.035466215083e+01   1.901373199079e+00 
1  5.410349578986e+01   2.170470067101e+01   4.752682188298e+01 
3
 Atoms. MD step: 6000
1 -3.540027035438e+01   4.374166390662e+01  -3.571666763571e+01 
1 -2.830769425466e+01  -2.785036614938e+01   3.002063329252e+01 
1 -6.691837650516e+00  -4.495810695532e-01  -3.458312406467e+01 
3
 Atoms. MD step: 7000
1 -4.020933711790e+01   3.798902352939e+01  -2.098787124471e+01 
1  4.646184172232e+00   4.753189122881e+01  -1.740475823136e+01 
1 -3.890729130076e+01  -1.918033675661e+01  -2.346752025423e+01 
3
 Atoms. MD step: 8000
1  4.314096983979e+01   2.797928606362e+01   5.972072942260e+01 
1 -6.818037435399e+00  -1.990194376729e+00   1.501070234322e+01 
1  1.313313237944e+00  -1.494192617619e+01  -3.574314403795e+01 
3
 Atoms. MD step: 9000
1  1.738125328859e+00  -3.251604400264e+01  -2.224410698723e+01 
1 -4.647861661487e+01  -9.244551597995e+00  -5.257688145139e+01 
1 -4.470077652252e+00   1.556395517164e+01   5.405452254971e+00 
3
 Atoms. MD step: 10000
1  1.022897496524e+01   1.410108561266e+01  -4.331885173650e+01 
1 -3.122446976988e+01  -1.160423963128e+01   1.521708791356e+01 
1  2.586435513048e+01  -3.530413246557e+01  -1.272962684124e+01 
3
 Atoms. MD step: 11000
1  2.622045049767e+00   2.775245391307e+01   5.552906122615e+01 
1 -8.279900226243e+01   5.274030659810e+01  -1.805530129051e+01 
1  4.413281013254e+01  -4.639512553969e+01  -2.636607076445e+01 
3
 Atoms. MD step: 12000
1 -3.899068182278e+01  -3.975746811989e+01  -1.303098417115e+01 
1 -4.239137348371e+01   2.136713091758e+01   4.712428027732e+01 
1 -8.612035171219e+00  -1.015959132874e+02  -7.299143947184e+01 
3
 Atoms. MD step: 13000
1  4.573399385273e+01   5.847811638838e+00   4.434963286607e+01 
1  3.172868075691e+01   3.961298483406e+01   1.118782093186e+01 
1  2.646278734414e+00  -2.086606803904e+01  -2.587492402920e+00 
3
 Atoms. MD step: 14000
1  4.202540657187e+01   2.239183221572e+01   1.292198329612e+01 
1  4.517325585672e+01  -7.776733223344e+01  -2.459656205343e+01 
1  1.058467059116e+01  -1.151690561052e+01  -2.897701613614e+01 
3
 Atoms. MD step: 15000
1 -2.355727356841e+01   4.683964739908e+01  -5.417132448609e+01 
1 -1.456844797100e+01  -3.147378535486e+01  -3.540040997451e+00 
1  1.525671183335e+01   5.214972123455e+01   1.223310544657e+01 
3
 Atoms. MD step: 16000
1  3.457360691413e+01  -1.543499835439e+01   1.180691770954e+01 
1  7.069417783645e+01  -9.699331884321e+00  -4.307003469723e+01 
1 -4.095227953499e+01   5.597095919929e+00  -3.127657880924e+01 
3
 Atoms. MD step: 17000
1 -4.020338006306e+01  -3.493956380486e+00  -2.118633095066e+01 
1 -1.596294083995e+01   9.482309207564e-01   9.840417193651e-01 
1 -4.073196426284e+00  -2.713794800598e+01  -2.650923027839e+01 
3
 Atoms. MD step: 18000
1  4.578070837615e+01   3.167430116562e+01   6.141552009217e+01 
1  4.336961584272e+01   3.092275889214e+01   1.002920896872e+00 
1 -3.250823498814e+01   7.195272424693e+00   3.785751369316e+01 
3
 Atoms. MD step: 19000
1 -8.136966380125e+01   1.604444853709e+00   2.744360663835e+01 
1 -1.259787877434e+01   3.692219722712e+00   2.918122050369e+01 
1  1.495082262252e+00   1.848980341981e+01   5.723629302705e+01 
3
 Atoms. MD step: 20000
1 -2.018847309659e+01   2.180203734498e+01   5.045223166113e+01 
1  1.996232920219e+00   2.989734607952e+01   1.173781485488e+01 
1 -2.881664619524e+01   8.299480628949e+00   5.620268408758e+01 
3
 Atoms. MD step: 21000
1 -5.164495345391e+01  -3.139271681224e+01  -1.393841599706e+01 
1  4.587437511843e+01   1.357610376203e+00  -4.036150826415e+01 
1  4.666414409419e+01   4.723695790726e+01  -4.186392302000e+01 
3
 Atoms. MD step: 22000
1  2.783902416365e+01  -3.081551493805e+01   1.072693069036e+02 
1  1.151316306742e+01   2.073041360769e+01  -3.757316264110e+00 
1  4.355339299183e+01  -5.082400408542e+01  -5.915972011976e+01 
3
 Atoms. MD step: 23000
1  4.481626981673e+01   1.738841581072e+01   3.319319492098e+01 
1 -2.039496662924e+01  -2.580615340869e+01  -5.548626626266e+01 
1  3.002902889516e+01  -2.851637793300e+01   1.143435105876e+01 
3
 Atoms. MD step: 24000
1 -1.020252384731e+01  -4.946536592456e+00  -4.868918243804e+01 
1 -3.421140828862e+00   5.126733938118e+00  -8.357485410987e+01 
1 -5.488160143071e+01   2.714182163479e+01   5.269025082497e+01 
3
 Atoms. MD step: 25000
1 -1.050678285337e+01   3.346354133454e+01  -2.404888007797e-01 
1  2.128217138116e+01   1.882047669822e+01  -2.807130142395e+01 
1 -8.620174106710e+00  -1.986284742039e+01  -2.640149358360e+01 
3
 Atoms. MD step: 26000
1  3.170199158049e+01  -5.119375881597e-01  -1.870864026193e+01 
1  4.789090141824e+01   4.834600336764e+01  -3.788483225965e+01 
1  9.382606092239e+00  -8.349941936088e+00   1.271097568666e+01 
3
 Atoms. MD step: 27000
1 -9.204769909766e+00  -9.736607150983e-01   3.918609235998e+01 
1  5.450364812885e+01   1.973308104592e+01  -2.412856624918e+01 
1  7.605180221335e+00   4.285051418045e+00   4.227486660757e+01 
3
 Atoms. MD step: 28000
1 -1.893739772630e-01  -2.630669122938e+01   3.864011047460e+01 
1 -2.138920162663e+01  -1.715878109368e+01   2.990662957304e-01 
1  6.175575547608e+01   1.637188252041e+01  -4.769263346468e+01 
3
 Atoms. MD step: 29000
1 -4.134087133384e+01   2.611481866134e+01   2.161963547065e+01 
1 -8.756605889556e+00  -1.280299822677e+01   1.082331904345e+01 
1  2.940936166032e+00   1.331056350580e+01  -3.868152953172e+01 
3
 Atoms. MD step: 30000
1 -1.349485788190e+01  -2.236390225400e+00  -4.573236513875e+01 
1 -2.275235348100e+01  -8.635904372326e+01   2.683810819556e+01 
1 -8.153201683275e+00   1.871092624889e+01   4.969345718975e+01 
3
 Atoms. MD step: 31000
1 -3.734267739359e+01   8.723411412697e+00  -5.513069434550e+01 
1  1.782511078091e+01  -4.396989950584e+00  -5.205579606048e+01 
1  1.982533510588e+01  -2.121250328775e+01   2.576448825319e+01 
3
 Atoms. MD step: 32000
1  2.611835019357e+00  -1.657934969101e+01  -3.052807431391e+01 
1 -1.154005919923e+01  -2.746152403107e+01  -4.347800058500e+01 
1 -7.589600643433e+00   1.804306686836e+00   1.459889647721e+01 
3
 Atoms. MD step: 33000
1 -2.016063669522e+01  -6.653685103779e+01  -6.255260322813e+01 
1  1.040705770204e+02   6.278837239731e+00   6.763757373030e+01 
1  2.530844582393e+01  -3.306595598696e+01  -1.544602441151e+00 
3
 Atoms. MD step: 34000
1  4.591655718642e+01   1.023462655648e+01   7.154694837608e+01 
1 -5.145242039791e+01  -6.455550395223e+01   9.048849767143e+00 
1  7.496776646208e+01  -3.387509455980e+01   4.034944808234e+01 
3
 Atoms. MD step: 35000
1  7.485188972337e+01  -3.784012036914e+01   9.936039913411e+01 
1  2.236834114627e+01   4.457409188312e+01  -2.760521821343e+00 
1 -1.995722698235e+01  -6.590056772479e+00   6.297842715352e+00 
3
 Atoms. MD step: 36000
1  1.073126333981e+01   2.503301791853e+00   2.299531401691e+01 
1 -5.581398753475e+01   4.926900337434e+01   1.005537323916e+01 
1 -2.288467642144e+00   5.053323240143e+01  -1.364617374080e+01 
3
 Atoms. MD step: 37000
1  5.305276276954e+01  -6.504645717185e+01   6.283659009943e+01 
1 -3.494867179911e+01  -4.794390539663e+01  -1.701237297410e+01 
1 -7.506453416600e+01   2.335555635564e+01   5.322061496442e+01 
3
 Atoms. MD step: 38000
1 -2.034689219139e+01   5.305393817354e+00   1.937454142812e+01 
1  1.966235205465e+01   4.122649435342e+01  -1.563992424277e+01 
1 -4.987901866219e+01  -5.228533800656e+01   1.257091472798e+01 
3
 Atoms. MD step: 39000
1 -1.723979987935e+01   1.177982694710e+01  -3.201411298467e+01 
1 -1.841449962943e+01  -8.276587950108e+01   2.018846678847e+00 
1  1.474015178135e+01  -3.136205292444e+01   1.369944016645e+01 
3
 Atoms. MD step: 40000
1 -6.741517140805e+00  -1.772345616299e+01  -3.746371983230e+01 
1 -6.359060992976e+01   1.853183663900e+00   2.151133236368e+01 
1 -5.129303442561e+01   7.123573535702e+00   2.167807701727e+01 
3
 Atoms. MD step: 41000
1 -4.691274246962e+00   2.724648598556e+01  -3.965545191577e+01 
1 -4.359602339448e+01  -2.587062223742e+01   5.761798667867e+00 
1 -2.375861928314e+00   4.768425589010e+01   5.601247677539e+01 
3
 Atoms. MD step: 42000
1  7.487376640281e+01   6.162049364829e+00  -2.487950175581e+01 
1  2.564008077902e+01   2.723361841502e+01  -9.697205963857e+00 
1 -7.710607900381e+00   5.169714255704e+01   5.470211440549e+00 
3
 Atoms. MD step: 43000
1  1.831834774898e+01  -6.981251544831e+01  -3.126938106485e+01 
1 -1.231885397827e+01  -7.078838781646e+01  -3.666207308426e+01 
1  2.506235500766e+01   9.427913227817e+00  -2.957080872785e+01 
3
 Atoms. MD step: 44000
1 -9.732568178172e-02  -2.671508446267e+01  -1.411229619328e+01 
1 -6.374228967889e+00  -7.503992719793e+01   2.288015548471e+01 
1  4.502044456409e+01  -2.324084308331e+00  -3.003308850077e+01 
3
 Atoms. MD step: 45000
1  1.204577239804e+01   4.253532198684e+01  -2.689247660929e+01 
1 -7.844529141499e+00  -4.643273422608e+01   1.126092571717e+01 
1  3.603571234483e+01   4.354347514878e+01  -1.439018509105e+00 
3
 Atoms. MD step: 46000
1  3.877726628227e+01  -6.311967902302e+01   6.925885845311e+01 
1 -3.938963421916e+01   8.732428974037e+01   6.321600645453e+01 
1 -3.943288388014e-01   1.484704859170e+00  -5.381320395664e+00 
3
 Atoms. MD step: 47000
1 -1.347001634884e+00   4.944631152864e+01  -8.578288687882e+01 
1 -1.395942897609e+01   4.381166806124e+01  -3.585296394952e+01 
1  3.507893297734e+01  -3.254454163552e+01  -1.310376636933e+01 
3
 Atoms. MD step: 48000
1 -1.312284792798e+01  -1.040125734527e+01  -2.943613246563e+01 
1  2.970542798810e+01  -1.359171206431e+01  -8.681220855060e+01 
1 -7.264655825027e+01   8.206778328146e+00   2.914448978146e+01 
3
 Atoms. MD step: 49000
1  3.035636828998e+01   2.810283594741e+00  -6.404565873485e+00 
1  3.476382782310e+01   4.258808291317e+01  -4.027543964134e+01 
1  4.587306567509e+01   1.625660864179e+01   1.621043276335e+01 
3
 Atoms. MD step: 50000
1  2.476357174636e+01  -2.810051697501e+01  -3.138764952178e+00 
1  4.700252661531e+01   4.832882704898e+01   3.266783415917e+01 
1  7.466413864153e+01   1.530457560579e+01  -1.264359834295e-02 
3
 Atoms. MD step: 51000
1 -1.441685447361e+01   1.962628490601e+01   1.001526749459e+01 
1 -4.132531009807e+01  -9.826266304713e+00   4.028750345785e+01 
1  5.173494379211e+01  -1.285061252320e+01  -1.685838090560e+01 
3
 Atoms. MD step: 52000
1 -9.067298435246e+00  -1.098065433509e+01   1.628687490947e+01 
1 -3.678049543878e+01  -3.267218455480e+01   1.021821657412e+01 
1  4.073200202308e+01  -2.700930654171e+00  -6.100562336065e+00 
3
 Atoms. MD step: 53000
1 -2.002470787929e+01   5.886176161936e+01   5.156787296637e+00 
1 -7.447936600315e+01   2.910431079802e+01   5.377948281424e+01 
1  1.891475321175e+00   7.641089111782e+01   2.635766363542e+01 
3
 Atoms. MD step: 54000
1  2.469807025764e+01  -5.853767558535e+00   7.225105114100e+00 
1 -1.153715251995e+01   1.076331153619e+01  -5.989251768051e+01 
1 -1.691623541868e+01  -5.734043084061e+01  -1.271478021365e+01 
3
 Atoms. MD step: 55000
1 -3.118348297470e+01  -3.285876942434e+01   2.217479744348e+01 
1  1.291043295224e+01  -3.869748857602e+01  -1.165721540002e+01 
1 -2.176734880246e+01   5.600902059580e+01   5.754254711271e+01 
3
 Atoms. MD step: 56000
1 -6.006250180751e+01   1.467929455964e+01  -5.834127159295e+01 
1  3.854093844474e+01   2.031897682953e+01   1.043819759418e+01 
1 -1.827962319636e+00   1.611726479161e+01   4.136195624718e+00 
3
 Atoms. MD step: 57000
1 -1.172041709341e+01  -2.224292748204e+01   3.061752934304e+01 
1  5.760141263064e+01  -2.214093636173e+01  -2.613862147800e+01 
1 -6.111183144966e+00   7.838218266844e+00   1.203757681082e+01 
3
 Atoms. MD step: 58000
1  3.451902947610e+01  -6.338740415946e+01   1.412687772022e+01 
1  2.490805960620e+01  -2.664886479471e+01  -3.006223849990e+01 
1 -5.901112670378e+01  -7.515453459954e+01   8.252438304291e+00 
3
 Atoms. MD step: 59000
1 -1.600023164951e+01   1.580249566501e+00  -5.385198558854e+01 
1 -5.213980003073e+00  -3.900519800328e+01   3.919875817977e+01 
1  1.413772830150e+01   1.450318411456e+01  -1.074344699950e+01 
3
 Atoms. MD step: 60000
1 -8.508747980625e+01   4.638499772578e+01   4.009096013664e+01 
1  3.488968078033e+01   4.903056690616e+01  -6.478763011309e+00 
1 -9.123946785040e+01  -1.448689760452e+01  -3.350263432740e+01 
3
 Atoms. MD step: 61000
1 -2.514189700809e+01  -3.075919661672e+01  -2.956818610267e+01 
1 -1.588733489438e+00  -9.713054855430e+00  -2.330032985080e+01 
1  4.611595934872e+00  -6.023638687373e+01   4.403273126437e+00 
3
 Atoms. MD step: 62000
1 -3.827386659461e+00   5.993449346975e+01   2.263386183005e+01 
1  7.153351697046e-01   2.129417241796e-01   3.200836973342e+00 
1  1.817797911922e+01   2.942502137758e+01   1.520967575588e+01 
3
 Atoms. MD step: 63000
1 -5.261657090422e+01   1.466151144969e+01  -3.971867120355e+01 
1  3.952187542049e+01   4.524077013586e+01   1.189358599269e+01 
1  9.059853168563e+00  -4.889437123119e+01  -6.092605796375e+01 
3
 Atoms. MD step: 64000
1  6.664305473683e+01  -7.623183465968e+00  -5.077781141540e+00 
1  2.163366872433e+01   2.949262920521e+01  -1.297084563762e+01 
1 -1.624750951893e+01   4.091917666741e+01   2.896168622228e+01 
3
 Atoms. MD step: 65000
1 -4.868564231515e+01   6.716393205661e+00   1.903575809697e+01 
1 -1.432461070633e+01   1.127725859316e+00   4.777725156016e+01 
1  3.134355394940e+01  -8.552129417076e+00   4.868322886437e+00 
3
 Atoms. MD step: 66000
1  1.352922005783e+01  -2.740676183582e+01   1.220864363652e+01 
1 -1.768066124412e+01   8.259876993178e+00  -8.975010896151e+00 
1 -1.503191035757e+01  -8.177040583899e-01  -2.464436643451e+01 
3
 Atoms. MD step: 67000
1 -4.760372212369e+01   5.760546305162e+00  -1.261757816105e+01 
1 -2.565762968585e+01   2.937935100294e+01  -5.135676269940e+01 
1  3.077350465760e+01  -5.780560990413e+00  -2.994500367674e+01 
3
 Atoms. MD step: 68000
1 -2.363297447260e+01   5.222815660927e+01   2.549357127390e+01 
1 -4.516752866357e+01   4.217618896910e+01  -3.718279977085e+00 
1 -2.280266931922e+00   2.738484982154e+01   5.427811843557e+01 
3
 Atoms. MD step: 69000
1 -2.063552304737e+00  -4.201564375942e+01   6.171165790729e+00 
1 -5.392020584529e+01   1.367723504443e+01   1.036514621435e+02 
1 -2.658613583311e+01  -5.180374341217e+01   2.553107879411e+01 
3
 Atoms. MD step: 70000
1  3.736231271582e+01  -4.691240524322e+01  -6.624922898082e+00 
1 -2.934319430574e+00   4.908147189241e+01   3.203591071338e+01 
1 -4.642314859266e+01   5.243532286972e+01  -6.023950383811e+01 
3
 Atoms. MD step: 71000
1 -2.950347471939e+01   1.911160866189e+01  -2.532118628708e+01 
1 -1.115822578694e+01   6.869490684678e+00  -3.872210279384e+01 
1 -3.314741346668e+01  -6.427529575953e+00   1.919191876560e+01 
3
 Atoms. MD step: 72000
1 -2.698616182940e+01  -1.082237120213e+01   4.309549346813e+01 
1 -5.022689479248e+00   2.621767983658e+01   2.492660568655e+01 
1 -7.294091279112e+00  -3.810540566143e+01   6.481795172239e+01 
3
 Atoms. MD step: 73000
1  5.353912941666e+01  -2.250768987678e+01   6.651492152240e-01 
1  4.588189972060e+00   1.564236153363e+01  -2.198554942754e+01 
1 -7.260919496530e-01  -2.886123929242e+01   3.993636872536e+01 
3
 Atoms. MD step: 74000
1 -2.705719072190e+01  -2.666899606599e+00   1.106394650506e+01 
1  3.487584033812e+01   3.805245138775e+01   2.160334533278e+01 
1 -4.077092580628e+01  -5.287167627930e+00  -6.308495514866e+01 
3
 Atoms. MD step: 75000
1 -1.845080546784e+01   1.973242269078e+01  -2.290997800601e+01 
1  5.493459171280e+01  -6.231882937820e+01   2.976752438753e+01 
1  3.304736237485e+01  -1.866272451892e+01  -3.072069311242e+01 
3
 Atoms. MD step: 76000
1  5.743945523241e+00  -2.660821656293e+00   3.591687480131e+01 
1 -1.148892139639e+01   1.326889153210e+01   1.953340024941e+01 
1  1.677294920995e+01   2.619504765051e+01   1.615919347064e+01 
3
 Atoms. MD step: 77000
1 -6.585603051992e+00   2.107510248920e+01  -1.846873150616e+00 
1  2.899993845810e+01   2.352101948014e+01   3.489811942106e+01 
1  3.128043223050e+01  -5.423037944185e+01   2.836786208352e+01 
3
 Atoms. MD step: 78000
1  2.782378921505e+01   3.902609219154e+01  -3.083243356981e+01 
1  3.583646903138e+01   2.531391084044e+01   4.208521377536e+01 
1  4.647965639241e+00  -4.077366298683e+01  -2.771208466788e+01 
3
 Atoms. MD step: 79000
1 -1.577032837365e+01  -1.008054572285e+01  -1.982204768138e+01 
1  2.955206508785e+01   3.253601180279e+01   7.541269623306e+01 
1 -1.235830673274e+01  -2.932016326731e+00   4.337870132063e+01 
3
 Atoms. MD step: 80000
1 -3.832332697734e+01   1.010062358417e+01  -2.203468172228e+01 
1 -2.011232015482e-01   7.349556213259e+01  -4.112794415084e+01 
1  2.688085819646e+01  -3.214284897322e+00   3.920607610540e+01 
3
 Atoms. MD step: 81000
1 -8.677160616971e-01   8.262853294233e+00   3.093193696309e+01 
1 -7.334416392648e+01   1.226244446211e+01  -1.878777027536e+00 
1  2.313118123704e+01  -2.937063604101e+00  -6.918962733959e+00 
3
 Atoms. MD step: 82000
1  2.912408042882e+01   3.504089062948e+01  -2.718520147632e+01 
1 -4.156661559295e+01   3.836225588300e+01   8.715884821284e+01 
1  4.594309609093e+01   6.116193812468e+00   1.671787308573e+01 
3
 Atoms. MD step: 83000
1 -9.226857537005e+00  -1.585792665348e+01  -2.985394974095e+01 
1  7.891709998208e+00   6.797770850634e+01  -2.194393102195e+01 
1  1.684115595184e+01   2.549631736215e+00  -1.362488352254e+01 
3
 Atoms. MD step: 84000
1  5.510602060523e+01   6.601811921556e+01  -1.484119025222e+01 
1 -1.275688160575e+01  -6.443132353680e+01   2.990456524775e+01 
1  6.830513536372e+01   8.718552632389e+01  -3.799850027613e+00 
3
 Atoms. MD step: 85000
1  7.642612322487e+01  -6.103007717212e+01  -5.531820153900e+00 
1  6.183880195335e+01  -1.614441938111e+00  -4.394336379993e+01 
1 -4.738566986695e+01   2.878419118825e+00  -1.612015830877e+01 
3
 Atoms. MD step: 86000
1 -1.929429324394e+01   3.227560692307e+01  -2.037870239466e+01 
1 -4.230915455672e+01  -2.796554342249e+01  -5.828933022605e+01 
1  3.935612747057e+01   6.940698288146e+01   5.230777603509e+01 
3
 Atoms. MD step: 87000
1  1.697152487938e+01  -2.505034482465e+01   5.578051835258e+01 
1  3.204062566918e+01  -9.472370590130e+00   4.009124116377e+01 
1  6.781608625387e+01  -1.450763604659e+01  -1.113693512968e+00 
3
 Atoms. MD step: 88000
1  2.329900272747e+01  -2.418852529515e+01   7.105537604934e+01 
1  5.430019348154e-01   4.222745956779e+00   1.879123950184e+01 
1  1.636486451994e+01   7.112132129523e+00  -3.082954112541e+01 
3
 Atoms. MD step: 89000
1  6.206441059084e+00   2.451450450825e+01  -5.087281533072e+00 
1 -2.873433839391e+01  -2.797838141996e+00  -2.342322761403e+01 
1 -3.155061483385e+01   1.657871115707e+01   1.111209121468e+01 
3
 Atoms. MD step: 90000
1 -9.499361380769e+01  -1.510964956589e+00   1.555801792370e+01 
1 -1.450998753259e+01   2.445907594056e+01   4.440573250955e+00 
1 -5.937175114947e+01  -3.697821287029e+01  -3.950822801428e+01 
3
 Atoms. MD step: 91000
1 -2.176290450573e+01  -5.688692674860e+00  -2.570572213483e+01 
1  2.181088961486e+00  -2.943258946272e+01   5.580261864365e+00 
1  2.913619121284e+01  -2.622873090353e+01   9.690094658394e+00 
3
 Atoms. MD step: 92000
1 -5.839429817252e+01   1.472457393135e+01  -1.239581550067e+01 
1 -3.321997940820e+01  -5.239459099729e+01   3.375307050876e+01 
1 -4.706046175314e+01   1.670566370642e+01  -2.552318158638e+01 
3
 Atoms. MD step: 93000
1  3.120183452162e+01   6.345566485803e+00  -8.822592906471e+00 
1 -1.021400146376e+01  -1.421873810544e+00   5.092071001215e+01 
1 -2.953265981528e+01   3.883000681906e+01  -8.748223711180e+01 
3
 Atoms. MD step: 94000
1  1.952080542538e+01   8.124731880352e+00  -4.546275125030e+01 
1 -4.787420787173e+01   5.782470458586e+01   1.954807162184e+01 
1  1.575378028335e+01   1.675995106480e+01   2.940360309102e+01 
3
 Atoms. MD step: 95000
1 -1.537347384190e+01  -8.437166645468e+01  -7.605639258298e+01 
1 -9.318064375338e+00   4.454295398459e+01  -4.947365790829e+01 
1 -3.051150470091e+01   3.666006022622e+01  -1.758078386974e+01 
3
 Atoms. MD step: 96000
1 -3.313674811275e+00  -3.137095726243e+01  -1.363486317952e+01 
1  3.536743561455e+01   1.212412563548e+01   1.569210196831e+00 
1  1.907116172317e+01   6.804487645034e+00   5.365462424085e+01 
3
 Atoms. MD step: 97000
1  7.686586059030e+01   1.017829907770e+01  -1.591667323851e+01 
1 -6.326030704241e+00  -4.034965459579e+01   3.469942435696e+01 
1 -6.044304842442e+01   1.573775876073e+01  -9.611292152392e+00 
3
 Atoms. MD step: 98000
1  3.865730303042e+01  -4.400222111515e+01  -3.412440914766e+01 
1 -2.832613551981e+01   7.815261966294e+00   3.095657729498e+01 
1  3.182921667366e+01   2.388569891502e+01  -1.811603902253e+01 
3
 Atoms. MD step: 99000
1  1.373589820088e+01   3.756344554418e+01   6.411048345836e+00 
1  3.033568325450e+01  -7.794643102610e+00  -1.336883921900e+01 
1  1.055291803086e+01   4.546264519729e+01  -1.162570941824e+01 
3
 Atoms. MD step: 100000
1 -1.455152569209e+01   2.897916131387e+01   1.393198707928e+01 
1 -3.067903895204e+01  -6.028649262501e+01  -4.183566121194e+01 
1 -6.057507528663e+00   2.096868491173e+01  -2.775628220441e+01 
