3
 Atoms. MD step: 0
1 -6.013684185530e+00   4.710715937466e+01   1.514475352429e+01 
1 -2.937017212051e+01   4.219933072670e+01  -8.005051710473e+00 
1 -9.197222215182e+00   3.486056261097e+01  -2.186622053354e+01 
3
 Atoms. MD step: 1000
1  4.381566914941e+01   1.074285225209e+01   3.794693272211e+01 
1  1.491757462941e+01   3.448233595618e+00  -1.476369537232e+01 
1 -3.107116175632e+00   5.678428342435e+01  -7.615375235364e+00 
3
 Atoms. MD step: 2000
1 -1.027294775782e+02   5.708210626236e+01  -6.932468853018e+00 
1  2.969734231715e+00   3.356507560873e+01  -2.346079256280e+01 
1 -3.927440525335e+01   4.041456352326e+01  -1.543945933072e+01 
3
 Atoms. MD step: 3000
1  2.085044247484e+01  -8.073382918330e-02   2.873875518406e+01 
1  3.095751000819e+01   2.416960460504e+01  -1.579762383618e+01 
1 -6.866884364849e+01   4.196170413965e+01  -3.804939841385e+01 
3
 Atoms. MD step: 4000
1 -4.502487164319e+01   1.696637646172e+00   9.600854616231e+00 
1  9.712834529255e+01  -5.440731509855e+00   3.099215793117e+00 
1 -1.429500297555e+01  -4.422400112447e+01   5.005377449990e+01 
3
 Atoms. MD step: 5000
1  1.076672744815e+01   2.964576271833e+01  -3.855220957481e+01 
1 -5.372356458011e+00  -1.633006655648e+01   6.104541338635e+00 
1  2.787599635930e+01   6.731921176751e+00   2.658204915886e+01 
3
 Atoms. MD step: 6000
1 -5.403054343670e-01  -3.996324308947e+01  -3.619400220617e+01 
1 -2.220743941508e+00  -4.236156430738e+01   1.905385355793e+01 
1 -4.364935596466e+01   6.006144548404e+01  -3.338835958529e+00 
3
 Atoms. MD step: 7000
1 -1.394894266021e+01   2.353624955573e+00   1.114253846357e+01 
1  4.783991890628e+01   2.540034863413e+01  -5.778709357483e+01 
1 -2.490550573931e+01   3.225478409857e+01  -3.374662097263e+00 
3
 Atoms. MD step: 8000
1 -2.876468154140e+01  -5.387680215990e+01   5.301866879528e+01 
1 -3.814217907711e+01  -1.765987896791e+00   1.281416068425e+01 
1 -1.206374348286e+01   1.043004176950e+01   1.182154406992e+01 
3
 Atoms. MD step: 9000
1  1.276558114572e+01  -2.095689924407e+01   7.211623160839e+00 
1  2.503859476316e+01  -3.863408807177e+01  -3.036043441138e+01 
1  6.390886592767e+01  -5.195505372211e+01  -6.924135553379e+01 
3
 Atoms. MD step: 10000
1 -3.030456402604e+01  -2.943459689434e+01  -2.834108371814e+01 
1 -2.289544244808e+00  -3.159875458078e+01   4.957252315885e+00 
1  3.823653968310e+00   4.985442381653e+01   3.005164135175e+01 
3
 Atoms. MD step: 11000
1 -2.782578902739e+01  -2.916560102609e+00   3.137471381043e+01 
1  3.959061914288e+01   5.471328940209e+01  -2.459424720812e+01 
1 -2.580477802327e+01   7.164731022359e+00   8.532521820764e+01 
3
 Atoms. MD step: 12000
1 -2.759502948817e+01   1.699175841785e+01  -6.971227721588e+01 
1  4.040243551934e+01   3.241936169156e+01  -1.899529422561e+01 
1 -4.558157359133e+01  -2.656884041951e+01   3.372878305195e+01 
3
 Atoms. MD step: 13000
1  5.815471751985e+01  -1.409979576938e+01  -4.058438500029e+01 
1  4.377390768827e+00  -8.934495679756e+00  -4.285840616828e+01 
1 -3.237276785416e+01   1.996803601705e+01  -2.385466115703e+00 
3
 Atoms. MD step: 14000
1  5.607828091757e+01   3.575893132618e+01  -6.078667451400e+00 
1 -1.723888554423e+01   3.280691418957e+00  -1.992669157478e+01 
1 -5.529320726642e+01   1.653278482236e+01  -5.258856965102e+01 
3
 Atoms. MD step: 15000
1  1.655134432130e+01  -1.968513214551e+01  -8.757946950917e+00 
1  1.934784876603e+01   3.624427283738e+01  -3.424349219717e+01 
1  3.393606361297e+01   1.223107718252e+01  -5.596695491151e+01 
3
 Atoms. MD step: 16000
1  2.058078963078e+01  -1.458485837028e+01   2.855221822248e+01 
1 -8.836026630165e+00   2.682393092687e+01   7.413198357820e+01 
1  1.516829848211e+01  -4.429131417519e+01  -4.866343007488e-01 
3
 Atoms. MD step: 17000
1 -1.566012892422e+01  -2.364122792514e+00   2.627487112047e+01 
1  7.210070734329e+01   5.324940711232e+01   2.365028964453e+00 
1  5.179930437267e+01  -5.039522667030e+00   1.391016052405e+01 
3
 Atoms. MD step: 18000
1 -6.866876300801e+01  -4.334500765860e+00  -1.012917044013e+01 
1  2.564239535250e+01  -2.687574400617e+01  -4.737086947436e+01 
1  3.037660754284e+01   8.669613961513e+01   5.531752920120e+01 
3
 Atoms. MD step: 19000
1  2.238164356580e+01   1.902761080022e+01   6.309751369764e+00 
1 -2.210271684727e+01  -5.793515482155e+01   4.882272301940e+01 
1 -4.206251023610e+01   3.569824654528e+01   4.284682245149e+01 
3
 Atoms. MD step: 20000
1  5.011104209822e+01  -3.926704418288e+00   4.879478482699e+01 
1 -1.870974045713e+01  -4.072829664935e+01   2.353973139767e+01 
1  3.929358196238e+01   6.361102696054e+01   1.235292547695e+01 
3
 Atoms. MD step: 21000
1  5.739182040868e+01  -4.930518849548e+01  -1.045635247942e+01 
1  3.685071041401e+01   7.401752058206e+01  -1.100171396301e+01 
1  4.287975387200e+01   2.951667545604e+01  -6.338901967469e+00 
3
 Atoms. MD step: 22000
1 -2.844779292324e+01   1.800010172270e+01  -5.988577653752e+00 
1  2.623905315388e+00   6.154993097215e+00   4.605475837893e+01 
1 -1.786097102224e+01   3.271049052976e+01   6.481216080469e+00 
3
 Atoms. MD step: 23000
1  1.485888030995e+01  -4.535640632212e+01   3.677430438896e+01 
1 -1.315412134243e+01  -4.187740757189e+01   4.637389802390e+01 
1  1.835858570119e+01   7.896131152718e+00   3.337914070854e+01 
3
 Atoms. MD step: 24000
1 -3.318106706390e+01   1.278748170845e+01   9.826106554354e-01 
1 -6.045221949471e+00   5.163667840200e+01  -2.384180916675e+01 
1  1.250904497195e+01  -1.066157448996e+01  -3.820618266172e+01 
3
 Atoms. MD step: 25000
1 -5.465749460997e+00  -4.823502226961e+00  -6.199884360522e+01 
1  3.739205329320e+00  -2.359706461700e+01   8.368876897976e+01 
1 -2.471349732018e+01  -2.817074711696e+00   4.070505455281e+01 
3
 Atoms. MD step: 26000
1  1.108550506995e+00  -8.857587543759e+00  -7.881794623780e+00 
1  5.302765538256e+01  -1.649778344122e+01   2.004161461623e+01 
1 -5.470351773962e+01   6.226505001604e+00   1.299479268840e+01 
3
 Atoms. MD step: 27000
1 -2.499455706336e+01  -1.354113592108e+01  -6.057543896233e+01 
1  3.349333032102e+01  -3.438460422893e+01  -4.207680234523e+00 
1  3.359640207861e+01   1.695781892298e+01   8.820850271484e+00 
3
 Atoms. MD step: 28000
1 -4.170529720752e+00  -4.861268794780e+01  -6.648839650400e+01 
1  4.318548175073e+01  -1.144527727260e+00  -7.875631600102e+01 
1  5.703291403749e+01   8.899375134915e+01  -8.557107539706e+00 
3
 Atoms. MD step: 29000
1 -9.212267860113e+01  -5.583515177475e+01   1.831592071257e+01 
1 -2.116552104089e+00  -5.386233647937e+01  -1.081709615562e+01 
1  8.410630602060e+01  -1.176410286465e+01   4.008466405971e+01 
3
 Atoms. MD step: 30000
1 -5.661478214193e+01  -2.935179584212e+01  -1.132309562311e+01 
1 -1.469669327777e+01   3.525577839470e+01   4.222100885973e+01 
1 -2.659943125550e+01  -2.100886766269e+01   2.270731034324e+01 
3
 Atoms. MD step: 31000
1 -1.801254892452e+01  -4.174445345653e+01  -1.705038684109e+01 
1  1.329614243714e+01  -1.992020566786e+01  -3.262652832691e+01 
1  7.927136020013e+00   1.129562705457e+01   2.398784013885e+01 
3
 Atoms. MD step: 32000
1  1.703732326754e+01  -6.348516675548e+01  -2.041173822742e+01 
1  4.671369009664e+01  -3.103336079652e+01  -3.586536728413e+01 
1  2.916523226660e+01  -4.693589462172e+00   1.309154784183e+01 
3
 Atoms. MD step: 33000
1 -8.127980718422e+01   1.067432715107e+01  -1.213484726601e+01 
1  3.651821618591e+01   8.303029240518e+00   4.986141995729e+01 
1  5.242312198273e+01   4.379359750159e+00   4.234696664160e+01 
3
 Atoms. MD step: 34000
1  1.372756168756e+00  -4.164067677198e+01  -5.530874352854e+01 
1  1.844482751800e+01  -3.511060217375e+01   1.136435451280e+01 
1 -3.588333988636e+01  -6.942698746288e+01  -8.333991326370e+00 
3
 Atoms. MD step: 35000
1  3.469635914667e+01  -1.769851425191e+00  -3.302431465831e+01 
1  1.888528723340e+01   4.872052137501e+01   3.870508363272e+00 
1 -5.057044636010e+01  -6.086264918742e+01  -4.594762845880e+01 
3
 Atoms. MD step: 36000
1  1.925416114650e+01  -4.569042844829e+01  -1.957272056329e+01 
1  1.228039279344e+01  -1.119339635052e+00  -2.338851188474e+00 
1  1.574150733397e+01  -3.515558389488e+01   6.648603443392e+01 
3
 Atoms. MD step: 37000
1  3.060834017750e+01  -7.557309694737e+01   1.965154327536e+01 
1  3.637391138295e+01  -2.678836649966e+01   1.506740246027e+01 
1  7.015539785671e+00  -5.118132942410e+01  -2.350138206368e+01 
3
 Atoms. MD step: 38000
1  2.796615338300e+01  -9.801694192440e+00   7.664483236704e+00 
1  1.408296827372e+01  -1.096386972603e+01  -2.399348086839e+01 
1 -4.687654150346e+01  -8.112516426221e+01  -9.946706672698e+00 
3
 Atoms. MD step: 39000
1  2.429411346077e+01   2.997702654960e+01  -2.520347066207e+01 
1 -4.114785885109e+01   2.075108563808e+01   2.699412016378e+01 
1 -6.938737220477e+01  -3.186029632135e+01   3.487963917071e+01 
3
 Atoms. MD step: 40000
1  1.532545516708e+01   3.964735949638e+01   2.860740245359e+01 
1  2.203730354772e+01   1.346599948775e+01  -4.641905810840e+01 
1 -2.452185227701e+01   3.025218764138e+01  -1.611580189309e+01 
3
 Atoms. MD step: 41000
1 -1.734065140499e+01   4.270998561210e+01  -5.068405886578e+01 
1 -5.302850433831e+00  -1.495540338757e+01  -2.199008549512e+01 
1  5.301562638045e+00  -1.085382877937e+01  -9.890564577809e+00 
3
 Atoms. MD step: 42000
1  1.410049773086e+01   3.028792073754e+01  -7.096805591227e+00 
1  2.959062255165e+01   3.036710186648e+01  -1.626711162210e+01 
1 -4.524491728946e+01   6.280905954154e+01  -1.785440138134e+01 
3
 Atoms. MD step: 43000
1  1.288707420490e+00  -4.785621970088e+01   4.177704277661e+01 
1 -9.607343408580e+00   1.144912904009e+01  -4.495444457869e-01 
1 -1.900303597086e+01   3.055213991374e+01   2.003674416789e+01 
3
 Atoms. MD step: 44000
1  1.296899875230e+01   6.644246842287e+01   4.692529253219e+01 
1  2.412965256063e+01   1.627969413946e+01  -3.576827257062e+01 
1  5.864486493874e+01  -2.168402126237e+01  -4.073073902426e+01 
3
 Atoms. MD step: 45000
1 -3.128333683742e+01  -2.716662885459e+01   8.669785895476e+00 
1 -4.237837716920e+00  -1.663241470023e+00  -3.615373186034e+01 
1  1.101641449253e+01  -1.436132763079e+01  -3.303863147298e+01 
3
 Atoms. MD step: 46000
1  2.845051144020e+01   3.212148138275e-01  -3.348261731632e+01 
1 -3.077818427385e+01   3.827207402159e+01  -3.238860131993e+01 
1 -3.320883445406e+01   1.827560436891e+01   6.239791934511e+01 
3
 Atoms. MD step: 47000
1  2.965054885595e+01   1.635075628627e+01  -6.268358330684e+01 
1  2.294761174829e+01  -1.651065423864e+01   1.960756620952e+01 
1  1.846487414356e+01  -1.590759415663e+01   1.818934288183e+00 
3
 Atoms. MD step: 48000
1 -4.738892647092e+00   2.132386589360e+01  -2.938764543685e+01 
1 -1.058018562942e+01   5.567374649046e+01  -1.106586412770e+01 
1 -3.170010887192e+00  -3.545298613517e+01   5.472468181649e+01 
3
 Atoms. MD step: 49000
1  1.387913386280e+01   2.558313647597e+01   5.442616205920e+01 
1 -2.390213922322e+01   4.632878910377e+01  -3.045125655811e+01 
1 -8.289224803710e+01  -1.105853495907e+01   1.057312603005e+01 
3
 Atoms. MD step: 50000
1 -4.577046809895e+01   4.987187879216e+01   3.830881062953e+01 
1 -5.355555258119e+01  -2.570813573907e+00   1.049403364031e+01 
1  2.876770134045e+01  -6.625101391066e+00  -2.976520984982e+00 
3
 Atoms. MD step: 51000
1  1.978957568696e+01   5.505852510712e+01  -3.205495685159e+00 
1 -2.319887797122e+01   2.573724623058e+01   2.015429328986e+00 
1 -5.859838549371e+00   9.709820973775e+01   2.036968039803e+01 
3
 Atoms. MD step: 52000
1 -6.639656294507e+00   6.440218187494e+00   3.265919850233e+01 
1 -7.467559047021e+00  -6.478895608734e+01  -2.471852671666e+01 
1 -1.798924094898e+01   1.159000284453e+01  -6.954193411144e+00 
3
 Atoms. MD step: 53000
1  9.655820639178e+00   1.400785398306e+01   6.044211267629e+01 
1 -1.426337358529e+01  -3.555565483678e+00   7.278705732737e+01 
1 -1.770443826482e+00  -7.371156784032e+01   1.331943923648e+01 
3
 Atoms. MD step: 54000
1  1.703743792652e+01   2.695313377669e+01   3.181201826090e+01 
1 -6.265507842739e+01   2.657369818235e+01  -3.477898500432e+01 
1  2.003567024968e+01   1.166841949336e+01   1.397940402277e+01 
3
 Atoms. MD step: 55000
1  1.258660917799e+01  -5.379058682638e+01   6.626107159252e+01 
1 -7.534964546175e-01   6.997112767496e+00   1.874135937791e+01 
1  4.720222999779e+01   1.417024515712e+01   1.128954807383e+01 
3
 Atoms. MD step: 56000
1 -1.718292342534e+01   3.678738024943e+01   1.374561363889e+01 
1  5.593932294473e+00   1.052496453595e+02  -6.274644760613e+00 
1 -4.470151920915e+01  -3.262812947383e+01   4.531800148936e+01 
3
 Atoms. MD step: 57000
1 -2.992082435906e+01   1.532936583076e+01  -7.965382702765e-01 
1  5.863355255549e+01   4.447028685040e+00   9.598565609266e+01 
1  3.082382675846e+00  -1.348036226589e+01   3.305899454983e+01 
3
 Atoms. MD step: 58000
1  3.763614940514e+01  -4.382384643761e+01  -5.089219990799e+00 
1 -2.502418307542e+01   4.117895881511e-02  -9.736746092005e+00 
1 -8.402042862711e+01  -4.564665721206e+01  -6.759787648830e+01 
3
 Atoms. MD step: 59000
1 -1.721200302457e+01  -2.129364694072e+01  -3.553571938932e+01 
1  3.008105930168e+01   4.478021275640e+01  -1.559870674162e+01 
1  4.344040455210e+01  -6.074716451534e+00  -1.135211822687e+01 
3
 Atoms. MD step: 60000
1  5.201700607965e+01  -5.839809699340e+00   7.676290447689e+01 
1 -3.761837316686e+01   1.599362175417e+01  -2.635562499439e+01 
1  1.611833748048e+01  -4.366810038436e+01   5.505066885105e+00 
3
 Atoms. MD step: 61000
1 -1.722909713926e+01   2.358957819550e+01   3.434142615624e+01 
1 -9.998607741897e+00   4.477020151112e+01   6.618635120654e+00 
1  6.525611072732e+01   2.124797837082e+01  -3.891530136819e+01 
3
 Atoms. MD step: 62000
1 -4.019011782474e+00  -2.903857112980e+00  -2.821156945838e+01 
1  5.064150777492e+01   5.262713748959e+01   2.627981955023e+01 
1  3.344140954527e+01   1.652613689901e+01   3.961208027928e+01 
3
 Atoms. MD step: 63000
1 -1.482318852822e+01   1.097076539466e+01   5.416961885295e+00 
1  1.452546998329e+01  -5.134178236937e+01   2.260796944383e+01 
1  1.638810569414e+01  -2.626745380286e+00   2.978158225684e+01 
3
 Atoms. MD step: 64000
1 -2.101935093308e+01   3.320860562079e+01  -4.959788995025e+00 
1 -7.335545807301e+01  -3.532949614759e+01  -4.545846602120e+01 
1 -4.141862882088e+01  -6.963953200884e+01   8.094694432876e+00 
3
 Atoms. MD step: 65000
1 -1.738668013366e+01  -7.315464584338e+00   1.837837279036e+01 
1  1.047789805248e+01  -4.423763679464e+01  -4.150675056356e-01 
1  1.223969881038e+01   1.218116090593e+01   8.065286227556e+00 
3
 Atoms. MD step: 66000
1 -2.008693373571e+00  -4.046408101785e+01   8.322112281633e+01 
1  1.644690142892e+01  -4.748961766103e+01  -3.685291936523e+00 
1 -5.815179378726e+01   1.676538243187e+01   6.134818719210e+01 
3
 Atoms. MD step: 67000
1 -9.498460317321e+00  -3.165632132999e+01   2.590692460216e+01 
1 -4.532685941995e+01  -3.720900622509e+01   3.411809621489e+01 
1 -1.678133057993e+01   1.675788550389e+01  -4.176723395373e+01 
3
 Atoms. MD step: 68000
1 -2.090590240858e+01  -8.271912485565e+00   1.764180909420e+01 
1  3.062663249749e+01   1.755731802079e+01  -4.884754328781e+00 
1 -1.060681090850e+01   3.707256538074e+01   1.857951958142e+01 
3
 Atoms. MD step: 69000
1  8.031441213638e+00  -1.357077033917e+01   4.109601706434e+01 
1 -2.454400759453e+01  -1.727196894872e+01   4.129230020425e+00 
1 -7.753777215303e+00   3.426306775064e+01   3.758148230839e+01 
3
 Atoms. MD step: 70000
1  4.643272194015e+01  -2.196957688232e+01   2.942079235805e+00 
1 -6.246553915732e+01   5.448374946180e+00  -5.267277812651e+01 
1 -4.772168329561e+01  -1.024571351954e+02  -1.093620296394e+01 
3
 Atoms. MD step: 71000
1 -2.054884853089e+00  -1.902542526806e+01   5.083750345410e+01 
1  5.134100615928e+00  -4.851355956976e+01  -4.148457340134e+01 
1 -3.544851913893e+01  -1.466092821303e+00   3.034196999191e+01 
3
 Atoms. MD step: 72000
1  6.350749345137e+00   4.556401059276e+00  -1.055944790290e+01 
1 -1.583034325606e+01  -3.583562661712e+01   4.628175017640e+00 
1 -1.968315180750e+01  -1.693113122550e+01   2.006714960147e+01 
3
 Atoms. MD step: 73000
1 -3.208420962134e+00   2.567151788465e+01   4.729112687935e+01 
1 -2.115661441059e+01   2.339943118044e+01  -1.341135719404e+00 
1  5.696474320901e+01  -3.386647214086e+01   1.897386975565e+01 
3
 Atoms. MD step: 74000
1 -2.089608621447e+01  -7.629116266243e+01  -4.128164226764e+01 
1 -5.796786295585e+01   4.168014934822e+01   3.216123140339e+01 
1  1.693722663438e+00  -2.236706080505e+01  -5.427923576092e+01 
3
 Atoms. MD step: 75000
1  2.601707063206e+01  -4.288881013893e+01  -2.407703986748e+01 
1  9.561993940043e+00   1.906968143900e+01  -4.318402312018e+01 
1 -1.371728610038e+01   3.293000360660e+01   1.210754374042e+01 
3
 Atoms. MD step: 76000
1  3.428071993901e+01   4.147876222844e+01   4.396229691749e+00 
1 -5.387933887503e+01  -1.766339678868e+01   1.613710036486e+01 
1  3.228377747026e+01  -2.529209503129e+00   1.108431560033e+02 
3
 Atoms. MD step: 77000
1 -1.744185711806e+01  -4.490461938549e-01   4.361101689523e+01 
1  1.357306621401e+01   1.029600597192e+01  -1.187950920737e+01 
1 -1.429186181284e+01  -1.724322699767e+01  -3.844348041922e+00 
3
 Atoms. MD step: 78000
1  3.031723507115e+01  -5.807589148369e+01  -2.097029046217e+01 
1  3.022060691724e+01   3.419280813654e+01   4.289824804588e+01 
1 -5.638592720629e+00   7.156101658677e+00   1.805281738983e+01 
3
 Atoms. MD step: 79000
1  4.633642911997e+01  -4.274073396409e+01  -3.535180701975e+01 
1 -5.651401912042e+00   1.951725787608e+01   1.227274585688e+01 
1  3.430112389534e+01  -1.350255267208e+01   2.763212268857e+01 
3
 Atoms. MD step: 80000
1  2.784380432764e+01   3.222086336393e+01   3.880331902839e+01 
1 -8.309750371907e+00   1.815477342998e+01   3.673263755676e+01 
1  4.874927039377e+01   3.032874383034e+01  -1.991164816088e+01 
3
 Atoms. MD step: 81000
1 -2.831896798292e+01   3.241303313136e+01   5.466308662942e+01 
1 -5.588328766358e+01   4.565370295661e+01  -1.447258904848e+00 
1 -1.403665351225e+01  -5.662754308106e+01  -3.698137556629e+01 
3
 Atoms. MD step: 82000
1  2.403870233490e+01   2.473867150706e+01   2.469765670264e+01 
1 -4.888263319576e+01   5.026197667888e+00  -6.765429625054e+01 
1  2.055476024988e+01   2.993288497985e+00  -2.188812254718e+01 
3
 Atoms. MD step: 83000
1 -3.853159656319e+01  -1.541114454478e+01  -1.794874112819e+01 
1  3.447220245460e+00   5.293573263457e+01  -9.784890843693e+00 
1  1.243199970509e-01   1.144374305179e+01   7.125620385807e-01 
3
 Atoms. MD step: 84000
1  3.447743966473e+01  -1.653671144334e+00   4.560981716574e+01 
1  6.053152613975e+01   2.740709736980e+01  -3.633310473672e+01 
1  1.778669342997e+01   3.253270869286e+01   2.150753916794e+01 
3
 Atoms. MD step: 85000
1 -4.763812061598e+01  -4.811632572556e+01  -6.067867914407e+00 
1 -1.973164558917e+01  -2.745743605406e+01  -6.828379207459e+00 
1 -1.013190774829e+00  -2.871323088422e+01   3.522382005784e+01 
3
 Atoms. MD step: 86000
1  7.800336893588e+00   4.415113651535e+01   4.093827904482e+01 
1  4.129093934323e+01   5.657218815700e+01  -1.071470537491e+01 
1 -3.989123528371e+01   2.359432762740e+00   2.442281027397e+01 
3
 Atoms. MD step: 87000
1  8.267273879996e+01   5.917471675781e+01   2.519012307150e+01 
1 -5.531156206259e+01   2.857284327069e+01  -2.068590938418e+01 
1  4.350326749558e+01   1.169251090889e+01  -2.336823628708e+01 
3
 Atoms. MD step: 88000
1  4.092129447000e+01  -7.995257521342e+01   7.818764064822e+01 
1  2.301563848668e+01   5.914143934250e+00  -1.447071217877e+01 
1 -6.727486869161e+01   1.484294915204e+01  -6.296649405815e+00 
3
 Atoms. MD step: 89000
1 -2.253779750497e+01  -2.693242558085e+01   1.065392560061e+01 
1 -4.680169608068e+01  -1.302807968920e+01   9.564719305014e+00 
1 -6.063797949399e+00  -2.810672726685e+01  -3.899236310874e+01 
3
 Atoms. MD step: 90000
1  5.930561291228e+01   3.907026148409e+01   6.780810960396e+01 
1  3.478014453236e+01   7.921730784889e+00   7.322485007707e+00 
1 -1.500942660437e+01   2.253697546673e+01   1.940118245187e+01 
3
 Atoms. MD step: 91000
1  4.200146485417e+01  -2.832117301844e+01   6.601994244371e+00 
1 -4.768520312375e+01   1.687992573368e+01  -4.127249026566e+01 
1 -1.689217611064e+01  -1.861155560864e+01  -1.709662151289e+00 
3
 Atoms. MD step: 92000
1 -2.934093555251e+01   5.108160727928e+00  -9.972785027404e+00 
1 -1.009289467218e+01   1.135173208826e+01   2.306913391341e+01 
1 -2.240485584333e+01   2.113904055858e+01  -3.237011599281e+01 
3
 Atoms. MD step: 93000
1 -1.184797667866e+01   8.812935053986e+00   5.470212678484e+01 
1  1.990693290348e+01   4.577143529985e+01   5.245113364807e+00 
1 -5.340646735610e+01   1.205058140666e+01  -4.382213059994e+01 
3
 Atoms. MD step: 94000
1 -4.948729382887e+00   5.630762315439e+01   4.319771323910e+01 
1  1.619431009840e+01   2.102526757341e+01   6.997208317275e+00 
1 -6.980289726007e+01   1.177186770618e+01  -3.016852870395e+00 
3
 Atoms. MD step: 95000
1 -3.556961480994e+01  -4.533729067124e+01  -1.392476964695e+01 
1 -5.155525597954e+01   3.778365010805e+01   1.974479749945e+01 
1  2.215910222157e+01   2.699655417419e+01   4.989600659762e+01 
3
 Atoms. MD step: 96000
1 -1.878280300244e+00   2.771725118799e+01   3.322627796204e+01 
1 -7.964616150003e+01  -3.700148822628e+01  -6.522317502744e+01 
1  3.256361938729e+01   3.067300794619e+01  -4.118760760150e+01 
3
 Atoms. MD step: 97000
1 -2.209550400769e+01  -1.559802847163e+01  -4.225745206492e+00 
1 -4.598995098676e+01   3.888217114659e+01   6.227026046123e+00 
1  8.723496851531e+01  -5.190824637004e+01  -4.969865571190e+01 
3
 Atoms. MD step: 98000
1 -3.953430420220e+01   2.485220522340e+01  -5.377646576132e+00 
1  6.308605283623e+01   8.141100305350e+00   3.426936469924e+01 
1  1.848954102819e+01  -1.592444396286e+01   5.646549495360e+01 
3
 Atoms. MD step: 99000
1 -5.506116767746e+00  -4.101373307149e+01  -3.586579796326e+01 
1  1.102717781194e+01   1.565821797003e+01   2.500510829031e+01 
1  4.066556635965e+01   6.870052712995e+00   1.969709055872e+01 
3
 Atoms. MD step: 100000
1 -6.806055250190e+01  -1.146966955208e+01   9.332809085237e+00 
1  1.198400173179e+01  -2.692509095377e+00   5.066340303612e+00 
1 -1.669128935415e+01  -2.649602560264e+01  -2.335642853244e+01 
