3
 Atoms. MD step: 0
1  9.742770015445e+00  -3.764180332028e+01   2.734977926231e+01 
1  8.464838861656e+00   4.089039136647e+01  -8.676986617057e+00 
1 -1.733853031990e+01   3.565121510765e+01  -1.048398393663e+01 
3
 Atoms. MD step: 1000
1  2.373315964258e+01   1.686299360390e+01   5.508253637482e+01 
1  2.200205199807e+01  -1.277768949645e+01  -4.646337246039e+01 
1 -9.754582994873e+01   4.761510216408e+01   1.543377097420e+01 
3
 Atoms. MD step: 2000
1 -3.393561507300e+01   2.928420485017e+01  -4.386406104296e+01 
1  3.056180547070e+01   7.341243860468e+01   2.333154196117e+01 
1 -8.457508617802e+00   2.448647600172e+01  -3.592671916575e+01 
3
 Atoms. MD step: 3000
1  3.156698195823e+00   1.434152625375e+00   1.722355513111e+01 
1  5.377736060454e+01  -1.082785565868e+01  -1.466387852219e+01 
1 -6.864548196207e+01   3.244509698819e+01  -5.665639302699e+01 
3
 Atoms. MD step: 4000
1  2.220892215260e+01  -4.990278689540e+01   2.536890404131e+01 
1  6.548650742045e+01   2.493024286217e+01  -2.917275716748e+01 
1 -6.757827279722e+01   7.924840436099e+00   1.053195983964e+01 
3
 Atoms. MD step: 5000
1 -3.727138517895e+01   6.217258872215e+00  -2.592161251360e+01 
1 -2.244790820273e+01   7.566767384696e+00   1.951072625529e+01 
1  3.222697088527e+01  -2.624248812009e+01  -1.238283497695e+01 
3
 Atoms. MD step: 6000
1  3.651036177678e+01  -4.090687663953e+01  -2.637364055583e+01 
1 -2.263391177930e+01   4.575461190557e+00  -1.613529129937e+01 
1 -2.212142836806e+00  -3.935962675308e+00   3.563131056094e+00 
3
 Atoms. MD step: 7000
1  1.411503400937e+01  -1.943014761352e+00   1.324358802556e+01 
1 -3.919147592924e+01   1.203127479341e+01   9.717423553606e+00 
1  3.260312324002e+00   5.116389451753e+01   4.184639100254e+01 
3
 Atoms. MD step: 8000
1  3.017232558181e+01  -2.271946482101e+01   4.186823565244e+01 
1 -3.003943812002e-01   1.674866243662e+01   3.856778579107e+01 
1  4.733444559443e+01  -7.554614604162e+00   8.480724307635e+00 
3
 Atoms. MD step: 9000
1 -1.791951189111e+01   2.869416281604e+01   4.429327419335e+01 
1  4.421909269523e+01  -1.714494033112e+01  -7.252816400162e+00 
1  4.048314735907e+01  -2.778455950687e+01  -4.762422421776e+01 
3
 Atoms. MD step: 10000
1 -4.451258226146e+01   1.450607903417e+01   1.590596956581e+01 
1 -7.621027701792e+00  -1.674764455767e+01  -1.397489900106e+01 
1 -3.569231803087e+00   5.292048157874e+01  -7.935852319942e-02 
3
 Atoms. MD step: 11000
1 -3.416746182023e+01  -6.044692038382e+00   8.473447251091e+00 
1  2.610926997126e+01   2.740103375731e+01  -5.081748065906e+01 
1  1.238790414450e+01  -1.051587730702e+02   6.972881743502e+00 
3
 Atoms. MD step: 12000
1 -5.537376151818e+01   3.941664034841e+01  -1.540424872974e+00 
1 -2.279268340738e+01  -1.587875395037e+01  -6.059419119889e+00 
1 -1.492531324169e+01  -6.111500901563e+01   5.600753589700e+01 
3
 Atoms. MD step: 13000
1  6.606959448776e+01  -2.224351154609e+00  -2.300920640991e+01 
1  5.525399207183e+00  -3.365769026912e+01  -2.350990814379e+01 
1 -2.523918372812e+01  -7.138593012646e+01  -3.569665548645e+01 
3
 Atoms. MD step: 14000
1  3.220463427712e+01   3.524142509506e+00  -1.227592224922e+01 
1 -2.356280946710e+01   2.082869025178e+01  -3.386677868630e+01 
1 -3.626060321429e+01  -3.755025652085e+00  -1.873666652047e+01 
3
 Atoms. MD step: 15000
1  5.348467512012e+01   9.869083198831e+00   1.119175635443e+01 
1  4.393334196744e+00   1.876197785668e+01  -1.774265824754e+01 
1  4.565588466537e+01  -2.969116485384e+01  -5.908470593605e+01 
3
 Atoms. MD step: 16000
1 -3.643374803702e+01  -4.227840892329e+00   6.452572508933e+00 
1 -1.099285795202e+01  -6.662978300719e+01   1.698080296501e+01 
1 -1.953273465751e+01   1.007853135281e+01  -2.397847706396e+01 
3
 Atoms. MD step: 17000
1 -3.605838595652e+01  -3.574698372426e+01  -2.406637417217e+01 
1  1.732483243653e+01   4.417561651161e+01   3.509152902966e+01 
1  3.235743860069e+01  -3.272490447760e+01   2.856261131843e+01 
3
 Atoms. MD step: 18000
1 -6.194946207258e+01   4.042795749199e+01  -1.659657016090e+01 
1 -6.967757658894e+00  -2.041291983889e+01  -1.932827312646e+01 
1  3.634096733521e+01   4.503907007190e+01   1.709769559712e+01 
3
 Atoms. MD step: 19000
1 -1.284911980545e+01   6.600333686645e+00  -4.872914811197e+01 
1  3.030850670521e+01  -8.555320291801e+01   1.830359180368e+01 
1 -2.894535883019e+01   9.145793324162e+00   4.521749530141e+01 
3
 Atoms. MD step: 20000
1  1.541454334112e+01   1.232578026156e+01   7.856894901531e+00 
1 -4.925018522216e+01  -3.338272431394e+01  -3.032135424969e+01 
1  4.494942038457e+01   7.450912624372e+00   7.291958136358e+00 
3
 Atoms. MD step: 21000
1 -3.116217858593e+01  -1.233087308496e+01   1.681017851157e+01 
1  1.360628078272e+01   4.919978192060e+01  -4.578124077568e+01 
1  1.843286569566e+01   2.816813655652e+01   2.949912870523e+01 
3
 Atoms. MD step: 22000
1  3.034932424093e+01   2.726839234992e+01  -2.783575662002e+01 
1  6.468267061248e+00   3.474555165491e+01   6.723000270142e+01 
1  6.072655237924e+00   1.586253770869e+01  -7.626733243978e+00 
3
 Atoms. MD step: 23000
1 -2.919563544471e+01  -4.746978677529e+01  -9.632423059282e+00 
1  9.619514320386e+00  -3.740606568152e+01   1.510623475091e+01 
1  5.360274026319e+01  -1.860222294036e+01   2.287193094481e+01 
3
 Atoms. MD step: 24000
1 -3.979357927406e+01  -2.717652263038e+01  -4.702094460666e+01 
1 -4.263575030235e+01   3.628320269187e+01   3.671547283999e+01 
1 -2.975851808564e+00   1.361459861545e+01  -4.165564480283e+01 
3
 Atoms. MD step: 25000
1  2.411786529248e+01   1.313961937935e+01  -2.287915365068e+01 
1 -5.700775346649e+01   5.615328903597e+01   2.039253662432e+01 
1 -4.794705966612e+00   1.969446997448e+01   5.894677082276e+01 
3
 Atoms. MD step: 26000
1 -9.935660295588e+00   1.209166692128e+01   7.014096400321e+01 
1  2.129454156767e+01  -4.989608738545e+01  -3.500976388743e+01 
1 -1.547206376891e+01   7.844955502988e+00   5.624106865535e+01 
3
 Atoms. MD step: 27000
1 -2.867207592794e+01   8.594620184325e+00  -4.931681403396e+01 
1  2.216399523399e+01  -3.308952611754e+01   1.324156255849e+01 
1  1.740389286575e+01   3.400465399339e+01   1.879361367454e+01 
3
 Atoms. MD step: 28000
1 -1.200170803593e+01  -2.774982971567e+01  -9.297755393524e+00 
1 -4.581602211737e+00   1.792980156789e+01  -3.717656271841e+01 
1  3.217995665126e+01   1.475952146179e+01   3.120902976583e+01 
3
 Atoms. MD step: 29000
1 -6.171537260804e+01   1.065565958005e+01  -1.490873988539e+01 
1  2.598222997491e+01   2.050075754381e+01  -4.547568061517e+00 
1  5.932112375748e+01  -2.866097941197e+01   2.707400546951e+01 
3
 Atoms. MD step: 30000
1 -3.538362628518e+01   4.813992923627e+01   2.697284198711e+01 
1  5.984609880956e+00   2.899703201975e+01   3.991190200183e+01 
1  3.224371610250e+00   1.351948911955e+01   8.070144418188e-01 
3
 Atoms. MD step: 31000
1  5.402543168493e+01  -2.415035652288e+01  -1.847927488481e-01 
1  3.329565674131e+01  -9.313053543286e+00  -3.320488252780e+01 
1 -7.491624315134e+00  -3.302332521750e+01   6.260882723022e+01 
3
 Atoms. MD step: 32000
1  5.663888260074e+00   3.857565635793e+01   3.367655293131e+01 
1 -2.134710805714e+01  -7.422582988949e+01  -2.566753982114e+01 
1  1.256049031236e+01  -3.423684809043e+01  -3.866931098172e+01 
3
 Atoms. MD step: 33000
1 -7.613265492705e+01  -5.645964208477e+01  -6.273155444440e+01 
1  3.609231432500e+01  -1.409563724553e+01   7.128656968761e+00 
1  2.260480533717e+01   3.823414727923e+01   1.298586961290e+01 
3
 Atoms. MD step: 34000
1  1.138036527373e+00   1.450631507143e+01   4.708842789642e+00 
1  4.229585785057e+01   1.812179882112e+01  -1.123310634900e+01 
1  2.396162299438e+01   8.153291017203e+00  -2.560292558200e+00 
3
 Atoms. MD step: 35000
1  1.841653917315e+01   2.809475134602e+01  -1.025968302734e+00 
1 -1.532533180699e+01   4.825008537802e+00  -4.749852511618e+01 
1 -2.440817646242e+01  -9.317445470616e+00  -2.822435565921e+00 
3
 Atoms. MD step: 36000
1 -3.446615942437e+01  -1.834845343821e+01   9.347083553114e+01 
1  4.610767109300e+01   4.391391249446e+01  -3.697993332294e+01 
1 -7.804595492353e+01  -1.851303230096e+01   3.226061910292e+01 
3
 Atoms. MD step: 37000
1 -4.711984726760e+01  -9.328905202381e+01  -1.082813262096e+01 
1  2.719612304077e+01  -2.033352998347e+00   5.448412577513e+01 
1  9.753071672300e-01  -5.676627336334e+01  -4.618568009742e+01 
3
 Atoms. MD step: 38000
1 -4.874325631148e+00  -1.029375146478e+01  -2.858498565582e+01 
1  3.097228834704e+01   1.782436371762e+01   2.903607504988e+01 
1  1.153551841017e+01  -4.832126564239e+01   1.320516027576e+01 
3
 Atoms. MD step: 39000
1  4.412299022624e+01  -3.244736531294e+01   1.715118559294e+01 
1 -3.679020595391e+01   5.737950150377e+00   2.999197618801e+01 
1  1.385274164044e+01  -2.160939735034e+01   2.757259376735e+01 
3
 Atoms. MD step: 40000
1  7.299433611236e+00  -2.452108994407e+01  -1.394884224878e+01 
1 -7.668538881693e+00   2.040680806378e+01  -5.509723332825e+01 
1 -1.309766355665e+01   1.399050552328e+01  -2.231081071012e+01 
3
 Atoms. MD step: 41000
1 -1.349130850834e+01  -7.022295492976e+00  -8.852669196955e+01 
1 -2.553038580965e+01  -4.414515955960e+00  -3.841356560542e+01 
1 -2.559317708136e+01   3.191623348914e+01   1.684637892335e+01 
3
 Atoms. MD step: 42000
1  4.472033737833e+01   1.789278311304e+01   2.648008952823e+01 
1  2.686246331270e+01  -2.662779512863e+00  -2.328891543085e+01 
1 -2.622600025231e+01  -1.036999459491e+01   1.746324773273e+01 
3
 Atoms. MD step: 43000
1  3.460756522512e+00  -2.010840304038e+01  -2.486965338835e+01 
1 -1.272904076962e+01  -2.486351833096e+00  -3.127145710111e+01 
1 -1.603977603200e+01   2.814127636588e+01  -3.558830385131e+01 
3
 Atoms. MD step: 44000
1 -1.185426198464e+01   5.589289186790e+01   7.812497038386e+01 
1  5.243734055082e+01  -3.294512898598e+01  -1.932372445165e+01 
1  6.473585898097e+01  -1.275259779781e+01   3.857254608995e+00 
3
 Atoms. MD step: 45000
1 -1.208230438106e+01  -2.071522299969e+01   2.502697151545e+01 
1  1.472819672176e+01  -4.076064145587e+01   1.782172887405e+00 
1  2.519653149117e+01  -2.079293960118e+01   2.941078647061e+01 
3
 Atoms. MD step: 46000
1  6.731641194934e+01  -4.830267802594e+01   8.608736961402e+01 
1 -9.136042329582e-01   5.598934977151e+01  -6.525229412694e+01 
1  3.956215218763e+01   2.432165241438e+01  -8.413422925024e+00 
3
 Atoms. MD step: 47000
1  4.632911033257e+01   3.574568996526e+01  -2.334907280903e+01 
1  6.703447313812e+01  -1.360250567860e+01   1.950408825406e+00 
1  1.844215547406e+01  -5.649070437043e+01   4.757103529881e+01 
3
 Atoms. MD step: 48000
1 -5.488421403876e+00  -5.025743354028e+00  -1.113143997459e+01 
1  2.037117101086e+01   7.897156454550e+00  -1.759260934907e+01 
1 -2.156480374298e+01  -6.707649826118e+00  -3.513236998794e+00 
3
 Atoms. MD step: 49000
1  4.028880296935e+01  -1.075817941387e+01   3.251985945126e+01 
1 -2.248375196913e+01  -4.023788062286e-01  -6.032465317099e+01 
1 -1.566578156051e+01  -1.855971364161e+01   4.796624259903e+01 
3
 Atoms. MD step: 50000
1 -6.959346327811e+00   2.794809226700e+01   4.657477617934e+01 
1 -3.050652071191e+01  -1.058758909847e+01   1.068454012087e+01 
1  1.266812221035e+01  -1.995394820759e+01   8.304514312915e-01 
3
 Atoms. MD step: 51000
1  3.846593634990e+01   4.494522074550e+00  -1.633004910914e+01 
1 -2.190117438909e+01  -3.843770740738e+00  -1.326202153875e+01 
1  1.234559568602e+01   4.434438938688e+01  -6.207959839820e+00 
3
 Atoms. MD step: 52000
1  3.368455559131e+00  -4.484957357119e+01   1.163136777277e+01 
1  3.416087678253e+00  -1.402762255133e+01   1.765724781557e+00 
1  6.113684165723e-01   5.469324751607e+01  -3.742030066865e+01 
3
 Atoms. MD step: 53000
1 -5.590498942797e+00  -1.802627217563e+01   5.823633588299e+01 
1 -5.031626729197e+01   1.602011606614e+01   1.365762884966e+01 
1 -3.111870873086e+01  -2.744890972386e+01  -2.186177116991e+01 
3
 Atoms. MD step: 54000
1  7.788080899140e+00   3.628751295261e+01   4.797243742067e+00 
1 -4.040730111400e+01   5.493624628777e+00  -3.325840632714e+01 
1  2.516029295085e+01   2.165970951812e+01   2.046650328219e+01 
3
 Atoms. MD step: 55000
1  3.261300763937e+01   8.120567980657e+00   5.091626482801e+01 
1 -2.474654519469e+01  -2.400119353784e+01   2.801918227785e+01 
1  2.799650133720e+01  -6.734536248992e+00   7.625442336673e+01 
3
 Atoms. MD step: 56000
1  1.727025081929e+01   2.619530688528e+01   2.151983831572e+01 
1  2.768559161552e+01   2.928564452722e+01  -1.275298734625e+01 
1 -2.089342651738e+01   1.454786256801e+01   2.310736286830e+01 
3
 Atoms. MD step: 57000
1 -4.022987794659e+01   1.437766476022e+01  -4.401991801858e+00 
1  1.156469304832e+01   2.352140338621e+01   2.018974495579e+01 
1  3.635508210796e+01   5.918757895400e+00   3.456435787269e+01 
3
 Atoms. MD step: 58000
1  2.064781023143e+01  -3.083221390829e-01  -1.735913229602e+01 
1 -4.224879195327e+01   1.078816409169e+01   6.680393399715e+00 
1 -1.226096839017e+01  -5.304517994844e+01  -5.839119688336e+01 
3
 Atoms. MD step: 59000
1 -3.600582115505e+00  -1.235106260594e+01   3.982430262083e+01 
1  3.873174142293e+01   1.176634711421e+02  -7.820039126412e+00 
1  1.122149850239e+00  -2.859873081928e+01   1.466737378177e+01 
3
 Atoms. MD step: 60000
1 -2.733567381499e+01  -4.907754971469e+01   5.039183823700e+01 
1 -2.792267887281e+01  -4.093630644127e+01  -3.703768829157e+01 
1 -1.563813794659e+00   1.577805049237e+01   4.640901744688e+01 
3
 Atoms. MD step: 61000
1  1.302155646088e+01   6.490687798071e+01   9.584324596488e+00 
1  2.451060626003e+01   3.111881490701e+01   3.385771632749e+00 
1 -5.526698768319e-01   1.220506092404e+01  -2.439450183800e+01 
3
 Atoms. MD step: 62000
1  1.110393016708e+01   1.258556195010e+01   2.438984716653e+01 
1 -7.663869168835e+00   2.930803067647e+01   5.292842321825e+01 
1 -3.296646382693e+01  -1.392731039255e+01   1.879358420207e+01 
3
 Atoms. MD step: 63000
1 -3.220688499480e+01   1.688291444941e+01  -4.988210197071e+01 
1 -5.509021195890e+00  -4.142505601247e+01  -5.367333571533e+01 
1  9.638942920350e+00  -3.175540800599e+01   6.125523062312e+01 
3
 Atoms. MD step: 64000
1  4.459845915173e+01   4.226028206768e+01   2.254488548172e+01 
1 -2.541066301183e+01  -1.732047055484e+01  -1.436972256433e+01 
1 -9.202790289249e+01  -6.120232713584e+01  -2.573368866931e+00 
3
 Atoms. MD step: 65000
1 -2.098308096110e+01   2.555235570104e+01  -2.133308740102e+01 
1 -4.718403902837e+01   1.472138546563e+01  -2.744816982448e+01 
1  4.309302120742e+01  -3.247989591322e+00   4.907333389773e+00 
3
 Atoms. MD step: 66000
1  2.536024916226e+01  -1.599516406755e+01  -1.269947372391e+01 
1  6.390088264955e+00  -2.075767969184e+01  -4.722093687188e+00 
1 -4.012862776614e+01   5.576970968893e+00   1.679678311835e+01 
3
 Atoms. MD step: 67000
1  3.584806970866e+01  -2.028409272258e+00   7.935473457953e+00 
1 -1.223292889480e+01   3.837672152954e+01   1.989621059631e+01 
1  1.864447984603e+00  -3.229863597084e+00  -5.527980068806e+01 
3
 Atoms. MD step: 68000
1  9.919407766037e+00  -6.004135964558e+01  -3.905877784256e+01 
1 -3.982288241875e+01  -2.447143080544e+01  -1.259441024891e+01 
1  4.344377397847e+00   2.387398082610e+01  -2.805617771688e+01 
3
 Atoms. MD step: 69000
1  2.880984078320e+01   1.009435828461e+01   2.254938243439e+01 
1  1.941025353598e+01   1.688377472142e+01   9.461889031423e+00 
1  1.191752286735e+01   5.922593315944e+00   7.954612270408e+01 
3
 Atoms. MD step: 70000
1  1.973577681523e+01  -7.267205141098e+01  -2.116145487031e+01 
1 -4.041619990046e+00  -2.551672470907e+01  -2.708096899704e+00 
1 -3.228153328066e+01  -6.381103278603e+00  -2.625423067618e+01 
3
 Atoms. MD step: 71000
1  3.924210306273e+01  -6.703809263696e+01  -7.727886397630e+00 
1 -5.815046202793e+00  -5.925365230323e+01   3.991410683437e+01 
1 -2.195613742174e+01   1.299350996331e+01   4.019206475988e+01 
3
 Atoms. MD step: 72000
1 -8.568429584572e+00  -2.304051579446e+01  -1.524290185878e+01 
1 -3.031152044156e+01   1.008785176662e+01   6.550663427643e+01 
1 -1.741250185273e+01  -3.820052371250e+01   4.783693168625e+01 
3
 Atoms. MD step: 73000
1 -1.986657703803e+01  -2.151762847167e+01   2.352588398345e+01 
1  1.408317666880e+01  -1.931374031293e+01   2.338781203783e+01 
1  3.129346298712e+01  -4.303902493589e+01   4.453361353092e+00 
3
 Atoms. MD step: 74000
1 -5.778120257057e+00  -5.028607297789e+00  -4.672880518059e+01 
1 -6.177883241822e+01   5.797817786198e+01   2.892859120062e+01 
1 -1.099042444974e+01  -7.261133510589e+00  -1.906243000479e+01 
3
 Atoms. MD step: 75000
1 -1.837266576281e+01   1.418537718650e+01  -4.195300624525e+01 
1  3.292569809213e+01   2.614299494736e+01  -2.380807421001e+01 
1  3.031602099424e+01  -3.110152466442e+01   2.188362213278e+00 
3
 Atoms. MD step: 76000
1  1.081040090356e+01   3.870557301002e+01   2.132052307375e+01 
1 -5.721203930989e+01  -3.754431836984e+01   4.037750697893e+01 
1  1.095134590726e+01   7.243755353965e+00   1.100009301546e+01 
3
 Atoms. MD step: 77000
1  1.131132889361e+01  -1.608075201209e+01  -2.865009369891e+01 
1  2.114590539346e+01  -1.448677939093e+01   1.651140087376e+01 
1  9.453842588664e+00  -2.486415688735e+01   4.098031511053e+01 
3
 Atoms. MD step: 78000
1 -9.913805596114e-01  -2.007188341857e+01  -3.072438603493e+01 
1  9.310652946133e+00   6.618214986606e+01   6.893333500479e+01 
1  4.641778106715e+00  -1.395675412093e+01   8.105501725247e+01 
3
 Atoms. MD step: 79000
1  6.497493965001e+01  -1.278277518430e+01   5.978351541662e+00 
1  2.479795463993e+01  -1.972468316040e+00  -5.227140426876e+01 
1  1.418147883861e+01   1.125797522189e+01   3.525539117372e+01 
3
 Atoms. MD step: 80000
1 -3.033968538706e+01   3.638088665322e+01   3.914229083593e+01 
1  1.615231765845e+01  -5.045657927806e+00   7.257712972830e+01 
1  5.987452586432e+01   4.441810529415e+01  -2.000152525309e+01 
3
 Atoms. MD step: 81000
1  1.906606167830e+00  -1.902844017629e-01   4.616178971876e+01 
1 -1.981628429076e+01   2.973506243914e+01  -3.999609540264e+00 
1 -6.248495253068e+01  -4.560291542310e+00   3.383028158191e+01 
3
 Atoms. MD step: 82000
1 -3.436305592868e+01   5.800808487269e+01  -2.137141101620e+01 
1 -2.643192522215e+01   1.688008610607e+00   1.846924834283e+00 
1  3.728856988324e+00   3.905011920612e+01   1.165260696879e+01 
3
 Atoms. MD step: 83000
1  1.681392927145e+01   1.265744728550e+01   2.647131650522e+01 
1  1.313159289309e+01   5.970893463931e+01   3.856910305710e-01 
1 -1.113362182788e+00   9.902593920528e+00   3.268593831514e+01 
3
 Atoms. MD step: 84000
1 -1.970473558016e+01  -4.633256588454e+01   1.653352282738e+00 
1  9.551896570231e+00   1.044402200780e+01  -5.826184657300e+01 
1 -2.612981852613e+01   2.003894236005e+01  -5.266275441798e+01 
3
 Atoms. MD step: 85000
1 -4.455526130968e+01  -3.679491302951e+01   2.984604000823e+00 
1 -3.588055176488e+00  -2.504240848346e+01  -1.545085881766e+01 
1 -5.492969607700e+01   1.464564674852e+01   2.883637760854e+01 
3
 Atoms. MD step: 86000
1  2.449200312275e+01   1.982902100994e+00   3.987355619875e+01 
1  3.530740559560e+01   3.130449883722e+00  -7.982361515507e+00 
1 -2.324715508760e+01   1.329257619874e+01  -1.429040125989e+01 
3
 Atoms. MD step: 87000
1  1.356559988773e+02   4.006707778578e+01  -2.344049948946e+01 
1 -3.119427325544e+01   3.533865289241e+01   3.977586112589e+00 
1  1.512231422849e+01  -8.658651059417e+00   3.859260448456e+01 
3
 Atoms. MD step: 88000
1  3.415012436373e+01  -4.032868999929e+01   2.187737004900e+01 
1 -4.538003796199e+01  -2.228589312025e+01   1.604958255743e+01 
1  2.237984626750e+01  -2.586326719913e+01   3.388861931486e+01 
3
 Atoms. MD step: 89000
1  2.067063125111e+01   1.301015189955e+01   4.045801101087e+01 
1 -9.100183514032e+01  -3.650285752540e+01   4.199132790474e+01 
1  1.992579484842e+01   2.299780653313e+01  -4.901001373802e+01 
3
 Atoms. MD step: 90000
1  1.050743401219e+01   4.721773122541e+01   2.648239650150e+01 
1  2.586731850249e+01   1.869024017880e+01  -2.640622029360e+01 
1 -2.660756133598e+01  -1.624298911138e+01   8.913587212939e+00 
3
 Atoms. MD step: 91000
1  1.118733404276e+01   6.919669841458e+00   8.247064367865e+00 
1  1.034007304045e+01  -1.067913778376e+01   1.044877269875e+01 
1 -5.153589661200e+01  -1.595857663023e+01  -1.343653907075e+01 
3
 Atoms. MD step: 92000
1 -5.819546738108e+01   1.939413869945e+01   2.704159464933e+01 
1 -1.387447313352e+01  -6.751765842960e+01   3.590972822284e+01 
1 -3.940873300437e+01  -7.701031001736e-01  -3.083092963542e+01 
3
 Atoms. MD step: 93000
1  3.858921474376e+01   1.663523525256e+01   6.638832124033e+01 
1  1.233021749784e+01   8.035888507726e+01   3.044313472660e+01 
1 -2.092834589476e+01   1.772177106095e+01  -6.427511825976e+01 
3
 Atoms. MD step: 94000
1  3.858935108251e+01   3.826645966253e+01   3.210215656560e+00 
1  1.745753513583e+01  -4.041612291211e+01   1.091409305236e+01 
1  1.684912451891e+01  -1.156990889217e+01   1.647540667388e+00 
3
 Atoms. MD step: 95000
1 -7.952425910282e+01  -3.612485891383e+01   8.209741303920e-01 
1 -4.997708591718e+01   7.781866882583e+01   4.418001334156e+01 
1  3.233826837518e+01   3.188189470203e+01   1.024025638193e+02 
3
 Atoms. MD step: 96000
1 -1.676487383763e+01  -1.575710469625e+01   9.217825008004e+01 
1 -4.482291899285e+00   1.195390500121e+01  -8.674883649766e+01 
1  1.890978432700e+01   1.225484418403e+01  -3.424591667120e+01 
3
 Atoms. MD step: 97000
1  1.252324628082e+00  -1.883044425927e+01  -1.068844657702e+01 
1 -3.897671579062e+01   1.755595638383e+01  -8.203427534781e+00 
1  9.755088625414e+01  -6.873715607250e+01  -5.787496866422e-01 
3
 Atoms. MD step: 98000
1 -1.518092695671e+01   3.151723346922e+01  -1.917806548875e+01 
1  6.313485774704e+01   7.925091913171e+00   3.479598481909e+01 
1  1.784972560404e+01   4.425149732474e+01   9.214368404064e+01 
3
 Atoms. MD step: 99000
1 -2.581827507906e+01   1.962032913509e+00  -1.667963320429e+01 
1  2.977855599456e+01  -5.174563195338e+01  -1.325699893242e+01 
1  5.185450947736e+01   4.696939245933e+00  -4.763729767734e+00 
3
 Atoms. MD step: 100000
1 -5.607189841935e+01   4.145814331268e+00  -1.692113986319e+01 
1  2.052478516313e+01  -6.826292588419e+01   1.020401413639e+01 
1  1.093264064939e+01   2.477056757497e+01  -5.875493611465e+01 
