3
 Atoms. MD step: 0
1  4.461054050232e+01   2.078319325938e+01   4.915550992192e+01 
1  5.279766693899e+01   2.271162072898e+01  -2.671443886048e+00 
1  4.049489890171e+01  -1.592731496117e+01   3.096014679118e+01 
3
 Atoms. MD step: 1000
1  3.289664445559e+01  -3.166178531228e+01  -2.338702437870e+01 
1  3.845148493598e+01  -1.449812806152e+01  -7.127660202830e+00 
1 -7.546945656638e+01  -9.815934443424e+00   9.392390025570e+00 
3
 Atoms. MD step: 2000
1 -3.632945146365e+01   1.378075104122e+01  -3.764826429605e+01 
1  1.762572535334e+00   1.714771351444e+01   1.926098128235e+01 
1 -2.373862095008e+01   4.781977546243e+01  -1.020421481181e+01 
3
 Atoms. MD step: 3000
1 -1.800386417723e+01  -5.597720979856e+00   2.448597169473e+01 
1  2.889348763998e+01  -4.325744226471e+01  -7.011828540883e+00 
1 -6.802315761493e+01   3.334679389291e+01   2.061541762173e+01 
3
 Atoms. MD step: 4000
1  1.148387710358e+01   6.078860753822e+00  -3.671468606202e+01 
1  4.503225301091e+01   2.090722442310e+01  -2.566012071879e+01 
1  2.967799632831e+01  -2.803586947914e+01   1.282071758094e+01 
3
 Atoms. MD step: 5000
1 -2.395175855205e+01   2.914852991001e+01   5.565347043162e+00 
1  9.636255224580e+00  -6.050454666456e+01   4.220597898574e+01 
1  8.406406916110e+01  -1.330905688176e+01   2.997772797148e+00 
3
 Atoms. MD step: 6000
1 -2.812189898637e+01   2.055546603981e+01  -2.746001891120e+00 
1 -4.764864224496e+01   3.155693436436e+01   9.296959270992e+00 
1 -1.624980200301e+01  -1.470959877159e+01  -6.586617709511e+01 
3
 Atoms. MD step: 7000
1 -4.630708762072e+01  -2.467054743560e+00   3.389035458531e+01 
1 -5.798512648717e+00   4.926709333950e+01   1.286311530979e+01 
1 -4.944630322662e+01   3.212521836197e+01   7.456092636343e+00 
3
 Atoms. MD step: 8000
1  3.510422702220e+01   3.690680117267e+01   8.585689137536e+00 
1 -2.272273312616e+01   3.248186157824e+01  -9.124940716438e+01 
1 -8.371244762707e+00   5.108523320070e+00  -3.732699413425e+00 
3
 Atoms. MD step: 9000
1  3.422922209011e+01   4.987909505002e+00  -1.203888301553e+01 
1 -6.876811431303e+01  -3.104293084008e+00   3.286776752538e+01 
1  2.578067859227e+01  -2.435373004604e+01  -1.571452744962e+01 
3
 Atoms. MD step: 10000
1 -1.757220236960e+01  -3.657488212924e+00  -2.634036572571e+01 
1 -8.253883859010e+01  -2.327034931909e+01  -2.067137153223e+01 
1  2.125332431842e+01  -3.655856836285e+01  -2.915191420145e+00 
3
 Atoms. MD step: 11000
1 -2.718803737604e+01  -3.044176537945e+01   7.676353596790e+01 
1 -1.435952074085e+01   1.931325801644e+01  -3.656706611971e+01 
1 -3.034545516697e+01  -7.129774698566e+01  -3.552432380538e+01 
3
 Atoms. MD step: 12000
1 -2.170549344014e+01   1.863609828987e+01  -1.132550856425e+01 
1  9.656399379226e+00  -1.582641996341e+01   6.867419724983e+01 
1  7.813448376669e+00  -3.368232904237e+01   4.313604050110e+01 
3
 Atoms. MD step: 13000
1 -2.447054982531e+01   3.164509299292e+01   4.276469574679e+01 
1  4.514699920814e+01  -2.234552414158e+01   3.584742496017e+01 
1  1.783321215371e+01  -3.372095258280e+01   7.317197791719e+01 
3
 Atoms. MD step: 14000
1  1.116035521518e+01   6.273972203962e+01   3.300451526882e+01 
1  4.113248139354e+01  -3.949853934379e+01  -1.296808201300e+01 
1  4.792148902071e+01  -2.023344845829e+01  -2.747200437256e+00 
3
 Atoms. MD step: 15000
1 -3.034494385850e+01   2.532889231593e+01   2.198933599497e+01 
1  1.153411643697e+01  -3.854532202419e+00   7.274682539843e+01 
1  2.994589963865e+01   5.832562366128e+01  -8.238934266069e+00 
3
 Atoms. MD step: 16000
1  1.776003114309e+01  -4.857674832393e+01  -3.570106972039e+00 
1  1.867474370047e+01   4.029402899618e+00  -1.665157034262e+00 
1 -2.836125219376e+01  -1.482421919537e+01  -3.102349171029e+00 
3
 Atoms. MD step: 17000
1 -7.718283801981e+00   3.919703347426e+01   8.681133113736e+00 
1 -5.457102682545e+01  -4.430358012231e+01   2.377802399945e+00 
1  1.684456906282e+01  -2.012365617789e+01   2.126830455862e+01 
3
 Atoms. MD step: 18000
1  3.693379702280e+01   1.858348050568e+01   5.105390844012e+01 
1  3.995271216146e+01   1.250197351582e+01  -1.323811077396e+01 
1 -5.897801008767e+01   5.096504374893e+01   2.765976157377e+01 
3
 Atoms. MD step: 19000
1 -3.525376654500e+01   2.070767355391e+01  -3.710402645531e+01 
1 -1.386145475175e+01   8.329495995224e+00   3.813377870926e+01 
1  1.444639676443e+01   5.783776497641e+01   7.753970384067e+01 
3
 Atoms. MD step: 20000
1 -9.920570816837e+00   3.996821250535e+01  -1.182125891843e+01 
1 -1.701728554398e+01  -5.981676604693e+00  -1.826417652247e+00 
1 -4.251890936655e+00   4.337867765747e+01   2.345650763266e+01 
3
 Atoms. MD step: 21000
1 -4.821537021491e+01  -9.130250404945e+01  -2.803480157810e+01 
1  2.113445224197e+01   3.130042910994e+00   6.777393732353e+00 
1  3.822644224328e+01  -2.120692461039e+00  -1.416945030593e+01 
3
 Atoms. MD step: 22000
1  3.257241619300e+01  -1.101525318235e+01   5.246998100686e+01 
1 -7.076452031755e+00   6.844828944255e+01   3.128192325270e+01 
1  2.344613107282e+01  -3.929980317144e+01  -6.476516202966e+01 
3
 Atoms. MD step: 23000
1 -4.606318538108e+01   5.761301652967e+01  -1.784197397566e+01 
1 -3.883947985450e+00   1.476546607988e+01  -1.039753013138e+02 
1 -2.455786248728e-01   2.312937013822e+01  -5.101700824486e+01 
3
 Atoms. MD step: 24000
1  6.653238355920e+00   2.491547751443e+01  -1.084889084571e+01 
1  2.427906167160e+01  -7.822648902421e+00  -5.520028398934e+01 
1 -8.416702755540e+01   3.279067567721e+01   4.708551808641e+01 
3
 Atoms. MD step: 25000
1  4.342435094323e+00  -2.136807481514e+01   2.873531795715e+01 
1 -3.719118948257e+01   7.816827867607e+01  -4.730800953990e+01 
1  2.118099878009e+01   5.127217134136e+01   5.356706497295e+01 
3
 Atoms. MD step: 26000
1  3.194309203483e+01  -7.239279887865e+01   6.183988190481e+01 
1 -7.746850688876e+00  -5.475377772482e+00   1.489105345774e+01 
1  3.273303552733e+00   2.190192911186e+01   8.603033237770e-01 
3
 Atoms. MD step: 27000
1  1.768833048158e+01  -1.387991512410e+00   5.147168772477e+01 
1  3.314603373848e+01  -1.029425015217e+01  -1.457822890182e-01 
1  4.670983926278e+01  -7.468617192655e+00  -4.693278994515e+00 
3
 Atoms. MD step: 28000
1 -3.112231357961e+01  -9.765007334214e+00   1.422249737214e+01 
1  2.803575011011e+01   3.592383505403e+01   3.716799153153e+01 
1  4.190565878544e+01  -3.255875752830e+01  -5.566957074943e+01 
3
 Atoms. MD step: 29000
1 -6.275181454210e+01   2.952111547574e+01   5.639467034224e+01 
1  1.390160634273e+00  -1.576675639505e+01   8.045834123125e+01 
1  1.293389500330e+01   8.170588992266e+00   2.340384900845e+01 
3
 Atoms. MD step: 30000
1  9.637103109847e+00   2.501282788891e+01   1.626611884503e+01 
1  1.327375459352e+01  -9.277082760080e+00   2.457980880738e+00 
1 -1.974024465746e+00   5.981655734517e+01   2.099472868324e+01 
3
 Atoms. MD step: 31000
1  4.542419715480e+01   5.656382363678e+00  -5.501499394954e+01 
1 -4.521343724880e+01   1.493360354272e+01   6.240172502265e+00 
1  3.495022778647e+01  -3.583660906754e+01   7.819309200968e+00 
3
 Atoms. MD step: 32000
1  5.600171197128e+01  -6.482181383625e+00   2.533394292710e+01 
1 -6.151471654183e+00  -5.510400361146e+01  -3.069655174071e+01 
1  1.159221169882e+01   5.052600430123e+01   1.141506505923e+00 
3
 Atoms. MD step: 33000
1 -2.950057441069e+01  -2.746450700160e+01  -5.796796237631e+01 
1  7.895853917867e+01   2.023318721189e+01  -9.941201801669e+00 
1 -5.383929813084e+00  -4.112190589391e+01   4.255861894710e+01 
3
 Atoms. MD step: 34000
1  9.083416422730e+00   1.584511957831e+00   5.013895945035e+01 
1 -3.044075683261e+01  -3.578150999388e+01  -5.551117655939e+00 
1  1.437503322605e+01  -3.404680086272e+01   2.836372701853e+01 
3
 Atoms. MD step: 35000
1  3.747602678875e+01   4.542223563709e+01   5.185254307208e+01 
1 -1.910656220043e+01   6.326084711912e+00  -1.529006984175e+01 
1 -5.957449081553e+00   4.827590417794e+01  -2.697465481047e+01 
3
 Atoms. MD step: 36000
1 -1.722627295310e+01   2.317377648374e+01  -2.455456537067e-02 
1 -1.191161759380e+01   3.738327139576e+01   3.852354721603e+00 
1 -1.231835492050e+00   5.943343789433e+01  -6.645504377897e+01 
3
 Atoms. MD step: 37000
1  7.541828967172e+01  -6.826322096469e+01   1.938102857987e+01 
1 -2.236787335112e+01  -5.150670571588e+01   3.718058850635e+00 
1 -1.277321811080e+01  -3.541835110045e+01   1.826316773635e+01 
3
 Atoms. MD step: 38000
1  6.399343252331e+00   3.046377399280e+00   3.766025944055e+01 
1 -1.519988133261e+01   4.478481820068e+01   1.876593618388e+01 
1 -6.561917819353e+01  -9.699144731756e+00   6.584291937310e+01 
3
 Atoms. MD step: 39000
1  1.182436584660e+01  -3.045283944551e+01  -1.855945916685e+01 
1  1.630658391211e+01  -8.303607565792e+01   3.076663252946e+00 
1  7.671638765578e+01   8.733781252862e+00   2.588453667925e+01 
3
 Atoms. MD step: 40000
1 -2.666014730067e+01   8.724733227048e+00   6.799829383902e+00 
1 -2.795400892051e+01  -4.691460351330e+01   2.346199334264e+01 
1 -7.147098445397e+01  -1.651745081390e+01   2.057925400393e+00 
3
 Atoms. MD step: 41000
1 -4.888326826951e+01  -1.041195474540e+01   9.275559483075e+00 
1 -3.528613845580e+01  -7.058096461975e+01  -9.092020336115e+00 
1 -1.702070018407e+01  -1.776331277670e+01   6.680680663919e+01 
3
 Atoms. MD step: 42000
1  5.747514846478e+01   1.190629460884e+01   4.271277342094e+00 
1  2.133552995022e+01   4.939427285662e+01  -5.073054797179e+01 
1 -3.922018499095e+01   2.968054331829e+01   4.410564829047e+01 
3
 Atoms. MD step: 43000
1  2.788967092162e+01  -4.247210159925e+01  -8.229148971148e+00 
1 -4.677469935606e+01  -6.686550366169e+01  -1.640118589948e+01 
1  3.750144950864e+01   3.170909482128e+01   3.257260500634e+01 
3
 Atoms. MD step: 44000
1  2.229840058201e-01   1.228921584602e+01  -2.527920849631e+01 
1  2.479277886545e+01  -4.071664380497e+01  -4.574985201279e+01 
1 -1.423879763200e+01   2.967130452293e+01  -2.806343051801e+01 
3
 Atoms. MD step: 45000
1 -7.109935358218e+01  -2.801646269897e+01   2.089653937636e+01 
1  3.446986574782e+00  -1.106192265320e+01  -4.569899627323e+01 
1  6.209472659236e+01  -1.390826800898e+01   6.347309185909e+01 
3
 Atoms. MD step: 46000
1  6.752564836615e+01  -3.548436039547e+01   3.144828074255e+01 
1 -4.497177846118e+01   1.139167009456e+02   5.767381905580e+01 
1  6.674259271896e+01  -2.656630501457e+01  -4.708259017882e+01 
3
 Atoms. MD step: 47000
1 -1.678011299357e+01   1.539692968857e+01  -5.409313184933e+00 
1  2.148472577345e+01  -2.515319822369e+01   1.663106011076e+01 
1 -2.271407600192e+01  -7.288998970317e+00  -1.332345809081e+01 
3
 Atoms. MD step: 48000
1  2.436181681176e+01   3.995925017635e+01  -4.714881663701e+01 
1  4.589573176138e+01   1.283508188802e+01  -6.133521171496e+01 
1  6.013207364611e+01   1.658526417448e+01   4.227672004146e+01 
3
 Atoms. MD step: 49000
1 -7.615367061553e+00  -3.575177967622e+00  -3.043170532668e+01 
1  3.096198279860e+01   9.158551356492e+01   7.517191154963e+01 
1  2.285555111505e+01  -6.111216682507e+01  -1.911294008344e+01 
3
 Atoms. MD step: 50000
1  1.511421212642e+01  -6.555748246972e+00  -1.685048875248e+00 
1  3.381501847141e+01  -2.365336153856e+01   1.081411993976e+02 
1  3.701087609898e+01  -1.667999157085e+01  -3.730616047271e+01 
3
 Atoms. MD step: 51000
1 -1.520862766404e+01  -7.164559038917e-01  -3.241792029596e+01 
1 -5.423470742565e+01   2.697321822218e+01   2.996618402292e+01 
1  3.648815281349e+01  -8.614736664061e+00   6.764991538760e+00 
3
 Atoms. MD step: 52000
1 -5.201875380241e+01  -4.422269187384e+01  -2.777027235508e+00 
1  1.248119520387e+01   3.187954063798e+01   1.115633676963e+01 
1  6.293394882453e-01  -7.430560233384e+00  -3.840290602634e+01 
3
 Atoms. MD step: 53000
1 -3.014216217499e+01   4.522519441180e+01   6.399164888694e+01 
1 -5.608316268691e+01   3.406439579130e+01   2.292465150384e+01 
1  3.450969492021e+00   6.364218787639e+01   2.740276098873e+01 
3
 Atoms. MD step: 54000
1  1.511198916938e+01  -3.248880976039e+01   2.081468653514e+01 
1 -3.214408689440e+01   3.018531455274e+01  -3.365132330229e+01 
1 -2.345450173147e+01  -1.090791812091e+01  -2.882255566047e+00 
3
 Atoms. MD step: 55000
1 -1.102634165856e+01  -2.519308001496e+01   3.392183239279e+00 
1  6.456771973651e+00  -2.846866512854e+01  -1.298533938075e+01 
1  3.612136389951e+01   5.018803151369e+00   2.014511285638e+01 
3
 Atoms. MD step: 56000
1 -8.878921214835e+01   5.500483813088e+01  -3.222133519773e+01 
1  4.447814734338e+01   2.180597380679e+01  -3.285963849530e+01 
1 -3.450684533585e+01   4.172650309383e+01   5.623679520360e+01 
3
 Atoms. MD step: 57000
1 -3.461499242899e+01   3.308207196681e+00   3.675362327216e+01 
1  2.511506852303e+01  -4.984592287604e+00  -3.891778151261e+01 
1 -2.649968718023e+01   3.882095649925e+00   2.539230400450e+01 
3
 Atoms. MD step: 58000
1  1.305995491321e+01  -5.424726974235e+01  -8.403910922965e+00 
1 -1.471483961064e+01  -3.782512390150e+00  -3.052363965169e+01 
1 -2.229317570751e+01  -6.532684516568e+01   4.377298141892e+01 
3
 Atoms. MD step: 59000
1 -8.593628258375e+00   5.812687175363e+00   1.564874447276e+01 
1  4.751743036908e+01   2.523715876506e+01   6.310075046452e+01 
1 -1.588793930901e+01   2.727117823017e+01  -1.285655904372e+01 
3
 Atoms. MD step: 60000
1 -2.202932363751e+01   2.302408045870e+01   1.772798583043e+01 
1  6.245105983326e+01   7.058558182616e+01   4.523797265596e+01 
1 -5.770443361224e+01   2.638840940596e+01  -4.846834786870e+01 
3
 Atoms. MD step: 61000
1 -4.004157923028e+00  -1.027509080762e+00  -9.255822980458e-01 
1 -2.236466413071e+01   7.611397679921e-01  -2.697211280817e+00 
1  4.945873732937e+01  -5.908504127630e+01   4.186190952841e+00 
3
 Atoms. MD step: 62000
1  2.166503633666e+01   1.419183965007e+01   2.655674602542e+01 
1 -2.579477223270e+01  -3.288476672772e+01  -2.531086661715e+00 
1 -1.180620602457e+01   4.341348705900e+01  -1.103335163503e+01 
3
 Atoms. MD step: 63000
1 -2.824186762355e+01  -1.722089040360e+01  -4.144143325994e+01 
1  1.425036637500e+01   2.851946119278e+00   2.874432229257e+01 
1 -2.170173409683e+00  -2.894464086109e+01  -5.103065716867e+01 
3
 Atoms. MD step: 64000
1 -5.852407890045e+00   5.855271178054e+00  -2.183597990028e+01 
1  2.943713952822e+01   2.765150538493e+01  -3.518662762106e+01 
1  1.029797230382e+01   1.082634503339e+01   4.127246571538e+00 
3
 Atoms. MD step: 65000
1 -1.822732078813e+01   5.785602312123e+00   5.769906358330e+01 
1 -4.766316731261e+01  -4.740289894893e+01   4.211764717527e+01 
1  3.008076764579e+01   2.840397724689e+01   2.948994741503e+01 
3
 Atoms. MD step: 66000
1  2.224406605724e+01   3.827305717961e+00   5.911786425414e+00 
1  5.737478836246e+00  -3.973346007248e+01   4.444663335709e+00 
1 -6.507854747028e+01   3.481171734952e+01   4.638970065232e+01 
3
 Atoms. MD step: 67000
1  1.001776937230e+01  -2.156287391174e+01   4.813845148476e+01 
1 -3.778659673519e+01   1.505286135564e+01  -1.916703176281e+01 
1 -3.591217783958e-01  -3.647927548951e+01  -4.307644761230e+00 
3
 Atoms. MD step: 68000
1 -2.331214284044e+00   1.221041609998e+01   3.389527706754e+00 
1 -1.849742106270e+01   1.034223681391e+01   4.596697895709e+01 
1  2.818096708413e+01  -2.124177232660e+01  -1.133047651070e+01 
3
 Atoms. MD step: 69000
1  4.345314817657e+01   1.864781102431e+01   6.520006200219e+01 
1  2.425954894496e+01  -8.448220845889e+00   1.779977692019e+00 
1 -1.191337557596e+01   2.410432011125e+00   3.609408527800e+01 
3
 Atoms. MD step: 70000
1 -2.911190850350e+01  -4.051248153630e+01   1.612686190228e+01 
1  3.227365475144e+00   3.274218863490e+01   3.025695591322e+01 
1 -4.767117925244e+01   3.128889134514e+01  -4.748283102830e+01 
3
 Atoms. MD step: 71000
1  7.648354571340e+00   2.582411785623e+01  -1.261473383501e+01 
1  3.606548380488e+01   1.154401385989e+01  -4.110478637731e+00 
1 -1.862475673564e+01   9.788503883575e+00  -7.479157459221e+00 
3
 Atoms. MD step: 72000
1 -5.938860455721e+01   2.458479744434e+01   6.598572372097e+01 
1 -1.442831074622e+01   3.579191541639e+00   2.974271844661e+01 
1  1.267872821592e+01  -3.073162672660e+01   7.104851033368e+01 
3
 Atoms. MD step: 73000
1  8.365895601995e+00  -5.496979291090e+01   3.933403774577e+01 
1  1.791760210499e+01  -1.594178468302e+01   1.143223593404e+01 
1 -2.497808061527e+01  -4.354393214530e+01   3.845880974822e+01 
3
 Atoms. MD step: 74000
1  9.695237992677e-01   2.878623926880e+01  -4.766825965162e+01 
1  2.876391355324e+01   5.013459108523e+01  -3.166741433427e+01 
1 -3.101380002255e+01  -4.078414673752e+01  -3.455825712263e+01 
3
 Atoms. MD step: 75000
1 -3.975262479512e+01   5.155096576653e+01  -2.839680798277e+01 
1 -3.082699744549e+00  -4.019924959623e+01   1.723535552095e+01 
1  8.940095660839e+01  -5.486257290508e+00  -2.486077134789e+01 
3
 Atoms. MD step: 76000
1  9.647964426390e+00   1.853576111509e+01   8.714350320249e+01 
1 -3.086348005694e+01  -3.595994022048e+01  -4.479712615334e+01 
1  4.289789415426e+01   2.883807923904e+01  -1.174963999172e+01 
3
 Atoms. MD step: 77000
1 -4.482223642709e+01  -2.850349876797e+01  -6.637270740118e+01 
1  3.673374272964e+01   2.683706026412e+01   1.361579718336e+01 
1  1.298436824487e+01  -5.157905061133e+01   2.111772245698e+01 
3
 Atoms. MD step: 78000
1 -6.380937364410e+00   9.915218976346e+00   3.187767143463e+00 
1  2.577915021172e+01  -1.650562004597e+00  -7.166012553478e+00 
1  7.080020037880e+01   2.922926500784e+01   1.196837439673e+01 
3
 Atoms. MD step: 79000
1  1.549739262711e+01  -1.702281869405e+01   4.688679576188e+01 
1  8.638134480807e+01   1.605146118440e+01   5.971593140902e+01 
1 -3.549286279322e+01  -7.900584249350e-02   5.962615138771e+01 
3
 Atoms. MD step: 80000
1 -3.554153105040e+00   1.576639192343e+01   1.475673255379e+01 
1 -2.433575995495e+01   3.384252245963e+01   1.125298489154e+01 
1  2.028481002613e+01  -2.426576246681e+01   4.264285579142e+01 
3
 Atoms. MD step: 81000
1  7.529600383693e+00  -3.763495702371e+01   5.726637857389e+01 
1 -3.097970274069e+01  -2.927218615054e+01   1.265049616815e+01 
1  3.162011720137e+01   1.640486893507e+01   3.871481035409e+01 
3
 Atoms. MD step: 82000
1  1.183454820791e+01  -3.008245035556e+01   7.069402355269e+00 
1  3.877430622357e+00   2.884644855267e+01   6.254307259798e+01 
1  2.917239826926e+01   7.043384708226e+00   1.901306793881e+01 
3
 Atoms. MD step: 83000
1  1.167031486819e+01  -9.964620898362e+00   1.105915460670e+01 
1  3.222200169900e+01   6.297120593957e+01   2.863559829926e+01 
1  4.846567886742e+01   3.583075675798e+01   1.361168867517e+01 
3
 Atoms. MD step: 84000
1  5.102766069415e+01   5.123707266256e+01   3.122040923053e+01 
1  3.431123110060e+01  -5.208516417286e+01   2.222729858702e+01 
1  3.651802145336e+01   6.061515077389e+01   3.302816322162e+01 
3
 Atoms. MD step: 85000
1  4.364280422036e+01  -7.656883041124e+01  -6.388840503973e+00 
1  4.030107290141e+01  -2.312820685396e+01  -1.893249810326e+01 
1 -6.677775112574e+01   4.299138667188e+01  -5.460172124772e+01 
3
 Atoms. MD step: 86000
1  2.153483456746e+01   3.445326682175e+01   3.841111948377e+01 
1 -1.707464531905e+01   5.970137689814e+01  -2.391494423860e+01 
1  1.248371960345e+01   4.281893058060e+01   9.806235742657e+01 
3
 Atoms. MD step: 87000
1  6.973170142671e+01   3.255811249095e+01   1.898566064370e+01 
1  2.805364461477e+01   4.231268496324e+00   1.025203217780e+01 
1  4.058325679221e+01  -1.398053830800e+01  -5.456862105107e+00 
3
 Atoms. MD step: 88000
1 -6.893644873703e+00  -6.123002279498e+01   4.976692880781e+01 
1 -5.718160973028e+01  -2.384171673328e+01   1.800609773220e+01 
1 -5.210420416954e+01   6.419400796929e+01  -2.732149649612e+01 
3
 Atoms. MD step: 89000
1  3.886841185613e+01   2.597912457241e+01   4.942436147808e+00 
1 -2.871502362919e+01   3.151522018068e+01  -4.724114889648e+01 
1  1.250580861160e+01  -1.156496537161e+01   2.749998734086e+01 
3
 Atoms. MD step: 90000
1 -7.158567047198e+01  -7.134096119719e+00   1.343083373384e+00 
1  2.082709562804e+00  -3.168978211537e-01  -2.522461821627e+01 
1 -4.899549729389e+01  -2.287830871169e+01  -5.477275719570e+01 
3
 Atoms. MD step: 91000
1 -3.279616057913e+01   7.768433818352e+00   2.714034520728e+01 
1  2.679322252316e+01   8.106920745546e+00   7.321390592038e+01 
1  9.962443018953e+00   3.556650727678e+01   4.640542990794e+01 
3
 Atoms. MD step: 92000
1 -4.494919338383e+01  -4.214003523653e+01   1.486612530928e+01 
1 -2.174675788363e+01   7.519759778560e-01   6.176928623556e+01 
1  1.448682648650e+01   8.662272559831e+00   3.087853698305e+01 
3
 Atoms. MD step: 93000
1  4.524048676003e+01  -6.303755080573e+00  -4.453941247013e+01 
1 -2.635478880817e+01   3.524951792087e+01   2.250451910393e+01 
1 -2.850569008178e+01   2.909111754586e+01  -3.544950164046e+01 
3
 Atoms. MD step: 94000
1  3.841901383980e+01   2.095055140094e+01  -2.904533241983e+01 
1 -1.672399209581e+01  -3.215731747278e+01   1.132124976353e+01 
1  4.475181384668e+01   3.526606645670e+00   1.540531283408e+01 
3
 Atoms. MD step: 95000
1 -3.412801048260e+01  -3.058138616922e+01  -3.397805030943e+01 
1  8.424321952968e+00  -2.884078055814e+01  -4.840246546848e+01 
1 -7.319509552480e+00  -3.510690774828e+00   5.427850063892e+01 
3
 Atoms. MD step: 96000
1 -5.444669903412e+01  -6.803965960977e+01   1.988304257370e+00 
1 -4.015401747236e+01   7.332647408328e+00  -3.235947928814e+01 
1  7.084981317831e+00   4.319779404678e+01   2.244858688880e+01 
3
 Atoms. MD step: 97000
1  6.103515872852e+01  -5.540337881784e+00  -4.563166350059e+01 
1  4.291098257032e+01  -3.318060908941e+01   1.100549418455e+01 
1 -1.858339408888e+01   4.505013873865e+01   2.174441948752e+01 
3
 Atoms. MD step: 98000
1 -3.569232999949e+01  -5.297446155348e+01  -3.240638740358e+00 
1 -6.070415277508e+01  -2.497164630594e+01   7.764630759907e+01 
1  5.061296520551e+01   7.211164056482e+01   3.843695061445e+00 
3
 Atoms. MD step: 99000
1 -7.029368262578e+01  -2.979876302886e+01   8.230642365444e+00 
1 -1.286229243196e+00  -2.368147885294e+01   5.846669665173e+01 
1  3.425830259284e+00   1.268431982118e+01   8.743960375034e+00 
3
 Atoms. MD step: 100000
1 -8.357819337682e+01  -3.460735960593e+01   4.383522703009e+00 
1 -4.473960113110e+01  -9.592202030382e+01  -2.343752324811e+01 
1  4.254076085024e+00   7.462230806355e+00  -3.917823874903e+01 
