3
 Atoms. MD step: 0
1  2.324697257398e+01  -4.076604304213e+01  -1.693296828828e+01 
1  4.237334106189e+01  -3.407589694776e+01  -1.340406455389e+01 
1  3.041125376742e+01   4.583601355926e+01  -2.930751179977e+01 
3
 Atoms. MD step: 1000
1  3.138375296836e+01  -1.883119330985e+01   3.748770388438e+00 
1 -6.044383703901e+00  -3.115274516396e+01  -2.837007359410e+01 
1  3.258205652129e+01   2.864630023253e+01   3.662029532862e+01 
3
 Atoms. MD step: 2000
1 -5.778657210165e+01   7.220742928936e+01  -1.802542444335e+00 
1  6.850280198204e+00  -2.025676795098e+01  -1.218293867764e+01 
1 -1.128770914216e+01  -8.008022301179e+00   3.858861170677e+01 
3
 Atoms. MD step: 3000
1  2.531154355642e+01  -4.050835828604e+01  -1.523231030455e+00 
1  4.008421009054e+01  -2.015120049953e+01   2.306376724237e+01 
1 -5.703158280082e+01  -3.688487964186e+00  -6.327004280025e+01 
3
 Atoms. MD step: 4000
1  1.938127208635e+01   3.016810535301e+01   2.872901648879e+01 
1  6.540576300955e+01   1.289902029664e+00  -5.618234335784e+01 
1 -4.895016849181e+01   6.878464867493e+00   1.059893691416e-01 
3
 Atoms. MD step: 5000
1  6.268710346261e+01   7.181865578221e+00  -1.365572625258e+01 
1 -1.730085966292e+01  -2.755064541806e+01   2.574333604225e+00 
1  2.555314973324e+01  -1.473239744796e+01  -3.361583355774e+00 
3
 Atoms. MD step: 6000
1  2.221210261364e+01   3.417201679839e+01  -2.804221078957e+01 
1  5.797038956157e+01  -3.131424132704e+01  -1.859742552081e+01 
1 -7.365580642221e+01  -1.764955894794e+01   2.478426808329e+01 
3
 Atoms. MD step: 7000
1  3.919800990316e-01  -6.258706820885e+01   8.116911123405e+00 
1 -3.771091092433e+00   3.652163036225e+01  -3.866585361458e+01 
1  1.890680252637e+01   2.197262484460e+01  -1.126863706049e+00 
3
 Atoms. MD step: 8000
1 -1.665561206503e+01  -1.218470080214e+01   9.811261739032e+01 
1 -1.513681103417e+01   3.772146113115e+01   6.483554476599e+00 
1  6.198358856191e+00   1.721483975032e+01   4.406406078788e+01 
3
 Atoms. MD step: 9000
1  2.396964105538e+01  -8.054150384135e+01  -3.482903943199e+00 
1 -2.211914289007e+01  -1.687699822545e+01  -4.357467316686e+01 
1  1.846341807022e+01   4.051231741756e+00  -8.122955011382e+01 
3
 Atoms. MD step: 10000
1 -1.254370774722e+01  -4.581576340570e+01   9.493724494104e+00 
1 -2.195472645493e+01  -3.642424710437e+01   1.178389209159e+01 
1  8.342402281806e+00   4.604019053632e+01  -2.670339318205e+01 
3
 Atoms. MD step: 11000
1 -3.458391687545e+01  -3.119161210297e+01   2.116122855180e+01 
1  3.287883428495e+01  -3.904985564872e+01   3.668202013280e+01 
1  4.725310461937e+01   2.001823573440e+01   3.173835584889e+00 
3
 Atoms. MD step: 12000
1 -4.939156008518e+01   5.624715271827e+00  -4.484319704169e+01 
1  6.810157320099e+00   5.288615437302e+01  -1.714050989348e+01 
1 -2.846953406926e+01  -1.211274611748e+01   2.558687667482e+01 
3
 Atoms. MD step: 13000
1  4.067184752321e+01   1.161415361925e+01  -2.750104976404e+01 
1 -1.017608725187e+01   3.812094646197e+00  -5.372161719865e+00 
1  2.673410748730e+01   1.234145668418e+01   2.723970791633e+01 
3
 Atoms. MD step: 14000
1  4.544146330506e+01   2.918488858169e+01   2.065153552208e+01 
1 -2.937885492508e+01   5.865285819206e+00  -7.049623184058e+01 
1  3.886729018435e+01   1.817524221738e+01  -6.657667192339e+01 
3
 Atoms. MD step: 15000
1 -1.911794204000e+01   1.976584021381e+01  -4.828368661443e+01 
1 -7.079716399517e+01  -7.435006832607e+00  -2.937846585873e+01 
1 -7.738465296367e-01  -1.135967348767e+01  -3.246900723382e+01 
3
 Atoms. MD step: 16000
1  2.046582750334e+00  -3.509628387149e+01   1.777580453006e+01 
1  5.693088225563e+01   1.505391435354e+01   5.581484666172e+01 
1 -3.336766988646e+00  -3.514590816582e+01  -1.017283836326e+01 
3
 Atoms. MD step: 17000
1 -4.610625482014e+00  -5.171078289479e+01  -1.742398289477e+01 
1  3.901140998918e+01   4.753153731876e+01  -1.525396272938e+01 
1  7.011013797137e+00   3.277274418422e+01  -1.979372104873e+01 
3
 Atoms. MD step: 18000
1 -5.725936732661e+01  -6.640536569570e+01   2.112872686148e+01 
1 -1.179973708929e+01  -3.976683853421e+01  -5.745224491206e+00 
1 -5.327304727625e+01   9.765476238356e+01   3.452612697106e+01 
3
 Atoms. MD step: 19000
1 -7.457904518546e+00   1.719865615789e+00   9.086263048869e+00 
1  4.446530223928e+01  -7.702439640216e+00   1.502641886782e+00 
1 -3.237800630139e+01   4.048058927919e+00   2.580279145290e+01 
3
 Atoms. MD step: 20000
1  3.248871422761e+01  -3.259063374709e+01  -1.962013269348e+01 
1 -5.397041404396e+01  -3.065226519410e+01   3.278828084298e+00 
1  4.473611730459e+01   7.006250002739e+01   1.655233552469e+01 
3
 Atoms. MD step: 21000
1 -2.141688440050e+01   2.411487906889e+01  -1.427613798759e+01 
1  3.365345804381e+01   2.051851873443e+01   2.043377301868e+00 
1 -3.148972019017e+01   1.205247628610e+01  -3.250251740103e+01 
3
 Atoms. MD step: 22000
1 -3.678050327067e+00   4.152229610024e+01  -1.059561212970e+01 
1 -2.434557526138e+01  -1.416152811370e+01   3.587049035873e+01 
1 -2.587177515886e+01   4.949718986921e+01  -5.691700824517e+01 
3
 Atoms. MD step: 23000
1  1.727604169208e+01  -1.670578325381e+00  -2.212291118627e+01 
1  2.489731039469e+01  -2.045787361890e+01   5.748412959614e+01 
1 -1.547719722678e+01  -7.801530775838e+00   4.692343650542e+00 
3
 Atoms. MD step: 24000
1 -1.104857207743e+01  -2.742515316753e+00  -3.085490437158e+00 
1 -4.168007836328e+01   1.546462578858e+01  -6.131812946996e+01 
1 -1.296574061967e+01  -1.540853733099e+01  -7.791888141028e+00 
3
 Atoms. MD step: 25000
1  1.211039684240e+00  -1.977881263696e+01  -2.117594597812e+00 
1  3.202177946383e+01  -4.644625960245e+01   6.273817028954e+01 
1 -2.551798263700e+01   2.553545116718e+00   4.946602008803e+01 
3
 Atoms. MD step: 26000
1  2.699084191375e+01  -3.102848993321e+01   2.133561969724e+01 
1  2.146071816653e+01  -1.096838354656e+01   2.625103570298e+01 
1 -2.258504784385e+01   1.013995678300e+01   4.768299911237e+01 
3
 Atoms. MD step: 27000
1  1.543396917489e+01   4.111871667471e+01  -1.849960928727e+01 
1 -5.832345219741e+00  -2.848474045175e+01   1.425250864698e+01 
1 -1.739471928138e+01   3.108560539250e+01  -1.286395268931e+01 
3
 Atoms. MD step: 28000
1  3.745590977175e+01  -5.704949082775e+01  -4.329178457947e+01 
1  9.924822152203e+00  -1.579482172788e+01  -2.293621828977e+01 
1  8.932380803911e+00   1.238063291029e+01  -6.367034438722e+01 
3
 Atoms. MD step: 29000
1 -4.145604435086e+01   7.182757946641e-01   3.193932727166e+01 
1  3.504685743817e+01  -7.768021598111e+01  -7.978950372493e+00 
1  6.510622601703e+01   4.975006099446e+01  -6.251316291398e+00 
3
 Atoms. MD step: 30000
1  1.998282764049e+01  -2.382197793766e+01  -3.271773630371e+01 
1  1.552363762234e+01   4.168282006513e+00  -5.803506991796e+00 
1  2.171569775078e+01  -5.419222436583e+01  -1.569532534736e+01 
3
 Atoms. MD step: 31000
1 -5.159517184825e+01  -6.414854406510e+01  -4.817518134603e-02 
1 -1.610710530192e+01  -3.834725244311e+01  -1.956856236890e+01 
1 -2.398902522390e+01   2.628681883257e+01   6.914525251421e+00 
3
 Atoms. MD step: 32000
1 -1.937755843043e+00   4.742817554184e+00   1.261119588216e+01 
1  1.973354177956e+01   9.705074710879e-01  -5.804396409032e+01 
1 -4.016884319497e+01  -4.443099557523e+01   1.873338638885e+01 
3
 Atoms. MD step: 33000
1  4.444170054650e+00   2.703512585917e+01   1.511810406277e+01 
1  4.221335940188e+01  -5.550180998041e+00   1.347000710062e+01 
1  3.502345341262e+01   1.199288515709e+01   3.619242709408e+01 
3
 Atoms. MD step: 34000
1 -3.124902297197e+01  -4.090696669265e+01  -2.251659360571e+01 
1 -2.612381528456e+01   4.221111755695e+01   4.025530045834e+01 
1  1.278233716707e+00  -6.048681257912e+01  -1.703525461619e+01 
3
 Atoms. MD step: 35000
1  3.135623470342e+01  -4.613540424295e+01   6.853151921920e+00 
1 -5.849682465398e+00   3.358478348016e+01  -1.483020730781e+01 
1 -2.125882489531e+01  -2.985147041439e+01  -1.219710377205e+01 
3
 Atoms. MD step: 36000
1  3.874298082040e+00  -6.074096527951e+01   3.504573028092e+00 
1  2.863840212715e+01   7.660498259074e+00   1.285185661862e+01 
1 -3.250965693891e+01  -5.155312272899e+01   2.143462723223e+01 
3
 Atoms. MD step: 37000
1  4.231016526828e+01  -1.296241146649e+01   3.866679823780e+01 
1 -1.244642087295e+01   1.527831055598e+01   3.460443193186e+01 
1 -1.311140606381e+01  -4.152954965076e+01  -1.057951177733e+01 
3
 Atoms. MD step: 38000
1  1.562850720128e+01  -2.628540638969e+01  -3.958240685068e+00 
1  2.776513500810e+01  -3.213310349492e+00  -2.375859107100e+01 
1 -5.854280982575e+01  -1.578225161387e+01   2.472371121091e+01 
3
 Atoms. MD step: 39000
1  5.870784190907e+00   6.682362598611e+01  -3.713659469298e+01 
1 -8.095939151340e+00  -4.324071668725e+01   4.959502730224e+01 
1 -2.459171545272e+01  -5.809542683164e+01   2.878000144381e+01 
3
 Atoms. MD step: 40000
1  3.978348708669e+01   2.223887885673e+01  -4.804405019871e+01 
1 -7.048773346824e+01  -1.240438642835e+01  -1.313252987683e+01 
1  3.666690784449e+01   1.287591424409e+01   3.042003908317e+00 
3
 Atoms. MD step: 41000
1  5.219277260742e+00   2.591712688358e+01  -3.974617963519e+01 
1  1.500305581449e+01  -3.449130818573e+01  -1.164000381074e+01 
1  2.900839016588e+00   2.828411156948e+01  -1.800828830394e+01 
3
 Atoms. MD step: 42000
1  1.144535206860e+02   2.864137499912e+01   1.101194296614e+01 
1  3.337824810732e+01  -5.346078131949e+00   2.898931222458e+00 
1 -4.475413255701e+01   4.837691638709e+01   2.488601221230e+01 
3
 Atoms. MD step: 43000
1  4.823819553118e+01  -8.748768710305e+00   6.294845976312e+01 
1  3.343890390801e+01   2.123439478174e+01  -2.689493600768e+01 
1  2.954184065284e+01  -2.392530523039e+01   4.804029177264e+00 
3
 Atoms. MD step: 44000
1  4.541187319981e+00   5.572760225675e+01   3.210084609160e+01 
1  1.455684376460e+01  -1.102130315193e+01  -3.636432508985e+01 
1  6.490037548419e+01   2.861156838049e+01   5.643545024068e+00 
3
 Atoms. MD step: 45000
1 -9.749514907128e+00  -1.037478364874e+02   8.004524087209e+00 
1  9.431994193442e+00   1.699194323125e+01   1.667066961306e+01 
1  1.184076112884e+01   2.911607857752e+01  -4.059079547053e+01 
3
 Atoms. MD step: 46000
1 -1.412465894191e+01   2.248212518152e+01   8.721961353678e-01 
1 -4.383287015956e-01   2.349312440083e+01   6.589361714631e+00 
1 -1.156561540162e+01  -4.211295728550e+00   7.574637122254e+01 
3
 Atoms. MD step: 47000
1  6.846804880383e+01  -1.683583106996e+01  -4.284835420574e+01 
1  2.461208702053e+01  -1.074473331184e+01  -3.336009590634e+01 
1 -7.565764342906e+00  -1.103085444654e+01  -4.621225337591e+01 
3
 Atoms. MD step: 48000
1  3.595626045841e+01  -1.869853449764e+00  -3.172754649908e+01 
1  1.077560505895e+01   3.371434806310e+01  -1.996090776861e+01 
1 -3.249113907665e+01   9.096511834493e+00   7.885540750939e+00 
3
 Atoms. MD step: 49000
1 -1.829416557043e-01  -3.177826688577e+00   5.195782604050e+01 
1  2.636451910183e+01   7.800815229245e+01  -3.473539608348e+01 
1 -3.835482977712e+01  -1.986877675981e+01  -4.558369261020e+01 
3
 Atoms. MD step: 50000
1 -7.149273466926e+01  -1.663979677462e+00   1.826021681176e+01 
1 -3.873651227269e+01  -2.635732970527e+01  -2.460258323809e+00 
1 -3.150865810527e+01  -3.028491668327e+01  -9.386577712669e+00 
3
 Atoms. MD step: 51000
1  4.182007620615e+01   5.083569724233e+01   2.125746959536e+01 
1 -5.031961622625e+01   5.334703639949e+01  -5.576082851681e+00 
1 -1.706253650448e+01   3.998503885345e+01  -3.655538840864e+01 
3
 Atoms. MD step: 52000
1 -2.276334072559e+01   1.536821912778e+01  -1.443646652473e+01 
1  3.080309647731e+01  -9.676462664289e+01   3.576845914760e+01 
1 -3.711595485734e+01  -2.622496864451e+01  -4.408485166095e+01 
3
 Atoms. MD step: 53000
1  2.813863887124e+01  -7.885331747323e+00   4.723967135805e+01 
1 -4.418773961231e+01   5.336686394555e+01   7.065225416378e+01 
1 -5.044120953297e+00  -3.779317509556e+01  -4.187136656018e+00 
3
 Atoms. MD step: 54000
1 -1.320845588253e+01   4.861183674122e+01   2.817483946333e+00 
1 -6.457696355270e+01   4.903534282061e+01  -1.802771450420e+01 
1  4.318420351701e+01   3.358393706890e+01  -2.380035082299e+01 
3
 Atoms. MD step: 55000
1 -6.797270885388e+00  -6.039896775278e+01   4.399947966512e+01 
1 -6.190220268532e+01   3.270115217854e+01  -1.359292935221e+01 
1  1.289814151257e+01  -1.580529199218e+01   1.470756616555e+00 
3
 Atoms. MD step: 56000
1 -3.838392099544e+01   7.399022741082e+01   4.979391666500e+01 
1  2.395946214102e+01   3.338064492997e+01   2.976077006079e+01 
1 -1.067606302411e+01   4.197145158694e+01   1.216391801025e+01 
3
 Atoms. MD step: 57000
1  9.189711667469e+00   6.403652682852e+01   2.727294166981e+01 
1  1.534008227062e+01   1.477437678637e+00   6.805631321727e+01 
1 -1.933269947415e+01   1.040177141334e+01  -8.764042648746e+00 
3
 Atoms. MD step: 58000
1  3.561783764693e+01  -3.398262378120e+01  -2.060679828554e+01 
1 -1.639589485109e-01   6.617202450811e+01   3.255195112759e+01 
1 -5.844029277077e+01  -4.958339573159e+01  -3.142156429130e+01 
3
 Atoms. MD step: 59000
1 -7.321993856777e+00  -8.428668043476e+01   2.527338608058e+01 
1  1.395268109833e+01   4.324930922581e+01   4.217449761581e+00 
1 -1.974602283811e+01  -1.572381583257e+01   3.068956378389e+01 
3
 Atoms. MD step: 60000
1  2.962619005986e+01   1.867581127034e+01   1.045001828272e+01 
1 -1.524210167697e+01   1.695636692790e+01  -1.341091141673e+01 
1  1.959789585732e+01  -1.591991286387e+01  -2.086924645434e+01 
3
 Atoms. MD step: 61000
1 -2.081668296950e+01   1.673522005658e+01  -2.292608353782e+01 
1  3.038789779179e+01  -2.044037198295e+01   2.639621040102e+01 
1  5.432050094237e+01   3.493678885087e+01  -1.556706353345e+01 
3
 Atoms. MD step: 62000
1  8.424793616627e+00   1.367139444212e+01  -2.186036265608e+00 
1 -7.482805347330e+00   3.276119075568e+01  -1.224091521387e+01 
1  2.628574187752e+01   3.258473819860e+01   7.440863205175e+00 
3
 Atoms. MD step: 63000
1 -1.944028732536e+01   6.138046027013e+00  -7.197815682037e+00 
1  1.348668866685e+01  -5.286284130061e+01   2.796673735134e+01 
1  1.808155818429e+01  -7.587881691387e+00   2.442222382588e+01 
3
 Atoms. MD step: 64000
1  1.099168251828e+01   3.596942302125e+00  -1.785118587002e+01 
1 -1.320545066567e+01  -1.750674670664e+01  -3.402498526912e+01 
1  1.419623109775e+01  -4.790029463943e+01   1.049801631951e+00 
3
 Atoms. MD step: 65000
1  2.308319854750e+00   2.920307546143e+01  -6.541847323598e+00 
1 -1.105677829002e+01  -7.907761926147e+01   2.832145167777e+00 
1  1.285533218920e+01  -5.805806791886e+00  -2.157036641092e+01 
3
 Atoms. MD step: 66000
1 -1.567381714279e+00  -1.157411254779e+02   2.169384791599e+01 
1  2.234930391867e+01  -4.584272027030e+01  -3.152714178568e+01 
1 -1.836802910786e+01   5.539352785952e+01  -3.644765200629e+01 
3
 Atoms. MD step: 67000
1  9.818249678576e+00  -5.609284575340e+01   1.418523669913e+01 
1  2.267138500557e+01  -8.146617278240e+01   5.226100995010e+00 
1  1.785507295902e+01   5.668895755806e+01  -8.321309788373e+01 
3
 Atoms. MD step: 68000
1  1.845839915669e+00  -6.173644744363e+00   2.393275284411e+01 
1 -1.396324918799e+01   4.446456008863e+00  -1.603740723651e+01 
1 -1.230547238540e+01   7.297987081106e+01  -1.625211047927e+00 
3
 Atoms. MD step: 69000
1  1.420401240518e+01   2.697003552888e+01   3.778309253364e+00 
1  2.350475654623e+01  -1.007115844991e+01   6.019336929520e+01 
1  4.591988617824e+01   2.531391988088e+00   2.990077542319e+01 
3
 Atoms. MD step: 70000
1 -1.592777643349e+00  -1.266302051838e+01  -2.904211846302e+00 
1 -5.907068169077e+00   2.341470747365e+01  -3.679465488521e+01 
1 -1.955188870162e+01  -6.930338858212e+01   6.302766077325e+01 
3
 Atoms. MD step: 71000
1 -4.891669034724e+01  -1.944806700696e+01   3.007058273471e+01 
1  1.610101120342e+01  -3.795773001607e+01   5.076511172124e+00 
1 -4.292308491750e+01   5.547132857644e+00   4.097695758566e+01 
3
 Atoms. MD step: 72000
1  7.068752110655e+00  -3.783702462875e+01   1.722056077345e+01 
1 -4.064455427127e+01  -3.358324222239e+01   1.407708182885e+00 
1 -1.116785399259e+01   2.293379049315e+01  -1.242712793753e+01 
3
 Atoms. MD step: 73000
1  2.261194382085e+01  -1.438818086747e+01   5.167327603220e+01 
1  1.572494629633e+01  -2.072910352962e+01   2.979817967319e+01 
1  1.477968045347e+01  -7.803419875980e+00  -7.412096553190e+00 
3
 Atoms. MD step: 74000
1 -1.268562484908e+01   3.603075143964e+01  -2.674004206125e+01 
1 -4.161696090679e+01   3.597495068625e+01   1.020473344029e+01 
1 -3.809145541420e+01  -1.051854274753e+01  -9.883473663995e+01 
3
 Atoms. MD step: 75000
1  1.159611009180e+01  -3.514368016802e+01  -4.594307737717e+00 
1 -3.359980110389e+01  -7.043051924033e+00  -2.789038344566e+01 
1  4.962409712925e+01   3.338949311671e+01   2.500242264190e+01 
3
 Atoms. MD step: 76000
1  6.706475311057e+00  -2.084413208074e+01   2.565091115609e+00 
1 -1.707336849443e+01   2.260631332101e+01   7.673924107761e+00 
1 -1.919798602281e+01  -7.381464988412e+00   1.038197623041e+02 
3
 Atoms. MD step: 77000
1  4.651823681764e+00  -6.758508976083e+01  -1.230491644878e+01 
1 -4.278059769453e+00  -7.433988075828e+00   2.976714923028e+00 
1 -2.323710681229e+01   2.096686915416e+01  -7.503169799973e+01 
3
 Atoms. MD step: 78000
1  4.281573961292e+00  -8.139150383722e+00  -3.431605194653e+00 
1 -5.882720631953e+01  -1.339897381842e+00   2.819185800665e+01 
1 -3.424902445334e+01  -5.542898442056e+00   7.135054756676e-02 
3
 Atoms. MD step: 79000
1  4.786973162100e+01  -9.973590546993e+01   4.851261302387e+01 
1 -1.718390765156e+01  -1.486567393404e+01  -1.136293707487e+01 
1 -6.763786514217e-01  -6.998460417565e+00   2.236468355957e+01 
3
 Atoms. MD step: 80000
1  3.215356482549e+01   2.125190603915e+00   3.991653576322e+01 
1 -2.602964732790e+01   1.212137620122e+01   2.172514388960e-01 
1  5.299807279873e+01   4.961236600487e+01  -7.844105380961e+01 
3
 Atoms. MD step: 81000
1 -3.654817993862e+01   5.817350899971e+01   8.615595384550e+01 
1 -3.588866723973e+01   7.801341067444e+01   2.570055469393e+01 
1 -2.104556182260e+01  -3.461978400225e+01   5.899858037332e+01 
3
 Atoms. MD step: 82000
1 -9.289003492915e+00   4.410485126410e+01  -1.923929416725e+01 
1 -5.537247920476e+01  -1.513037492450e+01   3.353181839131e+00 
1 -2.776620472884e+01   7.221842395856e+01   1.211382456495e+01 
3
 Atoms. MD step: 83000
1 -5.600672245204e+01  -6.262106564789e+01   2.911797018545e+00 
1  6.560452850346e+00   2.669300223894e+01   5.967651595008e-01 
1  3.083099293547e+00   5.344057886280e+01  -6.466084344485e-01 
3
 Atoms. MD step: 84000
1  1.023066663745e+01   3.645033441288e+01   7.646791479765e+00 
1  6.985641622724e+01   9.349892252697e-01   3.142711215003e+00 
1 -4.915232352965e+01  -2.090842825331e-02  -6.338756581729e+00 
3
 Atoms. MD step: 85000
1  1.209386481785e+01   3.465981644121e+01   8.874642109221e+00 
1 -2.607771365341e+00   2.222834641340e-01  -1.621604027482e+01 
1  2.210598819689e+01  -2.908015023272e+01  -5.300302742227e+01 
3
 Atoms. MD step: 86000
1  6.012873710690e-01   3.219662118057e+01   2.100596355120e-01 
1  2.065441583038e+01   4.176147950426e+01   4.339294041191e+00 
1 -4.890568929585e+01  -1.870855689866e+01  -8.294613497958e+00 
3
 Atoms. MD step: 87000
1  3.413345668850e+01   3.528562585349e+01   5.727931847029e-02 
1  2.809482425784e+01  -1.167331543780e+01  -2.985267456191e+01 
1  8.159708123552e+01   2.601869941897e+01  -3.137612238936e+00 
3
 Atoms. MD step: 88000
1  7.152136580201e+01  -2.814816960841e+01   3.020370977666e+01 
1  3.953857809988e+01   4.350866144817e+01   5.490141501275e+00 
1 -8.141766757324e+01  -2.750414078935e+01  -2.283195966462e+01 
3
 Atoms. MD step: 89000
1 -4.942259231309e+00  -2.145409326108e+01   1.387651432424e+01 
1 -4.295503783406e+01   4.223638939263e+00   1.117123644916e+01 
1  1.302870338432e+01  -4.549922218206e+01   2.402105101589e-01 
3
 Atoms. MD step: 90000
1 -3.815371939515e+00   7.255923309503e+01   1.393765775945e+01 
1  6.654575948022e+01   1.873749261374e+01   1.416403669817e+01 
1  2.945905235480e+00  -1.805189419084e+01  -1.290270146714e+01 
3
 Atoms. MD step: 91000
1 -5.097599581346e+01  -1.352982547802e+01  -2.625280274019e+01 
1 -5.254384913647e+00   4.371059564340e+00  -7.379312495216e+01 
1 -2.776543122692e+01   6.467326121908e+00  -6.325367619359e+01 
3
 Atoms. MD step: 92000
1 -2.715199913711e+01  -4.122956149539e+01  -4.781430658273e+01 
1 -4.612905809769e+01   2.373738263930e+01   1.248948098103e+01 
1  2.799025680671e+01   7.491580322154e+00  -4.329437704204e+01 
3
 Atoms. MD step: 93000
1  2.850301178057e+01   5.986523961351e+01   4.712965639271e+01 
1  2.266588278951e+01   2.438235400073e+00   1.820499081991e-01 
1 -3.408275411376e+01  -4.357943520689e+01  -5.677832274252e+01 
3
 Atoms. MD step: 94000
1 -1.692644707720e+01   2.993820226859e+01  -5.237886683797e+00 
1  2.458629912077e+01   1.149691001424e+01  -2.630365679080e+01 
1 -5.646326749042e+01  -1.394210427344e+01   1.018353752380e+01 
3
 Atoms. MD step: 95000
1 -2.141631769102e+01  -1.313589353733e+01  -2.447943587810e+01 
1 -1.927207372696e+01   4.627252539730e+00  -8.424971927405e+00 
1 -3.007496272320e+01   3.720935690465e+01  -3.794344112035e+01 
3
 Atoms. MD step: 96000
1 -3.603596018235e+01  -2.584716844859e+01   4.452651470124e+01 
1 -3.497375283846e+01  -4.468470656699e+01  -2.166706771292e+01 
1  2.842591681656e+00   2.225648984417e+01   3.303586183980e+01 
3
 Atoms. MD step: 97000
1 -2.810982724857e+01  -1.096104109394e+01   2.009594742630e+01 
1 -1.034305422056e+01   6.089825449411e+01   3.030541063377e+01 
1  3.577318501793e+01  -7.465185683840e+00  -1.231349492848e+02 
3
 Atoms. MD step: 98000
1  4.611803191950e+01   2.934597158823e+01  -3.879725720734e+01 
1  3.513595875439e+01  -1.635278842320e+01  -3.655396609434e+01 
1  1.375258347678e+01  -3.955192365137e+00   3.558828032371e+01 
3
 Atoms. MD step: 99000
1 -2.867824929674e+01  -8.659944373941e+00  -2.663879051417e+01 
1 -1.623938894255e+01   2.840344497776e+01  -1.055528562084e+01 
1  2.595582779129e+01   3.372425283785e+01   2.565186174717e+01 
3
 Atoms. MD step: 100000
1  4.194787785381e+01  -1.280165484610e+01  -3.421927040778e-01 
1  2.904536582894e+01  -4.222002391963e+00  -1.112339339977e+01 
1  2.594674510443e+01   5.399113338144e-01  -5.083269698493e+01 
