3
 Atoms. MD step: 0
1  2.024591768278e+01  -1.109760911398e+01  -3.341565242969e-01 
1  8.175788203280e+00   2.249961218695e+01  -5.282294348799e+01 
1 -2.694654194969e+01  -1.693492830456e+01  -1.189604998465e+01 
3
 Atoms. MD step: 1000
1 -4.062430260484e+01   3.965132115053e+01   2.656234798546e+01 
1  1.225693263193e+01  -2.534411543582e+01  -2.564507372807e+01 
1 -9.600615296679e+01  -4.766315521487e+00   2.095110290050e+01 
3
 Atoms. MD step: 2000
1  4.115235568644e+01   5.105106874361e+01   2.274915897528e+01 
1  3.893750374958e+01   1.436953449772e+01   5.893658810732e+00 
1 -2.118705659648e+01   6.336656071239e+01  -2.001846905895e+01 
3
 Atoms. MD step: 3000
1 -3.236710461934e+01   6.908961229612e+00  -1.095992198449e+01 
1  2.132974401556e+01  -3.494242463947e+01   1.316691772411e+01 
1 -4.503362662947e+01   3.227006012954e+01  -2.845533425556e+01 
3
 Atoms. MD step: 4000
1  1.806419515850e+01   2.938228470898e+01  -6.700201822599e+00 
1  2.071263779550e+01   7.882486672787e+00  -3.631085867839e+01 
1 -4.116280134087e+01  -2.817007718615e+00   1.342110322747e+01 
3
 Atoms. MD step: 5000
1 -5.325798321533e+01  -1.856331551965e+01  -2.855821875291e+00 
1 -1.966052436049e+01  -3.345851839971e+01   8.469664394179e+00 
1 -8.404066464013e+00  -3.071058452901e+01  -3.241059543623e+01 
3
 Atoms. MD step: 6000
1  1.852218120716e+01  -1.352724565659e+00  -2.279915034439e+01 
1 -9.153985533224e+01   4.126636879746e+01   6.610022172095e+00 
1  1.228722952741e+01   3.809131875151e+01  -4.957954691161e+01 
3
 Atoms. MD step: 7000
1 -8.283316276866e+00   2.299291798506e+01   4.078604082590e+01 
1 -2.769356645545e+01   3.913391313576e+01   2.161489973821e+01 
1  2.444307045230e+01   5.696736301470e+01  -3.089962439507e+00 
3
 Atoms. MD step: 8000
1  3.203571840802e+01   1.196557685879e+01   3.321456681567e+01 
1 -3.982985863419e+01   7.386858515703e+01   3.265431687966e+00 
1  4.309239415032e+01   6.571719861720e+01   2.244633238443e+01 
3
 Atoms. MD step: 9000
1  1.578835851640e+01   3.339354596286e-01   9.692358178710e+00 
1  1.726451194299e+01   3.966252808963e+01   3.665750748362e+01 
1  1.002044705969e+01   1.051211228801e+01  -9.580251200466e+00 
3
 Atoms. MD step: 10000
1 -3.026224615708e+00   2.298287435603e+01   4.254428286130e+00 
1  9.708402915158e+00  -5.893321481464e+01  -1.053448890565e+01 
1 -5.405054172145e+01   7.215107501208e+00  -1.305598545519e+01 
3
 Atoms. MD step: 11000
1 -4.560471507098e+01  -3.791739388951e+01   4.562965053182e+01 
1  2.824377273111e+01   2.065647891824e+01  -5.543534148805e+01 
1 -5.199280910393e+01  -4.483752870800e+01   4.488557314023e+01 
3
 Atoms. MD step: 12000
1 -6.587932690926e+01   5.097090227303e+01   1.068158333148e+01 
1  1.658466550101e+01  -2.136041423464e+00   8.411165624339e+00 
1 -4.218974482647e+01  -6.853040453539e+01   2.643056726427e+01 
3
 Atoms. MD step: 13000
1  1.597889199625e+01   2.545822470854e+01   7.217261628445e+01 
1  5.450065538430e+01  -1.118198585307e+01   2.927326406518e+01 
1 -5.742889454975e+01  -3.592488619422e+01  -3.886388671191e+01 
3
 Atoms. MD step: 14000
1 -9.090102239775e+00   1.529454507308e+01  -5.494216872665e+01 
1 -6.567399278737e+00   6.613554778640e+00  -1.087993157692e+01 
1  1.186183414365e+00  -2.464971977720e+00   2.285881012300e+01 
3
 Atoms. MD step: 15000
1 -3.063854663775e+01  -3.825548173300e+01   1.893901386285e+01 
1  2.206191354965e+01  -1.873601005594e+01   1.234889435302e+01 
1  4.515764877985e+01   1.109471263151e+01  -7.815106365594e+01 
3
 Atoms. MD step: 16000
1 -5.935075967460e+01  -7.381774358132e+00   6.281115107942e+01 
1  2.057912552928e+01  -8.395643264413e+00   2.603919339810e+01 
1  1.430033848743e+01  -1.681591188450e+00  -1.057728523451e+01 
3
 Atoms. MD step: 17000
1  5.118678937901e+01  -4.129265063489e+01   1.960700536875e+01 
1  4.623077710432e+00   4.708767055529e+01   3.105566445748e+01 
1 -4.733530212547e+01  -2.523457995547e+01   4.847100872556e+01 
3
 Atoms. MD step: 18000
1 -3.740118530221e+01   2.891767819574e+01   3.491004349895e+01 
1  2.625721148221e+01  -1.265753761014e+01   4.304597998604e+00 
1 -2.258675898222e+00   6.023133683055e+01   6.347673274156e+01 
3
 Atoms. MD step: 19000
1 -3.486490544477e+01   3.285639768476e+01  -6.503836900067e+01 
1 -2.216216176474e+01  -3.198602942836e+01   2.269944046547e+01 
1  2.416783533945e+01   3.723619174054e+01   2.165691163147e+01 
3
 Atoms. MD step: 20000
1 -4.766749363070e+01   6.443749824286e+00   8.682210395544e+00 
1 -3.018444216030e+01   1.686609851659e+01   2.854911675636e+01 
1  3.483730471461e+01  -2.032902011089e+01   6.422280376296e+00 
3
 Atoms. MD step: 21000
1 -4.690312219437e+01  -1.269205561918e+01  -3.948316094887e+01 
1  1.886889981451e+01  -1.202532878407e+01  -2.798810638975e+01 
1  5.809004690445e+01  -6.210512604686e+00  -2.515224791840e+01 
3
 Atoms. MD step: 22000
1 -1.295274889941e+01  -6.358632908015e+01  -1.221006518190e+01 
1 -1.621776309698e+01  -1.656518991177e+01   6.172958535380e+01 
1 -4.660284559779e+01  -4.414787891857e+01  -4.143496162612e+01 
3
 Atoms. MD step: 23000
1  7.060930717816e+00  -1.825634228119e+01  -1.334554230201e+01 
1  2.347814981824e+01   4.039372448039e+01  -9.835559752536e+01 
1 -7.269426655042e+00  -3.508513166999e+01   3.219933830784e+00 
3
 Atoms. MD step: 24000
1  4.169441228240e+01   1.276643714948e+01  -6.454078004380e+01 
1  2.200970236922e+01   3.695562307177e+01   8.609168650232e+00 
1 -4.169087647488e+01  -6.006933405173e+00  -2.585440863957e+01 
3
 Atoms. MD step: 25000
1  5.543593097442e+01  -1.700510703999e+01  -2.511728587145e+00 
1 -5.452296570885e+01   2.819456386865e+01   3.755992223335e+01 
1 -3.559201043034e+01   1.891673187702e+01   7.734128466554e+01 
3
 Atoms. MD step: 26000
1  2.951448831254e+01  -5.783700829719e+01   2.562364646803e+01 
1 -1.624835766521e+01   4.618778445813e+00   1.572172151072e+01 
1  4.900211980092e+01  -6.184754662193e+00   2.975795418193e+01 
3
 Atoms. MD step: 27000
1 -2.751488262459e+01  -3.899704654097e+01  -3.309963177980e+00 
1  9.760724695342e+00  -2.784710129178e+01   1.888936263913e+01 
1  1.775766509878e+01   5.921149348876e+01   3.901691760900e+01 
3
 Atoms. MD step: 28000
1 -3.691267811850e+00  -1.302266495641e+01  -2.241388121586e+01 
1  1.600685133639e+01   5.739996019143e+01   2.101713755419e+01 
1 -4.775032705709e+00  -1.080928168938e+00  -1.681336865945e+01 
3
 Atoms. MD step: 29000
1 -6.379146065494e+01  -3.199043966824e+01   1.487815545092e+01 
1  4.011005946240e+01  -1.050146408894e+01   1.017587114663e+02 
1 -1.495202050309e+01  -3.781834842037e+01   4.131135259038e+01 
3
 Atoms. MD step: 30000
1 -4.954365025803e+01   8.055584157463e+00   3.379582912448e+01 
1 -3.671589538344e+01  -3.874205159291e+01  -7.965804105673e+00 
1 -1.090329463863e+01   3.333903264628e+01   2.959831266440e+01 
3
 Atoms. MD step: 31000
1  2.922618096011e+01  -5.913401766571e+00  -6.062006394104e+01 
1 -7.432222113172e+01  -2.024145577113e+01   2.009955905906e+01 
1  4.852130869524e+01   4.901608878220e-01   4.678073053911e+01 
3
 Atoms. MD step: 32000
1 -9.422811719678e+00  -4.756732241030e+00   6.952530329511e+00 
1 -2.336129614146e+01  -6.618795565016e+01   2.882526805092e+01 
1 -3.345213505120e+01  -1.100903500097e+01  -4.853048213187e+01 
3
 Atoms. MD step: 33000
1 -5.637674375517e+01  -4.783208393294e+01  -4.387091254353e+01 
1  7.133597327259e+01   2.691253044518e+01   6.944098449576e+00 
1  1.518852955295e+01  -5.684460981490e+01   4.171873347527e+01 
3
 Atoms. MD step: 34000
1  2.888678360255e+01   1.396554441372e+00   3.304655161539e+01 
1 -6.873881437535e+00  -2.245870173029e+01  -1.708302076533e+01 
1  5.494284262437e+01   3.698736534711e+01   2.915685874915e+01 
3
 Atoms. MD step: 35000
1  6.123775099047e+01  -2.408556483546e+01  -1.228758040158e+01 
1  5.573618899409e+01   3.315166047588e+01  -2.114810563286e+01 
1  1.085591649349e+01   5.295664453744e+01  -3.384589999805e+01 
3
 Atoms. MD step: 36000
1 -1.802302685293e+01   2.788082134149e+00  -7.236189486305e+00 
1  4.068131373388e+01   9.857308734436e+01  -6.142745404603e+01 
1 -7.470538038020e+01   5.482930273209e+01  -5.199504952225e+01 
3
 Atoms. MD step: 37000
1  1.333565117406e+01  -5.028020865592e+01   3.931874671102e+01 
1 -5.033985425497e+01  -2.557069206170e+01   1.840480693136e+01 
1  1.445476945547e+01  -2.942877374361e+01  -2.735771879922e+01 
3
 Atoms. MD step: 38000
1 -6.301547395716e+01   4.381595254887e+00  -2.398381399963e+01 
1 -1.197341502441e+01   2.752863080036e+01   6.278163044967e+01 
1 -1.567903700473e+01  -2.732871456761e+01   8.054804192053e+00 
3
 Atoms. MD step: 39000
1 -1.664433968568e+01   1.285992236885e+01  -2.578106632317e+01 
1 -5.474198688462e+01  -1.616827493437e+01   1.499069435623e-01 
1  1.056473221158e+01  -3.388131242489e+01   4.173355215341e+01 
3
 Atoms. MD step: 40000
1 -2.998788719596e+01   3.423901298626e+01  -1.215684564962e+01 
1 -1.508443723158e+01   9.648629716986e+00   1.320535768968e+01 
1 -7.459839577079e+01  -2.522244433394e+01  -2.593497329288e+01 
3
 Atoms. MD step: 41000
1 -1.049981698488e-01  -2.926035848513e+01  -5.433784263926e+01 
1 -1.833706216259e+01   5.288643985577e+00  -3.688316565562e+00 
1 -4.608086224931e+00  -1.882915855000e+00  -7.735457277131e+00 
3
 Atoms. MD step: 42000
1  1.088817702234e+01   3.887165366516e+01   1.658965024034e+01 
1  1.851108789767e+01  -1.302161391301e+01  -4.115755974879e+01 
1 -4.070633575506e+01  -1.042838322789e+00   3.818114060956e+00 
3
 Atoms. MD step: 43000
1 -5.152417932009e+01  -2.612193486902e+01   4.151337523018e+00 
1 -2.889722724769e+00  -3.034697686443e+01  -1.355547377836e+00 
1  4.541784774417e+01   7.389469453821e+01   3.813913215546e+01 
3
 Atoms. MD step: 44000
1 -4.207002137073e+00   3.457858757579e+01   4.761213362827e+01 
1  3.894343752104e+00  -2.494453673315e+01  -8.563340526876e+01 
1  2.149146954053e+01   2.530004931881e+01  -1.608290170579e+01 
3
 Atoms. MD step: 45000
1 -3.295435576261e+00  -1.365475887655e+01   9.825750572947e+01 
1  3.748344581138e+01  -2.336189177291e+01  -3.738678610980e+01 
1 -3.973664805201e+00   2.048895216759e+01   5.030037164848e+01 
3
 Atoms. MD step: 46000
1  3.065006880266e+01  -3.947191972036e+01   4.757010195218e+00 
1  2.660564415526e+01   6.591146772351e+01   2.526259661461e+01 
1  2.693655406417e+01  -9.242527403564e+00  -7.439816949635e+00 
3
 Atoms. MD step: 47000
1 -1.146788188121e+01   2.174468523994e+01   5.710100941817e+01 
1  4.383280561570e+01  -3.955323957606e-01   1.508304705609e+01 
1  6.725997946498e+00  -2.005873080968e+01   3.386714348333e+01 
3
 Atoms. MD step: 48000
1  5.009745502487e+00   1.715924315688e+01  -3.411421705892e+00 
1 -1.867468143678e+01   3.421756370643e+01  -4.677767144604e+01 
1 -2.057761494735e+01   1.614681619788e+01  -1.933978727292e+01 
3
 Atoms. MD step: 49000
1  5.914004100936e+01   1.406237390685e-01  -8.515424193791e+00 
1  2.808146275574e+01   7.207825958015e+01   1.773410281599e-02 
1 -1.955759492512e+01  -2.014624062559e+01  -6.259937275294e+00 
3
 Atoms. MD step: 50000
1  1.307535023362e+01   3.070362051325e+00  -6.582450956420e-01 
1 -4.384864687217e+01   4.790083533548e+00   4.809497786197e+01 
1  6.072593689117e+01  -2.664448159052e+01  -1.105196963133e+01 
3
 Atoms. MD step: 51000
1 -1.486373770772e+00   5.247701747365e+00  -3.889425199773e+01 
1 -2.921024092697e+01   3.340398761768e+00  -4.534443714012e+01 
1  6.142292656547e+00  -1.479634381694e+00   1.938262621504e+01 
3
 Atoms. MD step: 52000
1 -9.802499168060e+00  -8.104691123582e+01   4.438618242267e+01 
1  1.722244419731e+01   2.631819949680e+01   5.036177391673e+01 
1  3.278144410429e+01   5.268763562880e-01  -7.792292262999e+01 
3
 Atoms. MD step: 53000
1 -3.622754987246e+01   2.140819556110e+01   2.821595522611e+01 
1 -3.446444859122e+01   4.576597785900e+01   6.584852202784e+00 
1  3.122844316142e+01   1.987020393707e+01   9.049012765249e+00 
3
 Atoms. MD step: 54000
1  9.270727790077e+00   4.710914870403e+01  -1.237375548344e+00 
1 -6.490660456862e+01   3.128638848073e+01  -6.937060172033e+01 
1  1.911387067639e+01   3.170889519251e+01  -1.627281047726e+01 
3
 Atoms. MD step: 55000
1  1.558213860308e+01   4.804047435005e+01   5.527521123148e+01 
1  2.400073736015e+01   1.376783395442e+01  -7.654160873230e+00 
1  4.047037255035e+00  -6.012537310577e+01   5.672124440958e+01 
3
 Atoms. MD step: 56000
1 -4.172461810448e+01   7.156021330125e+01   2.770310277000e+01 
1  3.123661096554e+00   3.359913948439e+01  -7.155649178007e+00 
1 -2.607404437466e+01  -3.736119974216e+01   1.121641314203e+01 
3
 Atoms. MD step: 57000
1  2.257830370603e+00  -5.592720442327e+01   7.653721494569e+00 
1  2.432255435224e+01   3.415010807019e+01  -5.101622786351e+00 
1 -1.731626046865e+01   4.852391871594e+01   6.168007335591e+01 
3
 Atoms. MD step: 58000
1 -3.625771774493e+00  -5.071624793630e+01  -4.646721260442e+01 
1  9.389864829320e+00   2.332165157126e+01   7.209717897549e+00 
1 -2.178255908592e+01  -2.698804553602e+01  -6.150006643802e+00 
3
 Atoms. MD step: 59000
1 -3.641589843546e+01  -6.075668840289e+00   4.240797192791e+01 
1  4.768272791266e+01   8.777587949711e+01   5.960218956952e+01 
1  1.207189192566e+01  -1.644196425421e+01   2.366922387140e+01 
3
 Atoms. MD step: 60000
1 -5.718303070935e+01   1.625020732568e+01   2.319996279420e+01 
1  1.625635618079e+01   7.548189560341e+00  -8.095294481210e+00 
1 -4.089556213961e+01  -1.004957830843e+01   4.343065593136e+00 
3
 Atoms. MD step: 61000
1 -2.203298132946e+01   3.454369947122e+01   2.119910973306e+01 
1  1.964660919880e+01   2.004978219147e+01   3.891398130489e+01 
1  8.649466446549e+00  -1.663909089443e+01   2.373584957309e+01 
3
 Atoms. MD step: 62000
1  3.500702903502e+00   6.961219331083e+00   4.755616877487e+01 
1 -3.800631652058e+01  -3.212962714045e+01  -1.106525275670e+01 
1 -1.898073768098e+01   5.432241796279e+00   1.238180603897e+01 
3
 Atoms. MD step: 63000
1 -2.665332234642e+01  -4.325834014908e+01  -3.309978026937e+01 
1  3.204088285906e+01  -2.427464099804e+01  -7.097149310688e+00 
1  1.806745171854e+01  -1.914483397974e+01  -1.724248628442e+01 
3
 Atoms. MD step: 64000
1  3.564436464853e+01   3.344407560137e+01   1.456555736286e+01 
1  4.662946933948e+00  -3.466858050350e+01   1.722813472544e+01 
1 -3.728682692770e+01  -1.391880311975e+01  -3.209394988529e+01 
3
 Atoms. MD step: 65000
1 -8.761115531681e-01   4.130878942806e+01   3.447398636653e+01 
1 -2.650506038623e+01  -3.031124360740e+01  -4.663055573011e+00 
1  1.272254498904e+01  -3.739961107040e+01   7.854032853297e+00 
3
 Atoms. MD step: 66000
1  2.379890877727e+01   2.252267071320e+01   1.636450719039e+00 
1 -1.849403037524e+00   2.215950051347e+01  -2.131784452660e+01 
1 -5.011538192328e+01   4.292206363797e+01  -1.892545191464e+01 
3
 Atoms. MD step: 67000
1 -2.665566271409e+00  -5.784244747519e+01   2.162576940065e+01 
1  6.745779849609e+00   5.891482798307e+01  -1.113610676989e+01 
1  2.357753917920e+01  -3.194572663518e+01  -3.572792894056e+01 
3
 Atoms. MD step: 68000
1 -1.538819272008e+01  -6.475591626243e+01  -9.001698424778e+00 
1 -2.580337179862e+01  -1.055275307537e+01   4.917806058615e+01 
1  2.750792250300e+01   4.181579408710e+00  -5.091944297977e+01 
3
 Atoms. MD step: 69000
1  1.228941293844e+01   3.745724113636e+01   7.151521293496e+01 
1 -4.671250788740e+00   2.507161897766e+01   3.592079940845e+01 
1  4.877396357894e+00  -3.300382164822e+01   5.163103764228e+01 
3
 Atoms. MD step: 70000
1  5.237549104099e+01  -9.702934443779e+01   2.467255893026e+00 
1 -2.153684168471e+01  -4.763261117967e+01  -1.241501923758e+01 
1 -9.121931401554e+01   2.472666260243e+01   9.174123888523e+00 
3
 Atoms. MD step: 71000
1  5.114020221638e+01  -8.008631478786e+00  -4.142662284279e+01 
1  2.514254720649e+01  -2.543786889633e+01  -3.160522034951e+01 
1 -1.081021644141e+01   4.250325988291e+01   8.995610938566e+00 
3
 Atoms. MD step: 72000
1 -3.996288369081e+01  -5.209912673717e+01   6.688287993071e+00 
1 -1.555877135367e+01  -2.560252745767e+01   4.604633426230e+01 
1 -2.695606763292e+00  -6.370008214034e+01   3.550294902203e+01 
3
 Atoms. MD step: 73000
1 -4.307622491189e+01  -2.854244310270e+01   6.771853600241e+01 
1  3.800815157284e+01   6.335541555679e+00   2.829066524985e+01 
1  2.198540613063e+01   1.183913616953e+01   1.183604177116e+01 
3
 Atoms. MD step: 74000
1  8.764492487615e+00   2.282465825594e+01  -6.810551742491e+00 
1 -3.834716445118e+00   6.491229990613e+01   1.704439905478e+01 
1  1.626767069407e+01  -5.291902824493e+01  -2.523567902611e+01 
3
 Atoms. MD step: 75000
1 -3.295049221665e+01   1.671675905601e+01  -2.655056836641e+01 
1 -1.369070036675e+00  -4.797329383898e+01  -1.165398806615e-01 
1  3.899551333903e+01  -5.768591146297e+01  -5.481015534826e-01 
3
 Atoms. MD step: 76000
1  1.009470623182e+00  -4.932422407029e+01   3.604913910359e+01 
1 -8.524601772679e+01  -4.779816903825e+01  -1.054877514067e+01 
1  4.489572428657e+01  -2.759911018603e+01   3.140513167764e+01 
3
 Atoms. MD step: 77000
1 -3.293707524744e+01  -3.360074160353e+01  -5.770472340793e+01 
1  2.920204468230e+01  -1.516736451333e+01   3.786069649930e+01 
1  2.274713495442e+01  -2.624026386798e+01   4.089504366558e+00 
3
 Atoms. MD step: 78000
1  3.333431796642e+01  -2.280641231692e+01   1.600266145271e+01 
1  6.134107776906e+00  -2.036995204396e+01   6.369238395971e+01 
1  3.168236572452e+01  -2.420207903651e+01   6.366938714360e+01 
3
 Atoms. MD step: 79000
1  7.747014488793e+01  -1.091364326775e+01   8.932262047050e+00 
1  1.786366390878e+01  -8.041078899684e+00   9.076831058525e-01 
1 -3.232059794226e+01   4.127351267275e+01   1.369834219661e+01 
3
 Atoms. MD step: 80000
1 -4.570804580011e+01   5.838284863620e+01   4.708231785130e+01 
1  3.452803332619e+01   2.540349131758e+01   3.287009757168e+00 
1  3.816189020303e+01   1.788881494343e+01  -4.132570317287e+01 
3
 Atoms. MD step: 81000
1  3.734845929110e+01  -4.215801398302e+01   4.230033859838e+01 
1 -1.665568052549e+01   2.462018797137e+01   4.107546827081e+01 
1 -7.262782681501e+00  -1.082875820743e+01   2.644847385234e+00 
3
 Atoms. MD step: 82000
1  2.702805851184e+00   1.185243814294e+00   4.315774911563e+01 
1 -4.965461089207e+01  -7.021245171659e+00   2.878245245695e+01 
1  6.235367404518e+01   2.457186035574e+00  -7.177592251400e+01 
3
 Atoms. MD step: 83000
1 -5.012076914016e+01   1.172957096087e+01   1.629474958146e+01 
1  5.899651543352e+01   9.855307251312e+00   1.685131789500e+01 
1 -1.408180310433e+01  -1.166859040813e+00   2.623115068456e+01 
3
 Atoms. MD step: 84000
1  3.091847883573e+01   2.348147379813e+01  -4.866464201606e+00 
1  7.341236309822e+00  -2.990545865722e+01  -6.932405528858e+00 
1 -6.886169262618e+01   1.987485188084e+01  -7.357796186719e+00 
3
 Atoms. MD step: 85000
1  1.073932046768e+00  -1.824514694371e+01  -8.678347535186e+00 
1  2.516092457218e+01  -1.402037663970e+01  -1.885039399559e+01 
1 -3.030618757896e+01   1.770085407789e+01  -2.409452189238e+01 
3
 Atoms. MD step: 86000
1  4.425325162345e+01   1.387285947996e+01  -5.734892380898e+00 
1  1.458601781702e+01  -5.862336841235e+00   2.612715705871e+00 
1  3.631064332168e+01   1.394591831910e+01  -7.476216784589e+00 
3
 Atoms. MD step: 87000
1  8.309525115756e+01   2.389352436269e+01  -2.032531087532e+01 
1  2.683750682700e+01  -9.355966626798e-01   4.318542675532e+01 
1  3.540420885173e+01   4.239003151979e+01   6.704368810461e+00 
3
 Atoms. MD step: 88000
1 -4.937520157611e+01  -5.079529385120e+00   4.132510343156e+01 
1 -5.612155771148e+01  -3.685597872976e+01   4.423970648067e-01 
1 -1.644833550708e+01   5.734708316245e+00   1.111516361558e+01 
3
 Atoms. MD step: 89000
1  5.589740548628e+01  -2.811477100701e+01   2.923246154002e-01 
1 -4.543930943624e+01  -2.544759144900e+01   8.843682002673e+00 
1  6.512271691396e+00   6.723619056305e+00  -2.685960439633e+01 
3
 Atoms. MD step: 90000
1 -7.939997552923e+00   4.301391011023e+01  -1.152033431896e+01 
1  4.707372081995e+01   1.073507364274e+01   5.998747553572e+00 
1 -2.697281033512e+01  -1.863714411464e+01  -2.626614893644e+01 
3
 Atoms. MD step: 91000
1 -5.332847519892e+00   5.579483075717e+01   2.359496224944e+01 
1  3.822157841420e+01   1.594008950604e+01   7.608917913849e+01 
1  7.771408667971e-01  -1.332102675398e+01   4.297847236441e+01 
3
 Atoms. MD step: 92000
1  2.604197662553e+01  -1.408937392830e+01  -1.689769178787e+01 
1 -3.206133047527e+01   4.037436073700e+00  -1.711867027745e-01 
1 -2.176650867643e+01   6.328356464909e+00  -1.545584925683e+01 
3
 Atoms. MD step: 93000
1  3.553843522384e+01  -3.102124424771e+01  -2.333217628644e+01 
1 -7.737441570892e+00   2.625786923826e+01   1.657700509643e+01 
1 -2.695961381021e+01  -1.029502837218e+01  -4.773890346590e+01 
3
 Atoms. MD step: 94000
1  4.257256147216e+01   3.006301320749e+01   3.921809496203e+01 
1 -3.123822363600e+01  -2.995046194148e+00   2.282969528300e+01 
1  2.221677337508e+01   2.369705644211e+01   1.884729868004e+01 
3
 Atoms. MD step: 95000
1 -9.161349832370e+01  -6.610881222553e+01  -2.365971502503e+01 
1 -3.419491498544e+00  -1.945882739549e+01  -1.622503865898e+01 
1  2.068078553527e+01   3.190881501734e+01   2.402771347958e+01 
3
 Atoms. MD step: 96000
1 -2.747339287384e+01   2.637186369687e+01   3.763530352133e+01 
1 -8.185168266480e+01  -6.368556909415e+01  -8.491396114664e+01 
1  1.640375372208e+01   3.967795178340e+01  -3.658178508529e+01 
3
 Atoms. MD step: 97000
1  1.659078698120e+01   4.292967350731e+01  -3.920842100559e+01 
1 -7.936428263623e+00   1.101128853466e+01   6.181781410609e+01 
1  6.865480603236e+01   1.740761929744e+01   6.041387013362e+00 
3
 Atoms. MD step: 98000
1 -3.978821134225e+00  -4.792332998912e+00  -1.038418589407e+01 
1 -1.999122410693e+01   1.059747334506e+01   6.794235793553e+01 
1  6.016759653615e+01   2.204801182826e+01   2.847713525975e+00 
3
 Atoms. MD step: 99000
1 -3.746269231025e+01   4.537897833983e+01   2.996110400622e+01 
1 -2.941104185143e+01  -6.549895950123e+01   3.650986759809e+01 
1  2.224797382238e+01   2.141351686857e+01  -5.610327047723e+01 
3
 Atoms. MD step: 100000
1 -5.304476091105e+01  -1.892076925491e+01   2.135650289604e+01 
1  4.623219056837e+01  -7.273233597388e+01  -2.479973347698e+01 
1  1.913558662407e+01   1.789180169429e+01  -2.130945138806e+01 
