3
 Atoms. Timestep: 0
1 1 -4.029882110215e+02   3.670668071771e+01  -2.154172719810e+02 
2 1 -1.254627805497e+02  -3.953402397110e+01   7.166364217945e+01 
3 1 -2.190873220539e+02  -4.109904926813e+01   1.984848240995e+02 
3
 Atoms. Timestep: 1000
1 1 -5.542657923836e+00   2.083883603634e+02  -3.347482868760e+02 
2 1  3.296099469665e+01  -7.480591648448e+02   8.393671324024e+01 
3 1  2.183648599316e+02   3.213393945220e+02   8.650067944891e+02 
3
 Atoms. Timestep: 2000
1 1  8.672243444008e+01  -1.141356106561e+02   4.341850334360e+01 
2 1  1.681606437410e+02  -2.338535781108e+01   5.430824546624e+02 
3 1  5.164035940054e+01  -1.391221238819e+02   6.309931289152e+01 
3
 Atoms. Timestep: 3000
1 1  2.471056046783e+02   4.304624451620e+02   4.919739656059e+02 
2 1 -6.807833570233e+01  -3.206930881879e+01  -2.003040121028e+02 
3 1 -3.114828288271e+02  -2.418836059180e+02  -4.325521090484e+02 
3
 Atoms. Timestep: 4000
1 1 -3.687549200515e+02   2.500803717150e+02   1.999876964020e+02 
2 1 -1.151062780619e+02   3.918697316332e+02  -1.944662745196e+00 
3 1 -3.210487765259e+01  -2.031741007658e+02  -1.480093373702e+02 
3
 Atoms. Timestep: 5000
1 1  1.392720576521e+02   1.191557646808e+02   6.718052072217e+01 
2 1  1.897235762022e+02   3.868353164165e+01   4.342107273309e+02 
3 1  1.865841466532e+02  -7.180396483372e+01   5.365236748986e+01 
3
 Atoms. Timestep: 6000
1 1  6.009912468350e+02   4.166233212793e+02   1.179723067028e+02 
2 1  1.698710689598e+02   3.011292243083e+02  -4.650028734182e-01 
3 1  2.014468266755e+02   7.364842651037e+00   4.498335605964e+01 
3
 Atoms. Timestep: 7000
1 1 -2.058572681328e+02  -1.048708475241e+02   3.713123016349e+01 
2 1  2.211270502069e+01   1.361614087825e+01   1.772245219537e+02 
3 1 -8.752415896676e+01   7.779764133986e+01   4.831979990908e+01 
3
 Atoms. Timestep: 8000
1 1 -4.417266035209e+02   2.744935866269e+02   1.090210722721e+01 
2 1 -2.851590904658e+02   1.681513759096e+02  -2.084750738546e+02 
3 1  2.440193108176e+02  -8.993373501986e+01   3.824077304573e+02 
3
 Atoms. Timestep: 9000
1 1  3.662177129580e+01   2.330993084069e+02   2.660689490267e+02 
2 1  2.260305440596e+02  -2.801977804814e+02  -4.273597071141e+01 
3 1  3.206261456937e+02  -1.998804867621e+02   9.871091439784e+01 
3
 Atoms. Timestep: 10000
1 1  9.547676816960e+01  -2.538014782598e+02   9.471408462621e+01 
2 1  2.582190873752e+02  -3.116823792916e+01   9.680675215016e+01 
3 1 -5.453544631763e+02  -1.650871260310e+02  -4.390385843896e+01 
3
 Atoms. Timestep: 11000
1 1  6.192229016749e+02   7.149358142870e+01  -1.251571701876e+02 
2 1  3.407775737988e+02  -5.471089000719e+02   7.854503564210e+01 
3 1  2.266573715523e+02   2.246840604100e+02  -1.552074412800e+01 
3
 Atoms. Timestep: 12000
1 1  2.250848647534e+02   1.056028135138e+02  -1.566713622171e+02 
2 1 -1.213525718500e+02   3.468842679413e+02   1.978031185726e+01 
3 1  2.646605817590e+02  -2.278496023026e+02   2.895754978279e+01 
3
 Atoms. Timestep: 13000
1 1 -6.036151505162e+01  -5.651389403358e+01  -9.186088258366e+01 
2 1 -1.297740885381e+02   4.214306866700e+02  -1.593896116858e+02 
3 1  3.523367098552e+01   1.279169355649e+02   7.704669046688e+01 
3
 Atoms. Timestep: 14000
1 1  2.510820731489e+02  -1.907443846908e+01  -2.618986652603e+02 
2 1  1.389619572695e+02  -3.419896210104e+02  -3.416929328558e+02 
3 1  7.527637560793e+02  -1.180078741884e+02   2.025443689152e+01 
3
 Atoms. Timestep: 15000
1 1 -1.386875970004e+02   3.568624218291e+02  -2.828897406053e+02 
2 1 -5.213985845368e+01  -3.424894507742e+02   2.759267278317e+01 
3 1 -1.129252159505e+01  -1.684340349117e+02  -3.565711560499e+01 
3
 Atoms. Timestep: 16000
1 1 -2.083141930775e+02   1.146382684305e+02  -1.883625187874e+02 
2 1  3.758230250566e+02   1.170352021196e+01  -9.697536260876e+01 
3 1  5.555534741472e+02  -2.067651038553e+02   4.387628327255e+02 
3
 Atoms. Timestep: 17000
1 1 -9.924097563968e+01  -4.064437248144e+02  -8.361995134476e+01 
2 1  4.238303055042e+02   1.848280245023e+02  -2.282778217468e+02 
3 1 -8.998649009001e+01  -1.017800297061e+02  -3.746593835484e+02 
3
 Atoms. Timestep: 18000
1 1  3.470116207463e+02  -2.722638337066e+02  -1.120890932346e+02 
2 1  2.558284600044e+01   3.306965478974e+00   1.253453771651e+02 
3 1  1.159104508243e+02   1.305372583964e+02  -1.205072121944e+02 
3
 Atoms. Timestep: 19000
1 1 -2.408172049452e+02  -1.224544213866e+02  -4.527428074213e+02 
2 1  3.024414034146e+02   1.595771397710e+02  -4.731882171510e+01 
3 1  1.662465798633e+02   1.834862517411e+02  -2.218904030954e+01 
3
 Atoms. Timestep: 20000
1 1 -1.279273121604e+02   2.543200953974e+01   2.176007445971e+02 
2 1  7.755838910993e+01   5.837672626045e+02  -1.752433477205e+02 
3 1  6.106687337679e+02   1.234071659967e+02  -2.507439688415e+02 
3
 Atoms. Timestep: 21000
1 1  3.071184750520e+02  -1.485866003495e+02  -1.418962530606e+02 
2 1  1.821850558785e+01   1.139918554894e+02  -3.685610709974e+01 
3 1 -5.118209751255e+01  -2.051309744761e+02  -4.514955632936e+02 
3
 Atoms. Timestep: 22000
1 1  2.615281055474e+02  -3.593958596204e+01  -1.586830682151e+02 
2 1  1.350613247160e+02  -3.265898421348e+02  -3.213005326750e+02 
3 1  1.199774873146e+02   2.569919759724e+01  -1.448797893104e+02 
3
 Atoms. Timestep: 23000
1 1 -3.436098860032e+02  -4.989013378626e+01  -1.049246722416e+02 
2 1  2.518944251980e+02  -1.879365638840e+02   1.919517357479e+02 
3 1 -5.499302599107e+01  -4.119624763184e+00   1.557862421645e+02 
3
 Atoms. Timestep: 24000
1 1  3.946394483792e+01   5.055436732056e+02   1.400291965528e+02 
2 1  3.847316776109e+01   6.803776980565e+01  -8.098190821605e+01 
3 1  4.624033693414e+02   2.190803544574e+02  -1.629929480095e+02 
3
 Atoms. Timestep: 25000
1 1 -5.788179858854e+02  -1.662277605698e+02  -5.311068577658e+01 
2 1 -9.951266132476e+01   2.192176068382e+02   7.759075554449e+00 
3 1  4.146651297349e+02   2.741547231469e+02  -4.077814057789e+01 
3
 Atoms. Timestep: 26000
1 1  1.288280240469e+02   1.789061296932e+02  -2.497869764068e+02 
2 1 -3.288297104123e+02  -1.956322331579e+02  -2.658808572712e+02 
3 1 -4.053122296424e+01  -8.803911516725e+01  -6.942297608272e+01 
3
 Atoms. Timestep: 27000
1 1 -3.041507246163e+02  -3.074071139339e+02  -1.049608350883e+02 
2 1  3.228244479599e+02   4.830813061088e+01   7.086915390890e+01 
3 1 -2.456180335127e+02   3.098424965782e+02  -1.801105789771e+02 
3
 Atoms. Timestep: 28000
1 1 -3.438239515867e+02  -1.383076732440e+02  -5.643408108865e+02 
2 1  1.278878204159e+02   2.113828920715e+02   1.958915613975e+02 
3 1 -9.276622336774e+01  -5.811366548532e+02   2.721752134196e+02 
3
 Atoms. Timestep: 29000
1 1 -3.092140548720e+02   1.007770542986e+02  -2.320900915371e+02 
2 1  2.683321453506e+02   6.899556751886e+01   3.760306782394e+02 
3 1 -2.078163389168e+02   1.900218405548e+02  -2.324137762647e+02 
3
 Atoms. Timestep: 30000
1 1  4.135722567618e+02  -1.700578959323e+01   1.503376282149e+02 
2 1 -3.690416506478e+02  -9.418503570304e+01   5.466784576925e+02 
3 1  3.897028584808e+02  -1.431665985142e+02   3.096675263677e+02 
3
 Atoms. Timestep: 31000
1 1  1.287026897714e+02  -7.946732156278e+01  -5.157316714915e+01 
2 1 -7.277798353801e+01   1.649900955942e+02   1.170989712644e+02 
3 1 -1.990530541666e+02   3.291862146039e+01   2.924968817507e+02 
3
 Atoms. Timestep: 32000
1 1  1.103863934905e+02   4.688556369461e+01   5.798388414591e+01 
2 1  2.500064506799e+02  -1.068451479008e+02  -2.191568696910e+02 
3 1 -1.022757151854e+01   1.391303750358e+02   2.516866098985e+02 
3
 Atoms. Timestep: 33000
1 1 -5.413937461241e+02   2.672702089504e+02   6.456478643332e+02 
2 1 -5.734522947015e+02   1.635744492453e+02  -3.952619287304e+01 
3 1 -9.101061747432e+01   3.637989489827e+02   3.770747780615e+02 
3
 Atoms. Timestep: 34000
1 1  2.547342488283e+01   2.850366030752e+01   1.963962340412e+02 
2 1 -7.763169177294e+01   3.473436794892e+02  -1.080189163806e+02 
3 1 -9.146095574770e+01   8.047600158239e+01  -4.871199809528e+02 
3
 Atoms. Timestep: 35000
1 1 -2.313938989334e+01  -3.952873993946e+01  -1.589432949937e+02 
2 1  1.897960405864e+02  -8.402973277690e+01   3.626478529492e+02 
3 1  3.459162802801e+02   2.537784747324e+02  -8.059041839232e+01 
3
 Atoms. Timestep: 36000
1 1  2.122856280157e+02   3.915014189292e+02  -2.408103477385e+02 
2 1  1.583471291139e+02   1.756747888775e+01   2.416740020175e+00 
3 1  1.169340316748e+02   2.105797318725e+02  -3.930381143733e+02 
3
 Atoms. Timestep: 37000
1 1  6.979054251922e+00   2.063455649862e+02  -4.539018914075e+01 
2 1 -6.960253314207e+01   1.404045390445e+02  -3.223331309388e+02 
3 1 -3.528862535538e+02  -1.057779140228e+02  -1.849267288770e+02 
3
 Atoms. Timestep: 38000
1 1  1.088471885789e+02   2.290586040956e+02  -1.932170817514e+02 
2 1  1.643418126043e+01   2.502061851734e+02   1.872258663039e+02 
3 1 -2.925904874037e+02  -4.315645867408e+02  -2.710678409946e+01 
3
 Atoms. Timestep: 39000
1 1  2.346756033808e+01   1.788042926978e+02  -1.082033291773e+02 
2 1  4.679871538090e+02   1.532225541423e+02  -5.504757998879e+02 
3 1  1.151088997601e+02  -2.522550333955e+02   9.059990227749e+00 
3
 Atoms. Timestep: 40000
1 1 -2.096626053398e+02  -3.798838280794e+02   4.282261139777e+02 
2 1 -3.958335124775e+02   1.815630271975e+02  -2.805498778375e+02 
3 1 -3.300643232210e+02  -4.714766536277e+02  -2.207271227949e+01 
3
 Atoms. Timestep: 41000
1 1  1.450108395422e+02  -1.268470941081e+02   1.726936193665e+02 
2 1 -5.650656883453e+01   2.561142947207e+01  -3.752013033565e+02 
3 1 -7.901028942710e+01   1.624937102789e+02   2.170316729131e+02 
3
 Atoms. Timestep: 42000
1 1  1.419141983648e+02  -2.488759114808e+02  -4.919256413744e+02 
2 1  2.086081612814e+02  -1.602337810887e+01  -1.306532337733e+01 
3 1  4.453778721564e+01   3.666642577672e+02   2.438410554796e+02 
3
 Atoms. Timestep: 43000
1 1 -2.742462928285e+01  -3.723517604745e+02   4.784739281015e+01 
2 1 -4.240713269722e+01  -7.343476398593e+01  -2.826728821433e+02 
3 1  2.146903288310e+01  -6.911276284842e+01   3.290119815703e+02 
3
 Atoms. Timestep: 44000
1 1 -3.082435699650e+02  -4.754927025465e+02  -3.117181719277e+02 
2 1 -1.797725980529e+02  -6.485919296815e+02   4.816430645959e+02 
3 1  3.675670744069e+02  -1.903599787942e+01   1.115932831836e+02 
3
 Atoms. Timestep: 45000
1 1 -2.878586199859e+02  -1.359697435263e+02  -3.698376406038e+02 
2 1 -4.074472366841e+01   1.817578392617e+02   9.423079118703e+01 
3 1 -1.762614865055e+02   6.877563715294e+01   1.455086052534e+02 
3
 Atoms. Timestep: 46000
1 1 -1.872274871873e+01   2.193391540403e+02   7.582490361541e+01 
2 1 -2.523278075813e+02   3.868120176099e+02   2.055101795988e+02 
3 1  1.125130607444e+01  -1.634322581928e+01   1.574529484457e+02 
3
 Atoms. Timestep: 47000
1 1 -3.661155806998e+01   3.642436844804e+01  -3.458563996994e+02 
2 1  1.778001963667e+02  -1.455322996740e+01  -2.729611367766e+02 
3 1  9.911694200934e+01   2.306133990208e+01  -2.127292398500e+02 
3
 Atoms. Timestep: 48000
1 1 -3.671972945049e+02   3.674528773798e+02   1.661534984848e+02 
2 1  2.000563287228e+02   1.030061672045e+02   4.066012597821e+02 
3 1  6.862540776971e+01   2.035153215643e+02  -5.228679919329e+02 
3
 Atoms. Timestep: 49000
1 1  5.262389999251e+02  -2.633415154752e+02  -1.117180489080e+02 
2 1  2.136444388299e+02  -6.112131650400e+01  -2.794455410993e+01 
3 1 -2.675909540829e+01   8.681278197666e+00  -3.876612155515e+01 
3
 Atoms. Timestep: 50000
1 1 -2.359600164502e+02  -1.660523453592e+02  -3.067365338557e+02 
2 1 -1.167590332889e+02   1.995062819482e+02   1.211861860240e+02 
3 1 -3.491006407313e+01   4.754902316555e+02   1.989922007346e+02 
3
 Atoms. Timestep: 51000
1 1 -4.271931398325e+02  -2.827137221463e+02  -7.563163868325e+01 
2 1  1.567519503783e+02   9.337932053520e+01  -4.069703844672e+02 
3 1  1.744555936557e+01  -2.121609668211e+02  -1.363609584146e+02 
3
 Atoms. Timestep: 52000
1 1 -3.937542570468e+02  -6.459461457246e+02  -8.791867162840e+01 
2 1 -2.611671957777e+02  -3.735055713356e+02  -1.141259950848e+02 
3 1 -5.706948870905e+02   3.339466535787e+02   3.869490397171e+02 
3
 Atoms. Timestep: 53000
1 1  5.528690742070e+01   1.872359113723e+02  -3.657452270751e+02 
2 1 -1.976130490400e+02   3.097657024860e+02  -3.819696556420e+02 
3 1 -9.044449657790e-01   9.079785590641e+01  -1.259180897984e+02 
3
 Atoms. Timestep: 54000
1 1  1.760263265853e+02   9.535003652636e+01  -1.690037254025e+02 
2 1 -2.076910729061e+01  -4.387401378693e+01  -1.525930475537e+02 
3 1 -4.307003126997e+02  -3.060688483213e+02   2.431512796057e+02 
3
 Atoms. Timestep: 55000
1 1  2.383223970124e+02  -6.283863088876e+02  -7.213158699989e+00 
2 1 -7.647583656201e+01  -1.772228630124e+02   5.802661641884e+01 
3 1  2.555546531382e+02   1.984406154758e+01  -8.680797917110e+01 
3
 Atoms. Timestep: 56000
1 1 -1.552764102725e+02  -1.730599438336e+02   2.722829566965e+02 
2 1 -1.782623036743e+02   3.161045827588e+02   3.388193115136e+02 
3 1  4.638699580415e+02  -5.571349729291e+02  -3.230427803984e+02 
3
 Atoms. Timestep: 57000
1 1  2.469519933256e+02   1.610632663545e+02   1.775729811193e+02 
2 1 -2.092033462492e+02   2.288436829279e+02   5.488107199887e+01 
3 1 -3.660317293239e+02  -3.471416951912e+01  -1.754295989540e+00 
3
 Atoms. Timestep: 58000
1 1  3.685376371424e+02   4.878816786523e+02  -3.149344179910e+01 
2 1  7.179075575186e+01   2.894339799652e+02   1.167020826689e+02 
3 1  4.208156545246e+02   4.554510284667e+01  -3.362670805153e+01 
3
 Atoms. Timestep: 59000
1 1 -5.020361516174e+01  -2.806950131267e+02   2.153895897582e+01 
2 1 -2.441817578672e+02   1.269595180088e+02  -4.522375002498e+01 
3 1 -1.291220090656e+01   3.065450950580e+01   3.451687741489e+02 
3
 Atoms. Timestep: 60000
1 1 -1.612432925439e+02  -3.614270110605e+02  -3.178048041671e+02 
2 1  1.503469824096e+02   8.435519957383e+01  -5.286239372652e+02 
3 1 -2.605794265746e+02  -4.103734474848e+02  -1.815379427981e+02 
3
 Atoms. Timestep: 61000
1 1  2.768850487545e+01  -1.246788973034e+02  -5.575819987092e+01 
2 1 -1.490262551372e+02   3.825795376669e+01   1.330322852871e+02 
3 1  1.790838498372e+02   3.957989244218e+02  -3.920221711982e+02 
3
 Atoms. Timestep: 62000
1 1 -2.410299121410e+01  -3.580741393351e+02   3.247616358299e+02 
2 1 -8.475107291817e+01   5.137899708672e+02  -2.118747317992e+02 
3 1 -6.860144182647e+01  -2.259800829353e+02   1.521203713313e+02 
3
 Atoms. Timestep: 63000
1 1 -3.475509624128e+00  -3.566404382975e+02   3.643982579715e+02 
2 1  2.646824366611e+01   1.991604229768e+02   1.007782802655e+02 
3 1 -2.840971636029e+02  -4.685511101179e+01   2.074370520280e+02 
3
 Atoms. Timestep: 64000
1 1  5.066231256045e+01   1.185292348362e+02  -1.846557504039e+02 
2 1 -4.536652846899e+02  -1.330827322129e+02  -2.239848561198e+02 
3 1  6.325943398984e+02  -4.752916323197e+01   1.116175039533e+01 
3
 Atoms. Timestep: 65000
1 1 -4.792660228984e+01   1.190435251916e+02  -1.688259230974e+02 
2 1  3.985369840213e+02   4.128323503144e+02  -7.028894007795e+01 
3 1  4.311630229127e+02  -1.878658524999e+02  -4.376141947997e+02 
3
 Atoms. Timestep: 66000
1 1 -1.509360083037e+02  -6.443856355854e+01  -2.013260669280e+02 
2 1 -6.459628786805e+02   1.208172412632e+02  -1.608050134418e+02 
3 1 -3.285358341003e+02   1.460153281239e+02   1.957260963693e+02 
3
 Atoms. Timestep: 67000
1 1  4.684582703821e+02  -6.051362187745e+02  -2.304515408854e+02 
2 1 -5.412726719515e+02  -1.796688830003e+01  -2.389300006216e+01 
3 1 -3.756185329202e+00   9.137846165084e+01   1.517455127164e+02 
3
 Atoms. Timestep: 68000
1 1 -1.174808444628e+02   3.631840325160e+02   1.103615637075e+02 
2 1 -3.473212087892e+02   1.197996999704e+02  -4.239985470417e+02 
3 1 -1.725748068497e+02   1.094770331655e+01   3.498421527134e+02 
3
 Atoms. Timestep: 69000
1 1  3.053116277024e+02  -6.815688837755e+01  -3.634807594769e+02 
2 1 -3.344563267600e+02  -1.951194093608e+02  -1.047485873146e+02 
3 1 -1.429847513920e+02   3.437047699722e+02  -2.829034710041e+02 
3
 Atoms. Timestep: 70000
1 1 -1.489707486200e+02   2.688803095622e+01   3.196480285309e+01 
2 1  2.041626077737e+02   4.268506665470e+02  -3.242909519017e+01 
3 1 -8.133765925232e-01  -4.000261168164e+01  -5.121347825931e+02 
3
 Atoms. Timestep: 71000
1 1 -3.477343858564e+02  -2.731579323459e+02  -4.723109100150e+02 
2 1 -2.248532544119e+02  -3.907540525854e+02  -8.843904757151e+02 
3 1 -4.528675287544e+01  -2.408937222341e+02  -2.332550259440e+02 
3
 Atoms. Timestep: 72000
1 1  2.547844980088e+02  -3.042560075833e+02   2.911410183805e+02 
2 1  2.915511444531e+02   5.502653298971e+01  -1.472931661333e+02 
3 1  2.137633635112e+02  -1.569822184531e+01   6.763124766004e+02 
3
 Atoms. Timestep: 73000
1 1 -9.685875726458e+01  -1.219797752029e+02   2.096035529901e+02 
2 1 -1.218914641139e+01   3.414651754765e+02   4.300035224518e+02 
3 1  1.650546102436e+02  -1.072788096438e+02  -3.494520641560e+02 
3
 Atoms. Timestep: 74000
1 1  1.388353680553e+02   1.531098197796e+02  -3.059666956825e+02 
2 1 -3.946605600396e+02  -4.785939587666e+02  -2.410706104456e+02 
3 1  4.421386879135e+02  -4.405655239300e+02  -8.499717936066e+00 
3
 Atoms. Timestep: 75000
1 1  3.839981180291e+02  -2.106678832695e+02  -9.559341417685e+01 
2 1 -7.874631101238e+02   1.993611071500e+02  -2.941919261267e+02 
3 1  3.899641959899e+02   1.878179041510e+02  -2.507088201089e+02 
3
 Atoms. Timestep: 76000
1 1 -2.207847048435e+01   1.328950317834e+02  -5.890787428102e+02 
2 1 -8.681883392233e+01  -4.584433356540e+01   1.367753476565e+02 
3 1 -1.619551799848e+02  -5.151989479413e+02  -8.394942138124e+00 
3
 Atoms. Timestep: 77000
1 1  2.259922858409e+02  -4.068904415409e+02  -1.098967800714e+02 
2 1 -9.303217980557e+01   6.335353951469e+02  -2.658739294455e+02 
3 1 -6.022231212394e+02  -1.946015230133e+02  -3.150249513561e+02 
3
 Atoms. Timestep: 78000
1 1  3.433189065108e+02   2.241442976149e+01   2.441591182052e+02 
2 1  1.752788109890e+02  -3.749956857599e+02  -3.216936588153e+02 
3 1  2.515034966838e+02  -3.915836130474e+02   4.349821354104e+02 
3
 Atoms. Timestep: 79000
1 1 -2.870953103276e+00   2.523462869477e+02   2.116447982127e+02 
2 1  3.559999049768e+02   4.637026062164e+02  -1.389628359068e+02 
3 1 -2.043886749151e+01   1.516186946727e+02  -3.963414804653e+01 
3
 Atoms. Timestep: 80000
1 1 -1.691696554994e+02  -2.163418567558e+02   1.000873555523e+02 
2 1  5.406694593394e+01  -1.417161321042e+02   4.890458388498e+02 
3 1  3.514899638177e+02   4.218586676868e+02   1.928841392718e+02 
3
 Atoms. Timestep: 81000
1 1 -1.196757084318e+02  -1.585881285081e+02  -9.738974783479e+01 
2 1 -2.510757588421e+02   8.374958507909e+01  -1.233663637782e+01 
3 1  2.132746450248e+02  -1.941999106940e+02   3.088474648090e+02 
3
 Atoms. Timestep: 82000
1 1  2.039213076784e+02   1.629219294790e+02  -6.574947408126e+01 
2 1 -5.555922538821e+02  -2.548602456335e+02  -6.069907560152e+01 
3 1 -1.704644198951e+02   4.217495692490e+02   2.645907477691e+00 
3
 Atoms. Timestep: 83000
1 1 -8.012993740443e+01  -1.838289547761e+02  -1.473260951514e+02 
2 1  1.101065703286e+02   2.260008231207e+02   1.165200824109e+01 
3 1  1.474064541390e+01   1.988585119396e+02  -3.854316601043e+02 
3
 Atoms. Timestep: 84000
1 1  1.735589651422e+02  -1.626736227422e+02   2.610022792161e+02 
2 1  3.148767118951e+02  -5.421093485440e+01   1.902892126958e+01 
3 1 -1.449681346049e+02  -3.441887696358e+02   2.751407401308e+02 
3
 Atoms. Timestep: 85000
1 1 -7.595725974826e+01  -8.653434906154e+01   1.054907694790e+02 
2 1  1.682501747358e+01  -1.082463145815e+02   1.058031686361e+02 
3 1  3.558914013618e+00  -2.914514615469e+02   1.259201126764e+02 
3
 Atoms. Timestep: 86000
1 1 -4.737511489421e+01   2.573354985871e+02   1.388728940761e+02 
2 1 -2.779272086477e+02  -3.297283301393e+02  -6.198532755775e+02 
3 1 -3.526119627686e+01  -6.262123515891e+01  -1.768497675125e+01 
3
 Atoms. Timestep: 87000
1 1  1.488221422092e+02  -2.663403702116e+02   1.126433291476e+02 
2 1  7.158171648832e+01   2.873973119507e+01   4.132929097972e+02 
3 1  1.800890596697e+02  -3.699592973900e+02  -1.297283096473e+02 
3
 Atoms. Timestep: 88000
1 1 -4.900109642765e+02   2.062303163133e+02   4.581383642679e+01 
2 1 -1.929926940840e+02   1.498622271638e+02   1.772804196261e+02 
3 1  4.662276427367e+02  -1.171057397700e+01  -1.781362117172e+02 
3
 Atoms. Timestep: 89000
1 1  1.133763731499e+02   4.318354192550e+02   1.337095951268e+02 
2 1 -3.316974848668e+02   1.144139189154e+02   2.632606434808e+01 
3 1  1.537531148780e+02   4.367583725217e+01   3.530883958228e+02 
3
 Atoms. Timestep: 90000
1 1 -4.990566375598e+02   5.914942877467e+01  -7.990557162185e+00 
2 1  7.751498046264e+01  -1.122229739066e+02   4.237886488096e+02 
3 1 -2.357960556286e+02   4.645636187013e+02  -1.545359047257e+01 
3
 Atoms. Timestep: 91000
1 1 -5.756258809309e+02   1.949209724497e+01   2.027277953905e+02 
2 1 -5.839812388326e+02  -1.135881661677e+02  -1.925602218194e+01 
3 1 -1.501784581778e+02  -8.225026085213e+01   3.201169609594e+02 
3
 Atoms. Timestep: 92000
1 1 -1.987809926556e+02   1.048669378696e+02   3.157241101870e+02 
2 1 -2.084485195102e+02   2.253436102924e+02  -2.005675668232e+02 
3 1  2.964010307109e+02  -7.581788531065e+02   1.908189184726e+02 
3
 Atoms. Timestep: 93000
1 1 -6.909254909720e+01  -3.027018906441e+02  -1.148962725940e+02 
2 1 -3.741006100528e+02  -4.253197577761e+02   3.233409486689e+02 
3 1 -3.158106196355e+02  -1.250081672852e+02  -1.253452363511e+02 
3
 Atoms. Timestep: 94000
1 1 -1.483224877897e+02   3.922711005340e+01   2.227494743482e+02 
2 1  6.130267643033e+01  -2.040547780003e+02  -2.596906059412e+02 
3 1  2.759454409904e+02  -1.109164873201e+02  -2.563405495261e+02 
3
 Atoms. Timestep: 95000
1 1  3.891601499670e+02   2.626106849860e+01  -3.227192385366e+02 
2 1 -4.444308449678e+01  -2.761364354852e+02   5.087681339044e+01 
3 1 -1.500460592894e+02  -2.169584695215e+02   3.660427667833e+02 
3
 Atoms. Timestep: 96000
1 1  1.088280705537e+02  -1.746641717810e+02   2.131367496225e+02 
2 1  1.203016278248e+02  -2.302220092433e+02  -6.401627340692e+01 
3 1 -5.097013047222e+02  -1.991702727406e+02   3.302083254965e+02 
3
 Atoms. Timestep: 97000
1 1  8.481663629199e+01   2.185947824998e+02  -1.387168931307e+02 
2 1  7.828614379116e+01   1.828578522199e+02  -2.301821415645e+02 
3 1  1.309009251761e+02  -4.951555033657e+02   2.146082524222e+02 
3
 Atoms. Timestep: 98000
1 1 -3.136571491008e+01   5.191981307967e+02  -5.795361471165e+02 
2 1  8.039270136260e+01  -3.084701978814e+01   3.558453596008e+02 
3 1 -1.467511792651e+02   2.404211580709e+02   4.236131009724e+01 
3
 Atoms. Timestep: 99000
1 1  3.535324346121e+02   3.389534674098e+02   6.775618334417e+01 
2 1  1.044079808571e+02  -2.205326534160e+02  -2.093380822159e+02 
3 1 -4.622232063092e+01   2.214098779873e+02  -3.820031231475e+00 
3
 Atoms. Timestep: 100000
1 1 -2.872099885147e+02   2.518502902423e+02   3.857041504564e+02 
2 1 -4.127848919201e+02   7.082909419484e+02   2.940462474960e+02 
3 1 -1.064210902543e+02   6.024437032401e+01   1.228993260036e+02 
