3
 Atoms. Timestep: 0
1 1  6.755342090246e+01  -4.439281997704e+01  -6.986471611728e+01 
2 1 -3.445328696013e+02   4.154264671851e+00   1.373484660887e+02 
3 1  3.813267550093e+02  -2.335267075551e+01   8.222599275439e+01 
3
 Atoms. Timestep: 1000
1 1 -4.484114765344e+02  -1.536499193507e+02   3.889154895978e+02 
2 1 -1.340012855539e+02   2.997398573206e+02   1.445325917941e+02 
3 1 -5.171029625603e+01   2.678038363753e+02  -3.157365803818e+02 
3
 Atoms. Timestep: 2000
1 1 -2.915763055273e+02  -9.793304153869e+01  -3.700317568403e+02 
2 1 -5.490072791970e+01   2.574026526803e+02  -3.845140096532e+02 
3 1  4.616599948482e+00   1.402210996061e+02   1.212490807368e+02 
3
 Atoms. Timestep: 3000
1 1 -2.327220893774e+02  -1.958263935789e+02   3.909618959997e+01 
2 1  2.697932926869e+02   2.235911082532e+02  -4.096305576246e+02 
3 1  1.231845556449e+02   3.418607819254e+02  -5.636342338350e+02 
3
 Atoms. Timestep: 4000
1 1  2.821574333504e+02   2.329466505902e+02  -5.312385280087e+02 
2 1  8.490900821028e+01  -5.332069271057e+01  -5.861450324086e+01 
3 1  1.211156341814e+02   5.226866564839e+01   1.944091726432e+02 
3
 Atoms. Timestep: 5000
1 1  1.637428440013e+02  -1.003486522800e+02   3.720700886511e+02 
2 1  3.115164064782e+02  -9.423849462108e+01   1.560870463789e+02 
3 1  2.720003851836e+02   1.694292103450e+02  -2.303366299730e+01 
3
 Atoms. Timestep: 6000
1 1  1.337503927017e+02   5.012586810469e+01  -1.026293167771e+02 
2 1  1.140251308114e+02  -5.634873672373e+02  -3.221218846864e+01 
3 1 -4.896915676332e+01   1.418790557565e+02  -2.493916454739e+02 
3
 Atoms. Timestep: 7000
1 1  6.341121184927e+02   2.242205685077e+02   1.042341470632e+02 
2 1 -7.450724435531e+00   4.184705204051e+02   7.020001912353e+01 
3 1  4.106358225558e+02  -4.212118268581e+02   5.051730267238e+01 
3
 Atoms. Timestep: 8000
1 1  4.889467422680e+02  -4.951093168002e+01   1.151540560245e+02 
2 1  3.958744174823e+02   3.694699497121e+02   2.770908440951e+02 
3 1  1.056028111373e+02   4.241714307326e+02   7.323103331033e+01 
3
 Atoms. Timestep: 9000
1 1  4.932978675617e+01  -9.801414676717e+01   3.488140046382e+02 
2 1 -1.694626124607e+02  -2.417715527051e+02  -4.569248926672e+02 
3 1  1.824984533285e+02  -9.558198446523e+01   1.983072453725e+02 
3
 Atoms. Timestep: 10000
1 1  2.731068021948e+01   3.570743740309e+02   1.992693437688e+02 
2 1  9.745587570943e+01   1.004166121323e+02   4.106525845816e+02 
3 1  2.460954822297e+02  -1.348578383315e+02   2.204434393240e+02 
3
 Atoms. Timestep: 11000
1 1  9.077915354548e+02  -4.922180463904e+01  -3.618887313584e+01 
2 1 -5.195287231921e+00  -1.276976550301e+02   2.407547336954e+02 
3 1  3.364560527156e+02   5.768309462309e+02   1.271899411477e+02 
3
 Atoms. Timestep: 12000
1 1  2.413718288926e+02   2.180688296434e+02  -2.252591626123e+02 
2 1  3.003236279848e+02   2.549868283281e+02  -2.370247466803e+02 
3 1  4.214035304576e+02   2.785618645237e+02   2.782053590794e+02 
3
 Atoms. Timestep: 13000
1 1 -1.860211706499e+01   3.360121592275e+02  -1.161586934409e+02 
2 1 -3.812977250585e+02   3.216277723392e+02  -6.472670273883e+01 
3 1 -3.470310385520e+01  -1.307532463579e+02   5.960585520414e+01 
3
 Atoms. Timestep: 14000
1 1 -1.120093823131e+01   9.888614217057e+01   3.751100613929e+02 
2 1  1.149689903656e+02  -4.311860524549e+02   2.237761507458e+02 
3 1  1.179108178760e+02   2.694144101744e+01   3.919451673773e+02 
3
 Atoms. Timestep: 15000
1 1 -4.332631255908e+02  -2.901012476502e+01   1.802759227012e+02 
2 1 -1.746828594738e+02   1.446443403052e+02   3.024777563316e+02 
3 1  3.418517254659e+02  -1.067682398316e+02  -1.441637308719e+02 
3
 Atoms. Timestep: 16000
1 1 -7.002434337473e+01   2.895474683515e+02   1.827821203419e+02 
2 1 -7.407363637481e+01  -1.536708222681e+02   2.057523544608e+02 
3 1  3.773769549611e+02   1.936869284542e+02  -1.410266717130e+02 
3
 Atoms. Timestep: 17000
1 1 -3.540413830839e+02   2.281716962673e+02  -1.815490132380e+02 
2 1  3.304402020989e+02   3.986946141854e+02  -6.543794081789e+01 
3 1  3.432438790051e+02   4.899308795476e+02  -5.455759168708e+02 
3
 Atoms. Timestep: 18000
1 1  2.991676103280e+02  -3.069182041787e+02  -2.175331952679e+02 
2 1  3.783659636390e+02   4.469284132584e+02  -7.741555044132e+01 
3 1 -1.526399110205e+02  -8.902344411270e+01   2.225768649697e+02 
3
 Atoms. Timestep: 19000
1 1 -4.800836644769e+02  -8.385373037999e+01   1.747441887250e+02 
2 1 -2.835970935932e+02   5.802481419287e+02  -1.886372088836e+02 
3 1  6.076065044725e+01  -1.333195169440e+02   5.559449798826e+02 
3
 Atoms. Timestep: 20000
1 1  2.018140564790e+02   2.184209471075e+02  -5.430657273042e+02 
2 1 -1.418667847955e+02   1.277370667522e+02   3.713221963802e+02 
3 1  3.071798850350e+02  -2.318146980571e+02   1.976198246162e+02 
3
 Atoms. Timestep: 21000
1 1 -1.655846574660e+02  -1.879548759820e+02  -1.844501335144e+02 
2 1 -4.219757187654e+02   4.375573829272e+02   2.226397514878e+02 
3 1  9.062033319368e+01   3.229409210808e+02   2.292499302166e+02 
3
 Atoms. Timestep: 22000
1 1 -1.704671166254e+02   2.193221668160e+02   1.391139398320e+02 
2 1  1.978499467684e+02   1.494029073918e+02   3.444642817244e+02 
3 1  1.995838340917e+02   5.018758588317e+01  -1.410417599641e+01 
3
 Atoms. Timestep: 23000
1 1 -3.279606300714e+02   1.446074572171e+02  -2.159060151493e+02 
2 1  2.764400033355e+02  -8.078829231703e+01   3.140353720956e+02 
3 1  2.535655382861e+02  -3.096578730780e+02   1.904476606619e+02 
3
 Atoms. Timestep: 24000
1 1 -2.595989612582e+02  -5.318214874208e+01  -9.573720500995e+01 
2 1  4.627736407333e+02   3.800902284378e+02   1.955359594931e+02 
3 1 -2.135842171438e+02  -1.771694551343e+02   1.234955954130e+02 
3
 Atoms. Timestep: 25000
1 1 -4.402550101397e+02  -4.761641009508e+02   3.186617848972e+02 
2 1 -3.383508985212e+01   1.172931222671e+02   2.070886572010e+02 
3 1  9.430914178977e+01   3.525551421326e+02   3.765849491008e+02 
3
 Atoms. Timestep: 26000
1 1  1.902413634618e+02  -4.927841146525e+02  -8.171712359447e+00 
2 1  1.817411853578e+02   1.311367307234e+02  -1.104180326668e+02 
3 1 -3.340029429776e+02  -3.646195958293e+02  -3.973236913474e+01 
3
 Atoms. Timestep: 27000
1 1  7.068944912190e+01   1.511350316627e+02   3.871551170695e+02 
2 1  1.907992494240e+02   2.047189235353e+02   4.098896379248e+02 
3 1  3.481314950171e+02   4.451523228202e+01   4.843163926339e+02 
3
 Atoms. Timestep: 28000
1 1  2.674996341694e+01  -1.138411456614e+02   5.918646040286e+02 
2 1 -3.663083892854e+02   5.122414076488e+02  -1.256908022301e+02 
3 1  1.299070365972e+02   3.603274370144e+02   6.960597041606e+01 
3
 Atoms. Timestep: 29000
1 1 -8.559120545156e+01  -4.131608666893e+01   2.563283151476e+01 
2 1 -2.233076367944e+02  -2.906205804315e+02   5.891820490707e+01 
3 1 -4.042724341991e+02  -4.565789336389e+02  -1.784081164550e+02 
3
 Atoms. Timestep: 30000
1 1  3.799943303638e+02  -8.525396545233e+01  -1.203898947422e+02 
2 1 -4.850540894431e+02   4.048717818322e+02   2.318731449829e+02 
3 1  1.008007878539e+01   4.089891534127e+02  -6.857229629716e+01 
3
 Atoms. Timestep: 31000
1 1  2.997397151938e+02   1.946397970970e+02   1.208253939299e+02 
2 1 -1.794721702545e+01  -4.416619627922e+01   3.084390732656e+01 
3 1 -4.558482259652e+02   2.064577775742e+02  -3.558159665421e+02 
3
 Atoms. Timestep: 32000
1 1  5.704229683016e+02  -3.234810565595e+02   8.693002360476e+01 
2 1 -3.038182915880e+02   2.506510273541e+02   1.545788349752e+01 
3 1  3.578765785793e+02   4.555169633986e+01   3.239821192087e+02 
3
 Atoms. Timestep: 33000
1 1  3.023367449240e+02  -3.326988905690e+02   5.420721683857e+02 
2 1 -3.799832891888e+02   1.958227939228e+02   2.283800713389e+01 
3 1 -3.465543130578e+01   1.147744929517e+02  -1.010836346437e+02 
3
 Atoms. Timestep: 34000
1 1 -9.557823941138e+01  -8.091323488535e+02   1.548747000685e+02 
2 1  3.434574132911e+02  -1.157361128304e+02  -6.280842334812e+02 
3 1 -1.781264239752e+02   1.805584381819e+02   4.105503578082e+02 
3
 Atoms. Timestep: 35000
1 1 -4.017112889555e+01   7.073945818470e+01   1.369609927751e+02 
2 1  5.687887771280e+02  -3.013726217093e+02  -6.059523612498e+01 
3 1 -7.447372671662e+01  -2.426869603533e+02   5.997298776227e+01 
3
 Atoms. Timestep: 36000
1 1 -9.708575494414e+01   1.022685690945e+02   4.058967944227e+01 
2 1  2.772527690994e+02   5.976827322233e+02   2.864139959078e+02 
3 1 -3.973704830507e+02  -1.165304923691e+02  -4.925534861448e+02 
3
 Atoms. Timestep: 37000
1 1 -2.298136017840e+02  -8.385761044467e+01  -1.333453271848e+02 
2 1  1.604667539249e+02   7.007827257562e+01   5.175082793746e+01 
3 1  3.419217190120e+01  -4.382673649934e+02  -4.949209524818e+02 
3
 Atoms. Timestep: 38000
1 1 -4.050951627680e+01   7.916909938879e+01   3.407156079072e+02 
2 1 -1.242742507993e+02  -5.367843403921e+01   1.840976763847e+02 
3 1  9.113378290620e+01  -2.176678047664e+01   3.239889367678e+02 
3
 Atoms. Timestep: 39000
1 1  1.549568519729e+02  -1.253680896513e+02   2.477443302898e+01 
2 1  9.347348444928e+01   6.112299187579e+01   3.032497966589e+02 
3 1  1.770356570335e+02  -9.069640164693e+01  -1.459754628999e+02 
3
 Atoms. Timestep: 40000
1 1 -2.948214651864e+02  -5.639791866131e+02  -1.001151802783e+02 
2 1 -2.589796798750e+02   2.711114087011e+02  -4.652727516521e+02 
3 1  1.194500606393e+02  -5.866778835840e+01  -4.066495360993e+02 
3
 Atoms. Timestep: 41000
1 1  2.820069292671e+02  -8.287740944163e+01   3.260025231689e+02 
2 1 -4.743338343399e+01  -1.049245175994e+01  -2.033188656160e+02 
3 1 -1.406555794704e+02   1.758984175898e+02  -1.595913053500e+02 
3
 Atoms. Timestep: 42000
1 1 -4.862904736059e+02  -3.590312113074e+02   2.121566896471e+01 
2 1  4.417816230353e+01   3.581129214491e+02   2.548632199780e+02 
3 1  3.237156602272e+01  -6.606646931090e+01   1.719159306026e+02 
3
 Atoms. Timestep: 43000
1 1 -2.360804657560e+02   8.551140644789e+01   8.505239470150e+01 
2 1 -7.744981314681e+01   2.568041728437e+02  -2.420091030265e+02 
3 1 -2.876947887618e+02  -1.644062123826e+02  -2.970963596104e+01 
3
 Atoms. Timestep: 44000
1 1 -1.384292459831e+02   3.443313317925e+01  -2.870248282589e+02 
2 1 -6.323353868461e+01   2.252244308406e+02   3.853310373412e+01 
3 1 -1.299545086840e+02   3.175157432971e+02   1.078042471961e+02 
3
 Atoms. Timestep: 45000
1 1 -9.667705068561e+01   5.603915658264e+02   2.956446479778e+02 
2 1  1.056334105694e+01  -2.346019108096e+02   3.334927416811e+01 
3 1  3.961001317238e+01   1.964174056547e+02   1.096582633519e+02 
3
 Atoms. Timestep: 46000
1 1  4.446771232064e+02  -8.841324302744e+01  -3.982057552494e+01 
2 1 -1.081652982941e+02   3.648261981718e+02   3.984915081918e+02 
3 1 -1.158511940616e+02   3.230963198439e+02  -5.158539966439e+02 
3
 Atoms. Timestep: 47000
1 1 -2.148818061256e+02  -1.330941122243e+02   1.079655477414e+02 
2 1 -2.864463853042e+02   4.257025574960e+02  -6.810975522231e+01 
3 1 -2.963150266271e+01   1.430647880990e+02   3.281693119679e+02 
3
 Atoms. Timestep: 48000
1 1 -3.714565453318e+00  -2.889140328406e+02   2.100161304832e+02 
2 1  6.323863586347e+02   1.697608959492e+02  -8.848464442434e+01 
3 1 -5.533997313517e+01  -1.316446669953e+02   8.000673342392e+01 
3
 Atoms. Timestep: 49000
1 1 -2.438893595528e+02  -3.842203099418e+01   1.908487844528e+02 
2 1  9.493567250103e+01   9.595708171693e+00   5.381692281170e+02 
3 1  3.993028025977e+01  -6.374426239468e+01   2.145728651022e+02 
3
 Atoms. Timestep: 50000
1 1 -2.064313125775e+02   1.390929215890e+02  -2.817296124370e+01 
2 1 -2.276892167020e+02   2.170923098538e+02   1.232922293841e+02 
3 1 -4.995398750585e+02  -3.338977327341e+02   1.077070444551e+02 
3
 Atoms. Timestep: 51000
1 1 -3.270042945719e+02  -1.798133996738e+02  -4.157796229503e+01 
2 1 -6.499867030125e+01   4.126475564353e+02  -5.081507175792e+00 
3 1 -2.072372548845e+02   2.478703137577e+02  -2.889194741303e+02 
3
 Atoms. Timestep: 52000
1 1 -3.957628557957e+02  -2.726929714060e+02  -1.765208782678e+02 
2 1  2.725380105831e+01   1.427037174034e+02  -2.888699559001e+02 
3 1  2.360486874628e+02   3.014387211181e+02   2.816195130537e+02 
3
 Atoms. Timestep: 53000
1 1  1.507879919196e+02  -7.097618853949e+01   1.412406872078e+02 
2 1  2.290008968174e+02  -2.342680623385e+02  -4.107477421156e+02 
3 1 -5.347443811512e+01  -2.326425625318e+01   9.198928056623e+01 
3
 Atoms. Timestep: 54000
1 1 -3.597472362637e+01   8.364876098649e+01  -9.653112179514e+01 
2 1 -9.325660683359e+01   1.256128182738e+02  -3.533964354795e+02 
3 1 -2.590292283495e+02   2.672682560406e+02  -2.026407815443e+02 
3
 Atoms. Timestep: 55000
1 1 -2.748762031024e+02   3.007272589439e+02  -5.394795210206e+01 
2 1 -1.556094301502e+02  -3.589359496176e+02   2.568414722105e+02 
3 1  3.327517371088e+02   5.388803143914e+02   5.218247972289e+01 
3
 Atoms. Timestep: 56000
1 1  1.030185903569e+02   3.658039954490e+02  -2.966969208294e+01 
2 1 -1.827877556364e+02   9.265376159948e+01   3.629535080621e+02 
3 1  4.508920331237e+02  -4.692741050713e+02   3.514860838779e+02 
3
 Atoms. Timestep: 57000
1 1  2.396020620637e+02   1.229378729851e+02   2.509556293508e+02 
2 1 -2.865504268272e+02  -1.759070343543e+02   2.858270680681e+02 
3 1  1.706370888992e+02   7.295328686683e+01  -1.384214042737e+02 
3
 Atoms. Timestep: 58000
1 1  2.756191888115e+01   2.156488085248e+02  -3.586012747284e+02 
2 1 -2.520854196850e+02   4.270868409239e+01  -6.069156025838e+02 
3 1 -1.178524949643e+02  -2.522874184530e+02  -3.576565960852e+02 
3
 Atoms. Timestep: 59000
1 1 -2.288010119581e+00  -1.482562058105e+02  -7.730347222437e+00 
2 1  9.556194229847e+01   1.660179755294e+02  -5.548274234752e+01 
3 1  7.940572590295e+01  -6.165382795215e+02   3.258656549371e+01 
3
 Atoms. Timestep: 60000
1 1  8.546588486469e+01   1.951607179847e+02   4.547146834948e+01 
2 1 -3.023882548906e+02   1.206274129431e+02   7.596304241116e+01 
3 1  3.167766538876e+02  -2.117889253986e+02   1.668367914013e+01 
3
 Atoms. Timestep: 61000
1 1  2.027170164366e+02   6.353553250512e+01  -6.940914487244e+01 
2 1 -1.583968407157e+00  -6.531799678142e+01   4.985208730452e+01 
3 1  2.268876089943e+02   2.857231113706e+01  -2.271353694706e+02 
3
 Atoms. Timestep: 62000
1 1 -4.237153064649e+02  -1.679410800018e+02  -4.021219874686e+02 
2 1  2.664487141361e+02  -2.426977677823e+02  -2.064504052779e+02 
3 1  5.092676939967e+01   2.703039858894e+02  -6.268955912850e+02 
3
 Atoms. Timestep: 63000
1 1 -1.793307591598e+02   1.125805853151e+02   8.994528000166e+01 
2 1  5.459603574738e+00   6.165938885283e+01  -8.049985802197e+01 
3 1  6.180644568966e+00  -2.253582923633e+02   6.943206607297e+01 
3
 Atoms. Timestep: 64000
1 1  2.727094970465e+02   6.277262059865e+01   8.431982966754e+01 
2 1  4.892035290212e+02   1.362662650630e+02  -4.744909521374e+02 
3 1 -2.758225009303e+02  -1.416669530418e+02  -3.691324611672e+01 
3
 Atoms. Timestep: 65000
1 1 -3.315336128329e+02  -9.071914006582e+01   4.206451446754e+02 
2 1 -9.221303792463e+01  -1.842264886085e+02   6.923702433449e+02 
3 1  3.776627410027e+02   4.226054713944e+02   3.268241203690e+02 
3
 Atoms. Timestep: 66000
1 1  5.395782018701e+02  -9.657242905036e+01  -6.663566877362e+01 
2 1  5.916440776786e+02   2.022920408751e+02  -2.264088887839e+02 
3 1 -3.735278576184e+01  -1.782300067553e+02   1.654755979323e+02 
3
 Atoms. Timestep: 67000
1 1  1.796004373979e+02   6.414434997583e+01   9.488384056490e+01 
2 1  4.418644795773e+02  -3.095592439794e+02  -2.674623627832e+02 
3 1 -4.230939898159e+02   1.083919896546e+02  -1.206237891849e+02 
3
 Atoms. Timestep: 68000
1 1 -1.829646400805e+02  -8.876791629217e+01   3.365638562554e+01 
2 1  3.440893387234e+02  -3.999591837001e+02  -5.009074171935e+01 
3 1  1.894603389028e+02   7.172516360479e+00   2.261746021722e+02 
3
 Atoms. Timestep: 69000
1 1 -4.896259315707e+02  -2.204228154272e+02   1.172715199715e+02 
2 1  2.841563766236e+02   2.446069269772e+02  -3.335629437937e+02 
3 1 -6.430206232041e+02  -4.539867372011e+02  -8.704423361226e+01 
3
 Atoms. Timestep: 70000
1 1 -3.032083046192e+02  -2.657684055060e+02   8.026590102330e+02 
2 1  2.349464620966e+02   3.865187071582e+02  -3.545405882039e+02 
3 1 -1.249934881007e+02   2.480636564748e+02   4.554008247647e+02 
3
 Atoms. Timestep: 71000
1 1  6.979436675730e+01  -3.641080399336e+02   7.735762545206e+02 
2 1 -9.715685148327e+01   1.642823694340e+02   2.813974339491e+02 
3 1  1.256965880330e+02  -3.437979688102e+02   2.834054159700e+02 
3
 Atoms. Timestep: 72000
1 1  5.643970335984e+01   3.389638143266e+02  -2.761071051266e+00 
2 1  1.640925775777e+02  -7.054929794711e+00   6.619754710864e+02 
3 1  1.560575145221e+02   1.041763553855e+02  -2.118944785613e+02 
3
 Atoms. Timestep: 73000
1 1  1.183580161163e+02   9.651725665548e+00   8.581274042024e+01 
2 1 -2.470483488284e+02   1.222729557382e+02  -5.054196187948e+01 
3 1  1.133154598582e+01  -3.396051329655e+02   2.198823746209e+02 
3
 Atoms. Timestep: 74000
1 1 -5.823276260073e+01   3.136820855330e+02   1.151326034856e+02 
2 1  1.304991672240e+02  -6.007759222589e+01  -8.918582552676e+01 
3 1 -9.902887825437e+01  -1.850418340678e+02  -3.272737594152e+02 
3
 Atoms. Timestep: 75000
1 1 -5.687414463150e+02  -1.539830826460e+02  -3.731475040040e+02 
2 1 -3.954133992209e+01   1.922622571385e+02   7.411991489713e+01 
3 1 -2.130854048313e+02  -4.410290420949e+02   1.007483152789e+01 
3
 Atoms. Timestep: 76000
1 1  2.868023821854e+02   3.684835368842e+01   2.159084668406e+01 
2 1 -2.666261312218e+02  -4.236308020547e+02   8.189023759961e+01 
3 1  2.309974565450e+02   4.000762513719e+02  -1.153915590008e+02 
3
 Atoms. Timestep: 77000
1 1  3.864043818066e+02  -7.764181731232e+01   3.709570946936e+01 
2 1 -1.980534589751e+02   2.048192589424e+02  -2.822833246463e+02 
3 1 -8.235309542186e+02  -2.363814285041e+02   5.015597180602e+01 
3
 Atoms. Timestep: 78000
1 1 -5.399021310767e+02   7.609835717430e+00   2.252685438997e+02 
2 1  4.605055702963e+02   4.057394804305e+02   3.770876775653e+02 
3 1  3.245391808069e+02  -3.657458181863e+01  -5.484188995742e+02 
3
 Atoms. Timestep: 79000
1 1 -4.223268359329e+02  -3.721319622083e+01   4.136799426910e+02 
2 1  2.606123745999e+02   2.361884770507e+02   1.308482421427e+02 
3 1 -2.703297658485e+02  -2.469021601872e+02  -1.681337754968e+02 
3
 Atoms. Timestep: 80000
1 1 -4.885391125265e+01  -4.415855920949e+01   3.066196049086e+02 
2 1 -1.741698442539e+02   2.496443694296e+02  -4.154542850821e+02 
3 1  1.682203607595e+02   1.639270940129e+02  -4.830123986526e+02 
3
 Atoms. Timestep: 81000
1 1  2.288295156177e+02   3.952029774847e+02   1.160640756182e+02 
2 1 -2.825096669289e+02   3.043609168724e+02   4.792195930618e+02 
3 1 -4.716846595811e+01   1.867088033578e+02   1.043342919070e+01 
3
 Atoms. Timestep: 82000
1 1 -9.825029558095e+01   8.180499271684e+01  -1.210179087762e+02 
2 1  1.371202319593e+02  -7.130300533933e+01   1.099960024848e+02 
3 1  2.728852823781e+02  -2.784903380881e+02  -2.000759032672e+02 
3
 Atoms. Timestep: 83000
1 1 -2.579540266280e+02  -3.374765420871e+02   1.270834627102e+02 
2 1 -7.611599942523e+01   1.076526546527e+02  -4.849440922621e+02 
3 1 -3.950780822459e+02  -2.464644503862e+02  -3.169512610922e+01 
3
 Atoms. Timestep: 84000
1 1  3.531488090396e+02  -1.595419797344e+01  -3.711449751684e+01 
2 1  9.676779866400e+00   2.832527537528e+02  -2.236065903636e+02 
3 1 -2.166882817057e+02   2.094907469419e+02   2.646791098659e+02 
3
 Atoms. Timestep: 85000
1 1 -1.164394335311e+02   2.874386486025e+01  -5.371669989024e+02 
2 1 -4.193850560499e+00   2.467656546455e+02  -7.580847455313e+02 
3 1 -2.894478197545e+02  -2.276628559590e+02  -1.364396207246e+02 
3
 Atoms. Timestep: 86000
1 1 -2.356996726090e+02   3.750401402435e+02  -2.763905584082e+02 
2 1  4.028113616280e+02  -1.318647794441e+02   2.818581037288e+02 
3 1  4.986766258116e+02  -2.025542007334e+02  -2.644084138082e+02 
3
 Atoms. Timestep: 87000
1 1  8.438594860695e+01  -6.750034776396e+01  -8.313226372596e+01 
2 1 -1.818936972418e+02  -1.278603374812e+02  -1.033576223753e+01 
3 1  3.155032818739e+02  -9.366050760349e+01   4.798810075835e+02 
3
 Atoms. Timestep: 88000
1 1  1.169219698683e+02   1.782643220722e+02  -2.027226054137e+02 
2 1 -7.016401399452e+01   2.756764274172e+02  -6.869262887511e+01 
3 1 -3.942936165473e+02  -4.722466255534e+02  -5.878852275899e+01 
3
 Atoms. Timestep: 89000
1 1  5.307910916918e+02   3.707831209920e+02  -5.174083604476e+01 
2 1 -7.079073535326e+01   2.552583506968e+02   4.788696853450e+02 
3 1  1.452384381514e+02   3.696287655932e+02   8.128738759384e+01 
3
 Atoms. Timestep: 90000
1 1 -1.893685830629e+02   4.223329668638e+02   2.522438883184e+01 
2 1 -1.833201966171e+01   3.164694601977e+02   2.085650729761e+02 
3 1 -2.618908845976e+02   1.066703881004e+02   9.087903618104e+01 
3
 Atoms. Timestep: 91000
1 1  1.421017121549e+02  -5.341622475637e+02  -8.511661851276e+01 
2 1  9.950341000015e-02   3.110271851395e+02  -9.500698047190e+01 
3 1 -1.015330510653e+02   7.312407475124e+01  -3.048168984794e+02 
3
 Atoms. Timestep: 92000
1 1 -5.592835482038e+02  -2.627661537820e-01  -3.634207790065e+01 
2 1 -3.559112813854e+02  -1.536890067460e+02   7.046739149029e+00 
3 1 -4.804202493631e-01   3.324788818923e+02   1.940522363579e+02 
3
 Atoms. Timestep: 93000
1 1  4.653280828032e+02   1.395769384112e+02  -3.954787550264e+02 
2 1 -2.002140147819e+02  -9.461899573085e+01   1.469754776953e+02 
3 1  4.107259966167e+01   9.905448894048e+01   1.083925971632e+02 
3
 Atoms. Timestep: 94000
1 1 -2.273958727751e+02   1.066853748315e+02   3.351225243940e+02 
2 1  1.067933095987e+02   2.871299175690e+02   1.754117840894e+02 
3 1 -3.772829235997e+02  -1.267881787538e+02   4.680823355342e+01 
3
 Atoms. Timestep: 95000
1 1  7.591762152353e+01  -1.496383944694e+02  -1.190953549513e+02 
2 1 -8.759458520101e+01   3.929776461332e+02   6.111384822147e+01 
3 1 -4.178198546228e+00  -2.642734347103e+01   5.471918384834e+02 
3
 Atoms. Timestep: 96000
1 1  9.181074778153e+01  -2.476317512152e+02  -1.206633169375e+02 
2 1  3.457245271509e+02   1.039307901494e+02   2.147693901740e+02 
3 1  4.817910398876e+01  -1.674824447229e+00  -1.999288389026e+02 
3
 Atoms. Timestep: 97000
1 1 -2.313827407780e+02   3.439501568491e+01   2.609592631707e+02 
2 1  3.225273751581e+02   3.652480837330e+02  -1.563462748722e+01 
3 1 -7.283403885639e+01  -1.683331234193e+02  -5.195860126838e+02 
3
 Atoms. Timestep: 98000
1 1 -4.294121648849e+02  -1.169548860259e+02   8.662201441491e+01 
2 1  4.114157305122e+01   5.177624690542e+02  -2.045281891125e+02 
3 1 -5.153058531923e+01   1.137493755773e+01  -3.681757851729e+02 
3
 Atoms. Timestep: 99000
1 1 -1.995309526113e+02  -4.537993292228e+02   5.822686732211e+02 
2 1 -1.519676343360e+02   2.690436270690e+02   8.103349511693e+01 
3 1  1.259590505110e+02  -2.139072632226e+02  -7.966085664357e+00 
3
 Atoms. Timestep: 100000
1 1  1.385969124301e+02  -2.070817599131e+02  -1.333857278496e+02 
2 1 -1.036654065894e+02  -5.876863464352e+01  -7.831089036273e+01 
3 1 -1.462109784097e+02  -1.139239113547e+02   2.524532946727e+02 
