3
 Atoms. Timestep: 0
1 1  1.297227263935e+01  -2.970738982980e+02   2.306299109833e+02 
2 1  1.197147126592e+02   1.732153307971e+02  -3.368147878985e+01 
3 1  4.276557503294e+00  -2.149053717198e+02   9.384060190568e+01 
3
 Atoms. Timestep: 1000
1 1  3.377537393481e+01   6.237540159521e+00  -4.751394963326e+02 
2 1  5.342644454935e+01   1.548610206652e+02   3.178134256219e+02 
3 1  2.223709122604e+02   3.004114186547e+02  -6.886952690904e+01 
3
 Atoms. Timestep: 2000
1 1  2.462980853215e+02   1.389743068005e+02   3.125225191602e+02 
2 1 -1.757657445520e+02  -2.202559112377e+02  -2.079521997349e+02 
3 1 -2.509341132312e+02   1.482084536502e+02  -2.542705226702e+01 
3
 Atoms. Timestep: 3000
1 1 -4.922592690782e+02   2.603357853774e+02  -4.217015011616e+02 
2 1  2.333345074787e+02  -1.979775504212e+02  -1.734953306079e+02 
3 1  5.970398438693e+01   3.221029101319e+01  -5.080896288513e+02 
3
 Atoms. Timestep: 4000
1 1 -1.114275506943e+02   7.017496392207e+01  -6.536026770995e+02 
2 1 -1.393574103037e+02   2.227396863291e+02  -7.543146023362e+01 
3 1  2.693795898735e+02  -3.612390528302e+02  -1.316770168718e+02 
3
 Atoms. Timestep: 5000
1 1  2.329651450525e+01   4.976236201974e+02   2.134243122139e+02 
2 1  2.890869777347e+02   8.145528938796e+01   2.396400751711e+02 
3 1 -1.506267907102e+02   4.049712896611e+02  -9.440205501217e+01 
3
 Atoms. Timestep: 6000
1 1 -5.942462570657e+01   1.023320026003e+02   3.364336810403e+02 
2 1  4.531047929870e+02  -2.649023116984e+02   1.399091674997e+02 
3 1 -1.116757861230e+02   1.140449421771e+02   1.303755852995e+02 
3
 Atoms. Timestep: 7000
1 1  9.740972032372e+01  -4.553313373795e+02   1.474688561735e+02 
2 1 -5.914413940948e+01  -5.322957375155e+01  -8.825325690554e+01 
3 1  4.542021502067e+02  -8.450996396740e-01   4.596996116099e+01 
3
 Atoms. Timestep: 8000
1 1  4.152259511835e+02   8.068455353798e+01  -4.070203872149e+01 
2 1 -2.894124868007e+01  -6.616424718258e+01  -5.900635968275e+01 
3 1  2.308866808295e+02  -9.598517250836e+01   5.800439365424e+01 
3
 Atoms. Timestep: 9000
1 1  9.237039762482e+01   1.240549849208e+02   2.355419383080e+02 
2 1  1.656871740995e+02  -4.211953634895e+02  -4.867639012924e+01 
3 1 -1.031307245532e+01   3.164841120344e+02  -1.570140389137e+02 
3
 Atoms. Timestep: 10000
1 1  4.312956106847e+02  -5.075377274808e+02  -3.133605326521e+01 
2 1  5.509693600303e+01   1.995154113566e+00   2.935817053729e+02 
3 1 -1.529164553394e+02  -1.872037051661e+02  -5.118141745882e+01 
3
 Atoms. Timestep: 11000
1 1 -2.858569385657e+01   1.446548882001e+02   1.179548213971e+02 
2 1 -1.494293179740e+02   6.648525043518e+02   4.006814515018e+02 
3 1  5.688107968637e+00   2.088816185699e+01   2.156449621013e+01 
3
 Atoms. Timestep: 12000
1 1  4.533713864427e+02  -1.996553045308e+02   2.216331883874e+02 
2 1  1.097955154088e+02   2.362365546673e+02   4.316553368521e+02 
3 1  4.374270703328e+01  -2.761877333799e+02   1.689817353306e+02 
3
 Atoms. Timestep: 13000
1 1  7.344091083193e+01  -1.820849712281e+02   3.376882912087e+02 
2 1 -2.414626533493e+02   1.957361297958e+02   1.921380345484e+01 
3 1 -1.597445310825e+02  -4.247958941966e+02  -3.829144409364e+01 
3
 Atoms. Timestep: 14000
1 1 -1.815555092800e+02  -3.996654406016e+02   1.662942037114e+02 
2 1  3.120668676101e+02  -3.073787078751e+02   1.248060373397e+02 
3 1  1.863195627824e+02  -3.693967379505e+02   5.562042415441e+01 
3
 Atoms. Timestep: 15000
1 1  3.063120994294e+02   7.602264785799e+00  -2.488784931954e+02 
2 1 -1.873218683613e+02   1.969779588539e+01   2.978534247050e+02 
3 1  1.362845558391e+02   2.729469259471e+02  -2.515974330317e+02 
3
 Atoms. Timestep: 16000
1 1  1.635352534127e+02  -2.325033647940e+02   3.882799981180e+01 
2 1  1.662453080045e+02   1.150569241435e+02   1.246698484411e+02 
3 1  3.782863518454e+02   1.138658581097e+02  -1.339873985136e+02 
3
 Atoms. Timestep: 17000
1 1 -2.630910818456e+02   3.243893282959e+02  -2.814927087743e+01 
2 1  2.402532043862e+02  -3.652053725733e+02  -5.123671325687e+02 
3 1 -9.641206465874e+01   5.544735003442e+01  -4.272459651915e+02 
3
 Atoms. Timestep: 18000
1 1 -5.120096591901e+01   1.291194140447e+02   4.577412126168e+02 
2 1  1.983264464110e+02  -3.012898411538e+02  -5.508268126747e+02 
3 1 -1.183397905792e+02  -2.903051078220e+02   2.026510754536e+02 
3
 Atoms. Timestep: 19000
1 1  1.723668376990e+02   9.897059804347e+01  -3.000869976014e+02 
2 1 -2.830312880097e+02  -3.729509641453e+00  -3.160929937022e+02 
3 1  2.613892629111e+02  -4.383552087776e+02   4.325863271572e+02 
3
 Atoms. Timestep: 20000
1 1 -2.278656225712e+02   8.867548231286e+01   4.145245970648e+02 
2 1 -4.325937566592e+01   2.505242514976e+02  -4.776627565618e+02 
3 1  1.678716330228e+02   1.589764369162e+02  -2.058353232346e+02 
3
 Atoms. Timestep: 21000
1 1  8.739444297671e+01  -2.473862048341e+01   1.434562969034e+02 
2 1 -4.937961140958e+02  -3.895860951022e+02   1.640633342960e+02 
3 1  7.795176670053e+01  -6.686563374331e+01  -5.573664589596e+02 
3
 Atoms. Timestep: 22000
1 1 -4.662064773273e+01  -1.160465925768e+02   1.764062520985e+01 
2 1 -3.722290476872e+02  -5.561556099263e+01  -2.239905578121e+02 
3 1  5.186486418292e+02   3.438787828866e+02   2.630527355639e+02 
3
 Atoms. Timestep: 23000
1 1 -3.017425432641e+02  -2.229334122397e+02  -1.300694408861e+02 
2 1 -2.394696671213e+02   3.793696617927e+02  -2.512367968905e+02 
3 1  1.624983888594e+02  -1.617395198835e+02   1.398437927134e+02 
3
 Atoms. Timestep: 24000
1 1 -2.964861650234e+02  -4.058007600046e+02   2.057279963316e+02 
2 1  1.359654564795e+02  -4.159258877115e+02  -4.788934552879e+01 
3 1  1.932307197592e+02  -1.739341290539e+02  -2.685176011611e+02 
3
 Atoms. Timestep: 25000
1 1  2.823093069575e+02   3.564983024310e+02   2.379999272408e+02 
2 1  3.961127326318e+02  -5.240870958022e+01   5.683490281170e+02 
3 1  1.075310982838e+02  -1.344630336437e+02   4.298310501947e+02 
3
 Atoms. Timestep: 26000
1 1  1.387372578773e+02  -3.871617431547e+02   4.319473773761e+02 
2 1 -5.994480222084e+01   7.355061181965e+01   4.001351563295e+02 
3 1 -4.797454026721e+02  -3.177895106142e+02  -3.673386286281e+02 
3
 Atoms. Timestep: 27000
1 1 -1.695179065709e+02   3.011471476929e+01  -3.821058485501e+02 
2 1  4.017688514684e+01   4.049904210332e+01   2.699295490273e+01 
3 1 -4.476247495576e+02   2.119688459891e+02  -6.553174913803e+01 
3
 Atoms. Timestep: 28000
1 1 -2.838100919014e+02  -3.042514091585e+02   2.014918373554e+02 
2 1 -2.693611430575e+02   1.350386434912e+02  -2.635006964304e+02 
3 1  7.290642349324e+01   3.352728146591e+01  -1.295412477354e+02 
3
 Atoms. Timestep: 29000
1 1 -1.007023670654e+02  -1.351205506256e+02  -7.116972939100e+01 
2 1 -2.092456439809e+02  -1.060872332499e+02   2.271892216245e+01 
3 1 -3.203349067831e+01   9.822959103892e+01  -3.315081372763e+01 
3
 Atoms. Timestep: 30000
1 1 -1.332308018866e+02  -3.970095643553e+02   1.161680952608e+02 
2 1  1.557645612557e+02   1.419027040656e+02  -4.493307763625e+02 
3 1 -7.720274367857e+01   2.225490418919e+01   6.636838075131e+01 
3
 Atoms. Timestep: 31000
1 1 -5.017674829548e+00   2.988080768429e+02  -2.898287069916e+00 
2 1 -1.033081935765e+02   2.969307604160e+02  -9.283562452388e+00 
3 1 -2.378929071456e+02  -4.362016411465e+01  -9.188558431550e+00 
3
 Atoms. Timestep: 32000
1 1 -1.855150397388e+02  -7.929025522084e+01  -2.076151745456e+02 
2 1  4.739605148678e+02  -1.199889458745e+02   3.889049565377e+02 
3 1 -2.582118710479e+01  -1.331027591730e+02  -9.418352652569e+01 
3
 Atoms. Timestep: 33000
1 1 -1.833814606090e+02   1.047189150246e+02   6.144883058994e+02 
2 1  6.308041891687e+01  -2.630460736463e+02   2.766660670952e+02 
3 1 -2.261555236156e+02   3.579423423119e+02  -8.815388421650e+00 
3
 Atoms. Timestep: 34000
1 1 -3.464221822774e+02   2.447568002454e+02  -2.703687112408e+00 
2 1  3.774657224906e+02   6.732306503852e+01  -1.797423316654e+02 
3 1  3.693127532465e+01  -4.768897845960e+02   1.326872209221e+02 
3
 Atoms. Timestep: 35000
1 1 -9.893859815507e+01  -6.218129530026e+02   1.896308903237e+02 
2 1 -4.369605132020e+01   2.497834931762e+02   1.426154282996e+02 
3 1  1.190525901380e+02   6.482784073374e+01   1.299375484566e+01 
3
 Atoms. Timestep: 36000
1 1  2.098104209829e+01  -2.868149373307e+01  -1.621202585879e+02 
2 1 -1.267245711998e+02  -9.718423233693e+01  -3.630219703278e+02 
3 1 -1.598610173376e+02   5.991705803364e+01   1.794621393108e+02 
3
 Atoms. Timestep: 37000
1 1 -5.950792025630e+01   2.824881946865e+02  -4.019037802118e+02 
2 1 -2.101213248624e+02   1.413367003550e+02  -9.473771106619e+01 
3 1 -8.852025405329e+01  -1.715750852704e+02  -1.983355990698e+02 
3
 Atoms. Timestep: 38000
1 1  2.899569739861e+02  -6.283839916546e+01  -3.888942420026e+02 
2 1 -2.812480419030e+02   2.461258214115e+02   1.062111542898e+02 
3 1  1.020348267620e+02  -1.988047173390e+02  -2.989066188802e+02 
3
 Atoms. Timestep: 39000
1 1 -6.009524025368e+02   3.203620216832e+02  -6.383276871096e+01 
2 1  4.260112781195e+02   3.062713221453e+02   4.625196692966e+01 
3 1 -9.176352363414e+01   7.558519308081e+01  -3.009976203962e+01 
3
 Atoms. Timestep: 40000
1 1 -3.472190731790e+02   1.553164870791e+02  -9.551147217161e+01 
2 1 -1.738293073103e+02   1.023872622476e+02  -4.720422344797e+02 
3 1 -3.326987596611e+02  -6.977935062129e+01  -5.357900072199e+01 
3
 Atoms. Timestep: 41000
1 1 -6.878890764834e+02  -2.102666754933e+01   3.581391444291e+01 
2 1  3.800987469764e+02  -3.129734223289e+02   6.415980825875e+02 
3 1  1.832243381676e+02   2.495621125969e+02   4.222228579787e+02 
3
 Atoms. Timestep: 42000
1 1  2.869209219766e+02  -2.091078916614e+02   3.077827720234e+02 
2 1  2.948587487313e+02   1.936547902252e+02  -8.193805727324e+00 
3 1  1.864834834016e+02  -2.809038818488e+02   1.705775785129e+02 
3
 Atoms. Timestep: 43000
1 1 -5.016732623231e+01   2.819784540904e+02  -1.232062594292e+01 
2 1  1.184955079385e+02  -3.382163518615e+01  -1.444426102646e+01 
3 1  4.281344228078e+02  -1.587045292572e+02   4.440101475227e+00 
3
 Atoms. Timestep: 44000
1 1 -1.631925690763e+02   4.886636238933e+02   2.663386696757e+02 
2 1  2.244249785244e+02   6.000107328116e+01  -5.404726643012e+01 
3 1  1.861326020619e+01  -1.398491322593e+02   2.423020064256e+02 
3
 Atoms. Timestep: 45000
1 1 -1.032512320687e+01  -3.907982718564e+02  -2.033796939986e+01 
2 1  1.066449121821e+02   3.980382665819e+01   4.849833609499e+02 
3 1  4.251593020493e+02  -1.414511997121e+02   2.883742213098e+02 
3
 Atoms. Timestep: 46000
1 1 -6.245141969203e+02   1.998153378289e+02  -1.206112748219e+02 
2 1 -6.636429173031e+02   1.980686163645e+02   1.794394855693e+02 
3 1  4.466708425148e+02  -3.220072798547e+01  -1.461383168731e+02 
3
 Atoms. Timestep: 47000
1 1 -1.805962893785e+02   1.118667075273e+02   3.423098782557e+02 
2 1 -1.030146415642e+02  -3.302294873692e+02  -9.462922659034e+01 
3 1 -1.462755679363e+02   2.339839665646e+02  -2.219561593564e+02 
3
 Atoms. Timestep: 48000
1 1  1.557924724783e+02  -7.196085556467e+01  -1.422838456632e+02 
2 1  9.454369738982e+01   3.090420386284e+01  -4.694021664958e+02 
3 1 -3.715325512723e+01   3.242765260773e+01  -1.846066784775e+02 
3
 Atoms. Timestep: 49000
1 1 -3.903823886935e+01   1.791550858013e+02   3.979946919468e+02 
2 1  2.933592776022e+01   1.684370212305e+02   1.048466600507e+01 
3 1  1.839355780334e+02   1.519025758543e+02   1.151478565696e+01 
3
 Atoms. Timestep: 50000
1 1  1.728470506662e+02  -3.504319519300e+01   2.430126717548e+02 
2 1 -5.087663502353e+01  -1.890632322796e+02   2.083744382179e+02 
3 1 -1.887814399892e+02  -1.658591410098e+02   7.186626901130e+01 
3
 Atoms. Timestep: 51000
1 1 -4.100084026368e+02  -2.339466721497e+02  -7.163423342430e+00 
2 1 -3.788643594095e+02  -2.591896744908e+02  -3.408746206464e+02 
3 1  5.191955583971e+01  -2.236044336421e+02  -5.529976983544e+02 
3
 Atoms. Timestep: 52000
1 1 -2.988095900893e+01  -5.212199523717e+01   7.132497048003e+01 
2 1 -4.608309544085e+01  -2.472106568102e+02  -5.505205966428e+01 
3 1 -2.680404947900e+02  -1.870062720003e+01  -3.127502478494e+02 
3
 Atoms. Timestep: 53000
1 1 -2.560115741783e+02   1.580781494773e+02   5.843370375835e+01 
2 1 -2.323039444019e+02   2.907034037498e+01  -1.532016409962e+02 
3 1 -1.671433326187e+02  -3.756363426783e+02  -6.179087517165e+01 
3
 Atoms. Timestep: 54000
1 1 -3.484107117096e+02  -2.863970501776e+02  -2.280829052238e+02 
2 1  1.726917913299e+02   2.851666939456e+02  -6.183996121407e+02 
3 1  4.824575792660e+02  -4.200817556378e+02   2.630944405462e+02 
3
 Atoms. Timestep: 55000
1 1  5.114163739000e+01  -2.134311290031e+02  -4.002724154166e+01 
2 1  3.409901610890e+02  -1.365203846947e+02  -6.782834481965e+02 
3 1  8.804981243055e+01   9.379654838309e+01  -1.828741185263e+02 
3
 Atoms. Timestep: 56000
1 1 -1.149948028226e+02   6.194855213741e+00  -3.651549288704e+02 
2 1 -8.418007698589e+01  -7.852102484331e+01  -1.921865051646e+02 
3 1  9.789235576214e+01   1.081856679189e+02  -5.347942949629e+02 
3
 Atoms. Timestep: 57000
1 1 -3.989512561066e+02  -1.529000550723e+02  -3.177233947219e+02 
2 1 -1.520999179459e+02  -1.140402433708e+02   1.848718254179e+02 
3 1 -3.338447184415e+02  -2.990431638378e+02  -7.511199644257e+01 
3
 Atoms. Timestep: 58000
1 1  1.909057002728e+02  -5.116854963537e+02   3.840768072134e+02 
2 1 -4.614009279518e+02  -1.390200220042e+02  -1.015340921242e+02 
3 1 -3.603443109254e+02  -8.318158567006e+01  -3.670178046992e+01 
3
 Atoms. Timestep: 59000
1 1  1.330962381496e+02  -2.437697827058e+02  -1.556982566227e+02 
2 1  2.749612021910e+02  -9.685189944384e+01   1.404301276646e+02 
3 1  3.773584118075e+02   8.092735085042e+02   1.840883008997e+02 
3
 Atoms. Timestep: 60000
1 1 -2.847326331981e+02  -2.644998784858e+01   3.436198689423e+02 
2 1 -4.216462829784e+02  -1.966523994068e+02  -9.323516055253e+01 
3 1 -2.317947130170e+02   1.832103456998e+02   1.994962864975e+02 
3
 Atoms. Timestep: 61000
1 1  1.123966131676e+02  -3.691825555686e+02   3.515985284512e+02 
2 1  4.309237922028e+02  -2.115262125442e+02   1.542257697737e+02 
3 1 -2.325527136483e+02  -2.862425032996e+02  -4.798251619241e+02 
3
 Atoms. Timestep: 62000
1 1 -1.166545573391e+02  -1.290709354870e+02  -1.792634510360e+02 
2 1 -1.681265538222e+02  -2.576197516266e+02  -8.756739550776e+01 
3 1 -6.279328376976e+02   5.251832629599e+02  -3.782081211246e+02 
3
 Atoms. Timestep: 63000
1 1  2.440732428899e+01  -5.031913873499e+02  -2.360025655283e+02 
2 1 -2.310405528415e+01   3.223659618342e+00  -1.209009672183e+02 
3 1  2.167722372799e+02  -5.078411046931e+02  -5.722794868965e+01 
3
 Atoms. Timestep: 64000
1 1 -1.348276494866e+02   2.764515892508e+02   1.757618737550e+02 
2 1 -1.018286896781e+02   7.173239033211e+01  -9.356835576972e+01 
3 1  2.325035205412e+02   3.671171092438e+02  -2.805953048754e+02 
3
 Atoms. Timestep: 65000
1 1 -6.373193228795e+01   3.606085172790e+01  -3.846797671967e+02 
2 1  2.456791053280e+02  -1.438944405861e+02  -1.847146637994e+02 
3 1  2.395916042712e+02  -2.537537704129e+02  -4.892501980542e+02 
3
 Atoms. Timestep: 66000
1 1  4.221536015591e+02  -1.053888356968e+02  -3.862822936392e+01 
2 1  9.031729730630e+01   8.240984072006e+01  -9.912669705611e+00 
3 1 -1.452235860519e+02  -2.056480612020e+02   7.529390920052e+01 
3
 Atoms. Timestep: 67000
1 1 -1.462014139548e+02  -1.483135939643e+02  -7.986710934344e+01 
2 1  3.032554365803e+01  -6.287131305402e+01   4.118542684363e+02 
3 1 -5.539837659744e+01   5.315635685160e+02   4.413008113845e+02 
3
 Atoms. Timestep: 68000
1 1 -2.110325352335e+02  -6.657817544991e+01  -3.493338718745e+02 
2 1  1.514001734874e+02  -3.930751247609e+02  -1.645171856223e+02 
3 1  3.296325128222e+02  -3.525920182995e+02   2.615594169000e+01 
3
 Atoms. Timestep: 69000
1 1 -3.882568769964e+02   1.223462578781e+02   1.679481698226e+02 
2 1 -4.335697609523e+02   1.664108640861e+01   3.624902443134e+01 
3 1 -6.987941706071e+01  -4.939697384843e+02   2.093653397713e+02 
3
 Atoms. Timestep: 70000
1 1  4.406586289601e+01  -5.862595784033e+01   6.124435976363e+02 
2 1  9.022487737352e+02  -2.214006424128e+02  -3.443628486656e+02 
3 1 -1.083498585586e+02   2.056350522503e+02  -3.119617155148e+01 
3
 Atoms. Timestep: 71000
1 1 -3.104599151605e+02  -2.210229743801e+02   3.061919733244e+02 
2 1  1.460408577538e+02   7.969430545468e+01  -4.150469631144e+02 
3 1  1.111224018674e+02  -1.183347100281e+02   2.326950622628e+02 
3
 Atoms. Timestep: 72000
1 1  2.719676244852e+01   5.079703441413e+02   3.055117116155e+02 
2 1 -1.776315807610e+02   2.683928920468e+02  -3.386496192521e+02 
3 1  2.570740619541e+02  -2.024975518345e+02  -7.564785779429e+02 
3
 Atoms. Timestep: 73000
1 1  2.322581236140e+02   1.360303549747e+02  -2.206845643702e+02 
2 1  5.308555737735e+02   9.768235735669e+01   2.568877833263e+02 
3 1  9.020404756353e+00   2.683806224684e+02   4.674594311474e+01 
3
 Atoms. Timestep: 74000
1 1 -2.174870347885e+02   8.703207103321e+01  -2.438361176469e+02 
2 1 -4.240040788742e+02   3.975305361213e+01  -4.478689022056e+02 
3 1 -2.395061403559e+02  -3.001220842908e+02  -2.129798962512e+02 
3
 Atoms. Timestep: 75000
1 1  1.741718218772e+02   2.564277410229e+02  -2.870080573669e+02 
2 1  2.785918683241e+01  -5.759925315277e+01  -3.336126883343e+02 
3 1  1.227926818722e+02   1.258579553126e+01  -5.950488210545e+01 
3
 Atoms. Timestep: 76000
1 1 -2.534392631844e+02  -1.915036509248e+02   1.235379827971e+02 
2 1 -1.606382986211e+02   8.004885311973e+01  -3.244878150135e+02 
3 1 -3.889316285916e+02   3.673089411395e+00   5.088297095888e+02 
3
 Atoms. Timestep: 77000
1 1 -1.283055958790e+02  -2.367300898646e+02   6.990895079464e+01 
2 1 -4.230660772197e+02  -3.846048666349e+02  -4.030498575597e+02 
3 1  6.267599602252e+02  -7.272214167163e+02   3.754131737088e+02 
3
 Atoms. Timestep: 78000
1 1 -1.712100852946e+02  -1.424316259519e+02  -6.967526115834e+01 
2 1  2.608411889798e+02  -1.269576736420e+02   2.399242609456e+02 
3 1 -1.207181447850e+02  -3.916606607778e+02   7.408966762150e+01 
3
 Atoms. Timestep: 79000
1 1 -4.081199904124e+02  -7.064779300942e+01   1.157460039959e+00 
2 1 -1.582031378372e+02   1.601488016020e+00  -4.430165606328e+02 
3 1  1.877883048679e+02   5.877700392056e+02   4.076957869835e+02 
3
 Atoms. Timestep: 80000
1 1  2.362613562685e+02   7.165449043920e+01  -3.002216338898e+02 
2 1 -2.009435786849e+02  -1.348048464488e+02  -1.500921348453e+01 
3 1 -3.524415981370e+02  -3.102803070683e+01  -3.973684816479e+02 
3
 Atoms. Timestep: 81000
1 1 -3.713229326212e+01  -6.903093441267e+02  -6.584294137853e+01 
2 1 -5.023004724766e+01   7.079181326944e+01  -4.444402269861e+02 
3 1 -2.427242574235e+02   3.525530936813e+02  -2.839016005901e+01 
3
 Atoms. Timestep: 82000
1 1 -6.626365388693e+00   4.651600571476e+01  -5.149404694196e+02 
2 1 -3.315695260075e+00  -1.343665945363e+02   3.694597596127e+01 
3 1 -1.904140458803e+02  -3.550651101673e+02   3.654632335648e+00 
3
 Atoms. Timestep: 83000
1 1 -1.347805321495e+01  -3.014405728212e+02   2.121528416502e+02 
2 1 -8.273825116522e+00  -2.925781830498e+02   4.456614948263e+02 
3 1  3.409447684641e+02   8.071222693515e+01   6.425092278776e+01 
3
 Atoms. Timestep: 84000
1 1  1.597927192797e+02   3.219651918484e+02  -2.461679508631e+02 
2 1 -1.706094786562e+02  -3.630431760857e+02   8.893399782443e+01 
3 1  3.633966444335e+02   9.940902630170e+00  -3.765579866990e+02 
3
 Atoms. Timestep: 85000
1 1  1.508204184748e+02  -2.485213313109e+01  -2.524489563367e+02 
2 1 -5.044909439612e+00   1.925104421169e+02   8.582893109995e+01 
3 1  5.470593351332e+01   1.799245499716e+02  -1.959568872800e+02 
3
 Atoms. Timestep: 86000
1 1 -2.181129427191e+02  -5.854491928942e+01   1.999464007694e+02 
2 1 -2.855800631281e+01   4.860380578434e+01  -8.063289645707e+02 
3 1 -8.304417791825e+01   9.065201216538e+01   2.107006513463e+02 
3
 Atoms. Timestep: 87000
1 1  2.175481185553e+02   5.200426296363e+01  -2.724901260667e+02 
2 1  1.061991469395e+01   3.844142586514e+02   1.124757797856e+02 
3 1  5.161843496388e+02  -2.379303071447e+02   7.841776098403e+01 
3
 Atoms. Timestep: 88000
1 1 -5.094317054641e+01   2.040340644445e+02  -6.489679182058e+01 
2 1 -2.625388438539e+02  -5.869127452865e+00  -3.987926361532e+02 
3 1 -3.137713653519e+01  -7.517280599859e+01   5.938705190145e-01 
3
 Atoms. Timestep: 89000
1 1 -5.141443291781e+00   4.152153580942e+00  -2.648174679376e+02 
2 1 -3.658870168752e+02  -1.353614658059e+02  -1.639434445810e+02 
3 1 -3.942643869210e+02  -3.986792864792e+02  -2.705752363194e+02 
3
 Atoms. Timestep: 90000
1 1  1.090779339078e+02   4.350211653822e+02  -1.248812359982e+02 
2 1  2.257178946141e+02  -2.535462350199e+02  -9.200500973800e+01 
3 1  6.530856325715e+01   3.131260458421e+02   7.593443383126e+01 
3
 Atoms. Timestep: 91000
1 1 -2.950262065835e+02  -5.216659449487e+02  -2.698310767197e+01 
2 1  3.879949135641e+02   3.578728601491e+02   3.489496372012e+02 
3 1 -8.121322790024e+01   2.452287855029e+01  -8.369759596391e+01 
3
 Atoms. Timestep: 92000
1 1 -1.873322336540e+02  -1.956279714635e+02   9.092185796338e+01 
2 1  1.254733333562e+02   4.278291793929e+02   3.784520803092e+02 
3 1 -3.422666007471e+01   3.610765477473e+02  -2.487389591451e+02 
3
 Atoms. Timestep: 93000
1 1 -1.387099694215e+02   1.828453440207e+02  -1.075505779086e+01 
2 1  8.675201552959e+01  -2.073900496146e+02  -1.740519973429e+02 
3 1  1.046909926594e+02   3.314647464481e+01   2.426776666971e+02 
3
 Atoms. Timestep: 94000
1 1  3.606458210702e+01   1.575569399596e+02   6.916241629216e+01 
2 1 -3.190571419538e+02  -2.120844825153e+01   1.211814101841e+01 
3 1 -9.785586595514e+01   1.720563673145e+02   2.342622348499e+02 
3
 Atoms. Timestep: 95000
1 1  1.469217338977e+02   5.160736620834e+01  -3.869991417685e+02 
2 1  3.893716880795e+02  -1.104470467522e+02   1.498605851717e+02 
3 1  2.226232490519e+02   1.039947325352e+01   1.809859597555e+02 
3
 Atoms. Timestep: 96000
1 1 -7.153192096497e+01  -6.462757554905e+01   1.546332798431e+02 
2 1  2.111972666946e+02  -3.148928775027e+01  -1.130085494393e+02 
3 1 -4.541105948076e+02  -8.711331557947e+01   3.101350679392e+01 
3
 Atoms. Timestep: 97000
1 1 -6.444306870581e+01   2.856312975816e+02  -3.148413052163e+02 
2 1  3.048185478506e+02   5.497635046866e+02   1.662892091856e+02 
3 1 -8.623985564400e+01  -3.252576892789e+01  -5.157004579668e+01 
3
 Atoms. Timestep: 98000
1 1  6.720570289187e+01   4.473599734156e+02   2.672988519039e+02 
2 1 -2.455359161786e+02  -4.355643544806e+02   2.283706510069e+02 
3 1 -1.774808893245e+01  -7.578707761620e+01   8.352483225347e+01 
3
 Atoms. Timestep: 99000
1 1  4.639223916625e+02  -3.276379398544e+01  -2.805575519366e+02 
2 1  2.084393283591e+02   3.006193101605e+02   1.940604365396e+02 
3 1 -3.923617958597e+01  -1.922297291802e+02  -3.181421248052e+01 
3
 Atoms. Timestep: 100000
1 1 -1.166952255855e+02   1.213885151912e+02   3.269740893573e+01 
2 1 -1.024489805047e+02   3.471337634219e+02  -6.179775874403e+02 
3 1 -3.246619624967e+02  -1.058956706050e+02   8.934477955431e+01 
