3
 Atoms. Timestep: 0
1 1  4.212185900243e+02  -5.891841647043e+01  -4.041639019131e+01 
2 1 -7.702831666402e+01  -5.067567985732e+01   1.992162203652e+02 
3 1 -2.849709370094e+02   6.668977693130e+01  -3.566066107311e+02 
3
 Atoms. Timestep: 1000
1 1  4.470842003878e+02  -4.516553782177e+02   1.670344252828e+02 
2 1  3.990385166670e+02  -6.812951392288e+01  -5.629378677895e+01 
3 1 -1.276771179054e+02  -3.112137775453e+02  -3.021521236713e+02 
3
 Atoms. Timestep: 2000
1 1 -2.603580619590e+02  -7.666660721463e+01  -1.920000683679e+02 
2 1  2.010936222583e+02   6.121524918478e+01  -2.490831280554e+02 
3 1 -1.860789142929e+02  -2.915326511619e+01   4.869170440260e+02 
3
 Atoms. Timestep: 3000
1 1  2.485824920815e+00   2.003448572347e+02   3.482026140617e+02 
2 1  1.273466890880e+02  -8.752811050470e+01   8.551820680259e+01 
3 1 -3.230439239999e+01   2.555077371836e+02   1.845990819282e+02 
3
 Atoms. Timestep: 4000
1 1 -6.474184890883e+01   2.114835873586e+01  -3.746262908568e+00 
2 1  4.167880158721e+01  -2.080894031895e+02   1.378275347747e+02 
3 1  2.824798836128e+02  -1.320188548848e+02   2.767480733547e+01 
3
 Atoms. Timestep: 5000
1 1 -1.582467150498e+02  -2.144872122893e+01   5.008886595758e+02 
2 1 -2.298222562243e+02   1.889949723559e+02   8.853559479366e+01 
3 1  2.054037598292e+02  -6.695334296644e+00   1.448180935295e+02 
3
 Atoms. Timestep: 6000
1 1  8.489141544513e+01   4.885369525644e+02  -6.131860384961e+01 
2 1  4.465134999095e+02  -1.793165525920e+02  -1.607066675511e+02 
3 1  7.067220562906e+01   3.781178580023e+02  -5.740397966869e+01 
3
 Atoms. Timestep: 7000
1 1  2.471266904031e+02  -1.518877573262e+02   4.839723913264e+01 
2 1 -4.727084013536e+02   1.898563614419e+02   6.588582149081e+01 
3 1  1.190689556097e+02   3.540157751242e+02   9.084355882053e+01 
3
 Atoms. Timestep: 8000
1 1  5.548090199046e+02   2.936382114908e+02   2.197480401973e+02 
2 1 -2.676118999160e+01   2.182964815082e+02  -2.309164430318e+02 
3 1 -1.528771541489e+01   1.352562038644e+01  -3.367665847115e+02 
3
 Atoms. Timestep: 9000
1 1 -7.257007052145e+01  -6.591586777094e+02  -2.215042803504e+02 
2 1 -5.394557791706e+02  -1.782327336805e+02   6.212207259703e+01 
3 1  1.747166636694e+02  -3.079746215585e+02   1.700377304863e+02 
3
 Atoms. Timestep: 10000
1 1  2.032676470453e+02  -6.392838038037e+01  -3.970671011647e+02 
2 1  1.438812513345e+02  -3.984833783705e+01   1.821031111523e+02 
3 1  4.709305372412e+02   1.816826710815e+02   1.363173727378e+02 
3
 Atoms. Timestep: 11000
1 1 -2.759346803949e+02   3.507477008019e+02   2.712528978724e+01 
2 1  1.739569381782e+02   1.630553424833e+02   1.310315032931e+02 
3 1 -4.721229066628e+02   1.172532927269e+01  -3.905148189473e+02 
3
 Atoms. Timestep: 12000
1 1 -2.939706541161e+02  -1.928142448763e+02  -4.299614719570e+02 
2 1 -2.565567501470e+02  -1.343480666780e+02   2.371839023823e+02 
3 1 -1.017517222132e+02  -5.425712359728e+02  -1.136946529439e+02 
3
 Atoms. Timestep: 13000
1 1  1.604316972916e+02   5.187465010829e+02  -2.076854895672e+01 
2 1 -9.704818628861e+01   2.576127761692e+02   4.854102364362e+00 
3 1 -6.881462387297e+02   1.702434041559e+02   8.922328581473e+01 
3
 Atoms. Timestep: 14000
1 1  1.173434912256e+02   1.009130994722e+02   1.068177879998e+03 
2 1  8.246989711723e+01   3.926779247075e+01   8.495833250757e+01 
3 1 -3.516610280836e+01   3.030126523252e+02  -3.096331084144e+02 
3
 Atoms. Timestep: 15000
1 1 -3.823415143303e+02   2.555205498476e+02   4.735067872830e+01 
2 1  2.204933236077e+02   4.434391359755e+02  -3.130905805388e+02 
3 1 -1.318327180280e+02   7.032395342718e+01  -4.848938482233e+02 
3
 Atoms. Timestep: 16000
1 1  2.024571028673e+02   4.228953287935e+02  -3.338303124850e+02 
2 1 -1.960372470182e+01  -6.858473848235e+01  -1.113758366017e+02 
3 1 -3.104677509355e+02  -3.407491068853e+02   3.006295516846e+02 
3
 Atoms. Timestep: 17000
1 1  1.347806170253e+01   2.276966667364e+02  -2.082196141788e+02 
2 1 -1.574789272403e+02  -1.135916108528e+02   7.396528623384e+00 
3 1  3.089529670438e+02  -2.567276371855e+02   1.254519266792e+02 
3
 Atoms. Timestep: 18000
1 1 -5.096562106666e+02   4.707700195607e+01  -6.276728620726e+02 
2 1 -1.672312565775e+02   5.670344755507e+02  -1.904344715289e+02 
3 1  3.387686663779e+02  -2.103378398187e+02  -5.000148252129e+02 
3
 Atoms. Timestep: 19000
1 1 -1.065602020670e+01  -1.469977227004e+02   1.121550229356e+02 
2 1  1.519010775626e+02  -5.104207560024e+02  -3.281270770324e+02 
3 1  3.068553394099e+02   3.833620582642e+01  -2.552724852551e+02 
3
 Atoms. Timestep: 20000
1 1 -1.737310121617e+02   1.997689454002e+02  -1.338023497868e+02 
2 1  5.600517064392e+01  -3.379480569950e+02   4.632825691195e+02 
3 1  7.733304608083e+01  -4.667816804484e+02  -5.209679353589e+02 
3
 Atoms. Timestep: 21000
1 1  1.876738272313e+02   1.463157075005e+02   2.990919183541e+02 
2 1  3.987888831465e+01  -4.334095925064e+02   2.950477605622e+02 
3 1  8.882420471177e+01  -2.408873435602e+02  -2.661656811940e+02 
3
 Atoms. Timestep: 22000
1 1  1.220085968509e+02   4.125651595941e+02   4.051782039943e+02 
2 1 -6.705827469078e+01   3.614371335189e+02  -4.243850121881e+02 
3 1  1.713421908264e+02   1.964128602580e+01   1.572678219933e+02 
3
 Atoms. Timestep: 23000
1 1 -1.475916356243e+02  -2.908007278125e+02   9.453764832473e+01 
2 1 -2.413621719392e+02   2.791387077496e+01   1.178901140632e+02 
3 1 -3.814692486568e+02   3.383701341683e+02   1.292594178653e+02 
3
 Atoms. Timestep: 24000
1 1  1.857102953754e+02  -8.309416161898e+01   4.512970203305e+02 
2 1 -2.492568666005e+02   6.022349024754e+01  -7.941920123471e+01 
3 1  5.475098932889e+01   2.651805400873e+02  -1.835989741955e+02 
3
 Atoms. Timestep: 25000
1 1  4.746679010304e+02   5.722218791885e+01  -2.556440779417e+02 
2 1 -3.251321319406e+02  -4.193262594303e+02   3.247996659691e+01 
3 1  1.225260280862e+02  -9.555697104483e+00  -3.704479565862e+02 
3
 Atoms. Timestep: 26000
1 1  4.778689092708e+02  -2.769428028389e+02   1.594832931211e+02 
2 1 -9.071185131104e+01  -3.500283869004e+02   5.817659642989e+01 
3 1 -2.748104465151e+02  -1.042354337411e+02  -1.821756205059e+02 
3
 Atoms. Timestep: 27000
1 1  7.200074766546e+01  -6.736355690260e+00  -1.220567130583e+02 
2 1 -2.131621691999e+00   1.945394251334e+02  -3.401617621950e+02 
3 1 -2.874927046839e+02   1.019257443373e+02   2.024357582310e+01 
3
 Atoms. Timestep: 28000
1 1  1.623762251006e+02   4.302383462181e+02  -4.716214913654e+01 
2 1 -3.566489246607e+02  -4.645754550322e+02   4.588629410099e+02 
3 1  3.813310991159e+02  -2.641041066231e+02  -2.025053166980e+02 
3
 Atoms. Timestep: 29000
1 1 -3.733154512830e+02  -2.398207901960e+02   1.643916007145e+02 
2 1 -4.732598792308e+02   1.002457445214e+02  -1.577384635656e+02 
3 1 -2.352540856105e+02  -1.762909971112e+02  -1.858693910885e+02 
3
 Atoms. Timestep: 30000
1 1 -6.469599554161e+01   3.620334169316e+02  -1.586755571097e+02 
2 1  2.905748578184e+02  -4.878981606106e+01  -5.025500248288e+02 
3 1 -4.648046949920e+02   2.884570098012e+02  -2.547988287294e+02 
3
 Atoms. Timestep: 31000
1 1 -6.148934168819e+01   2.374050359675e+02   2.768481326218e+01 
2 1  3.016088864654e+01  -3.282856595105e+02  -1.969827465536e+02 
3 1 -1.888774779122e+02  -2.366234998715e+02   1.919122631250e+02 
3
 Atoms. Timestep: 32000
1 1  3.346570254705e+02  -7.504960914699e+01   1.606974986924e+02 
2 1  9.956360062711e+01  -6.625067891910e+01  -4.232054622787e+02 
3 1 -1.631183848083e+02   2.144933746677e+02   3.696345255969e+02 
3
 Atoms. Timestep: 33000
1 1  8.435103072672e+01  -1.516223869940e+02  -4.090358314579e+02 
2 1 -3.317710670520e+02   2.824529963845e+02  -4.187028165832e+02 
3 1  1.796280494543e+02  -3.211689889168e+01   3.294074369033e+01 
3
 Atoms. Timestep: 34000
1 1 -2.713509224943e+01  -7.015351345817e+02   5.418999512648e+02 
2 1  8.582772339065e+01   2.704484097509e+00  -3.062856982744e+02 
3 1  9.551464701052e+01   4.168492144342e+02  -2.188591287184e+02 
3
 Atoms. Timestep: 35000
1 1  1.597353984220e+01   1.547858449722e+02  -7.533475168215e+01 
2 1 -5.219041787837e+00   3.011868260648e+02   3.302009885035e+02 
3 1  2.392002615511e+02   3.007683648449e+02   1.784867029939e+02 
3
 Atoms. Timestep: 36000
1 1 -2.231545977497e+02  -3.770919010895e+02  -3.624141853640e+02 
2 1  6.057974273944e+00   6.732853602553e+01  -3.254398442666e+02 
3 1  1.344656863500e+02   5.290457579395e+01  -3.591653839879e+02 
3
 Atoms. Timestep: 37000
1 1  5.402550793399e+01  -1.620116123163e+01  -1.109010079002e+02 
2 1  4.758420067391e+02   2.952611626053e+01  -2.998920008513e+01 
3 1 -4.459801060744e+00  -2.483413149707e+02  -1.491915907831e+02 
3
 Atoms. Timestep: 38000
1 1  3.123445859082e+01  -8.763707279152e+02  -1.719153389724e+01 
2 1 -3.413014743771e+02   4.786343818526e+02   2.402862555856e+02 
3 1 -3.741329209708e+02  -1.302976880843e+02   4.225239717199e+02 
3
 Atoms. Timestep: 39000
1 1 -9.681452052146e+01   3.913200631932e+01  -5.470230626378e+01 
2 1 -2.439151599180e+02   9.653987718315e+00   2.164239349898e+02 
3 1  1.409964156027e+00  -3.756631417562e+02   7.795891671307e+01 
3
 Atoms. Timestep: 40000
1 1 -1.782950553394e+02   3.032598570282e+01  -4.062194641102e+02 
2 1  6.734005623166e+02   5.520068186433e+02  -1.950666723179e+02 
3 1  1.836540875620e+02  -2.705420791422e+02   1.199796716447e+02 
3
 Atoms. Timestep: 41000
1 1  2.522273212302e+02   2.239535967719e+02   1.345562572326e+02 
2 1 -3.639296311860e+00  -1.438305516217e+02  -2.014427815122e+02 
3 1  1.238432703063e+02   2.243179492115e+02  -1.123109786948e+02 
3
 Atoms. Timestep: 42000
1 1  1.564422330949e+02  -1.385408531035e+02   1.899887214518e+02 
2 1  1.406210495105e+02   3.746027263688e+02   2.047643484213e+02 
3 1 -2.054375470116e+02   4.919259754599e+02  -1.815627409993e+02 
3
 Atoms. Timestep: 43000
1 1 -2.447888890704e+02  -4.587718646102e+01  -5.715121278150e+02 
2 1 -2.815523283676e+02   3.548990226022e+02  -1.070525190347e+00 
3 1 -2.042580370974e+01   1.902992523442e+02  -4.402756840141e+01 
3
 Atoms. Timestep: 44000
1 1  6.161230795494e+01  -7.255772422769e+01  -4.482853032641e+02 
2 1  2.118893453600e+02   8.451624460523e+01   3.160178902464e+02 
3 1  4.294866225385e+00   6.252921338335e+01   6.923742323046e+01 
3
 Atoms. Timestep: 45000
1 1  1.352367854051e+01   4.375375731502e+00  -5.861520032084e+02 
2 1 -7.422576447659e+02  -2.887343758758e+01   3.677947352081e+02 
3 1 -2.444608187098e+01  -2.644322141582e+01  -5.687786178267e+02 
3
 Atoms. Timestep: 46000
1 1 -3.539775839932e+02  -3.222258904779e+01   2.034640216547e+01 
2 1  3.324929089002e+02  -7.913656714191e+01   2.690792039430e+02 
3 1 -3.556761043050e+02  -1.965108212211e+02  -3.547756499304e+02 
3
 Atoms. Timestep: 47000
1 1  6.460295190063e+02  -1.852816594975e+02   1.097452064887e+02 
2 1 -1.952851555427e+02   2.755284136303e+02   6.037037806190e+02 
3 1 -3.001783826327e+01  -1.530963382858e+02   1.251114515725e+02 
3
 Atoms. Timestep: 48000
1 1 -1.940850741051e+02   9.217948864518e+01   7.048034682107e+02 
2 1 -2.794262986659e+02  -1.754547412729e+02   2.454904222779e+02 
3 1 -1.483613605067e+02  -5.325009877608e+02   4.544322242390e+02 
3
 Atoms. Timestep: 49000
1 1 -3.601184869886e+01   4.551391591613e+02   1.635018778196e+01 
2 1 -7.739748536544e+01  -2.058359958013e+02   1.433079269563e+02 
3 1  1.047879195508e+02   2.778481357275e+02  -1.283271888877e+02 
3
 Atoms. Timestep: 50000
1 1 -7.668573427509e+02  -6.150390878339e+01   9.191695957795e+01 
2 1 -1.275888081262e+01  -1.029864345419e+02  -1.836867252370e+02 
3 1 -3.845905187275e+02  -3.187481931175e+02   1.795379070923e+02 
3
 Atoms. Timestep: 51000
1 1  3.505402149233e+02  -3.848573524464e+01   5.235697794921e+02 
2 1 -3.442928751863e+01  -3.607263856807e+01  -1.437314933661e+02 
3 1  5.887912549404e+01  -6.655282105345e+01   2.118535652683e+02 
3
 Atoms. Timestep: 52000
1 1  4.549907140342e+01   1.086842185672e+02  -4.614652200635e+02 
2 1 -8.457909355110e+01  -8.143581667522e+01   6.074605800672e+02 
3 1 -4.993944828476e+02  -7.635286256258e+02  -4.983525730633e+01 
3
 Atoms. Timestep: 53000
1 1  2.014768459529e+02  -9.883464897198e+01  -2.199042887451e+02 
2 1  2.994860965559e+02  -4.036338212436e+02  -6.461002800452e+01 
3 1  2.798906128242e+02   2.246797086643e+02   3.298548590845e+02 
3
 Atoms. Timestep: 54000
1 1  5.275348440334e+02   3.601644814256e+02  -2.889870475640e+01 
2 1  2.692588149270e+02  -3.124063622299e+02  -3.699689844714e+02 
3 1 -4.175194847475e+01  -1.577232626690e+02   2.192494545792e+02 
3
 Atoms. Timestep: 55000
1 1 -3.912133137456e+01   3.131380934695e+02   8.366707118297e+01 
2 1 -2.877443702499e+02   1.670228745438e+02   2.863812882712e+02 
3 1 -3.961684535800e+02   4.085510974432e+02   9.641949405595e+01 
3
 Atoms. Timestep: 56000
1 1 -1.744441714771e+02  -9.384170749458e+01  -2.480665127628e+00 
2 1 -9.886709835486e+01   4.163919570803e+02  -2.647184906066e+02 
3 1  1.803033848892e+02   2.766761360368e+01   4.032534826539e+02 
3
 Atoms. Timestep: 57000
1 1 -1.085172799407e+02   8.350487355972e+01   2.097613998830e+02 
2 1 -3.335294963507e+01  -3.200891613591e+02   2.004540822720e+02 
3 1 -5.442764933110e+01   4.630846740412e+02  -5.714328830632e+01 
3
 Atoms. Timestep: 58000
1 1 -3.381966017078e+02  -9.530293591844e+01   7.498764055149e+01 
2 1  2.891700988471e+02   1.376752449072e+02   2.824785179554e+02 
3 1 -1.985700361032e+02  -1.642188322489e+02   1.015018719095e+02 
3
 Atoms. Timestep: 59000
1 1 -1.485544901264e+02   6.563889507710e+01  -2.443189544998e+02 
2 1 -1.749256028400e+02   2.029349565593e+02  -3.087941899642e+02 
3 1 -3.924021934777e+01  -1.595736708918e+02  -4.765234236660e+02 
3
 Atoms. Timestep: 60000
1 1  3.092130033510e+02   2.784618545047e+02   4.763418657063e+02 
2 1 -4.376215707681e+01  -3.721198433570e+01  -1.598083315853e+02 
3 1  2.788260486477e+01  -2.651000532894e+02   1.935878506317e+02 
3
 Atoms. Timestep: 61000
1 1  2.376041592307e+02   1.669279104886e+02  -2.507520787292e+02 
2 1 -2.762940217039e+02  -4.829838390545e+02   4.908266971242e+02 
3 1 -3.109904274207e+02   5.868794390516e+02   3.666741172673e+02 
3
 Atoms. Timestep: 62000
1 1  5.158194771469e+02   1.840515458106e+02  -1.168603834008e+02 
2 1 -2.035626247308e+02   3.054086500069e+02  -4.014503700343e+02 
3 1  1.013394481474e+02  -1.606783232692e+02   2.183365315856e+02 
3
 Atoms. Timestep: 63000
1 1 -5.845528583504e+01  -2.479255539619e+02  -2.489960076457e+02 
2 1  1.155610416053e+02   4.079731300102e+02   5.589338274474e+00 
3 1 -1.473745327045e-01   9.580064872003e+00  -4.746094354153e+02 
3
 Atoms. Timestep: 64000
1 1  6.576166349618e+01  -5.890643590444e+01  -4.144680874840e+02 
2 1  5.284451291098e+01  -7.657947156907e+00  -5.238521538848e+01 
3 1 -1.616018337540e+02  -3.468963947352e+01   8.274400395088e+01 
3
 Atoms. Timestep: 65000
1 1  2.313603124197e+02  -1.524438762681e+02   1.292517809684e+02 
2 1  2.168022908739e+01  -4.852566464030e+02  -2.087731341217e+02 
3 1 -1.871129549905e+01   1.875952318183e+01  -2.366439664779e+02 
3
 Atoms. Timestep: 66000
1 1  2.146792614729e+02   7.968384879463e+01   1.876315347719e+02 
2 1 -4.431711449614e+02   4.034052260438e+02   5.348689601544e+02 
3 1  4.902194531622e+02   1.030668656595e+02  -1.634747995092e+02 
3
 Atoms. Timestep: 67000
1 1  2.625473038904e+02   5.324632469352e+01   5.231726454978e+02 
2 1 -2.838998728710e+02  -2.463492721611e+02   1.168624492023e+02 
3 1  2.426703090932e+02  -1.978405385635e+02  -5.875927792349e+02 
3
 Atoms. Timestep: 68000
1 1 -4.811736362724e+01   1.101246525061e+02  -1.898024288512e+02 
2 1 -7.405514505882e+01  -4.137356668311e+01  -6.057505096793e+01 
3 1  2.007536553846e+02   2.425565410262e+02   2.465089007346e+02 
3
 Atoms. Timestep: 69000
1 1 -4.076249983531e+02  -6.120440803255e+02   2.321900011605e+02 
2 1  1.925245499746e+02   4.517778084558e+02   1.947903461887e+01 
3 1  2.211536500116e+00   5.675122710634e+02  -2.944932636887e+02 
3
 Atoms. Timestep: 70000
1 1 -5.130637467294e+01   3.266544392799e+02   1.383480559812e+02 
2 1 -9.107182185651e+01   3.761956523645e+02  -2.620738369952e+02 
3 1  5.797376838748e+01  -2.420779668494e+02   2.096693177466e+02 
3
 Atoms. Timestep: 71000
1 1 -4.533619601281e+02  -3.318594404172e+02   1.792305482285e+02 
2 1 -3.577811961184e+02  -5.746277974767e+02  -1.389450034481e+02 
3 1 -6.092961301457e+02  -2.879558207358e+02  -7.623790604760e+01 
3
 Atoms. Timestep: 72000
1 1 -3.467166238768e+02  -1.388259476298e+02   4.545779616226e+02 
2 1  4.456799006312e+02  -2.938032930313e+02   3.690138077908e+02 
3 1 -6.510757500333e+02   2.647085766853e+02  -2.367041575313e+02 
3
 Atoms. Timestep: 73000
1 1 -8.380726176024e+01   6.786709089903e+01  -3.487890176258e+02 
2 1  3.935764153576e+01   2.042835999355e+02   9.854839476447e+00 
3 1 -1.246294861410e+02  -4.460194244464e+02   6.304110303931e+01 
3
 Atoms. Timestep: 74000
1 1 -1.411300709342e+02  -1.424451427664e+02   1.406431513362e+02 
2 1 -1.637519672081e+02   2.328821500453e+02  -2.982871711060e+02 
3 1 -1.699046278902e+02   9.650835590614e+00   3.281662128767e+02 
3
 Atoms. Timestep: 75000
1 1  2.393890524838e+02  -2.477854064340e+01  -7.983394565334e+01 
2 1  7.514228777849e+01   7.326617905231e+01   4.531688797354e+02 
3 1  7.563296752698e+01  -2.399192968388e+02  -1.798079025765e+02 
3
 Atoms. Timestep: 76000
1 1  4.847293801074e+02  -1.107369070808e+02   5.396103863400e+01 
2 1 -2.578574933283e+02   2.309244763837e+02  -1.083996077728e+02 
3 1  1.294282230959e+02  -4.426759579514e+02  -7.210452621736e+01 
3
 Atoms. Timestep: 77000
1 1  1.929936395951e+02  -7.062794736722e+01  -1.281408679256e+02 
2 1 -4.533751983781e+02   2.001816904107e+02   1.395105270724e+02 
3 1 -2.169928058440e+02   6.650856947068e+01  -1.926333417847e+01 
3
 Atoms. Timestep: 78000
1 1  1.429832737947e+02   2.012577830379e+02   1.622994041322e+02 
2 1  5.173708066221e+02  -1.172557070725e+02  -1.874289531019e+02 
3 1 -1.470199032278e+02  -3.426880941250e+01   1.887533106802e+02 
3
 Atoms. Timestep: 79000
1 1  1.943096955616e+02   3.573821787719e+01   7.683026863162e+01 
2 1  3.362305564686e+02   3.622110765138e+02   1.031522585412e+02 
3 1 -8.103047499363e+01  -1.967749830616e+02  -2.743624252846e+02 
3
 Atoms. Timestep: 80000
1 1  2.089104754772e+00   8.418993588652e+01   4.161240014322e+02 
2 1 -1.798213239805e+02   1.338024016750e+02  -2.976203435803e+02 
3 1  2.362866460578e+02  -7.876620554619e+01   2.113929026086e+02 
3
 Atoms. Timestep: 81000
1 1 -3.541629622591e+02  -3.261198466404e+02  -2.877173740092e+01 
2 1  3.767414598021e+02   3.355857830002e+02  -6.019169010050e+02 
3 1 -6.087254319634e+02   4.292938513709e+02  -2.274490078899e+02 
3
 Atoms. Timestep: 82000
1 1 -2.867103540290e+02  -3.325391872642e+02   1.911873424938e+02 
2 1  3.331295073013e+02   3.373305310407e+01  -5.416450076288e+01 
3 1  1.010535089438e+02   2.737291760763e+02  -5.233925497032e+02 
3
 Atoms. Timestep: 83000
1 1 -2.558552956944e+02   3.366669237962e+02   2.331326249731e+02 
2 1 -4.147270866825e+01   1.277807464148e+02  -1.205082793250e+02 
3 1 -3.755418490387e+02   1.569196830051e+02  -3.001290583859e+02 
3
 Atoms. Timestep: 84000
1 1  1.979259627991e+02   9.048631585688e+01   9.050005426055e+01 
2 1 -1.709752567363e+02  -2.724097220417e+02  -1.468347495689e+02 
3 1  4.121744443697e+02   2.793517029763e+02   1.469961810722e+02 
3
 Atoms. Timestep: 85000
1 1 -9.019991109007e+01   1.013831802274e+01  -2.643671806622e+02 
2 1  2.698636783583e+02  -5.354698821571e+02  -3.662831627949e+01 
3 1 -4.202414248733e+01   4.129779672658e+02  -3.902958889874e+02 
3
 Atoms. Timestep: 86000
1 1 -3.724481490338e+02   3.633253224321e+02  -1.579180722977e+02 
2 1  3.746806768845e+02  -2.870140028957e+01   1.029444655953e+02 
3 1  4.668371743997e+02  -2.034339784224e+02   9.883547151766e+01 
3
 Atoms. Timestep: 87000
1 1  3.572359590091e+02   1.113698487327e+01   5.812732390663e+02 
2 1  8.348170635203e+01   1.764056385230e+02  -2.473991794732e+02 
3 1 -1.735523120867e+02  -1.125849920235e+02  -4.000315080295e+02 
3
 Atoms. Timestep: 88000
1 1  2.353970745497e+02   1.340921474670e+02  -2.325209846997e+02 
2 1  1.221448645929e+02  -3.113803156848e+01   1.081189846851e+02 
3 1 -1.169159064121e+02  -1.964219472623e+02   1.939302115966e+02 
3
 Atoms. Timestep: 89000
1 1  2.267203360329e+02  -1.774160579767e+02  -7.015151286640e+02 
2 1  4.247005620595e+02   1.108523663695e+02  -5.841521610759e+01 
3 1  2.466063374901e+02  -1.179927086527e+02  -3.409687737258e+02 
3
 Atoms. Timestep: 90000
1 1 -9.551005623988e+01   1.805059636444e+02   1.656977310923e+02 
2 1 -2.578057034780e+02  -2.192272026781e+02  -1.079751719531e+02 
3 1  2.476736661007e+02   3.140102945494e+02  -7.810610468513e+00 
3
 Atoms. Timestep: 91000
1 1 -1.353394191323e+02  -1.494985272406e+02   3.271819930862e+02 
2 1  5.130470887753e+02  -3.049403270297e+02  -1.433322270980e+02 
3 1 -1.738077830713e+02  -3.389680415854e+02   1.376880656802e+02 
3
 Atoms. Timestep: 92000
1 1 -3.476122414037e+02   3.453688677036e+01   2.763024066014e+01 
2 1  1.887577920275e+02  -1.771445693518e+00  -4.436149883658e+02 
3 1  1.928044412314e+01  -7.879620167324e+01  -7.284529902863e+02 
3
 Atoms. Timestep: 93000
1 1  3.866774702861e+02   1.560507482688e+02  -1.496397224579e+02 
2 1  2.726757322411e+01   1.770971074366e+02  -5.241792167036e+02 
3 1 -1.944412155116e+02   2.261714752018e+02  -1.495275727764e+02 
3
 Atoms. Timestep: 94000
1 1 -3.209773929590e+02  -4.099593799043e+02   2.712305573010e+02 
2 1  8.810120973466e+01  -4.429334813754e+02   5.801874437286e+01 
3 1  4.677719431587e+02  -4.840186345093e+00   6.761561581074e+01 
3
 Atoms. Timestep: 95000
1 1  6.203584455903e+01  -4.011556046059e-01   4.145527478775e+02 
2 1 -9.188746587016e+01   2.841866972971e+02   6.634159830945e+01 
3 1 -5.393593767236e+02  -1.217427667875e+02  -2.375771156598e+02 
3
 Atoms. Timestep: 96000
1 1 -6.238907117719e+02   2.754737434192e+01  -1.110456484261e+02 
2 1 -5.890607587366e+01  -2.238818358113e+02   3.233805151268e+01 
3 1 -5.327539409075e+01   3.196403340583e+02   8.268586287728e+01 
3
 Atoms. Timestep: 97000
1 1 -6.095501012740e+01  -2.086041194490e+02  -3.705925578275e+02 
2 1 -4.488295725183e+01  -2.483098716087e+02  -2.704702593160e+02 
3 1  3.001864594405e+01   2.750896778505e+02   3.497670333086e+02 
3
 Atoms. Timestep: 98000
1 1  3.931905013353e+01   2.627076429414e+02   7.078805553113e+01 
2 1  4.011200963876e+02  -1.823825580226e+02  -2.487753451481e+02 
3 1 -4.611595374703e+01   6.157832677555e+01  -2.588385987549e+02 
3
 Atoms. Timestep: 99000
1 1 -1.494993213865e+02   4.295001048111e+01   2.970338146013e+02 
2 1  3.135567290755e+02  -1.905715321994e+02  -4.232291931254e+01 
3 1  2.769141131867e+02   6.313912346012e+01   2.320255056795e+02 
3
 Atoms. Timestep: 100000
1 1 -2.848843584650e+02   7.464855034125e+01  -1.544008065703e+02 
2 1 -3.321249815331e+02  -4.027498309253e+01   1.031658260984e+02 
3 1  1.562128362668e+02  -1.890481254570e+02   2.809468496577e+02 
