3
 Atoms. Timestep: 0
1 1  2.294296284498e+02  -1.747378668750e+01   5.244233508160e+02 
2 1  5.904848606455e+02   3.904266399606e+02  -4.533571957533e+02 
3 1 -2.333998171101e+02   2.666834352030e+02  -2.418216836007e+01 
3
 Atoms. Timestep: 1000
1 1 -1.382124509645e+02   1.499069920953e+02   4.955598287461e+01 
2 1  2.960708344541e+02  -1.705902474260e+02   2.488139707972e+02 
3 1  1.194365067900e+02  -1.344457197532e+02  -2.609250569612e+02 
3
 Atoms. Timestep: 2000
1 1  5.770897644920e+01   2.844759391757e+02  -5.908804067884e+02 
2 1  1.035203205736e+02  -4.061516656208e+01   5.785595622984e+02 
3 1 -3.138705553283e+02   9.690286459422e+01  -2.470296655365e+02 
3
 Atoms. Timestep: 3000
1 1  2.074534487062e+01  -5.641965401265e+02  -6.199005620826e+01 
2 1  8.190414527589e+01  -7.463757188043e+01  -2.366491845812e+02 
3 1  2.527085123212e+02  -2.927325127036e+02  -3.070300043847e+02 
3
 Atoms. Timestep: 4000
1 1  3.712845423999e+01  -1.278949942566e+02   1.505453711261e+01 
2 1  1.607907800801e+02  -3.548796043306e+02   1.144908055608e+02 
3 1 -1.033385265619e+02  -4.629192927068e+00  -1.039716597520e+02 
3
 Atoms. Timestep: 5000
1 1  1.352571530350e+02   3.611539512931e+02   3.503991775530e+02 
2 1 -1.462051424281e+02   4.239392418120e+01  -2.122427718112e+02 
3 1 -1.951425553883e+02  -4.480775161740e+02   2.556242044446e+02 
3
 Atoms. Timestep: 6000
1 1 -1.982170334520e+02  -3.061865250146e+02  -1.635648668143e+02 
2 1  1.672462145024e+02  -4.110047958570e+02  -2.920496765542e+01 
3 1 -1.156033657884e+02  -2.091649294151e+02   2.777220412562e+01 
3
 Atoms. Timestep: 7000
1 1  1.479930150528e+02  -1.480413977145e+02  -2.977947139125e+02 
2 1  1.133616457226e+02  -1.969460565580e+02   2.120674735273e+01 
3 1  4.972583559958e+01   1.936725846881e+02   1.149594220420e+02 
3
 Atoms. Timestep: 8000
1 1 -2.983930780686e+02   5.396149680249e+01  -3.837439689961e+02 
2 1  2.370876015589e+02   5.628693588742e+01  -2.613840880301e+02 
3 1 -2.693475744846e+02  -1.593548568990e+01  -2.728644476778e+02 
3
 Atoms. Timestep: 9000
1 1  1.087924421336e+02   2.282234942308e+02   2.023613143169e+02 
2 1 -4.889182807775e+02   2.098601214293e+02  -3.232400119158e+02 
3 1  2.983865929718e+02   1.125896379222e+02   1.300018996014e+02 
3
 Atoms. Timestep: 10000
1 1  2.592707790921e+02   1.061683358075e+02  -2.620629240967e+02 
2 1 -1.874013969046e+02   6.624525185056e+02  -2.964821015006e+02 
3 1 -4.150907919728e+01   9.144109252285e+01   1.745850408706e+02 
3
 Atoms. Timestep: 11000
1 1 -5.237047627947e+02  -1.257700859753e+02   3.170208430930e+02 
2 1 -5.070369616603e+01   3.873666417483e+02  -1.804778526941e+02 
3 1  2.825320050909e+00   4.971734757424e+02  -6.578637254663e+01 
3
 Atoms. Timestep: 12000
1 1  2.729020647866e+01   9.560809358816e+01   2.831353993733e+02 
2 1  1.801656116484e+02   4.366638036485e+02   1.863301518549e+02 
3 1  1.534872459249e+02   5.952204336253e+02   1.279796036196e+01 
3
 Atoms. Timestep: 13000
1 1  7.583905901871e+01  -2.876374175065e+02  -5.633745579220e+02 
2 1 -6.009299371254e+01   1.255490798505e+01   2.001470586272e+02 
3 1  3.929618612529e+02  -4.776665748954e+02   2.094451191248e+02 
3
 Atoms. Timestep: 14000
1 1  5.793329087031e+02  -3.960668485863e+02   2.326389163540e+01 
2 1  2.963850514378e+02  -6.443380509650e+01  -9.687722829241e+01 
3 1  2.297552246871e+02  -2.109345597137e+02  -5.479821281559e+02 
3
 Atoms. Timestep: 15000
1 1  1.151678697051e+02  -8.150522883891e+02  -6.308287464027e+02 
2 1 -3.356122676390e+02  -5.913492889118e+01   5.060798727675e+02 
3 1 -1.558159652184e+02   5.361848736748e+01  -3.892322283522e+02 
3
 Atoms. Timestep: 16000
1 1 -2.636746805229e+02   9.192980302155e+01  -7.252262086723e+01 
2 1 -2.344828690454e+01  -2.149986205637e+02  -3.264240986212e+02 
3 1 -3.792659026671e+02  -4.314317709501e+02  -1.374600263146e+02 
3
 Atoms. Timestep: 17000
1 1  9.715914359332e+01  -3.991859284851e+02  -1.393717963517e+02 
2 1 -3.606340569435e+02  -2.172046994014e+02   4.174144852064e+02 
3 1  2.053438834007e+02   1.272987769605e+02  -3.674752055351e+02 
3
 Atoms. Timestep: 18000
1 1  3.577152098902e+02   1.815648247806e+02  -5.226498004794e+02 
2 1  2.712018023013e+02  -4.843495345066e+02  -9.970122864911e+00 
3 1  2.612209215034e+02  -9.497114105847e+01   1.687573938750e+02 
3
 Atoms. Timestep: 19000
1 1 -1.549215970498e+02   5.568897319078e+01   7.841312275008e+01 
2 1 -6.124395062853e+01   1.980097325677e+02  -5.515893313381e+01 
3 1  3.843934166366e+01  -4.859182890755e+02   1.329492968042e+02 
3
 Atoms. Timestep: 20000
1 1  5.612147210667e+01   7.192972351259e+01   3.458373355752e+02 
2 1  1.575362897497e+02   1.154659642520e+01   3.559408011076e+02 
3 1  1.755350957455e+01   2.787871068992e+02   3.970600201027e+02 
3
 Atoms. Timestep: 21000
1 1 -2.717209342452e+02  -4.063477657404e+01  -5.864263647876e+01 
2 1  4.421498031883e+02  -3.068232111144e+02  -2.943222359435e+01 
3 1 -1.313161369769e+02  -4.176703730812e+02   2.330866709071e+02 
3
 Atoms. Timestep: 22000
1 1  1.354462467934e+02   5.274536456006e+02   1.726709535514e+02 
2 1  2.978402111808e+02  -6.139990041859e+01  -1.164308515747e+02 
3 1  3.318069894598e+02   3.901311146027e+02   3.298692528477e+02 
3
 Atoms. Timestep: 23000
1 1 -1.011062762208e+02  -4.125942139368e+01   1.718708203147e+02 
2 1 -8.375049748281e+01  -8.848831001086e-01  -4.659978220568e+02 
3 1 -2.991575049442e+02  -1.953562062032e+02  -2.459233753796e+01 
3
 Atoms. Timestep: 24000
1 1  1.771535697726e+02  -4.846172981767e+00   1.830617474890e+01 
2 1  4.325972177693e+02  -2.107087187689e+01   9.680682052373e+01 
3 1  1.985891009369e+02  -2.830353294384e+02   9.326031535964e+02 
3
 Atoms. Timestep: 25000
1 1  2.071362716872e+02   2.117650696370e+02   4.949577977388e+01 
2 1 -2.594940484046e+02   3.315392879272e+02   1.113212465306e+02 
3 1 -6.330772845480e+01  -2.975017583841e+02  -2.445241669517e+02 
3
 Atoms. Timestep: 26000
1 1 -1.100855356169e+02  -3.090880075667e+02   1.086052470201e+02 
2 1  1.012925658050e+02   3.007233890034e+02   1.989500042295e+02 
3 1 -1.032449868203e+02  -5.556594304634e+02  -1.476833298268e+02 
3
 Atoms. Timestep: 27000
1 1  1.705624048503e+02  -2.697617641630e+02   2.131644463882e+02 
2 1 -3.055570033160e+02   4.950671596885e+02  -3.106656971273e+02 
3 1  1.488096561383e+02   3.314343742507e+02  -1.253668903478e+02 
3
 Atoms. Timestep: 28000
1 1  2.403197112740e+02   4.897866255794e+02   1.085733452835e+02 
2 1  3.540036853395e+02   4.363796950427e+02   4.839173349007e+02 
3 1 -1.809828288506e+02   2.578290114348e+02  -2.721519053469e+02 
3
 Atoms. Timestep: 29000
1 1 -2.971478633126e+02   2.607233789276e+02  -1.863728233687e+01 
2 1  1.003025833667e+02  -2.877860429930e+02   2.050691749507e+01 
3 1 -8.292016123746e+00  -2.982331025199e+02  -9.018055339303e-01 
3
 Atoms. Timestep: 30000
1 1  1.588749166475e+02   1.949357469892e+02  -2.938327776689e+02 
2 1 -2.300147318676e+02   1.770023131468e+02  -6.463958054902e+02 
3 1 -7.896195951808e+02  -1.148074498908e+02   8.619579160403e+01 
3
 Atoms. Timestep: 31000
1 1  2.378395253695e+02  -3.745582066983e+02  -3.099715515191e+02 
2 1 -3.314661044718e+02  -5.305440965257e+02  -2.023269162049e+02 
3 1  2.022024045350e+02   3.120055616632e+02   1.230451052183e+02 
3
 Atoms. Timestep: 32000
1 1  2.417680155731e+01  -1.880942810773e+02   2.796812362375e+02 
2 1 -1.068320344329e+02   2.734124931685e+02  -2.146215362442e+01 
3 1  1.560378811732e+02   4.443969404437e+01  -2.015426580517e+02 
3
 Atoms. Timestep: 33000
1 1 -4.563408093507e+00  -7.477908246128e-01   2.784473556473e+01 
2 1 -1.862680277992e+02  -2.901196980491e+02   2.429395398164e+02 
3 1 -3.043296535898e+02   9.618724547076e+01   2.305163905188e+02 
3
 Atoms. Timestep: 34000
1 1  1.807703530228e+02   3.834238298117e+02   2.064549756520e+02 
2 1 -3.507222942911e+01   3.894118669398e+00   1.609875574773e+02 
3 1 -4.749169824076e+02   6.974811814937e+01  -4.118815141206e+02 
3
 Atoms. Timestep: 35000
1 1 -1.203090442715e+02   3.589199889047e+00   3.274393009153e+02 
2 1  1.569776417026e+02   7.270597443558e+02  -3.259843071431e+02 
3 1 -6.843759999564e+01  -2.132750821842e+02   1.172781097214e+02 
3
 Atoms. Timestep: 36000
1 1 -3.032162522408e+02  -2.235174049962e+02   4.130792212671e+02 
2 1 -8.086896362893e+01  -9.980223414479e+01  -3.485445952363e+02 
3 1  2.243451510311e+02   2.246242095710e+02  -6.966768242969e+01 
3
 Atoms. Timestep: 37000
1 1  1.257400710902e+02   3.209584764116e+01  -7.236052454782e+00 
2 1 -3.307102003653e+02  -4.988375833267e+01  -1.929604994395e+01 
3 1 -3.891035417247e+02  -5.221158986598e+02  -1.771441714087e+02 
3
 Atoms. Timestep: 38000
1 1 -2.445693011564e+02   6.930341313049e+02  -1.785737421319e+02 
2 1  7.564242537293e+00  -1.200043849096e+02   3.713789808673e+02 
3 1  5.020542897190e+02  -1.393810455654e+02  -2.751288199502e+02 
3
 Atoms. Timestep: 39000
1 1 -4.202863387378e+01  -3.724447203226e+02  -4.095779335573e+02 
2 1  1.899674435767e+02  -2.900879238876e+02   5.436492530491e+01 
3 1  1.301530370477e+02  -4.479958250325e+02   1.781518852759e+00 
3
 Atoms. Timestep: 40000
1 1  5.809017779308e+01   4.695277244607e+02   2.302007649888e+02 
2 1  1.458267040411e+02   1.366327110453e+02   3.233084456773e+02 
3 1  1.642868627776e+02  -1.237288857506e+02   1.055764837841e+02 
3
 Atoms. Timestep: 41000
1 1  2.398287548739e+02   4.211361096385e+01  -2.961983349735e+02 
2 1  1.897264051912e+02   1.811711800499e+02  -4.496436186739e+02 
3 1 -3.502924112856e+02   3.143417775957e+02  -5.843231921863e-01 
3
 Atoms. Timestep: 42000
1 1  2.314842229242e+02  -2.860214701957e+02  -3.158253459576e+02 
2 1 -2.152486794834e+02   4.799223811382e+02  -7.727013480804e+01 
3 1 -6.153001420365e+01  -1.267002646310e+02   2.368746778899e+02 
3
 Atoms. Timestep: 43000
1 1  2.440637840242e+01   3.332944653240e+02   5.404679218248e+02 
2 1  1.652472890786e+02   1.280806118416e+02  -3.599913587007e+02 
3 1  3.967791675505e+01  -4.993860657824e+01  -3.088805047920e+02 
3
 Atoms. Timestep: 44000
1 1  3.422772141321e+02  -1.204305118796e+02  -2.379068601429e+02 
2 1 -2.076229483362e+02  -1.583954756456e+02   4.925754027433e+00 
3 1 -3.256489472938e+02  -4.367559310209e+00   2.546213576473e+02 
3
 Atoms. Timestep: 45000
1 1  1.498446826145e+02   4.718092088825e+02   1.549083345797e+01 
2 1  9.240127412736e+01  -1.815305700016e+02  -2.836576694862e+02 
3 1 -2.206940636724e+02   3.000276158964e+01  -2.117446612077e+02 
3
 Atoms. Timestep: 46000
1 1 -4.487542883453e+02   2.634982531720e+02  -5.785986799283e+02 
2 1 -1.597268082563e+02   2.212481458120e+02   2.051674102606e+02 
3 1  2.391882347172e+02   6.170014569608e+02  -3.794670727402e+01 
3
 Atoms. Timestep: 47000
1 1  3.820235580818e+02  -3.154805039627e+02   1.103470273818e+02 
2 1 -3.119587952885e+02   4.078268861167e+02  -6.395090255251e+01 
3 1 -7.427772457208e+01  -4.385402493475e+02   1.103410697794e+02 
3
 Atoms. Timestep: 48000
1 1  1.578358479591e+02  -2.908264193791e+02   2.144722966667e+02 
2 1  6.724873129114e+01  -5.787231455702e+02  -2.809631847808e+02 
3 1  3.842766539397e+01   1.987442718308e+02  -1.716082720334e+02 
3
 Atoms. Timestep: 49000
1 1 -2.019358639705e+02  -8.914959758881e+01  -3.669431087699e+02 
2 1 -1.283101315429e+02  -4.064780511273e+02   4.308739200986e+02 
3 1 -1.128227467097e+02   3.173020563229e+01  -1.010681216014e+02 
3
 Atoms. Timestep: 50000
1 1 -1.662142571366e+02   2.464402670539e+02   2.821419489670e+02 
2 1 -8.838447336004e+01   2.043365024280e+02   3.125695091083e+02 
3 1 -8.585734687156e+01   5.254246416221e+01  -2.874114243517e+01 
3
 Atoms. Timestep: 51000
1 1  1.887500466104e+02   3.264599778358e+01   9.436103625482e+01 
2 1 -3.369822052518e+02   7.943113715773e+01   1.779605874424e+02 
3 1  2.422056762575e+02   1.728970336237e+02   2.416605477949e+02 
3
 Atoms. Timestep: 52000
1 1  1.130928145082e+02   2.161143188916e+02   5.660996857771e+02 
2 1  2.146827254509e+02  -6.100435438065e+01  -7.708083060100e+01 
3 1 -2.692479787645e+02   6.619891099364e+02  -3.096577483874e+02 
3
 Atoms. Timestep: 53000
1 1  2.671754140439e+02  -8.753676327674e+01  -2.997768240772e+02 
2 1 -3.928974863025e+01   2.365932244951e+02   3.419738020828e+02 
3 1  7.796290922352e+01  -1.376946887226e+02  -4.241873003521e+02 
3
 Atoms. Timestep: 54000
1 1  2.752001672135e+02  -8.968327689160e+01  -4.887428874725e+01 
2 1 -1.289006490138e+01  -1.395660839623e+02   2.308626160921e+02 
3 1  3.410453772964e+02  -3.011323369018e+02  -1.032439581538e+02 
3
 Atoms. Timestep: 55000
1 1  9.269681594852e+01   1.847945828184e+01   1.782676166138e+01 
2 1  2.751816572317e+02   3.659048950975e+02   9.248559992362e+01 
3 1 -2.745723070926e+01  -8.857781941439e+01   1.671979584676e+02 
3
 Atoms. Timestep: 56000
1 1  2.948422332395e+02   3.936745119913e+02   2.982212257967e+02 
2 1 -2.124597893142e+02   8.253862769598e+01   9.261869243869e+01 
3 1  1.640111660409e+02  -2.984466687195e+02  -4.652210784368e+01 
3
 Atoms. Timestep: 57000
1 1 -1.738633449907e+02   4.592171970215e+01   9.849989037176e+01 
2 1  7.465154734975e+01   2.544849676670e+01   1.989740038964e+02 
3 1 -4.593844224738e+02   2.736707891441e+02   3.825034856726e+02 
3
 Atoms. Timestep: 58000
1 1  1.241823060033e+02   1.363840091554e+01   1.255493177095e+02 
2 1 -1.956241568977e+02  -3.622378657543e+02   7.847701085649e+01 
3 1 -5.377328845738e+02  -3.029271365770e+02  -1.274395208396e+02 
3
 Atoms. Timestep: 59000
1 1 -2.875917064087e+00  -9.623385509670e+01  -3.847863721686e+02 
2 1 -1.178141702083e+02  -7.613196804951e+01   1.524769906109e+02 
3 1  2.540022138644e+02   2.596392435859e+02   3.773358228883e+01 
3
 Atoms. Timestep: 60000
1 1  9.423388410301e+01   2.550469897380e+02  -8.579525253882e+01 
2 1  1.160861042931e+02   4.090671325770e+02  -1.800650205536e+02 
3 1  4.533576564454e+02   3.175115460754e+02  -2.334541177448e+02 
3
 Atoms. Timestep: 61000
1 1 -1.668701360440e+02   9.277466535677e+01  -4.208015693621e+02 
2 1  3.527075776202e+02  -1.307555814028e+02   7.902046143096e+01 
3 1  1.307546807168e+02   6.678685496435e+02   1.105597805551e+02 
3
 Atoms. Timestep: 62000
1 1 -1.685968045121e+02  -3.080416782038e+02   1.507100668913e+02 
2 1  9.250693091633e+01   1.007906747127e+01   2.058763463453e+02 
3 1  1.952451197896e+02  -9.082044259909e+01   3.483511554553e+02 
3
 Atoms. Timestep: 63000
1 1 -3.598527470530e+02  -5.318057032723e+02  -2.947582318453e+02 
2 1  4.735043727394e+02   4.431863259032e+02  -4.003277694056e+02 
3 1 -2.008745660691e+02   2.678240287817e+02  -1.834380595640e+01 
3
 Atoms. Timestep: 64000
1 1  2.651818486279e+02  -1.260088617738e+02  -2.878078952760e+01 
2 1 -2.153206928197e+02   1.808346885762e+02   1.148622207962e+02 
3 1 -1.111473637423e+02   8.118674634932e+01  -2.666004516467e+02 
3
 Atoms. Timestep: 65000
1 1  2.737308755392e+02  -3.536446976323e+02   4.001435861463e+02 
2 1  2.369670061817e+02   3.872312072921e+02  -4.017499695028e+02 
3 1 -1.443232263401e+02  -9.623816573123e+01   5.816520165100e+01 
3
 Atoms. Timestep: 66000
1 1 -8.944708763013e+01  -5.187786155016e+01   9.734774713232e+01 
2 1 -9.258616270242e+01   8.253751359520e+01   1.703115760767e+02 
3 1 -6.310482017498e+01  -5.552491170033e+01  -2.009897262009e+02 
3
 Atoms. Timestep: 67000
1 1 -5.967744769885e+02   2.175693903968e+02  -9.249355587569e+01 
2 1  2.427819404117e+02  -8.490363725360e+00   5.862987201811e+00 
3 1 -5.435890440687e+02  -3.902589854182e+02   8.914738728831e+02 
3
 Atoms. Timestep: 68000
1 1  1.980220551754e+02   1.812129446752e+02  -2.611397436512e+01 
2 1  4.451491645447e+01  -9.780983921367e+01  -1.889733765024e+02 
3 1  7.894268094044e+01  -3.601664931914e+01   3.067927318137e+01 
3
 Atoms. Timestep: 69000
1 1  2.255874030524e+02   3.900324354045e+02  -6.726486725367e+01 
2 1 -7.189003139252e+01  -1.430958018786e+02   1.693659041512e+02 
3 1  7.397122014780e+01  -1.060641842390e+02  -1.032255316009e+02 
3
 Atoms. Timestep: 70000
1 1  8.678320458625e+01  -6.153831531416e+01  -1.647718134916e+02 
2 1 -2.824258510966e+02  -1.116797211604e+02   1.150473778139e+02 
3 1 -2.470558979321e+02  -1.242091756632e+02  -4.716661562693e+02 
3
 Atoms. Timestep: 71000
1 1  4.233664375572e+02   2.145297488817e+01  -1.899000069690e+01 
2 1 -4.125493839696e+02   3.482086293186e+01   4.254714389116e+02 
3 1 -1.073263161353e+01   2.849796130443e+02   6.654666318727e+02 
3
 Atoms. Timestep: 72000
1 1 -1.882410252515e+02   5.747986514832e+01  -7.221118449216e+02 
2 1 -3.884773454011e+02   1.040925849606e+02   2.939998414227e+02 
3 1 -6.415946879734e+00   1.999578973750e+02   2.901137602043e+02 
3
 Atoms. Timestep: 73000
1 1  1.505407843583e+02  -2.857203908031e+01  -2.373993135551e+02 
2 1  4.260772961675e+01   2.763027984943e+00   1.569450036491e+02 
3 1 -1.300298508927e+02  -2.278366118790e+02  -2.584393987301e+02 
3
 Atoms. Timestep: 74000
1 1 -4.093882358633e+02  -1.516292762425e+02   4.364801434956e+02 
2 1  3.592998283775e+02   2.099463010163e+02  -1.848498675322e+02 
3 1  2.071829467197e+02   2.637179861097e+02   3.015539760919e+02 
3
 Atoms. Timestep: 75000
1 1 -1.686561434557e+02  -1.100128984104e+02  -1.600326661529e+02 
2 1 -4.419596733292e+02  -9.511515558104e+01   4.233437891909e+02 
3 1 -3.612685705838e+01   1.010932998608e+02   2.804810232344e+02 
3
 Atoms. Timestep: 76000
1 1  2.250405540107e+02   7.156936509240e+00   5.067777324763e+02 
2 1  2.563005158512e+02  -5.010285912008e+02   1.329072134627e+02 
3 1  1.444439914173e+02  -3.824070079825e+02   9.175445529941e+01 
3
 Atoms. Timestep: 77000
1 1  5.059951757967e+02  -1.671125077467e+02  -2.792562581913e+02 
2 1 -1.840253622901e+02   2.343666984010e+02  -2.217967548881e+02 
3 1 -2.323167773692e+02   4.609455806700e+02   3.778713531661e+02 
3
 Atoms. Timestep: 78000
1 1 -1.401093390216e+02   4.820601808886e+01   2.811530528598e+01 
2 1 -4.971585430001e+01   2.909099412078e+02  -5.582955402286e+01 
3 1 -3.009128562914e+02  -2.606244127442e+02   3.083230028955e+02 
3
 Atoms. Timestep: 79000
1 1 -8.587025164087e+01  -4.619984054351e+02   2.772832770119e+02 
2 1  6.283542367043e+01   1.200920184105e+02  -2.966179940060e+02 
3 1 -4.507278176758e+02   5.832074283498e+01  -3.742069939654e+02 
3
 Atoms. Timestep: 80000
1 1  7.476471454574e+02  -1.275740376575e+02  -2.274543549147e+02 
2 1  2.859063074075e+01  -1.202354467268e+02   1.629235724961e+02 
3 1  2.477042690737e+02  -6.328090396849e+00  -2.078046957366e+02 
3
 Atoms. Timestep: 81000
1 1  6.711563966852e+01   5.746541002256e+01  -2.541913360553e+01 
2 1  1.979904396165e+02   5.792379160263e+00   2.455908635879e+02 
3 1 -2.039741778242e+02   4.719938886518e+02   6.255054831086e+02 
3
 Atoms. Timestep: 82000
1 1  4.057474277387e+02   1.455200766264e+02  -5.121970929140e+01 
2 1 -3.560331522103e+02  -3.469595105777e+02  -1.088573426867e+02 
3 1  4.651711065438e+02  -3.342846691547e+02  -1.034981446372e+02 
3
 Atoms. Timestep: 83000
1 1 -1.178094825480e+02   2.032717498015e+02  -1.088884974773e+01 
2 1  1.147181813037e+02  -1.926271484090e+02   6.912697160150e+01 
3 1 -6.739313518878e+02   2.598375086542e+02   6.412939246744e+01 
3
 Atoms. Timestep: 84000
1 1  5.182845687073e+02  -3.083589489172e+02  -2.573554063423e+01 
2 1  1.494095311529e+02   5.868480495930e+01   1.066113237542e+02 
3 1 -2.760194094638e+02  -6.360902456947e+02  -3.089618102798e+02 
3
 Atoms. Timestep: 85000
1 1 -1.083739304049e+02  -8.338521951068e+01  -1.181466748853e+02 
2 1 -1.713412217820e+02  -7.136284861886e+01  -4.604266199997e+00 
3 1 -1.287592062857e+02  -1.957361941484e+02  -7.797056801116e+01 
3
 Atoms. Timestep: 86000
1 1  4.828701760755e+01   1.956471352654e+01   1.307091018138e+01 
2 1  5.628832643303e+02   1.605749724452e+02   3.194610323012e+02 
3 1  1.919868769433e+02   4.692324130295e+02  -1.569135500224e+02 
3
 Atoms. Timestep: 87000
1 1  3.872880308607e+02  -3.372002850637e+02   1.030109199352e+02 
2 1  5.963377924032e+01   2.625490858531e+01  -2.381693080863e+02 
3 1 -3.843068000302e+01  -8.929824867120e+01  -9.717594566548e+01 
3
 Atoms. Timestep: 88000
1 1  6.823789128548e+01  -2.727837867918e+02   2.717015194866e+02 
2 1 -3.474022428392e+02  -5.852416121787e+02  -1.451430203662e+02 
3 1 -3.854128410086e+01  -2.994824581353e+02  -2.976991727488e+02 
3
 Atoms. Timestep: 89000
1 1 -2.683673912010e+02  -4.376373804092e+02  -1.650642031899e+02 
2 1 -2.649947599871e+02  -2.665419193541e+02  -3.706446367578e+02 
3 1 -3.647807062136e+01  -2.900119019763e+01  -4.112506618303e+02 
3
 Atoms. Timestep: 90000
1 1 -3.304685925925e+02   2.025564485806e+02  -4.085908473408e+02 
2 1 -6.365790522183e+01   4.410956849745e+01  -9.334876529210e+00 
3 1 -7.422556948092e+01   8.085869480436e+01  -1.570623324694e+02 
3
 Atoms. Timestep: 91000
1 1 -7.800564500849e+02   1.169133505368e+02   4.845125518714e+02 
2 1 -1.579213563191e+02   1.889451017268e+01  -4.287924217055e+02 
3 1 -3.717956524372e+02   4.360045774645e+02   4.607274276422e+02 
3
 Atoms. Timestep: 92000
1 1  1.917510153940e+02  -3.929458257899e+01  -2.937666104584e+02 
2 1 -9.668423514854e+01   1.783277757776e+02   1.832752575533e+02 
3 1 -4.888178421371e+02   1.717790625338e+02   5.575226552073e+01 
3
 Atoms. Timestep: 93000
1 1 -3.141425891138e+02   5.213137352230e+01  -5.295060913429e+02 
2 1  5.855635971311e+01  -1.571445911367e+02  -1.800777230023e+01 
3 1 -7.959712758861e+01  -3.344886186340e+02  -3.078492577936e+02 
3
 Atoms. Timestep: 94000
1 1 -1.776328957812e+02   5.900060396947e+01   2.538880032844e+02 
2 1  2.250533951372e+02  -1.076712765821e+02   2.684894254142e+02 
3 1 -5.408249032528e+02   8.452001020907e+01   1.794563876572e+01 
3
 Atoms. Timestep: 95000
1 1 -1.215242864471e+02  -1.514583197937e+02  -2.233302317234e+02 
2 1  3.618606717097e+02   1.756887534354e+02  -3.440006781276e+02 
3 1 -2.305358701331e+02  -2.120619354068e+02  -1.966755994602e+01 
3
 Atoms. Timestep: 96000
1 1  3.531979311629e+02   2.198163008066e+01   2.582655044127e+02 
2 1  1.325061532334e+02   7.271917506221e+01   6.268353633479e+01 
3 1  1.328557056739e+00  -7.175063948744e+01   7.414432900719e+01 
3
 Atoms. Timestep: 97000
1 1 -3.658758193153e+01  -2.996509999371e+01  -5.788877758679e+01 
2 1  8.914145987069e+01  -3.566613385146e+02  -8.898785516011e+01 
3 1  5.113223348955e+00  -3.176691773045e+02  -1.338221176755e+02 
3
 Atoms. Timestep: 98000
1 1 -1.619794665579e+02  -9.028811891052e+01  -1.332906765022e+01 
2 1  3.037154546686e+01   2.393062923199e+02   3.956755012834e+02 
3 1 -3.140626011738e+01   4.551253414187e+02  -2.443873751997e+02 
3
 Atoms. Timestep: 99000
1 1 -2.911837840266e+02   2.976131514450e+02   2.976214970687e+02 
2 1 -2.453215326267e+02   4.534441426839e+01  -2.125317316294e+02 
3 1 -4.370823895053e+01  -1.294154120899e+02   1.449711071756e+02 
3
 Atoms. Timestep: 100000
1 1 -1.966159761428e+02  -1.393316006867e+02  -1.329353700419e+02 
2 1 -8.617354204389e+00  -3.103600853499e+01   3.200735715659e+02 
3 1 -1.046025222117e+02  -3.781001693705e+01   2.017899895934e+02 
