8
Step 0
1 1  0.000000000000e+00   0.000000000000e+00   0.000000000000e+00 
2 1  0.000000000000e+00   0.000000000000e+00   0.000000000000e+00 
3 1  0.000000000000e+00   0.000000000000e+00   0.000000000000e+00 
4 1  0.000000000000e+00   0.000000000000e+00   0.000000000000e+00 
5 1  0.000000000000e+00   0.000000000000e+00   0.000000000000e+00 
6 1  0.000000000000e+00   0.000000000000e+00   0.000000000000e+00 
7 1  0.000000000000e+00   0.000000000000e+00   0.000000000000e+00 
8 1  0.000000000000e+00   0.000000000000e+00   0.000000000000e+00 
8
Step 1000
1 1  1.522643264943e-04  -4.473877785943e-05  -1.258276781000e-04 
2 1  1.032062717413e-04  -1.744673592817e-04  -2.602747252154e-06 
3 1 -1.143370270775e-04  -1.192191827404e-04  -1.445699819502e-05 
4 1  1.241676642937e-04  -1.225179129647e-04  -2.177270891689e-05 
5 1  1.322503179329e-04  -1.515357158449e-04  -1.272652190269e-04 
6 1  7.319767585202e-05   1.976568024249e-04   1.491672932062e-04 
7 1 -1.636134781118e-05   6.425418770546e-05  -1.515824119812e-04 
8 1 -1.957899243991e-05   1.066321362946e-04   2.509373773299e-05 
8
Step 2000
1 1  1.492720410222e-04  -5.047999184639e-05  -5.935696773444e-05 
2 1  4.081737434759e-05  -9.610898037950e-05   4.716824487032e-05 
3 1 -6.209189200016e-05  -7.099453691664e-05   1.221543650723e-05 
4 1  1.357277512875e-05  -1.390390528667e-04  -5.121902674516e-05 
5 1  2.631547782578e-05  -1.583984942266e-04  -8.399340511476e-05 
6 1  9.547402030643e-05   1.357200966270e-04   7.782305838251e-05 
7 1  3.502087239308e-05   7.749202422236e-05  -1.022976286476e-04 
8 1  3.395061895801e-05   1.527223221147e-04   2.565058916039e-05 
8
Step 3000
1 1  7.906247294740e-05  -4.752389124636e-05   3.159119117832e-05 
2 1 -4.835865633147e-05   2.558690957022e-05   7.235873898991e-05 
3 1  7.028768715160e-06   5.155323175996e-06   3.615399163410e-05 
4 1 -7.686702828781e-05  -9.073087834502e-05  -5.342475659628e-05 
5 1 -7.500578641105e-05  -1.020945311717e-04  -6.040042571894e-06 
6 1  6.580506855307e-05   1.833744136318e-05  -1.785868727008e-05 
7 1  4.515144333335e-05   5.318567107037e-05   8.600241808194e-07 
8 1  7.658277480065e-05   1.273201416876e-04   2.490332431777e-05 
8
Step 4000
1 1 -1.665553619159e-05  -2.966560482034e-05   9.605573803761e-05 
2 1 -1.085298106654e-04   1.026709717058e-04   6.834228994456e-05 
3 1  5.423510294704e-05   7.217752333204e-05   5.380979019466e-05 
4 1 -1.115762422924e-04  -7.469986863628e-06  -4.594080543091e-05 
5 1 -1.135320406265e-04  -2.468325718271e-05   5.569646601510e-05 
6 1 -1.167700608408e-05  -5.968707576533e-05  -7.942697721334e-05 
7 1  2.575507345860e-05  -9.897078576473e-06   9.265839286999e-05 
8 1  8.484932081757e-05   5.281565351780e-05   4.813552972339e-06 
8
Step 5000
1 1 -7.897064161850e-05   1.529542497785e-05   1.070118792323e-04 
2 1 -1.115741240537e-04   1.066776104706e-04   4.377142939374e-05 
3 1  7.077383244325e-05   1.032758041646e-04   6.255925192604e-05 
4 1 -9.505833653671e-05   5.718883466481e-05  -3.787389836499e-05 
5 1 -9.216044347715e-05   2.703580464817e-05   7.799032630179e-05 
6 1 -1.008481136032e-04  -8.242172280537e-05  -7.922171030508e-05 
7 1  3.130391520036e-06  -7.840902387997e-05   1.214298493926e-04 
8 1  5.603571895242e-05  -3.376798687756e-05  -4.340315774208e-05 
8
Step 6000
1 1 -9.087719646236e-05   8.311967454427e-05   7.606576185534e-05 
2 1 -7.096996234406e-05   6.412164038948e-05   1.435025766486e-05 
3 1  6.251072635366e-05   9.780360451285e-05   4.856939093708e-05 
4 1 -4.196648085816e-05   7.716454152560e-05  -2.827607273112e-05 
5 1 -4.305157593070e-05   4.313681968292e-05   7.212626959315e-05 
6 1 -1.521844297883e-04  -7.179888412832e-05  -3.238542880618e-05 
7 1 -9.097282560908e-06  -1.079043534216e-04   9.150177386550e-05 
8 1 -2.106488517513e-06  -9.731720859427e-05  -1.029012894726e-04 
8
Step 7000
1 1 -6.202489491294e-05   1.328342553810e-04   3.319638420873e-05 
2 1 -2.262585050609e-05   9.535858699576e-06  -3.707114195725e-06 
3 1  3.643950817260e-05   7.026835121474e-05  -1.118248269205e-05 
4 1  2.536710870577e-05   6.559609306389e-05  -1.131180343071e-05 
5 1  1.548757928818e-06   3.747830461587e-05   4.907847504123e-05 
6 1 -1.396427378174e-04  -3.967275012511e-05   1.967004052479e-05 
7 1 -8.907496494821e-06  -9.113160609654e-05   3.923593079353e-05 
8 1 -6.895098840082e-05  -1.101722827863e-04  -1.481814528504e-04 
8
Step 8000
1 1 -2.251138626779e-06   1.403789206512e-04  -2.553073319254e-06 
2 1  1.008475968565e-05  -3.281305969291e-05  -5.621467134730e-06 
3 1  2.132042898642e-06   3.252234799468e-05  -1.116930130306e-04 
4 1  8.505129420123e-05   3.960961330048e-05   1.414109051917e-05 
5 1  2.713708798390e-05   2.006940339279e-05   1.367836222199e-05 
6 1 -6.382251394554e-05   2.592710183208e-06   3.650231368174e-05 
7 1  4.295493428145e-06  -5.411242911054e-05  -4.546419476625e-06 
8 1 -1.124951506084e-04  -5.407244490865e-05  -1.620751349111e-04 
8
Step 9000
1 1  6.081537625042e-05   1.238000832632e-04  -2.753150037165e-05 
2 1  2.560306517299e-05  -5.174624070790e-05  -2.755911301246e-07 
3 1 -2.905428112310e-05  -4.129852592979e-06  -1.776082228428e-04 
4 1  1.155324209388e-04   6.642410755926e-06   4.083171208502e-05 
5 1  3.340997634162e-05  -3.038029000698e-06  -2.594520014847e-05 
6 1  3.190053689031e-05   4.228605857918e-05   2.040005798148e-05 
7 1  2.957107107599e-05  -2.036704710556e-05  -3.038193152658e-05 
8 1 -1.098367906816e-04   6.220168807372e-05  -1.142561489859e-04 
8
Step 10000
1 1  8.960765477969e-05   1.013657092843e-04  -3.976971220019e-05 
2 1  2.626742069082e-05  -4.510448599189e-05   3.218811722849e-06 
3 1 -4.774553664097e-05  -3.275674912752e-05  -1.672913032051e-04 
4 1  9.657967497532e-05  -2.840959094372e-05   5.978893111709e-05 
5 1  2.397631718843e-05  -2.564446705930e-05  -5.478180286371e-05 
6 1  8.873429376686e-05   6.722305202490e-05  -1.114340553012e-05 
7 1  5.276800230084e-05  -2.630750321185e-06  -3.693770221918e-05 
8 1 -5.477963505643e-05   1.557826673008e-04   2.135190051936e-05 
8
Step 11000
1 1  6.546039439986e-05   6.818570504296e-05  -3.672665808886e-05 
2 1  1.557151090351e-05  -1.809857305315e-05   2.021277686881e-06 
3 1 -4.930762410773e-05  -4.545849085636e-05  -9.464225841084e-05 
4 1  3.212698319796e-05  -5.907823306363e-05   6.421056294947e-05 
5 1  4.345217105570e-06  -4.111528439177e-05  -6.349008916906e-05 
6 1  9.316641314170e-05   7.057601177324e-05  -3.916112685786e-05 
7 1  5.457765596195e-05   3.477901962290e-06  -2.542964260100e-05 
8 1  3.672555620515e-05   1.510185176763e-04   1.050396490599e-04 
8
Step 12000
1 1 -2.769031443136e-06   2.513772944382e-05  -1.870301441603e-05 
2 1 -6.105951305463e-08   1.711568444422e-05  -1.967979597258e-06 
3 1 -3.394721662899e-05  -3.718835816075e-05  -4.736958125419e-06 
4 1 -3.951200665576e-05  -7.401156972905e-05   4.864813276149e-05 
5 1 -1.756206691505e-05  -4.251043936489e-05  -4.742307755087e-05 
6 1  5.874120530453e-05   4.836460517252e-05  -4.782511337540e-05 
7 1  2.961387274589e-05   8.812141192123e-06  -1.721036286127e-06 
8 1  1.134493271079e-04   6.484205992957e-05   1.093624170679e-04 
8
Step 13000
1 1 -7.862211306183e-05  -1.782970996730e-05   9.166420067292e-06 
2 1 -1.328592603243e-05   4.524083047392e-05  -5.951901290289e-06 
3 1 -6.055251804560e-06  -1.471586646306e-05   4.964819453634e-05 
4 1 -8.331504292632e-05  -5.329118346904e-05   1.230474007054e-05 
5 1 -3.351779570285e-05  -2.381428171736e-05  -8.371626138483e-06 
6 1  6.983820688990e-06   3.082057433688e-07  -3.055013410723e-05 
7 1 -1.338205501926e-05   1.525564843095e-05   2.357616251691e-05 
8 1  1.292640595801e-04  -3.947180146205e-05   7.444165624791e-05 
8
Step 14000
1 1 -1.199188796297e-04  -4.910595794524e-05   3.852126302217e-05 
2 1 -1.881949011016e-05   5.488147562783e-05  -8.266328903652e-06 
3 1  2.598789038467e-05   1.052376657842e-05   5.618649936679e-05 
4 1 -9.163106978322e-05   5.667670347545e-06  -3.326829244589e-05 
5 1 -3.747199575900e-05   1.525042031479e-05   4.064197846628e-05 
6 1 -3.710908242226e-05  -5.357107967184e-05   7.527120029536e-06 
7 1 -5.783592502977e-05   1.993412655519e-05   3.837455640966e-05 
8 1  8.096368225213e-05  -1.033397067723e-04   1.951083607142e-05 
8
Step 15000
1 1 -1.046570190767e-04  -5.899154191361e-05   5.889020848172e-05 
2 1 -1.563820743812e-05   4.267957149719e-05  -8.246670374802e-06 
3 1  5.146672996085e-05   2.862243197673e-05   3.019435248907e-05 
4 1 -6.810012511687e-05   7.256313318745e-05  -6.937860890143e-05 
5 1 -2.647204082346e-05   6.402436593946e-05   7.800461194283e-05 
6 1 -5.703174021598e-05  -8.501295201176e-05   5.027901950684e-05 
7 1 -8.538527890520e-05   2.019312584698e-05   3.332741749816e-05 
8 1 -2.631887151293e-06  -1.116538792094e-04  -3.207493804806e-05 
8
Step 16000
1 1 -3.661032939553e-05  -4.408016800905e-05   5.762964680883e-05 
2 1 -7.409090191636e-06   1.182337261654e-05  -5.887769561350e-06 
3 1  6.170794871165e-05   3.600241235451e-05  -6.348717430744e-06 
4 1 -2.520897593373e-05   1.105611662577e-04  -8.548640649542e-05 
5 1 -1.500188896952e-06   1.020428492800e-04   8.617504374243e-05 
6 1 -5.030653541250e-05  -8.125845200446e-05   7.746951746972e-05 
7 1 -7.983344014984e-05   1.504002147933e-05   4.842224245123e-06 
8 1 -7.424837214075e-05  -7.097699960818e-05  -5.910328724134e-05 
8
Step 17000
1 1  4.735494923680e-05  -1.030619326629e-05   2.443692916899e-05 
2 1 -8.022396713468e-07  -2.944924930073e-05  -9.619126656447e-07 
3 1  5.327219963834e-05   3.481650266075e-05  -3.461275033562e-05 
4 1  1.581199399093e-05   9.948942163433e-05  -8.107769295089e-05 
5 1  3.076591821761e-05   1.058781160014e-04   5.719244528584e-05 
6 1 -2.444404392057e-05  -4.531758896773e-05   7.395866330142e-05 
7 1 -3.521091844176e-05   4.860146467168e-06  -4.179134110867e-05 
8 1 -9.855760700375e-05  -3.608081777083e-06  -5.383128410344e-05 
8
Step 18000
1 1  1.010023662433e-04   2.702635824113e-05  -3.819221914698e-05 
2 1 -1.447061814790e-06  -6.526904503293e-05   9.701065199377e-06 
3 1  2.719257481845e-05   2.388258241147e-05  -4.149997709920e-05 
4 1  3.811368796492e-05   4.203256201573e-05  -6.242749516668e-05 
5 1  5.808131830620e-05   5.674103964426e-05  -9.786635376702e-06 
6 1  6.518534041586e-06   1.741862822551e-05   3.486035037300e-05 
7 1  2.928859936461e-05  -1.024412698199e-05  -8.744506831658e-05 
8 1 -7.243241206285e-05   5.818985389800e-05  -2.121323143575e-05 
8
Step 19000
1 1  1.082982624416e-04   4.844789808213e-05  -1.036100814063e-04 
2 1 -8.975373319294e-06  -7.892776006880e-05   3.141922373466e-05 
3 1 -1.095807931464e-05  -8.557104702801e-06  -2.169194389610e-05 
4 1  3.857120933086e-05  -2.915649704154e-05  -3.458308388577e-05 
5 1  6.960410974473e-05  -3.676429149480e-05  -9.815130949379e-05 
6 1  2.863246994485e-05   8.949842516539e-05  -2.971226911755e-05 
7 1  7.891037477114e-05  -3.291090550781e-05  -9.969596140682e-05 
8 1 -1.434334577951e-05   8.976244587041e-05   2.394662309688e-05 
8
Step 20000
1 1  7.460836608211e-05   4.247818073819e-05  -1.377467177017e-04 
2 1 -1.698800898896e-05  -6.970933320825e-05   6.235021209432e-05 
3 1 -4.304704193049e-05  -7.354549372447e-05   2.021329409392e-05 
4 1  2.528791663562e-05  -7.106238649513e-05   5.891222522943e-06 
5 1  6.242263430829e-05  -1.138050430972e-04  -1.608116426358e-04 
6 1  4.143460177260e-05   1.333821527096e-04  -8.874659537588e-05 
7 1  9.726075095881e-05  -6.700993987337e-05  -4.980519451957e-05 
8 1  4.791541902827e-05   7.880862004542e-05   5.837651274551e-05 
8
Step 21000
1 1  1.568500898197e-05   2.023969945039e-05  -1.261582117492e-04 
2 1 -8.473586477198e-06  -4.623689500808e-05   8.661669523621e-05 
3 1 -4.728325887967e-05  -1.370445168043e-04   7.121394479238e-05 
4 1  9.229281987277e-06  -6.657926419141e-05   4.041923164921e-05 
5 1  3.750268013778e-05  -1.324388212708e-04  -1.609824335688e-04 
6 1  5.484222544079e-05   1.241350190721e-04  -1.053742980318e-04 
7 1  9.497424055033e-05  -1.057691791297e-04   5.100750155851e-05 
8 1  8.733729435531e-05   2.643821556729e-05   6.196296994409e-05 
8
Step 22000
1 1 -4.420072304742e-05  -2.203620114993e-06  -5.916969035911e-05 
2 1  3.132286818666e-05  -1.731936644439e-05   7.769110901443e-05 
3 1 -3.467942925265e-05  -1.554652222123e-04   1.094638194762e-04 
4 1 -9.848485945141e-07  -3.368016914667e-05   6.318010938737e-05 
5 1  7.323395028889e-07  -1.020545545857e-04  -8.550896501130e-05 
6 1  7.368488673784e-05   6.119893367986e-05  -7.832131356120e-05 
7 1  8.117654348564e-05  -1.256046413812e-04   1.376092549779e-04 
8 1  8.829501137116e-05  -4.391066305097e-05   2.099000348897e-05 
8
Step 23000
1 1 -7.749007482080e-05  -2.392197763002e-05   4.359261464006e-05 
2 1  8.625902019987e-05   9.177869945267e-06   1.254657085771e-05 
3 1 -3.051789159906e-05  -1.182383067184e-04   9.194204782312e-05 
4 1 -9.405019319536e-07  -5.889598850870e-06   7.695212130648e-05 
5 1 -3.519413521044e-05  -4.513597786328e-05   6.885850015041e-05 
6 1  8.723846665942e-05  -3.223087751987e-05  -3.344075393312e-05 
7 1  5.339543129003e-05  -1.022116469611e-04   1.545727045177e-04 
8 1  4.734377281859e-05  -9.312396231040e-05  -6.652323117809e-05 
8
Step 24000
1 1 -6.836779009550e-05  -4.438481824158e-05   1.009836776893e-04 
2 1  1.232080204416e-04   3.078589922684e-05  -8.273015730593e-05 
3 1 -3.881686082263e-05  -3.985975067508e-05  -1.945416775889e-05 
4 1  6.639270579789e-06   5.622416699408e-06   7.530851143228e-05 
5 1 -6.122080853717e-05   9.274061866155e-06   1.634220569520e-04 
6 1  6.782528565034e-05  -1.013767532368e-04   3.616020511550e-05 
7 1  1.433178330826e-05  -3.474579399164e-05   8.961136550748e-05 
8 1 -2.583773214435e-05  -9.541637789544e-05  -1.555274031542e-04 
8
Step 25000
1 1 -1.926813224774e-05  -5.264477271838e-05   1.018419597075e-04 
2 1  1.086002871651e-04   4.762828998250e-05  -1.410668427606e-04 
3 1 -4.698286499754e-05   3.265649042441e-05  -1.307231351335e-04 
4 1  1.362333056198e-05   6.787579897209e-06   4.979414916519e-05 
5 1 -7.443346828276e-05   3.972782925529e-05   1.476630545201e-04 
6 1  7.509710006478e-06  -1.055827166956e-04   1.227856160061e-04 
7 1 -2.893393125735e-05   4.031660686002e-05  -2.170705704524e-05 
8 1 -9.747980623903e-05  -4.664742676548e-05  -1.836509626891e-04 
8
Step 26000
1 1  4.889776301042e-05  -3.053771288298e-05   8.005253877518e-05 
2 1  3.129598168782e-05   5.855389395061e-05  -1.358621264493e-04 
3 1 -3.759850467319e-05   6.241317881135e-05  -1.712635210570e-04 
4 1  1.361184392996e-05   5.686813564444e-06   8.371211639230e-06 
5 1 -7.102220836281e-05   4.617210902638e-05   7.936356322285e-05 
6 1 -5.653211497864e-05  -5.185556818775e-05   1.526897874771e-04 
7 1 -6.391635320172e-05   8.657761297646e-05  -1.073509100971e-04 
8 1 -1.274197025752e-04   2.567043385444e-05  -1.253707500393e-04 
8
Step 27000
1 1  1.019473199128e-04   1.535257568696e-05   4.841561877076e-05 
2 1 -5.671671877517e-05   5.964482989413e-05  -7.780220609010e-05 
3 1 -8.999434818985e-07   5.307596963597e-05  -1.453016496956e-04 
4 1  5.226304426657e-06   8.320922937315e-06  -3.095178582196e-05 
5 1 -4.580840616639e-05   3.622578692692e-05   6.374315592220e-06 
6 1 -8.387745097798e-05   1.129998075092e-05   1.260511025104e-04 
7 1 -7.820017775052e-05   1.008046234688e-04  -1.295222211043e-04 
8 1 -1.026367317755e-04   7.318090139461e-05  -1.121804436742e-05 
8
Step 28000
1 1  1.101569407412e-04   4.632653083008e-05   1.423762946260e-05 
2 1 -1.026396540073e-04   4.503529312730e-05  -4.297902291715e-06 
3 1  5.115995529902e-05   2.542567456889e-05  -7.541061498179e-05 
4 1 -9.032685725387e-06   1.401497827778e-05  -5.665822266407e-05 
5 1  2.068972218863e-07   1.564453422354e-05  -3.925007892589e-05 
6 1 -7.976953648674e-05   4.200253175188e-05   6.915314641745e-05 
7 1 -6.630142769027e-05   8.693908489842e-05  -9.152489315820e-05 
8 1 -3.406934494918e-05   8.469424431309e-05   7.881823634015e-05 
8
Step 29000
1 1  6.287407855016e-05   4.120928492936e-05  -1.478247241402e-05 
2 1 -1.049938499514e-04   8.197226566156e-06   4.266724775918e-05 
3 1  9.120051465244e-05   1.472234994267e-07  -4.515606168826e-06 
4 1 -2.420426583064e-05   1.626140291534e-05  -6.484734889792e-05 
5 1  5.030582434855e-05  -1.049067505839e-05  -4.706385548526e-05 
6 1 -5.769964292579e-05   3.524148482152e-05   6.787727195862e-06 
7 1 -2.727704960345e-05   4.881553849759e-05  -2.004088934969e-05 
8 1  4.436169983181e-05   6.547500034791e-05   1.082937852945e-04 
8
Step 30000
1 1 -1.866863518524e-05  -6.504523844392e-07  -3.573857990855e-05 
2 1 -7.432349989171e-05  -4.964968787828e-05   5.480426237743e-05 
3 1  1.008349534706e-04  -1.007163654633e-05   4.014001034246e-05 
4 1 -3.316799569461e-05   9.763113153877e-06  -5.464598705614e-05 
5 1  8.339286227891e-05  -3.401843031972e-05  -2.566460830317e-05 
6 1 -2.437516615687e-05   5.850499037032e-06  -3.371718916245e-05 
7 1  2.724550069267e-05  -5.833294430560e-07   4.590243330617e-05 
8 1  8.361310551499e-05   2.573665122598e-05   8.085496924402e-05 
8
Step 31000
1 1 -8.760977779898e-05  -6.280538144158e-05  -4.615417332186e-05 
2 1 -2.487924960376e-05  -1.047783438256e-04   4.398507924031e-05 
3 1  7.553370126163e-05  -3.294204459621e-06   5.847183668411e-05 
4 1 -2.771693231824e-05  -7.959525430072e-06  -2.740489954362e-05 
5 1  9.143767194738e-05  -4.049431394442e-05   4.372035820994e-06 
6 1  1.044822757373e-05  -2.385034085825e-05  -4.253565359950e-05 
7 1  7.119134713399e-05  -4.165213791202e-05   7.937678022839e-05 
8 1  6.708872994857e-05  -2.371016641296e-05   1.841775492652e-05 
8
Step 32000
1 1 -1.147547752289e-04  -1.108161230137e-04  -4.094777207451e-05 
2 1  2.565862850198e-05  -1.275061006619e-04   2.246760613439e-05 
3 1  1.998784385374e-05   9.123632148186e-06   5.534539851721e-05 
4 1 -2.464663618082e-06  -3.594615522925e-05   9.554249676671e-06 
5 1  7.950584548595e-05  -2.119106188785e-05   2.302998462667e-05 
6 1  3.600387434489e-05  -3.615474579291e-05  -3.059627797617e-05 
7 1  8.728573511346e-05  -6.128446275771e-05   7.281374463346e-05 
8 1  2.098549639761e-05  -7.034040186102e-05  -3.977039631330e-05 
8
Step 33000
1 1 -9.608091065435e-05  -1.118692284137e-04  -2.014180051959e-05 
2 1  6.259896625244e-05  -1.040735549733e-04  -2.302175712957e-07 
3 1 -4.573125193222e-05   8.483583893173e-06   3.396206269700e-05 
4 1  4.176662790076e-05  -6.141539117673e-05   4.217280145855e-05 
5 1  6.060377967383e-05   1.933502314202e-05   2.040446926825e-05 
6 1  4.553704193731e-05  -2.299564849974e-05  -1.373389476387e-05 
7 1  7.528838008018e-05  -5.573932221409e-05   3.283691814872e-05 
8 1 -1.495099455906e-05  -9.603055238601e-05  -6.481936388114e-05 
8
Step 34000
1 1 -4.489275878834e-05  -5.222900765888e-05   9.231474440911e-06 
2 1  7.348190955537e-05  -3.666672632413e-05  -1.925428041302e-05 
3 1 -8.653534152926e-05  -1.512629906795e-05   4.860959680992e-07 
4 1  9.744904583653e-05  -6.328714179115e-05   5.844317463866e-05 
5 1  4.055248011497e-05   6.464799530846e-05  -2.803496661256e-06 
6 1  3.807557371105e-05   1.414773355794e-05  -2.311310848503e-06 
7 1  4.691874779019e-05  -2.981952572738e-05  -2.107304912248e-05 
8 1 -1.873164527037e-05  -8.938249524247e-05  -5.369029966672e-05 
8
Step 35000
1 1  9.807706707276e-06   4.418920931490e-05   3.773548343978e-05 
2 1  5.077588919223e-05   4.120102073299e-05  -3.343013890386e-05 
3 1 -8.525923625566e-05  -5.848774518658e-05  -3.336258941319e-05 
4 1  1.481849152848e-04  -2.695087318159e-05   5.941080468090e-05 
5 1  1.594311513959e-05   8.685061718097e-05  -3.721488743278e-05 
6 1  1.806405213368e-05   6.262681172850e-05   1.516713103081e-08 
7 1  1.723578033751e-05   3.753194568048e-06  -6.201079593054e-05 
8 1  2.932573066621e-06  -5.091681410095e-05  -2.112192093959e-05 
8
Step 36000
1 1  4.288927571694e-05   1.198632032262e-04   5.770297499441e-05 
2 1 -1.656001851616e-07   8.140374788782e-05  -4.033625340332e-05 
3 1 -5.453706091157e-05  -1.032055920348e-04  -5.687040280125e-05 
4 1  1.590799305199e-04   4.108869406161e-05   5.549539310809e-05 
5 1 -1.212548831109e-05   6.144253954401e-05  -6.492243550232e-05 
6 1 -5.862785355626e-06   9.906790037325e-05  -4.834707279259e-06 
7 1 -6.867278064295e-06   2.957369769198e-05  -6.941327897390e-05 
8 1  2.621672920173e-05   1.208603565151e-05   1.323429453066e-05 
8
Step 37000
1 1  4.690991902092e-05   1.386835165218e-04   6.274775585126e-05 
2 1 -5.121799945725e-05   7.393592113158e-05  -3.550390870138e-05 
3 1 -1.712787635788e-05  -1.179440593974e-04  -6.376887433564e-05 
4 1  8.592122324486e-05   1.021789689949e-04   5.048032466281e-05 
5 1 -3.658977450795e-05  -1.250703441538e-05  -6.044129429164e-05 
6 1 -2.348072066511e-05   9.934603337851e-05  -8.630975160027e-06 
7 1 -2.443993006632e-05   3.719429868157e-05  -3.966263810251e-05 
8 1  2.487656460190e-05   7.578520742095e-05   3.365473779478e-05 
8
Step 38000
1 1  2.692368243803e-05   9.364436969834e-05   3.840193960536e-05 
2 1 -6.884201550141e-05   3.751803440306e-05  -1.454361781169e-05 
3 1  6.961460570316e-06  -7.857884262852e-05  -4.781034148661e-05 
4 1 -2.949700316268e-05   1.215606666727e-04   3.776936832216e-05 
5 1 -4.679035620173e-05  -9.266465804026e-05  -1.016002895432e-05 
6 1 -2.664928552525e-05   5.101863486297e-05   7.657045336395e-06 
7 1 -3.305384450934e-05   2.491479534692e-05   1.184882123023e-05 
8 1 -1.691902283084e-05   1.062001135423e-04   3.569826379383e-05 
8
Step 39000
1 1 -4.005353271691e-06   2.133005262289e-06  -3.467880646038e-05 
2 1 -5.079025191847e-05  -2.158459426781e-06   2.113111856587e-05 
3 1  8.403516242246e-06   4.024478788261e-06  -3.300398540563e-06 
4 1 -9.928580142468e-05   9.444545059826e-05   9.978854700554e-06 
5 1 -3.396508375899e-05  -1.282270326794e-04   6.582714581823e-05 
6 1 -1.354894841435e-05  -2.974173415684e-05   6.711440426011e-05 
7 1 -2.859198407683e-05   3.234886503678e-07   5.353883107839e-05 
8 1 -8.851431287396e-05   9.703426459095e-05   3.172360672505e-05 
8
Step 40000
1 1 -2.745178385641e-05  -8.116097345253e-05  -1.283172627257e-04 
2 1 -1.066840926978e-05  -2.560340754383e-05   5.890362709645e-05 
3 1 -5.054707057542e-06   7.576271871216e-05   7.699279531275e-05 
4 1 -1.189061051490e-04   3.563575470897e-05  -3.136071000266e-05 
5 1  4.586047145390e-08  -1.002653353539e-04   1.318312368281e-04 
6 1  5.565290025787e-06  -9.143673169557e-05   1.446877504346e-04 
7 1 -9.187496433123e-06  -1.588325496089e-05   6.222922202638e-05 
8 1 -1.462205015542e-04   6.129833593028e-05   3.429611564777e-05 
8
Step 41000
1 1 -2.746312491191e-05  -1.105783915757e-04  -1.764218451277e-04 
2 1  3.348763925287e-05  -2.603834295194e-05   8.102731055237e-05 
3 1 -1.403962356583e-05   9.421270630619e-05   1.738723589842e-04 
4 1 -1.020831458102e-04  -2.261882137297e-05  -7.089458208401e-05 
5 1  4.285520772822e-05  -2.628047712223e-05   1.480731156825e-04 
6 1  1.186760174227e-05  -9.825020371511e-05   1.842136022317e-04 
7 1  2.143428969058e-05  -2.623794295685e-06   3.796114709468e-05 
8 1 -1.492589955214e-04   8.995762907355e-06   4.250257405777e-05 
8
Step 42000
1 1  2.538089915573e-07  -8.627891187110e-05  -1.546455741747e-04 
2 1  6.506184397532e-05  -7.539183275912e-06   7.253631795444e-05 
3 1 -5.927089809949e-06   6.444500294164e-05   2.212846153374e-04 
4 1 -5.936495402507e-05  -5.720682497650e-05  -8.533790641835e-05 
5 1  7.565095794514e-05   5.087096239658e-05   8.579243758667e-05 
6 1 -6.624409741900e-06  -5.776126799154e-05   1.648870533417e-04 
7 1  5.375686011161e-05   3.893490573748e-05  -3.172976221812e-06 
8 1 -8.264255153832e-05  -4.549253510097e-05   4.852108345016e-05 
8
Step 43000
1 1  3.695939456632e-05  -2.952427903334e-05  -7.601213397851e-05 
2 1  8.356456605625e-05   1.941435927464e-05   2.523669991557e-05 
3 1  1.776067611672e-05   1.737436053104e-05   1.768859947971e-04 
4 1 -1.074826789985e-05  -6.572980166947e-05  -5.932504859657e-05 
5 1  7.545696680235e-05   9.360272910768e-05  -2.152454442019e-05 
6 1 -4.661696881564e-05  -2.729529103595e-06   9.614398241136e-05 
7 1  7.456719940201e-05   7.250676612438e-05  -3.655978982030e-05 
8 1  2.196927682415e-05  -8.003028007695e-05   4.367201280405e-05 
8
Step 44000
1 1  5.193934181550e-05   2.814113677041e-05   7.056849025948e-06 
2 1  8.627340885007e-05   4.208845611667e-05  -4.856156817244e-05 
3 1  4.583352970331e-05  -1.958256518143e-05   3.607698624662e-05 
4 1  2.543392116005e-05  -5.209714298739e-05   1.922799543595e-06 
5 1  2.184850840135e-05   8.901449922432e-05  -1.039973669916e-04 
6 1 -8.904834575367e-05   3.442557858245e-05   3.366850448459e-05 
7 1  6.760646172923e-05   5.542478459408e-05  -4.654229680962e-05 
8 1  9.277769610837e-05  -8.191901221383e-05   2.147044924690e-05 
8
Step 45000
1 1  2.827073362080e-05   6.332308294554e-05   5.020862273972e-05 
2 1  5.662145807881e-05   4.210370508955e-05  -1.086853699472e-04 
3 1  6.158408421101e-05  -3.069266261370e-05  -8.228031905549e-05 
4 1  4.886755352812e-05  -3.094695331279e-05   6.594567033194e-05 
5 1 -8.177111540105e-05   4.609695774076e-05  -1.308481858820e-04 
6 1 -1.047989367827e-04   4.533749611563e-05   8.587853281329e-06 
7 1  2.075366618096e-05  -1.228283954440e-05  -3.565739367224e-05 
8 1  9.925825107281e-05  -5.356034646655e-05  -1.564081504115e-05 
8
Step 46000
1 1 -3.373032797583e-05   7.025266566768e-05   5.491088004944e-05 
2 1 -9.159810743940e-06   1.609412469463e-06  -1.208368546811e-04 
3 1  4.982069723354e-05  -2.138415464682e-05  -1.067845779267e-04 
4 1  6.173720124764e-05  -1.533049440949e-05   1.001082260886e-04 
5 1 -1.725213087490e-04  -1.220742392851e-05  -9.793955900880e-05 
6 1 -6.858399282373e-05   3.826983800943e-05  -7.425378636825e-06 
7 1 -5.369080997239e-05  -8.628461232172e-05  -1.624374258344e-05 
8 1  4.914677102921e-05  -5.274295613344e-06  -5.238283214772e-05 
8
Step 47000
1 1 -1.080642162596e-04   5.326003041568e-05   3.527883271074e-05 
2 1 -7.956678905984e-05  -7.941492775859e-05  -7.568891069530e-05 
3 1  9.088982598328e-06  -1.003893031259e-05  -6.922662397824e-05 
4 1  5.969874469084e-05  -7.128308770244e-06   9.600548322067e-05 
5 1 -1.884922656866e-04  -5.616248810178e-05  -2.514741712613e-05 
6 1  1.069500487092e-05   2.500197513256e-05  -2.934463168229e-05 
7 1 -1.233710551249e-04  -1.231621062305e-04   1.677037266898e-06 
8 1 -2.353021665512e-05   4.611591273091e-05  -7.525434760032e-05 
8
Step 48000
1 1 -1.525145525244e-04   2.121616101118e-05   5.543561948120e-06 
2 1 -1.124309492134e-04  -1.661263767453e-04   5.403382717476e-06 
3 1 -4.443472672077e-05  -4.416806098566e-06   6.893253021848e-08 
4 1  4.005362938952e-05  -3.248949130974e-06   6.719945413650e-05 
5 1 -1.232842107422e-04  -6.305838523421e-05   4.614976196621e-05 
6 1  8.076780289317e-05   1.188231583632e-05  -5.491421705687e-05 
7 1 -1.543050164771e-04  -1.090216243413e-04   2.034535512068e-05 
8 1 -7.411296001212e-05   8.034343298323e-05  -8.115463241008e-05 
8
Step 49000
1 1 -1.320370273360e-04  -1.413437347214e-05  -2.249934224007e-05 
2 1 -9.434048566495e-05  -2.014897182535e-04   6.534311009386e-05 
3 1 -8.836034407849e-05  -6.921934299118e-06   5.257311843570e-05 
4 1  5.620425215981e-06   4.743548232084e-07   3.157897346369e-05 
5 1 -1.611146189465e-05  -3.261910348349e-05   8.271093614445e-05 
6 1  1.110788846848e-04  -2.047952470133e-06  -7.077448599741e-05 
7 1 -1.205176136695e-04  -5.332039225287e-05   4.096687739218e-05 
8 1 -7.115616902743e-05   8.583833624434e-05  -6.876345911780e-05 
8
Step 50000
1 1 -3.491890058407e-05  -4.224824092890e-05  -3.907003377896e-05 
2 1 -3.665673118303e-05  -1.439980977981e-04   7.205750080480e-05 
3 1 -1.041110322562e-04  -1.967470031597e-05   5.813694133219e-05 
4 1 -3.563212839519e-05   7.616268381955e-06  -3.059224143576e-06 
5 1  4.364243569368e-05   9.965217717092e-06   7.526735233157e-05 
6 1  1.034335334905e-04  -1.869358448382e-05  -5.458702249915e-05 
7 1 -4.554300023097e-05   1.057686763508e-05   5.681186743452e-05 
8 1 -2.252188395182e-05   6.295756798723e-05  -3.507669285104e-05 
8
Step 51000
1 1  6.986503060022e-05  -5.883990914668e-05  -3.685336826679e-05 
2 1  3.144531308374e-05  -1.785732631917e-05   5.267684842447e-05 
3 1 -7.937259790680e-05  -3.941967305630e-05   2.099963910816e-05 
4 1 -6.795853970951e-05   1.754481091474e-05  -2.932231227843e-05 
5 1  4.398162894598e-05   4.289409292263e-05   3.383930507848e-05 
6 1  6.804770166237e-05  -3.420596037372e-05  -4.358035539938e-06 
7 1  1.953976369167e-05   4.519341207139e-05   5.319823499372e-05 
8 1  3.939845150849e-05   1.405295226689e-05   1.583242622410e-05 
8
Step 52000
1 1  1.112564943037e-04  -6.317839518165e-05  -1.500060322555e-05 
2 1  7.507620413650e-05   6.137601450865e-05   2.737615538760e-05 
3 1 -1.996304142923e-05  -5.431249809080e-05  -3.483052383806e-05 
4 1 -7.714758618345e-05   2.443312085229e-05  -3.801222398073e-05 
5 1  2.756851053757e-05   5.450935769204e-05  -1.915127186282e-05 
6 1  2.316937750860e-05  -4.278845788715e-05   5.085705887592e-05 
7 1  6.114199493824e-05   4.444528604791e-05   9.368437734990e-06 
8 1  8.596114925943e-05  -5.174334942177e-05   6.065589219330e-05 
8
Step 53000
1 1  1.012115303641e-04  -5.057791618551e-05   1.909339254246e-05 
2 1  7.894188567331e-05   7.998590671120e-05   4.652606520517e-06 
3 1  4.462067423601e-05  -4.956064719483e-05  -7.366898602141e-05 
4 1 -6.105904246834e-05   2.182135707125e-05  -2.475280061008e-05 
5 1  1.198569760597e-05   3.963654149979e-05  -5.906481543581e-05 
6 1 -1.212719063777e-05  -4.194282317313e-05   8.242532250763e-05 
7 1  7.740346653441e-05   2.679514989208e-05  -7.063915835165e-05 
8 1  9.521478358503e-05  -1.057134801351e-04   7.994605389182e-05 
8
Step 54000
1 1  5.806123128755e-05  -2.322393376230e-05   5.069598032834e-05 
2 1  4.728519348217e-05   6.399916131083e-05  -1.884898779992e-05 
3 1  8.766004722474e-05  -1.590489240897e-05  -6.781719581912e-05 
4 1 -3.115733663507e-05   6.108253290674e-06   5.585055482985e-06 
5 1  1.905012547920e-06   4.036933501509e-06  -7.038266348704e-05 