8
Step 0
1 1  0.000000000000e+00   0.000000000000e+00   0.000000000000e+00 
2 1  0.000000000000e+00   0.000000000000e+00   0.000000000000e+00 
3 1  0.000000000000e+00   0.000000000000e+00   0.000000000000e+00 
4 1  0.000000000000e+00   0.000000000000e+00   0.000000000000e+00 
5 1  0.000000000000e+00   0.000000000000e+00   0.000000000000e+00 
6 1  0.000000000000e+00   0.000000000000e+00   0.000000000000e+00 
7 1  0.000000000000e+00   0.000000000000e+00   0.000000000000e+00 
8 1  0.000000000000e+00   0.000000000000e+00   0.000000000000e+00 
8
Step 1000
1 1  1.534225621364e-04  -4.457679719863e-05  -1.257531746285e-04 
2 1  1.033096927111e-04  -1.744402355307e-04  -1.938779986692e-06 
3 1 -1.151873693658e-04  -1.191135557285e-04  -1.493374539905e-05 
4 1  1.241263010701e-04  -1.240255136596e-04  -2.514542415326e-05 
5 1  1.323915049806e-04  -1.544503110192e-04  -1.272726447156e-04 
6 1  7.334335780159e-05   1.977461481939e-04   1.488787068730e-04 
7 1 -1.535727904897e-05   6.418795605168e-05  -1.517374560806e-04 
8 1 -2.047116629152e-05   1.125186991123e-04   2.505817982389e-05 
8
Step 2000
1 1  1.527184418339e-04  -4.954221462776e-05  -6.009514277878e-05 
2 1  4.287039927369e-05  -9.802324552665e-05   5.544936991068e-05 
3 1 -6.490893974847e-05  -7.017000047866e-05   1.038059277147e-05 
4 1  6.550828304130e-06  -1.450308219276e-04  -6.851942037787e-05 
5 1  2.597893519854e-05  -1.697998525177e-04  -8.539426000103e-05 
6 1  9.734332309679e-05   1.372173075753e-04   7.695210483736e-05 
7 1  4.442518903083e-05   7.935306710896e-05  -1.036458094274e-04 
8 1  3.021665574227e-05   1.759423431444e-04   2.580934448080e-05 
8
Step 3000
1 1  8.378327506454e-05  -4.640102222807e-05   2.925026032672e-05 
2 1 -4.454095801245e-05   2.511646290970e-05   9.518210432180e-05 
3 1  1.193773478113e-05   7.007964604118e-06   3.398554148001e-05 
4 1 -1.097338757506e-04  -9.955834937274e-05  -8.376633576929e-05 
5 1 -8.743830770650e-05  -1.140129711584e-04  -6.048748462737e-06 
6 1  7.354349446143e-05   1.129827045515e-05  -1.906562367285e-05 
7 1  7.056790132430e-05   6.429203478415e-05  -3.059061606215e-06 
8 1  7.610274693568e-05   1.570262674818e-04   2.777731181496e-05 
8
Step 4000
1 1 -1.747637605396e-05  -3.419679282470e-05   9.685683881860e-05 
2 1 -1.111865371111e-04   1.235805139377e-04   1.009688616221e-04 
3 1  8.141879686551e-05   7.398159024227e-05   4.996805041488e-05 
4 1 -1.671524312057e-04  -9.690572426615e-06  -7.890774055244e-05 
5 1 -1.462113598859e-04  -1.718916007549e-05   7.344241849273e-05 
6 1  7.826599389024e-06  -1.063108230981e-04  -8.766692221401e-05 
7 1  6.141331702858e-05   1.465580031559e-05   9.599039068419e-05 
8 1  9.265411098821e-05   6.989776406177e-05   2.077102809688e-05 
8
Step 5000
1 1 -9.744114989352e-05  -1.022359778459e-05   1.115841388460e-04 
2 1 -1.223068499026e-04   1.480732703857e-04   7.095390949846e-05 
3 1  1.168260171540e-04   1.034561998844e-04   5.384916334219e-05 
4 1 -1.474094236098e-04   7.902778195469e-05  -6.456571748075e-05 
5 1 -1.265752054930e-04   6.995811146301e-05   1.166341037572e-04 
6 1 -7.127580572097e-05  -1.588726656571e-04  -9.807764640637e-05 
7 1  3.298111800486e-05  -5.089243129989e-05   1.419470314280e-04 
8 1  6.984845352504e-05  -3.669715781848e-05  -2.580832262117e-06 
8
Step 6000
1 1 -1.207476835809e-04   2.582721276093e-05   7.214350234616e-05 
2 1 -7.373107596410e-05   9.721659361578e-05   1.763648864345e-05 
3 1  1.100644452382e-04   8.821066579975e-05   4.219734112345e-05 
4 1 -6.892773298523e-05   1.247008921971e-04  -4.656395114926e-05 
5 1 -4.690207171196e-05   1.097412029340e-04   1.098480320312e-04 
6 1 -1.263064673623e-04  -1.397258564476e-04  -5.500014965733e-05 
7 1  4.848477322136e-06  -1.014983047962e-04   1.148505382912e-04 
8 1  1.600945723192e-05  -1.068224469671e-04  -3.753093370942e-05 
8
Step 7000
1 1 -8.757358394275e-05   6.708395216636e-05   3.238718662423e-06 
2 1  7.960596155327e-06   8.419741528639e-06  -3.480042221474e-05 
3 1  6.998389916033e-05   3.920648702910e-05   1.512558120497e-05 
4 1  2.563398630016e-05   1.116418476205e-04  -2.539009257297e-05 
5 1  4.536061720001e-05   9.765740881688e-05   6.280590691668e-05 
6 1 -1.306892257666e-04  -7.309129874627e-05   8.617443802137e-06 
7 1 -1.002233141371e-05  -1.132750815452e-04   3.136850837825e-05 
8 1 -4.519198689245e-05  -1.117198365049e-04  -6.948704708834e-05 
8
Step 8000
1 1 -2.457950829964e-05   1.001040421032e-04  -5.932207779286e-05 
2 1  7.734229023590e-05  -6.597711906945e-05  -6.266745173132e-05 
3 1  1.682875689520e-05  -2.108265547988e-05  -2.089312733422e-05 
4 1  9.403486881903e-05   5.257092018031e-05  -7.286464121549e-09 
5 1  1.021779478784e-04   5.278362935677e-05   1.418553707892e-06 
6 1 -7.931654335782e-05   3.763848849382e-06   5.268856094674e-05 
7 1 -8.730663717595e-06  -8.045734703881e-05  -6.308758344192e-05 
8 1 -8.619627210781e-05  -5.659469334095e-05  -8.213634145080e-05 
8
Step 9000
1 1  3.189334319919e-05   1.091883621782e-04  -8.754086366263e-05 
2 1  9.831156512194e-05  -9.138529265170e-05  -5.811264929772e-05 
3 1 -2.790368034936e-05  -6.869750072015e-05  -5.450610491889e-05 
4 1  1.146838218475e-04  -1.926480357519e-05   2.814961601056e-05 
5 1  1.036431711610e-04   1.000794607833e-06  -4.459162935084e-05 
6 1  6.109335620599e-06   5.963982567372e-05   5.444463309563e-05 
7 1  2.378146814774e-06  -1.798448006421e-05  -1.202220690619e-04 
8 1 -9.018181207818e-05   2.661892428390e-05  -6.476199757613e-05 
8
Step 10000
1 1  5.463670944951e-05   8.013560386873e-05  -7.326776640889e-05 
2 1  6.566267156338e-05  -6.573227847663e-05  -3.247161722872e-05 
3 1 -5.128736386289e-05  -8.855709059572e-05  -7.338825132084e-05 
4 1  8.696737172518e-05  -6.960253529468e-05   5.356129606485e-05 
5 1  6.147597233544e-05  -3.664852411117e-05  -5.737591517245e-05 
6 1  8.342634163061e-05   8.116844732306e-05   1.789039794095e-05 
7 1  1.313684219824e-05   4.341301683836e-05  -1.186184367840e-04 
8 1 -5.681137850525e-05   9.239336407695e-05  -1.698109443871e-05 
8
Step 11000
1 1  3.669166070311e-05   9.445075371630e-06  -2.959808482039e-05 
2 1  5.102717936310e-06  -1.253148779734e-05  -4.040107749291e-06 
3 1 -5.109696680384e-05  -7.919200234850e-05  -6.739964102246e-05 
4 1  2.684194231243e-05  -8.333228612942e-05   6.818857071709e-05 
5 1  5.719269705658e-06  -4.971417173417e-05  -3.804805311320e-05 
6 1  1.184683858191e-04   6.968188328130e-05  -3.155828922945e-05 
7 1  1.613977765789e-05   7.349477177879e-05  -6.999631761840e-05 
8 1 -8.460463368861e-07   1.044108436883e-04   4.867063202731e-05 
8
Step 12000
1 1 -7.560677725617e-06  -8.034776405742e-05   1.814447234891e-05 
2 1 -4.370348583161e-05   3.542359129901e-05   1.378515408692e-05 
3 1 -3.321583557093e-05  -4.855206758589e-05  -3.076225943487e-05 
4 1 -3.880501508491e-05  -6.647713352911e-05   6.514440216695e-05 
5 1 -3.475895884168e-05  -3.871590902547e-05  -1.046063144435e-06 
6 1  1.050353399534e-04   3.640162431163e-05  -6.252102606940e-05 
7 1  8.886737353777e-06   6.220748395265e-05  -6.901029658518e-06 
8 1  5.308446073073e-05   5.375995234103e-05   1.100130163114e-04 
8
Step 13000
1 1 -4.785876062134e-05  -1.474846684119e-04   4.797028506785e-05 
2 1 -5.291962782300e-05   5.508658380812e-05   1.653276351567e-05 
3 1 -8.712221607768e-06  -7.060568461098e-06   3.325981102207e-05 
4 1 -8.429856263153e-05  -3.496054978299e-05   4.302302730180e-05 
5 1 -4.751744569835e-05  -1.224610545942e-05   3.447961942061e-05 
6 1  6.004213884387e-05  -2.127672376126e-06  -5.734634693672e-05 
7 1 -7.620970095513e-06   2.684618383628e-05   3.961112366707e-05 
8 1  8.135885951786e-05  -3.694424375683e-05   1.477639659888e-04 
8
Step 14000
1 1 -5.459666869870e-05  -1.644484046013e-04   5.240866178456e-05 
2 1 -2.233420294808e-05   4.283648555944e-05   8.426602695840e-06 
3 1  1.065639291681e-05   3.457708136194e-05   1.040304039534e-04 
4 1 -9.615500513242e-05  -2.138112233075e-06   8.384417071322e-06 
5 1 -3.725801816192e-05   1.685926293062e-05   4.742279835520e-05 
6 1  9.650979441979e-06  -3.169490449272e-05  -2.017191140038e-05 
7 1 -2.982760762081e-05  -4.168602291218e-06   5.641111399452e-05 
8 1  7.195404335207e-05  -1.215158478702e-04   1.490422929153e-04 
8
Step 15000
1 1 -1.863954541554e-05  -1.300318775591e-04   3.834449840606e-05 
2 1  2.283587705996e-05   1.072035081874e-05  -1.966990332284e-06 
3 1  1.710573643549e-05   6.664447065679e-05   1.463078609340e-04 
4 1 -7.475485720668e-05   2.675418114416e-05  -2.694958242875e-05 
5 1 -1.692803175827e-05   3.559839195783e-05   2.555465658568e-05 
6 1 -2.559659423439e-05  -4.575791488310e-05   2.900666442612e-05 
7 1 -5.102016752779e-05  -1.409076251619e-05   4.644321780917e-05 
8 1  2.828514957131e-05  -1.519108591137e-04   1.029497231084e-04 
8
Step 16000
1 1  4.246726669738e-05  -6.283584665519e-05   1.913386385584e-05 
2 1  5.061176997293e-05  -2.265988725358e-05  -7.885658479569e-06 
3 1  9.593514959581e-06   8.395877699029e-05   1.329192124001e-04 
4 1 -3.095978095578e-05   5.126362241667e-05  -5.175627618892e-05 
5 1  1.253493726903e-06   3.503107014491e-05  -1.977026524800e-05 
6 1 -3.787870828014e-05  -4.629653405684e-05   6.595244325916e-05 
7 1 -6.088218201762e-05  -3.479632146989e-06   2.037326695131e-05 
8 1 -3.142775502281e-05  -1.058434245535e-04   7.378307731122e-06 
8
Step 17000
1 1  9.265379539079e-05   6.483048749165e-06   5.321822797116e-06 
2 1  4.463233917504e-05  -4.111363650801e-05  -7.340646929397e-06 
3 1 -5.113122351845e-06   8.176888732107e-05   6.335518709422e-05 
4 1  1.850521180642e-05   6.749890972786e-05  -5.925099770937e-05 
5 1  1.105673664466e-05   1.439824852644e-05  -6.240666937059e-05 
6 1 -3.088917479148e-05  -4.077510607742e-05   7.374826956026e-05 
7 1 -4.749985382376e-05   1.305036186245e-05  -8.883034631755e-06 
8 1 -7.983415488328e-05  -3.449506097450e-06  -1.071253122485e-04 
8
Step 18000
1 1  9.811367194687e-05   5.323680203869e-05  -1.822609483454e-06 
2 1  8.908083787312e-06  -3.721436469570e-05  -1.673734035200e-06 
3 1 -1.422073415004e-05   5.376666768921e-05  -3.140992617942e-05 
4 1  5.839400102383e-05   6.175905085476e-05  -4.822845186905e-05 
5 1  1.330022615501e-05  -1.734673827222e-05  -7.499236596861e-05 
6 1 -1.518376228467e-05  -3.400551293734e-05   4.924353337731e-05 
7 1 -5.627397823997e-06   1.861620719767e-05  -2.971877180058e-05 
8 1 -9.217643927370e-05   1.020339208149e-04  -1.806080185736e-04 
8
Step 19000
1 1  5.066006932684e-05   7.046911333095e-05  -8.392213079776e-06 
2 1 -3.667681440824e-05  -1.514714760646e-05   5.647484671107e-06 
3 1 -6.541629868390e-06   5.694225789550e-06  -1.023703543134e-04 
4 1  8.022280008662e-05   2.394709817840e-05  -2.273677328177e-05 
5 1  1.295125096529e-05  -4.442090669556e-05  -4.302628714407e-05 
6 1 -1.833503031583e-06  -2.235962643286e-05   3.552939992526e-06 
7 1  5.395640413955e-05   9.647829757898e-06  -3.484962248345e-05 
8 1 -5.728275964687e-05   1.611582375409e-04  -1.793732236862e-04 
8
Step 20000
1 1 -2.678762384727e-05   6.244881772432e-05  -2.010932023835e-05 
2 1 -6.556435537315e-05   1.210039926632e-05   1.016673790000e-05 
3 1  1.914975729011e-05  -4.281308510941e-05  -1.160570299790e-04 
4 1  8.177094097247e-05  -3.442701640495e-05   8.853129031412e-06 
5 1  1.435577627331e-05  -5.098570110777e-05   1.769672044497e-05 
6 1  2.962928871827e-06   1.545687849338e-07  -4.277348118893e-05 
7 1  1.067668828143e-04  -5.123120860727e-06  -2.347189942860e-05 
8 1  1.561276056196e-05   1.525134816622e-04  -1.150247524577e-04 
8
Step 21000
1 1 -9.478728855361e-05   3.719235437240e-05  -3.696714008025e-05 
2 1 -6.078694882829e-05   3.050875047935e-05   9.501761069265e-06 
3 1  5.107370608533e-05  -7.328316483479e-05  -7.412767911741e-05 
4 1  6.366846954263e-05  -8.714660685903e-05   3.618735035483e-05 
5 1  1.777195370939e-05  -2.951843727018e-05   7.149468579016e-05 
6 1 -6.704027249811e-09   3.329631234144e-05  -6.993612126514e-05 
7 1  1.287768230590e-04  -1.589148778566e-05  -1.581475994047e-06 
8 1  9.541841751793e-05   8.457411040448e-05  -2.925734974563e-05 
8
Step 22000
1 1 -1.207676046847e-04   5.488455851427e-06  -5.071031926425e-05 
2 1 -2.399992532405e-05   3.166785749746e-05   4.100515184207e-06 
3 1  6.760117174855e-05  -7.723549805409e-05  -6.893916779414e-06 
4 1  2.802749212938e-05  -1.079272881808e-04   5.054520727864e-05 
5 1  1.881956489799e-05   1.353035703888e-05   8.997165439609e-05 
6 1 -3.942175434474e-06   6.889290386255e-05  -6.813425730124e-05 
7 1  1.068154141777e-04  -1.822562828914e-05   2.034662024256e-05 
8 1  1.416881881642e-04  -6.921491174530e-06   3.137120059782e-05 
8
Step 23000
1 1 -9.366199201332e-05  -2.024789255619e-05  -4.806558789749e-05 
2 1  2.716390756319e-05   1.629768552389e-05  -3.407956085960e-06 
3 1  4.932584256396e-05  -5.660010218190e-05   4.674522842810e-05 
4 1 -1.778339141615e-05  -8.293291446517e-05   4.769140038821e-05 
5 1  1.141497282178e-05   5.883621034968e-05   6.552894462714e-05 
6 1 -1.154496043832e-06   9.225142611350e-05  -4.029354698742e-05 
7 1  4.288019686911e-05  -1.344311198587e-05   3.179751981700e-05 
8 1  1.253484167053e-04  -7.850582221212e-05   4.776464006273e-05 
8
Step 24000
1 1 -2.750761972931e-05  -3.057281095224e-05  -2.160944368263e-05 
2 1  6.750225661011e-05  -5.485139616845e-06  -9.207367060781e-06 
3 1 -4.866301667886e-06  -2.215516919233e-05   6.110601795313e-05 
4 1 -5.937925369462e-05  -2.145966565009e-05   2.898390406827e-05 
5 1 -7.050967575615e-06   8.218053409233e-05   1.141294227156e-05 
6 1  1.082114153766e-05   8.716269839259e-05   5.904298705386e-07 
7 1 -3.924152233327e-05  -6.133998871348e-06   2.685142620699e-05 
8 1  4.270637523953e-05  -1.063502740897e-04   3.126922179456e-05 
8
Step 25000
1 1  4.460715795824e-05  -2.389341363237e-05   2.191049928940e-05 
2 1  7.677019511925e-05  -1.966909452274e-05  -1.041203931914e-05 
3 1 -7.317502780679e-05   1.138640965669e-05   3.462069607300e-05 
4 1 -8.250741444931e-05   4.685444189812e-05   1.270106511285e-06 
5 1 -3.218459548070e-05   6.694654773455e-05  -4.525114831040e-05 
6 1  2.728069884219e-05   4.616108629876e-05   3.757695818495e-05 
7 1 -1.013986526468e-04  -8.465229302728e-07   6.904478851341e-06 
8 1 -7.324281316658e-05  -9.019610083980e-05   3.869674490542e-06 
8
Step 26000
1 1  8.893855140580e-05  -7.418000295374e-06   6.452214292724e-05 
2 1  5.027934060026e-05  -1.710541531444e-05  -6.958302012563e-06 
3 1 -1.221127572835e-04   3.290806588388e-05  -1.160392195273e-05 
4 1 -7.967778667850e-05   9.014700422446e-05  -2.564241050745e-05 
5 1 -5.326507322505e-05   1.486942961816e-05  -7.743399834793e-05 
6 1  3.814234553420e-05  -2.022216539444e-05   5.758703742267e-05 
7 1 -1.210712227902e-04   8.134289561342e-07  -1.949006993652e-05 
8 1 -1.624252768625e-04  -4.510688664821e-05  -1.577753793480e-05 
8
Step 27000
1 1  8.902083550851e-05   7.231227667768e-06   8.632462673737e-05 
2 1  6.117434919421e-07   7.699734011966e-07  -1.392022650167e-06 
3 1 -1.240491683930e-04   3.898963277267e-05  -4.700832373561e-05 
4 1 -5.165950694953e-05   9.239128003570e-05  -4.307296814469e-05 
5 1 -5.749745593206e-05  -5.182986473735e-05  -7.158187477197e-05 
6 1  3.253164350585e-05  -8.481809333642e-05   5.622547495865e-05 
7 1 -1.026750188933e-04   1.049676629728e-06  -3.980501811674e-05 
8 1 -1.808845051890e-04   5.434725170667e-06  -1.852732291020e-05 
8
Step 28000
1 1  5.041348963379e-05   1.093400314717e-05   7.511059526025e-05 
2 1 -4.851288975432e-05   2.176379263730e-05   2.564506080021e-06 
3 1 -7.111366632428e-05   3.240042673788e-05  -4.966963557699e-05 
4 1 -8.767578234332e-06   5.839252001381e-05  -4.607361331055e-05 
5 1 -3.652788064445e-05  -1.001515881167e-04  -3.260320134671e-05 
6 1  6.314793227724e-06  -1.201847696501e-04   3.704611506850e-05 
7 1 -6.324571941759e-05   3.882835292970e-06  -4.282313152579e-05 
8 1 -1.229539742841e-04   3.956809076048e-05  -5.928291992619e-06 
8
Step 29000
1 1 -3.912474753223e-06   1.647091677993e-06   3.360647725535e-05 
2 1 -7.378264513517e-05   2.892113635179e-05   2.213650858732e-06 
3 1  1.583948503176e-05   1.892665207087e-05  -1.618774802658e-05 
4 1  3.121584153668e-05   7.578125857910e-06  -3.465372174741e-05 
5 1  7.118432425114e-06  -1.040911219615e-04   1.907095721996e-05 
6 1 -3.272510855976e-05  -1.133568435656e-04   8.623629377255e-06 
7 1 -2.144650814522e-05   1.161693575985e-05  -2.376692444070e-05 
8 1 -1.964383512877e-05   4.674293054457e-05   1.271253528387e-05 
8
Step 30000
1 1 -4.511081231056e-05  -1.474739636457e-05  -1.991217852428e-05 
2 1 -6.394780134842e-05   1.093467399724e-05  -1.884618292219e-06 
3 1  9.422422500669e-05   4.806669499271e-06   3.801775093872e-05 
4 1  5.237974136240e-05  -3.642343864878e-05  -1.347477194319e-05 
5 1  5.800263605306e-05  -5.878145446176e-05   5.732994886323e-05 
6 1 -6.745109104326e-05  -6.862307484057e-05  -1.940976502115e-05 
7 1  9.282468110131e-06   2.211650921609e-05   1.268551606344e-05 
8 1  7.271025745546e-05   3.013170647796e-05   2.585904566721e-05 
8
Step 31000
1 1 -5.345277107818e-05  -2.689826847150e-05  -6.113278928746e-05 
2 1 -2.479412237869e-05  -2.913429262022e-05  -5.726822338707e-06 
3 1  1.281599514623e-04  -5.380254100424e-06   8.508929503065e-05 
4 1  4.974236439184e-05  -5.607445656653e-05   1.072379409322e-05 
5 1  9.381276651092e-05   1.590410576970e-05   6.351131736016e-05 
6 1 -7.920505741112e-05  -6.209111341466e-06  -4.017658633100e-05 
7 1  2.684732489544e-05   2.845170400379e-05   5.260053346308e-05 
8 1  1.114929704889e-04   4.458155066646e-06   2.577208847932e-05 
8
Step 32000
1 1 -2.815818508255e-05  -2.405138551807e-05  -7.379405548889e-05 
2 1  2.380088702910e-05  -7.174163077226e-05  -4.204898114213e-06 
3 1  1.075499189906e-04  -9.992262381833e-06   9.741045100153e-05 
4 1  3.010105900597e-05  -4.735924519385e-05   3.179667977178e-05 
5 1  9.604809526398e-05   8.346225320256e-05   3.515097022788e-05 
6 1 -5.630038135961e-05   4.580194732218e-05  -5.061018851740e-05 
7 1  3.668450687850e-05   2.167016580512e-05   7.746580428120e-05 
8 1  9.361661442254e-05  -1.151586282443e-05   1.221962027907e-05 
8
Step 33000
1 1  1.154896587001e-05  -2.747803170131e-06  -5.677065693927e-05 
2 1  5.736005140686e-05  -8.863688084480e-05   5.799061062748e-06 
3 1  4.722770684609e-05  -9.971239093184e-06   6.072061391390e-05 
4 1  6.131624779342e-06  -1.996465092798e-05   4.420868336511e-05 
5 1  5.809856523708e-05   1.101105609901e-04  -1.305335399445e-05 
6 1 -9.321777711529e-07   6.834802095569e-05  -5.013779576284e-05 
7 1  4.255631230578e-05  -4.059575049036e-06   7.212342962337e-05 
8 1  4.346602511665e-05  -7.330330705446e-06  -8.029534912043e-06 
8
Step 34000
1 1  3.747642469370e-05   3.020644229811e-05  -2.221797358502e-05 
2 1  5.899889307592e-05  -5.898777480042e-05   2.271288001908e-05 
3 1 -2.074121664507e-05  -7.691700666826e-06  -1.646753042439e-05 
4 1 -1.011441419313e-05   1.014607555512e-05   4.388221296721e-05 
5 1 -9.648213344405e-06   8.401745123686e-05  -5.578621829149e-05 
6 1  6.674295040114e-05   6.070630282714e-05  -3.924639282841e-05 
7 1  4.329304100645e-05  -4.573709851947e-05   3.232734433775e-05 
8 1 -8.236403966936e-06   1.369900414342e-05  -2.529455123531e-05 
8
Step 35000
1 1  3.097830497649e-05   5.989006108829e-05   1.165325260506e-05 
2 1  2.847385531359e-05   1.421997026974e-05   3.913438716842e-05 
3 1 -6.314428292704e-05  -5.613774059817e-06  -1.001185132860e-04 
4 1 -1.233176084550e-05   2.860915716182e-05   2.998792944225e-05 
5 1 -7.935570601586e-05   1.977844852713e-05  -6.924338108285e-05 
6 1  1.136879989462e-04   3.542718472051e-05  -1.853536797595e-05 
7 1  3.479218192206e-05  -8.770571544086e-05  -2.976757305974e-05 
8 1 -3.994114824098e-05   3.578549557678e-05  -3.204292296312e-05 
8
Step 36000
1 1 -6.690271942599e-06   6.917993992481e-05   2.969484792503e-05 
2 1 -1.689882900728e-05   9.917776091733e-05   4.385138507990e-05 
3 1 -6.412566739777e-05  -5.100460638752e-06  -1.478083707085e-04 
4 1 -2.934310119957e-06   2.758393924488e-05   4.192803791336e-06 
5 1 -1.187775502773e-04  -5.212865141645e-05  -4.208912912219e-05 
6 1  1.130161020904e-04   8.933988036650e-06   1.118018021264e-05 
7 1  1.432829576927e-05  -1.048935580221e-04  -8.715139792080e-05 
8 1 -4.516633160620e-05   3.720143360789e-05  -2.635078316320e-05 
8
Step 37000
1 1 -5.398036553479e-05   4.605503220328e-05   2.677257064969e-05 
2 1 -5.167340694783e-05   1.527939202964e-04   2.732736499490e-05 
3 1 -3.070853191763e-05  -6.037397686896e-06  -1.344124854656e-04 
4 1  8.612993863194e-06   8.586111132013e-06  -2.999936100573e-05 
5 1 -1.096876884051e-04  -9.972293692732e-05   1.885821908896e-05 
6 1  6.276151310238e-05  -6.071432036309e-06   4.572128814463e-05 
7 1 -1.523369097211e-05  -7.526396716082e-05  -1.123594937892e-04 
8 1 -2.902294049270e-05   7.875170757230e-06  -1.250018845572e-05 
8
Step 38000
1 1 -7.860098583594e-05  -9.196651739257e-06   9.392547770777e-06 
2 1 -5.583314173893e-05   1.455211432980e-04  -1.207852198702e-05 
3 1  1.452950765046e-05  -7.236879601426e-06  -6.251466301130e-05 
4 1  1.279742151809e-05  -1.814302521985e-05  -6.406959547113e-05 
5 1 -5.445397951934e-05  -1.026773647685e-04   8.754623504536e-05 
6 1 -1.316135094096e-05  -5.405767513896e-06   7.643685584618e-05 
7 1 -4.440588017229e-05   2.215139899305e-06  -9.370285262847e-05 
8 1 -1.101361170094e-06  -4.053876934579e-05   1.323713749345e-06 
8
Step 39000
1 1 -5.722651502561e-05  -7.824656994103e-05  -8.919136472818e-06 
2 1 -2.423142089489e-05   7.476007055164e-05  -6.406602570148e-05 
3 1  4.495348173626e-05  -7.378580580930e-06   3.566181934453e-05 
4 1  6.250801401471e-06  -3.875607950617e-05  -8.476673692422e-05 
5 1  2.584819857259e-05  -5.812002957741e-05   1.270722204058e-04 
6 1 -7.841819251116e-05   4.739278127963e-06   9.401997615615e-05 
7 1 -5.976810409549e-05   9.436256299653e-05  -4.018013361560e-05 
8 1  2.784453969106e-05  -8.229419879610e-05   7.599836661081e-06 
8
Step 40000
1 1  8.052824741552e-06  -1.290071891026e-04  -1.569950314408e-05 
2 1  2.908472552838e-05  -2.797300043953e-05  -1.079372451892e-04 
3 1  4.241479430525e-05  -5.810015527848e-06   1.104093872222e-04 
4 1 -7.509079675421e-06  -4.064967178918e-05  -8.189301875117e-05 
5 1  9.691768995552e-05   2.369749210479e-05   1.074638118229e-04 
6 1 -1.011348655782e-04   1.178202751915e-05   9.049750851844e-05 
7 1 -4.988499605815e-05   1.517728758491e-04   2.298860142344e-05 
8 1  4.611838052757e-05  -9.187944894609e-05   5.290175916727e-06 
8
Step 41000
1 1  8.765519028405e-05  -1.328118718068e-04  -6.012122614765e-06 
2 1  7.577073649058e-05  -1.118013535382e-04  -1.203532161777e-04 
3 1  7.571159506727e-06  -2.694544154570e-06   1.271625458606e-04 
4 1 -2.126843924228e-05  -1.513425466815e-05  -5.282039424369e-05 
5 1  1.259791906698e-04   1.172462682177e-04   2.266597533035e-05 
6 1 -7.443162526782e-05   6.001551732899e-06   6.095199542949e-05 
7 1 -1.321726125319e-05   1.453359340789e-04   6.656476287129e-05 
8 1  4.336796651291e-05  -5.721392540383e-05   3.444547021964e-06 
8
Step 42000
1 1  1.399433553357e-04  -7.961678608574e-05   1.505117926527e-05 
2 1  8.816204310195e-05  -1.420859913390e-04  -8.610060272739e-05 
3 1 -4.029787146630e-05   1.998485190087e-06   8.541691588579e-05 
4 1 -2.838009452609e-05   3.780806409807e-05  -2.795561956271e-06 
5 1  9.831278491427e-05   1.793951216671e-04  -9.366300856460e-05 
6 1 -2.258097789962e-05  -1.358589100332e-05   9.388393669242e-06 
7 1  3.829393102578e-05   7.849174498932e-05   7.618058043445e-05 
8 1  1.780650808208e-05   1.286684604705e-05   1.643031879637e-05 
8
Step 43000
1 1  1.342402511237e-04   1.339976108663e-05   3.471064938972e-05 
2 1  5.227756779420e-05  -1.126825942123e-04  -1.031696812094e-05 
3 1 -7.261100631852e-05   8.646741215847e-06   1.438816297191e-05 
4 1 -2.621729687539e-05   1.020799370797e-04   5.161602400432e-05 
5 1  2.065033132817e-05   1.740608561501e-04  -1.771175830578e-04 
6 1  2.423146645737e-05  -3.830694641724e-05  -4.782934118797e-05 
7 1  8.279497975483e-05  -1.592433708051e-05   6.110206193079e-05 
8 1 -2.023361178178e-05   8.864288769034e-05   5.063125802368e-05 
8
Step 44000
1 1  6.264625363997e-05   1.013553608995e-04   3.940107918302e-05 
2 1 -2.352715833315e-05  -4.104386234939e-05   7.566179210498e-05 
3 1 -6.533506820205e-05   1.737920264388e-05  -4.419942699122e-05 
4 1 -1.646374963534e-05   1.470764024400e-04   8.775166695515e-05 
5 1 -8.284405553413e-05   9.390510698841e-05  -1.803610096819e-04 
6 1  4.679256548043e-05  -5.223330831732e-05  -9.003142516125e-05 
7 1  9.498420976466e-05  -8.824037794190e-05   3.940389505613e-05 
8 1 -5.327642931882e-05   1.325259184389e-04   9.358844384096e-05 
8
Step 45000
1 1 -5.146434999707e-05   1.388527124881e-04   2.269798562179e-05 
2 1 -1.052599354136e-04   3.783649353891e-05   1.328696761717e-04 
3 1 -1.787332502634e-05   2.689046551838e-05  -6.002300627392e-05 
4 1 -2.803873549918e-06   1.408557398559e-04   9.074265277741e-05 
5 1 -1.684010384007e-04  -3.034950588243e-05  -9.990569843914e-05 
6 1  3.798631927090e-05  -4.187878839394e-05  -1.041294993826e-04 
7 1  5.963605969165e-05  -1.057954520356e-04   2.040710598712e-05 
8 1 -6.603855443632e-05   1.204164069808e-04   1.140897067211e-04 
8
Step 46000
1 1 -1.504050750402e-04   1.117923363420e-04  -1.199152083646e-05 
2 1 -1.513331595151e-04   8.789212995175e-05   1.406961836835e-04 
3 1  4.442221235848e-05   3.257118468684e-05  -3.121127702074e-05 
4 1  1.125482770205e-05   6.548751500106e-05   5.956170708115e-05 
5 1 -1.896043405861e-04  -1.355532808664e-04   2.315395324828e-05 
6 1  4.696646345858e-06  -7.405743894697e-06  -8.715361854057e-05 
7 1 -1.361477632201e-05  -7.218118492749e-05   4.146289608305e-06 
8 1 -5.202755925134e-05   5.349920843573e-05   7.914333003072e-05 
8
Step 47000
1 1 -1.812273832461e-04   4.005988145747e-05  -5.227352335374e-05 
2 1 -1.373797487848e-04   8.971097346767e-05   1.000985515143e-04 
3 1  8.779986704168e-05   2.698810239806e-05   1.509108771563e-05 
4 1  2.262220327305e-05  -5.558652352543e-05   5.761386851231e-06 
5 1 -1.261563574324e-04  -1.729807208072e-04   1.200665066849e-04 
6 1 -3.213855740798e-05   3.514884997245e-05  -4.526113700859e-05 
7 1 -9.320951701439e-05  -1.389494897905e-05  -1.423647955153e-05 
8 1 -1.600172578616e-05  -4.027711507994e-05  -1.259231002429e-05 
8
Step 48000
1 1 -1.332761472807e-04  -3.613620981428e-05  -8.006328008588e-05 
2 1 -6.537537024767e-05   4.705691588918e-05   3.022198029113e-05 
3 1  8.894169527274e-05   5.565544257270e-06   4.341598206380e-05 
4 1  2.780733495486e-05  -1.570355020348e-04  -4.834957835095e-05 
5 1  2.888571772929e-06  -1.368110681862e-04   1.407418898383e-04 
6 1 -4.798617364093e-05   6.333599591477e-05   6.082365224017e-06 
7 1 -1.415312933220e-04   3.672392299834e-05  -3.808549531367e-05 
8 1  2.717073632533e-05  -1.160182931145e-04  -1.168347314696e-04 
8
Step 49000
1 1 -3.497482955879e-05  -7.844991936843e-05  -7.827652526080e-05 
2 1  3.286567864241e-05  -1.558113543843e-05  -3.828185257935e-05 
3 1  4.569697178778e-05  -2.772909457374e-05   3.609441932830e-05 
4 1  2.352341625131e-05  -1.935161881126e-04  -7.767892788830e-05 
5 1  1.332470351843e-04  -5.226126014690e-05   8.341976733392e-05 
6 1 -2.894219071059e-05   6.307207997381e-05   4.843572905826e-05 
7 1 -1.289707605132e-04   5.434424318379e-05  -6.295591137453e-05 
8 1  5.820876700864e-05  -1.371180470694e-04  -1.819904116215e-04 
8
Step 50000
1 1  6.055612301474e-05  -6.956988639140e-05  -4.215975585895e-05 
2 1  1.066315464973e-04  -6.413899781680e-05  -7.873045994363e-05 
3 1 -2.015984769956e-05  -6.080210041816e-05  -1.304554938359e-06 
4 1  8.872848875603e-06  -1.609902807141e-04  -6.677741170742e-05 
5 1  1.947489847939e-04   3.768739486657e-05  -8.388567463963e-06 
6 1  1.916981121865e-05   3.562844382428e-05   6.984269525348e-05 
7 1 -5.202231994675e-05   3.375744293029e-05  -7.575562987988e-05 
8 1  6.511334109145e-05  -9.523687583373e-05  -1.805181021567e-04 
8
Step 51000
1 1  1.039328289744e-04  -2.126703996914e-05   1.705847112305e-05 
2 1  1.252559263732e-04  -7.116539448329e-05  -8.286332776969e-05 
3 1 -7.370901480493e-05  -7.838553631123e-05  -4.707287776105e-05 
4 1 -1.334229455564e-05  -8.019654231521e-05  -1.773912123729e-05 
5 1  1.629335858225e-04   9.371649141751e-05  -7.720360852002e-05 
6 1  7.202484238679e-05  -4.170895478220e-06   6.874227037076e-05 
7 1  5.402874575270e-05  -9.228511116910e-06  -6.287685975075e-05 
8 1  4.868247769178e-05  -1.218633962917e-05  -1.110353996572e-04 
8
Step 52000
1 1  8.194351907213e-05   3.217587184847e-05   7.691264757291e-05 
2 1  9.511672540789e-05  -3.112836161673e-05  -5.845803385029e-05 
3 1 -8.865027056490e-05  -6.743119015863e-05  -7.486926776506e-05 
4 1 -3.675263869442e-05   9.200464894785e-06   4.721620042596e-05 
5 1  6.010522355505e-05   1.001482305875e-04  -8.720711011485e-05 
6 1  9.878976753074e-05  -3.508857138547e-05   5.075250224164e-05 
7 1  1.362816961107e-04  -4.723181324492e-05  -2.068704523146e-05 
8 1  1.824019515165e-05   7.066687160749e-05  -5.187637466306e-06 
8
Step 53000
1 1  2.031023826516e-05   5.573675467323e-05   1.133762792959e-04 
2 1  4.168620484915e-05   3.369154757932e-05  -1.967744269637e-05 
3 1 -5.997187257599e-05  -2.410298142899e-05  -6.694383859844e-05 
4 1 -5.189918573549e-05   6.976452244934e-05   9.034506200297e-05 
5 1 -5.664863525453e-05   6.488688601403e-05  -3.916590745429e-05 
6 1  7.886818161476e-05  -4.278255403408e-05   2.442195187531e-05 
7 1  1.578496000046e-04  -5.528593564636e-05   3.932295899559e-05 
8 1 -1.338273360944e-05   1.146388960353e-04   8.571079577219e-05 
8
Step 54000
1 1 -3.802973658862e-05   3.424125532237e-05   1.112093007398e-04 
2 1 -7.832309336795e-06   8.552173109293e-05   1.694534121941e-05 
3 1 -4.245749389666e-06   3.948982525771e-05  -2.375463148849e-05 
4 1 -4.808447221956e-05   8.851681614203e-05   7.929502048774e-05 
5 1 -1.264886982224e-04   9.746044923532e-06   3.362862172559e-05 