8
Step 0
1 1  0.000000000000e+00   0.000000000000e+00   0.000000000000e+00 
2 1  0.000000000000e+00   0.000000000000e+00   0.000000000000e+00 
3 1  0.000000000000e+00   0.000000000000e+00   0.000000000000e+00 
4 1  0.000000000000e+00   0.000000000000e+00   0.000000000000e+00 
5 1  0.000000000000e+00   0.000000000000e+00   0.000000000000e+00 
6 1  0.000000000000e+00   0.000000000000e+00   0.000000000000e+00 
7 1  0.000000000000e+00   0.000000000000e+00   0.000000000000e+00 
8 1  0.000000000000e+00   0.000000000000e+00   0.000000000000e+00 
8
Step 1000
1 1  1.841303199488e-04  -2.290992042067e-05  -7.933614916452e-05 
2 1  1.920251153534e-04  -1.606098043437e-04  -1.020040493677e-04 
3 1 -6.647020016943e-05   3.802353439982e-05   8.585951289175e-05 
4 1  1.125096320238e-04  -1.110400583139e-04  -8.956336510918e-05 
5 1  2.286838880669e-05   5.070272099800e-05   2.027329313343e-06 
6 1  4.710840301686e-05  -2.572378378901e-05   1.959922729492e-04 
7 1 -1.263758887750e-04  -6.696773428690e-05  -4.952605243138e-05 
8 1 -3.471171835903e-05  -1.648607603935e-04  -1.196851753892e-04 
8
Step 2000
1 1  2.514205229844e-04   1.195779638931e-04  -1.526683481075e-04 
2 1  2.279379587517e-05  -2.437245146149e-04  -1.209720994903e-05 
3 1 -1.120324479948e-04  -2.852259965845e-05   7.473488786578e-05 
4 1  2.338727163103e-04  -1.759780349323e-04  -3.887872032179e-06 
5 1  1.716297058395e-04  -2.730581923874e-05  -2.969060858399e-05 
6 1 -2.453312830352e-05   1.480345948827e-04   5.672416514570e-05 
7 1  8.948238483238e-05   4.546958083661e-05  -1.449139167409e-04 
8 1  1.851841835840e-04   1.892645956388e-05   6.773039421198e-05 
8
Step 3000
1 1  1.795277105857e-04   1.124414166353e-04  -1.638462902438e-04 
2 1  1.135584665421e-04  -4.238257143471e-04  -1.653944585322e-04 
3 1  7.177044701268e-05   7.659257799503e-05  -1.099216559410e-04 
4 1 -8.892125652207e-05   5.953534616790e-05  -4.964227299192e-05 
5 1 -1.566145899036e-04   9.069488370639e-05   7.982486567059e-05 
6 1 -9.775320310443e-05  -1.526211344612e-04   2.763152830804e-04 
7 1 -1.905041641959e-04  -8.068525859654e-05  -6.566151895808e-05 
8 1  8.787230860041e-05   6.279151355304e-06  -6.229999488191e-05 
8
Step 4000
1 1  1.646743856333e-04  -1.236738154488e-04  -6.799074136180e-05 
2 1  4.675386415683e-05  -1.100580920082e-04   3.831510572102e-04 
3 1 -8.184752301735e-05   4.488793431724e-05   1.012705120425e-04 
4 1  4.822670765860e-05  -1.582226329141e-04   1.676007808788e-05 
5 1  2.391051455715e-04  -2.790041930002e-04   4.531764306562e-06 
6 1  1.752174835973e-04  -1.473997604733e-04   4.496887598012e-05 
7 1  1.115153417703e-05  -8.400145620678e-06  -1.432247472472e-04 
8 1  2.935138310542e-05   8.312730737247e-05   1.056774939792e-04 
8
Step 5000
1 1  1.118160610517e-04   2.189144940645e-04   6.346881868557e-05 
2 1  4.869255440003e-05  -3.844713279741e-05  -4.820589138203e-05 
3 1  3.465381042086e-05   2.591408599705e-05  -1.198366916590e-04 
4 1 -6.475769491221e-05   1.852751243936e-04   6.213686582755e-05 
5 1 -1.594506623970e-04   4.119332777883e-05   1.630992592911e-05 
6 1 -1.318484839136e-05   1.519449013422e-04   2.924356635216e-04 
7 1 -1.856965389913e-04   3.326776596240e-04   8.971260301592e-05 
8 1  1.559128826891e-04  -1.001818389574e-06   4.969573361607e-05 
8
Step 6000
1 1 -3.719185589193e-05  -8.905502146818e-05   6.046974646630e-05 
2 1 -4.657171243319e-05  -1.813198019968e-04   2.624013854911e-04 
3 1 -2.115376879996e-05   3.102311374139e-05   7.174529417435e-05 
4 1 -1.750796130278e-05  -3.153362194986e-05  -9.228975574042e-05 
5 1 -2.812248039569e-05  -2.902042829505e-04   1.010861890903e-04 
6 1  1.953165093483e-04  -2.032131051088e-04  -1.716448189675e-04 
7 1  1.506144807701e-04   2.227481785547e-05  -2.241399793354e-04 
8 1 -2.486512281225e-04   1.245351561634e-04  -8.646968347953e-06 
8
Step 7000
1 1  2.120730361543e-04  -5.196412907862e-05   1.026624178765e-05 
2 1 -8.484271349507e-06  -1.543026960440e-04  -8.205767620387e-05 
3 1 -5.124941617376e-05   2.054231498583e-05   1.622655110690e-05 
4 1  8.762494463212e-05   3.035495374645e-04   1.802717958749e-04 
5 1 -6.749684109232e-05  -8.229116775256e-05  -5.046611876780e-05 
6 1  1.130807664435e-05   1.219807576043e-04   2.899126621996e-05 
7 1 -2.741952245792e-05   1.519638193194e-04   1.365020500883e-04 
8 1  1.025331021367e-04  -1.135781012141e-05   9.963840737517e-05 
8
Step 8000
1 1 -6.309817310871e-05  -1.619905242221e-04   3.153341959865e-04 
2 1  1.334962130770e-04  -2.774697722878e-04   8.150500699863e-05 
3 1  1.285886891996e-04  -2.908694098010e-05  -5.057102442313e-05 
4 1 -1.786131349813e-04  -2.071722645773e-04  -3.453293952144e-04 
5 1 -2.795905079844e-04  -1.041335656029e-04   2.099001667810e-04 
6 1  8.582761258683e-05   1.127013617562e-04  -4.932033922326e-05 
7 1 -6.396278717809e-05  -5.250028285823e-05  -9.685830583645e-06 
8 1 -7.822715765938e-05   1.716484244155e-04  -1.934132392582e-04 
8
Step 9000
1 1  4.463658247002e-05   6.566890459938e-06   8.283807425611e-05 
2 1 -1.920901918118e-04  -1.379229818178e-04  -3.938656395312e-05 
3 1 -3.250464153859e-04  -1.601436846520e-04  -6.697104720658e-05 
4 1  1.825474115388e-04   1.886656997682e-05  -8.344027225063e-05 
5 1  3.748875990195e-05  -1.035970211467e-04  -3.654731095315e-05 
6 1  2.016671174696e-04   2.524239559670e-05  -1.487884437446e-04 
7 1  6.627663552206e-05   8.433840308678e-05   7.429182143504e-05 
8 1  3.064941105854e-05   1.877007140987e-04   1.219329033889e-04 
8
Step 10000
1 1 -2.065270609017e-04   1.419229613402e-04   1.558944502471e-04 
2 1  1.054194499787e-04  -1.139318675712e-04  -1.453085281246e-04 
3 1  8.024237946320e-05   3.307362981369e-05  -1.789353133970e-04 
4 1 -1.128137419197e-04   6.476363485186e-05  -4.544490966767e-05 
5 1 -9.591823469957e-05  -2.813019906311e-05   1.473454976668e-04 
6 1  9.250261486987e-05   8.034024320140e-05   1.216616039377e-04 
7 1 -2.911644240728e-04   5.337141608795e-05   8.209133290331e-05 
8 1 -8.712011713393e-05  -3.274151181930e-05  -2.348173241824e-04 
8
Step 11000
1 1  1.522973514793e-05  -3.365343570161e-04   2.351138383171e-05 
2 1 -1.708272327886e-04  -4.146543854582e-04  -7.038292198133e-05 
3 1 -7.489284875264e-05  -1.038841089553e-04   1.180661638103e-05 
4 1  1.371562003482e-04  -6.231583103491e-05   1.184851857986e-04 
5 1  1.113824432095e-04   1.985738712014e-05   7.384185138947e-06 
6 1  3.873472836443e-05  -1.086719750383e-04  -2.032231291725e-04 
7 1 -7.737765235051e-05   1.995036124471e-05   1.225230094401e-05 
8 1  4.265704278024e-05   8.851146179379e-05  -2.861832956737e-05 
8
Step 12000
1 1 -1.375860389391e-06   1.104549184024e-05  -1.405978407939e-05 
2 1  5.207592221451e-05   7.941545574165e-05  -7.383430754488e-05 
3 1  2.247029443202e-04   6.871031472536e-06  -2.154309595255e-05 
4 1 -1.054891478479e-05  -2.138837368233e-05  -2.686638860153e-06 
5 1 -2.867975650300e-04  -1.309745081527e-04  -1.193389130702e-04 
6 1  3.051755643932e-05  -1.062017832460e-05   1.991723868622e-05 
7 1 -1.862968899484e-04   1.630277520978e-04   1.493482961160e-04 
8 1  2.260121083105e-05  -6.387009125666e-05   7.668558192357e-05 
8
Step 13000
1 1 -5.290845471046e-05   1.456850956673e-05   3.270208376041e-05 
2 1 -9.149823873986e-05  -1.622014741002e-04  -1.889162638983e-04 
3 1 -2.231446144433e-05   1.209493374732e-04  -9.995945814897e-05 
4 1 -1.060212079667e-04  -4.956206444157e-05  -3.291370160088e-05 
5 1  1.396933740012e-05  -1.892486693135e-04  -8.257949750935e-05 
6 1  1.002826688595e-04   9.063887075547e-05   5.278165413518e-05 
7 1 -1.040573397916e-04   1.285072512255e-04   1.388770937454e-04 
8 1 -1.519901575004e-05  -6.814688161119e-05  -1.543767008304e-04 
8
Step 14000
1 1  1.882535038809e-04  -2.105559542704e-05  -2.246066305827e-04 
2 1  2.630767686836e-06   1.608424315129e-04  -1.398300621705e-04 
3 1 -1.156081333106e-04   7.649258286311e-05   2.178047523214e-05 
4 1  5.115215912030e-05  -1.863695796819e-05   1.843858918054e-04 
5 1 -2.360118241308e-05  -1.537373283673e-04  -9.056459652097e-05 
6 1  2.003038949094e-04   8.430957935832e-05   5.968067440208e-05 
7 1  5.731664880467e-05   1.044573840012e-04   4.779325631151e-05 
8 1 -1.139797199873e-04  -1.726584274939e-04  -6.055868520540e-06 
8
Step 15000
1 1 -3.125142296739e-04   8.494254596498e-05   2.693581559048e-05 
2 1 -4.232318052073e-05  -1.652985139957e-04   1.139056331902e-04 
3 1 -1.312484429638e-05  -1.796795768405e-05   1.899639260227e-05 
4 1 -6.487254306053e-07  -1.562831942230e-05  -6.097918198693e-06 
5 1  4.627683915773e-05  -9.397720208898e-05  -8.718160980311e-05 
6 1 -7.035728789627e-05   6.818144257496e-05  -4.832293328399e-05 
7 1 -3.674375786028e-05  -1.630688680136e-04  -9.353686568811e-05 
8 1 -5.536775402589e-05   3.453560505502e-05  -9.639904766750e-05 
8
Step 16000
1 1  8.136767157326e-05  -1.313905485007e-04  -3.477667771552e-04 
2 1 -1.118892056992e-04   2.750773017660e-04  -3.040398067485e-04 
3 1 -1.658649414254e-04  -8.510732798684e-05  -1.874872200308e-05 
4 1  8.750146484073e-05  -2.591127737198e-05   1.515290790731e-05 
5 1  2.244348214038e-04  -1.822873020987e-06  -6.008002709492e-05 
6 1 -1.852011182745e-05  -3.823707436583e-05  -1.170630554540e-04 
7 1 -4.271071699010e-05   5.406486754619e-05  -1.773463784373e-04 
8 1  1.622538169991e-04  -1.793977284413e-05   9.060031207540e-05 
8
Step 17000
1 1 -3.104977582579e-04   1.435967744216e-04   8.755133824771e-05 
2 1  1.511623181662e-04  -1.136556522487e-04   2.116666963492e-04 
3 1  2.001264928390e-04   4.788986866562e-05  -2.749145643485e-05 
4 1  1.730867118981e-05  -3.350657818019e-05   1.108499031873e-04 
5 1 -3.703473292630e-04   4.589223546710e-05   3.640568078499e-05 
6 1 -3.496005100560e-06  -5.382759571201e-05   1.954450709509e-05 
7 1 -1.147071158280e-04   1.839368587002e-05   7.761331089282e-05 
8 1  9.131584923246e-05   9.727152718050e-05   3.472626328250e-05 
8
Step 18000
1 1  2.742314761469e-05  -1.791740108968e-04   2.125826276103e-05 
2 1 -4.401278797560e-05   3.349898904937e-05  -3.213126844737e-05 
3 1 -1.437672898163e-04  -4.810728548706e-05   6.621482258690e-05 
4 1  2.203606838454e-05  -1.244637860433e-04  -3.155290381458e-05 
5 1  8.975695117801e-05  -5.541871541210e-05  -2.981194413747e-04 
6 1  9.216223703910e-05   1.606814338612e-04   5.299810585623e-05 
7 1  1.258148110465e-04   2.056414481598e-05   7.592611405382e-05 
8 1  1.626275248121e-04  -1.431141880163e-04  -7.624498116679e-05 
8
Step 19000
1 1 -1.243618431570e-04   1.533576578598e-04   2.188041144416e-04 
2 1  1.379461971408e-05   6.845049535796e-05   7.414560043962e-05 
3 1  2.013696715449e-05   4.999968544076e-05  -5.472877599542e-05 
4 1  2.332753918022e-04   6.527391307810e-05   1.463577444365e-04 
5 1 -5.426250308196e-05   1.229175622409e-05   5.538935091191e-05 
6 1 -1.991350681910e-04  -2.533308592512e-05   3.797234414857e-05 
7 1 -1.920115128015e-04   1.182008202179e-05  -9.460195228510e-05 
8 1  2.110137574693e-04   1.513117546168e-04   5.984450952868e-05 
8
Step 20000
1 1  3.447452285276e-05  -2.075205584638e-04  -2.072214836071e-04 
2 1 -1.596947391705e-04  -8.241764727526e-05  -3.848359623247e-05 
3 1 -3.916641688531e-05  -1.195315479029e-04   2.247426454815e-04 
4 1 -5.970276089043e-05  -1.412335499680e-04  -7.868697933124e-05 
5 1 -9.205401778906e-07   2.311147052861e-05  -8.414644817083e-05 
6 1 -1.220030722301e-04   2.487607275013e-06  -2.813787854834e-05 
7 1  3.199368125184e-05  -1.148785598821e-04  -9.678746089383e-06 
8 1 -1.215188691412e-05  -2.901308204474e-05   9.921319446392e-05 
8
Step 21000
1 1  1.675683814640e-04   4.367500744611e-05   4.399111140542e-05 
2 1  2.005481028954e-04   2.436305223198e-04   1.751722754265e-04 
3 1  5.904520206002e-05   1.282993931636e-04  -3.922928869946e-05 
4 1  2.363059764020e-04   1.846349891013e-04  -3.446758817715e-05 
5 1  1.509533052963e-04   4.220948472024e-05   4.491389054597e-06 
6 1  2.858206264436e-06  -1.508344984641e-04  -2.472879494229e-04 
7 1  1.356458149924e-04   1.661746749551e-04  -1.382813755414e-04 
8 1 -3.124259775889e-05  -1.039301688079e-04   1.062381929721e-04 
8
Step 22000
1 1 -1.319143757170e-04  -1.691504760291e-04  -1.911273451838e-04 
2 1 -8.779588538635e-05  -1.379277295973e-04   2.817546970113e-05 
3 1 -6.901803192110e-06  -5.256651187080e-05   1.468050360158e-04 
4 1 -2.105682225665e-04  -1.428548355128e-04  -6.799732007978e-05 
5 1 -1.959904297326e-04   8.965670704433e-05  -6.583274852849e-05 
6 1 -5.737231801028e-05  -3.397594782407e-05   2.664419771498e-04 
7 1 -4.747938608246e-05   1.900436278034e-04  -4.952632672538e-05 
8 1 -2.999275560705e-04  -1.688796875761e-06  -2.807148014103e-05 
8
Step 23000
1 1  1.894167578496e-04   5.633299987812e-05  -4.319007424716e-05 
2 1  3.420081933421e-05   2.528056736530e-04  -6.694678543252e-05 
3 1 -9.626990128525e-05   9.417142970178e-05  -2.540521082621e-04 
4 1  1.023449065120e-04  -9.016000563036e-07  -2.155020805926e-04 
5 1  1.115195278564e-04  -1.783174995609e-04  -4.468231590848e-05 
6 1  1.356445560471e-04   4.833976080458e-05  -1.437469332437e-04 
7 1  8.815632223368e-05   2.517220708632e-04  -2.908309932326e-04 
8 1  4.193374193862e-05  -6.198207603116e-05   1.507476393082e-05 
8
Step 24000
1 1 -3.134358524674e-05  -5.644376286581e-05  -9.644710454206e-05 
2 1  2.721661892451e-05  -2.591014810111e-04  -1.289196170515e-05 
3 1  1.961540006212e-04  -3.118725411991e-04   1.457487244688e-04 
4 1 -4.845668971508e-05  -2.930378569642e-04   1.435892289325e-04 
5 1 -1.598295182881e-04   7.796617594502e-05   1.284343926213e-04 
6 1 -4.841334789591e-05   1.064879769275e-04   6.431901425327e-05 
7 1 -2.091271368424e-04   3.809513181591e-05  -7.605864682859e-05 
8 1 -4.779148012684e-06   2.300770930988e-04   1.068494322460e-04 
8
Step 25000
1 1  1.891610095833e-04   9.557992128286e-05  -1.098219826169e-04 
2 1 -1.961697148362e-05   1.002572003521e-04  -1.235309119158e-04 
3 1  2.226061454654e-07   1.033193357246e-04  -2.644701654360e-05 
4 1  6.348799925187e-05   1.001566247665e-04  -2.250279951684e-04 
5 1  3.573011242409e-05   3.743017867564e-05  -1.172617986664e-05 
6 1 -2.990841073183e-04   6.330828737036e-05   1.204904022117e-04 
7 1  2.579077087959e-06  -1.459803016849e-04   3.442914466633e-05 
8 1  1.988633901751e-04  -2.066354981338e-04   9.729522527158e-06 
8
Step 26000
1 1 -1.355549105162e-04   2.030010110387e-05   1.614117056755e-04 
2 1  9.700180708201e-06  -3.031107360582e-04   3.087879596256e-04 
3 1  6.185633090167e-05  -2.422357358764e-05   1.684481557351e-04 
4 1  1.587941894941e-05   1.072165544248e-05   1.615381071918e-04 
5 1 -5.147594900560e-05  -1.558200453783e-05   1.254452916576e-04 
6 1  3.257164019431e-05   5.952588262859e-05  -2.024234692645e-04 
7 1 -2.142258884523e-05   7.187137680147e-05   5.678678665736e-05 
8 1 -7.746138651352e-06   5.824453493256e-05   2.589394391226e-05 
8
Step 27000
1 1  1.418877778714e-07  -1.283107641125e-04   1.034810416445e-04 
2 1 -1.712862071260e-04   8.458014041867e-05  -1.382482297430e-04 
3 1 -2.054398534611e-04   4.077017194149e-05  -1.076488066152e-04 
4 1 -1.076672760009e-04   8.030985373807e-05  -3.341674420724e-04 
5 1 -1.448177727874e-05  -3.859176084905e-05  -1.214317092096e-04 
6 1 -1.729598244096e-04  -1.376088263827e-04   1.666093068139e-04 
7 1 -7.592568405715e-05  -5.004209807447e-06   2.940381024101e-04 
8 1  1.369844311047e-04   1.515420329765e-04  -1.872188273980e-04 
8
Step 28000
1 1  7.035852447523e-05   6.683920102223e-05   6.770910694048e-05 
2 1  1.879959653408e-04  -6.620054095777e-05   3.339272205433e-04 
3 1  2.260082208269e-04   2.094926828927e-05  -4.889507930904e-05 
4 1  1.828028390716e-05   4.532384208229e-05   3.150780159689e-05 
5 1  1.138596535551e-04  -1.370026161381e-04   2.581141953053e-04 
6 1 -1.859367664432e-05   4.593578957218e-05  -8.885664291011e-05 
7 1  9.078767121915e-05   9.946495967727e-05   7.341209849709e-05 
8 1  2.892487371285e-04  -1.344833687385e-04   2.700335443513e-04 
8
Step 29000
1 1 -2.006789485979e-04  -2.016361933658e-04   1.169216004403e-04 
2 1 -2.066137210428e-04  -1.891611756715e-05  -6.443626157654e-05 
3 1 -8.639770600466e-05   2.244774806170e-05  -1.399743483354e-04 
4 1 -4.803908968737e-04  -2.949746395069e-05  -2.724710110886e-04 
5 1 -2.304020274627e-04  -3.277280012429e-04  -2.073167481918e-05 
6 1 -1.285308269928e-06   1.653626381387e-04  -6.567179318758e-05 
7 1 -2.389989330676e-04   1.785535157443e-05   9.512917815363e-05 
8 1  1.224541524929e-04   5.948646762946e-05  -1.034324659626e-04 
8
Step 30000
1 1  9.155368178084e-05   1.226089576924e-04   3.129201099813e-05 
2 1  3.306962495251e-04  -1.626416666036e-04   8.517395657838e-05 
3 1  1.442958633693e-04   1.058701646184e-04  -6.509428528971e-05 
4 1 -1.524595592233e-04  -5.704157130988e-05   3.276160781664e-05 
5 1  2.681345062613e-04   1.358819683496e-04  -1.700313116695e-05 
6 1  9.902007676000e-05   7.433786737159e-05  -8.034031524817e-05 
7 1  2.767682837960e-04  -9.170948888063e-05  -1.193160805802e-04 
8 1  1.620203401662e-04  -1.717924519045e-04   6.549980427905e-05 
8
Step 31000
1 1 -2.016198626081e-04  -8.648084979642e-05  -1.237062842761e-04 
2 1 -1.310996161498e-04   7.622208254217e-05  -2.718753958731e-04 
3 1 -1.529532764706e-04  -9.723713597149e-05   8.066393507483e-05 
4 1 -3.841668301900e-04   3.045955157619e-05   1.395135386524e-04 
5 1  3.434369378682e-05   1.740394873912e-04   7.962020162006e-05 
6 1  7.244581799260e-05   1.281355888075e-05  -1.075728721304e-04 
7 1 -1.838812699844e-04  -1.751509685333e-05   1.007108588763e-04 
8 1 -1.761614594328e-04  -6.249013147590e-05   2.574731933750e-04 
8
Step 32000
1 1  1.537253584431e-04   1.409047752668e-04   2.291154649198e-04 
2 1  4.176104463299e-05  -1.126511527867e-05   2.862586297817e-05 
3 1  3.194860982805e-04   1.505461274794e-04  -1.577621194900e-05 
4 1  1.863770228619e-05   1.499130468449e-04   1.786868575954e-04 
5 1  1.108000872050e-04   2.914880836397e-05  -1.032363288203e-04 
6 1 -2.743360577674e-04  -9.473049976629e-05   2.093522782629e-05 
7 1 -1.483446624286e-05   6.932737937413e-05  -4.911509682535e-05 
8 1  2.201135185429e-05   1.088413067915e-04  -1.043990880509e-04 
8
Step 33000
1 1 -6.770772694666e-05  -4.960096488280e-05   1.698711536448e-05 
2 1  2.250968435616e-05  -1.619425991661e-05   1.202732082908e-04 
3 1 -8.059885753797e-05  -3.832595074456e-04   1.184624783159e-04 
4 1 -1.190682549779e-04   9.630210168328e-05   2.144129741734e-05 
5 1 -1.150963758990e-04  -1.239155348210e-04   1.907465931604e-04 
6 1  2.505593058109e-04   6.318560826938e-06  -1.057705069823e-04 
7 1 -8.677223432686e-05  -7.529640411162e-05   8.409607928601e-05 
8 1  8.732728024533e-05  -3.129567734215e-05   1.410657162489e-04 
8
Step 34000
1 1  2.737241222510e-04   4.702908323235e-06  -7.489479343393e-05 
2 1 -9.514052465170e-05   6.959026729006e-05  -2.307755823348e-05 
3 1  7.467652996610e-05   6.780775886534e-05  -2.220776890556e-04 
4 1  6.601966525326e-05  -1.309919031012e-04  -4.381881654052e-05 
5 1 -6.002213004845e-05  -1.519434327768e-04  -1.546907896081e-05 
6 1 -8.900249467179e-05  -1.884146939090e-04  -2.454342182403e-04 
7 1  1.004853638268e-04   1.628080387674e-04   7.634543030487e-05 
8 1  1.790366990499e-04   3.458292760894e-05  -1.408396513829e-04 
8
Step 35000
1 1 -8.364518709611e-05   3.986756038841e-05  -1.947626898801e-04 
2 1  1.640890200997e-04  -1.020384876115e-04   2.849497249418e-04 
3 1 -7.304912593713e-05  -1.437665153315e-04   1.575240785199e-04 
4 1 -8.756083271757e-06   2.291300122855e-04   1.219391728050e-04 
5 1 -4.107562832120e-05  -9.788045628938e-05   9.204015518687e-05 
6 1  5.123489971941e-05  -6.027682732542e-06  -5.170199060312e-05 
7 1  5.646457271300e-05   8.775321025490e-05   1.463067483754e-04 
8 1 -9.516138345335e-06  -6.323469783271e-05   6.345208654540e-05 
8
Step 36000
1 1  9.007446249699e-05  -4.817883784078e-05  -7.693978341201e-05 
2 1 -1.599066536793e-04   3.030619805452e-04  -7.249205244212e-05 
3 1 -3.826644560318e-05  -3.381099034476e-05  -2.290594124860e-04 
4 1 -3.297844291716e-05  -1.808221153070e-04  -6.814548457459e-05 
5 1  4.796664220138e-05  -2.655247917386e-04   1.119026488729e-05 
6 1 -9.069306681536e-05  -2.402865875817e-04  -1.878186106586e-04 
7 1 -2.128530830940e-04  -7.176340858149e-05   8.420304444454e-05 
8 1 -1.560883240225e-04   1.492782612845e-04  -2.144205908437e-04 
8
Step 37000
1 1 -2.804102977763e-05   1.863223421298e-04  -2.607415870387e-04 
2 1  5.658129127105e-05  -1.150391555859e-04   9.943834621744e-05 
3 1 -2.902913920170e-04  -1.029044827901e-04   8.222417736345e-05 
4 1  1.224102798766e-04   1.605157749538e-04   2.082972631965e-04 
5 1 -1.018669058046e-05  -1.294450974386e-04   3.946008387076e-05 
6 1 -1.936571973280e-04   1.227706454954e-04   8.805771802931e-05 
7 1  1.764712113941e-04   1.050207187089e-04  -3.580277790255e-05 
8 1 -2.366552859709e-05   1.357327982737e-04  -2.118584949347e-04 
8
Step 38000
1 1 -8.847284871419e-05  -2.173777765016e-04  -3.252050663254e-05 
2 1 -1.291460445797e-04   1.534287454337e-04  -2.691767367495e-04 
3 1 -3.366827368854e-05  -1.107999605518e-04  -1.254935323638e-04 
4 1 -6.818988003834e-05  -2.027982755261e-04  -6.560113780485e-05 
5 1  5.622187456239e-05  -1.524394971167e-04   3.622612698487e-05 
6 1  4.432331252025e-05   2.552030812453e-05  -2.104538839523e-05 
7 1 -1.952241245810e-04  -1.529374091492e-04  -2.000730362410e-05 
8 1 -6.076193241619e-05  -2.804610050865e-05   2.879556261347e-05 
8
Step 39000
1 1  2.054869837714e-04   1.463193525766e-04   5.120418971939e-05 
2 1  2.549828935205e-04  -3.357772700109e-05   5.076179604929e-05 
3 1  1.947886590640e-04   1.961333987265e-06   1.563700200985e-04 
4 1  1.284962583510e-04   8.135482317641e-05   1.880998782390e-04 
5 1 -8.398889790688e-05  -1.254517823567e-04  -5.508390946106e-05 
6 1 -1.839970997609e-04   2.417240067200e-05  -5.846200360520e-05 
7 1  1.127622809979e-04   1.640046176351e-04  -7.039769157254e-05 
8 1 -3.750411638622e-06   5.136711143390e-05  -5.314753099559e-06 
8
Step 40000
1 1 -2.422057949579e-04  -4.091186629024e-05  -4.599635331056e-05 
2 1 -6.569474927525e-05  -7.015230859027e-05  -6.457811373613e-05 
3 1 -1.875366673642e-04  -1.829522271175e-04  -2.905495209112e-05 
4 1 -1.512340138138e-04  -1.499918438674e-04  -1.213746507763e-04 
5 1 -4.747277581988e-05  -7.841144664920e-05   2.873649319113e-05 
6 1  1.638395723862e-04   1.986079770113e-04  -1.094303737065e-04 
7 1 -9.796224469989e-05  -1.157056699191e-04   1.352300552385e-04 
8 1 -1.492557937685e-04  -3.023268179727e-04   6.220850306353e-05 
8
Step 41000
1 1  3.490828060613e-04   4.673952771160e-05  -3.628978362950e-05 
2 1  3.988614356091e-05   1.584650695353e-04   5.672274539443e-05 
3 1  8.772239898177e-05   1.409859191769e-04   9.441304613689e-05 
4 1  1.586588043293e-05   9.892576958969e-05   6.940406776273e-05 
5 1 -4.398127479056e-05   8.995201380417e-05  -8.706538471672e-05 
6 1  1.387154390729e-04   1.071101644472e-04   3.714209360122e-05 
7 1  2.243230179879e-06  -1.235712047234e-05   1.952052505707e-04 
8 1  7.377930225819e-05   2.037863422469e-04  -1.000872890943e-04 
8
Step 42000
1 1 -5.589079686418e-05  -1.202956998078e-04  -7.289750662413e-05 
2 1 -2.857833993717e-05  -2.460616513570e-04  -1.406159656411e-04 
3 1 -1.211532741076e-04  -9.878516558586e-05   4.971817890953e-05 
4 1 -6.256560408390e-05   1.115210945632e-04  -2.004099342185e-04 
5 1 -1.558788055958e-04  -4.263260421707e-05   7.533898056372e-06 
6 1  2.759012390886e-05   1.715408821414e-05   2.117610338785e-04 
7 1  6.604497571546e-06  -4.007740631969e-05  -2.068626399479e-04 
8 1 -1.770652570725e-04   1.229893372878e-04  -5.848902472117e-05 
8
Step 43000
1 1  2.057750730649e-04  -7.245887492705e-05   8.026672137100e-05 
2 1 -1.024190901221e-04   1.971045975875e-04  -1.858031721278e-04 
3 1  3.895101864651e-04   1.365498293946e-04   3.196375940100e-05 
4 1 -1.873674198722e-04   3.310799800084e-05   2.359029390173e-05 
5 1 -9.292358067735e-05   7.384632013762e-05  -1.570259519231e-04 
6 1  1.640453857426e-04   3.797897264197e-05  -3.515130119827e-04 
7 1 -4.169900827347e-05  -5.518675887623e-05   1.189491582722e-04 
8 1  1.681333312405e-04   1.616871742986e-04  -5.180293665630e-05 
8
Step 44000
1 1 -7.974004105944e-05  -5.519169115183e-05  -1.991315747070e-04 
2 1  2.247416235225e-04  -2.705695457694e-04   8.672610513552e-05 
3 1  1.527735031497e-05  -1.943934142242e-04   6.440706645290e-05 
4 1 -1.513332858046e-04   1.060626846760e-04  -3.331335727123e-04 
5 1 -2.923870537284e-05  -2.272464045976e-04  -3.315925655863e-05 
6 1  2.735623607173e-05  -1.925269480319e-04   5.087136521396e-05 
7 1  1.894739082551e-04   8.573750140438e-05  -1.900406396157e-04 
8 1 -1.732014526128e-04  -1.326409868557e-04  -2.456310795482e-06 
8
Step 45000
1 1  1.772997948477e-04  -1.602046538727e-04   3.072828454313e-04 
2 1 -5.237207682487e-05   7.012168508741e-05  -6.625038180340e-05 
3 1 -4.124333527210e-05   1.033487441461e-04  -4.752880672406e-05 
4 1 -2.228694073070e-04  -4.335805321600e-05  -4.202176290385e-05 
5 1  2.017909413727e-05   1.461381266624e-04   1.077311045152e-04 
6 1  1.192665628968e-04   1.179525345457e-04  -5.348639524893e-06 
7 1 -3.353541548040e-04   1.194447919388e-04   1.465668849103e-04 
8 1  4.076801073237e-05   4.675186832206e-05   1.520248977228e-04 
8
Step 46000
1 1 -1.944600159949e-04   1.624308276967e-04  -1.405138467007e-04 
2 1  2.941372921663e-04  -2.794720545937e-05   1.123723166194e-04 
3 1  1.312759270512e-04  -9.309911344645e-05  -4.488662512731e-05 
4 1  2.740820421107e-04   1.154304725420e-05  -1.829885770141e-04 
5 1 -4.933061349491e-05  -1.728856342577e-04   2.244628940111e-05 
6 1 -1.567157497503e-05  -1.214847117604e-04   1.172184888175e-04 
7 1  6.113775145996e-05  -1.286666087610e-04  -2.909590264972e-06 
8 1 -1.022834989466e-04   9.021150294779e-05   1.489930600457e-05 
8
Step 47000
1 1  1.919209518542e-04  -9.534147694572e-06   1.183364905712e-04 
2 1 -3.331929474244e-05  -1.106366408775e-04  -8.844572749266e-05 
3 1 -1.055672871590e-04   2.182520947196e-04  -1.460943501707e-04 
4 1 -4.672155000706e-05   4.759512957266e-05  -5.119353113769e-06 
5 1  6.290265068664e-05   3.144518024627e-05   7.046472686938e-05 
6 1  1.202631829794e-04   2.213611952364e-06   1.332938895563e-05 
7 1  1.124660247806e-04  -1.466703146311e-05   1.732821542437e-05 
8 1 -2.054715181588e-04  -9.106852248014e-05   9.343780747469e-05 
8
Step 48000
1 1  2.341394278331e-04   2.188409863364e-04  -3.791669038286e-04 
2 1  1.254320446923e-04   1.421878358943e-04   1.723367458498e-04 
3 1  1.591827121374e-04   5.341524585884e-06  -1.878744781208e-04 
4 1  6.886002662379e-05   2.283579327038e-04  -9.110988009481e-05 
5 1  3.906050573372e-06   5.995108999883e-05  -7.117718774509e-05 
6 1 -1.837324786162e-04   2.687170274728e-05  -1.034454006103e-04 
7 1  5.855712378603e-05   9.543173260954e-05   8.294322927097e-05 
8 1  5.836470405473e-05  -2.411875042034e-05   1.329003603821e-04 
8
Step 49000
1 1 -1.321494937856e-04  -1.717978949018e-04   4.628232429090e-05 
2 1 -5.869479511833e-05  -2.985244613753e-04   3.472886277322e-05 
3 1 -1.640764897483e-04   1.097836566941e-05  -1.574671252824e-04 
4 1 -9.421387484122e-05  -2.080585455468e-05  -5.034648161761e-05 
5 1  7.186984900562e-05  -1.292343435699e-04  -1.107278639316e-04 
6 1  5.666651194062e-05  -1.917785755260e-04   1.765380685433e-05 
7 1  1.791505049679e-04  -1.353433253118e-04  -7.152738950641e-05 
8 1 -1.124797122884e-04   1.953548250729e-05   8.970128182748e-05 
8
Step 50000
1 1  2.221330277776e-04   1.940440715481e-04   1.301493556982e-06 
2 1 -4.713488679453e-05   3.025140071724e-04  -3.286241627954e-06 
3 1  1.501449827333e-04   1.254317099490e-04  -1.834883031698e-04 
4 1  7.493622200149e-05   7.487504151179e-05  -7.678551120822e-05 
5 1  5.198929099633e-05   2.862005877689e-04   3.829322544273e-05 
6 1 -1.480839109574e-04   1.562003672262e-04   1.045150647279e-05 
7 1 -8.625555903546e-05   2.341557821334e-04   5.852117615000e-05 
8 1  1.417514769902e-04  -1.102663688903e-04  -1.536469732163e-04 
8
Step 51000
1 1 -4.860878229543e-05  -1.753121965112e-04   1.320065714179e-05 
2 1  6.980423857013e-05  -1.222445953611e-04   2.018745057097e-04 
3 1 -1.473927610579e-04  -2.537380076139e-04   1.433029160514e-04 
4 1 -1.832053411284e-04  -3.005079119066e-05  -5.823962559075e-05 
5 1 -1.096866888213e-04  -1.311236969336e-04   5.167369147003e-05 
6 1 -1.636439951360e-04  -8.539309647814e-05   5.704656401614e-05 
7 1  3.195814435417e-05  -2.206575200365e-04  -1.161357545197e-04 
8 1 -9.168285706789e-05  -8.012430206926e-05   2.203758599652e-05 
8
Step 52000
1 1 -6.664097613019e-05  -5.611742506116e-05   1.735136091146e-04 
2 1  7.979312571940e-07   2.125379795403e-04  -1.135694153706e-04 
3 1  5.308302390801e-05   1.871587450256e-04  -2.361582325844e-04 
4 1  7.147406308632e-05   1.292110562187e-04  -7.078017001536e-05 
5 1  9.558398821907e-05   1.464683582528e-04   7.721327871992e-05 
6 1  1.822579795260e-05   8.893298555627e-05   9.054321758487e-05 
7 1 -5.126786851106e-05  -3.306331120889e-05  -2.530702384064e-05 
8 1  9.381510877126e-06   1.104727306061e-04   1.155203414036e-04 
8
Step 53000
1 1 -2.532565307935e-04  -1.624445331367e-04   1.294834648980e-05 
2 1  7.807309069616e-05  -1.828346258493e-05   7.659066802999e-05 
3 1 -1.404640656768e-05  -2.205193006738e-04  -5.729044709587e-05 
4 1 -1.998928546232e-05  -1.287935720780e-04  -1.122114635319e-04 
5 1 -2.449233250162e-05  -1.221782527690e-04   8.203544907453e-05 
6 1 -7.398199570401e-05   2.058953806898e-04  -2.390344207619e-04 
7 1 -1.170164473839e-04   4.180456311325e-05   3.201148805525e-05 
8 1  6.619477326341e-05   1.183205043735e-04  -5.657530181447e-05 
8
Step 54000
1 1 -9.122752272688e-05  -8.623134275656e-05   3.249390862395e-05 
2 1 -1.671117071737e-04   1.622763175035e-04  -2.592804860676e-04 
3 1  3.814535923183e-05   7.852089833153e-05  -2.948886284416e-04 
4 1  8.558270573214e-05   3.578406619768e-05   2.674255390591e-04 
5 1  1.330323876467e-04  -4.551694666590e-05   1.237529450839e-04 