8
Step 0
1 1  0.000000000000e+00   0.000000000000e+00   0.000000000000e+00 
2 1  0.000000000000e+00   0.000000000000e+00   0.000000000000e+00 
3 1  0.000000000000e+00   0.000000000000e+00   0.000000000000e+00 
4 1  0.000000000000e+00   0.000000000000e+00   0.000000000000e+00 
5 1  0.000000000000e+00   0.000000000000e+00   0.000000000000e+00 
6 1  0.000000000000e+00   0.000000000000e+00   0.000000000000e+00 
7 1  0.000000000000e+00   0.000000000000e+00   0.000000000000e+00 
8 1  0.000000000000e+00   0.000000000000e+00   0.000000000000e+00 
8
Step 1000
1 1  2.779250951964e-04   2.462390220801e-05  -2.149683070290e-04 
2 1  2.165413911506e-04  -2.146557411121e-04  -5.800812733062e-05 
3 1 -2.776639185892e-04  -1.374630890707e-04  -6.961009716001e-05 
4 1  6.054247011432e-04  -1.604173777292e-04   6.984986993465e-05 
5 1  1.568281951770e-04  -1.810200605288e-04  -1.715283383653e-04 
6 1  9.824252650026e-05   1.956003025745e-04   1.220194500102e-04 
7 1  2.758336644540e-06   5.904348531525e-05  -1.887779825896e-04 
8 1  7.417179011098e-05  -6.358703205457e-05   7.688240553863e-05 
8
Step 2000
1 1  1.541086160494e-04   2.013917493648e-04  -1.102221423350e-04 
2 1  5.038759862926e-05  -2.028657321036e-04  -9.329562454839e-05 
3 1  8.265685602710e-05   1.444344976105e-04   4.028322680337e-05 
4 1 -8.233399550513e-05   2.833950429510e-05  -1.525124133015e-04 
5 1  7.849177324031e-05   3.432387199483e-05   1.325607531677e-04 
6 1  1.779889467924e-05  -1.112880968298e-04   1.129615165929e-04 
7 1  5.208007920704e-05  -2.720307126985e-05   6.104734849904e-06 
8 1 -4.616217242660e-05  -9.400020755246e-05  -2.112399651363e-04 
8
Step 3000
1 1  3.552041950876e-04   1.334090800008e-06  -1.000812787567e-04 
2 1  9.662661599785e-05  -2.403696712595e-04   1.323074720101e-04 
3 1 -7.762339152758e-05  -1.030693759647e-04   9.545956942618e-05 
4 1  2.440389518368e-04  -1.367626030734e-04   2.456301900208e-04 
5 1  2.648330932626e-05  -2.489939176164e-04  -2.281729602169e-04 
6 1 -2.022641882134e-04   9.627772147492e-05   9.260014100990e-05 
7 1  8.898169918771e-05   1.535737557381e-04  -3.868846130946e-04 
8 1  5.275576488442e-05  -3.582708150598e-05   1.663834958274e-04 
8
Step 4000
1 1  2.473495576548e-04   2.062249982797e-04  -1.059380658841e-04 
2 1  1.095827207201e-04  -1.965930409412e-04  -2.774054811057e-05 
3 1  1.512044181913e-04   1.759138137838e-04  -2.603463523554e-04 
4 1 -1.810484241065e-04   2.459454723805e-04  -4.169704687586e-05 
5 1 -1.121445945980e-04   1.966744026992e-04   1.182570296511e-04 
6 1  1.158141187598e-04  -1.651417393110e-04   1.714848550179e-04 
7 1 -2.151047209210e-04   8.381838247130e-05   3.925133977970e-05 
8 1  9.616240017188e-05   4.772414085180e-05  -1.009646803387e-04 
8
Step 5000
1 1  2.005015453591e-05  -2.470457643528e-05   1.105203882053e-04 
2 1  8.504055688537e-06   3.305496551870e-06   2.552335992890e-04 
3 1 -2.944506487979e-04  -3.889999689464e-06   1.050796629616e-05 
4 1  1.761135428436e-04  -2.031914828844e-04  -4.153953313671e-07 
5 1  9.407493296926e-06  -2.555117682460e-04  -5.461366301130e-05 
6 1  2.890103000357e-04  -9.636182565638e-05  -1.015113631344e-04 
7 1  5.152850269869e-05   6.341624984359e-05  -4.972472436888e-04 
8 1 -5.931308342364e-05   1.516743986848e-04   3.286697038941e-04 
8
Step 6000
1 1  2.225913378524e-04   2.998922606245e-04   4.779730750527e-05 
2 1 -4.317292550780e-05  -2.951816439639e-04  -2.440090093553e-04 
3 1  4.759079685088e-05   8.105461411179e-05  -8.023705383967e-05 
4 1 -1.508673625818e-05   1.429594423611e-04   1.304573524244e-04 
5 1 -6.939972524467e-05   8.493692128003e-05  -5.507163230249e-05 
6 1 -2.006772543421e-04   1.394133670648e-04   2.037108877040e-04 
7 1 -3.518501532515e-04   9.562707319810e-05   1.569767631860e-04 
8 1  2.107773488763e-04  -1.685296857323e-04  -2.676987737616e-05 
8
Step 7000
1 1 -2.603476475362e-04  -3.262318510432e-05   1.561760549169e-04 
2 1  3.877206098591e-05  -1.224701382866e-04   1.977115586465e-04 
3 1  4.866650784580e-05  -5.253366209778e-05  -5.311575350911e-05 
4 1  7.232767331450e-06  -4.848693926717e-05  -4.059875830688e-05 
5 1 -8.125380531637e-05  -1.278555156965e-04   1.066566012663e-04 
6 1  9.539754106186e-05  -1.711171808945e-04  -2.509166376335e-04 
7 1  2.513454004883e-04   6.261349591200e-05  -1.486351121181e-04 
8 1 -1.621067757436e-04   2.756884039778e-04  -1.624425609893e-05 
8
Step 8000
1 1  1.018205558079e-04  -5.452321875373e-05   1.022943923042e-04 
2 1 -2.020286174022e-04  -2.482413930961e-04  -1.412602780997e-04 
3 1 -7.777972154906e-05   7.296566917304e-05  -3.356608645798e-06 
4 1  1.790710666246e-04   9.141412271079e-05   3.255765013738e-05 
5 1 -1.907590642224e-05  -1.124521835246e-04  -3.314842824135e-04 
6 1  3.541381938751e-05   2.451459923395e-04   9.174554859076e-05 
7 1 -4.410691626487e-06   3.513615572912e-05   1.856288099162e-04 
8 1  2.825722815046e-05   2.450562035275e-05   1.015939129197e-04 
8
Step 9000
1 1 -8.987718994504e-05   1.092986955294e-04   3.438891238995e-04 
2 1  1.060119467879e-04  -1.798641990486e-04  -1.382292453081e-04 
3 1  7.038236545494e-05  -1.887188626207e-04  -1.321849592307e-04 
4 1 -7.232949034926e-05  -1.232861113494e-04  -1.540516932416e-04 
5 1 -1.029044425342e-04  -2.115450235836e-05   2.828933128296e-04 
6 1  4.581346419461e-05   5.365552399557e-05  -2.158597082834e-04 
7 1 -1.584735133213e-04   1.199964143749e-04   2.572469760273e-05 
8 1 -1.132513697958e-04  -3.041368706260e-05  -1.986521031489e-04 
8
Step 10000
1 1  6.591472807385e-05  -2.203911449126e-04  -5.181013047544e-05 
2 1 -1.807340247063e-04  -2.081183617149e-04  -1.593015032737e-04 
3 1 -1.908752806835e-04  -2.301687463244e-04  -9.024333485139e-05 
4 1  3.020714331889e-04   1.147041800543e-04  -1.103476008737e-04 
5 1 -1.108988747542e-05  -3.495609740989e-05  -8.675903559478e-05 
6 1  2.090719588370e-04   2.127932933246e-06  -6.417705556667e-05 
7 1 -5.513241320702e-06   1.349832574024e-06  -1.632373062140e-05 
8 1  2.925440678927e-04   2.219209255102e-05   2.231860991685e-04 
8
Step 11000
1 1  1.308050201690e-05   1.868827677425e-04   1.446077834936e-04 
2 1  2.122574151197e-05  -7.356019206369e-05  -1.052072236505e-04 
3 1  3.381267887014e-05  -2.907602364693e-05  -9.927573766589e-05 
4 1 -1.819989406579e-04  -4.921964955438e-05   2.320386268546e-04 
5 1  9.492045852013e-07  -5.239710278577e-06  -2.630979307438e-05 
6 1 -2.423874301941e-05   5.981664180341e-05   5.722422073104e-05 
7 1 -9.981708508950e-05   5.831344923238e-05   9.101355658296e-05 
8 1  4.061989004488e-05  -1.376372325864e-04  -1.352886959253e-04 
8
Step 12000
1 1 -8.219036153635e-05  -1.276094889416e-04  -1.161772045445e-04 
2 1 -1.388416382655e-04  -1.027757125461e-04  -2.217845384520e-04 
3 1 -4.715943625921e-05   8.426440527808e-06   4.187163838978e-05 
4 1  5.939836480350e-05  -4.738924708080e-05  -1.411872033625e-04 
5 1  5.407568706307e-05  -1.026725045377e-04  -6.515877033299e-05 
6 1  3.497570089999e-05  -3.056957593464e-04  -4.923656934331e-05 
7 1 -3.004152071019e-05   2.045295504556e-04   6.679841749797e-05 
8 1 -1.068458192517e-05   3.250618189355e-04  -4.115794358973e-05 
8
Step 13000
1 1  3.798092894372e-05   1.293457529746e-04  -6.817450470195e-05 
2 1  1.325534770578e-04   1.320808814890e-04  -1.544000295812e-04 
3 1 -2.405255724518e-05   3.014210184789e-05   6.467817102870e-05 
4 1 -9.670417039906e-05  -2.293904555497e-05   6.398908099281e-05 
5 1 -1.325001655861e-04  -2.268035048277e-04  -1.401515624012e-04 
6 1  2.764424131552e-04   2.190856500989e-04   1.118703165881e-05 
7 1 -1.142601220837e-04   6.174277189914e-05   3.039558356550e-04 
8 1  7.784179901420e-05  -2.229260721148e-04  -1.013900180509e-04 
8
Step 14000
1 1 -1.235461890946e-04  -1.623816457891e-05  -1.014033509159e-05 
2 1 -8.109653179222e-05  -9.178255127476e-05  -1.212031669946e-04 
3 1  4.364168472431e-05   1.576016206122e-04   5.677718955825e-05 
4 1 -1.001106914690e-04  -2.445691941510e-04  -1.225524751171e-04 
5 1  2.511784327889e-04  -2.149958732964e-04   1.175652812776e-04 
6 1 -8.582538253744e-05   5.447442589508e-05   1.350641616540e-04 
7 1  1.345515062839e-04   9.519949368832e-05  -4.356579950975e-05 
8 1 -3.939177412135e-04  -3.027518878170e-05  -2.377341675894e-04 
8
Step 15000
1 1  7.634115795373e-05  -1.911031046496e-05  -1.893465662510e-04 
2 1 -1.161821336472e-06   2.671605374854e-04  -2.277424667152e-06 
3 1 -1.033537945003e-04  -6.617522322902e-06  -6.037728229152e-08 
4 1  2.218996971659e-04   7.849677292044e-05   2.267822281676e-04 
5 1  3.758933560984e-05  -1.941258042318e-04  -1.399813469887e-04 
6 1  2.032434312145e-05   1.658994901252e-05   8.068036661485e-06 
7 1 -6.977162112982e-05  -4.437055279733e-06  -8.203620679788e-05 
8 1  1.634944893675e-04  -4.611367082220e-05   1.021673548589e-04 
8
Step 16000
1 1 -1.914441064549e-04   2.201701079251e-04   3.486799853192e-05 
2 1  5.811164382114e-06  -3.005337821795e-04   3.032641341007e-04 
3 1  1.469527429443e-04   1.212757283775e-06  -3.697021996891e-05 
4 1  9.064627210232e-06  -5.913741647813e-05  -6.848952202338e-05 
5 1 -4.710339963438e-05   1.220580626233e-04  -1.035267275993e-06 
6 1 -1.633051649579e-04  -8.555276136476e-05  -3.469737603979e-06 
7 1 -6.462110939936e-05  -8.274764057619e-05   1.071194681026e-04 
8 1  6.808588256651e-05   3.686997438206e-05  -1.988420890465e-05 
8
Step 17000
1 1  2.381206587971e-04  -1.343366154702e-04  -3.328519385112e-05 
2 1 -1.564023883727e-04   6.478754461737e-05  -1.513671294582e-04 
3 1 -1.981699553190e-04  -1.368273487061e-04   7.876874804609e-05 
4 1  1.491652195322e-04  -6.975086277646e-05   9.896123006174e-05 
5 1  9.059040531310e-05  -9.509873276916e-05  -2.442411093904e-04 
6 1  2.489132376125e-04   6.197987265369e-05  -8.474717719283e-05 
7 1 -8.907195429994e-06   2.237791704012e-04   1.052500264325e-05 
8 1  1.123240059651e-04  -8.162673695139e-05   1.275838657493e-04 
8
Step 18000
1 1 -1.424597362628e-04   1.955809970367e-04   7.315630581602e-05 
2 1  8.877313825915e-05  -1.186211806745e-04   1.292587295563e-04 
3 1  7.490398464072e-05   1.806130637355e-04   1.099414327001e-04 
4 1 -2.120538255227e-05   1.500609295944e-04   2.082878549607e-04 
5 1 -1.334672894964e-04   4.966928504770e-05   3.101571535647e-04 
6 1  4.735838480371e-07  -9.971887082175e-05   8.437357207185e-07 
7 1 -2.361921694126e-04   4.259546159906e-05   1.327195664213e-04 
8 1  2.215505765165e-04   1.475174378054e-04   2.271987910352e-05 
8
Step 19000
1 1  4.346303583235e-05  -2.024876222024e-04  -1.447170623888e-05 
2 1 -1.875383151415e-04   9.558960035322e-05  -4.722721415841e-06 
3 1 -1.013779767432e-04  -7.380756157525e-05   1.087140078606e-04 
4 1  1.878820683959e-05  -2.942555018816e-04  -9.776055919942e-05 
5 1  2.142165680877e-04  -1.056178267685e-04  -1.072576696264e-04 
6 1 -5.240888868178e-05   2.696167427955e-05   1.409220015199e-04 
7 1 -5.420719217056e-05  -1.409068493367e-04  -2.927850455120e-05 
8 1  1.336739194177e-04  -1.590241807505e-04  -1.481786838334e-04 
8
Step 20000
1 1 -1.474801138257e-04   7.939913292775e-05   2.247450075787e-04 
2 1  1.895125598247e-04   2.828384661945e-05   2.141572027910e-04 
3 1 -4.018225636018e-05   3.338246855143e-05  -7.724213540227e-05 
4 1  2.047030840906e-04   4.614999139944e-05   7.741357020528e-05 
5 1 -7.678001742100e-05   2.974181803221e-05   7.069028437259e-05 
6 1  9.225253471717e-05  -1.774331813930e-05  -4.820855342832e-05 
7 1 -1.300696047306e-04   1.174781866967e-04  -1.782753160340e-04 
8 1  1.787630627592e-04  -2.363595293062e-05   2.906279517154e-04 
8
Step 21000
1 1  1.146141993805e-04  -2.987232077882e-04  -1.645903477105e-04 
2 1 -2.537209470483e-04  -1.462536486219e-04  -6.546208519454e-05 
3 1  3.213549679096e-05  -3.068609918804e-04   3.434031104344e-04 
4 1 -2.618977745531e-04  -2.207119760886e-04  -2.077132759974e-04 
5 1 -5.203214370432e-05   1.601316331506e-04  -1.592071001540e-04 
6 1 -8.892973232601e-05  -2.040663377248e-04   7.377904622989e-05 
7 1  2.015236103760e-04   1.077180759834e-04   2.008310980805e-04 
8 1 -1.059673713910e-04  -3.923858275785e-05  -5.449156118762e-05 
8
Step 22000
1 1  4.843881857029e-05   1.097617487749e-04   6.660643528836e-05 
2 1  1.152007870895e-04   2.053585068542e-04   4.514055315939e-05 
3 1  1.112328121986e-04   3.507529721575e-04  -1.177307892456e-04 
4 1  1.922899923349e-04   2.947238523995e-05   7.610594026086e-05 
5 1  4.763800700418e-05  -1.927238183876e-05   6.620864687551e-05 
6 1  1.345197875744e-04  -3.610988646629e-05  -2.067449785573e-04 
7 1 -2.548612288743e-06   3.890190808192e-04  -2.420136971948e-04 
8 1 -1.513213618887e-04  -2.100436547584e-04   1.609426745142e-05 
8
Step 23000
1 1 -4.148701731799e-05  -1.039202547398e-04  -1.220913747827e-04 
2 1 -7.830509509175e-05  -1.790241554445e-04  -6.547652642279e-05 
3 1  9.974869818568e-05  -1.100809323046e-04   3.046700183976e-04 
4 1 -2.921509821349e-05   2.121152044902e-05  -3.901080774690e-05 
5 1 -1.868609313226e-04   2.227490676717e-05   1.931927869079e-05 
6 1 -2.125658710508e-05  -5.707892973821e-05   1.578573382027e-04 
7 1 -9.439979847902e-05   5.615317782030e-05   4.359032424889e-06 
8 1 -1.334123810641e-04   1.423783261846e-04  -3.435515679115e-05 
8
Step 24000
1 1  1.216799129896e-04   1.305193093246e-06  -5.728187716054e-05 
2 1  5.028365903359e-05   1.688388545684e-04  -6.854915985627e-05 
3 1 -2.966334900003e-05   2.447902285015e-04  -7.574292551904e-05 
4 1  2.583231803948e-04  -1.079276820075e-04  -1.604647945717e-04 
5 1 -4.873494946799e-05  -9.837514125078e-05   4.785600655158e-06 
6 1  7.054270087784e-05   1.715743610790e-04  -2.706281692736e-04 
7 1  2.610424562976e-08   1.420598960951e-04  -1.105522511725e-04 
8 1  1.482903652559e-04  -2.442191677934e-04   2.814659145267e-04 
8
Step 25000
1 1 -2.110171179180e-04   1.202380711074e-04   5.715872798634e-05 
2 1  5.869266095781e-05  -2.179182987835e-04   6.579632868410e-05 
3 1  1.273320396834e-04  -6.372702194861e-05   8.163834844926e-05 
4 1 -2.297848340762e-04  -1.934985322844e-04   2.060474811737e-04 
5 1 -1.331109981183e-04   1.663716449595e-04  -1.456521034294e-04 
6 1  1.155550773126e-05   1.117267935860e-04   1.237303398785e-04 
7 1 -1.149332790151e-04  -1.047764309095e-04  -3.665440545638e-05 
8 1 -2.625858026458e-04   1.557065359853e-04   7.336921094438e-05 
8
Step 26000
1 1  4.417500380854e-05  -6.097066337186e-05   2.333615376537e-04 
2 1 -1.857705817767e-04   3.938268308456e-05  -1.618120121923e-04 
3 1 -5.300972316170e-05   3.722983050517e-05  -1.382740139238e-04 
4 1  1.625187074726e-04   5.619791114634e-05  -1.935188642932e-04 
5 1  2.077103667090e-04   2.132004658688e-05   5.922034684007e-05 
6 1 -1.117569184888e-04   2.663684324558e-05   6.747453082201e-05 
7 1  1.168375119102e-05  -1.478512292637e-04   1.920227133599e-04 
8 1  2.180627672555e-04  -8.899463682895e-05  -1.022653880884e-04 
8
Step 27000
1 1 -1.535200875198e-05   1.032476663372e-04   1.115184801968e-05 
2 1  8.272542008093e-05  -2.995986606113e-04   1.778162082948e-04 
3 1  2.631030179670e-04  -6.316125886074e-05   1.112406158521e-04 
4 1 -2.528653961559e-05   8.145031955969e-05   2.277024121422e-04 
5 1 -2.167016415108e-05  -1.079539003184e-04  -1.908076478367e-05 
6 1  1.563412370915e-04   2.183647704282e-05  -1.296603682174e-04 
7 1 -1.553848369716e-04   3.488142369057e-05   6.888876111747e-05 
8 1  2.873270451133e-05   4.361058577594e-05   4.177607454281e-05 
8
Step 28000
1 1 -7.488111473004e-05  -2.097961304136e-04   1.293440465769e-04 
2 1 -2.533088733789e-04   5.616557599035e-05  -1.851721368598e-04 
3 1 -7.855024094960e-05   1.116600332605e-04  -2.264450183605e-04 
4 1 -2.086206717002e-04  -1.147241189163e-05  -1.873280403275e-04 
5 1 -3.304929686653e-05  -1.490934087748e-04  -9.063769988573e-05 
6 1 -1.329576309674e-04  -7.571968208953e-05   1.326241546217e-04 
7 1  2.374327333829e-05   6.251101012384e-05   1.741628592974e-04 
8 1  3.003768426149e-04   3.918748232840e-05  -6.548297863477e-05 
8
Step 29000
1 1 -1.223939680177e-05   2.239681166386e-04   1.405941106455e-04 
2 1  5.259766019394e-05  -1.831608230709e-04   1.204304558233e-04 
3 1  2.240560460638e-04   3.609328198506e-05  -3.812298452282e-05 
4 1 -2.037679804280e-04  -2.141196795443e-05   1.066898247866e-04 
5 1  2.280621412006e-04   1.233100757520e-05   1.249986851541e-04 
6 1  6.465261505881e-06   2.572305424710e-04  -1.899446902914e-04 
7 1  1.903542893132e-04   1.810303139905e-05  -2.009004805258e-07 
8 1  3.185016291652e-04  -1.458494609821e-04   2.450766626317e-04 
8
Step 30000
1 1 -1.440795232588e-04  -1.934694418432e-04   2.892824794598e-06 
2 1 -1.884924187932e-04   2.631843156145e-04  -3.764451054148e-05 
3 1 -5.749275879995e-05  -4.633856957065e-05   7.553714173680e-06 
4 1 -2.661676120210e-04  -1.851803608117e-05  -5.408823540537e-05 
5 1 -4.507254016405e-05  -1.650603829440e-05  -1.829162717370e-04 
6 1  1.422245014852e-04   9.300842376858e-05   4.551064627441e-05 
7 1 -2.095119068346e-04   7.289279373814e-05   8.026344454092e-05 
8 1  5.305757485152e-05  -7.765775784407e-05  -2.385995447570e-04 
8
Step 31000
1 1  2.736172324595e-04   1.059983094341e-04  -8.997756144461e-05 
2 1  2.592807329212e-04  -2.104178463399e-04  -1.167521851297e-04 
3 1  1.484080734868e-04   1.014937263235e-04  -5.102481106096e-06 
4 1 -1.186574632238e-04   6.323983180115e-05   2.395636899751e-04 
5 1  3.406656841606e-04   1.354468947940e-04  -6.847595148156e-05 
6 1 -1.020529826815e-04   1.678078989802e-05  -3.797573271192e-05 
7 1  8.147510840477e-05  -7.313352697724e-05  -1.260798429533e-04 
8 1 -3.947808348254e-05  -3.903751171367e-05   1.122522730108e-04 
8
Step 32000
1 1 -2.948187841830e-05  -3.529980174233e-04  -1.240764060224e-04 
2 1 -1.632574379041e-04   9.250137740494e-05   2.545015200619e-05 
3 1 -1.724560083187e-04  -1.357574689210e-04   1.939712946573e-04 
4 1 -1.952646080361e-04   1.844245862930e-04  -1.093194000031e-04 
5 1 -5.677854946232e-05   8.520278155492e-05   2.333085654372e-04 
6 1  1.082162375583e-04  -6.762876941682e-05  -1.413587791049e-04 
7 1 -2.381146543157e-04  -8.235435822214e-05   1.171747956392e-04 
8 1  4.108724700463e-05   2.862111973606e-05   8.897868721964e-05 
8
Step 33000
1 1  1.733279364636e-04   9.245855205606e-05   9.860825744132e-05 
2 1 -3.902095890372e-05   4.635543873163e-05  -1.403076319920e-05 
3 1  3.776840625308e-05   2.051612545999e-04  -3.897640606366e-05 
4 1  2.088287049538e-04  -3.922323118872e-05   1.598076850910e-04 
5 1 -7.178993447508e-05  -1.731314992683e-04  -8.430171593280e-06 
6 1 -1.065129010892e-04   3.238184280063e-05  -4.020139772766e-05 
7 1  6.370358645028e-05   2.761414016677e-04   3.788487819718e-07 
8 1  7.022455251703e-05   1.709680853678e-04  -1.440873982521e-04 
8
Step 34000
1 1 -2.280081403731e-04  -3.624379487008e-05  -9.666411281999e-05 
2 1  5.539285827234e-05  -5.665510612169e-05   1.038999307488e-04 
3 1 -7.655049027574e-05  -1.429399182042e-04   1.333705918445e-04 
4 1 -1.859144301656e-04   6.755747539465e-05  -4.488977383913e-05 
5 1 -6.303616452609e-05  -1.086298086625e-04   2.337620794397e-04 
6 1  2.597277961001e-04  -2.512998434872e-05  -2.141837193279e-04 
7 1 -3.292995589327e-05  -1.400150607958e-05   8.410368443177e-05 
8 1  8.076043780571e-05  -4.603531742874e-05   1.427635011201e-04 
8
Step 35000
1 1  1.786558684911e-04   2.375482037980e-05  -8.772568284374e-05 
2 1 -3.582549991867e-05   7.813892808544e-05  -1.584207377181e-04 
3 1  1.931304008523e-05   2.285698950450e-04  -1.261801219671e-04 
4 1  2.550848241583e-05  -9.295288629795e-05  -9.291219951367e-06 
5 1 -6.718559254934e-05  -1.739416736694e-04  -1.278641973974e-04 
6 1 -2.896853658968e-04  -3.268830985962e-04  -1.443608491566e-04 
7 1  5.836791183227e-05   1.732877517872e-04   2.702281940768e-04 
8 1  9.011085973299e-05   4.287483705509e-05  -2.557991040074e-04 
8
Step 36000
1 1 -1.921602186267e-05   7.532315122844e-05  -1.140483839964e-04 
2 1  2.152839308749e-04  -2.913884394021e-04   2.355295312112e-04 
3 1 -1.579049625420e-04  -1.218445099583e-04   3.982645532874e-04 
4 1  1.085026167975e-04   2.242606340029e-04   1.505433942369e-04 
5 1 -1.617125214356e-05  -1.247172689170e-04   1.033486807769e-04 
6 1 -1.109426166416e-05   1.244023664125e-04   9.204019890357e-05 
7 1 -1.444921705807e-05  -5.930860277963e-05   1.130065479666e-05 
8 1 -2.157471410835e-05   9.104032721961e-05   6.663072543274e-06 
8
Step 37000
1 1  4.366688131434e-05  -6.480521076945e-05  -3.140014588508e-05 
2 1 -2.500347368712e-04   1.471233768983e-04  -9.476558897626e-05 
3 1  1.693797627770e-05  -3.489418890554e-05  -1.238016715654e-04 
4 1 -2.212189102059e-05  -1.401443719613e-04  -1.654824902208e-04 
5 1  2.593914735160e-04  -3.015383899907e-04  -3.372790307537e-05 
6 1 -2.297540843373e-04  -9.625800948795e-06  -1.597862193175e-05 
7 1 -1.062737331790e-04  -4.271295305799e-05   4.151126724841e-05 
8 1 -9.298017652385e-05   1.846956679147e-04  -1.099730980589e-04 
8
Step 38000
1 1 -9.592405154779e-05   2.457329304378e-04  -7.028239807708e-05 
2 1  1.842806473464e-04  -1.901474378062e-04   1.154836650079e-04 
3 1 -4.646434884771e-05  -2.655650042228e-05   1.309145444313e-04 
4 1  2.992941269990e-04   1.845292694300e-04   1.333160146014e-04 
5 1 -1.912974661841e-04  -2.478651336794e-04  -2.737638795326e-05 
6 1 -1.064700898577e-04   2.264406191033e-04   6.338288840055e-05 
7 1  2.525958092316e-04   3.303493349833e-04  -5.665848771785e-05 
8 1  2.209402186922e-05   1.032357427250e-04  -1.018630011909e-04 
8
Step 39000
1 1 -1.741640414728e-05  -1.251811157485e-04   1.280125352714e-04 
2 1 -3.071997122933e-04   2.006346896479e-04  -1.162287322715e-04 
3 1 -5.781928780529e-06  -1.722427466248e-04  -8.030126544779e-05 
4 1 -1.231171718590e-04  -1.703996100868e-04  -5.701254639239e-05 
5 1  4.694315628770e-05  -1.263455586728e-04   6.133819697952e-05 
6 1  2.153970916599e-04   1.352271412687e-04  -1.844047309933e-04 
7 1 -1.852813150828e-04  -1.467720274745e-04   3.941806687186e-05 
8 1 -2.000920792438e-04  -1.119347363061e-04   1.825078449491e-04 
8
Step 40000
1 1  1.856754666307e-04   7.764563224145e-05  -4.902001048869e-05 
2 1  6.775426706572e-05  -4.407858229472e-05   1.661898201533e-04 
3 1  2.111402741168e-04   1.864119445462e-05   4.149318209073e-04 
4 1 -3.091914950832e-05   1.709365428989e-04   1.910397470405e-04 
5 1 -3.034280844285e-05  -9.823455297031e-05  -1.727379880228e-04 
6 1 -8.875710948856e-05   1.955316501657e-04   1.282289728008e-04 
7 1  1.907119127446e-04   2.732980018579e-05  -1.177304320508e-04 
8 1 -6.308332559784e-07   1.674770124760e-04  -1.053229075613e-04 
8
Step 41000
1 1 -2.053509306160e-04  -1.004891401547e-04  -7.903238208542e-05 
2 1  2.338312284896e-05  -4.080785018226e-05  -2.110997709122e-04 
3 1 -2.296845012049e-04  -2.552661756238e-04  -5.783650861110e-05 
4 1 -3.525153326812e-05  -1.231643373197e-04  -2.039333704113e-04 
5 1 -5.019862484650e-05  -1.259432505516e-05   5.225842656944e-05 
6 1  2.304074028852e-04   1.032559349910e-04  -7.081557224286e-05 
7 1 -1.213432463721e-04  -1.560687870137e-04   4.647219504837e-05 
8 1 -8.969480404875e-05  -2.781794755243e-05  -1.280805991604e-05 
8
Step 42000
1 1  2.603593224575e-04   7.005930656609e-05  -3.136076102116e-06 
2 1 -5.514234194166e-05   1.323984356593e-04  -6.467722951593e-05 
3 1  2.416290389574e-04   2.743306806060e-04   8.549122742804e-05 
4 1 -7.619473689604e-05   8.112409804377e-05   9.292300830989e-05 
5 1 -8.534726149669e-05   3.776006707297e-05  -1.985153367993e-04 
6 1  4.144557375266e-05   2.671466276408e-05   3.876351039376e-06 
7 1  7.319499807681e-05  -8.842106259757e-05   8.428114541715e-05 
8 1  3.134052862925e-04   1.282180181989e-04  -2.231427962401e-04 
8
Step 43000
1 1 -2.184643301797e-04  -1.384572256644e-04  -7.785240769035e-05 
2 1  7.029255774748e-05  -2.478434826490e-04  -7.639332030993e-05 
3 1 -7.372810713228e-05  -8.252749834346e-05   1.343707985305e-04 
4 1 -1.480894580024e-05   1.165095678832e-04  -3.757604487495e-04 
5 1 -1.600168733772e-04  -2.667342682087e-04   1.778506184088e-04 
6 1 -9.489922343374e-05  -1.810548694514e-04   2.321350792847e-04 
7 1  3.947247237740e-05   1.576567727488e-04  -1.769161316356e-04 
8 1 -8.781500650827e-05   3.988239156165e-05   2.273331290782e-05 
8
Step 44000
1 1  1.242794817774e-04  -7.404795689174e-05   2.489980831329e-04 
2 1  3.235490782529e-06   3.330383145049e-04  -1.663074011295e-04 
3 1  7.107322889543e-05   1.547690626762e-04   8.283208367039e-05 
4 1 -4.076819310430e-04  -6.388996598868e-05   2.602617825165e-05 
5 1 -1.136910057353e-04   9.548525517476e-05  -1.479107542862e-04 
6 1  2.203520646851e-04   2.305363615936e-04  -1.485544260031e-04 
7 1 -7.789345284679e-05   6.372625868276e-06   2.580670890831e-04 
8 1  5.397434216845e-05   1.115977950914e-04   2.083796633765e-04 
8
Step 45000
1 1 -1.504606990723e-04   3.025553464701e-05  -2.373963903733e-04 
2 1  1.707809477073e-04  -2.869124787641e-04   2.039804982892e-04 
3 1  1.358632318906e-05  -8.682062823066e-05   1.269577621780e-04 
4 1  1.350398568049e-05   1.158952377497e-04  -2.248105133733e-04 
5 1  4.053850035845e-05  -3.308176686244e-04   3.852743131147e-05 
6 1  3.702209995114e-05  -3.759534538692e-05   8.600362213292e-05 
7 1  1.101959854501e-04  -2.371954898411e-05  -3.787387009414e-05 
8 1 -1.593121249986e-04  -2.857527342183e-05  -1.220917980151e-04 
8
Step 46000
1 1  1.770630472954e-05  -1.318985883004e-04   1.068902331785e-04 
2 1  4.380637245597e-05   1.847110710710e-05  -1.722602978379e-04 
3 1 -1.060045618581e-04   2.255506457381e-04  -1.323134414719e-05 
4 1 -8.533539980734e-05  -7.011988866113e-05   9.070182282796e-06 
5 1  6.114332432804e-05   2.298859213814e-04   1.122982573376e-04 
6 1  1.638645496557e-04  -1.525502774897e-04  -8.661262061873e-05 
7 1 -4.103594203918e-05  -2.673768872049e-05   1.311601412652e-04 
8 1 -1.021930325520e-04  -4.141594318260e-06   1.362397804770e-04 
8
Step 47000
1 1  2.481186796358e-04   1.701878444447e-04  -2.389362389294e-04 
2 1  1.311478027863e-04  -9.346184521113e-06   1.370213265271e-04 
3 1  1.859288226392e-04  -1.334733787712e-04  -8.791411916092e-05 
4 1  1.811312702322e-04   2.604032678082e-04  -1.324071801078e-04 
5 1 -1.324366450680e-04  -2.370478287414e-04  -3.381212785388e-05 
6 1 -1.839273374679e-04   1.702630739588e-04   2.059488071990e-04 
7 1  1.614888626972e-04  -1.215439774752e-04   1.921532402634e-05 
8 1  2.732811602032e-05   5.943653247935e-05   1.034077687967e-04 
8
Step 48000
1 1 -6.832212449811e-05  -2.281499228647e-04   3.657212235621e-05 
2 1 -8.161333851182e-05  -1.197982022551e-04  -1.455570084127e-04 
3 1 -9.208924931931e-05   2.727221310239e-04  -1.648292702150e-04 
4 1 -2.897119742198e-05  -3.964338928251e-04  -2.405426426434e-05 
5 1  1.616215927606e-04   8.144944903410e-05   3.385805376660e-05 
6 1  1.494325647016e-04  -1.505930417387e-04  -5.390412288939e-05 
7 1  2.782967137244e-05   1.617836569690e-04   3.034721420269e-05 
8 1 -1.050574749098e-04  -5.701667124328e-05   2.382608018002e-04 
8
Step 49000
1 1  1.271051772028e-04   2.120975597497e-04  -1.785666906927e-04 
2 1  8.389636255709e-05   1.878797970143e-04   1.468636762991e-04 
3 1  1.038750413015e-04  -7.825150421804e-05  -3.171143449611e-04 
4 1  1.686258479653e-04   2.308892372916e-04  -1.147063147348e-04 
5 1 -6.173950872381e-06   5.482690562441e-05  -6.444986475117e-05 
6 1 -1.935417935690e-04   4.063521148266e-04  -1.476866110397e-04 
7 1 -1.357306620994e-04   1.261844972747e-04   8.470866174173e-05 
8 1  2.961354764078e-05  -5.676362738768e-05   2.250787491525e-05 
8
Step 50000
1 1 -2.167614309584e-04  -3.567902970589e-04   2.164371079367e-04 
2 1 -1.247270233314e-04  -1.731367412034e-04   1.049005017715e-05 
3 1 -1.766367571715e-04   4.611504200276e-05  -4.570824554957e-06 
4 1 -4.465226247303e-05  -2.544781349367e-06  -1.020262508989e-04 
5 1  6.759790369615e-05  -1.970047988371e-04  -2.708807380148e-04 
6 1 -6.954537921584e-05  -2.429046635607e-04   2.104363894557e-04 
7 1  5.549880394357e-05  -1.772527709072e-04  -1.375522652439e-04 
8 1 -1.188063346719e-04  -1.433836983089e-04   9.924711838322e-06 
8
Step 51000
1 1  9.535029911250e-05  -5.200376935789e-05   5.472498343510e-05 
2 1  9.416540690815e-06   2.310003576181e-04  -4.119582546716e-05 
3 1  3.468163664389e-04   8.391975529457e-05  -1.621304987490e-04 
4 1  2.995851346918e-05   9.177579363466e-05  -1.234244712764e-04 
5 1 -3.104975143587e-05   2.202739973444e-04   2.907685174334e-04 
6 1 -8.994610993802e-05   1.948519692983e-06   3.789320818557e-05 
7 1 -2.785609132873e-04   1.657743866106e-04  -4.965312446042e-05 
8 1  1.448030154777e-04  -9.017797147754e-05   2.776262130302e-05 
8
Step 52000
1 1 -5.039656858746e-05  -1.154438543351e-04   5.835348260630e-05 
2 1  5.349017064997e-05  -4.399333428788e-05   1.058724639154e-04 
3 1 -4.904190092311e-05  -1.829845414011e-04   4.708316372136e-05 
4 1 -3.316391508985e-04   8.943602760685e-06   3.484787251083e-05 
5 1 -1.762775305397e-04  -2.903150959842e-04  -1.736037457763e-05 
6 1  1.264283125626e-05   1.964504324548e-04  -1.805909385184e-04 
7 1  4.551415983236e-05  -8.593331140902e-05  -2.275710109167e-05 
8 1  3.949973907466e-05   3.888175696997e-05  -6.545039315279e-05 
8
Step 53000
1 1 -1.795892901350e-04  -6.432251883030e-05   1.509992224880e-04 
2 1 -7.958716707892e-05   5.479771480617e-04  -1.903580029991e-04 
3 1  5.645409510972e-05   3.220601652800e-04  -2.786205279668e-04 
4 1  1.096134768616e-04   7.177041051618e-05   1.753702037925e-05 
5 1  2.779080609606e-04   8.852466157694e-05   1.240040914562e-04 
6 1  1.235757297786e-04   4.507908823262e-06  -6.144447063310e-05 
7 1 -7.212225764462e-05  -1.840599571280e-05   3.385479554121e-05 
8 1 -3.916844290537e-05  -3.708812056835e-05   2.351236971765e-04 
8
Step 54000
1 1 -1.255883093364e-05  -2.265282062305e-04  -9.019326341181e-05 
2 1  2.930033636895e-04  -6.181829134437e-06   8.143235404015e-05 
3 1  2.581603442440e-05  -3.510299218312e-04  -1.633145127667e-04 
4 1 -1.747438011294e-04  -8.649567395930e-05  -2.175250208776e-05 
5 1  4.856997675631e-05  -1.341331712898e-04   1.434546339265e-04 