8
Step 0
1 1 0.00000000000000000e+00 0.00000000000000000e+00 0.00000000000000000e+00
2 1 0.00000000000000000e+00 0.00000000000000000e+00 0.00000000000000000e+00
3 1 0.00000000000000000e+00 0.00000000000000000e+00 0.00000000000000000e+00
4 1 0.00000000000000000e+00 0.00000000000000000e+00 0.00000000000000000e+00
5 1 0.00000000000000000e+00 0.00000000000000000e+00 0.00000000000000000e+00
6 1 0.00000000000000000e+00 0.00000000000000000e+00 0.00000000000000000e+00
7 1 0.00000000000000000e+00 0.00000000000000000e+00 0.00000000000000000e+00
8 1 0.00000000000000000e+00 0.00000000000000000e+00 0.00000000000000000e+00
8
Step 1000
1 1 -1.70369434025949352e-06 -1.10357500574403329e-06 1.29957500867601847e-06
2 1 -2.76604505011741360e-06 2.96964498727613374e-06 3.04533029935144646e-06
3 1 2.56253492827506981e-06 -2.49309166360355972e-08 1.57918124140717815e-06
4 1 -1.22628437484286033e-06 -2.08007570913883905e-07 3.10106279106958573e-07
5 1 -2.59075891763888962e-06 -1.08389413598461769e-06 1.15392291507805693e-06
6 1 -1.52511485511869389e-06 -5.82612508218690029e-08 -1.35371959278221330e-06
7 1 -2.11114442551113070e-06 4.31677102607089088e-07 2.13062799406204653e-06
8 1 -4.72759020807298418e-07 -2.52690839358289902e-07 3.30847711931166987e-06
8
Step 2000
1 1 -1.34967342868145128e-06 -1.67124837668611842e-06 7.10814145551983841e-07
2 1 -1.65978880498911999e-06 1.12704490598415585e-06 2.90412714548892221e-06
3 1 2.40391059737100105e-06 5.38929077616000538e-07 2.20988435454489249e-06
4 1 -6.28555644824636694e-07 9.30871844687541079e-07 -1.20770954305367488e-06
5 1 -7.78443697841091797e-07 8.69083434369223793e-07 1.45863738256091599e-06
6 1 -1.27602007200713467e-06 -6.82669696012751466e-07 -2.17136189268849995e-07
7 1 -1.99191380048534609e-06 4.21711186316367808e-07 1.06513064513982637e-06
8 1 1.05499605823799758e-06 -1.38820135275943951e-06 2.44358664317212358e-06
8
Step 3000
1 1 -3.49461655760234863e-07 -1.69030982691179201e-06 -1.59313483360404205e-07
2 1 3.43328673198917901e-07 -1.12085715621454852e-06 1.56010744080481893e-06
3 1 1.29988443987341445e-06 9.34888920512365123e-07 1.85500697410933260e-06
4 1 2.15226445957728954e-07 1.47812385514720640e-06 -2.38968076038250594e-06
5 1 1.14649858177508998e-06 2.02314300418691041e-06 9.64683045242678818e-07
6 1 -6.26332684073215218e-07 -1.08470092075175013e-06 1.31838282109848346e-06
7 1 -1.02586922482261760e-06 4.92058639172585835e-07 -4.65289847506168658e-07
8 1 1.96444612075603980e-06 -1.58964487539423543e-06 4.63050525303189467e-07
8
Step 4000
1 1 7.15680029205398038e-07 -1.02497153536114002e-06 -8.49163852035365543e-07
2 1 2.09891747459342705e-06 -2.49760347107109954e-06 -1.93594280635460941e-07
3 1 -7.60195538495461816e-08 1.00481984950527866e-06 7.28191481511765749e-07
4 1 8.20414808765358162e-07 1.32369292641596146e-06 -2.73786898952590426e-06
5 1 2.17758163390540992e-06 2.06177648361920716e-06 -7.11599794447446809e-08
6 1 1.64627506339390291e-07 -1.23002356078443382e-06 2.34090279692034903e-06
7 1 4.72365036706121479e-07 6.30666709815001544e-07 -1.71891383751044627e-06
8 1 2.10403513539433340e-06 -7.04463002796842785e-07 -1.56057960064550310e-06
8
Step 5000
1 1 1.25342575862700850e-06 1.35358610263643269e-07 -1.03356858683001766e-06
2 1 2.64773370271084417e-06 -2.38511762313946008e-06 -1.45044245826001262e-06
3 1 -1.04966861049795345e-06 6.80554090921071782e-07 -6.25093579844402758e-07
4 1 9.29916906809610719e-07 6.93363339949850358e-07 -2.11896428208421984e-06
5 1 1.94871805006868772e-06 1.28672965711594802e-06 -1.10260627860368160e-06
6 1 7.86445334144735610e-07 -1.09797361708813274e-06 2.17841093162236606e-06
7 1 1.82109417213185768e-06 6.58335451698805007e-07 -2.14212573014353455e-06
8 1 1.64814779775614462e-06 7.60338181027687241e-07 -2.58978974049084142e-06
8
Step 6000
1 1 9.96004437030258531e-07 1.29387593645093468e-06 -6.76573032290003028e-07
2 1 1.76299143973806032e-06 -1.03664909147370470e-06 -1.73535076476291924e-06
3 1 -1.25360003508675584e-06 3.14433217407081295e-08 -1.56737830993362915e-06
4 1 5.85311702362400953e-07 -5.49440656130846870e-08 -8.44238774726942146e-07
5 1 8.24941951979699334e-07 2.36102784226009027e-07 -1.60370863234568428e-06
6 1 1.02140163466896976e-06 -6.53072183868859545e-07 7.87089079029321670e-07
7 1 2.45267123602022766e-06 3.39282529013164712e-07 -1.64613308564421118e-06
8 1 8.73154490987955343e-07 1.97273998526438807e-06 -2.31683950988442697e-06
8
Step 7000
1 1 1.36122662305500748e-07 1.96355567676933787e-06 -3.79960618894873779e-08
2 1 -2.51000124576416413e-08 6.75419077560981645e-07 -1.14611742912943779e-06
3 1 -7.40911873193982139e-07 -7.44475015637965340e-07 -1.70143002857415515e-06
4 1 5.58863350503153709e-08 -6.35105572928382367e-07 4.71582580058399514e-07
5 1 -4.25717370237234677e-07 -6.17151498123312564e-07 -1.27969803938250693e-06
6 1 8.09084202282022676e-07 4.13333818463117079e-08 -1.16142722085632836e-06
7 1 2.18928462934949213e-06 -4.19976469789394984e-07 -5.60332839087830822e-07
8 1 6.14022336279200104e-08 2.26141444729275964e-06 -1.11419903646146181e-06
8
Step 8000
1 1 -8.40275562095179291e-07 1.94135799782216168e-06 4.91101256232665816e-07
2 1 -1.69868984691254983e-06 1.78744000863846029e-06 -1.48159777291366585e-07
3 1 1.01510972937913196e-07 -1.38859251897165404e-06 -1.04196850183905042e-06
4 1 -3.58315309387104829e-07 -9.23653384183378857e-07 1.31747940264702636e-06
5 1 -1.10973577598226134e-06 -9.86521433104022772e-07 -1.92147258850851308e-07
6 1 2.36325949735552104e-07 8.03622962453423821e-07 -2.63824155245938023e-06
7 1 1.22947113623992097e-06 -1.42829178411779242e-06 5.30758134721994821e-07
8 1 -5.59533038945389451e-07 1.39370494300099625e-06 2.88149538957292034e-07
8
Step 9000
1 1 -1.41787425121563393e-06 1.32871928082852203e-06 6.30075307449273168e-07
2 1 -2.37181986468952034e-06 1.80470302870296305e-06 7.11282141984075769e-07
3 1 7.78180421902913129e-07 -1.65499956321387861e-06 3.93350236446751535e-08
4 1 -5.07900229970029250e-07 -9.49464777419919122e-07 1.52712639457907448e-06
5 1 -9.73755980156426744e-07 -8.20914506281027053e-07 1.22836663544285630e-06
6 1 -4.41764292420279178e-07 1.38282081551066381e-06 -2.95466107616519144e-06
7 1 5.92812061763724886e-08 -2.23619745515361287e-06 1.11159208565992301e-06
8 1 -8.85200373549749994e-07 -3.14481057806127520e-07 1.18701700397775129e-06
8
Step 10000
1 1 -1.26293226282944107e-06 4.61443205786505998e-07 3.74098037989104957e-07
2 1 -1.81978045305896859e-06 8.86395751882435154e-07 1.07337132179442649e-06
3 1 9.39862147828243645e-07 -1.34671775662897828e-06 9.96309092882173850e-07
4 1 -4.25750962558436811e-07 -7.77529002785902084e-07 1.19806315389339368e-06
5 1 -2.64725714880424077e-07 -2.63223239062027370e-07 2.34927252793915718e-06
6 1 -8.62203792905394334e-07 1.55197322185889763e-06 -2.08134510565115691e-06
7 1 -8.02525918042766418e-07 -2.30306873329862358e-06 1.03167345814122990e-06
8 1 -9.30921987376783213e-07 -2.05983137459824269e-06 1.25524594635465172e-06
8
Step 11000
1 1 -3.27630994021616740e-07 -2.31488748454523149e-07 -2.88867332118982588e-08
2 1 -5.15054770477444403e-07 -3.29942567785353857e-07 8.93396826461038888e-07
3 1 5.20985946598844373e-07 -3.61968243868689128e-07 1.36694336236363606e-06
4 1 -2.74998079155593580e-07 -3.79959455100761455e-07 5.63078178484702314e-07
5 1 4.86880235709152853e-07 4.24188838303876731e-07 2.58898136082973129e-06
6 1 -7.61457007154434686e-07 1.19722945775551207e-06 -5.86580631322145756e-07
7 1 -1.09685291320975925e-06 -1.22260860769885781e-06 5.05525063158107420e-07
8 1 -7.78195524686571856e-07 -2.96859292769659451e-06 6.22358507875377005e-07
8
Step 12000
1 1 1.09237367983928962e-06 -5.18857009464579180e-07 -2.30093461854155355e-07
2 1 7.22792745226587276e-07 -1.13735637828143459e-06 3.71859124542198543e-07
3 1 -2.69503446991381051e-07 1.16904496365138474e-06 9.74660759436946414e-07
4 1 -2.60912843833687905e-07 3.47138011721248722e-07 -1.03094401534643115e-07
5 1 8.33723951846654233e-07 9.11424535354408039e-07 1.57938842307051561e-06
6 1 -1.30857379096724456e-07 3.46762043286461529e-07 6.95881330399980408e-07
7 1 -8.68577943910355293e-07 9.07986882384996683e-07 -9.02283274674865105e-08
8 1 -5.21513344536784601e-07 -2.58515863461938174e-06 -2.70529426656252656e-07
8
Step 13000
1 1 2.34702189803733230e-06 -5.00019099447720454e-07 2.23823560274073284e-08
2 1 1.30940373843309400e-06 -1.17919372075112908e-06 -2.01319819275526832e-07
3 1 -1.05653752258105054e-06 2.71396889148777969e-06 -4.48929791075348895e-09
4 1 -4.91154066138099067e-07 1.40623276054658276e-06 -5.79886239066670918e-07
5 1 6.61256647015343889e-07 9.03485147699015975e-07 -6.25064231997666225e-07
6 1 7.60952734684556847e-07 -8.11788785882508360e-07 1.26237692418875824e-06
7 1 -3.47890856654620051e-07 3.10248825080702069e-06 -4.61207045604903034e-07
8 1 -2.50898415991166533e-07 -1.01551447465980674e-06 -9.20694668864257111e-07
8
Step 14000
1 1 2.71580097438474507e-06 -4.03754681357938480e-07 6.69664272289858500e-07
2 1 1.18265342630956487e-06 -5.70497510190164138e-07 -5.92862063784076795e-07
3 1 -1.45365098001947816e-06 3.53786052441992928e-06 -1.06872783852724435e-06
4 1 -8.17033630061477006e-07 2.50339001291056657e-06 -7.75840266062990455e-07
5 1 1.65786329380466582e-07 3.17602251267234287e-07 -3.10461264902354024e-06
6 1 1.43550830959812260e-06 -1.91483052313760108e-06 1.13859885615513056e-06
7 1 1.67255285699401854e-07 4.10514988118921518e-06 -5.21376674830332190e-07
8 1 -1.39635392417270306e-08 1.06144041118552188e-06 -9.94332250101267070e-07
8
Step 15000
1 1 1.89371730235749963e-06 -3.98890302554552978e-07 1.25032830889844351e-06
2 1 6.30026224968858677e-07 2.60051477266491243e-07 -7.10275969012044670e-07
3 1 -1.19875928148504437e-06 3.15336838223400898e-06 -1.58036229801075856e-06
4 1 -8.56804361983303753e-07 3.02433166315152718e-06 -7.26131972966716120e-07
5 1 -3.34115440484122216e-07 -6.27572633163966808e-07 -4.47803309408868025e-06
6 1 1.44429951000674705e-06 -2.52270241183334740e-06 6.21919749755138120e-07
7 1 4.21091101351431102e-07 3.43618920064663683e-06 -3.43103501342783371e-07
8 1 2.71371603114643652e-07 2.59700357865529257e-06 -4.17934403876155920e-07
8
Step 16000
1 1 2.31671714268666708e-07 -5.28123119050265455e-07 1.19518525728572263e-06
2 1 1.99342053010018540e-08 8.37682505808365577e-07 -5.88712060825221310e-07
3 1 -2.50553191093755283e-07 1.50153710381228168e-06 -1.13301109096016054e-06
4 1 -3.17870128653552955e-07 2.29816583114458906e-06 -5.24764279856455083e-07
5 1 -6.01541943892197041e-07 -1.45228402482564803e-06 -4.06652392263343676e-06
6 1 6.67901827309296782e-07 -2.31105272321607547e-06 4.69797830676483870e-08
7 1 2.96924230256996552e-07 1.50277214829272338e-06 -5.06440398572059942e-08
8 1 6.98880525668089370e-07 2.84191054358622946e-06 5.87493509100534075e-07
8
Step 17000
1 1 -1.40194852887977028e-06 -7.08617149313823837e-07 3.11720856290703266e-07
2 1 -3.74747485135572520e-07 8.76758304417781597e-07 -3.18748272384207895e-07
3 1 1.11093553162099761e-06 -8.13708181292561968e-07 1.61749284464880083e-07
4 1 7.39534195278927237e-07 1.97305694442811151e-07 -2.64787135766042212e-07
5 1 -5.72234345485942029e-07 -1.62351192464272484e-06 -2.08276527031379373e-06
6 1 -5.72685601619651829e-07 -1.18941251740974094e-06 -3.35165675246494036e-07
7 1 -1.30745507593663644e-07 -5.75788915992893905e-07 2.40988113385765883e-07
8 1 1.14600062008226367e-06 1.79269913616516215e-06 1.48648364835443083e-06
8
Step 18000
1 1 -2.15106040308917740e-06 -8.18711325621556051e-07 -1.05527950613394944e-06
2 1 -4.65523564419767996e-07 3.75037716658632678e-07 6.69419048222964227e-09
3 1 2.29518759280963512e-06 -2.58625753137559253e-06 1.65361274834350512e-06
4 1 1.87924820080706028e-06 -2.28172126814450739e-06 -9.78946791056472872e-09
5 1 -3.16756676405047659e-07 -9.15137239760469797e-07 3.85115945182975109e-07
6 1 -1.67451512036634728e-06 5.59015216506340622e-07 -4.18079195605474702e-07
7 1 -6.11353655028596364e-07 -1.61304004481294500e-06 4.35241607710531501e-07
8 1 1.33387864189669975e-06 9.18811602482685584e-08 1.67104585970164481e-06
8
Step 19000
1 1 -1.73710651601137288e-06 -7.26298075638630169e-07 -2.19825496077587654e-06
2 1 -3.37822986742617683e-07 -4.06978509285880343e-07 3.02838782597541463e-07
3 1 2.69265819201030800e-06 -3.04987190426217655e-06 2.47059356693537495e-06
4 1 2.45024162971769862e-06 -3.76290123229783396e-06 2.17014811386329283e-07
5 1 2.94463754853095801e-08 4.06315371210772759e-07 1.90942494785622014e-06
6 1 -2.08703959415282416e-06 2.18809569046624642e-06 -2.51054543538163419e-07
7 1 -8.14828311574330384e-07 -1.35413701388272458e-06 4.60610993813622522e-07
8 1 1.01017234783023633e-06 -1.34942348250272909e-06 9.39281021138119444e-07
8
Step 20000
1 1 -5.56298364205133347e-07 -2.93901968070434386e-07 -2.45086878318945761e-06
2 1 -1.55469237912912536e-07 -1.04639311801669637e-06 4.99731994770492796e-07
3 1 1.99873576998508711e-06 -2.31135124565449269e-06 2.04813379516634860e-06
4 1 1.99039740653031012e-06 -3.70531932134995972e-06 4.19227481157831828e-07
5 1 3.22920497257059397e-07 1.70561086398450295e-06 2.01649695986775621e-06
6 1 -1.57090474097859782e-06 2.92868675011435709e-06 5.18558739014336388e-09
7 1 -4.97839075441400829e-07 -4.91944713737334974e-07 2.95698672512547770e-07
8 1 1.28199691268204182e-07 -1.84513938343169283e-06 -3.64642722710676725e-07
8
Step 21000
1 1 6.42390527660701187e-07 4.58929857691761278e-07 -1.58229670863337693e-06
2 1 -5.20053892757997276e-08 -1.16034490974355484e-06 5.53823939796369379e-07
3 1 3.75473975361291825e-07 -9.40785965532875385e-07 4.96079841163922724e-07
4 1 5.89994853614303478e-07 -2.34040704612162843e-06 5.92222352880603616e-07
5 1 4.61906077623245779e-07 2.31216376573922707e-06 1.20801307114186743e-06
6 1 -2.92001000450252164e-07 2.52475137020544990e-06 1.73271615402587902e-07
7 1 3.30016879945868240e-07 1.83730591507271824e-07 -1.09971573697946030e-08
8 1 -9.98716814012834530e-07 -1.26496841524757254e-06 -1.56699079092243268e-06
8
Step 22000
1 1 1.20632201782061412e-06 1.28428150915189490e-06 4.97353014892137006e-08
2 1 -6.08772235322873474e-08 -6.20343683435125246e-07 4.46462718773932470e-07
3 1 -1.46535617750524535e-06 3.66647693550947088e-07 -1.39760169971823300e-06
4 1 -1.09055309590815547e-06 -4.29008329547516143e-07 6.95173116936629999e-07
5 1 4.19163243339781404e-07 1.86990242838130819e-06 2.11470948096552251e-07
6 1 1.19516405401495464e-06 1.23404917138429559e-06 1.51932992274748542e-07
7 1 1.35829186047803352e-06 3.67187189902758995e-07 -3.47851595071669943e-07
8 1 -1.81682959186270348e-06 -4.99864476496076083e-08 -2.06807144012582960e-06
8
Step 23000
1 1 8.88084665283763744e-07 1.82155687429133328e-06 1.63447205333296900e-06
2 1 -1.06777813218112335e-07 3.59775418770966594e-07 1.83119165516185163e-07
3 1 -2.59007013671994886e-06 1.10127364851712427e-06 -2.66129328979416194e-06
4 1 -2.23617546048554448e-06 1.09698334449691101e-06 6.48940025152896088e-07
5 1 2.38256635268674073e-07 5.27634954061939276e-07 -4.21874383161388069e-07
6 1 2.20351112020032737e-06 -3.31579334383244532e-07 -4.19908804326583117e-08
7 1 2.09008786106713500e-06 1.25800551977187410e-07 -5.80784369354569854e-07
8 1 -1.87853153383677943e-06 1.06286730174903218e-06 -1.67627553270170128e-06
8
Step 24000
1 1 -5.20944878647554271e-08 1.72729584516699533e-06 2.41935561888065192e-06
2 1 -6.70585044527269533e-08 1.31033837243375820e-06 -1.88113136054311913e-07
3 1 -2.50680045066372614e-06 1.14172309221950131e-06 -2.74044969640211779e-06
4 1 -2.41552271517117892e-06 1.75336694402433289e-06 3.71717424913557084e-07
5 1 1.13980568425572369e-09 -1.08084995652517381e-06 -4.65596227176750271e-07
6 1 2.28927506665057320e-06 -1.44238107320427428e-06 -2.89355845186349956e-07
7 1 2.03051781923962883e-06 -2.85293633926539145e-07 -6.10337869030475131e-07
8 1 -1.07685993670261865e-06 1.46497118856842755e-06 -6.43675191804434049e-07
8
Step 25000
1 1 -9.84805229443893221e-07 8.94716930539387393e-07 2.14267358389845021e-06
2 1 1.28266205169909695e-07 1.73258412821978532e-06 -5.69845491895763374e-07
3 1 -1.38116202433511111e-06 6.89292629190466218e-07 -1.69499837710580015e-06
4 1 -1.68530002991656057e-06 1.59024651445812751e-06 -1.53257459419852505e-07
5 1 -2.13951688006357765e-07 -2.16205588557661681e-06 -3.92786728387984819e-08
6 1 1.41850685834807903e-06 -1.66352153383435086e-06 -4.29568898227013063e-07
7 1 9.55146359888199490e-07 -5.68330335537626587e-07 -4.13079580940873136e-07
8 1 2.47379894185635233e-07 9.42154275474106892e-07 5.01490800778604824e-07
8
Step 26000
1 1 -1.29742976385200051e-06 -3.54631348493232380e-07 1.04250641395411321e-06
2 1 4.31537529291222363e-07 1.34829392334764218e-06 -8.40416563273963361e-07
3 1 1.50990437147939546e-07 8.14069588331115791e-08 -1.24785146250333853e-07
4 1 -4.55558586076334547e-07 9.08587532921558141e-07 -8.16673083097392623e-07
5 1 -3.62124589373787315e-07 -2.22134312671274876e-06 4.67919529547289119e-07
6 1 -2.77060130965087677e-08 -1.08589137419949436e-06 -3.43535792475313703e-07
7 1 -7.70257753887784991e-07 -5.35449162396100583e-07 -5.18639839572919919e-08
8 1 1.42019537512655099e-06 -2.67286593133960837e-07 1.24227893176369027e-06
8
Step 27000
1 1 -7.29828442357032888e-07 -1.45849957877653105e-06 -3.05928692428721710e-07
2 1 6.81760174962146241e-07 2.61677428678338857e-07 -8.85938279877569869e-07
3 1 1.30425676725961510e-06 -3.74438448308130620e-07 1.19371555088497767e-06
4 1 6.91181954370294237e-07 7.06060306158501737e-08 -1.38359418049573984e-06
5 1 -4.35261165430406066e-07 -1.27560620105967946e-06 6.08061586330548086e-07
6 1 -1.37798345033480044e-06 -1.92120236750116825e-07 -1.76484579477885656e-08
7 1 -2.31776563196726929e-06 -1.83058867570398941e-07 3.44632090171880979e-07
8 1 1.86486700650475634e-06 -1.55781719907599491e-06 1.35581092592507087e-06
8
Step 28000
1 1 5.07513726313098357e-07 -1.97934941201734928e-06 -1.26766110802725636e-06
2 1 6.78123350190525889e-07 -1.03929323414952012e-06 -6.30238839173129916e-07
3 1 1.56032970117881413e-06 -5.15294519781173474e-07 1.76463101403455626e-06
4 1 1.30024891264541691e-06 -5.99418524616050129e-07 -1.57189378155011860e-06
5 1 -4.42118803872607562e-07 1.84367900049060580e-07 1.88902718720739081e-07
6 1 -2.03439200990896046e-06 4.70499259416733589e-07 4.42742169531007376e-07
7 1 -2.98978036089847671e-06 3.28473899476172050e-07 6.30026022223404152e-07
8 1 1.40709249625286637e-06 -2.22091574078015516e-06 9.64178976618639393e-07
8
Step 29000
1 1 1.79882149384928264e-06 -1.76530122186987440e-06 -1.48643267025119101e-06
2 1 2.98113196280372842e-07 -1.92440414889096512e-06 -8.52851179962124560e-08
3 1 9.32089307926182675e-07 -3.51518102191024893e-07 1.49686683967544218e-06
4 1 1.25465234382757708e-06 -8.95929662945505604e-07 -1.16803060653512189e-06
5 1 -3.77482191078396469e-07 1.43454529329822301e-06 -5.95375573819836794e-07
6 1 -1.78952350365845059e-06 5.81480659200499790e-07 8.50239721517327400e-07
7 1 -2.52491306567051215e-06 7.59120512760847916e-07 6.98002073524381507e-07
8 1 3.15035177795742848e-07 -1.78537915364624036e-06 3.76352000827719703e-07
8
Step 30000
1 1 2.41815748539311035e-06 -9.53216847344820289e-07 -1.01689227025844275e-06
2 1 -3.99101262392521148e-07 -1.96523219187510598e-06 6.08323195901275276e-07
3 1 -9.86595053469980474e-08 -1.76783396958047768e-08 6.26145559534125228e-07
4 1 7.33918940756725540e-07 -7.71957149138701294e-07 -1.59090235895580967e-07
5 1 -2.05595362778403531e-07 1.90358717245404685e-06 -1.29512849390645211e-06
6 1 -8.51530954074286135e-07 1.69255120716508983e-07 1.00158209850159294e-06
7 1 -1.14658449111842021e-06 9.05118853531572589e-07 5.23478060344484888e-07
8 1 -8.24197250479683929e-07 -2.48283595617384119e-07 -9.47415561066338178e-08
8
Step 31000
1 1 1.90318738900883682e-06 8.42883479096983454e-08 -2.11678793988567245e-07
2 1 -1.15560703650448700e-06 -1.12674848146200538e-06 1.21405971011510893e-06
3 1 -8.97377644898325646e-07 3.05611059916091251e-07 -3.96335931377251293e-07
4 1 6.32908705819134205e-08 -3.23840830727608568e-07 1.14830159786597795e-06
5 1 1.09925486307678143e-07 1.44383430966130307e-06 -1.44975823715588423e-06
6 1 2.83165797033492861e-07 -4.27128775770540251e-07 7.48462941825284577e-07
7 1 4.62000257403137457e-07 6.90909471143712663e-07 1.72397335372335278e-07
8 1 -1.46681642645558954e-06 1.77989475356600226e-06 -2.74728885293033858e-07
8
Step 32000
1 1 3.11492702817142319e-07 9.14290265039064973e-07 4.96119963487225100e-07
2 1 -1.60533242035394667e-06 2.06458604190797270e-07 1.49223344610581884e-06
3 1 -1.02557067827747710e-06 4.64962676015155929e-07 -1.09077879906405270e-06
4 1 -4.41423211185202000e-07 2.48970803943572296e-07 2.19840746610082632e-06
5 1 5.47733292690062203e-07 3.57458303560777327e-07 -8.42857322806658266e-07
6 1 1.05687774823260643e-06 -7.55334972920088597e-07 6.68987567366252572e-08
7 1 1.55896876251280073e-06 1.98070394372646453e-07 -2.24715336212659915e-07
8 1 -1.40796106947035446e-06 3.28683640656181467e-06 -2.16879449218227008e-07
8
Step 33000
1 1 -1.65102778824777742e-06 1.26383438722256891e-06 8.01255980061232268e-07
2 1 -1.42626593283383902e-06 1.37922667007749339e-06 1.28314637520067632e-06
3 1 -4.27015686358002329e-07 3.97247325584265775e-07 -1.15407308209419903e-06
4 1 -5.99319812977105023e-07 6.96696396992695073e-07 2.49207046207042066e-06
5 1 9.94844215183340040e-07 -7.79755781745803336e-07 3.32684313847634725e-07
6 1 1.13854882270761138e-06 -5.28583261508044707e-07 -8.80598067375395433e-07
7 1 1.78716776043107810e-06 -3.73055131330179319e-07 -5.24988290620169713e-07
8 1 -7.56160671779372711e-07 3.48979412389215396e-06 -1.35384157710025133e-07
8
Step 34000
1 1 -2.96449802068415377e-06 1.10392540800984144e-06 6.37689010274868753e-07
2 1 -5.01717573111327240e-07 1.82566186025381922e-06 5.78894577077157499e-07
3 1 5.86098276943034054e-07 1.42111378208816295e-07 -5.93400484693876541e-07
4 1 -4.13984710545683180e-07 7.95800225241777443e-07 1.82415729202054830e-06
5 1 1.25566307995827242e-06 -1.42612628408982598e-06 1.53110474662030139e-06
6 1 5.90202328657145371e-07 2.08549529738066774e-07 -1.75414403046770440e-06
7 1 1.20945555489827288e-06 -7.97243865660584639e-07 -6.31495823619910167e-07
8 1 2.17569804009874008e-07 2.18904511272845414e-06 -2.08262398419927440e-07
8
Step 35000
1 1 -2.99213323913072904e-06 6.01991719389074573e-07 1.61701638872378170e-07
2 1 9.24698335277295939e-07 1.38636379464418987e-06 -4.13570105074169514e-07
3 1 1.49307067893738858e-06 -1.94325137795069920e-07 2.55978023491873483e-07
4 1 -4.06774579224274071e-08 4.44176265020505346e-07 3.82811461614507610e-07
5 1 1.10706186478567568e-06 -1.34092156149344827e-06 2.14814846658016174e-06
6 1 -1.83742705159314716e-07 1.10366995495493327e-06 -2.17684438411488787e-06
7 1 2.14015911897597846e-07 -9.36495228798937890e-07 -5.41065674874802490e-07
8 1 1.21443856790673226e-06 -7.99427191905757325e-08 -4.53597710228465052e-07
8
Step 36000
1 1 -1.75364943855954828e-06 2.80694762714066850e-08 -3.52065015226162639e-07
2 1 2.24460287938613906e-06 3.61631662490270647e-07 -1.31941078162304870e-06
3 1 1.78248042971749909e-06 -4.90359730717289977e-07 9.02097100059980812e-07
4 1 3.03679343524345452e-07 -2.64809374085037508e-07 -1.21626155454687495e-06
5 1 4.12729326497868027e-07 -6.59108735688413105e-07 1.82369196181142322e-06
6 1 -6.78090423115203686e-07 1.66430338029369562e-06 -1.89903240941116322e-06
7 1 -6.37760869352781166e-07 -7.95126334157581523e-07 -3.44385387520615961e-07
8 1 1.97095172771893379e-06 -2.11197951389237459e-06 -7.22688648949562461e-07
8
Step 37000
1 1 1.13924555640705181e-07 -3.62101686254669000e-07 -6.48015137657321009e-07
2 1 2.80720059405700810e-06 -6.80083517079076864e-07 -1.77630309464009501e-06
3 1 1.11881220732209668e-06 -6.51729007383759524e-07 9.76815807494509235e-07
4 1 4.44751513896575631e-07 -1.03075545486119738e-06 -2.21361557078601250e-06
5 1 -7.22435651019812103e-07 2.22730045529657922e-07 6.04616631386118148e-07
6 1 -5.86068439985930848e-07 1.48668588791404177e-06 -8.99459952246388987e-07
7 1 -9.18202553416377256e-07 -4.78020857652489464e-07 -1.48176254211464910e-07
8 1 2.23594104969726544e-06 -2.94738895772820905e-06 -7.70935955941594843e-07
8
Step 38000
1 1 1.60858883477975236e-06 -4.44985070480306988e-07 -6.04850917692387665e-07
2 1 2.27386549603670843e-06 -1.21554145137728156e-06 -1.59076110376284350e-06
3 1 -4.78187596299328034e-07 -6.28450438161284807e-07 4.24953412554559028e-07
4 1 3.18940599868509651e-07 -1.42027043778663187e-06 -2.18885180712595476e-06
5 1 -1.89721342462450915e-06 8.78799586512263227e-07 -9.90948405036447669e-07
6 1 3.18591579020816000e-08 4.51978811393388547e-07 5.04488549247631740e-07
7 1 -5.50332608629907449e-07 -7.92158691124214957e-08 9.18749306682280290e-09
8 1 1.77282108959501391e-06 -2.46242407169724543e-06 -3.96755298372527953e-07
8
Step 39000
1 1 2.01138818923264285e-06 -2.90581577829606623e-07 -2.72068907366446655e-07
2 1 7.44751630840230987e-07 -1.02346671505059168e-06 -8.07939636218232239e-07
3 1 -2.38789293364387519e-06 -4.02129841407232497e-07 -4.37215541117215561e-07
4 1 -9.08339640303639140e-09 -1.08303015592488466e-06 -1.23677790916980933e-06
5 1 -2.57486402936278121e-06 1.05294927595176204e-06 -2.15980676097904008e-06
6 1 7.83634030628650268e-07 -1.11694059639587073e-06 1.72094307546185211e-06
7 1 1.63941206375234198e-07 4.08865513214800789e-07 1.75592792092791866e-07
8 1 5.12863905271146819e-07 -1.10720873666687761e-06 4.20125968528934359e-07
8
Step 40000
1 1 1.32612155743843532e-06 -1.09597999881956297e-07 1.87227219107554589e-07
2 1 -1.15026677052753294e-06 -2.93097810623502641e-07 2.70572482606225633e-07
3 1 -3.61663875766439116e-06 2.85283249041792954e-08 -1.07181814029476154e-06
4 1 -3.76124083379346932e-07 -3.34688734862941445e-09 1.17238361995024314e-07
5 1 -2.36445115096846276e-06 7.20817434989855065e-07 -2.28244650023771732e-06
6 1 1.17321062835056773e-06 -2.48701288664241056e-06 2.30726557552173595e-06
7 1 6.80665423231870544e-07 1.00971430560006901e-06 4.28791337911194895e-07
8 1 -1.14368089553984522e-06 3.98721574971190936e-07 1.46323182767841957e-06
8
Step 41000
1 1 1.68735466047127303e-07 -1.00062754216170056e-07 5.95151008443573667e-07
2 1 -2.47363804866027772e-06 5.03343975131330631e-07 1.18414245310472140e-06
3 1 -3.51415963431429503e-06 6.28414610346062346e-07 -1.06751834627842439e-06
4 1 -5.98820277409825308e-07 1.40450578656469641e-06 1.16698635086001970e-06
5 1 -1.20188443564794660e-06 8.86297296803836782e-08 -1.25973732695215319e-06
6 1 9.17238512185064234e-07 -2.92658497413411452e-06 2.20431401958390676e-06
7 1 6.12193961734187883e-07 1.60434964955910320e-06 7.66098747527566178e-07
8 1 -2.36648128964285641e-06 1.36002322445102606e-06 2.30468135519373164e-06
8
Step 42000
1 1 -6.74635945661922809e-07 -3.13004907753163508e-07 8.19926001559290306e-07
2 1 -2.65156466968690074e-06 9.26118112974461501e-07 1.54272716928474140e-06
3 1 -2.04646176417956295e-06 1.27625752325509661e-06 -3.87247803963704590e-07
4 1 -5.53269842886908757e-07 2.44350510014745643e-06 1.41113569061151586e-06
5 1 5.41829461717384052e-07 -5.03083161317714337e-07 4.19671382049832837e-07
6 1 1.16627019211590358e-07 -2.10450875365513066e-06 1.56824300610539463e-06
7 1 -4.12962107786840013e-09 1.93385109918360793e-06 1.02186291663758590e-06
8 1 -2.55621817392113726e-06 1.40485258640910553e-06 2.44354823681172993e-06
8
Step 43000
1 1 -7.37468303110124696e-07 -5.96632704249299562e-07 7.83763409158706396e-07
2 1 -1.73840204368661301e-06 7.65650492795129642e-07 1.22746047387388874e-06
3 1 1.34960368175676854e-07 1.74462194901650157e-06 6.18404338561823340e-07
4 1 -2.16963582950180492e-07 2.50427167676489665e-06 8.06232266745025036e-07
5 1 2.12567088100151531e-06 -7.73811373076089786e-07 1.86038529137045379e-06
6 1 -8.31951562826192532e-07 -2.45105604578535193e-07 6.26872139749114593e-07
7 1 -7.89816327800170510e-07 1.69390492149333777e-06 9.35506607712579931e-07
8 1 -1.75785578770950482e-06 6.30418944347490010e-07 1.57513174194661714e-06
8
Step 44000
1 1 -3.84414180117629326e-08 -6.43630045113592417e-07 4.67358561318789047e-07
2 1 -2.44044649186599753e-07 8.82276222457990546e-08 4.51008677163076267e-07
3 1 1.87133542606908417e-06 1.76596840828427641e-06 1.38309526355205564e-06
4 1 3.03328347358644539e-07 1.37144478434652112e-06 -2.23237384985000181e-07
5 1 2.91450946192016505e-06 -6.35833637105742172e-07 2.28575660765318737e-06
6 1 -1.44710215386819793e-06 1.79119846414486342e-06 -3.49376257790954546e-07
7 1 -1.23575266246055247e-06 7.06438724126577740e-07 3.53748301527127058e-07
8 1 -4.63672067393901981e-07 -4.79600927684395747e-07 -1.03114407901276964e-07
8
Step 45000
1 1 9.83517278749202317e-07 -2.19771822776223673e-07 -4.98201523110272434e-08
2 1 1.07447405673519046e-06 -7.85493422320217206e-07 -3.78976220728837674e-07
3 1 2.44968144988023830e-06 1.16224724554741604e-06 1.43048369899320061e-06
4 1 7.86870050156043613e-07 -6.45910364613479112e-07 -1.00868438277427268e-06
5 1 2.65775784845368374e-06 -2.10045014060883878e-07 1.44576670399491348e-06
6 1 -1.41531825664342737e-06 2.90210255129875971e-06 -1.10906333455061999e-06
7 1 -9.75772833317538744e-07 -7.72728827454578540e-07 -5.89147843425929262e-07
8 1 7.20928952497830215e-07 -1.28572835128961567e-06 -1.81252746283872217e-06
8
Step 46000
1 1 1.61430388079561237e-06 5.96201129084613057e-07 -6.14176693634545659e-07
2 1 1.59449804494137171e-06 -1.40978257021457094e-06 -8.99225407923849572e-07
3 1 1.99881759871081133e-06 1.09641441045995521e-08 6.50647780932070674e-07
4 1 9.92461687101821261e-07 -2.62159672395932378e-06 -1.05996160365631645e-06
5 1 1.46636068834142560e-06 2.40495534014681743e-07 -2.57161211353654632e-07
6 1 -7.61352104277547214e-07 2.48122471248163895e-06 -1.51809711944024299e-06
7 1 -3.12050038297266792e-08 -2.05007074155011966e-06 -1.45394692691388983e-06
8 1 1.32758777812786378e-06 -1.30049840731414813e-06 -2.67200075973962652e-06
8
Step 47000
1 1 1.30687915919466959e-06 1.42575277015603401e-06 -1.04171188782792679e-06
2 1 1.20490112507655129e-06 -1.40592225868618564e-06 -9.12265812556243999e-07
3 1 1.05215389840878923e-06 -1.27092214647724383e-06 -6.08413078385962925e-07