8
Step 0
1 1 0.00000000000000000e+00 0.00000000000000000e+00 0.00000000000000000e+00
2 1 0.00000000000000000e+00 0.00000000000000000e+00 0.00000000000000000e+00
3 1 0.00000000000000000e+00 0.00000000000000000e+00 0.00000000000000000e+00
4 1 0.00000000000000000e+00 0.00000000000000000e+00 0.00000000000000000e+00
5 1 0.00000000000000000e+00 0.00000000000000000e+00 0.00000000000000000e+00
6 1 0.00000000000000000e+00 0.00000000000000000e+00 0.00000000000000000e+00
7 1 0.00000000000000000e+00 0.00000000000000000e+00 0.00000000000000000e+00
8 1 0.00000000000000000e+00 0.00000000000000000e+00 0.00000000000000000e+00
8
Step 1000
1 1 2.98359383729973753e-06 -8.66880695749253129e-07 -2.44550991469474520e-06
2 1 2.00905367642203083e-06 -3.39232251410373765e-06 -3.77032682783113985e-08
3 1 -2.24003771406942955e-06 -2.31638988335152101e-06 -2.90415113135679521e-07
4 1 2.41387226078447495e-06 -2.41191225768865265e-06 -4.89000649547760242e-07
5 1 2.57460488777237158e-06 -3.00358037116093751e-06 -2.47505890360977047e-06
6 1 1.42630123820519886e-06 3.84555036029625444e-06 2.89522992020385578e-06
7 1 -2.98651531366619721e-07 1.24825701929320937e-06 -2.95082374160381233e-06
8 1 -3.98100805639161910e-07 2.18814033984178364e-06 4.87304017449887616e-07
8
Step 2000
1 1 2.96990087737406144e-06 -9.63442691813470455e-07 -1.16866447248524168e-06
2 1 8.33696539117023530e-07 -1.90624864552519158e-06 1.07831857351342949e-06
3 1 -1.26227792003030316e-06 -1.36458926298838076e-06 2.01870391089886696e-07
4 1 1.27393329150891704e-07 -2.82040047106639536e-06 -1.33249059022400285e-06
5 1 5.05209858828172299e-07 -3.30208143112525181e-06 -1.66065397639108544e-06
6 1 1.89302625930425253e-06 2.66845180755584942e-06 1.49648019537011976e-06
7 1 8.63932386264464604e-07 1.54317147817348080e-06 -2.01559010593787958e-06
8 1 5.87620403420946996e-07 3.42153385666427137e-06 5.01911844421058693e-07
8
Step 3000
1 1 1.62932530698564958e-06 -9.02356224771137897e-07 5.68827004548798976e-07
2 1 -8.66183734536061460e-07 4.88437443024499833e-07 1.85099724526411949e-06
3 1 2.32151982266042978e-07 1.36283214891683137e-07 6.60913562549859866e-07
4 1 -2.13398414726981346e-06 -1.93610166265009003e-06 -1.62899589013707842e-06
5 1 -1.70040437589084207e-06 -2.21719930487215313e-06 -1.17629430674988643e-07
6 1 1.43019327661601937e-06 2.19716380907311235e-07 -3.70767353266074235e-07
7 1 1.37232720253519414e-06 1.25028102841211575e-06 -5.94892773861444170e-08
8 1 1.47996281379450072e-06 3.05367474919771938e-06 5.40182716243679430e-07
8
Step 4000
1 1 -3.39861407389267222e-07 -6.65021747169850851e-07 1.88356564624880021e-06
2 1 -2.16223391329277473e-06 2.40325839081747528e-06 1.96353175895340136e-06
3 1 1.58334352643912376e-06 1.43871288320872303e-06 9.71723879485392083e-07
4 1 -3.25059728302479418e-06 -1.88451631685428600e-07 -1.53451125538016654e-06
5 1 -2.84335827941081407e-06 -3.34275945828647734e-07 1.42822766195592836e-06
6 1 1.52203126964812995e-07 -2.06741637095036989e-06 -1.70485022027129409e-06
7 1 1.19429888057637363e-06 2.85009941780501719e-07 1.86671591255792490e-06
8 1 1.80183560159302145e-06 1.35929510752385895e-06 4.03932189381409874e-07
8
Step 5000
1 1 -1.89492868762897749e-06 -1.98817324651525180e-07 2.16996603606109862e-06
2 1 -2.37848956859739416e-06 2.87956667415761415e-06 1.37983386644119928e-06
3 1 2.27190434029687391e-06 2.01190278735749810e-06 1.04719950999596476e-06
4 1 -2.86665690963582854e-06 1.53684568900583868e-06 -1.25560330953927277e-06
5 1 -2.46149587000355893e-06 1.36046867764248118e-06 2.26817221889217680e-06
6 1 -1.38609375137837813e-06 -3.08958147725691914e-06 -1.90730657421061629e-06
7 1 6.41380635653162952e-07 -9.89700225815626551e-07 2.76043029326567099e-06
8 1 1.35833617024997880e-06 -7.13646105168883752e-07 -5.01891972414984108e-08
8
Step 6000
1 1 -2.34816861081956121e-06 5.02259327149425287e-07 1.40296776434956786e-06
2 1 -1.43384115609052404e-06 1.89056176325309879e-06 3.42975101546256082e-07
3 1 2.14041270036027211e-06 1.71542434958391724e-06 8.20607641882974468e-07
4 1 -1.34043100630145917e-06 2.42504627927099753e-06 -9.05524687860301434e-07
5 1 -9.12100085983671973e-07 2.13412663830142249e-06 2.13620413349936196e-06
6 1 -2.45626974537352579e-06 -2.71723531665493752e-06 -1.06958263037171764e-06
7 1 9.42878730297529781e-08 -1.97382778953413809e-06 2.23348739249734925e-06
8 1 3.11334377881237373e-07 -2.07736587121426056e-06 -7.29860464877467941e-07
8
Step 7000
1 1 -1.70303507987065746e-06 1.30457517771970973e-06 6.29830509111485354e-08
2 1 1.54808949215408598e-07 1.63737905212265007e-07 -6.76760469969575097e-07
3 1 1.36097016851662378e-06 7.62444789432127144e-07 2.94145725637297399e-07
4 1 4.98501670716542221e-07 2.17108829305765673e-06 -4.93758692817600156e-07
5 1 8.82123568069321004e-07 1.89913425415069511e-06 1.22138044244156003e-06
6 1 -2.54150082731742165e-06 -1.42139946995401590e-06 1.67582602345558775e-07
7 1 -1.94903316858597690e-07 -2.20284963640113316e-06 6.10020371055018259e-07
8 1 -8.78844230666778081e-07 -2.17260493540607180e-06 -1.35130793397044455e-06
8
Step 8000
1 1 -4.77995338270256392e-07 1.94671369679249128e-06 -1.15363075191833926e-06
2 1 1.50406809335774512e-06 -1.28305070074012483e-06 -1.21868791774365128e-06
3 1 3.27267219780222074e-07 -4.09992377182301476e-07 -4.06306641528308513e-07
4 1 1.82868706657619739e-06 1.02234163793808824e-06 -1.41699168271216778e-10
5 1 1.98704474330822087e-06 1.02647817287269408e-06 2.75864777762187987e-08
6 1 -1.54246120429131468e-06 7.31952072444393597e-08 1.02462938662932577e-06
7 1 -1.69784379172360490e-07 -1.56464630395838576e-06 -1.22685817878696113e-06
8 1 -1.67625062883837182e-06 -1.10059156831087444e-06 -1.59729754710492879e-06
8
Step 9000
1 1 6.20226783433785020e-07 2.12337559719715302e-06 -1.70239877172431469e-06
2 1 1.91185556901619521e-06 -1.77716101320950898e-06 -1.13011111207834193e-06
3 1 -5.42640193000617810e-07 -1.33595370154477694e-06 -1.05997498977157144e-06
4 1 2.23024527382181472e-06 -3.74640785705501749e-07 5.47422880194203511e-07
5 1 2.01553879982337134e-06 1.94623566622441205e-08 -8.67169135189371885e-07
6 1 1.18807663317572725e-07 1.15980996445351037e-06 1.05877955312596606e-06
7 1 4.62475928048110222e-08 -3.49742457298589463e-07 -2.33794703572724781e-06
8 1 -1.75375704203032152e-06 5.17655665132240308e-07 -1.25942034971120929e-06
8
Step 10000
1 1 1.06251484354052110e-06 1.55838939541716113e-06 -1.42483121964814216e-06
2 1 1.27693567027654780e-06 -1.27828930923630036e-06 -6.31472422971684248e-07
3 1 -9.97380441454747915e-07 -1.72216123933422131e-06 -1.42717427816428389e-06
4 1 1.69124612907187386e-06 -1.35355382203225273e-06 1.04160138268878098e-06
5 1 1.19551733231400656e-06 -7.12700330131659098e-07 -1.11578391427083631e-06
6 1 1.62238405676177198e-06 1.57847500292053334e-06 3.47912851279447037e-07
7 1 2.55470909092391666e-07 8.44248770805960946e-07 -2.30676135276783502e-06
8 1 -1.10480542389929580e-06 1.79676488144157021e-06 -3.30229713364566664e-07
8
Step 11000
1 1 7.13539203293863301e-07 1.83677474024852353e-07 -5.75591114085953514e-07
2 1 9.92320658465002651e-08 -2.43698640172094842e-07 -7.85675875501113741e-08
3 1 -9.93677808125390182e-07 -1.54003926723896971e-06 -1.31071434859819707e-06
4 1 5.21992675323303734e-07 -1.62055496845930860e-06 1.32605658863254786e-06
5 1 1.11222088916041995e-07 -9.66786725153970494e-07 -7.39916836279277226e-07
6 1 2.30384332605850849e-06 1.35509689471063493e-06 -6.13711021049252748e-07
7 1 3.13868706694347114e-07 1.42924577128410261e-06 -1.36121166907859880e-06
8 1 -1.64529818929761259e-08 2.03046765376513943e-06 9.46493108654504210e-07
8
Step 12000
1 1 -1.47031773905012948e-07 -1.56251525423934603e-06 3.52853811899981923e-07
2 1 -8.49897493432626861e-07 6.88879179326995003e-07 2.68078568153449861e-07
3 1 -6.45945165627583513e-07 -9.44187397344265974e-07 -5.98230706053030666e-07
4 1 -7.54637403074771187e-07 -1.29277443393582406e-06 1.26685693507801793e-06
5 1 -6.75954135734191674e-07 -7.52904566091074324e-07 -2.03426895477578856e-08
6 1 2.04261217268021641e-06 7.07898893432379231e-07 -1.21584039195307613e-06
7 1 1.72819528192114977e-07 1.20974296850864630e-06 -1.34203661270343499e-07
8 1 1.03232841172225026e-06 1.04546463222065210e-06 2.13941256695790390e-06
8
Step 13000
1 1 -9.30704723362113172e-07 -2.86812018807714446e-06 9.32873528567137687e-07
2 1 -1.02912292198969749e-06 1.07126350700438349e-06 3.21511064943896426e-07
3 1 -1.69425737232985276e-07 -1.37306197048407535e-07 6.46800352004276141e-07
4 1 -1.63934605483342611e-06 -6.79874455416942360e-07 8.36664681727557854e-07
5 1 -9.24067204820969331e-07 -2.38148837243202153e-07 6.70521848829075668e-07
6 1 1.16763371005139260e-06 -4.13766404419755036e-08 -1.11520890362901867e-06
7 1 -1.48204273834308242e-07 5.22075159830468837e-07 7.70313719285715924e-07
8 1 1.58217793059340466e-06 -7.18451161691718717e-07 2.87355166124306139e-06
8
Step 14000
1 1 -1.06173617490343758e-06 -3.19801233723500917e-06 1.01918621449272488e-06
2 1 -4.34331100647740989e-07 8.33037022371800080e-07 1.63871333672138765e-07
3 1 2.07233850039463556e-07 6.72417181845903402e-07 2.02306927876262643e-06
4 1 -1.86991715392963724e-06 -4.15796633378381654e-08 1.63050953881951441e-07
5 1 -7.24553102425206452e-07 3.27860467722577681e-07 9.22226607024954537e-07
6 1 1.87681670714143212e-07 -6.16367764959051144e-07 -3.92281224499733831e-07
7 1 -5.80054621951597672e-07 -8.10664085714955288e-08 1.09702151838453365e-06
8 1 1.39928337347952105e-06 -2.36310702801005000e-06 2.89841116226409482e-06
8
Step 15000
1 1 -3.62481450299651107e-07 -2.52871743983148595e-06 7.45681779430736462e-07
2 1 4.44087108940767882e-07 2.08477633218374479e-07 -3.82518721608458553e-08
3 1 3.32653614310363021e-07 1.29602862299347861e-06 2.84523492602791709e-06
4 1 -1.45375053163210381e-06 5.20285992308996694e-07 -5.24085942332000413e-07
5 1 -3.29197808511962224e-07 6.92278510958329580e-07 4.96958953374680933e-07
6 1 -4.97774510803151973e-07 -8.89849777971881450e-07 5.64089818455035038e-07
7 1 -9.92184299976772890e-07 -2.74021705939134551e-07 9.03176798186032572e-07
8 1 5.50058588338973219e-07 -2.95419589374139169e-06 2.00205338211518414e-06
8
Step 16000
1 1 8.25856858606286168e-07 -1.22196267766228610e-06 3.72094413553658599e-07
2 1 9.84242231933567339e-07 -4.40664652071186519e-07 -1.53351643428971377e-07
3 1 1.86564164441544208e-07 1.63273827608758489e-06 2.58486716329964554e-06
4 1 -6.02071888108011852e-07 9.96918743829181783e-07 -1.00649933444339458e-06
5 1 2.43765721716908683e-08 6.81245858125279719e-07 -3.84470450332487370e-07
6 1 -7.36623603567903227e-07 -9.00324253336002803e-07 1.28257083262635956e-06
7 1 -1.18396994900713705e-06 -6.76680723178029673e-08 3.96196966568565380e-07
8 1 -6.11172534864195072e-07 -2.05832691632328629e-06 1.43485242129585475e-07
8
Step 17000
1 1 1.80182946420029322e-06 1.26075226652336464e-07 1.03492977040522938e-07
2 1 8.67960815232436154e-07 -7.99532942262214499e-07 -1.42752856133877648e-07
3 1 -9.94343995165817375e-08 1.59015170191963326e-06 1.23206224132333975e-06
4 1 3.59869077499099493e-07 1.31264481758233111e-06 -1.15224846435837773e-06
5 1 2.15019296081987220e-07 2.80001356861844498e-07 -1.21361650820969896e-06
6 1 -6.00698816809041156e-07 -7.92949573477348914e-07 1.43417551830456477e-06
7 1 -9.23725097324729062e-07 2.53789134304363800e-07 -1.72747521712409199e-07
8 1 -1.55252714593619805e-06 -6.70822139245184855e-08 -2.08325566326728699e-06
8
Step 18000
1 1 1.90800715943833660e-06 1.03529097851341817e-06 -3.54441116542116030e-08
2 1 1.73234650235819826e-07 -7.23704177658206394e-07 -3.25489451040695068e-08
3 1 -2.76549251825332288e-07 1.04559522495191027e-06 -6.10825819058252148e-07
4 1 1.13558253208642016e-06 1.20102233310370016e-06 -9.37894073566078624e-07
5 1 2.58648221214852245e-07 -3.37340353893000934e-07 -1.45836934172434567e-06
6 1 -2.95277167508831089e-07 -6.61301945563294261e-07 9.57634266209295644e-07
7 1 -1.09435465253087747e-07 3.62027594217107700e-07 -5.77938102203815446e-07
8 1 -1.79254636561749352e-06 1.98424386283088095e-06 -3.51226679883024081e-06
8
Step 19000
1 1 9.85181504832348931e-07 1.37040608191212063e-06 -1.63202562109952932e-07
2 1 -7.13250488822802492e-07 -2.94565125376657626e-07 1.09826092240495533e-07
3 1 -1.27214448054111668e-07 1.10735062283709098e-07 -1.99078645277807435e-06
4 1 1.56008509189564281e-06 4.65696919353876590e-07 -4.42159847280366964e-07
5 1 2.51861734201807794e-07 -8.63849108101491425e-07 -8.36728075567153205e-07
6 1 -3.56559574388990829e-08 -4.34825508715678195e-07 6.90936829524192325e-08
7 1 1.04928501148696856e-06 1.87620419110182436e-07 -6.77717262871935429e-07
8 1 -1.11397232770774234e-06 3.13402877426779917e-06 -3.48825386119597711e-06
8
Step 20000
1 1 -5.20936349345916075e-07 1.21443616319832447e-06 -3.91064020180366064e-07
2 1 -1.27502372476360502e-06 2.35315302893741332e-07 1.97711575934469443e-07
3 1 3.72403491644018086e-07 -8.32581956066603110e-07 -2.25694992052634730e-06
4 1 1.59019163908120853e-06 -6.69498883033541953e-07 1.72165950373487252e-07
5 1 2.79175403032557024e-07 -9.91514034815512771e-07 3.44146423608171048e-07
6 1 5.76197933292442867e-08 3.00588432200367440e-09 -8.31811782426957956e-07
7 1 2.07628532046830507e-06 -9.96288395589485946e-08 -4.56455774885649148e-07
8 1 3.03619855823462262e-07 2.96591503659051809e-06 -2.23687531866913418e-06
8
Step 21000
1 1 -1.84331930092230571e-06 7.23276145014000072e-07 -7.18896424295166058e-07
2 1 -1.18211795831668360e-06 5.93300741731779437e-07 1.84779835344939372e-07
3 1 9.93225459165597693e-07 -1.42513067135826243e-06 -1.44155385953917322e-06
4 1 1.23815461502251103e-06 -1.69473169751339466e-06 7.03731928364680210e-07
5 1 3.45609477678854759e-07 -5.74042215823133024e-07 1.39035029107139710e-06
6 1 -1.30372574340451912e-10 6.47510189657950156e-07 -1.36004103637557260e-06
7 1 2.50431051545321136e-06 -3.09040237384868669e-07 -3.07548118345355079e-08
8 1 1.85559280530311002e-06 1.64470460592140073e-06 -5.68964871797736710e-07
8
Step 22000
1 1 -2.34855601461306567e-06 1.06733474050942394e-07 -9.86158710541252905e-07
2 1 -4.66724243783904348e-07 6.15841784638861101e-07 7.97423251378106604e-08
3 1 1.31463349728157741e-06 -1.50199131605014840e-06 -1.34065337793260021e-07
4 1 5.45047948800744021e-07 -2.09885161223182080e-06 9.82947793607869580e-07
5 1 3.65982271892906165e-07 2.63123554420847596e-07 1.74967012576194330e-06
6 1 -7.66631072253663975e-08 1.33975368769633403e-06 -1.32500036084842552e-06
7 1 2.07722910523362122e-06 -3.54432043678541078e-07 3.95678770581608918e-07
8 1 2.75539659316267198e-06 -1.34601574407925449e-07 6.10072726390530203e-07
8
Step 23000
1 1 -1.82143576713174145e-06 -3.93758822742450387e-07 -9.34726873546061063e-07
2 1 5.28253902646206149e-07 3.16939525805301330e-07 -6.62741948398776272e-08
3 1 9.59234925060484524e-07 -1.10069675352165676e-06 9.09049969699377949e-07
4 1 -3.45831905664198922e-07 -1.61278842604443682e-06 9.27450084975008188e-07
5 1 2.21985880627830748e-07 1.14418213439408968e-06 1.27433509538522334e-06
6 1 -2.24513737327840284e-08 1.79400462749229221e-06 -7.83584740083776556e-07
7 1 8.33887072014703940e-07 -2.61426908250371067e-07 6.18363315319291075e-07
8 1 2.43763862621960293e-06 -1.52669518800018343e-06 9.28874369894522060e-07
8
Step 24000
1 1 -5.34938040144335243e-07 -5.94546519598420901e-07 -4.20236776789418892e-07
2 1 1.31270990408025878e-06 -1.06668983555377909e-07 -1.79054783323773730e-07
3 1 -9.46345013704217120e-08 -4.30849448387028391e-07 1.18832286495681694e-06
4 1 -1.15474264619090391e-06 -4.17324057769348783e-07 5.63647199960912502e-07
5 1 -1.37119489550093741e-07 1.59815695716230701e-06 2.21946392712494297e-07
6 1 2.10437700653248768e-07 1.69504462802165775e-06 1.14820330110957251e-08
7 1 -7.63126117628889698e-07 -1.19287287187203344e-07 5.22177107710474000e-07
8 1 8.30506779471123172e-07 -2.06818357059674981e-06 6.08089554393574664e-07
8
Step 25000
1 1 8.67471118526747983e-07 -4.64652921140913648e-07 4.26091376273023588e-07
2 1 1.49294261454539957e-06 -3.82502992950711889e-07 -2.02481929083572883e-07
3 1 -1.42302774095593641e-06 2.21430415498284378e-07 6.73265352944850503e-07
4 1 -1.60451376808393336e-06 9.11173833566342858e-07 2.46996393947413055e-08
5 1 -6.25890738592086703e-07 1.30190308692513420e-06 -8.79994737082096033e-07
6 1 5.30525131437045647e-07 8.97690213787615140e-07 7.30755498434727790e-07
7 1 -1.97188986375089840e-06 -1.64622501588145739e-08 1.34270737392053406e-07
8 1 -1.42434595634040106e-06 -1.75403491420599913e-06 7.52531883288163498e-08
8
Step 26000
1 1 1.72957947108768897e-06 -1.44257139616113919e-07 1.25475591938029547e-06
2 1 9.77777509836529978e-07 -3.32647369500027731e-07 -1.35317431241311158e-07
3 1 -2.37471506806817379e-06 6.39959998069559153e-07 -2.25660356238221152e-07
4 1 -1.54948626846926695e-06 1.75308013704061739e-06 -4.98665495467047900e-07
5 1 -1.03584076556044450e-06 2.89164370319063812e-07 -1.50585153220839065e-06
6 1 7.41750531938329390e-07 -3.93258509097761320e-07 1.11988958840302970e-06
7 1 -2.35446044676308431e-06 1.58186748207629082e-08 -3.79021519008702118e-07
8 1 -3.15866876631847711e-06 -8.77189294386605704e-07 -3.06824265574318941e-07
8
Step 27000
1 1 1.73117964213371441e-06 1.40624990257229500e-07 1.67874672899739020e-06
2 1 1.18965169604236152e-08 1.49735988156242805e-08 -2.70705308436230908e-08
3 1 -2.41237226901787924e-06 7.58227645525372623e-07 -9.14166358887291268e-07
4 1 -1.00461747233484604e-06 1.79672435329131837e-06 -8.37635876504876897e-07
5 1 -1.11814750575503648e-06 -1.00793040388032598e-06 -1.39204584683044470e-06
6 1 6.32639748220406514e-07 -1.64944931857643832e-06 1.09341141387518365e-06
7 1 -1.99671123561584597e-06 2.04129606493579561e-08 -7.74084366034483203e-07
8 1 -3.51764360749895651e-06 1.05688578660336528e-07 -3.60299070011592736e-07
8
Step 28000
1 1 9.80386293213278137e-07 2.12632509538657938e-07 1.46066853540888244e-06
2 1 -9.43425509814920908e-07 4.23238386093388021e-07 4.98717035455754626e-08
3 1 -1.38294064209635780e-06 6.30087988330538044e-07 -9.65920634780697171e-07
4 1 -1.70502252235548125e-07 1.13555373102664825e-06 -8.95989134983301226e-07
5 1 -7.10354188216143594e-07 -1.94763831955252762e-06 -6.34031326682158103e-07
6 1 1.22803177679389693e-07 -2.33722167764678886e-06 7.20432243310098216e-07
7 1 -1.22993343392487095e-06 7.55091251901963992e-08 -8.32777327761380673e-07
8 1 -2.39107413432141200e-06 7.69476862482254110e-07 -1.15286925264427339e-07
8
Step 29000
1 1 -7.60855209283559880e-08 3.20308337411296955e-08 6.53541936963033311e-07
2 1 -1.43484401680972137e-06 5.62426562204106257e-07 4.30486557392811876e-08
3 1 3.08028944822102300e-07 3.68064785863559587e-07 -3.14801581849106012e-07
4 1 6.07051473642946840e-07 1.47371086058683843e-07 -6.73907600064641379e-07
5 1 1.38431472001684003e-07 -2.02425005603817485e-06 3.70871074244697670e-07
6 1 -6.36402044551147568e-07 -2.20443965456306227e-06 1.67702892631065230e-07
7 1 -4.17068185035217402e-07 2.25913434495955160e-07 -4.62193097973546314e-07
8 1 -3.82011775941094895e-07 9.09005282978965102e-07 2.47219453261970073e-07
8
Step 30000
1 1 -8.77265636365497382e-07 -2.86791201351728319e-07 -3.87230224192532520e-07
2 1 -1.24358675383381792e-06 2.12645555495639699e-07 -3.66499910054184973e-08
3 1 1.83236945817958727e-06 9.34748403120421833e-08 7.39327552801112807e-07
4 1 1.01862380181939037e-06 -7.08323114752742350e-07 -2.62042596401107241e-07
5 1 1.12797169507075686e-06 -1.14311730189831114e-06 1.11489001186814036e-06
6 1 -1.31171489221347231e-06 -1.33450634860943263e-06 -3.77459837028903184e-07
7 1 1.80515266220772955e-07 4.30097631540446780e-07 2.46694013076132585e-07
8 1 1.41398939655157748e-06 5.85968403233070674e-07 5.02878378621908007e-07
8
Step 31000
1 1 -1.03949090769137382e-06 -5.23088044731405703e-07 -1.18884348452546846e-06
2 1 -4.82168917662629452e-07 -5.66571791693325964e-07 -1.11368964245888647e-07
3 1 2.49231427273161957e-06 -1.04629284986546117e-07 1.65472335188878713e-06
4 1 9.67334985061217398e-07 -1.09047457370148554e-06 2.08544594246600118e-07
5 1 1.82436786431232577e-06 3.09285618109163090e-07 1.23509849161665329e-06
6 1 -1.54029314778848573e-06 -1.20747992182801345e-07 -7.81310217426681987e-07
7 1 5.22097349898385552e-07 5.53297556398120295e-07 1.02291752460536981e-06
8 1 2.16819309377333101e-06 8.66973135981697399e-08 5.01187330536815024e-07
8
Step 32000
1 1 -5.47589522114678899e-07 -4.67724985236816105e-07 -1.43506591286306902e-06
2 1 4.62853565169789349e-07 -1.39515260643161117e-06 -8.17722499568806823e-08
3 1 2.09151294981732504e-06 -1.94318567282313433e-07 1.89433168922354225e-06
4 1 5.85372404787507911e-07 -9.20990694797262846e-07 6.18346979040556495e-07
5 1 1.86783808798140956e-06 1.62308242565383093e-06 6.83577543528381765e-07
6 1 -1.09486811146368843e-06 8.90706072587496552e-07 -9.84211477519751124e-07
7 1 7.13400083553603905e-07 4.21417634076323827e-07 1.50647005913926346e-06
8 1 1.82055331348006136e-06 -2.23947878823772333e-07 2.37633782483532013e-07
8
Step 33000
1 1 2.24591630573417415e-07 -5.34362644604309182e-08 -1.10401351551491402e-06
2 1 1.11547541314417625e-06 -1.72371291264834967e-06 1.12773783777403062e-07
3 1 9.18432681176122115e-07 -1.93909729406205652e-07 1.18082794960459374e-06
4 1 1.19241118447888239e-07 -3.88250649989974916e-07 8.59722021367617749e-07
5 1 1.12983722070328223e-06 2.14130950895965986e-06 -2.53847322008159826e-07
6 1 -1.81279716265441592e-08 1.32915740211536861e-06 -9.75024900971607451e-07
7 1 8.27588520004522937e-07 -7.89461662594048105e-08 1.40257741203636645e-06
8 1 8.45279617704996794e-07 -1.42552237517051441e-07 -1.56149594599153296e-07
8
Step 34000
1 1 7.28800433281620558e-07 5.87421783552804417e-07 -4.32070799382497914e-07
2 1 1.14734580975368256e-06 -1.14712959371729617e-06 4.41695197294612021e-07
3 1 -4.03352448939783487e-07 -1.49579764464498877e-07 -3.20242483280095871e-07
4 1 -1.96694041829979438e-07 1.97309757297176536e-07 8.53373182880827206e-07
5 1 -1.87627878680156285e-07 1.63387930852784197e-06 -1.08486923163764499e-06
6 1 1.29794374912768459e-06 1.18054964327435667e-06 -7.63220833680452938e-07
7 1 8.41915612320526189e-07 -8.89444964146746297e-07 6.28666761911108482e-07
8 1 -1.60172557250229198e-07 2.66403218472610427e-07 -4.91900709596232667e-07
8
Step 35000
1 1 6.02432122960535041e-07 1.16467626853819429e-06 2.26619684698411189e-07
2 1 5.53728330793268536e-07 2.76534396718438166e-07 7.61042670363014275e-07
3 1 -1.22796080823099357e-06 -1.09170525218948663e-07 -1.94699511649506092e-06
4 1 -2.39814569313387187e-07 5.56359532846733028e-07 5.83172385022255972e-07
5 1 -1.54322279674273778e-06 3.84629589776009832e-07 -1.34656938455364769e-06
6 1 2.21087960145800373e-06 6.88949060249956633e-07 -3.60455521632898986e-07
7 1 6.76600221788865148e-07 -1.70560462842978990e-06 -5.78887135605725332e-07
8 1 -7.76731675492107119e-07 6.95917097074159592e-07 -6.23135646743233760e-07
8
Step 36000
1 1 -1.30105076201612023e-07 1.34533565044352043e-06 5.77472856892666827e-07
2 1 -3.28629905416952046e-07 1.92870039549433363e-06 8.52773675915938782e-07
3 1 -1.24704569782038714e-06 -9.91881683975978496e-08 -2.87441519556376493e-06
4 1 -5.70632472090290392e-08 5.36422218437024936e-07 8.15370528209400717e-08
5 1 -2.30985561759824576e-06 -1.01374087974517267e-06 -8.18503253482836333e-07
6 1 2.19781328780589549e-06 1.73738407685889387e-07 2.17419891297890237e-07
7 1 2.78640992308667658e-07 -2.03985495307446363e-06 -1.69482486883151600e-06
8 1 -8.78345314778003119e-07 7.23452708035011166e-07 -5.12441150499533172e-07
8
Step 37000
1 1 -1.04975098644002342e-06 8.95627789974105737e-07 5.20643611257709091e-07
2 1 -1.00488778426736473e-06 2.97136869978699621e-06 5.31432643628736404e-07
3 1 -5.97185872183124894e-07 -1.17408693226898052e-07 -2.61390670124996973e-06
4 1 1.67496064810125499e-07 1.66973278917584067e-07 -5.83394693539782560e-07
5 1 -2.13308594639610692e-06 -1.93930238102367697e-06 3.66733976234031100e-07
6 1 1.22051712019665909e-06 -1.18070555952621797e-07 8.89137501304880159e-07
7 1 -2.96248125900217667e-07 -1.46365114403561019e-06 -2.18504428920717439e-06
8 1 -5.64406337559298777e-07 1.53147689699460749e-07 -2.43089964880256825e-07
8
Step 38000
1 1 -1.52854582585696606e-06 -1.78846403494761968e-07 1.82655974813718827e-07
2 1 -1.08578174741534494e-06 2.82993570368704518e-06 -2.34889857543381183e-07
3 1 2.82553940445736951e-07 -1.40734902868484862e-07 -1.21571665017302777e-06
4 1 2.48870227709735214e-07 -3.52825669720069673e-07 -1.24595527244591877e-06
5 1 -1.05896131213057224e-06 -1.99675685562554905e-06 1.70250322848846343e-06
6 1 -2.55947528259217379e-07 -1.05125441889047206e-07 1.48646019770257636e-06
7 1 -8.63556888746041817e-07 4.30776129683518475e-08 -1.82223037959198442e-06
8 1 -2.14180649441418410e-08 -7.88353555745725497e-07 2.57421342069876971e-08
8
Step 39000
1 1 -1.11287854395765646e-06 -1.52165353397243456e-06 -1.73449590749794362e-07
2 1 -4.71226115926502274e-07 1.45385191505102391e-06 -1.24588585147823018e-06
3 1 8.74206043790720751e-07 -1.43490548213611915e-07 6.93511977258474585e-07
4 1 1.21558734777463297e-07 -7.53685757572947891e-07 -1.64845059535865790e-06
5 1 5.02667436214146132e-07 -1.13025463566903012e-06 2.47116127129898904e-06
6 1 -1.52499106161810735e-06 9.21642867837881428e-08 1.82839745039102895e-06
7 1 -1.16230458260704201e-06 1.83505970378755223e-06 -7.81379201129695024e-07
8 1 5.41490090296208661e-07 -1.60036738374470534e-06 1.47793293963727468e-07
8
Step 40000
1 1 1.56602509677787991e-07 -2.50879042178815007e-06 -3.05306730490527707e-07
2 1 5.65607865216766192e-07 -5.43988254139549057e-07 -2.09904524521917301e-06
3 1 8.24836433033985342e-07 -1.12986814208568223e-07 2.14712075400941589e-06
4 1 -1.46028351576266920e-07 -7.90510264915668617e-07 -1.59256567392415223e-06
5 1 1.88474901246685772e-06 4.60842854002588022e-07 2.08983843199336006e-06
6 1 -1.96676002195176443e-06 2.29123958090219425e-07 1.75989636039737916e-06
7 1 -9.70108729383292194e-07 2.95151254644080697e-06 4.47057124975877489e-07
8 1 8.96859718755028051e-07 -1.78677082322743631e-06 1.02877543195708246e-07
8
Step 41000
1 1 1.70462207055561102e-06 -2.58277972108725000e-06 -1.16917171325559627e-07
2 1 1.47350623854164594e-06 -2.17419018932685494e-06 -2.34049744109991453e-06
3 1 1.47235612096001872e-07 -5.24005414976813779e-08 2.47291782174722857e-06
4 1 -4.13605296174449657e-07 -2.94314397643125550e-07 -1.02719313609912273e-06
5 1 2.44990522695239214e-06 2.28007692238706983e-06 4.40783046315691183e-07
6 1 -1.44746467114722700e-06 1.16711600400723477e-07 1.18532760372566686e-06
7 1 -2.57034810733667961e-07 2.82633395778221861e-06 1.29447855334067927e-06
8 1 8.43372681451768991e-07 -1.11263371479135859e-06 6.69857752596128648e-08
8
Step 42000
1 1 2.72146499665093866e-06 -1.54829999579789990e-06 2.92698838258452133e-07
2 1 1.71447878864749759e-06 -2.76313263331376595e-06 -1.67439015558162193e-06
3 1 -7.83668837809434894e-07 3.88643496370504275e-08 1.66109456320699192e-06
4 1 -5.51904973759772671e-07 7.35249792941068596e-07 -5.43650249896565453e-08
5 1 1.91187929020038037e-06 3.48867970912916631e-06 -1.82145553590693809e-06
6 1 -4.39130109440044006e-07 -2.64203518096010179e-07 1.82575190399963379e-07
7 1 7.44698400441061025e-07 1.52642142959978448e-06 1.48147643437305023e-06
8 1 3.46281453247450701e-07 2.50220319859759689e-07 3.19518832322312226e-07
8
Step 43000
1 1 2.61055727653800533e-06 2.60583867474665743e-07 6.75014666459579264e-07
2 1 1.01663684224720695e-06 -2.19132759211691577e-06 -2.00633088618890018e-07
3 1 -1.41205926921958244e-06 1.68152346337424383e-07 2.79805224051004302e-07
4 1 -5.09845255475264280e-07 1.98513873671486973e-06 1.00377186367361727e-06
5 1 4.01585010907021239e-07 3.38494475970886772e-06 -3.44438863443668452e-06
6 1 4.71227001975622123e-07 -7.44951509509243651e-07 -9.30132606465684853e-07
7 1 1.61010602297417882e-06 -3.09679054468262379e-07 1.18824593257014219e-06
8 1 -3.93481105893476278e-07 1.72382972719687848e-06 9.84621214185651141e-07
8
Step 44000
1 1 1.21827568049617340e-06 1.97104797329876770e-06 7.66229004368535922e-07
2 1 -4.57530389497580588e-07 -7.98176050897755592e-07 1.47138760753341503e-06
3 1 -1.27056479915863980e-06 3.37971685412095689e-07 -8.59542013553307255e-07
4 1 -3.20168958638422834e-07 2.86018067891625857e-06 1.70649824311686066e-06
5 1 -1.61106039494280043e-06 1.82616360071335894e-06 -3.50746324062792452e-06
6 1 9.09970528811701824e-07 -1.01577613244936591e-06 -1.75083248209393989e-06
7 1 1.84714880880916516e-06 -1.71600215875992890e-06 7.66283764382614681e-07
8 1 -1.03606160642582800e-06 2.57721881339318086e-06 1.82000548288444441e-06
8
Step 45000
1 1 -1.00082227381545939e-06 2.70025536989511096e-06 4.41405547380377588e-07
2 1 -2.04697985903508193e-06 7.35802657547832125e-07 2.58390383702280911e-06
3 1 -3.47580835948071594e-07 5.22936301451237928e-07 -1.16726164080027652e-06
4 1 -5.45266597534022723e-08 2.73920805082585813e-06 1.76466365726759508e-06
5 1 -3.27487882727814459e-06 -5.90203927343111589e-07 -1.94285652659895914e-06
6 1 7.38716304174585746e-07 -8.14412777533345796e-07 -2.02499637806101631e-06
7 1 1.15973672776176809e-06 -2.05739399937271814e-06 3.96855031049293766e-07
8 1 -1.28424542842191957e-06 2.34172630658145581e-06 2.21869157399351487e-06
8
Step 46000
1 1 -2.92491305541923278e-06 2.17401483277947940e-06 -2.33197954520559543e-07
2 1 -2.94296142510679240e-06 1.70922981352715193e-06 2.73610517725876558e-06
3 1 8.63874499202877659e-07 6.33408701771201004e-07 -6.06962707939816410e-07
4 1 2.18871553858278285e-07 1.27352941742423396e-06 1.15829079968319705e-06
5 1 -3.68721740936061070e-06 -2.63609163989420581e-06 4.50272706039881584e-07
6 1 9.13352306098467325e-08 -1.44018790568759271e-07 -1.69486805301113479e-06
7 1 -2.64765248115650201e-07 -1.40370057389120896e-06 8.06324959689064293e-08
8 1 -1.01177495011512085e-06 1.04039397052567644e-06 1.53909274134770580e-06
8
Step 47000
1 1 -3.52431152415884637e-06 7.79040668954869884e-07 -1.01655819040196361e-06
2 1 -2.67161078616180354e-06 1.74460068877235910e-06 1.94660692183729179e-06
3 1 1.70743558557232404e-06 5.24835036477321356e-07 2.93474934061414863e-07