8
Step 0
1 1  0.000000000000e+00   0.000000000000e+00   0.000000000000e+00 
2 1  0.000000000000e+00   0.000000000000e+00   0.000000000000e+00 
3 1  0.000000000000e+00   0.000000000000e+00   0.000000000000e+00 
4 1  0.000000000000e+00   0.000000000000e+00   0.000000000000e+00 
5 1  0.000000000000e+00   0.000000000000e+00   0.000000000000e+00 
6 1  0.000000000000e+00   0.000000000000e+00   0.000000000000e+00 
7 1  0.000000000000e+00   0.000000000000e+00   0.000000000000e+00 
8 1  0.000000000000e+00   0.000000000000e+00   0.000000000000e+00 
8
Step 1000
1 1 -6.310946547879e-05  -3.943179590943e-05   4.886122414612e-05 
2 1 -5.584867498337e-05   1.224195929801e-04  -5.658033319565e-05 
3 1 -1.075775537777e-04   1.311876588375e-04  -1.117336752794e-04 
4 1 -1.339904457550e-04   1.046564056137e-04   4.956812815519e-05 
5 1 -7.665943597870e-05   1.059690946840e-04  -2.599964685610e-05 
6 1  3.841959416882e-05  -2.240261185444e-04  -3.128987588427e-05 
7 1 -4.548716468097e-05   1.221419317099e-04   1.216918213254e-04 
8 1  1.316820790903e-04  -3.378741836801e-05  -5.815954745240e-06 
8
Step 2000
1 1 -4.970162116892e-05  -3.753485202818e-05  -2.543443392921e-05 
2 1 -3.772282736452e-05   6.315726769388e-05  -5.068643328035e-05 
3 1 -6.937152321830e-05   9.340038180274e-06  -8.743532634442e-05 
4 1 -6.546458521396e-05   8.120400058367e-05   2.105411051197e-05 
5 1  1.780614145375e-05   2.343053690380e-05  -6.998585635829e-06 
6 1 -3.180714380391e-05  -1.587695879163e-04   5.656295604210e-05 
7 1 -2.781487430313e-05   2.359537585456e-05   9.092101748753e-05 
8 1  1.802092406032e-05  -8.622017777019e-05   9.693733219002e-06 
8
Step 3000
1 1 -1.562688478128e-05  -2.260243942849e-05  -9.640965466034e-05 
2 1  6.195693455786e-06  -2.769369337641e-05  -2.053421050119e-05 
3 1  2.906004813837e-07  -1.056463180084e-04  -4.247353722950e-05 
4 1  2.944227066630e-05   1.835576318964e-05  -3.526423911639e-05 
5 1  1.005298713034e-04  -7.423694506682e-05  -2.570211442374e-06 
6 1 -8.908606782793e-05  -1.593224869105e-05   1.321026095212e-04 
7 1 -5.654364505383e-06  -7.588231497082e-05   2.137858196820e-05 
8 1 -9.118819179980e-05  -8.502354300177e-05   2.849626694267e-05 
8
Step 4000
1 1  4.222935062762e-05   1.227947273804e-05  -1.340567440115e-04 
2 1  2.974801059885e-05  -1.048383839190e-04   3.897817026269e-05 
3 1  6.452756342827e-05  -1.530313962351e-04   2.040535125043e-05 
4 1  9.950628929029e-05  -5.409213233333e-05  -8.742505690621e-05 
5 1  1.312939294847e-04  -1.390211799598e-04   4.778728035133e-06 
6 1 -1.117740199810e-04   1.068349904187e-04   1.390184045805e-04 
7 1  1.583173408450e-05  -1.280782836256e-04  -5.414393912686e-05 
8 1 -1.444590320921e-04  -3.109482066219e-05   3.787879433536e-05 
8
Step 5000
1 1  7.344617514108e-05   4.577447555479e-05  -9.797326302685e-05 
2 1  2.488808905275e-05  -1.184726492149e-04   8.118106828956e-05 
3 1  9.813980149845e-05  -1.286376412622e-04   7.606625034582e-05 
4 1  1.175445028386e-04  -1.066100549533e-04  -1.129415589894e-04 
5 1  1.020118829425e-04  -1.457956012812e-04   2.548858179090e-05 
6 1 -8.893143114710e-05   1.593445986110e-04   8.570188580027e-05 
7 1  3.054878693043e-05  -1.216444086306e-04  -1.001475870590e-04 
8 1 -1.280489678341e-04   4.700855604857e-05   3.245888741751e-05 
8
Step 6000
1 1  5.218638599243e-05   6.390381927888e-05  -1.738064902483e-05 
2 1 -1.198041946043e-06  -6.446644785278e-05   1.035671101966e-04 
3 1  1.020417589390e-04  -5.510490825886e-05   1.069465349532e-04 
4 1  8.725955438356e-05  -1.165245799275e-04  -1.004073968706e-04 
5 1  3.400109742328e-05  -9.407810693237e-05   5.510931803488e-05 
6 1 -4.269257737658e-05   1.342923380130e-04   4.083103161444e-06 
7 1  3.778765148100e-05  -7.207024968963e-05  -1.018009517823e-04 
8 1 -6.052218983759e-05   1.061448474391e-04   7.241049090550e-06 
8
Step 7000
1 1 -3.311503948132e-06   6.471031222082e-05   5.565613454523e-05 
2 1 -3.908846867880e-05   1.500349631917e-05   1.056914562926e-04 
3 1  7.934426264361e-05   3.458904252326e-05   1.092956102135e-04 
4 1  3.159570498497e-05  -8.147018325979e-05  -4.969919965751e-05 
5 1 -3.373100894990e-05  -1.155940611721e-05   8.063708433759e-05 
6 1  5.755792421775e-06   5.478407549727e-05  -7.049842415319e-05 
7 1  3.943652740985e-05  -8.027358336277e-06  -6.443648196960e-05 
8 1  2.055433771030e-05   1.140503696593e-04  -3.820842407789e-05 
8
Step 8000
1 1 -5.907342245030e-05   4.571194511698e-05   9.122878496333e-05 
2 1 -5.783182612462e-05   7.523209188284e-05   6.395773642706e-05 
3 1  3.218826603352e-05   9.494214913535e-05   8.298967060055e-05 
4 1 -2.273135785111e-05  -1.547647210760e-05   1.876688737805e-05 
5 1 -6.897483348666e-05   5.926712250958e-05   8.177263926438e-05 
6 1  4.180025704698e-05  -3.028194434424e-05  -1.006951771969e-04 
7 1  3.519648406467e-05   4.147718687153e-05  -8.675313907408e-06 
8 1  7.797036003448e-05   6.372498803676e-05  -8.796619081185e-05 
8
Step 9000
1 1 -9.295831898005e-05   3.390983450172e-06   9.164036575254e-05 
2 1 -3.408394193423e-05   9.998001242651e-05  -2.470997534538e-05 
3 1 -1.438212045398e-05   1.032421431091e-04   3.784699605228e-05 
4 1 -5.253045084362e-05   5.020341694058e-05   7.285185063601e-05 
5 1 -6.200271673358e-05   9.141093441837e-05   4.569862095759e-05 
6 1  5.550588296607e-05  -8.554775166519e-05  -8.250150761580e-05 
7 1  2.204165440086e-05   6.013067982247e-05   3.745419637432e-05 
8 1  9.311694799246e-05  -2.406006411950e-05  -1.178860104081e-04 
8
Step 10000
1 1 -9.070414414700e-05  -4.346410734184e-05   4.853319459251e-05 
2 1  3.012290311123e-05   7.915228780034e-05  -9.996043773054e-05 
3 1 -3.858531882254e-05   6.279851067137e-05  -1.047137423506e-05 
4 1 -5.128402534722e-05   8.563575537163e-05   9.316894971990e-05 
5 1 -2.569218985998e-05   8.088558509131e-05  -2.117930751601e-05 
6 1  4.983216200255e-05  -9.450093837034e-05  -3.462394802408e-05 
7 1 -1.331141090548e-06   4.986143817719e-05   5.403966126009e-05 
8 1  6.685884139539e-05  -1.066044462617e-04  -1.063316959045e-04 
8
Step 11000
1 1 -3.828002420008e-05  -7.505644911261e-05  -1.632592055211e-05 
2 1  1.027838144280e-04   1.907832354788e-05  -1.225566239987e-04 
3 1 -4.095209747389e-05  -1.074697918487e-06  -4.878868088117e-05 
4 1 -2.942918893413e-05   8.064806614164e-05   7.980101728665e-05 
5 1  1.314290823416e-05   3.874425998447e-05  -9.291752252523e-05 
6 1  3.532194481676e-05  -5.353513851400e-05   1.888461607922e-05 
7 1 -3.448660752935e-05   2.315495654812e-05   4.150248310677e-05 
8 1  1.443916312193e-05  -1.436066965144e-04  -4.052952734027e-05 
8
Step 12000
1 1  5.308415457275e-05  -8.396264833540e-05  -5.445809562944e-05 
2 1  1.491645675040e-04  -4.317902520438e-05  -1.049884149896e-04 
3 1 -3.985829347534e-05  -6.118947578163e-05  -7.019064174481e-05 
4 1 -3.147427954740e-06   4.693598281236e-05   4.601425941166e-05 
5 1  3.126833329370e-05  -1.235664378541e-05  -1.358995818733e-04 
6 1  1.812569139811e-05   1.364805474278e-05   5.181976238088e-05 
7 1 -7.422182072571e-05  -5.263639840803e-06   1.406067007357e-05 
8 1 -3.788407536502e-05  -1.200159291872e-04   6.889930404934e-05 
8
Step 13000
1 1  1.404127381257e-04  -7.231108912668e-05  -5.147706381495e-05 
2 1  1.331129440821e-04  -7.191547452553e-05  -6.112105631314e-05 
3 1 -3.559636955908e-05  -9.567546803126e-05  -7.281840096537e-05 
4 1  1.317183793472e-05   5.606950327912e-06   8.292084381379e-06 
5 1  2.040605739106e-05  -4.718174556695e-05  -1.268823851422e-04 
6 1  6.317835016853e-07   6.787661906399e-05   5.152081160712e-05 
7 1 -1.098245215037e-04  -2.518520374252e-05  -1.137100160237e-05 
8 1 -6.858735940438e-05  -4.827244540608e-05   1.688172513255e-04 
8
Step 14000
1 1  1.759193257053e-04  -4.512910257677e-05  -2.731718457852e-05 
2 1  4.182719882741e-05  -6.573595094358e-05   3.161219049300e-08 
3 1 -2.350177839072e-05  -8.952102236499e-05  -5.836091330219e-05 
4 1  1.423668660733e-05  -2.724104264439e-05  -2.161630423053e-05 
5 1 -8.059166967244e-06  -5.214794423541e-05  -6.396085924462e-05 
6 1 -1.965468409379e-05   9.112945845918e-05   2.661453087266e-05 
7 1 -1.190504664241e-04  -3.175842191911e-05  -2.251208956172e-05 
8 1 -6.868010725836e-05   3.497143593216e-05   2.096878278313e-04 
8
Step 15000
1 1  1.365850649411e-04  -1.020383516712e-06   5.499516167409e-06 
2 1 -8.078217955435e-05  -3.540704034986e-05   4.933846659349e-05 
3 1 -8.178107170726e-06  -4.080413474507e-05  -2.702285362422e-05 
4 1  2.233394897282e-06  -4.337905759403e-05  -3.580426564335e-05 
5 1 -3.401856039911e-05  -3.401382512083e-05   3.038287640385e-05 
6 1 -3.002063593475e-05   6.913618239547e-05  -5.204784870311e-06 
7 1 -8.888794662239e-05  -2.364737044156e-05  -1.823570136615e-05 
8 1 -4.005231669322e-05   8.662861341323e-05   1.836876780555e-04 
8
Step 16000
1 1  4.810603003969e-05   5.345464930392e-05   3.776882269041e-05 
2 1 -1.609862107068e-04   3.366682295881e-06   5.976998578739e-05 
3 1  3.867716571229e-06   2.360905330145e-05   1.821715210078e-05 
4 1 -1.653570572851e-05  -3.874419232757e-05  -2.993730869959e-05 
5 1 -3.745324089445e-05  -2.877723786193e-06   1.145658034948e-04 
6 1 -2.734737388958e-05   4.689520128220e-06  -2.797436101695e-05 
7 1 -2.644548287674e-05  -6.599432566470e-06  -5.348197316806e-06 
8 1  1.099870762840e-06   9.067626285145e-05   1.143932840781e-04 
8
Step 17000
1 1 -5.244416444765e-05   8.959022115582e-05   4.226873431777e-05 
2 1 -1.721389607296e-04   3.652336353982e-05   4.784356875495e-05 
3 1  1.883236967109e-05   7.606018057456e-05   6.907021553380e-05 
4 1 -2.252256950934e-05  -1.965119742036e-05  -1.337603233927e-05 
5 1 -8.533353484765e-06   2.637743133884e-05   1.486915201981e-04 
6 1 -1.697194458101e-05  -6.316387731468e-05  -3.135607870275e-05 
7 1  4.543853795980e-05   9.520414581737e-06   8.177064123807e-06 
8 1  3.553094093204e-05   6.293669225439e-05   4.334982291992e-05 
8
Step 18000
1 1 -1.170931993293e-04   9.262549367628e-05   1.964582828831e-05 
2 1 -1.145150541120e-04   4.320527880438e-05   2.257885871005e-05 
3 1  3.279658449093e-05   1.042705973564e-04   1.013861060702e-04 
4 1 -1.687436366373e-05   9.095421314727e-06   7.937372672446e-06 
5 1  3.745866361226e-05   3.724952467025e-05   1.188735662208e-04 
6 1 -3.372682208575e-06  -9.954832725773e-05  -1.704633867032e-05 
7 1  1.030698084692e-04   2.092572165762e-05   1.720919760647e-05 
8 1  5.216191311020e-05   3.140502045502e-05  -4.694416713557e-06 
8
Step 19000
1 1 -1.235217254900e-04   6.966597938080e-05  -6.441787397575e-06 
2 1 -6.594578242310e-06   2.330062122761e-05  -1.641339718082e-05 
3 1  3.552399865318e-05   9.490766086049e-05   9.312581304561e-05 
4 1 -4.711353499752e-06   4.072006006574e-05   2.390716599786e-05 
5 1  6.980397679588e-05   2.509475257985e-05   4.182720699304e-05 
6 1  1.199526093795e-05  -9.378317903782e-05   5.846665442701e-06 
7 1  1.214667882306e-04   2.606350840523e-05   1.763756658085e-05 
8 1  4.795702127324e-05   1.496909785193e-05  -3.495927815370e-05 
8
Step 20000
1 1 -7.466454934816e-05   2.245130143968e-05  -3.263657248960e-05 
2 1  8.965839253077e-05   3.562724067085e-06  -3.878323408449e-05 
3 1  2.170999566318e-05   4.515303667064e-05   4.400378270855e-05 
4 1  1.261500990074e-05   5.953164782465e-05   2.381323340344e-05 
5 1  6.778625637314e-05   1.531659655578e-06  -4.418986357423e-05 
6 1  2.104208723640e-05  -4.403740270776e-05   1.978160964896e-05 
7 1  9.932819820004e-05   1.684912256689e-05   8.193717442830e-06 
8 1  2.575530308276e-05   1.197695303068e-05  -5.413376293459e-05 
8
Step 21000
1 1 -7.695017158481e-06  -2.258256386174e-05  -4.180641264146e-05 
2 1  1.306603899576e-04  -1.204494249135e-05  -4.190236270511e-05 
3 1 -1.978459083984e-06  -1.899256623007e-05  -2.633835904923e-05 
4 1  2.934950710901e-05   5.263447233572e-05   8.609308566871e-06 
5 1  2.988890632729e-05  -2.404334222926e-05  -9.892945869691e-05 
6 1  1.967774247996e-05   2.505500531570e-05   1.492577667934e-05 
7 1  5.364322401927e-05  -3.279404809132e-06  -6.102684508463e-06 
8 1 -3.147201979448e-06   8.655064810489e-06  -5.820680319138e-05 
8
Step 22000
1 1  3.851280929809e-05  -4.232522996822e-05  -2.793780172210e-05 
2 1  1.152679953096e-04  -2.412788085125e-05  -3.038342238974e-05 
3 1 -2.139442952053e-05  -7.114383586930e-05  -8.855858803102e-05 
4 1  3.658893742898e-05   1.751156389448e-05  -1.140719072676e-05 
5 1 -2.679530996947e-05  -3.945629836414e-05  -1.017797884568e-04 
6 1  7.463929404368e-06   8.166177075669e-05  -4.747532465904e-06 
7 1  2.281496697196e-06  -2.334106276522e-05  -1.785530289768e-05 
8 1 -2.325312648898e-05  -4.407140696144e-06  -4.150457681808e-05 
8
Step 23000
1 1  4.998256334415e-05  -3.947122785972e-05  -4.621552990106e-06 
2 1  5.303834355941e-05  -1.493784624406e-05  -4.435199619504e-06 
3 1 -2.905863597970e-05  -9.816470858689e-05  -1.142518575419e-04 
4 1  3.564741257700e-05  -3.742469790165e-05  -2.692194792474e-05 
5 1 -7.491133569785e-05  -3.519687670338e-05  -5.977083797920e-05 
6 1 -8.514568308512e-06   1.026466941876e-04  -2.418184915565e-05 
7 1 -3.820607121379e-05  -3.296528561663e-05  -2.122874093880e-05 
8 1 -2.475830046928e-05  -2.865132657545e-05  -8.399736849778e-06 
8
Step 24000
1 1  3.636949445179e-05  -2.851463310670e-05   1.293649281345e-05 
2 1 -2.839373998404e-05   1.107553072439e-05   2.391554531752e-05 
3 1 -2.588690018764e-05  -9.192482747433e-05  -9.523912264983e-05 
4 1  2.546622351259e-05  -8.788048843201e-05  -2.504058113327e-05 
5 1 -9.030204270551e-05  -9.794884991972e-06   1.605683579108e-06 
6 1 -1.981755002584e-05   8.547606586258e-05  -2.611340756658e-05 
7 1 -5.903430194256e-05  -2.754228442497e-05  -1.483940101391e-05 
8 1 -9.708896495191e-06  -5.444745710143e-05   2.688716530448e-05 
8
Step 25000
1 1  8.730034860508e-06  -1.456556176357e-05   2.268176675028e-05 
2 1 -8.287057107547e-05   2.674870677954e-05   3.771238587904e-05 
3 1 -1.144134582923e-05  -5.349975119579e-05  -4.128072437304e-05 
4 1 -4.512106410440e-07  -1.077272722857e-04  -6.127403234100e-06 
5 1 -6.598017848475e-05   2.897733537499e-05   5.179669826354e-05 
6 1 -2.110160860296e-05   4.120739420874e-05  -4.188007701047e-06 
7 1 -6.229038250993e-05  -6.926209547314e-06  -1.286994254281e-06 
8 1  7.624248753667e-06  -6.692467164554e-05   4.891863030388e-05 
8
Step 26000
1 1 -1.436513966566e-05  -2.197291242594e-06   2.490480849590e-05 
2 1 -9.218064238139e-05   2.355536331926e-05   3.519996447212e-05 
3 1  4.937343047278e-06   1.189698573275e-07   2.322083922461e-05 
4 1 -3.307750615712e-05  -8.393541745153e-05   1.730133141952e-05 
5 1 -1.423502388625e-05   6.441464749339e-05   6.974813317773e-05 
6 1 -1.100889162113e-05  -9.539328064437e-06   3.019475922958e-05 
7 1 -5.422056896933e-05   2.225069943001e-05   1.351170659313e-05 
8 1  1.164489640903e-05  -5.942855275810e-05   4.834153409379e-05 
8
Step 27000
1 1 -1.552884382784e-05   3.300443456222e-06   2.085775195191e-05 
2 1 -6.251902079222e-05   5.544033560208e-06   1.702305445981e-05 
3 1  1.032349453651e-05   4.620823624558e-05   6.956134945369e-05 
4 1 -6.074683038671e-05  -1.684650922315e-05   3.945997671216e-05 
5 1  4.056826149322e-05   7.589022970251e-05   5.165039747351e-05 
6 1  7.173719029853e-06  -5.011280602370e-05   5.255729280425e-05 
7 1 -3.765353026913e-05   4.494890977760e-05   2.147626484827e-05 
8 1 -4.750879179403e-06  -3.058137113549e-05   2.824585622270e-05 
8
Step 28000
1 1  1.899007782720e-06   5.139892927092e-06   1.467345469971e-05 
2 1 -7.424623399865e-06  -2.433230653867e-05  -1.100513842533e-05 
3 1  1.250477425924e-06   7.140510811795e-05   7.791840050166e-05 
4 1 -7.825341266332e-05   6.653121970580e-05   4.599722854095e-05 
5 1  7.509716570119e-05   5.077796191579e-05   1.063294062431e-05 
6 1  2.862428651688e-05  -7.066967708699e-05   5.518086950688e-05 
7 1 -1.371530822112e-05   4.658381911422e-05   1.717948781192e-05 
8 1 -3.567275843277e-05   1.261617684501e-05  -3.988531727788e-07 
8
Step 29000
1 1  2.287274819845e-05   8.429070641134e-06   9.320266296544e-06 
2 1  4.582172418490e-05  -5.232427644557e-05  -3.440363369841e-05 
3 1 -1.175954119696e-05   7.112179526338e-05   5.342917239757e-05 
4 1 -7.458077699633e-05   1.268308702766e-04   2.482404133585e-05 
5 1  7.503340273309e-05  -8.979497780820e-06  -3.034088205240e-05 
6 1  4.098326937889e-05  -6.804277336201e-05   3.230712932800e-05 
7 1  1.472747826036e-05   2.414335415231e-05   3.012118006609e-06 
8 1 -5.990790125454e-05   5.163579951107e-05  -2.518349520815e-05 
8
Step 30000
1 1  3.252838598006e-05   1.510714128638e-05   6.195034792942e-06 
2 1  7.112169379599e-05  -6.059498158044e-05  -4.118438778157e-05 
3 1 -1.537690508215e-05   4.942615600118e-05   1.413623126011e-05 
4 1 -3.843372916995e-05   1.379641482609e-04  -1.795557907412e-05 
5 1  4.212699550632e-05  -8.195863565972e-05  -5.179021868588e-05 
6 1  3.232725886851e-05  -4.872477352862e-05  -1.550591584242e-05 
7 1  4.066853118190e-05  -1.523945060818e-05  -1.404853757277e-05 
8 1 -5.291779650313e-05   7.058124151847e-05  -3.488666013571e-05 
8
Step 31000
1 1  2.223890275073e-05   1.958969549594e-05  -1.876869506068e-06 
2 1  6.021038517265e-05  -3.991847158636e-05  -3.003750616845e-05 
3 1 -2.336392806694e-06   1.556298623382e-05  -2.027599614670e-05 
4 1  2.116911144746e-05   9.559865922696e-05  -5.998570241971e-05 
5 1 -5.428149384235e-06  -1.315598808310e-04  -4.515261352694e-05 
6 1  1.142676359031e-06  -2.340808542417e-05  -6.677594841072e-05 
7 1  5.514128631977e-05  -5.472393478749e-05  -2.494975214949e-05 
8 1 -6.243711898888e-06   6.392125798373e-05  -2.471836057086e-05 
8
Step 32000
1 1 -6.392771739872e-06   1.657268229419e-05  -1.833386391040e-05 
2 1  2.385131998237e-05   1.574268469243e-06  -3.995132289621e-06 
3 1  2.434080903349e-05  -1.679078708384e-05  -3.333263989048e-05 
4 1  7.783064887380e-05   1.453173243971e-05  -8.754779079808e-05 
5 1 -4.584840539014e-05  -1.279669978853e-04  -1.607073987362e-05 
6 1 -4.078417873183e-05   1.325926458523e-06  -9.075375185087e-05 
7 1  5.075943767076e-05  -7.239291001097e-05  -2.048953275677e-05 
8 1  6.092741267765e-05   3.538687982203e-05  -1.183910607047e-06 
8
Step 33000
1 1 -4.046385081754e-05   4.790689448032e-06  -3.864291516686e-05 
2 1 -2.040127739865e-05   4.207109200939e-05   2.853616650567e-05 
3 1  5.149435968705e-05  -3.945722556508e-05  -2.293684707288e-05 
4 1  1.128413092039e-04  -7.085704898020e-05  -8.215416296790e-05 
5 1 -6.265111438586e-05  -6.379194419041e-05   1.813654027750e-05 
6 1 -7.766603973835e-05   2.487980270966e-05  -7.516760728893e-05 
7 1  2.584264171384e-05  -5.480565478846e-05   1.696155776824e-06 
8 1  1.114450868966e-04  -2.767062851391e-06   2.204247577754e-05 
8
Step 34000
1 1 -6.060448317131e-05  -1.154646751647e-05  -5.213405365109e-05 
2 1 -5.084882199511e-05   6.116248503249e-05   5.598014800543e-05 
3 1  6.417028884790e-05  -4.822559923330e-05   4.690269243322e-06 
4 1  1.112174190623e-04  -1.250354440929e-04  -3.301530239151e-05 
5 1 -4.672024416743e-05   3.754986715025e-05   4.079750038008e-05 
6 1 -9.603425189522e-05   3.896635976448e-05  -3.805912481884e-05 
7 1 -1.216409536386e-05  -4.244247350954e-06   3.528493326987e-05 
8 1  1.141212953072e-04  -3.332839794518e-05   3.248856731482e-05 
8
Step 35000
1 1 -5.618480907180e-05  -2.571878836133e-05  -5.228567448743e-05 
2 1 -5.319901426969e-05   5.263888622235e-05   6.379241749227e-05 
3 1  4.521866220970e-05  -4.107735757882e-05   2.921750560959e-05 
4 1  7.031681884503e-05  -1.281502885204e-04   4.585641564614e-05 
5 1 -9.185603063175e-06   1.253445319732e-04   4.203140399577e-05 
6 1 -6.761745040751e-05   3.787526905409e-05   1.055117929556e-05 
7 1 -4.749262556256e-05   5.729264988858e-05   6.358931769076e-05 
8 1  6.380711160704e-05  -4.354406077289e-05   2.293474501544e-05 
8
Step 36000
1 1 -2.412933164233e-05  -2.869163145201e-05  -3.249675654629e-05 
2 1 -3.087432213283e-05   2.300669281626e-05   4.646977253756e-05 
3 1 -8.008058982228e-06  -2.338046092512e-05   2.931656930960e-05 
4 1  3.970647432598e-06  -8.200378576544e-05   1.206374979108e-04 
5 1  2.806981954270e-05   1.587670251727e-04   1.895257649319e-05 
6 1  2.363056665190e-05   2.852505074107e-05   5.835724659713e-05 
7 1 -6.341017965858e-05   9.578003000548e-05   6.323785677008e-05 
8 1 -1.387329772804e-05  -3.143836375421e-05  -5.753570958748e-06 
8
Step 37000
1 1  2.462049563114e-05  -1.455095070671e-05   9.959823067696e-06 
2 1  4.572497821765e-07  -1.133413484577e-05   8.785313182604e-06 
3 1 -7.067316026019e-05  -1.595636715628e-06  -1.252347718684e-06 
4 1 -5.960368451147e-05  -7.308550274194e-06   1.567796536148e-04 
5 1  5.205999937504e-05   1.251034484068e-04  -1.711745308360e-05 
6 1  1.401359778581e-04   1.727865500030e-05   8.231782905294e-05 
7 1 -5.010309227012e-05   8.761694599789e-05   2.166361010449e-05 
8 1 -7.863310637402e-05  -6.508077283948e-06  -4.275268906092e-05 
8
Step 38000
1 1  6.539641213308e-05   1.701658895137e-05   6.178494432370e-05 
2 1  2.699119229854e-05  -2.863744254127e-05  -3.891402416821e-05 
3 1 -1.033767137899e-04   1.744696597248e-05  -4.891514984102e-05 
4 1 -9.373863141083e-05   6.345424793893e-05   1.344232385505e-04 
5 1  5.198378318789e-05   3.874237488844e-05  -4.054365902395e-05 
6 1  2.134918088356e-04   1.072875244130e-06   7.169776271038e-05 
7 1 -7.239588598170e-06   2.967591610186e-05  -5.342791345537e-05 
8 1 -1.040151206566e-04   2.175411889379e-05  -7.106491287782e-05 
8
Step 39000
1 1  7.078204894051e-05   4.860684591996e-05   9.834405663701e-05 
2 1  3.961393495103e-05  -2.395786322213e-05  -8.370678159234e-05 
3 1 -9.113093849820e-05   2.969964909776e-05  -7.965046772543e-05 
4 1 -8.911398819783e-05   1.028482174004e-04   5.549261482984e-05 
5 1  1.980513951519e-05  -5.346926951743e-05  -3.611752449388e-05 
6 1  2.093749032178e-04  -1.027269853570e-05   3.897933294616e-05 
7 1  4.819483463088e-05  -5.417492803999e-05  -1.348798356941e-04 
8 1 -7.503056787941e-05   3.677548596857e-05  -6.966708795691e-05 
8
Step 40000
1 1  4.167448730887e-05   5.766649943704e-05   1.015286146675e-04 
2 1  3.562370757513e-05  -8.138626220028e-06  -1.003877637330e-04 
3 1 -5.107506701625e-05   2.897334164589e-05  -7.333305612880e-05 
4 1 -5.884766219321e-05   9.384860208580e-05  -4.526352000665e-05 
5 1 -2.825794860488e-05  -1.055889750885e-04  -1.252484337726e-05 
6 1  1.447308774615e-04  -4.081653516040e-06   3.202819497328e-06 
7 1  8.434028334625e-05  -1.133858463561e-04  -1.779218880309e-04 
8 1 -1.686856229106e-05   2.374747851220e-05  -2.519087030055e-05 
8
Step 41000
1 1 -1.553839139216e-06   3.343462506247e-05   6.823246168226e-05 
2 1  1.376464472703e-05   7.791007085877e-06  -8.150374448316e-05 
3 1  2.081995506915e-05   2.221892215381e-05  -2.856501456353e-05 
4 1 -1.662357791837e-05   4.736198799530e-05  -1.226359727914e-04 
5 1 -6.758803801296e-05  -1.200509114613e-04   2.299143256382e-05 
6 1  2.612166453421e-05   1.225113352240e-06  -2.272251647596e-05 
7 1  8.621743047512e-05  -1.071272861356e-04  -1.414262925475e-04 
8 1  3.820140819120e-05  -8.052634270470e-06   4.923020531251e-05 
8
Step 42000
1 1 -3.861228082773e-05  -1.634678540851e-05   1.218347302587e-05 
2 1 -9.559280603515e-06   1.185147785341e-05  -4.435687424518e-05 
3 1  9.542762699524e-05   9.369386739829e-06   5.506177922275e-05 
4 1  2.052415622816e-05  -1.507490136020e-05  -1.527974452437e-04 
5 1 -6.950585779243e-05  -8.648542135332e-05   6.667414293474e-05 
6 1 -1.016278498562e-04  -1.926066989809e-08  -3.565937036846e-05 
7 1  5.844455643940e-05  -5.659820035006e-05  -4.457473165646e-05 
8 1  7.093875756364e-05  -3.840594535630e-05   1.157853960793e-04 
8
Step 43000
1 1 -5.364467607864e-05  -7.677434994157e-05  -5.020880654566e-05 
2 1 -1.607293744225e-05  -5.461934420606e-06   8.398904622420e-08 
3 1  1.265266520487e-04  -4.540930996537e-06   1.403089621642e-04 
4 1  3.770190055658e-05  -6.899289237654e-05  -1.307101202272e-04 
5 1 -3.516425149451e-05  -2.054501495504e-05   7.224951286527e-05 
6 1 -1.598025236902e-04  -8.688460081958e-06  -4.021753943419e-05 
7 1 -1.839297773932e-05   3.938816993948e-05   7.558606568967e-05 
8 1  7.584497349690e-05  -6.296922992677e-05   1.417178464569e-04 
8
Step 44000
1 1 -3.897417192293e-05  -1.212163275137e-04  -8.709190948989e-05 
2 1 -8.993180571657e-06  -3.566043459490e-05   3.373007316545e-05 
3 1  8.745343157403e-05  -1.206742985748e-05   1.780872364534e-04 
4 1  2.872868231672e-05  -8.429766265307e-05  -6.689216664679e-05 
5 1  2.792275692636e-05   5.377886634215e-05   1.335436281194e-05 
6 1 -1.392423757155e-04  -2.620945914700e-05  -3.727744962835e-05 
7 1 -1.008430260068e-04   1.263588631029e-04   1.642621847484e-04 
8 1  3.851939200541e-05  -5.960345632694e-05   1.116050478697e-04 
8
Step 45000
1 1  2.107954777846e-05  -1.043544375870e-04  -9.963656241169e-05 
2 1 -2.419352490567e-05  -5.435903693109e-05   6.416907529707e-05 
3 1  9.869568866687e-06  -1.376483751231e-05   1.346657644923e-04 
4 1  8.097240930693e-06  -4.986992633489e-05   7.582338116997e-06 
5 1  8.079998200067e-05   9.669852248985e-05  -7.244269495923e-05 
6 1 -1.004168956136e-04  -3.989012690234e-05  -2.465384713390e-05 
7 1 -1.294709995340e-04   1.302684392642e-04   1.874771725573e-04 
8 1 -1.760387317278e-05  -7.207045530985e-06   3.106620965043e-05 
8
Step 46000
1 1  7.022104443042e-05  -3.051216821531e-05  -8.640028122351e-05 
2 1 -4.366122563375e-05  -5.158935769937e-05   8.204913910061e-05 
3 1 -7.349215521636e-05  -1.047529904024e-05   3.144597679146e-05 
4 1 -9.090403343924e-06   1.783055159473e-05   6.331299071320e-05 
5 1  1.002676034940e-04   1.039891253990e-04  -1.382140608973e-04 
6 1 -3.261675707927e-05  -5.017656260119e-05  -1.024579121853e-05 
7 1 -1.311170933842e-04   7.029354984181e-05   1.394848613970e-04 
8 1 -6.231610419456e-05   6.655431051100e-05  -5.602968699074e-05 
8
Step 47000
1 1  5.959838865231e-05   6.208968616620e-05  -4.154494605197e-05 
2 1 -5.630532155910e-05  -1.334939607199e-05   8.518075927000e-05 
3 1 -1.281140996687e-04  -7.709738785908e-07  -8.212886528403e-05 
4 1 -1.889658260131e-05   8.479812277664e-05   9.284312866003e-05 
5 1  7.701353453368e-05   6.566471810177e-05  -1.621725557931e-04 
6 1  4.504332209127e-05  -3.980430400586e-05  -1.051141043560e-05 
7 1 -9.517556658198e-05  -7.159601491413e-06   5.992801039198e-05 
8 1 -7.891620054264e-05   1.058365936451e-04  -9.708595369464e-05 
8
Step 48000
1 1  1.051061963163e-05   1.256091075683e-04   3.411600844081e-05 
2 1 -7.472277796772e-05   4.569184812793e-05   5.369430027365e-05 
3 1 -1.229210254199e-04   9.308413893468e-06  -1.444233085049e-04 
4 1 -1.668247794259e-05   1.132817499852e-04   8.966521511070e-05 
5 1 -1.583187083430e-06   1.722229705534e-06  -1.040825257726e-04 
6 1  1.056860889854e-04   1.091176947849e-05   5.158777229151e-06 
7 1  2.968172134894e-07  -9.558934536570e-05  -3.112392239256e-05 
8 1 -7.989319522311e-05   1.091897035234e-04  -9.418912963031e-05 
8
Step 49000
1 1 -3.967388093799e-05   1.464441908023e-04   6.987611713955e-05 
2 1 -9.144552849269e-05   8.851283008118e-05   2.551233904835e-05 
3 1 -5.474726043003e-05   1.722804432240e-05  -1.456741904124e-04 
4 1  5.484150653655e-06   7.403601483330e-05   5.865943804783e-05 
5 1 -9.764631068429e-05  -6.263264709738e-05   3.944656334066e-05 
6 1  1.171327912814e-04   6.972587035793e-05   3.382727487438e-05 
7 1  8.805040138234e-05  -1.386395880130e-04  -9.360893277862e-05 
8 1 -3.806586468769e-05   7.772059615470e-05  -6.812611883995e-05 
8
Step 50000
1 1 -9.336633857454e-05   1.089977897130e-04   6.945712324479e-05 
2 1 -5.450945514559e-05   1.136539444105e-04  -1.420956622027e-05 
3 1  4.509605476472e-05   1.689434096828e-05  -9.644364212706e-05 
4 1  3.236974325614e-05  -1.407106543630e-05   1.430585973513e-05 
5 1 -1.501532851315e-04  -9.918868387089e-05   1.767844344073e-04 
6 1  7.949784912490e-05   1.074381752163e-04   5.558796891609e-05 
7 1  1.212825140712e-04  -1.166023173448e-04  -1.117125733135e-04 
8 1  3.760819246590e-05   6.400920021766e-06  -2.708907363687e-05 
8
Step 51000
1 1 -1.134070521756e-04   3.048165597290e-05   6.729570087494e-05 
2 1  2.761600331796e-05   1.002120501327e-04  -7.328595326300e-05 
3 1  1.212941820963e-04   7.178965762511e-06  -2.626857819383e-05 
4 1  4.305509028897e-05  -1.037884794794e-04  -2.748372386590e-05 
5 1 -1.248773873634e-04  -9.256684215542e-05   2.264469811423e-04 
6 1  1.276517520914e-05   1.142701477885e-04   5.631539251961e-05 
7 1  1.171794553174e-04  -4.232710398656e-05  -1.058247799524e-04 
8 1  9.801907525372e-05  -8.423366572742e-05   1.592268310421e-05 
8
Step 52000
1 1 -6.828353826494e-05  -4.658943367328e-05   4.244960905208e-05 
2 1  1.111036412035e-04   2.395173223306e-05  -1.014768422893e-04 
3 1  1.386402499360e-04  -1.435208616537e-05   2.903013251534e-05 
4 1  3.213043655181e-05  -1.509434799120e-04  -6.521017281538e-05 
5 1 -4.032776314318e-05  -4.487109553120e-05   1.735241042072e-04 
6 1 -4.704219697641e-05   7.392523604752e-05   4.363665120078e-05 
7 1  7.536200009355e-05   4.929594125455e-05  -7.690670446003e-05 
8 1  1.199759616493e-04  -1.292670839646e-04   3.193107978654e-05 
8
Step 53000
1 1  9.978934529785e-06  -9.025587219290e-05  -1.003761762695e-05 
2 1  1.564065502890e-04  -5.550262341150e-05  -8.855369844135e-05 
3 1  9.525948370528e-05  -3.824404028844e-05   4.941254171714e-05 
4 1  3.252901322850e-06  -1.384738248046e-04  -7.785633329169e-05 
5 1  7.290699508801e-05   1.542642635650e-05   5.939066161226e-05 
6 1 -8.352665808252e-05  -1.091614238775e-05  -3.162418150899e-07 
7 1  8.951528529357e-06   1.154722224049e-04  -2.270202256957e-05 
8 1  1.017336830649e-04  -1.193260030945e-04   2.990709022987e-05 
8
Step 54000
1 1  8.530424315688e-05  -9.112984859812e-05  -4.833156718993e-05 
2 1  1.490313689896e-04  -1.050744576817e-04  -5.542300591676e-05 
3 1  1.149827485727e-05  -4.748839405208e-05   4.325494053577e-05 
4 1 -4.248754712554e-05  -6.834739610026e-05  -6.336709563382e-05 
5 1  1.514238276675e-04   6.152857533024e-05  -5.427523025758e-05 