8
Step 0
1 1 0.00000000000000000e+00 0.00000000000000000e+00 0.00000000000000000e+00
2 1 0.00000000000000000e+00 0.00000000000000000e+00 0.00000000000000000e+00
3 1 0.00000000000000000e+00 0.00000000000000000e+00 0.00000000000000000e+00
4 1 0.00000000000000000e+00 0.00000000000000000e+00 0.00000000000000000e+00
5 1 0.00000000000000000e+00 0.00000000000000000e+00 0.00000000000000000e+00
6 1 0.00000000000000000e+00 0.00000000000000000e+00 0.00000000000000000e+00
7 1 0.00000000000000000e+00 0.00000000000000000e+00 0.00000000000000000e+00
8 1 0.00000000000000000e+00 0.00000000000000000e+00 0.00000000000000000e+00
8
Step 1000
1 1 7.04553660756752187e-07 -1.24672206831835127e-06 8.30334536601211110e-07
2 1 3.10261701868070475e-06 -1.66678397313076141e-06 -3.15784429171731781e-06
3 1 -4.69411789332238506e-07 2.49657236473249511e-06 -1.12638088299865378e-06
4 1 -3.07336414910715703e-08 2.00247554504564481e-07 -2.94497168402111225e-06
5 1 -1.16832110630117570e-06 1.17886814676285494e-06 4.80170852547679868e-07
6 1 -1.29423725074657574e-06 -3.61956154254788767e-06 2.80130562157073390e-06
7 1 -1.13047619579886828e-06 1.55413140828633481e-08 1.66140287298122343e-06
8 1 4.62459172462213201e-08 -1.37761532938594989e-06 -3.54092409252431889e-06
8
Step 2000
1 1 -9.72800300011018263e-07 -1.19954421890512957e-07 1.32538885761388731e-06
2 1 2.10834650624531232e-06 1.05438878259299653e-06 -2.61504833075699772e-06
3 1 5.23263052071140757e-07 1.67445189659791485e-06 -1.78638056337160592e-06
4 1 3.60658784391881419e-07 2.48587756901002277e-07 -1.85968035364110478e-06
5 1 -1.87431232590839934e-06 9.64894442773914125e-07 -1.12875136152394044e-06
6 1 -2.67060510427971546e-06 -3.12940231551126240e-06 1.88790838538412583e-06
7 1 -2.38585942655449624e-07 1.10538444121232451e-06 1.08591867014432533e-06
8 1 5.69463679503876498e-08 4.90814421142725934e-07 -2.79375598985862772e-06
8
Step 3000
1 1 -2.26977960784329720e-06 1.02665929620850097e-06 1.06963346104091406e-06
2 1 2.01245560208076760e-08 3.07266650169699859e-06 -9.15337765805046300e-07
3 1 1.34886397061090629e-06 3.63916985394085904e-07 -1.51025432768862951e-06
4 1 5.82746578119957787e-07 2.78671729913694776e-07 -2.05933606901853604e-07
5 1 -1.82182595738055507e-06 -9.56443691185497332e-08 -1.98382847396662237e-06
6 1 -3.09483346516210617e-06 -1.57982042703082542e-06 3.86683363647223105e-07
7 1 5.75671857702168111e-07 1.65617863317700851e-06 1.83788252378688200e-07
8 1 -9.09851059095809579e-11 2.09722638909106189e-06 -7.91476451428945936e-07
8
Step 4000
1 1 -2.67198054132065240e-06 1.61326830024715899e-06 3.83317366966028154e-07
2 1 -1.90914288758720972e-06 3.40970074473131797e-06 1.02560191405529106e-06
3 1 1.73216815107375528e-06 -9.47155997044909002e-07 -5.82879393882636241e-07
4 1 7.74450610327561344e-07 1.64415711646514565e-07 1.16369090122447591e-06
5 1 -1.21832974866421885e-06 -7.90815344061436658e-07 -1.68679901029750222e-06
6 1 -2.48773599029190431e-06 2.04370449319606082e-07 -1.02226878106652648e-06
7 1 8.97660070185733356e-07 1.48708124155727965e-06 -7.85080825623730195e-07
8 1 3.27041343977106447e-07 2.33342116940208908e-06 1.18870788280130688e-06
8
Step 5000
1 1 -2.06395119755243823e-06 1.16725109221073424e-06 -4.06251600931115005e-07
2 1 -2.65237488442837776e-06 2.30561265387082065e-06 2.14975560658232440e-06
3 1 1.61514292462415366e-06 -1.74494838319894123e-06 5.27059889243987288e-07
4 1 9.58401042584653031e-07 -1.84945709749814844e-07 1.71444533483956039e-06
5 1 5.74428325168423583e-08 -8.69332743323462467e-07 -7.71611582387883525e-07
6 1 -1.13081442252174291e-06 1.38993373230076487e-06 -1.75466866569000284e-06
7 1 8.00875823561476962e-07 7.40295279766034633e-07 -1.52271705394236097e-06
8 1 5.57304647532921754e-07 1.64083070440743473e-06 2.38143842419347908e-06
8
Step 6000
1 1 -6.20801519398041698e-07 3.78219633380876676e-07 -1.47868754050707525e-06
2 1 -2.10840229360030470e-06 2.97422587436436836e-07 2.38386607779570257e-06
3 1 1.03404904599853252e-06 -1.87625363572730123e-06 1.27996338563669188e-06
4 1 9.93255974296114296e-07 -6.64299513322424858e-07 1.46030718672534336e-06
5 1 1.45766210880129297e-06 -4.69989694503021570e-07 4.69842732539051703e-07
6 1 3.57260083253670851e-07 1.60820508277852590e-06 -1.68576092717116763e-06
7 1 4.40814768048230770e-07 -1.82399509732909774e-07 -1.75112763594519775e-06
8 1 6.87200982242336472e-07 5.47745781630292899e-07 2.38587827125113590e-06
8
Step 7000
1 1 9.80303920328813097e-07 -2.30754636572710005e-07 -2.18909686084956301e-06
2 1 -7.44745493524501652e-07 -1.60347734933522925e-06 1.80390320141168604e-06
3 1 1.68101309048692470e-07 -1.48257245768769201e-06 1.22932469540553241e-06
4 1 7.10120611655054625e-07 -1.01680692792831146e-06 7.86640121370902569e-07
5 1 2.16832570996583783e-06 4.05816877508258061e-07 1.38396419624663899e-06
6 1 1.42790821079029873e-06 1.03316936942292511e-06 -1.08058826943243656e-06
7 1 4.71418343191426581e-08 -8.14451532033084620e-07 -1.39941152867492389e-06
8 1 8.26262439804067673e-07 -5.68104263740084255e-07 1.58531410864813757e-06
8
Step 8000
1 1 1.92911164019880770e-06 -5.41832370332700933e-07 -1.79644439279506616e-06
2 1 8.40334112669487743e-07 -2.46099047180256084e-06 7.54101649388069901e-07
3 1 -6.91995684038482841e-07 -7.71076667566927701e-07 5.58180437077182472e-07
4 1 1.60515314251198902e-08 -9.53681709679433191e-07 1.12952475328770591e-07
5 1 2.05063652306260244e-06 1.16069416480468444e-06 1.46038944792979693e-06
6 1 1.86959427144193344e-06 1.57003577053613634e-07 -3.51927134757619496e-07
7 1 -1.60769342797425217e-07 -9.45475814418486397e-07 -6.15483043667257805e-07
8 1 4.90037824565936759e-07 -1.01727952963396493e-06 4.03094552003650117e-07
8
Step 9000
1 1 1.88234484834265809e-06 -4.91369483116669275e-07 -3.33914685304081233e-07
2 1 1.81201151357755526e-06 -2.00468289255128360e-06 -2.19970744888795009e-07
3 1 -1.24007980835151848e-06 5.76531347697100788e-08 -3.27101454414074641e-07
4 1 -9.39592283181925665e-07 -3.23271064649364155e-07 -2.52139309586758848e-07
5 1 1.17132030400712532e-06 1.39433338556355094e-06 8.53610135128689390e-07
6 1 1.69019037235762466e-06 -5.36356497480536632e-07 1.68935812060817949e-07
7 1 -1.63438976963639292e-07 -7.10422248342684788e-07 2.72649576786747488e-07
8 1 -3.68030409001914925e-07 -7.62890129946315388e-07 -6.95913585327079679e-07
8
Step 10000
1 1 1.09669011515580054e-06 4.34632626346934284e-08 1.34442908258693500e-06
2 1 1.65646739939018398e-06 -6.39913680064824781e-07 -7.20217949939687656e-07
3 1 -1.31463599142429160e-06 6.35066977155430150e-07 -1.00128722639926178e-06
4 1 -1.80188747999378443e-06 7.47480170811583667e-07 -2.12721327987322075e-07
5 1 -1.14828687138808945e-07 9.30331693004980018e-07 -5.64518353038865349e-08
6 1 1.01842530669305248e-06 -7.61572978633437138e-07 3.54803371706473150e-07
7 1 -1.28420469964687189e-07 -4.14742713625790391e-07 9.09212704999596752e-07
8 1 -1.45214903773117275e-06 -2.06997979685101491e-07 -1.21287475099303428e-06
8
Step 11000
1 1 -1.63495048757028799e-07 6.48095507122898651e-07 2.62658131223678165e-06
2 1 6.23371456126223834e-07 9.37574665479038033e-07 -8.33767121950771950e-07
3 1 -9.22951139948384243e-07 7.92914438541534768e-07 -1.17419788951181816e-06
4 1 -2.12870776771349858e-06 1.87747481275964152e-06 3.16320095115701885e-08
5 1 -1.08884528652215263e-06 -3.09700387682861499e-07 -8.53981387753139057e-07
6 1 7.63973415402836301e-08 -4.75142170073507414e-07 2.98586151684868479e-07
7 1 -2.08279322165140282e-07 -3.16115268618071883e-07 9.85459520382192744e-07
8 1 -2.34246896071456004e-06 2.90551089712385517e-07 -1.10223710178609572e-06
8
Step 12000
1 1 -1.53931098707394573e-06 8.02903102841213407e-07 3.01910005445065161e-06
2 1 -3.09669631278256442e-07 2.04004334625342237e-06 -7.80385950821052794e-07
3 1 -2.97091073203010818e-07 5.56557365965694030e-07 -7.55312037206883704e-07
4 1 -1.59751837648391555e-06 2.51156369093907622e-06 2.16785294385180000e-07
5 1 -1.37669893463593713e-06 -1.87041767158409291e-06 -1.02623092286346682e-06
6 1 -8.49152778938370067e-07 1.22408057798817729e-07 1.74671216359762241e-07
7 1 -4.68067772651173360e-07 -4.92707668662186251e-07 4.99738797373693550e-07
8 1 -2.59785050366798486e-06 4.35968441246339536e-07 -6.68526718914773531e-07
8
Step 13000
1 1 -2.20428969908996487e-06 3.78398503004599412e-07 2.08419698291125811e-06
2 1 -6.82896151490572228e-07 2.14061336588960099e-06 -5.30920534566789261e-07
3 1 2.88400940027841268e-07 1.22730661961039244e-07 1.75076876323084254e-07
4 1 -1.03351537657630450e-07 2.18769273630879618e-06 1.41107932327029879e-07
5 1 -1.10704876747909764e-06 -2.85611868457299839e-06 -4.58637028936707004e-07
6 1 -1.42948355095994231e-06 6.79693889597942573e-07 9.08161931882402969e-08
7 1 -8.58680172538888501e-07 -5.75365441902479223e-07 -9.93496654822198823e-08
8 1 -1.86212285938319850e-06 6.04180823397469121e-08 -1.87557972089979750e-07
8
Step 14000
1 1 -1.56550985590762666e-06 -4.74766506673329717e-07 -3.55968360483760882e-08
2 1 -6.42903718224001311e-07 1.16957757064845321e-06 -1.69714228669454303e-07
3 1 6.09124119832595010e-07 -2.05849680604582482e-07 1.34984223805596165e-06
4 1 1.93677776141709082e-06 8.35347908308434879e-07 -2.08022183563222472e-07
5 1 -4.68500487118995225e-07 -2.82371718804645494e-06 3.18892450834568711e-07
6 1 -1.49406684547126385e-06 9.39895024434945854e-07 9.50161919965210143e-08
7 1 -1.14933382769657930e-06 -8.60290923989008212e-09 -4.09906153647208310e-07
8 1 -9.88670021265891287e-08 -4.69781119415066947e-07 2.99687000268730178e-07
8
Step 15000
1 1 2.93039834274186222e-08 -1.47704214316324981e-06 -2.34609436676604683e-06
2 1 -3.21355059583756615e-07 -3.59768289857776328e-07 1.14887385101783895e-07
3 1 6.03299209734589322e-07 -2.20967374972691082e-07 2.19413085763621693e-06
4 1 3.56842222347710046e-06 -1.02871492873325815e-06 -5.81757264711037431e-07
5 1 2.23695734180264872e-07 -1.56813962446716432e-06 8.03290119599392856e-07
6 1 -1.12203183175292628e-06 7.48492787969211414e-07 1.20734411746172985e-07
7 1 -1.09851014209439366e-06 1.34856772159325510e-06 -2.80478273649946714e-07
8 1 2.04211355169853709e-06 -7.43392620188205284e-07 5.64894631537371031e-07
8
Step 16000
1 1 1.61024081734786923e-06 -2.20609417399159127e-06 -3.60363015156371769e-06
2 1 1.97055753782947697e-07 -1.63823392013172872e-06 3.22525212181592494e-07
3 1 2.66129389765695518e-07 7.57012066403848637e-08 2.14182943206389552e-06
4 1 3.94363945536282350e-06 -2.38900762524019349e-06 -7.63776785181718913e-07
5 1 5.64025984269856272e-07 5.49766091240774661e-07 6.41621076268657182e-07
6 1 -4.00874414173823959e-07 1.57607986380312387e-07 1.16092327483540722e-07
7 1 -5.91187267427609364e-07 2.97551142589972811e-06 1.93755491940206583e-07
8 1 3.49939240160095439e-06 -6.34570238473214187e-07 5.28775003286302304e-07
8
Step 17000
1 1 2.71084024002526426e-06 -2.13192275757205401e-06 -3.29857488962449868e-06
2 1 4.96406776960804018e-07 -2.14292843745667949e-06 5.03411448527909411e-07
3 1 -2.89131469120157213e-07 4.96509012435584053e-07 1.14193152859529819e-06
4 1 2.64301346122464749e-06 -2.54174252071431753e-06 -6.50618782649027893e-07
5 1 5.40643497088818481e-07 2.33219079240396011e-06 -2.45557962875485633e-07
6 1 5.08637361657361402e-07 -5.85776698624827546e-07 7.84830191639534623e-08
7 1 2.66125951003998410e-07 3.88735639820647599e-06 6.21717816222963904e-07
8 1 3.50078548330006308e-06 -1.33472284845146516e-08 3.88918425887731155e-07
8
Step 18000
1 1 2.53176059580101655e-06 -9.04955448328470036e-07 -1.65913420177395349e-06
2 1 3.68010585400445813e-07 -1.73560463375209466e-06 5.35780921339641315e-07
3 1 -7.00876692506649665e-07 6.95000535750498347e-07 -4.26022167721580775e-07
4 1 2.33047386667055525e-07 -1.63093796207974665e-06 -2.11827736439392099e-07
5 1 2.89207915490116809e-07 2.88699642333285250e-06 -1.34805055329731105e-06
6 1 1.23824313026239919e-06 -1.15846631854377483e-06 2.83734799551146053e-08
7 1 1.15114293986583209e-06 3.21645804317327074e-06 7.10154262882538548e-07
8 1 2.28378904584767544e-06 8.88242424212505714e-07 3.26380607033135949e-07
8
Step 19000
1 1 9.74927667646802898e-07 1.03353311018259740e-06 4.52759833200822845e-07
2 1 5.66796922350284584e-08 -5.19279167790171067e-07 4.45379284862405568e-07
3 1 -7.22219699625998149e-07 4.37708595057136189e-07 -1.86476929833305773e-06
4 1 -1.99392582553010589e-06 -2.80144953216741742e-07 3.76724124771862934e-07
5 1 -7.69936086778440074e-08 2.20396538045518680e-06 -1.85049027594977750e-06
6 1 1.43142497357616031e-06 -1.32655788135686105e-06 -2.83270932660207285e-08
7 1 1.65464175531915795e-06 9.42043425536441126e-07 4.94911122107790259e-07
8 1 5.59378176493450503e-07 1.54477347957792767e-06 3.41514741518667322e-07
8
Step 20000
1 1 -9.50144404384962020e-07 2.77076191241200965e-06 1.93095578455439358e-06
2 1 -2.33383806269177705e-07 9.48339399314947997e-07 3.58060230302621107e-07
3 1 -3.12158018844028119e-07 -1.51474642103338969e-07 -2.44818419596935305e-06
4 1 -2.95368869423798074e-06 8.95322806947774031e-07 7.82268010698100955e-07
5 1 -3.76382071708016875e-07 6.19930465295047899e-07 -1.30935854406693432e-06
6 1 1.11564114733349067e-06 -9.10626914764182879e-07 -4.99742919290040030e-08
7 1 1.54497390609730591e-06 -1.66513640202056370e-06 1.05462334235337320e-07
8 1 -1.06505022406879055e-06 1.53267036462410936e-06 2.88314914816107196e-07
8
Step 21000
1 1 -2.43567774991208327e-06 3.52880396986955078e-06 2.20548227889183822e-06
2 1 -4.00123366524084318e-07 1.89993469098637290e-06 1.90455841020933017e-07
3 1 4.78166385672911205e-07 -7.54278746985589226e-07 -1.92913655624000205e-06
4 1 -2.41389133777834970e-06 1.44689733923233802e-06 8.18392113485784248e-07
5 1 -4.24755283949835472e-07 -1.07128080093075245e-06 1.72680077418420985e-07
6 1 4.06840307823964121e-07 -4.77638119415543657e-08 -3.55771881006677832e-08
7 1 8.36756093331077914e-07 -3.11100855596081802e-06 -3.14976914224915154e-07
8 1 -1.93430321236527370e-06 7.71818857615443626e-07 2.93307931707649953e-09
8
Step 22000
1 1 -2.89465137708216359e-06 2.99310216660687095e-06 1.41885675553032184e-06
2 1 -3.57135857308302192e-07 1.91130796692561443e-06 -1.74255940801077297e-07
3 1 1.25807122237891498e-06 -1.04074487646212910e-06 -6.39965221175957815e-07
4 1 -9.41596406323395803e-07 1.28043858253338897e-06 4.59271223402890743e-07
5 1 -2.30599086146013002e-07 -2.04306913110235283e-06 1.91476961792357897e-06
6 1 -4.25326615232506005e-07 8.93231305821788964e-07 -4.59363908259503837e-09
7 1 -1.99332883109574804e-07 -3.07350194799221043e-06 -6.45243801512956532e-07
8 1 -1.92334399054066577e-06 -3.96235217492116898e-07 -4.60833022928934186e-07
8
Step 23000
1 1 -2.03983399770247525e-06 1.39993381540487909e-06 1.77657577066277856e-07
2 1 -1.11497054891332022e-07 1.13195765838861433e-06 -5.66772251987947306e-07
3 1 1.48193149098630765e-06 -8.53424930303544598e-07 7.53500951358981059e-07
4 1 5.51495250387871272e-07 6.25848302010220608e-07 -1.44054999288010047e-07
5 1 8.74928145920309140e-08 -1.93535799638401744e-06 3.02247056395999825e-06
6 1 -1.02998015020168498e-06 1.49227798265749837e-06 5.82261295532364191e-09
7 1 -1.13693255298463535e-06 -1.98537359770264593e-06 -8.05088900248322318e-07
8 1 -1.34712958967035401e-06 -1.46598228322547575e-06 -1.02757532358860031e-06
8
Step 24000
1 1 -3.25418479653571257e-07 -4.22578911571898312e-07 -8.23464825438262704e-07
2 1 1.63283476028336031e-07 -4.04565913756176090e-08 -8.17082380148089853e-07
3 1 9.59553182039458912e-07 -2.96951823149635111e-07 1.63089340508191998e-06
4 1 1.34621335434794978e-06 -1.65655553397502534e-07 -6.89094690843736829e-07
5 1 3.72489465956404105e-07 -9.14811261419904082e-07 2.92536871234518963e-06
6 1 -1.14368145340923646e-06 1.45975201800261817e-06 -2.80591110495935464e-08
7 1 -1.53474636603478082e-06 -5.06837522199309726e-07 -7.27740810868843679e-07
8 1 -5.47866271312408430e-07 -2.00362900418412118e-06 -1.49911357078446608e-06
8
Step 25000
1 1 1.22066323456965322e-06 -1.58918003263157101e-06 -1.17040112965044699e-06
2 1 3.35001912183582450e-07 -1.12514735685094357e-06 -9.06254373073663371e-07
3 1 -1.12001706941233061e-07 3.55741525188839015e-07 1.68290934299171890e-06
4 1 1.23131391375384401e-06 -7.71545007303996991e-07 -8.90535212597229195e-07
5 1 4.86452729846644018e-07 4.46235914178539939e-07 1.58871125132934333e-06
6 1 -7.24114646188344826e-07 7.30459493360990783e-07 -9.79294241358899118e-08
7 1 -1.19175106751384557e-06 7.20616802307866085e-07 -3.96645989795580887e-07
8 1 2.77040758399591705e-07 -1.71501243963777220e-06 -1.45357284427985937e-06
8
Step 26000
1 1 1.97021347644034910e-06 -1.86633428473996151e-06 -8.43967437783784600e-07
2 1 3.48352244530706805e-07 -1.63881670718455072e-06 -7.52198202764431368e-07
3 1 -1.28433703707244855e-06 8.65064719280346528e-07 1.03516099891836374e-06
4 1 4.47002561223983296e-07 -9.53917623136019053e-07 -6.48191319975863220e-07
5 1 3.66698812019979178e-07 1.44864037246170591e-06 -3.99112626462058618e-07
6 1 1.32690131642149181e-08 -4.02024183135864379e-07 -1.70468757235205070e-07
7 1 -3.05760683126224528e-07 1.33371399677220054e-06 9.06187885352677911e-08
8 1 9.07081372938789850e-07 -7.28330867183294362e-07 -6.61860342443341169e-07
8
Step 27000
1 1 1.76471963094889530e-06 -1.46275374441088014e-06 -1.12379846102796423e-07
2 1 2.30907941034089943e-07 -1.33291551488750136e-06 -2.22467192506124776e-07
3 1 -1.99115346825178252e-06 9.30168001999374442e-07 4.92372216496357177e-08
4 1 -4.84862965983817781e-07 -6.48026193081043815e-07 -1.03056878568090759e-07
5 1 3.93502774680295412e-08 1.61868017644700209e-06 -2.03899623969779664e-06
6 1 6.93813822419498346e-07 -1.39474997806734568e-06 -1.95415042266057919e-07
7 1 6.64280365876057236e-07 1.24997851612838128e-06 5.78248790055279049e-07
8 1 1.18051733543113305e-06 5.91360469083459880e-07 6.34050827801635395e-07
8
Step 28000
1 1 7.90643508858943565e-07 -7.09488051412470853e-07 6.08475480464831427e-07
2 1 4.82227140412036953e-08 -4.73173854603811670e-07 5.28795240597284557e-07
3 1 -1.91163642860016736e-06 5.69999793878114436e-07 -8.05922523219679106e-07
4 1 -1.06512317136172676e-06 2.40580678230251029e-08 4.63110867519762065e-07
5 1 -3.74727703717562267e-07 1.04506346681517751e-06 -2.62469357805143167e-06
6 1 9.75043532255021003e-07 -1.76922684511225263e-06 -1.15498478548021813e-07
7 1 1.22950183891792996e-06 6.48707736984869914e-07 9.08377824309189134e-07
8 1 1.16859290901289409e-06 1.58236550174228418e-06 1.88249895295940138e-06
8
Step 29000
1 1 -4.02705722455297127e-07 2.81582449212180430e-08 9.48921095761665054e-07
2 1 -9.14533838172083925e-08 4.28427045577109864e-07 1.19720893627120128e-06
3 1 -1.11364504872009718e-06 9.26961970535525976e-08 -1.18318084889706310e-06
4 1 -1.01468064983967583e-06 7.85733912860676569e-07 7.55017865012281850e-07
5 1 -6.66907277521736353e-07 4.87017752494777383e-08 -2.07743198447046813e-06
6 1 7.22185105629135854e-07 -1.37435838252031067e-06 8.29724082820528471e-08
7 1 1.05195188717770339e-06 -8.05889746712817563e-08 9.46418865821325695e-07
8 1 8.85367774838389523e-07 1.78410966722791964e-06 2.54480188525480205e-06
8
Step 30000
1 1 -1.16178824201098597e-06 4.62975445760999574e-07 7.64379348753171622e-07
2 1 -1.68752670741226088e-07 9.87056581628843386e-07 1.53763459514834250e-06
3 1 8.65448011447050221e-08 -2.57480715716247089e-07 -9.99484627427837350e-07
4 1 -3.86239625759595866e-07 1.24483138090535946e-06 5.86694042753425450e-07
5 1 -6.78512921663579812e-07 -9.45812935017616409e-07 -7.91318736085868642e-07
6 1 3.07134376951314406e-08 -3.70516896667473055e-07 3.33447573519745023e-07
7 1 1.53334236691462506e-07 -5.72505334213667341e-07 6.51172585761450413e-07
8 1 2.89053013968459179e-07 1.17324804401608267e-06 2.30758798585069348e-06
8
Step 31000
1 1 -1.12432194650778605e-06 5.51779416717725143e-07 2.04825892699230267e-07
2 1 -2.40362936549851993e-07 1.03992526855503396e-06 1.39642774908819863e-06
3 1 1.20266499444365998e-06 -4.58187728815024491e-07 -3.99209052831470929e-07
4 1 4.63197277890445014e-07 1.06652252143273996e-06 4.21599610520582007e-08
5 1 -3.83801553298521679e-07 -1.49053888070356374e-06 5.35364800100560273e-07
6 1 -7.88544824834186867e-07 7.81976996317332080e-07 5.44419244260580539e-07
7 1 -1.02949294971303699e-06 -6.53387585551177498e-07 9.86846067246576108e-08
8 1 -4.87129777036441138e-07 1.44232853413179827e-07 1.14946077322735092e-06
8
Step 32000
1 1 -3.88463984914215443e-07 4.38809767691910137e-07 -4.27308576050021903e-07
2 1 -3.11324071674662439e-07 6.00749953065505787e-07 7.20650601097674963e-07
3 1 1.72093722928687223e-06 -3.57740090302023343e-07 3.24405464055513204e-07
4 1 1.10173983282401021e-06 2.13327534867127553e-07 -5.45036687768226022e-07
5 1 1.03281989248138114e-07 -1.34914261884694628e-06 1.24765121551839951e-06
6 1 -1.30497440465764539e-06 1.52321369469374137e-06 6.05442274844606612e-07
7 1 -1.85395425151492543e-06 -3.71675711932230654e-07 -5.30446809048493914e-07
8 1 -1.07480267377862394e-06 -9.10609167889643597e-07 -4.33785248254790306e-07
8
Step 33000
1 1 5.58784678185216731e-07 2.73109638377196158e-07 -8.62113752800997646e-07
2 1 -3.60389441093136722e-07 -6.34334485581406148e-08 -3.09810556015168029e-07
3 1 1.58348998101350524e-06 -6.87643796929898459e-08 8.03679221918783349e-07
4 1 1.23160415870556006e-06 -1.01673354483933370e-06 -8.00332087324076732e-07
5 1 6.45894456305086590e-07 -6.25791145235781751e-07 1.20512758852452031e-06
6 1 -1.18976967058719449e-06 1.49804288106124716e-06 4.10949903861613166e-07
7 1 -1.75938163057135941e-06 1.02920813934180788e-07 -1.00739907142543649e-06
8 1 -1.32606841346360101e-06 -1.50272725070722168e-06 -1.71163412993397969e-06
8
Step 34000
1 1 1.10393288557400490e-06 1.32569011175953930e-07 -9.54286332977480984e-07
2 1 -4.00111658854865970e-07 -5.35316821491733874e-07 -1.28399379397320162e-06
3 1 9.86571297997941150e-07 1.32889662651298680e-07 8.43476401912877372e-07
4 1 7.71492783376036590e-07 -2.08160703556824042e-06 -4.96450771250310802e-07
5 1 1.17591523635267640e-06 2.54954130478980657e-07 6.83729658771413153e-07
6 1 -3.92157587197744309e-07 7.47755605603205473e-07 -7.34420417189607119e-08
7 1 -4.94888351680311777e-07 5.01885379195985658e-07 -1.13271574533657894e-06
8 1 -1.24901439630227678e-06 -1.21290574339454185e-06 -2.27318833696837522e-06
8
Step 35000
1 1 8.90985112162082206e-07 6.99473920722932861e-08 -6.22604114643468984e-07
2 1 -3.11898524824011571e-07 -6.33065923599612371e-07 -1.83255414895571039e-06
3 1 2.33273752978470704e-07 9.74584399356315638e-08 4.91650087266363681e-07
4 1 -4.27945009147132420e-08 -2.29601439825252344e-06 2.86788918902606231e-07
5 1 1.30769772387068898e-06 9.64296468973467356e-07 -1.71664429086788388e-08
6 1 7.83285679303876263e-07 -3.27197539471101022e-07 -7.40096357762043286e-07
7 1 1.54662410656075691e-06 5.80477544892068582e-07 -8.08543689156867697e-07
8 1 -7.82371721864835919e-07 -2.23658100310545038e-07 -2.00101573489966725e-06
8
Step 36000
1 1 -1.56194245604550249e-08 7.77075885800919278e-08 3.28757098479977104e-08
2 1 6.25133166974684819e-08 -4.25399970424524424e-07 -1.77340471503717256e-06
3 1 -3.76979800866010767e-07 -1.73749354133129270e-07 7.50178183924525647e-09
4 1 -8.24333405227537866e-07 -1.38118664996410112e-06 1.14329640630141118e-06
5 1 7.89849844439097762e-07 1.35712552198804724e-06 -5.29299797469998955e-07
6 1 1.76180872244260658e-06 -1.14574224521705402e-06 -1.36979944439240082e-06
7 1 3.31223613231596914e-06 2.66975781859566038e-07 -9.69720427707809203e-08
8 1 3.20082277877350631e-08 9.45522443905951269e-07 -1.11592575488410506e-06
8
Step 37000
1 1 -1.14381595418765848e-06 4.20479517433267542e-08 6.81699161362207379e-07
2 1 7.10740704458027226e-07 -9.08846461525603176e-08 -1.10457375036281031e-06
3 1 -6.46587987799738676e-07 -5.36198421904783270e-07 -2.92573862729961624e-07
4 1 -1.27306720317679576e-06 3.88082572056846582e-07 1.57574629925712567e-06
5 1 -1.11730969935921144e-08 1.29245989488776052e-06 -5.23590342432034305e-07
6 1 2.01848514369290241e-06 -1.27636405451531602e-06 -1.66418792418817484e-06
7 1 3.71076403484569579e-06 -2.96729254348691520e-07 7.53199178533849957e-07
8 1 8.84023556848139522e-07 1.89549639174272130e-06 -1.49681161369127645e-07
8
Step 38000
1 1 -1.81598799842816768e-06 -9.83063872841028522e-08 1.03106449894522898e-06
2 1 1.25993022317803134e-06 2.06127939421023651e-07 -1.03114315646300655e-07
3 1 -5.51273592386669104e-07 -7.33990227228825633e-07 -1.79518514936615620e-07
4 1 -1.16929309573706056e-06 2.29472012238945407e-06 1.20583065751504272e-06
5 1 -4.94520107135361769e-07 7.19304054479361704e-07 -1.10130951847937912e-08
6 1 1.38337917292501208e-06 -6.04015140312442427e-07 -1.30042594421062147e-06
7 1 2.51435257979477530e-06 -8.17609584695432208e-07 1.50658849147487078e-06
8 1 1.24946105324308567e-06 2.07321641527250897e-06 2.90824607406863001e-07
8
Step 39000
1 1 -1.53621878366767569e-06 -2.73569201290512813e-07 1.01057845179590284e-06
2 1 1.48868090876132298e-06 3.41917418853853718e-07 8.48083596010147325e-07
3 1 -2.95267256661124589e-07 -5.67197343143274717e-07 1.54699909377419501e-07
4 1 -4.99193192490083414e-07 3.32370526710647393e-06 -2.12892479284641228e-08
5 1 -1.18360006147453718e-06 -2.04136025414860598e-07 4.60733796832757507e-07
6 1 1.13898345498383478e-07 5.28276726555912539e-07 -2.43767887786191024e-07
7 1 2.92545543519742845e-07 -1.07894786701961564e-06 1.77518083417656709e-06
8 1 1.59200576590341254e-06 1.20671662731199812e-06 4.17129232770718029e-07
8
Step 40000
1 1 -3.21548552875588445e-07 -3.45865082936925126e-07 6.56657149139336800e-07
2 1 1.35969518190159211e-06 2.44914088826472063e-07 1.42906444297337382e-06
3 1 -1.96201302506804040e-07 -3.66984139127687041e-08 3.73805406451120955e-07
4 1 3.49459998630257152e-07 2.78550957957039407e-06 -1.53784515324848020e-06
5 1 -2.13934846075412108e-06 -1.05464006475141065e-06 3.27316240958031071e-07
6 1 -1.12464408266713144e-06 1.38444598278972351e-06 1.05812565962815570e-06
7 1 -1.98973741994455956e-06 -8.63980189116786926e-07 1.16909338415043060e-06
8 1 2.14912436941387394e-06 -5.11252103699637231e-07 5.91871811611279243e-07
8
Step 41000
1 1 1.27165844970589119e-06 -2.61809276221912581e-07 -1.15866170360397452e-07
2 1 4.70640622218439174e-07 7.81027977343456686e-08 1.47773392367878317e-06
3 1 -3.63291691921612569e-07 6.87687669772781245e-07 2.26986443572497139e-07
4 1 9.86057842913148882e-07 1.13005921624101524e-06 -2.64292889816889682e-06
5 1 -2.09917640395474484e-06 -1.88045795591032630e-06 -5.41257772913127387e-08
6 1 -1.67447430835755780e-06 1.40652441239615735e-06 2.14411254004972475e-06
7 1 -3.15380555114419349e-06 -1.19866381918563214e-07 -1.26350156655005072e-07
8 1 1.55153250793099272e-06 -2.38124928260403995e-06 3.49146965963429967e-07
8
Step 42000
1 1 2.45405643868144107e-06 -5.17921345311248904e-08 -1.17583568087220219e-06
2 1 -9.95776906092920083e-07 -2.60969035147446328e-08 9.55712941870426145e-07
3 1 -6.65496062087486253e-07 1.28687189766966185e-06 -3.07138915825448977e-07
4 1 1.29939554731783540e-06 -8.46475707625575692e-07 -2.84392679124545097e-06
5 1 -1.18406372456790715e-06 -2.20707329820779701e-06 -4.39928019280955438e-07
6 1 -1.63325779663957965e-06 4.15687352662944803e-07 2.71584091462665772e-06
7 1 -2.87476475222772865e-06 9.51727330217087836e-07 -1.49501009432431035e-06
8 1 -8.49787222989257425e-08 -3.59486249240474959e-06 -1.91315907506113063e-07
8
Step 43000
1 1 2.65626951694796015e-06 1.87646590589959779e-07 -2.21010170379627890e-06
2 1 -2.22456545306756844e-06 -2.49763169281461751e-08 1.91932694701700017e-07
3 1 -8.51449437480088626e-07 1.45834380940078049e-06 -1.00525499079783042e-06
4 1 1.03438968293642907e-06 -2.32072619394724977e-06 -1.76206900215147769e-06
5 1 -1.38243916399542784e-07 -1.75950725544887050e-06 -7.41120439454969255e-07
6 1 -7.46161698119209430e-07 -1.46528602858043092e-06 2.20303606986810013e-06
7 1 -1.55333325623149766e-06 1.98415134831883983e-06 -2.36379433721213202e-06
8 1 -1.88973029713762294e-06 -3.30066820746342695e-06 -3.98464938483941953e-08
8
Step 44000
1 1 1.67353899664798629e-06 3.11387691783062980e-07 -2.43402952361324334e-06
2 1 -2.50593245450792013e-06 8.63809467860274378e-08 -3.53888155604083760e-07
3 1 -5.89864626503256752e-07 1.09297072932224180e-06 -1.53688630374663374e-06
4 1 1.67228677264992710e-07 -2.63662089652198477e-06 2.73904546265611967e-07
5 1 9.67888453552829202e-07 -5.81574013553062259e-07 -7.84835006453059734e-07
6 1 4.34156837155936045e-07 -3.28672976610468141e-06 1.11410911048986929e-06
7 1 1.36408412453578386e-07 2.48153067339467973e-06 -2.20128592187125138e-06
8 1 -3.01569183820698099e-06 -1.69169386973296655e-06 2.59536028531695337e-07
8
Step 45000
1 1 -1.83877551871348047e-07 2.34997881368886411e-08 -1.85115306065601763e-06
2 1 -1.79475899720687867e-06 1.45622473882070016e-07 -7.13213581909953663e-07
3 1 1.91789669381417046e-07 3.13715905599949044e-07 -1.36960189302195760e-06
4 1 -7.14263078104308600e-07 -1.50612894578732828e-06 2.00895023573491687e-06
5 1 1.99604977846516929e-06 1.00498252497133338e-06 7.19085526536234839e-08
6 1 1.07022570146248475e-06 -3.70149425508372801e-06 2.35498693889572247e-07
7 1 1.53771790103512999e-06 2.05204869008702101e-06 -7.78766117083789109e-07
8 1 -3.12876453687120950e-06 2.22490487594115893e-07 4.87554123527010793e-08
8
Step 46000
1 1 -1.89020553105820426e-06 -4.81053501843760360e-07 -7.77660936651037938e-07
2 1 -3.45397561763431645e-07 3.70599368701999817e-08 -5.66021038068482444e-07
3 1 1.15484272001685331e-06 -5.68645263842918189e-07 -3.18986864161652300e-07
4 1 -1.30462270879226122e-06 1.21725346526164291e-07 2.75704355170313660e-06
5 1 2.43992650875023418e-06 2.59156046378143547e-06 1.15573914962272150e-06
6 1 9.70864719351347908e-07 -2.53096548921520868e-06 -9.09082416738160270e-07
7 1 2.09012031473300527e-06 6.33626161886479788e-07 1.15138381124489727e-06
8 1 -2.19623068273696520e-06 1.98474310389695665e-06 3.14931610760387028e-07
8
Step 47000
1 1 -2.53665793085227805e-06 -7.01662987077943211e-07 6.26119309324335671e-07
2 1 1.24927997091252175e-06 -2.14852280908062763e-07 -2.60762765567152230e-07
3 1 1.80153243651213196e-06 -1.24945087413417103e-06 1.13900631123449678e-06