8
Step 0
1 1  0.000000000000e+00   0.000000000000e+00   0.000000000000e+00 
2 1  0.000000000000e+00   0.000000000000e+00   0.000000000000e+00 
3 1  0.000000000000e+00   0.000000000000e+00   0.000000000000e+00 
4 1  0.000000000000e+00   0.000000000000e+00   0.000000000000e+00 
5 1  0.000000000000e+00   0.000000000000e+00   0.000000000000e+00 
6 1  0.000000000000e+00   0.000000000000e+00   0.000000000000e+00 
7 1  0.000000000000e+00   0.000000000000e+00   0.000000000000e+00 
8 1  0.000000000000e+00   0.000000000000e+00   0.000000000000e+00 
8
Step 1000
1 1 -9.714797668444e-05   1.286884375290e-04  -8.280308595213e-06 
2 1 -1.813317621087e-04   1.095057285785e-04   1.250324363492e-04 
3 1  2.251214815306e-05   1.631841734274e-05   1.006068644306e-04 
4 1  5.061961703239e-05  -8.436420497662e-05   5.385410589023e-05 
5 1 -1.023906768999e-04  -2.358236005989e-04   3.289342878820e-06 
6 1 -1.214503897162e-04   2.907079905570e-04  -1.114235675546e-04 
7 1 -1.018447678870e-04  -1.421490728228e-04  -1.315961671481e-04 
8 1 -2.008727453512e-04   7.553106677717e-05   3.136624379358e-04 
8
Step 2000
1 1 -3.023293046518e-04   8.062552723629e-05   2.684771172133e-04 
2 1  7.533945029217e-05   9.890333881088e-05  -2.044743592087e-05 
3 1 -3.972842547130e-05   4.184199123716e-05  -1.081746075571e-04 
4 1 -2.539660894393e-04   2.038037621785e-04   1.422102465829e-04 
5 1 -8.020833451537e-05   1.926001429610e-05  -7.251085072780e-05 
6 1  1.775955015511e-05  -1.036989859072e-04  -2.305947398499e-05 
7 1 -1.367681552612e-04   1.182344399750e-04   9.124769082368e-05 
8 1  1.418858801813e-04  -1.000992009419e-04  -1.093642762910e-04 
8
Step 3000
1 1 -7.938763057486e-05  -1.706004574619e-04  -9.010344470235e-05 
2 1 -1.445452741727e-04   4.125182866912e-04   4.036075398002e-04 
3 1  4.644780010695e-05   1.804926402224e-04   1.785998133786e-04 
4 1  4.968859468631e-05  -2.210762470927e-04  -2.755927935015e-04 
5 1 -8.864326039328e-05   1.689342487593e-04   4.885800640935e-05 
6 1  1.577542546154e-04   9.063220536957e-05  -2.375976004773e-04 
7 1  3.670985490314e-04  -1.471419899158e-04  -1.889233317034e-05 
8 1 -3.127234431165e-04   2.532070734117e-04   3.652709832258e-05 
8
Step 4000
1 1 -2.163031279123e-04  -3.504963251273e-06   1.173787736952e-04 
2 1 -5.670067634333e-05  -1.705207435401e-05  -2.996620282629e-04 
3 1 -7.826028927954e-05  -1.097164710390e-04  -1.599830122914e-04 
4 1  1.415282158664e-05   1.008368943406e-04   2.250045092465e-04 
5 1 -1.406011840453e-04  -8.675968553026e-05  -2.389129360922e-04 
6 1 -2.655157866944e-04   6.678362039386e-05   1.853540007177e-04 
7 1 -1.013339985399e-05   1.999024836270e-04   4.249774640700e-05 
8 1  1.472804463760e-04  -4.854559883582e-05  -1.495579315251e-05 
8
Step 5000
1 1 -5.084607290075e-05  -5.173522714712e-05  -7.049953528367e-05 
2 1 -7.604009842564e-05   1.020131015285e-04   4.903704220930e-05 
3 1  7.308797034357e-05   1.266678900445e-04  -5.199559637106e-06 
4 1 -4.778193447642e-05  -2.321553651933e-04  -2.040858569651e-04 
5 1  1.918322179280e-04   2.823400264771e-04   2.865042955116e-04 
6 1  1.407497019636e-04  -1.478486472662e-04  -3.533054752793e-04 
7 1  1.633563495535e-05  -1.030395722826e-04   1.851734815810e-04 
8 1 -7.643900727765e-06  -2.062690551333e-04  -3.122061254499e-05 
8
Step 6000
1 1 -2.493415502977e-04   9.396188244235e-05   1.097016300442e-04 
2 1 -8.597809825540e-05   1.219463834586e-04  -2.784532832309e-04 
3 1 -1.099718754562e-04  -9.233906649987e-05  -4.844190346701e-05 
4 1  2.642169155838e-04   4.554471031946e-05   2.547382533625e-04 
5 1 -5.215390049810e-05  -1.174564528023e-04  -3.593721044168e-04 
6 1 -6.896576112728e-05   2.995029717149e-04   2.698195211028e-04 
7 1 -1.044870479820e-04  -3.651907553964e-05  -1.499572496602e-04 
8 1  9.872392169534e-05  -1.432138334635e-04   1.872630058320e-04 
8
Step 7000
1 1 -5.670054340431e-07  -1.333377451360e-04  -1.868854827249e-04 
2 1  1.003366652461e-04   3.918778488660e-05   6.185716015026e-05 
3 1  2.102299883603e-04   2.217247886362e-04   1.544099505595e-04 
4 1 -2.092493759073e-04  -2.357835175188e-04  -1.353142417445e-04 
5 1  4.964422313761e-05   1.663322512323e-04   1.447780508487e-04 
6 1  3.270775057786e-05  -1.064703773630e-04  -8.440820869145e-05 
7 1 -4.351551642094e-05  -2.158147610364e-04   1.932580696863e-04 
8 1 -4.482601822066e-05   8.100382697078e-05  -1.266171837059e-04 
8
Step 8000
1 1  1.601625865417e-05   7.106665293091e-05   1.632728903348e-05 
2 1  1.577385713506e-05   1.765117856239e-04   5.599972083140e-05 
3 1 -1.337930177924e-04   1.092067707160e-04   7.117872331948e-06 
4 1  2.420538158624e-04   4.709912550303e-05   2.139168846089e-04 
5 1  2.641811882168e-05  -1.517377993344e-04  -2.002475374796e-04 
6 1 -2.405225519793e-04   1.241293580329e-04   7.461370409068e-05 
7 1  3.387428205251e-04  -1.198580348791e-04  -1.698547125597e-04 
8 1 -5.037024448226e-05   6.941519568270e-05   2.646718544599e-04 
8
Step 9000
1 1  1.954979519794e-05  -6.003855684831e-05  -1.364729922919e-04 
2 1  1.367199484820e-04   1.225059857874e-04  -1.564615368396e-04 
3 1  2.298598110252e-04   1.474028561084e-04   8.036426946919e-05 
4 1 -2.233574472748e-04  -6.226065313984e-05  -2.681441825872e-05 
5 1 -7.342020316166e-05   2.574588916718e-04  -7.223756599072e-06 
6 1  1.033831090559e-04   3.915576189633e-05   1.367990792769e-04 
7 1 -1.102302825130e-04  -1.958893291323e-04   2.196299541382e-04 
8 1  1.001932136037e-04  -2.139665756814e-04  -1.644538114845e-04 
8
Step 10000
1 1  3.637233225752e-05   1.535053239734e-04   3.807424290739e-05 
2 1 -5.008940240679e-05   1.618976395251e-04   7.384980251367e-05 
3 1 -1.141257380114e-04  -4.154537713210e-05   2.056452064450e-05 
4 1  2.924287409261e-04  -1.743201942112e-04   5.022915862254e-05 
5 1  2.548802317461e-04  -3.970438015048e-05   1.420132073758e-04 
6 1 -2.989685678025e-04  -1.483907094362e-04  -1.166806861864e-04 
7 1  5.893015171042e-05   7.923707534468e-05  -1.652486175144e-04 
8 1 -1.537760085322e-04   1.314112342266e-05   1.299069205125e-04 
8
Step 11000
1 1  1.043040367287e-04  -1.693368871791e-05  -1.744773312772e-04 
2 1 -6.743944145942e-05   1.683245474645e-04  -1.612528280438e-04 
3 1  5.173518278992e-05  -1.354689317959e-04   1.429565057163e-04 
4 1  3.296007720075e-05   2.607862826850e-04  -3.779092522031e-05 
5 1 -3.177347677283e-04   1.557814787401e-04  -1.009684510900e-04 
6 1  1.030926037727e-04  -3.381219266592e-05   1.005513590746e-05 
7 1 -6.772058315244e-05  -2.068185404867e-04   1.687407961842e-04 
8 1  1.771448549214e-04   1.811526634074e-05   6.109109727768e-05 
8
Step 12000
1 1 -2.129437655069e-04   2.048954529452e-04   4.158030996590e-04 
2 1  2.279259856872e-04  -2.410061391402e-04   2.088162262546e-04 
3 1  2.321865532772e-04   6.584109700641e-05   6.371534238458e-06 
4 1 -1.130949739185e-04  -2.367618467821e-05   2.241496430950e-04 
5 1  2.418725365865e-04   1.249325433113e-05   1.263191887688e-04 
6 1 -3.042740854999e-04  -7.418644095995e-05  -1.994083521193e-04 
7 1  7.063622254923e-05  -2.243900460518e-05  -1.263939756319e-04 
8 1  3.707108953815e-05   2.177682322172e-05  -6.192007744370e-05 
8
Step 13000
1 1  1.694872250494e-04  -1.361661326520e-04  -2.330307195721e-04 
2 1 -1.708466859815e-04   2.447524801493e-04   3.240899785202e-06 
3 1 -5.731502722208e-05  -1.300311801304e-04   1.393729647772e-04 
4 1  1.615240055632e-04   2.289735477470e-04  -2.338394516473e-04 
5 1 -2.104553073001e-04   4.322741665789e-05  -4.333535219394e-05 
6 1  1.433774824487e-04  -2.158483179375e-04   6.914833639779e-05 
7 1 -1.655192514126e-05  -1.459128740477e-05   3.554325533592e-05 
8 1  9.947354018633e-05   6.507302866751e-05   4.441047181066e-05 
8
Step 14000
1 1 -2.208853899787e-04   8.644697613219e-05   3.254404088544e-04 
2 1  2.101495543236e-04  -2.867018252791e-04  -2.069323075771e-05 
3 1  1.842659589187e-04   2.279759919652e-04   4.264818563753e-05 
4 1 -2.679281444514e-04  -2.246474379837e-04   1.692306744217e-04 
5 1  1.129191068191e-04   1.042086385520e-04   1.004091508671e-05 
6 1 -2.078143719475e-04   1.421404934294e-04  -3.521539575193e-05 
7 1  2.222798300995e-05  -9.562879577406e-05  -5.755380877145e-05 
8 1  1.189835781451e-04  -1.792484835467e-05  -4.888339487427e-05 
8
Step 15000
1 1  2.276141873599e-04  -1.968638081648e-04  -6.149363793617e-05 
2 1 -1.816670567018e-04   1.555123397131e-04   6.751554700854e-05 
3 1 -7.943153524196e-05  -1.700891413536e-04   2.851565578816e-04 
4 1  8.219636588207e-05   6.805477925849e-05  -2.262311187970e-04 
5 1  3.993093235457e-05   3.169964088878e-04   3.339963656216e-04 
6 1 -6.073693016685e-05  -2.378458182929e-04   1.688140511887e-04 
7 1  3.953663613261e-05   1.631469081377e-05  -1.289191894201e-04 
8 1 -7.598405531916e-05   9.494601052179e-05   8.048719174841e-05 
8
Step 16000
1 1 -7.866726910862e-05   2.434572316789e-04   2.787745000164e-04 
2 1  2.333535467151e-04  -9.200277839308e-05   3.443183394407e-05 
3 1  1.210640274823e-04   1.414089536116e-04  -2.178915164082e-04 
4 1 -4.485683741535e-05   2.454859740814e-05   1.403117853775e-04 
5 1 -1.960641960382e-04  -1.270571930552e-04  -1.150200365965e-04 
6 1 -1.004094050049e-04  -2.948288209102e-05  -1.433812167090e-04 
7 1  7.566361335418e-06  -1.441945129332e-05   5.464870708357e-05 
8 1  1.202253042862e-04   1.325293253088e-05   9.456049804995e-05 
8
Step 17000
1 1  1.945708551089e-04  -1.358662660658e-04  -1.852462831511e-04 
2 1 -2.515951974557e-04   7.024916552772e-05  -1.791857280026e-04 
3 1 -1.131624603282e-04  -1.582378674759e-04   1.512816445893e-04 
4 1 -1.328029396680e-04  -2.004680362608e-05  -3.225907010892e-04 
5 1  2.468664998923e-04   1.995635629589e-04   1.201051203754e-04 
6 1 -1.018266872861e-04  -1.421976990019e-04  -4.455054216096e-05 
7 1  1.548465084697e-04   1.024583876195e-04   1.311568698343e-04 
8 1 -2.040014648218e-04   8.542851441798e-05  -6.129040268734e-05 
8
Step 18000
1 1 -2.374465209096e-05   7.262149566681e-05   6.057594139970e-05 
2 1  1.977030285204e-04  -1.330025391066e-05   1.999464918590e-04 
3 1 -1.926541376515e-05   3.327584637302e-05  -2.183490913728e-04 
4 1  1.328011452874e-04   1.814369846888e-04   1.862254788794e-04 
5 1 -1.557294856107e-04  -2.094656899826e-04  -1.019502530950e-04 
6 1  1.618726588445e-04   1.882598395534e-04   3.758372375116e-05 
7 1 -1.974213410263e-04   7.062418610085e-05  -5.303641214026e-05 
8 1  2.783139270132e-05  -2.222177104936e-04  -4.248690402406e-05 
8
Step 19000
1 1  9.041366542937e-05  -1.248486674145e-04  -3.045651013132e-04 
2 1 -5.856526613294e-05  -7.742672563026e-05  -2.692517072392e-04 
3 1  1.498901206934e-04   9.855656997022e-05   1.356338771758e-04 
4 1 -2.653445980055e-04  -2.552213779727e-04  -2.758229359108e-04 
5 1  1.554213420079e-04   1.548426859108e-04   7.345188846621e-05 
6 1  2.480038677064e-05   1.495709112598e-05  -3.385323023787e-06 
7 1  6.206191896724e-05  -1.084350232581e-04  -1.522168565172e-04 
8 1 -2.005398706895e-04   1.828570914321e-04  -1.994431179735e-04 
8
Step 20000
1 1 -8.871432826431e-05   1.913337513131e-04   5.824854453731e-05 
2 1  2.683132450678e-05   1.565064708839e-04  -1.936522531774e-05 
3 1 -2.061124605017e-04  -9.512433332547e-05  -2.465395579887e-04 
4 1  1.241152226863e-04   1.480797424766e-04   9.127994904368e-05 
5 1 -7.450044448293e-05  -1.093603192169e-04  -9.885255161336e-05 
6 1  5.012347678126e-05   1.019526287859e-05  -1.226646096111e-04 
7 1  4.158585707125e-05   2.385922655140e-04  -1.252970365078e-05 
8 1  7.324286671346e-05  -1.781027960521e-04   1.075136422581e-05 
8
Step 21000
1 1 -7.389574674970e-05   1.112059367622e-04  -6.173220031420e-05 
2 1  3.291218102847e-05  -2.887292539673e-04  -8.192982478382e-05 
3 1  1.826419912337e-04   6.907999947124e-05   8.021565202360e-07 
4 1 -1.798638421301e-04  -1.922627032854e-05  -3.323731572232e-05 
5 1 -2.073966303005e-04   7.345129621580e-05   3.469807819155e-04 
6 1  8.989454416051e-06  -2.979910610838e-05  -1.776715347362e-05 
7 1  4.483038927573e-05  -1.610178136600e-04  -1.471133085579e-04 
8 1 -7.906106687724e-05   1.998645933509e-04   2.233666308319e-04 
8
Step 22000
1 1  6.468176221735e-05   2.751056758759e-05   2.275015828549e-04 
2 1 -9.667747116264e-05   3.982288461753e-05   8.296429808947e-05 
3 1 -2.607602855469e-04  -1.625628134422e-04  -2.540385936670e-05 
4 1  1.964076714715e-04  -6.757500131063e-05   3.207596267336e-05 
5 1  2.205144969699e-04  -6.356078231722e-05  -1.388433947319e-04 
6 1 -1.456636780095e-04   2.163978959570e-05   6.920155897414e-05 
7 1  2.562893997651e-04  -4.181862288689e-05   3.280689520354e-04 
8 1 -2.384950026024e-05  -5.792670938368e-05  -9.295159648275e-05 
8
Step 23000
1 1 -3.011264492781e-04   7.572780638941e-05   9.506808705279e-05 
2 1  1.983628420543e-04  -1.941469104898e-04   4.477054357683e-05 
3 1  2.317209791141e-04   1.301122879369e-04  -2.753272987878e-05 
4 1 -1.530954948485e-04   8.843809125830e-05   1.280009905563e-04 
5 1 -1.629764262874e-04   4.403038743544e-06   2.572048832539e-04 
6 1  2.335877215382e-04  -1.685569228494e-04  -2.253914968927e-04 
7 1 -2.282009049639e-04   5.583124264498e-06  -1.055434670845e-04 
8 1  2.608887439982e-04   2.386339813074e-05   2.995103355704e-05 
8
Step 24000
1 1  1.947478133068e-04  -6.836914670912e-05   1.204932662460e-05 
2 1 -1.014319358498e-04   2.124469168020e-04  -4.013177961953e-05 
3 1 -2.614621529980e-04  -1.147334517761e-04   1.076461430910e-04 
4 1  4.351793982848e-05  -9.432485425354e-05  -2.078745849634e-04 
5 1  1.597162097305e-04   7.017595216083e-05  -4.530056572421e-05 
6 1 -2.399864772076e-04   6.397689230262e-05   2.538085534941e-04 
7 1  1.932588772610e-04  -1.803950262674e-04   9.615219496576e-05 
8 1  2.055865387852e-05   2.256644808036e-05  -7.734908264000e-05 
8
Step 25000
1 1 -1.114019100804e-04   2.043727944481e-04  -2.241357637738e-05 
2 1  4.930734455538e-05  -7.703498743260e-05   1.085989733401e-04 
3 1  3.923389973598e-05   1.217727009349e-04  -1.411892246291e-04 
4 1 -5.535833829905e-05  -2.709723321058e-05   2.131189626083e-04 
5 1 -1.452215637736e-04  -2.955066544143e-05   7.713998502761e-05 
6 1  4.476990634472e-04   3.729538105667e-05  -3.087588908719e-04 
7 1 -1.066154448336e-04  -1.654558816639e-05  -1.863558388420e-04 
8 1  2.203679648984e-04  -2.407471553775e-05   2.344292624083e-04 
8
Step 26000
1 1  8.194311431165e-05  -5.633709045791e-05  -6.481641914671e-05 
2 1 -1.865051433877e-04   2.421417706845e-04  -2.420351487032e-04 
3 1 -1.258797373436e-05  -1.560410692210e-05   1.208994008665e-04 
4 1 -7.924473469628e-05  -1.409654254706e-04  -2.258209927393e-04 
5 1 -1.114848236504e-05   1.910399199727e-04  -1.727864044843e-04 
6 1  7.886354920185e-05  -2.436835248905e-04   3.180271202750e-04 
7 1  7.817383510020e-05  -1.517180485417e-04  -8.464339575119e-05 
8 1 -1.035716831772e-04   1.052218329580e-04  -7.814764945866e-05 
8
Step 27000
1 1 -4.931037804890e-06   2.186060366647e-04  -4.271249043177e-05 
2 1  1.694925847094e-04   1.007773264408e-05   9.446580342884e-05 
3 1  1.075774424133e-04   2.362052232571e-04  -1.898715442646e-04 
4 1 -1.556995877641e-05   1.506779614107e-04   1.877159804177e-04 
5 1  1.732968623288e-04  -1.101056897755e-04   2.462198278378e-04 
6 1  9.527569179766e-05  -2.861782985418e-05  -2.705329204114e-04 
7 1 -1.302305532412e-04   5.633092469857e-05   1.949400323124e-05 
8 1 -4.612814923765e-05   2.044028644278e-05  -6.420970254040e-05 
8
Step 28000
1 1  1.224279353416e-05  -1.543001009205e-04  -1.882537324917e-04 
2 1 -6.417886346075e-05   8.099001503707e-05  -1.998825997627e-04 
3 1 -9.967982640252e-05  -1.841431818547e-04   2.404515298719e-04 
4 1 -2.189295672131e-05  -1.170297856211e-04   1.696036363615e-04 
5 1 -2.029114956257e-04   1.651369382643e-04  -2.489025008685e-04 
6 1  6.882684483047e-05  -6.457503626287e-05   2.141808606705e-04 
7 1 -1.792532727215e-04   4.944496608929e-05  -1.050572477180e-04 
8 1 -1.265518169658e-04   4.329611603344e-05  -9.346190756878e-05 
8
Step 29000
1 1  1.772712950562e-04   9.725941909453e-05  -1.547834667624e-04 
2 1  3.295275974352e-05  -2.887715971457e-05   1.191539655826e-04 
3 1 -6.793154751761e-05   2.244992134861e-04  -1.278701860323e-04 
4 1  1.485368511283e-04  -1.437500102995e-04   4.813257509038e-05 
5 1  1.461186652325e-04   9.130429036459e-05   7.816942691015e-05 
6 1 -2.172711191417e-04  -9.878949359920e-05  -6.550164625168e-05 
7 1  2.370510932334e-04   7.891874342991e-05   1.212426802700e-04 
8 1 -2.257952337019e-04  -1.826000456452e-04  -1.273458187725e-04 
8
Step 30000
1 1 -1.067745902654e-04  -1.164995892526e-04  -1.322350194035e-05 
2 1  3.652420365924e-05   6.439537895432e-05  -5.593040923857e-05 
3 1  3.083840543181e-05  -2.700027779560e-04   2.466064160786e-04 
4 1 -9.514245678381e-05   8.632667679335e-05   5.828032208339e-05 
5 1 -5.543768103102e-05  -8.402352253831e-06   6.584092667580e-05 
6 1  9.317026763275e-05   3.599236908065e-04  -1.560449285335e-04 
7 1 -1.716578412600e-04  -5.957072034814e-05   2.046613396554e-05 
8 1  1.317106827526e-04   7.904645623023e-05   6.545565959801e-05 
8
Step 31000
1 1  2.042815354180e-04   1.143297144458e-05   1.605434279023e-04 
2 1 -1.058871430324e-04  -1.211247436863e-06   7.751135219566e-06 
3 1 -3.262970750149e-05   2.465897035716e-04  -2.711610194471e-04 
4 1  3.372385486102e-04  -1.052821954125e-04  -8.850391580081e-05 
5 1 -1.390729877495e-04  -1.459593266055e-04  -2.305406824161e-04 
6 1 -1.712743574206e-04  -7.431976661875e-05   2.064814791979e-04 
7 1  2.000427524863e-04   2.562574140833e-05  -9.475962838760e-05 
8 1 -1.497621928577e-04  -1.460718971414e-04  -2.547137371739e-04 
8
Step 32000
1 1 -2.536936533756e-04   9.075728338311e-05  -4.407040752675e-04 
2 1  2.297404239111e-04  -4.349678850066e-05   2.168068641643e-04 
3 1 -4.669516640304e-07  -1.162293407861e-04   1.011587709409e-04 
4 1 -6.242362780353e-05   1.450005567519e-04  -1.462108259757e-04 
5 1  4.352680157379e-05  -3.476153695453e-06   1.372374656338e-04 
6 1  2.525457280433e-04  -7.241333445967e-06  -3.546287364648e-05 
7 1  8.586537083884e-06  -4.890785641535e-05  -2.089963650518e-05 
8 1 -6.874698625703e-05   3.539755765921e-04   1.215084103128e-04 
8
Step 33000
1 1  6.542993469014e-05  -7.031180346665e-05   4.975280680153e-05 
2 1 -2.602960139364e-04   1.731331344803e-04  -1.850378930450e-04 
3 1 -3.238287009817e-05   3.598084937639e-05  -1.699516403401e-04 
4 1  2.109179302792e-04  -2.144901019720e-04  -8.072173920897e-05 
5 1 -4.758594911449e-05   2.478149628453e-04   1.292181738646e-05 
6 1 -1.646586318668e-04  -1.641064850374e-04   2.114167876748e-04 
7 1  4.628830965252e-05   1.924266324504e-04  -1.053448951699e-04 
8 1 -8.851163945933e-06  -4.475747028669e-05  -1.370429211984e-04 
8
Step 34000
1 1 -2.021595822318e-04   1.578943456634e-04  -9.533903379558e-05 
2 1  1.935218814832e-04  -2.306866873837e-04   5.461269381187e-05 
3 1  3.281093787661e-05   1.063023120981e-04   1.230103495262e-04 
4 1  7.675001434968e-05   2.727675805104e-04   2.097718210000e-05 
5 1 -1.653756429613e-04  -7.918117553109e-05  -1.896821792482e-04 
6 1  2.811308427603e-05   2.783856738483e-04  -8.611207115997e-05 
7 1 -1.073041501837e-05  -1.195344074568e-04  -1.027397934178e-04 
8 1 -1.611580109366e-04  -1.269903908039e-04   2.706019664072e-04 
8
Step 35000
1 1  1.798206598789e-04  -3.089446309800e-04   2.856666703283e-04 
2 1 -1.538281210998e-04   1.822023724951e-04  -3.499532113391e-04 
3 1  1.158063535537e-04  -3.876998586238e-05  -5.739671348129e-05 
4 1 -4.331577803287e-05  -1.863992593430e-04  -7.105180458449e-05 
5 1  1.247698183318e-04   2.959935938481e-04   1.741833722707e-04 
6 1  2.085776708823e-05   8.148293902711e-05  -8.967682467357e-05 
7 1 -2.024712416512e-04   1.910585708482e-05   5.644331750366e-05 
8 1  8.187694224326e-05   6.218518402870e-05  -2.519219161142e-05 
8
Step 36000
1 1 -1.273905560347e-04   1.171035889535e-04   2.578761022978e-05 
2 1  2.057554635867e-05  -2.792859867101e-04   1.238061053610e-04 
3 1  1.740192989383e-05   1.612020941988e-04   8.326589555074e-05 
4 1  1.493950734419e-04   2.058132810476e-04   3.564323583615e-05 
5 1 -1.392221844419e-04  -2.614634983919e-06  -2.379117781097e-04 
6 1  1.299850240884e-04   1.528860891571e-04  -3.205098167358e-06 
7 1  3.264356538090e-04   5.753107654515e-06   1.634370065665e-05 
8 1 -1.284116302275e-04  -1.300213650906e-04  -2.385236048962e-05 
8
Step 37000
1 1  6.737906556459e-05  -1.252143227314e-04   1.079779486942e-04 
2 1  4.952053275620e-05   2.216478793839e-04  -9.703619652534e-05 
3 1  7.739339314969e-05  -1.789374640668e-04   1.770969688052e-04 
4 1 -1.087436012364e-04   1.910537563403e-05  -2.267672054319e-04 
5 1  3.038240554603e-04   2.801609653089e-04   2.190075463011e-04 
6 1 -7.096939959413e-06   3.093415663842e-05  -2.010647150745e-04 
7 1 -3.199377331921e-04  -2.037522322524e-04   1.143615840997e-04 
8 1  2.103565115652e-04   7.675801443570e-05   4.716687373550e-05 
8
Step 38000
1 1  4.692008581204e-05   1.383638463017e-04   4.819416020251e-05 
2 1 -8.695854808932e-05  -1.530330868607e-04   1.949473826823e-04 
3 1  2.975508113982e-05   2.224347856301e-04  -7.302824553188e-05 
4 1  2.222039231379e-04  -1.115316942328e-04   1.079988554221e-04 
5 1 -1.368949096839e-04  -1.057189881898e-04  -2.043308258240e-04 
6 1 -1.283275445975e-04   6.654211542094e-06   2.443367978664e-04 
7 1  2.347403825234e-04   1.170879080283e-04  -5.984535624078e-05 
8 1 -2.824690809677e-05   3.613390625134e-05  -1.382790206514e-04 
8
Step 39000
1 1 -1.419974122678e-04  -8.731556214455e-05   3.298291421229e-05 
2 1  3.653011117752e-05   2.405334298875e-05  -1.200952087917e-06 
3 1 -7.077663998574e-05  -2.625314730793e-04  -1.635679229471e-05 
4 1 -1.072009968524e-04   2.224427961565e-04  -3.005222711455e-04 
5 1  1.473003195622e-04   1.722810636629e-05   2.845798786573e-04 
6 1  1.837223662906e-04   1.089986282292e-04  -1.695282666060e-04 
7 1 -7.872648769274e-05  -2.092894757258e-04   6.450361739877e-05 
8 1 -1.006845573561e-04  -1.141485862105e-05   2.033077687929e-04 
8
Step 40000
1 1  1.524903816233e-04  -1.856455462880e-05   1.116269990691e-04 
2 1 -1.878168484544e-04   1.196199388221e-04  -1.360443957067e-04 
3 1  1.940524562937e-04   1.991717262013e-04  -1.443282588551e-04 
4 1 -1.130985461755e-04  -2.696958955455e-04   8.488598666621e-05 
5 1  1.987401298591e-05   1.671226361623e-04  -2.278606798059e-04 
6 1 -2.147381215852e-05  -6.655958971570e-05   8.848097628968e-05 
7 1  3.432295090682e-05   9.768514960739e-05   6.967011159955e-05 
8 1  1.055538132100e-04   2.144228598798e-05   4.110021284428e-06 
8
Step 41000
1 1 -1.518050412482e-04   1.814886610927e-05  -8.842178942772e-05 
2 1  1.920562935796e-04  -1.412380703192e-04   1.351343937528e-04 
3 1 -9.989444243531e-05   1.682402775618e-05   1.171295912079e-04 
4 1  1.472956592904e-04   2.320984138332e-04  -2.658669911578e-04 
5 1  6.124506062281e-05  -2.063277431384e-04   5.656931185534e-05 
6 1  7.534264982421e-06   2.049407032111e-04   1.419301625432e-04 
7 1  1.314153773177e-04  -1.828213730919e-04  -2.167815555144e-04 
8 1 -1.511157673085e-04  -5.038967525086e-05   1.783264121743e-04 
8
Step 42000
1 1 -8.928780240655e-06  -1.201474113592e-04   2.755053500548e-04 
2 1 -1.654856094928e-04   2.934281559479e-04  -2.073007791513e-04 
3 1  1.002541768563e-04  -5.821291473738e-05  -2.247840569865e-04 
4 1 -1.211491629992e-04  -2.632718524821e-04   1.705370676441e-04 
5 1  2.629231348252e-04   2.264542350168e-04   8.280703623209e-05 
6 1 -2.710576264025e-05  -2.436784449102e-04  -1.047531004056e-04 
7 1 -2.708368638345e-04  -7.643462166425e-05   2.407567726524e-04 
8 1  6.137658003873e-05  -3.698786129399e-05  -9.782607280099e-05 
8
Step 43000
1 1 -7.541758451011e-05   2.979522014960e-04  -1.040470513580e-04 
2 1  1.391651178292e-04  -1.788370823163e-04   2.949338927067e-04 
3 1 -1.591945201811e-04   1.407513131171e-04   2.224686372327e-04 
4 1  1.602275184114e-04   1.317673145026e-04   1.197114687311e-05 
5 1 -6.596424307741e-05  -1.877587356924e-04  -4.870715979077e-05 
6 1 -2.101037111602e-04   1.329752330236e-04   1.536916514902e-04 
7 1  1.853955241161e-04  -5.687927723644e-05  -1.328565478795e-04 
8 1 -2.640760841626e-04  -3.610720996721e-06   1.347533559956e-04 
8
Step 44000
1 1  2.691132005653e-05  -2.916217228258e-05   5.269268361405e-05 
2 1 -1.974881701510e-04   1.178288359709e-04  -1.597709258485e-04 
3 1  5.149741289088e-05  -1.632633479071e-04  -7.443631395104e-05 
4 1  4.918483363320e-05  -2.094667006765e-04   6.607409551712e-05 
5 1  9.265076171631e-05   2.165214758439e-04   1.132447638755e-04 
6 1  8.022492161033e-05  -3.574609060967e-05  -1.790605164134e-04 
7 1 -1.178485657154e-04   1.081250793419e-04   1.464726938946e-04 
8 1  1.925501457419e-04  -6.208831081101e-05   2.569372989078e-05 
8
Step 45000
1 1 -4.266321207771e-05   1.335531591638e-04  -2.130666817139e-04 
2 1  4.021096400002e-05   7.299324155436e-05   1.678920521901e-04 
3 1 -8.518714511196e-05   8.012760279523e-05   1.222192676979e-04 
4 1  1.235437622149e-04   1.769326127019e-04   1.427809249485e-04 
5 1 -1.305130072879e-04  -2.501362475550e-04  -1.893682885923e-04 
6 1  1.608575785828e-04   1.632587984773e-04   2.446629272649e-04 
7 1  3.864938113916e-05  -2.076008832802e-05   1.962695352087e-05 
8 1  1.671283852022e-06  -1.817630953483e-04  -1.811847106730e-04 
8
Step 46000
1 1  3.735344666511e-05  -2.224268013567e-04   2.509462248795e-04 
2 1 -1.776353079834e-04  -3.215869305785e-05  -3.475086610046e-05 
3 1 -1.588840169813e-04   1.184377399030e-04  -1.453098672789e-04 
4 1  1.126303461311e-04  -8.405545049305e-05  -7.823842256839e-05 
5 1  1.911384482096e-04   1.644305783850e-04   2.770267138632e-04 
6 1 -9.027670676497e-05  -4.531055117806e-05  -1.325030775491e-04 
7 1 -2.201957880158e-04  -5.044342086067e-05  -9.955909742812e-05 
8 1  2.514055747767e-04   1.037268873714e-04  -5.688994839412e-05 
8
Step 47000
1 1 -1.465773901061e-05   1.471799967741e-05  -4.288750557046e-05 
2 1 -1.148458545833e-04   1.223050966332e-04  -2.580470701896e-06 
3 1  1.324013630138e-04  -3.580136201734e-04   1.680502448375e-04 
4 1 -1.640197602063e-04   6.195026068002e-06   1.321936964471e-04 
5 1 -2.856373740444e-04  -3.137705219730e-05  -3.976112075111e-05 
6 1  1.310630482443e-04   6.627219278476e-06  -2.005311752462e-04 
7 1  1.130897994322e-04   3.654752918541e-05  -6.962901915687e-05 
8 1  8.584601861272e-05   3.764403667653e-05  -1.553996136593e-05 
8
Step 48000
1 1 -8.739977280416e-05  -9.358809713967e-05   2.982520598706e-04 
2 1  1.077668642993e-04  -2.103339736158e-04   3.584702043938e-05 
3 1 -3.190123226656e-04   9.293634977992e-05  -3.988361808208e-05 
4 1  7.942356870374e-05  -1.198044564517e-04   6.422267709170e-05 
5 1  4.852975973674e-05   4.636277989945e-06  -4.976563242035e-05 
6 1 -2.211933548742e-05   2.155017537016e-05   1.430878542708e-04 
7 1  2.556062617791e-05  -9.133140576723e-05  -2.442073813963e-04 
8 1 -2.277505011807e-04   4.691142220992e-05  -4.384491916612e-05 
8
Step 49000
1 1  1.794493390868e-05  -6.957843735450e-06   9.461133223806e-05 
2 1 -1.799996284653e-04   2.225767902924e-04  -1.275119425934e-04 
3 1  2.776932844257e-04  -7.140327229681e-05   1.549381086094e-04 
4 1 -1.066851403115e-04  -1.285760889448e-04   2.473335735851e-04 
5 1  2.264135338507e-05   2.129704344582e-04  -9.994034694003e-05 
6 1  8.144436269030e-06  -1.448059511774e-04  -1.495852497828e-04 
7 1 -1.010659856487e-04   1.485833006878e-04   2.294826417021e-04 
8 1  1.611448124556e-04  -2.258534116019e-04  -2.157568934862e-05 
8
Step 50000
1 1 -1.434893268222e-04   1.097968676485e-05  -1.798696073090e-04 
2 1  2.835686106591e-04  -1.152005278753e-04   9.903031086698e-05 
3 1 -1.574057006955e-04  -1.372699778883e-04   6.776478200690e-05 
4 1  2.446242392531e-04   1.849639626630e-04  -5.880908010126e-05 
5 1 -1.114247906199e-04  -3.396293946273e-04  -3.160149973718e-05 
6 1  3.445848475909e-05   1.834657609990e-04   2.267148928967e-04 
7 1  1.053511100633e-04  -4.085904154908e-05  -1.861015573971e-05 
8 1 -1.031975949294e-04   1.177215132965e-04  -1.256974583386e-04 
8
Step 51000
1 1  1.123305218624e-04   3.098198785570e-05   6.431582737784e-05 
2 1 -2.173438001401e-04   8.187956061146e-05  -2.558312826792e-04 
3 1  1.460238616025e-04   1.398868647945e-04   1.236289995388e-05 
4 1 -9.125746542346e-05  -2.293880493806e-04   1.358675756967e-04 
5 1  1.308492632345e-04   1.900811192112e-04   1.890759697391e-05 
6 1  5.521925407605e-05  -2.843670739136e-04   3.369912567521e-05 
7 1 -1.894376038297e-04   1.621463591469e-04  -8.536405934128e-05 
8 1  4.717220508812e-05  -1.651630603559e-05  -5.544661789371e-05 
8
Step 52000
1 1  5.662073593346e-05   1.451484731705e-04  -2.573452784767e-04 
2 1  1.836226881063e-04  -1.303206280043e-04   1.078264282615e-04 
3 1 -8.309924116712e-05  -2.632064489299e-04   1.163345173861e-04 
4 1 -1.749139168325e-05   2.196063209394e-04  -1.086883970823e-04 
5 1 -6.177278990966e-05  -1.431621721202e-04   4.773568144255e-05 
6 1  5.995346354814e-05   1.396342370858e-04  -5.916071563085e-05 
7 1  7.438553372439e-05  -1.600286295754e-04  -1.054530023043e-05 
8 1  5.907879223891e-05   4.322313284379e-05   8.718176905077e-05 
8
Step 53000
1 1  8.789057543001e-05  -5.382896139205e-05   2.297222077241e-04 
2 1 -1.801847911276e-04  -2.682399330326e-05  -3.176877551583e-05 
3 1  7.526916798527e-06   7.628901704214e-05   5.681497311803e-05 
4 1 -1.139707593781e-04  -4.897721614312e-05   1.597614192222e-04 
5 1  9.132558053194e-05   1.783089202340e-05  -1.995145517128e-04 
6 1  2.160003313075e-04  -2.106043561443e-04  -1.132802339317e-05 
7 1  1.226398700594e-04   1.234445167443e-04  -1.864299621314e-05 
8 1 -3.036211361326e-04  -1.526714412011e-04   6.438607438863e-05 
8
Step 54000
1 1  2.855528508725e-06   2.629828326778e-04  -3.722400475963e-05 
2 1  1.655613609547e-04  -2.703190135120e-04   1.758900881361e-04 
3 1  8.487191515430e-05  -1.102425140061e-04   2.651530473824e-04 
4 1  1.006067123963e-04   1.552524346227e-04  -2.611052434421e-04 
5 1  5.935553733612e-05   1.035557781718e-04   1.272275979690e-04 