8
Step 0
1 1  0.000000000000e+00   0.000000000000e+00   0.000000000000e+00 
2 1  0.000000000000e+00   0.000000000000e+00   0.000000000000e+00 
3 1  0.000000000000e+00   0.000000000000e+00   0.000000000000e+00 
4 1  0.000000000000e+00   0.000000000000e+00   0.000000000000e+00 
5 1  0.000000000000e+00   0.000000000000e+00   0.000000000000e+00 
6 1  0.000000000000e+00   0.000000000000e+00   0.000000000000e+00 
7 1  0.000000000000e+00   0.000000000000e+00   0.000000000000e+00 
8 1  0.000000000000e+00   0.000000000000e+00   0.000000000000e+00 
8
Step 1000
1 1 -3.963750222570e-05   4.368821475955e-06  -3.963042820828e-04 
2 1 -6.440173595011e-05   4.925141792846e-05   3.015297065350e-05 
3 1 -2.493581701554e-04   1.700909585137e-04   5.695962414282e-05 
4 1  7.569193211464e-05   9.053879989675e-05   2.378516951592e-04 
5 1  4.818400918492e-05   8.672513294754e-05  -2.608697664458e-04 
6 1 -8.621605411998e-05   8.054023743911e-05  -5.459051846363e-05 
7 1  8.203809334233e-06   1.863898374627e-05  -3.865974242172e-04 
8 1  1.777302020509e-04  -4.135983172610e-04  -6.519007488909e-05 
8
Step 2000
1 1 -1.135663929986e-04   1.478062224174e-04  -3.086907130498e-04 
2 1 -1.510399490132e-04  -6.737431046684e-05   9.019673318673e-05 
3 1  1.097581459924e-04  -6.680505189163e-06   1.772994541854e-05 
4 1  1.853548077226e-04   1.240141119403e-04   1.688946828749e-04 
5 1  2.440765820886e-04   9.032910181337e-05  -1.306971303901e-04 
6 1 -3.162852209092e-04   3.415999506064e-05  -1.888560896507e-04 
7 1  8.443583180830e-05  -6.113410360930e-05  -8.157962060607e-05 
8 1 -3.978104422795e-05  -4.057049264096e-05   1.215456127417e-04 
8
Step 3000
1 1 -1.383550653470e-04  -1.553325887989e-04  -1.912492062264e-04 
2 1 -3.865986773254e-05  -1.706688743131e-04   2.862688241940e-05 
3 1 -1.219375493148e-04   1.915919819438e-04  -6.586530891151e-05 
4 1  1.725848973816e-04  -6.689861954855e-05   8.320877382234e-05 
5 1  1.322681929025e-05  -4.942929473202e-05  -2.858528934839e-04 
6 1 -1.912667787622e-05  -1.846381657299e-05  -1.262340485641e-04 
7 1  1.692934557688e-04  -2.242385145175e-04   5.026995886276e-06 
8 1  2.375578611874e-04  -1.708589914089e-04   1.456021038191e-04 
8
Step 4000
1 1 -4.778772952175e-05  -5.279122079636e-05  -5.881489104533e-05 
2 1 -9.813094219473e-05  -8.763090462777e-05  -3.299187690771e-05 
3 1 -6.467905535081e-05   2.361802892052e-04   1.357812662151e-04 
4 1  2.034058040217e-04  -2.664152378975e-05   1.506373592961e-04 
5 1  9.456219385303e-05  -1.728053393538e-04  -2.109387462152e-04 
6 1  1.000963334318e-04  -1.902657432542e-04   1.238423394314e-04 
7 1 -7.049861955003e-05  -8.742180804284e-05   1.301170351560e-04 
8 1  1.584263549852e-04  -3.746996761481e-06   3.430594309435e-05 
8
Step 5000
1 1  7.737701989282e-05   2.087090525279e-04  -9.061289115101e-05 
2 1 -1.794073494145e-07  -7.773205590558e-06  -1.656726345303e-04 
3 1  8.558062650031e-05  -5.268747076099e-05  -1.122742336537e-04 
4 1  8.595790927552e-05   1.023707377428e-04   9.150885133701e-05 
5 1 -2.058958567683e-04  -1.807384560327e-04  -2.726429382661e-04 
6 1  2.139193839736e-04   9.256539997913e-05   2.148167846471e-04 
7 1  1.475086634586e-04  -1.913477229170e-04   1.176678891076e-04 
8 1  2.878392721894e-04  -8.829600270218e-05   2.725099106102e-06 
8
Step 6000
1 1  1.173191150175e-04  -3.189196115995e-06  -5.833696446656e-05 
2 1 -5.600541494031e-05  -1.933615932955e-05   8.086679309120e-05 
3 1 -7.202278359933e-05  -2.614283004481e-04  -7.237145127634e-05 
4 1  1.784702797424e-05   1.806866415072e-04   2.182741923770e-04 
5 1 -1.515460909192e-04  -2.058498788967e-04  -6.535898649261e-06 
6 1  1.155829318847e-04   1.177736072917e-04   2.815647616541e-05 
7 1  8.055200918705e-05  -2.307396755236e-04   8.268719816816e-05 
8 1 -3.311732934922e-05   9.703221556853e-05  -1.077977372354e-04 
8
Step 7000
1 1  1.043131371608e-04   1.277872284116e-04  -1.540456432535e-04 
2 1  1.598556829154e-04   2.121225909827e-06   5.099763470257e-05 
3 1 -2.199385436927e-04  -1.499539804093e-04  -1.079078371790e-04 
4 1  1.223895025601e-04   2.860412181381e-04  -3.727950628970e-06 
5 1 -1.573848223024e-04   1.199350093499e-04   1.059939186976e-04 
6 1  1.184348254095e-04  -2.863474606678e-04  -7.430301129010e-05 
7 1  3.161877221716e-05  -9.934620317806e-05   1.442318793921e-04 
8 1  2.464070049187e-06   1.463092460454e-04  -2.550357539630e-06 
8
Step 8000
1 1  2.330938110495e-05  -2.576523534208e-05  -3.561087732262e-04 
2 1  2.355708678899e-04  -2.676578207742e-04   1.838634748518e-04 
3 1 -6.408524290540e-05  -2.901966732367e-04   3.905410486754e-04 
4 1 -4.052787333114e-04  -1.260648607402e-04  -1.557741013277e-04 
5 1 -1.694440204776e-04   1.419794169142e-04  -1.137533096477e-04 
6 1 -4.682421188983e-05  -1.164992741302e-04  -2.395298149969e-04 
7 1  3.218340536168e-05  -1.476005297918e-05  -1.676577383411e-04 
8 1 -9.110738772748e-05  -1.885832966965e-04   3.354279911055e-05 
8
Step 9000
1 1 -2.251535244014e-04   4.247063700148e-05  -2.256863052006e-04 
2 1  2.157997600786e-04  -1.579998748263e-04   6.987321081217e-05 
3 1  1.880064637352e-04  -1.113824352428e-04   6.477691921104e-05 
4 1 -1.524809624756e-04   7.540341787324e-05  -9.875402067667e-05 
5 1  1.460180232905e-05   1.450505045506e-04  -7.866081342451e-05 
6 1 -1.689338003125e-04   1.895158592748e-04   8.450956061717e-06 
7 1  2.625576293973e-04   5.362170490139e-05   9.126721305279e-05 
8 1 -1.382602985473e-04  -3.503085781074e-05   1.655305728786e-04 
8
Step 10000
1 1 -1.422954906496e-05   7.916639573732e-05  -3.365628594505e-04 
2 1  1.656374252810e-05  -8.573060712886e-05   2.078079568511e-04 
3 1  1.426364220873e-04  -2.081620811337e-04   1.277148917562e-04 
4 1  4.060720332411e-05  -3.316358198447e-05  -1.249553624473e-04 
5 1 -1.597613133399e-04   2.552214292860e-04  -2.004781750077e-04 
6 1 -9.543242044767e-05   1.198146691848e-04   3.936510755545e-05 
7 1  1.318312836217e-04  -2.033246136843e-04  -1.111549915477e-04 
8 1  6.882372152388e-06  -2.028594912601e-04   1.407464144646e-04 
8
Step 11000
1 1  3.354911900057e-05  -2.056279770726e-04  -2.742885359099e-04 
2 1 -1.254915207733e-04   1.712587002901e-04   1.628692329929e-04 
3 1  3.764676512467e-06  -8.934849080233e-05   4.617557704248e-06 
4 1 -1.071756454029e-04  -8.501673272679e-05  -2.779420403698e-04 
5 1  1.344361746063e-04   9.111169168393e-05  -3.094777861976e-05 
6 1  2.574565150514e-04   1.916871093388e-04  -7.712398872953e-05 
7 1 -2.884736037634e-05  -1.561530850646e-04  -1.108874561342e-04 
8 1  1.764597974602e-04  -6.247360257566e-05   1.435020511188e-04 
8
Step 12000
1 1  2.670469857075e-04  -1.174044199920e-04  -3.356897363950e-04 
2 1  1.496769985706e-05   3.193798422078e-04   2.576361183356e-04 
3 1  5.210724274293e-05   9.871101503270e-05  -7.429866067133e-05 
4 1 -1.865818727090e-04  -7.390342586687e-05  -2.033947016072e-04 
5 1  2.033856631000e-04   2.201076187692e-04  -2.254752901434e-04 
6 1 -2.275945935407e-05   3.851844872870e-05  -3.400756368672e-04 
7 1 -6.433968141822e-05  -1.952626439984e-05   1.189895128852e-05 
8 1 -5.334680051712e-06  -7.852014990629e-05   5.449091238120e-05 
8
Step 13000
1 1 -3.308932156227e-05  -1.449469504992e-04  -1.070971036079e-04 
2 1 -1.932922756274e-04   2.075992439906e-04   1.349585358554e-04 
3 1  2.526699590263e-04   3.427887487013e-04  -9.969171519170e-05 
4 1  2.737565538236e-05  -4.365433228142e-05  -1.654826323101e-04 
5 1  1.327034645766e-04  -5.019150663675e-05  -9.050995460079e-05 
6 1 -4.556172268729e-06   2.888059744978e-05  -5.260714486817e-05 
7 1  2.017049735034e-04   1.272429424660e-04   8.377243573841e-05 
8 1 -3.469910946358e-05   5.811149326260e-05   9.215885698911e-05 
8
Step 14000
1 1  3.653467357463e-05  -8.223775910698e-05  -2.771628203457e-04 
2 1  1.599527655244e-04   4.172743859775e-05   4.807467880092e-06 
3 1  2.960395639145e-05   7.929985293089e-05  -1.618705418985e-04 
4 1  6.682198788857e-05  -2.217486516502e-04  -7.536064057295e-05 
5 1 -2.643433106635e-05  -2.340186797693e-04  -1.592301348803e-04 
6 1 -8.761961331356e-05   1.191327750203e-04  -2.164232027937e-04 
7 1  2.659798533310e-05   1.272014173024e-04   4.625812974395e-05 
8 1  9.145276712795e-05   4.337258823101e-06  -6.621605599256e-05 
8
Step 15000
1 1  1.652055659315e-04  -2.993787542265e-05  -4.536166150564e-05 
2 1 -9.227185179203e-05  -5.681361348103e-05  -9.090321281929e-05 
3 1  2.190206918690e-04  -1.218913969202e-04  -1.690763398960e-04 
4 1  9.605930960756e-05  -2.690633170514e-04   6.414612205062e-05 
5 1  8.717583308505e-05  -1.187172616539e-04  -5.023805101566e-05 
6 1  1.908527291917e-04   1.522458681655e-04   5.419683138521e-05 
7 1  2.313003605241e-04  -5.992877498581e-05   1.375958785405e-04 
8 1  4.955247216655e-05  -3.617177741817e-04  -8.033369889710e-05 
8
Step 16000
1 1  7.868820777559e-05   3.506925952419e-05  -2.183339370451e-04 
2 1  4.175153777588e-05   1.885268906822e-05  -2.267837419704e-04 
3 1  1.509926947390e-04  -4.169362708051e-05  -4.788478577095e-04 
4 1  8.206232437092e-05  -2.053904160646e-04  -2.774133853909e-05 
5 1  1.868003324869e-04  -1.573484394670e-04  -1.425145493509e-04 
6 1  1.218059155405e-04   6.393308435674e-05   4.116222441143e-05 
7 1  5.425390707790e-05   1.452061783215e-04   2.777527476229e-05 
8 1 -2.475809706745e-05   8.445411308974e-05  -1.594014115092e-04 
8
Step 17000
1 1  2.479943578940e-04   1.092281161564e-05   2.158833483541e-04 
2 1  5.755053865292e-05  -9.218954269783e-05  -1.670898903046e-04 
3 1  1.817863438634e-04   2.556662325587e-04   3.532347595095e-05 
4 1 -1.550106434045e-04  -2.616467428385e-04  -9.002733844170e-05 
5 1  4.620816047314e-05   3.716042169292e-05   9.376726752972e-05 
6 1  1.291548812078e-04   1.549486436877e-04  -4.169843978913e-05 
7 1 -1.044128427202e-04   2.721362438934e-05   3.903560731947e-06 
8 1 -8.190535643252e-05  -1.335542198007e-05  -1.698480639660e-04 
8
Step 18000
1 1  1.563693397407e-04  -1.973989357408e-05   5.515665838039e-05 
2 1  5.535210267882e-06  -2.840714532711e-05  -2.209538020733e-04 
3 1  5.306033572883e-05   9.015770771243e-05  -6.872487089519e-05 
4 1  1.214284017067e-04  -6.783307794795e-05  -1.296243279770e-04 
5 1  7.480153971336e-05  -7.804025605123e-07   8.883075450477e-05 
6 1  4.940135106101e-05   1.067310068267e-04  -2.497527832850e-04 
7 1  1.597241289118e-04   3.343499876479e-05  -9.343850217945e-05 
8 1  9.472014998556e-05  -8.020173166787e-05   2.346123496350e-05 
8
Step 19000
1 1  9.329622051072e-06  -7.442185847433e-05   1.358999840208e-04 
2 1  2.458111576993e-05  -5.873514064985e-05  -1.060770025266e-04 
3 1 -2.503082862724e-04   1.841822297401e-04  -2.892123956209e-05 
4 1  4.614272778888e-05  -9.633165689334e-05  -5.259495415517e-06 
5 1  1.386715572257e-04  -1.522990859939e-04   1.440129126371e-04 
6 1 -4.321211979661e-05   6.991209459838e-06  -1.667977538964e-04 
7 1  8.587965459824e-05  -7.769558550100e-05   5.343548015710e-05 
8 1 -1.678643520327e-04  -2.222661659372e-04   1.621620947299e-04 
8
Step 20000
1 1 -5.263127343046e-05   8.962150775718e-05  -1.495073622907e-04 
2 1 -8.541927750290e-05   1.379327526217e-05  -2.152287980314e-04 
3 1 -1.070057362368e-04   2.248701184596e-05  -4.213340413001e-05 
4 1 -3.046047908037e-05   8.656521688078e-05  -2.524435851420e-04 
5 1  4.538159926265e-05   1.960418382056e-05  -5.399808246872e-05 
6 1 -1.448505933446e-04   6.699791875132e-05  -1.177070136372e-04 
7 1  7.513529647534e-05   4.382704242816e-05  -8.719644712507e-05 
8 1  8.705372307087e-05  -7.502872481248e-05  -1.399182334356e-04 
8
Step 21000
1 1 -4.053798114454e-05   7.451441840326e-05  -1.022392620051e-04 
2 1  1.352212145688e-04   1.419703515979e-04  -1.706442743419e-04 
3 1 -1.442814263643e-04  -7.066304841613e-05   4.566746519615e-05 
4 1  6.948796252843e-05   2.355378178658e-05  -3.049650851185e-04 
5 1 -6.355029214456e-05  -9.563753339942e-05   6.664419656741e-05 
6 1  1.392617634892e-05   9.287911090090e-05   1.160014869055e-04 
7 1  2.377606856314e-04   1.802649109473e-04   1.122028379134e-04 
8 1 -6.537700347662e-05  -6.004864715896e-05  -2.085782364070e-04 
8
Step 22000
1 1 -9.735808273904e-05  -1.649825382849e-04   3.723861154863e-05 
2 1  2.018302069689e-04   2.932615536827e-04  -2.288978476578e-04 
3 1 -2.824720244931e-04  -5.462361974426e-05  -3.895346610356e-05 
4 1  1.380170160712e-05  -1.588867405802e-04  -1.842735610270e-04 
5 1 -4.448477489946e-05  -7.766839511075e-05   4.566516150216e-05 
6 1  2.766463335379e-05  -6.148824818370e-05   2.726160104417e-04 
7 1  3.162632974235e-05  -1.251109044857e-06  -4.581875863375e-05 
8 1 -2.649762058892e-04  -4.512236370768e-05  -4.907977035363e-05 
8
Step 23000
1 1 -1.858806597001e-04  -9.948180048835e-05   1.461666226195e-04 
2 1  2.232771252893e-04   2.803009910716e-04  -1.613788226555e-05 
3 1 -4.098602829072e-05   9.854921054287e-05   2.259896646775e-05 
4 1  2.688896953537e-05   4.127283823045e-05   1.497150895638e-04 
5 1  7.401847370818e-05  -1.057586526217e-04   1.564473966802e-05 
6 1  5.464194654355e-05   2.353908801684e-04   1.599167054552e-04 
7 1 -3.472094870895e-05   7.235463848436e-05   1.017158825721e-04 
8 1 -5.048822585512e-06  -1.095583087287e-04   2.513609773869e-05 
8
Step 24000
1 1  2.537206119239e-04  -3.791515076055e-05   1.512542284393e-04 
2 1  2.515823371674e-05  -1.085499637010e-04   1.836944836991e-04 
3 1 -2.303470646218e-04   2.123315812548e-05   3.036703123585e-05 
4 1 -5.427668119058e-05  -2.686126608983e-04   3.313182639091e-04 
5 1 -4.049019622686e-05  -7.679303312542e-05   7.815813436314e-05 
6 1 -3.194969319694e-04   9.292787927865e-05   1.816447422221e-04 
7 1 -1.259547379027e-05   9.986340932940e-05   1.093030201667e-04 
8 1 -2.774446164262e-05  -8.757046020123e-05   1.014483175667e-04 
8
Step 25000
1 1  6.512678008726e-05   5.806309806745e-05  -2.966634918046e-05 
2 1 -8.520884999970e-05  -2.521473023945e-04   8.795425839843e-05 
3 1  6.969536304521e-05   7.864893919524e-05   1.317420548566e-05 
4 1 -8.104214570350e-05  -3.167400557341e-05   1.830645275460e-04 
5 1  2.461601429787e-04   5.199681998317e-05   2.224323211021e-04 
6 1 -2.354529777905e-04  -6.801824889980e-05   2.411064111509e-05 
7 1  4.180978829095e-05   8.323359907426e-05   6.196226971616e-06 
8 1  5.632385195077e-05  -2.344099644007e-05   9.544554517986e-05 
8
Step 26000
1 1  8.513731427445e-05   1.470961101821e-04  -1.210347019880e-04 
2 1  1.720638336220e-04  -2.191064994210e-04   2.005179170559e-04 
3 1  1.598081172091e-06   1.250404107617e-04   2.605117309503e-04 
4 1 -1.314902766584e-05   1.177994264485e-04   1.317974758654e-04 
5 1  1.964645267652e-05   5.190658146672e-05   8.593838097762e-05 
6 1 -2.218032798887e-04  -3.103209535641e-05   1.393392326992e-04 
7 1 -5.153445942714e-06   2.141749650054e-04  -9.441320385863e-06 
8 1  2.487509695741e-04  -1.986847694930e-04  -3.016625608712e-05 
8
Step 27000
1 1  4.170388683132e-05  -7.011841118352e-05  -8.521994080329e-05 
2 1  2.098788222028e-04   5.286473704321e-05   1.748199333765e-04 
3 1  6.384480764999e-06   1.859182024245e-04   1.567493352181e-04 
4 1  2.619339676768e-04   1.091237601875e-05   2.197859327282e-04 
5 1  1.006185243766e-04   1.347509330270e-05  -3.562503908380e-05 
6 1  3.845467510373e-05   3.601019332893e-05  -9.707862187894e-05 
7 1  2.079649405328e-05  -4.830717738519e-05   1.432002934192e-04 
8 1  2.767750739608e-05  -2.263491242839e-05  -3.453073091390e-04 
8
Step 28000
1 1  7.999580412340e-05   1.613218787131e-04  -3.598294193565e-05 
2 1  4.917644973256e-05   5.324477812692e-05  -5.574045327704e-06 
3 1  1.960623141405e-04   4.767728563669e-04   7.953692030720e-05 
4 1  1.140797420404e-04  -2.632060616700e-05   8.665286045932e-06 
5 1  4.833197295526e-05   2.289283135997e-04   9.306343196837e-05 
6 1 -2.806367606941e-04  -2.851318991932e-05  -3.341979183252e-04 
7 1 -3.258914041864e-04  -4.384360487109e-05  -3.572829188792e-05 
8 1 -1.011185209675e-04   1.674601166144e-04  -2.880870002654e-04 
8
Step 29000
1 1 -6.118036190978e-05   1.383074280461e-04  -4.656830071121e-05 
2 1 -2.858325369104e-05  -7.772303211499e-05   2.042896489817e-04 
3 1 -1.622880371568e-04   1.714203526579e-04   2.088030787828e-04 
4 1  7.424932554159e-05  -5.763237970482e-05   1.794751918383e-04 
5 1  3.208780069941e-04   1.834000656139e-04  -2.082987823387e-04 
6 1 -1.289629127787e-04   1.547201722852e-04  -5.748510506024e-06 
7 1 -1.444086969356e-04  -2.087524409071e-05  -1.432219270779e-04 
8 1  2.543508575009e-04  -8.313900813501e-05  -3.312749966727e-05 
8
Step 30000
1 1 -2.742183672038e-04   2.797186737168e-04  -2.092941794199e-04 
2 1  1.094999761348e-05  -2.898851708106e-05  -4.922351231935e-06 
3 1 -1.846589012392e-06  -5.093834773141e-05  -1.578460457276e-04 
4 1  2.126320528169e-04   2.151073565146e-04   6.557726475840e-05 
5 1  9.448169663740e-06   1.006373640127e-04  -1.943627797681e-04 
6 1 -8.168961811231e-05   8.394966102199e-05   1.375259579153e-04 
7 1 -1.757774116585e-04  -1.683816983198e-04  -8.533820712901e-05 
8 1  1.571878189497e-04  -4.239809657005e-05  -1.157852008390e-04 
8
Step 31000
1 1 -5.197013322910e-05  -4.952107524843e-06  -1.115344299562e-04 
2 1 -1.212318942399e-04   6.910294475137e-07   1.112678320096e-04 
3 1 -6.483912198868e-05  -6.921911359876e-05  -6.540884219368e-05 
4 1 -6.381065847235e-05   8.201829507362e-05  -1.858781776183e-04 
5 1  2.888721308392e-05   3.372686815484e-04  -5.767886522926e-05 
6 1  1.495515958075e-04  -2.745843710884e-05  -3.172141783229e-05 
7 1  1.280605539122e-04  -9.550381818033e-05  -9.548725735388e-05 
8 1 -7.396690152170e-05   1.143158704267e-04   2.024683729110e-04 
8
Step 32000
1 1 -1.220248821383e-04  -1.417729314467e-04  -8.532420378474e-05 
2 1 -1.504231716762e-04  -3.330833284160e-04  -7.974414884338e-05 
3 1 -6.247998804131e-05  -2.086835655722e-04  -3.720390735172e-05 
4 1 -1.229689238737e-04  -6.910232506355e-05  -8.873918391054e-05 
5 1 -1.202124153940e-04   1.137532071414e-04  -5.111476679855e-05 
6 1  5.816478307129e-05  -1.362174329721e-04   1.138424571306e-06 
7 1 -4.921804477390e-05  -9.876868122421e-05  -1.671384201968e-04 
8 1  5.896509855673e-05  -2.421159978760e-05   1.082145755554e-04 
8
Step 33000
1 1 -2.068970629873e-04  -7.512948135032e-06  -5.518521274985e-05 
2 1 -9.661576620570e-05  -1.143373708273e-04  -4.347002280649e-05 
3 1 -1.867778626923e-04   9.202199163041e-05   7.827586553418e-05 
4 1  7.487231299551e-05   3.047915058908e-04  -2.851982786427e-04 
5 1  1.607733410190e-04   3.038090428250e-05   1.380890420470e-04 
6 1  8.639908612237e-05  -7.272453779120e-05   8.307360884458e-05 
7 1 -1.636176388722e-05   9.572243016693e-05   1.081945273082e-04 
8 1  3.525782650524e-04  -1.025631468194e-04   1.058262872447e-04 
8
Step 34000
1 1 -4.431639043044e-05  -3.612747677642e-04   1.505902093342e-04 
2 1 -1.402568695137e-04  -1.496694054025e-04  -2.055255340717e-04 
3 1 -1.303753329981e-04   2.406979742445e-05  -1.107116394938e-04 
4 1 -3.051177146691e-05   1.303462421378e-04  -1.850402405544e-04 
5 1  1.954681194719e-04  -4.757895211121e-05   8.645282866293e-05 
6 1  2.398236275443e-04  -7.870013318457e-05   3.605408771340e-05 
7 1 -8.883225051245e-05  -4.297367439411e-04   5.223110136102e-05 
8 1  2.723329823253e-04  -1.551566668376e-04   7.714158563291e-05 
8
Step 35000
1 1 -1.462068896060e-04  -1.181737575188e-04   1.881098783187e-04 
2 1 -1.483749250006e-05   6.941084849737e-05  -2.619110870090e-04 
3 1  2.329899950255e-04   1.808434386931e-04   9.894895481810e-05 
4 1  1.052625480578e-04  -4.712464944880e-05  -1.932048731264e-04 
5 1  3.296978294161e-04   1.894683470478e-04   3.487578792894e-05 
6 1  2.339775277246e-04   9.386611993522e-05   2.219905209491e-04 
7 1  3.396688364184e-06  -1.864551256455e-04  -3.268576536386e-04 
8 1  1.470367349804e-04   5.753468293699e-05  -6.663035218589e-05 
8
Step 36000
1 1 -6.226356591355e-05  -1.862863437070e-04  -5.397101427558e-05 
2 1  4.108622986011e-05   5.134895261361e-05  -8.115021936317e-05 
3 1  1.408387214039e-04   1.809926521612e-04  -9.482534254159e-05 
4 1  5.013465502360e-05  -1.172564935539e-04  -2.829700940852e-04 
5 1  2.055488367405e-04  -5.401127357729e-05   7.003759443591e-05 
6 1  1.115193028836e-04  -1.192586413677e-04   1.736770738930e-05 
7 1  2.232437907629e-05  -2.072598493995e-04  -1.241028887519e-04 
8 1 -9.001893238474e-05  -2.323750587059e-04   3.638091016593e-05 
8
Step 37000
1 1  1.950725983760e-06  -1.554112866542e-04   3.315727498808e-05 
2 1 -8.824046425931e-05  -1.052938614008e-05  -1.121450424120e-04 
3 1  3.427673029627e-04   4.361787858172e-05   7.871614781573e-05 
4 1  2.887064559636e-04  -9.751151939205e-05  -1.684320022096e-04 
5 1  1.051053032485e-05  -1.891761551631e-04  -2.280926144140e-05 
6 1  1.451927413999e-04   5.386638409885e-05  -3.387488839947e-04 
7 1  3.294249197438e-04  -2.051367017662e-04  -1.279277078391e-04 
8 1  7.689082924515e-05   1.154143918011e-05  -1.152901810840e-04 
8
Step 38000
1 1  8.928834580314e-05   2.159252492416e-04  -4.858339258281e-05 
2 1 -2.234110249280e-04  -2.989359480610e-04  -3.276328459270e-06 
3 1  4.968666233717e-05   1.159606354980e-04  -1.036505736692e-04 
4 1  9.050181824974e-05  -1.795448092973e-04  -1.931038039177e-04 
5 1  3.167312809604e-04  -1.523321622968e-04   9.368727636010e-05 
6 1  1.055056413286e-04   9.707539955849e-05  -6.975938968756e-05 
7 1  1.971229869427e-05  -1.309651015426e-04  -2.386448500539e-04 
8 1 -1.924727587167e-04   1.559819263211e-04   2.739443606625e-05 
8
Step 39000
1 1  1.604376770995e-04   8.328224393751e-06  -2.993229837993e-04 
2 1  2.215886307198e-04  -2.197245916849e-04  -1.014235459058e-05 
3 1 -3.787923249381e-06   1.228693539992e-04  -7.423282364424e-05 
4 1  1.759116888217e-04  -2.781837950570e-04  -3.333574690564e-04 
5 1  1.874042796826e-04   6.466709973354e-05  -5.981781820495e-05 
6 1 -3.455536313374e-05   1.585975007335e-04  -2.124024329043e-04 
7 1  2.087050377449e-04   1.134498738777e-04  -1.679601618352e-04 
8 1 -7.704560990390e-05   6.438556307295e-05   1.532805359370e-04 
8
Step 40000
1 1  2.302802569051e-04  -8.539445781976e-05   4.865904204159e-05 
2 1  1.394245252119e-04  -2.738345914901e-05   1.169964438966e-04 
3 1  1.808116204076e-04   1.295276877286e-04  -1.354859945825e-04 
4 1 -3.733715671675e-06  -1.909008177275e-04   3.257742351073e-05 
5 1  1.428782148575e-04   1.898582868326e-04   5.460417253215e-05 
6 1 -1.071992636723e-04  -6.967324064982e-06  -2.656600357447e-04 
7 1  3.370973122907e-06   3.308329786625e-05  -2.076325523396e-04 
8 1 -7.914450425543e-05  -1.870899169298e-04   6.794018530297e-05 
8
Step 41000
1 1  5.721814340856e-05   9.435111218299e-05   5.250302768590e-05 
2 1  5.885725134845e-05   1.391984430951e-05  -2.756712563538e-04 
3 1  3.139474057644e-04   1.452558441383e-04   5.593440660808e-05 
4 1 -2.588781403830e-04   2.866820869082e-04  -1.979340772524e-04 
5 1  7.519472552035e-05   2.824319301798e-05  -2.275564075646e-05 
6 1 -5.941793376809e-05  -2.918370726472e-04  -7.839915174967e-05 
7 1 -1.035582634176e-04  -8.991492185291e-05  -2.007834127016e-04 
8 1  9.284948228800e-05  -1.189301460636e-04   6.116719681107e-05 
8
Step 42000
1 1  1.339620926476e-04  -9.471864647585e-05   7.994795379909e-05 
2 1  1.822873865917e-05   4.366785838197e-05  -5.225379579639e-05 
3 1  1.729247455152e-04   7.373818819533e-05   3.142557310598e-04 
4 1 -8.669626471209e-05   3.815656065630e-05  -1.437968722645e-04 
5 1  1.884419421812e-04   1.213185567124e-04  -1.054162576150e-04 
6 1 -2.997169233800e-04  -2.028724647055e-04  -1.063916775750e-04 
7 1 -1.273453680356e-04  -2.028619768203e-04  -1.021275498947e-04 
8 1 -3.669061473954e-06   1.801786948892e-04   6.625870245782e-05 
8
Step 43000
1 1 -9.580302538984e-05   1.936947168872e-05   1.057150831422e-04 
2 1  1.070591137990e-04   2.057444954616e-04   1.043595380190e-04 
3 1 -1.653858272995e-04  -9.214092827924e-05  -7.754643729004e-05 
4 1 -1.044150699566e-04  -2.134470979307e-05   2.305775963577e-04 
5 1  1.252804715243e-04   9.166047949969e-05   8.271427554797e-05 
6 1 -1.318041669171e-04  -3.761592099986e-04  -8.432492607745e-05 
7 1 -1.640865705336e-05  -3.908665690170e-04  -1.078339584784e-04 
8 1 -2.081561203905e-04   1.822909871398e-04   3.476641656690e-04 
8
Step 44000
1 1 -6.894675169293e-05  -5.287147898988e-05   1.223069397020e-04 
2 1  8.911723420564e-05  -3.585135238516e-07  -6.415939609726e-05 
3 1 -9.011198586760e-05  -1.232895587980e-04   5.875719377715e-05 
4 1 -3.388268113694e-04   2.606339439952e-04   3.161656851676e-05 
5 1 -3.740695679300e-06  -9.139294405600e-05  -1.225973243789e-04 
6 1  1.351873376777e-04  -6.608874620918e-05   6.664789351353e-05 
7 1  2.304805967505e-04  -6.230315440012e-05  -2.261561372475e-04 
8 1 -9.614905163271e-05  -1.131925182844e-04   2.291318276876e-04 
8
Step 45000
1 1 -1.567524015364e-04   4.393786454398e-05   2.524722856301e-04 
2 1 -1.198472069431e-04  -2.280860126687e-06   9.565597908293e-06 
3 1 -6.179040926219e-05  -1.428929366680e-04   5.493825416064e-05 
4 1 -1.036344578903e-04   5.788522084348e-05  -3.054780101656e-05 
5 1  1.096897820123e-04  -9.289211420898e-06   2.603223350499e-05 
6 1  1.708856501765e-04  -2.762603081885e-04  -1.560534957305e-04 
7 1 -6.436526959363e-05   5.134106715065e-05   1.027491510559e-04 
8 1 -5.490791074644e-05   1.408575734878e-05   9.924734341912e-05 
8
Step 46000
1 1 -9.927595770977e-06   1.475980891705e-04   1.127937513864e-04 
2 1  9.794225104837e-05  -1.864757351054e-04   1.019845693446e-04 
3 1  3.794795008770e-05  -1.058524666856e-04  -1.175744125141e-04 
4 1 -1.366835627063e-04  -8.535500830863e-05  -8.310243846823e-05 
5 1 -8.158947039832e-05  -1.181196981817e-04  -1.843102287169e-04 
6 1  4.978468386461e-06  -3.240460554607e-04  -6.194953651430e-05 
7 1 -1.867068670873e-04   8.988098978087e-06  -3.847139419475e-05 
8 1 -2.217703470749e-04   3.407720445001e-05  -9.473338631541e-05 
8
Step 47000
1 1 -8.799530172202e-05   7.662178101090e-05   2.763557871464e-04 
2 1 -5.242200158057e-05  -2.559432071680e-04   2.454842415592e-04 
3 1  1.841071063609e-04  -2.398827297707e-04  -1.284185056515e-05 
4 1 -1.228513602100e-04  -1.075068449066e-04   1.605786189875e-04 
5 1  9.616703756094e-05  -3.431891380835e-05   9.231986169614e-05 
6 1 -1.545041351378e-04  -1.340555238012e-04  -1.295326889831e-04 
7 1 -5.053479459805e-05   2.128823460725e-04  -3.205660962435e-05 
8 1 -5.071795227464e-05   1.140547001244e-04   4.606950931512e-05 
8
Step 48000
1 1 -2.562554395193e-05   7.084804362204e-05   1.295328349111e-04 
2 1 -3.145483271914e-05  -3.589071768184e-04   7.809909628999e-05 
3 1 -3.665080902222e-05  -2.875270174007e-04  -2.063442330866e-04 
4 1 -1.181286095426e-04   6.764871026710e-06  -5.149871384246e-06 
5 1  4.123181294234e-05  -1.198581461107e-04   1.426957479130e-04 
6 1 -4.407609930352e-05   6.632044843705e-06  -2.112878545285e-04 
7 1 -1.310532910127e-05   6.815667073752e-05  -2.429956950816e-06 
8 1  1.663161104884e-04   2.250452696001e-04  -7.974458253761e-05 
8
Step 49000
1 1 -2.101551765027e-04  -5.885578212233e-05   2.691047670495e-05 
2 1  1.438707705084e-04  -2.448512138428e-04   1.376585945914e-04 
3 1 -7.346893623239e-05   4.696177652379e-05   1.761491607516e-04 
4 1 -5.580483680414e-05   2.975419654356e-04  -2.782318218294e-04 
5 1 -9.097017419180e-05  -2.419660967602e-04   2.295739068186e-04 
6 1 -3.534206930240e-05   1.409898291111e-04  -1.599470531676e-04 
7 1  1.358145591499e-04   4.828796450817e-04  -1.809639010949e-04 
8 1  7.750556814550e-05   8.512266085351e-05  -1.913219144648e-04 
8
Step 50000
1 1  1.383021409250e-04   3.982206919607e-05  -2.135724002506e-05 
2 1 -3.697751972935e-05  -1.291712425534e-04  -4.805160348416e-05 
3 1 -1.759030968561e-04  -3.136217669035e-05   3.391787275661e-04 
4 1  1.504205104208e-04   1.941688400493e-04  -2.371415178495e-04 
5 1 -6.378233980793e-05  -1.835312695572e-04  -1.699992317851e-05 
6 1  5.064575859974e-05  -1.620262459110e-06  -2.316685045115e-04 
7 1  3.221180557885e-04   1.310245936556e-04   1.557481323113e-04 
8 1 -8.761051997034e-05   1.665664140622e-04  -2.072895229188e-04 
8
Step 51000
1 1  9.098318624540e-05   2.754181716820e-05  -2.184839927819e-04 
2 1 -1.473842519079e-05   2.652383953123e-05   8.318053574788e-05 
3 1 -2.278227741450e-04  -1.341955343180e-04   1.566044176468e-04 
4 1  1.325829834045e-04   1.300154196026e-05  -4.030079829320e-05 
5 1 -3.757256146400e-05  -1.743109004272e-04  -2.560868927207e-04 
6 1  1.951194011452e-04   1.185301701484e-04  -1.230295958463e-04 
7 1  2.128412206561e-04   1.074352043377e-04   1.013137368162e-04 
8 1 -9.091055792158e-05   2.336368655116e-04  -1.775533755213e-04 
8
Step 52000
1 1  5.127804993857e-06   3.803875370914e-05  -2.188211130349e-04 
2 1  5.977197203968e-05  -2.006330229693e-04   1.024107811242e-04 
3 1 -5.651006336642e-05  -9.626390432107e-06  -2.140046700550e-04 
4 1  1.776823167794e-04   1.375245185163e-04  -3.807496892056e-04 
5 1 -5.873625112196e-05   3.602344820309e-06  -8.915758368408e-05 
6 1  2.638130477114e-06   1.210620945856e-05  -8.631572394746e-05 
7 1  2.612676276891e-04  -1.175452678902e-04   4.235733393509e-05 
8 1 -2.000268279731e-04   2.068994466602e-04   2.953572599751e-05 
8
Step 53000
1 1  5.521069243272e-05   1.987010916770e-04  -6.766727574690e-05 
2 1  7.121963438110e-05  -3.157260772965e-05  -7.680727253080e-05 
3 1  3.179658835967e-04  -4.388057661562e-05   1.435751295152e-04 
4 1  1.660241317274e-04  -8.574170690951e-05  -1.768295893787e-04 
5 1 -1.244480779589e-04   7.637143625486e-05  -1.418807710720e-04 
6 1  1.508927663813e-04  -6.527559419098e-05  -2.868870768273e-04 
7 1  1.266890168790e-04  -2.232236827473e-05  -1.362628392199e-05 
8 1  4.270514381100e-05   2.850248715334e-04  -5.277900762328e-05 
8
Step 54000
1 1  2.312579990062e-04   2.037355441808e-04  -3.830903634013e-05 
2 1  2.280180109055e-04  -9.777949474894e-05  -1.300805236601e-04 
3 1 -1.865087502866e-05  -1.407345177935e-04  -1.405780936212e-05 
4 1  2.497450062717e-05   1.874264945204e-04  -6.214582696829e-05 
5 1 -2.911583471385e-04   9.178785232785e-05  -1.821608164875e-04 