8
Step 0
1 1  0.000000000000e+00   0.000000000000e+00   0.000000000000e+00 
2 1  0.000000000000e+00   0.000000000000e+00   0.000000000000e+00 
3 1  0.000000000000e+00   0.000000000000e+00   0.000000000000e+00 
4 1  0.000000000000e+00   0.000000000000e+00   0.000000000000e+00 
5 1  0.000000000000e+00   0.000000000000e+00   0.000000000000e+00 
6 1  0.000000000000e+00   0.000000000000e+00   0.000000000000e+00 
7 1  0.000000000000e+00   0.000000000000e+00   0.000000000000e+00 
8 1  0.000000000000e+00   0.000000000000e+00   0.000000000000e+00 
8
Step 1000
1 1 -8.760748447462e-05  -5.674810786046e-05   6.682683313889e-05 
2 1 -1.422357538309e-04   1.527052834362e-04   1.565971786230e-04 
3 1  1.317708427149e-04  -1.281999265078e-06   8.120476356582e-05 
4 1 -6.305807725707e-05  -1.069617924344e-05   1.594630585449e-05 
5 1 -1.332221785863e-04  -5.573607685751e-05   5.933710142643e-05 
6 1 -7.842455822884e-05  -2.995913941976e-06  -6.961105956929e-05 
7 1 -1.085594100486e-04   2.219772888307e-05   1.095612954156e-04 
8 1 -2.431024603234e-05  -1.299388526617e-05   1.701287320240e-04 
8
Step 2000
1 1 -6.940299744789e-05  -8.593904596259e-05   3.655153260138e-05 
2 1 -8.534977109925e-05   5.795497864257e-05   1.493362205876e-04 
3 1  1.236140517468e-04   2.771284712549e-05   1.136368212927e-04 
4 1 -3.232163046748e-05   4.786735434533e-05  -6.210292101271e-05 
5 1 -4.002918396888e-05   4.469006657148e-05   7.500614918246e-05 
6 1 -6.561558960784e-05  -3.510428683212e-05  -1.116559166790e-05 
7 1 -1.024283248627e-04   2.168526086807e-05   5.477121937455e-05 
8 1  5.425007796809e-05  -7.138418294035e-05   1.256542760314e-04 
8
Step 3000
1 1 -1.797004066870e-05  -8.691922513279e-05  -8.192228611835e-06 
2 1  1.765467002865e-05  -5.763679175948e-05   8.022394931372e-05 
3 1  6.684274473065e-05   4.807392068745e-05   9.538829286705e-05 
4 1  1.106738871944e-05   7.600818388095e-05  -1.228823241161e-04 
5 1  5.895532686206e-05   1.040341950671e-04   4.960599616487e-05 
6 1 -3.220732123084e-05  -5.577756339784e-05   6.779396972899e-05 
7 1 -5.275231598935e-05   2.530267230057e-05  -2.392616570258e-05 
8 1  1.010158799959e-04  -8.174282525353e-05   2.381101512627e-05 
8
Step 4000
1 1  3.680174639652e-05  -5.270615494174e-05  -4.366576047454e-05 
2 1  1.079306749595e-04  -1.284319329736e-04  -9.955018065367e-06 
3 1 -3.909082589678e-06   5.166991360194e-05   3.744511113500e-05 
4 1  4.218742524596e-05   6.806702632028e-05  -1.407868825560e-04 
5 1  1.119757486284e-04   1.060208084340e-04  -3.659193229151e-06 
6 1  8.465486657382e-06  -6.325035392700e-05   1.203740604119e-04 
7 1  2.428998655550e-05   3.243018579281e-05  -8.839010248163e-05 
8 1  1.081938356560e-04  -3.622494371324e-05  -8.024822874867e-05 
8
Step 5000
1 1  6.445374331189e-05   6.960419523007e-06  -5.314823309818e-05 
2 1  1.361519398003e-04  -1.226476781671e-04  -7.458474923618e-05 
3 1 -5.397612959358e-05   3.499549804540e-05  -3.214360393019e-05 
4 1  4.781824946581e-05   3.565417610689e-05  -1.089615232370e-04 
5 1  1.002071100916e-04   6.616629861061e-05  -5.669829390857e-05 
6 1  4.044064464682e-05  -5.646007287783e-05   1.120183928312e-04 
7 1  9.364442649235e-05   3.385296969116e-05  -1.101525327704e-04 
8 1  8.475116644563e-05   3.909816087063e-05  -1.331723414941e-04 
8
Step 6000
1 1  5.121660687122e-05   6.653377506522e-05  -3.479078378183e-05 
2 1  9.065666389560e-05  -5.330663901430e-05  -8.923532325572e-05 
3 1 -6.446270496768e-05   1.616880596557e-06  -8.059783243305e-05 
4 1  3.009793756180e-05  -2.825337421992e-06  -4.341250281931e-05 
5 1  4.242022030755e-05   1.214089318413e-05  -8.246601270545e-05 
6 1  5.252258326924e-05  -3.358232158028e-05   4.047374733939e-05 
7 1  1.261214245733e-04   1.744660893133e-05  -8.464756578447e-05 
8 1  4.489940871760e-05   1.014423676522e-04  -1.191366764542e-04 
8
Step 7000
1 1  6.999708658278e-06   1.009700915256e-04  -1.953836039376e-06 
2 1 -1.290694521742e-06   3.473144504446e-05  -5.893572720519e-05 
3 1 -3.809921996807e-05  -3.828244411748e-05  -8.749104888748e-05 
4 1  2.873790864104e-06  -3.265844130913e-05   2.424975101735e-05 
5 1 -2.189126712598e-05  -3.173520567198e-05  -6.580471829256e-05 
6 1  4.160478204047e-05   2.125447929722e-06  -5.972298834078e-05 
7 1  1.125775408440e-04  -2.159605815864e-05  -2.881347278147e-05 
8 1  3.157429770205e-06   1.162866051734e-04  -5.729441747959e-05 
8
Step 8000
1 1 -4.320870623392e-05   9.982864099201e-05   2.525344169091e-05 
2 1 -8.735014308255e-05   9.191385984311e-05  -7.618681991301e-06 
3 1  5.219904049401e-06  -7.140429751551e-05  -5.358017409039e-05 
4 1 -1.842531383850e-05  -4.749616618580e-05   6.774751408487e-05 
5 1 -5.706490740029e-05  -5.072897120817e-05  -9.880609214241e-06 
6 1  1.215236881591e-05   4.132395380023e-05  -1.356638338143e-04 
7 1  6.322194711507e-05  -7.344571578683e-05   2.729268035272e-05 
8 1 -2.877234540497e-05   7.166718892637e-05   1.481724489190e-05 
8
Step 9000
1 1 -7.291002471219e-05   6.832549185354e-05   3.239977466075e-05 
2 1 -1.219638799415e-04   9.280156001711e-05   3.657559794526e-05 
3 1  4.001564577595e-05  -8.510349838791e-05   2.022688220432e-06 
4 1 -2.611727964359e-05  -4.882344137761e-05   7.852799574570e-05 
5 1 -5.007254523169e-05  -4.221312072508e-05   6.316515140111e-05 
6 1 -2.271643303326e-05   7.110750459357e-05  -1.519347797554e-04 
7 1  3.048362154530e-06  -1.149898953146e-04   5.716036268086e-05 
8 1 -4.551883289750e-05  -1.617126601777e-05   6.103886788240e-05 
8
Step 10000
1 1 -6.494258740771e-05   2.372836343443e-05   1.923689436576e-05 
2 1 -9.357687234220e-05   4.558030172219e-05   5.519497200143e-05 
3 1  4.832965431558e-05  -6.925101068165e-05   5.123227290484e-05 
4 1 -2.189299451257e-05  -3.998214845848e-05   6.160688374321e-05 
5 1 -1.361274344134e-05  -1.353548302918e-05   1.208044492809e-04 
6 1 -4.433630118735e-05   7.980567096227e-05  -1.070270674268e-04 
7 1 -4.126754150906e-05  -1.184285546583e-04   5.305078166382e-05 
8 1 -4.786993278605e-05  -1.059207869077e-04   6.454734112714e-05 
8
Step 11000
1 1 -1.684746291860e-05  -1.190362992765e-05  -1.485415529994e-06 
2 1 -2.648518090476e-05  -1.696632881951e-05   4.594031144809e-05 
3 1  2.679017424053e-05  -1.861315528007e-05   7.029105313440e-05 
4 1 -1.414096964512e-05  -1.953830054906e-05   2.895464380781e-05 
5 1  2.503638809083e-05   2.181266685452e-05   1.331307729410e-04 
6 1 -3.915569322266e-05   6.156401336457e-05  -3.016318851176e-05 
7 1 -5.640244396793e-05  -6.286906171280e-05   2.599514365670e-05 
8 1 -4.001642239230e-05  -1.526511843580e-04   3.200296087621e-05 
8
Step 12000
1 1  5.617211252955e-05  -2.668069989262e-05  -1.183188140663e-05 
2 1  3.716749695615e-05  -5.848521586168e-05   1.912176480854e-05 
3 1 -1.385842430195e-05   6.011470842101e-05   5.011907085246e-05 
4 1 -1.341667773100e-05   1.785055408929e-05  -5.301327220757e-06 
5 1  4.287180889290e-05   4.686733350226e-05   8.121541727519e-05 
6 1 -6.728956912459e-06   1.783122101526e-05   3.578365638047e-05 
7 1 -4.466407320725e-05   4.669056228102e-05  -4.639727098333e-06 
8 1 -2.681729413262e-05  -1.329342004578e-04  -1.391118229700e-05 
8
Step 13000
1 1  1.206887172394e-04  -2.571201562201e-05   1.150947010764e-06 
2 1  6.733224673877e-05  -6.063657848834e-05  -1.035228123076e-05 
3 1 -5.432934325078e-05   1.395578901139e-04  -2.308489778503e-07 
4 1 -2.525615728540e-05   7.231139519929e-05  -2.981894902483e-05 
5 1  3.400318359238e-05   4.645907377848e-05  -3.214209480325e-05 
6 1  3.912976248993e-05  -4.174385731953e-05   6.491403074694e-05 
7 1 -1.788926693188e-05   1.595363586310e-04  -2.371621958976e-05 
8 1 -1.290171515174e-05  -5.221985333294e-05  -4.734402292850e-05 
8
Step 14000
1 1  1.396520996033e-04  -2.076190026741e-05   3.443552106237e-05 
2 1  6.081448369929e-05  -2.933616117970e-05  -3.048619275254e-05 
3 1 -7.474973805699e-05   1.819241008450e-04  -5.495619449385e-05 
4 1 -4.201355804818e-05   1.287294889156e-04  -3.989531012561e-05 
5 1  8.525075733416e-06   1.633176423698e-05  -1.596455995784e-04 
6 1  7.381680444343e-05  -9.846454341203e-05   5.854910664212e-05 
7 1  8.600612503636e-06   2.110952921447e-04  -2.681026629382e-05 
8 1 -7.180340501361e-07   5.458145991699e-05  -5.113061956295e-05 
8
Step 15000
1 1  9.737885795896e-05  -2.051176385478e-05   6.429446604449e-05 
2 1  3.239725073816e-05   1.337238448169e-05  -3.652385845130e-05 
3 1 -6.164268006285e-05   1.621527201571e-04  -8.126549593759e-05 
4 1 -4.405865128883e-05   1.555173853458e-04  -3.733920694866e-05 
5 1 -1.718090655891e-05  -3.227108197603e-05  -2.302697176933e-04 
6 1  7.426886613966e-05  -1.297225723865e-04   3.198039902676e-05 
7 1  2.165337481747e-05   1.766959512242e-04  -1.764309122639e-05 
8 1  1.395448875125e-05   1.335432919634e-04  -2.149105090847e-05 
8
Step 16000
1 1  1.191303840800e-05  -2.715718240036e-05   6.145889635110e-05 
2 1  1.025058040139e-06   4.307536591986e-05  -3.027279102243e-05 
3 1 -1.288396297394e-05   7.721214152198e-05  -5.826177220601e-05 
4 1 -1.634553904588e-05   1.181764372953e-04  -2.698446394637e-05 
5 1 -3.093253012882e-05  -7.467944639546e-05  -2.091090655167e-04 
6 1  3.434489249853e-05  -1.188391079226e-04   2.415797551510e-06 
7 1  1.526845765562e-05   7.727565006197e-05  -2.604221209567e-06 
8 1  3.593788120043e-05   1.461369143174e-04   3.021013057403e-05 
8
Step 17000
1 1 -7.209109115157e-05  -3.643855851368e-05   1.602933075058e-05 
2 1 -1.927029028043e-05   4.508472425317e-05  -1.639069501162e-05 
3 1  5.712660131510e-05  -4.184255659886e-05   8.317482539374e-06 
4 1  3.802837692205e-05   1.014586663475e-05  -1.361590183024e-05 
5 1 -2.942547284061e-05  -8.348433892833e-05  -1.071000952292e-04 
6 1 -2.944867736374e-05  -6.116205013455e-05  -1.723491180120e-05 
7 1 -6.723204248536e-06  -2.960825620330e-05   1.239210690739e-05 
8 1  5.892972064254e-05   9.218429505104e-05   7.643806172717e-05 
8
Step 18000
1 1 -1.106119721211e-04  -4.209982862164e-05  -5.426465344478e-05 
2 1 -2.393818390937e-05   1.928521458524e-05   3.442291113398e-07 
3 1  1.180232901242e-04  -1.329907080004e-04   8.503218550076e-05 
4 1  9.663482684992e-05  -1.173308238753e-04  -5.033946745747e-07 
5 1 -1.628828302978e-05  -4.705824843690e-05   1.980345792744e-05 
6 1 -8.610702867492e-05   2.874571790483e-05  -2.149849639847e-05 
7 1 -3.143706859604e-05  -8.294585322234e-05   2.238102310324e-05 
8 1  6.859079686395e-05   4.724719176290e-06   8.592863212065e-05 
8
Step 19000
1 1 -8.932560761401e-05  -3.734774829138e-05  -1.130388138274e-04 
2 1 -1.737155625094e-05  -2.092767616305e-05   1.557259616222e-05 
3 1  1.384620498980e-04  -1.568307173349e-04   1.270430278740e-04 
4 1  1.259964891953e-04  -1.934961591983e-04   1.115935016630e-05 
5 1  1.514193492461e-06   2.089357623253e-05   9.818657755786e-05 
6 1 -1.073198897960e-04   1.125164031491e-04  -1.290974355292e-05 
7 1 -4.190015601323e-05  -6.963252422508e-05   2.368556937462e-05 
8 1  5.194515012931e-05  -6.939014469875e-05   4.829977158000e-05 
8
Step 20000
1 1 -2.860601174383e-05  -1.511304668704e-05  -1.260287387231e-04 
2 1 -7.994549564955e-06  -5.380769699983e-05   2.569725210607e-05 
3 1  1.027791246352e-04  -1.188544585634e-04   1.053192731947e-04 
4 1  1.023503487512e-04  -1.905351783168e-04   2.155754361506e-05 
5 1  1.660523943848e-05   8.770603608598e-05   1.036924417310e-04 
6 1 -8.077916880644e-05   1.505991262215e-04   2.666536220955e-07 
7 1 -2.559991428154e-05  -2.529681401921e-05   1.520543694320e-05 
8 1  6.592293110934e-06  -9.488088095831e-05  -1.875068251022e-05 
8
Step 21000
1 1  3.303304873931e-05   2.359912188037e-05  -8.136496733019e-05 
2 1 -2.674224610550e-06  -5.966733366625e-05   2.847877172615e-05 
3 1  1.930764790947e-05  -4.837715893146e-05   2.550945081870e-05 
4 1  3.033875487915e-05  -1.203485678811e-04   3.045329749561e-05 
5 1  2.375216526102e-05   1.188962400256e-04   6.211852905439e-05 
6 1 -1.501529500275e-05   1.298279340611e-04   8.909984612594e-06 
7 1  1.697015010440e-05   9.447806782369e-06  -5.654965628356e-07 
8 1 -5.135608290208e-05  -6.504729057374e-05  -8.057790540450e-05 
8
Step 22000
1 1  6.203157159724e-05   6.604040978203e-05   2.557492004342e-06 
2 1 -3.130432665903e-06  -3.189935443889e-05   2.295803582791e-05 
3 1 -7.535164350609e-05   1.885378225505e-05  -7.186756821128e-05 
4 1 -5.607849434070e-05  -2.206049505605e-05   3.574723858032e-05 
5 1  2.155424037367e-05   9.615424791429e-05   1.087427325689e-05 
6 1  6.145780603509e-05   6.345735914490e-05   7.812708504899e-06 
7 1  6.984617502498e-05   1.888152427259e-05  -1.788724802013e-05 
8 1 -9.342513296012e-05  -2.570406459023e-06  -1.063445081091e-04 
8
Step 23000
1 1  4.566714914023e-05   9.366821959379e-05   8.404793139993e-05 
2 1 -5.490735863051e-06   1.850039568103e-05   9.416365994103e-06 
3 1 -1.331867600478e-04   5.662976731500e-05  -1.368492017955e-04 
4 1 -1.149887643033e-04   5.640915101432e-05   3.336983743803e-05 
5 1  1.225164865671e-05   2.713207994763e-05  -2.169365278717e-05 
6 1  1.133090964094e-04  -1.705049474113e-05  -2.159257866067e-06 
7 1  1.074766379814e-04   6.468924409623e-06  -2.986513274064e-05 
8 1 -9.659797435298e-05   5.465483357912e-05  -8.619755271593e-05 
8
Step 24000
1 1 -2.678806244159e-06   8.882112264076e-05   1.244082666773e-04 
2 1 -3.448286907403e-06   6.738030755095e-05  -9.673166281600e-06 
3 1 -1.289048606742e-04   5.870976131828e-05  -1.409195878378e-04 
4 1 -1.242111708461e-04   9.016175243238e-05   1.911447832074e-05 
5 1  5.861116423754e-08  -5.557953885745e-05  -2.394192037852e-05 
6 1  1.177192558080e-04  -7.417021615391e-05  -1.487927565161e-05 
7 1  1.044134233007e-04  -1.467038835213e-05  -3.138483478041e-05 
8 1 -5.537436379090e-05   7.533184657920e-05  -3.309910882495e-05 
8
Step 25000
1 1 -5.064072046861e-05   4.600819392842e-05   1.101807045429e-04 
2 1  6.595713393243e-06   8.909305708609e-05  -2.930263305130e-05 
3 1 -7.102220612264e-05   3.544485174558e-05  -8.716032007490e-05 
4 1 -8.666161101616e-05   8.177376277777e-05  -7.880815343144e-06 
5 1 -1.100183803069e-05  -1.111773825580e-04  -2.019790545518e-06 
6 1  7.294255467853e-05  -8.554171573194e-05  -2.208932065623e-05 
7 1  4.911560009183e-05  -2.922472057957e-05  -2.124140587833e-05 
8 1  1.272078548779e-05   4.844752025691e-05   2.578769354642e-05 
8
Step 26000
1 1 -6.671652021587e-05  -1.823587695467e-05   5.360783464320e-05 
2 1  2.219055173467e-05   6.933206043222e-05  -4.321595680598e-05 
3 1  7.764240372038e-06   4.186114089580e-06  -6.416710148327e-06 
4 1 -2.342576412556e-05   4.672144897314e-05  -4.199501797805e-05 
5 1 -1.862119488911e-05  -1.142260550426e-04   2.406138938863e-05 
6 1 -1.424700461138e-06  -5.583877897477e-05  -1.766532052996e-05 
7 1 -3.960824581063e-05  -2.753390269197e-05  -2.666953256790e-06 
8 1  7.302938170140e-05  -1.374442909442e-05   6.388055043434e-05 
8
Step 27000
1 1 -3.752928704523e-05  -7.499906302703e-05  -1.573148571252e-05 
2 1  3.505751737974e-05   1.345599426409e-05  -4.555677756611e-05 
3 1  6.706757884235e-05  -1.925439896799e-05   6.138332101012e-05 
4 1  3.554200475152e-05   3.630708035369e-06  -7.114727261963e-05 
5 1 -2.238202880162e-05  -6.559430750826e-05   3.126778361895e-05 
6 1 -7.085875727750e-05  -9.879219681967e-06  -9.075201866471e-07 
7 1 -1.191842995660e-04  -9.413265349096e-06   1.772169442354e-05 
8 1  9.589531611329e-05  -8.010618035015e-05   6.971860024223e-05 
8
Step 28000
1 1  2.609740482666e-05  -1.017822380373e-04  -6.518575440220e-05 
2 1  3.487050433275e-05  -5.344260629607e-05  -3.240818380001e-05 
3 1  8.023537840156e-05  -2.649750930951e-05   9.074097419489e-05 
4 1  6.686148667394e-05  -3.082333952058e-05  -8.083002731695e-05 
5 1 -2.273466274491e-05   9.480578504890e-06   9.713768254358e-06 
6 1 -1.046126421928e-04   2.419404443076e-05   2.276671749555e-05 
7 1 -1.537406859672e-04   1.689080685934e-05   3.239724031257e-05 
8 1  7.235560458636e-05  -1.142040779746e-04   4.958007591433e-05 
8
Step 29000
1 1  9.249911933793e-05  -9.077543766709e-05  -7.643544032773e-05 
2 1  1.532959674611e-05  -9.895683903674e-05  -4.385537049816e-06 
3 1  4.792995882153e-05  -1.807578739480e-05   7.697198688673e-05 
4 1  6.451681685823e-05  -4.607055513543e-05  -6.006254808144e-05 
5 1 -1.941091451258e-05   7.376728415475e-05  -3.061544263395e-05 
6 1 -9.202099746358e-05   2.990093740374e-05   4.372108390710e-05 
7 1 -1.298362487762e-04   3.903554585146e-05   3.589270937546e-05 
8 1  1.619976001299e-05  -9.180788641967e-05   1.935279779381e-05 
8
Step 30000
1 1  1.243466561769e-04  -4.901638056859e-05  -5.229070243050e-05 
2 1 -2.052261184570e-05  -1.010563013976e-04   3.128123612382e-05 
3 1 -5.073275691956e-06  -9.090567678950e-07   3.219769890025e-05 
4 1  3.773962892791e-05  -3.969563222705e-05  -8.180748765746e-06 
5 1 -1.057213851513e-05   9.788638708013e-05  -6.659818415859e-05 
6 1 -4.378748175413e-05   8.703448153830e-06   5.150342175297e-05 
7 1 -5.895974449807e-05   4.654308230922e-05   2.691832388047e-05 
8 1 -4.238192621713e-05  -1.276725568334e-05  -4.871806643702e-06 
8
Step 31000
1 1  9.786582938903e-05   4.334281071666e-06  -1.088496112227e-05 
2 1 -5.942370243122e-05  -5.793973588094e-05   6.242945972866e-05 
3 1 -4.614501336040e-05   1.571515239218e-05  -2.038041280901e-05 
4 1  3.254547386150e-06  -1.665256488784e-05   5.904804167625e-05 
5 1  5.652595719487e-06   7.424494457633e-05  -7.454956517273e-05 
6 1  1.456097058090e-05  -2.196384451584e-05   3.848751152499e-05 
7 1  2.375700817997e-05   3.552799310079e-05   8.865027326321e-06 
8 1 -7.542673252542e-05   9.152586723141e-05  -1.412712714029e-05 
8
Step 32000
1 1  1.601759862738e-05   4.701469524604e-05   2.551151399149e-05 
2 1 -8.254951124117e-05   1.061652817285e-05   7.673372821226e-05 
3 1 -5.273696410891e-05   2.390934186826e-05  -5.609010046350e-05 
4 1 -2.269889393115e-05   1.280259335592e-05   1.130466559665e-04 
5 1  2.816557806271e-05   1.838124482749e-05  -4.334146570614e-05 
6 1  5.434683835703e-05  -3.884088556822e-05   3.440072349646e-06 
7 1  8.016539612232e-05   1.018518908576e-05  -1.155532706968e-05 
8 1 -7.240026841652e-05   1.690159218435e-04  -1.115238956382e-05 
8
Step 33000
1 1 -8.489926150958e-05   6.498897650868e-05   4.120223867312e-05 
2 1 -7.334154232642e-05   7.092268620637e-05   6.598203884797e-05 
3 1 -2.195802922450e-05   2.042727858297e-05  -5.934482332479e-05 
4 1 -3.081826356407e-05   3.582556878939e-05   1.281474142141e-04 
5 1  5.115694586569e-05  -4.009665403531e-05   1.710731506916e-05 
6 1  5.854653381883e-05  -2.718084387664e-05  -4.528217280115e-05 
7 1  9.189986027756e-05  -1.918326594969e-05  -2.699598304286e-05 
8 1 -3.888334471026e-05   1.794524271777e-04  -6.961733225506e-06 
8
Step 34000
1 1 -1.524406157754e-04   5.676612626924e-05   3.279128699740e-05 
2 1 -2.579935464850e-05   9.387930645690e-05   2.976795571558e-05 
3 1  3.013838485257e-05   7.307660808570e-06  -3.051387946862e-05 
4 1 -2.128794951349e-05   4.092169248338e-05   9.380193844843e-05 
5 1  6.456879099924e-05  -7.333436129935e-05   7.873257083083e-05 
6 1  3.034942367470e-05   1.072404788639e-05  -9.020171182352e-05 
7 1  6.219270455072e-05  -4.099592745769e-05  -3.247282053842e-05 
8 1  1.118788903416e-05   1.125652244043e-04  -1.070928300052e-05 
8
Step 35000
1 1 -1.538616758293e-04   3.095565851454e-05   8.315032504525e-06 
2 1  4.754989973094e-05   7.128969190387e-05  -2.126662964316e-05 
3 1  7.677678045500e-05  -9.992600251180e-06   1.316291906886e-05 
4 1 -2.091718965776e-06   2.284046164986e-05   1.968495661903e-05 
5 1  5.692740935964e-05  -6.895295834717e-05   1.104622343269e-04 
6 1 -9.448429691395e-06   5.675299034514e-05  -1.119378377203e-04 
7 1  1.100514055593e-05  -4.815652037974e-05  -2.782271537283e-05 
8 1  6.244894137940e-05  -4.110819860610e-06  -2.332493183637e-05 
8
Step 36000
1 1 -9.017627888529e-05   1.443390488862e-06  -1.810391079352e-05 
2 1  1.154221196025e-04   1.859584756989e-05  -6.784682958393e-05 
3 1  9.165882804366e-05  -2.521531091619e-05   4.638769749982e-05 
4 1  1.561581954250e-05  -1.361704537057e-05  -6.254268312050e-05 
5 1  2.122339507090e-05  -3.389273355226e-05   9.377801020725e-05 
6 1 -3.486881115447e-05   8.558191989294e-05  -9.765217174987e-05 
7 1 -3.279498213972e-05  -4.088703961091e-05  -1.770900846328e-05 
8 1  1.013504117529e-04  -1.086023520192e-04  -3.716214411042e-05 
8
Step 37000
1 1  5.858236130579e-06  -1.862001716338e-05  -3.332227781128e-05 
2 1  1.443520569679e-04  -3.497130016578e-05  -9.134117670556e-05 
3 1  5.753163626056e-05  -3.351325266910e-05   5.022988787801e-05 
4 1  2.287004213609e-05  -5.300357603767e-05  -1.138286881442e-04 
5 1 -3.714913443393e-05   1.145323931921e-05   3.109063691506e-05 
6 1 -3.013685057457e-05   7.644846130335e-05  -4.625208990832e-05 
7 1 -4.721587320102e-05  -2.458082055902e-05  -7.619529268590e-06 
8 1  1.149767104161e-04  -1.515608323941e-04  -3.964312036207e-05 
8
Step 38000
1 1  8.271696280188e-05  -2.288205209839e-05  -3.110268440120e-05 
2 1  1.169268638358e-04  -6.250565392709e-05  -8.180022402347e-05 
3 1 -2.458939460489e-05  -3.231622052339e-05   2.185198284285e-05 
4 1  1.640058488840e-05  -7.303324157854e-05  -1.125552842306e-04 
5 1 -9.755863579234e-05   4.518969119775e-05  -5.095661525539e-05 
6 1  1.638263751499e-06   2.324168471204e-05   2.594184396897e-05 
7 1 -2.829924026107e-05  -4.073443727208e-06   4.724398838408e-07 
8 1  9.116212480892e-05  -1.266229355427e-04  -2.040197752673e-05 
8
Step 39000
1 1  1.034297381852e-04  -1.494230535769e-05  -1.399034557719e-05 
2 1  3.829666824294e-05  -5.262877397094e-05  -4.154592608768e-05 
3 1 -1.227903903698e-04  -2.067834763864e-05  -2.248252683909e-05 
4 1 -4.670870182234e-07  -5.569164921701e-05  -6.359767648207e-05 
5 1 -1.324048305768e-04   5.414482819228e-05  -1.110617279223e-04 
6 1  4.029608160912e-05  -5.743539415816e-05   8.849445009148e-05 
7 1  8.430195694658e-06   2.102470980547e-05   9.029344315825e-06 
8 1  2.637252208738e-05  -5.693496181536e-05   2.160374569283e-05 
8
Step 40000
1 1  6.819191154738e-05  -5.635755690569e-06   9.627610601027e-06 
2 1 -5.914909491647e-05  -1.507169524895e-05   1.391339632294e-05 
3 1 -1.859750404313e-04   1.466985433989e-06  -5.511510419832e-05 
4 1 -1.934107780752e-05  -1.721038654086e-07   6.028638902883e-06 
5 1 -1.215849654510e-04   3.706592242086e-05  -1.173681168086e-04 
6 1  6.032891551018e-05  -1.278873432317e-04   1.186443649602e-04 
7 1  3.500122298294e-05   5.192159665107e-05   2.204933689760e-05 
8 1 -5.881043561175e-05   2.050308753369e-05   7.524240504702e-05 
8
Step 41000
1 1  8.676726436616e-06  -5.145433649293e-06   3.060389501813e-05 
2 1 -1.271995814172e-04   2.588298760211e-05   6.089105253488e-05 
3 1 -1.807053520866e-04   3.231437818308e-05  -5.489399990242e-05 
4 1 -3.079257641267e-05   7.222259062752e-05   6.000885029617e-05 
5 1 -6.180338194954e-05   4.557523895854e-06  -6.477829720104e-05 
6 1  4.716630020825e-05  -1.504910485563e-04   1.133503831553e-04 
7 1  3.148027890374e-05   8.249897513553e-05   3.939438110702e-05 
8 1 -1.216893593779e-04   6.993520533916e-05   1.185114790094e-04 
8
Step 42000
1 1 -3.469117478350e-05  -1.609535933088e-05   4.216228976907e-05 
2 1 -1.363489360408e-04   4.762290763478e-05   7.933021982752e-05 
3 1 -1.052332939053e-04   6.562779984182e-05  -1.991308251245e-05 
4 1 -2.845027891776e-05   1.256500829205e-04   7.256351399747e-05 
5 1  2.786199087101e-05  -2.586957601671e-05   2.158036991646e-05 
6 1  5.997202393326e-06  -1.082181900859e-04   8.064229689751e-05 
7 1 -2.123536516593e-07   9.944262074743e-05   5.254630334153e-05 
8 1 -1.314460221494e-04   7.224042379235e-05   1.256523010970e-04 
8
Step 43000
1 1 -3.792214447658e-05  -3.068008687909e-05   4.030273452055e-05 
2 1 -8.939222632490e-05   3.937133092214e-05   6.311855470022e-05 
3 1  6.939941091686e-06   8.971206671337e-05   3.179962931692e-05 
4 1 -1.115671589422e-05   1.287748258934e-04   4.145812962027e-05 
5 1  1.093063904157e-04  -3.979098025455e-05   9.566485705748e-05 
6 1 -4.278066898598e-05  -1.260383681529e-05   3.223506115673e-05 
7 1 -4.061398810835e-05   8.710409232716e-05   4.810568344003e-05 
8 1 -9.039257805302e-05   3.241744518035e-05   8.099652993333e-05 
8
Step 44000
1 1 -1.976737171725e-06  -3.309678728879e-05   2.403254324281e-05 
2 1 -1.254928029606e-05   4.536846700421e-06   2.319179840468e-05 
3 1  9.622793561737e-05   9.080974577158e-05   7.112161727913e-05 
4 1  1.559777059416e-05   7.052252555710e-05  -1.147932776266e-05 
5 1  1.498701007585e-04  -3.269587987403e-05   1.175383293738e-04 
6 1 -7.441298388001e-05   9.210712739390e-05  -1.796564932860e-05 
7 1 -6.354495617711e-05   3.632653938779e-05   1.819046885443e-05 
8 1 -2.384297610529e-05  -2.466207102603e-05  -5.302355989482e-06 
8
Step 45000
1 1  5.057449138172e-05  -1.130112139065e-05  -2.561855208985e-06 
2 1  5.525167691141e-05  -4.039169537322e-05  -1.948774060533e-05 
3 1  1.259676835902e-04   5.976515570537e-05   7.355842858036e-05 
4 1  4.046248442200e-05  -3.321404603085e-05  -5.186863589054e-05 
5 1  1.366674020941e-04  -1.080094878140e-05   7.434431228719e-05 
6 1 -7.277859018811e-05   1.492321117695e-04  -5.703032907195e-05 
7 1 -5.017625599003e-05  -3.973531352109e-05  -3.029519986451e-05 
8 1  3.707165688162e-05  -6.611480939535e-05  -9.320390859330e-05 
8
Step 46000
1 1  8.301084228089e-05   3.065789439206e-05  -3.158223507632e-05 
2 1  8.199238526304e-05  -7.249393374979e-05  -4.624002915445e-05 
3 1  1.027833324374e-04   5.637989525016e-07   3.345765377008e-05 
4 1  5.103443134711e-05  -1.348079223284e-04  -5.450541657717e-05 
5 1  7.540329752959e-05   1.236677745798e-05  -1.322376103434e-05 
6 1 -3.915029889989e-05   1.275897033524e-04  -7.806369175475e-05 
7 1 -1.604625796977e-06  -1.054188749813e-04  -7.476495625802e-05 
8 1  6.826730764588e-05  -6.687431620551e-05  -1.373998020322e-04 
8
Step 47000
1 1  6.720242765608e-05   7.331515444083e-05  -5.356697846752e-05 
2 1  6.195850635538e-05  -7.229542855182e-05  -4.691059371488e-05 
3 1  5.410392823499e-05  -6.535344373980e-05  -3.128585806697e-05 
4 1  3.868978228691e-05  -1.835426503906e-04  -1.598463191264e-05 
5 1 -7.541585936659e-06   2.664369152300e-05  -9.833140027636e-05 
6 1  8.980818920897e-06   3.913306229432e-05  -8.110446960572e-05 
7 1  5.907102540668e-05  -1.321299776321e-04  -8.883044916379e-05 
8 1  6.372941293197e-05  -2.531688513376e-05  -1.192797744264e-04 
8
Step 48000
1 1  5.097588026160e-06   9.186985454169e-05  -5.890442032723e-05 
2 1  1.455433068999e-05  -3.253973229093e-05  -2.362892387328e-05 
3 1  8.443154614607e-06  -1.108476201003e-04  -8.741793941557e-05 
4 1  1.732050847657e-06  -1.647483217686e-04   4.644426173464e-05 
5 1 -7.583360667971e-05   2.922385391348e-05  -1.339613130397e-04 
6 1  4.894098439824e-05  -5.941725184530e-05  -6.772361287919e-05 
7 1  9.871913658346e-05  -1.146322354646e-04  -5.929853386149e-05 
8 1  3.553199426404e-05   3.405587829444e-05  -5.458970020488e-05 
8
Step 49000
1 1 -7.387359919830e-05   6.759266492318e-05  -4.234467772000e-05 
2 1 -2.980049749412e-05   3.445747985932e-05   9.618574084748e-06 
3 1 -1.645121551531e-05  -1.196146452206e-04  -1.041499724008e-04 
4 1 -4.930592783998e-05  -8.846557368513e-05   9.873199894605e-05 
5 1 -1.032486970365e-04   2.166323978188e-05  -9.754633413850e-05 
6 1  6.328933015559e-05  -1.097735315634e-04  -3.916444775830e-05 
7 1  9.145794597609e-05  -6.271476459290e-05   5.268887020054e-06 
8 1  2.906341114771e-06   7.807376304694e-05   1.979227577149e-05 
8
Step 50000
1 1 -1.285764635568e-04  -1.557213781052e-06  -8.610055781838e-06 
2 1 -4.680670368631e-05   9.722395542949e-05   3.485039448478e-05 
3 1 -1.994118265565e-05  -8.989362598096e-05  -6.688526393080e-05 
4 1 -9.150734177364e-05   1.877614389838e-05   1.041075137652e-04 
5 1 -8.392406819750e-05   7.847115402357e-06  -1.691251053683e-06 
6 1  4.824921288154e-05  -9.142488377352e-05  -1.100900658896e-06 
7 1  3.236864633593e-05   2.698728817717e-06   7.528396590300e-05 
8 1 -1.957889348730e-05   8.444442785310e-05   6.724374658180e-05 
8
Step 51000
1 1 -1.263835745921e-04  -9.140792621726e-05   2.966688371040e-05 
2 1 -3.245411712665e-05   1.225646687914e-04   3.835787391908e-05 
3 1 -1.478314824464e-05  -3.296533869658e-05   1.584449965993e-05 
4 1 -9.960747005620e-05   1.087142249216e-04   4.332214272345e-05 
5 1 -3.278763069304e-05  -7.657181171335e-06   1.052205427227e-04 
6 1  1.408861328509e-05  -2.069095558262e-05   3.728221769235e-05 
7 1 -5.421679958207e-05   5.553806643972e-05   1.123204825873e-04 
8 1 -2.500170141212e-05   4.922508765836e-05   6.884121379099e-05 
8
Step 52000
1 1 -6.404341095927e-05  -1.567581432312e-04   5.900713542438e-05 
2 1 -1.215422528010e-06   9.617256198896e-05   1.532789131565e-05 
3 1 -1.481779858469e-05   2.825720475922e-05   1.084680568652e-04 
4 1 -5.945666407181e-05   1.425261071722e-04  -6.822317988219e-05 
5 1  2.366612400965e-05  -2.057515141800e-05   1.637495005993e-04 
6 1 -2.097046098828e-05   6.008618188506e-05   6.712918455053e-05 
7 1 -1.243569215340e-04   7.964144585444e-05   9.134324788576e-05 
8 1 -1.359182162574e-05  -1.133943477811e-05   3.133514096268e-05 
8
Step 53000
1 1  2.600148752399e-05  -1.583803490166e-04   6.914200338070e-05 
2 1  2.731764722878e-05   2.977842069962e-05  -2.731950894177e-05 
3 1 -2.489084202273e-05   7.003739147080e-05   1.616121972613e-04 
4 1  2.134266677903e-05   1.183938191171e-04  -1.744901894077e-04 
5 1  5.905618690532e-05  -2.724760397831e-05   1.415933799727e-04 
6 1 -3.989028098410e-05   1.054461185262e-04   8.155614006167e-05 
7 1 -1.406007044296e-04   7.315126923815e-05   1.685341334193e-05 
8 1  6.927998090326e-06  -6.692124223905e-05  -1.847851696833e-05 
8
Step 54000
1 1  9.756462486672e-05  -8.580566135870e-05   5.575850138781e-05 
2 1  3.875750720220e-05  -4.433383291434e-05  -6.949659757271e-05 
3 1 -3.864851995172e-05   8.105645657658e-05   1.423384398529e-04 
4 1  1.076022316790e-04   5.862520970189e-05  -2.121297519480e-04 
5 1  5.916824020017e-05  -2.491785916313e-05   4.766152480644e-05 