8
Step 0
1 1  0.000000000000e+00   0.000000000000e+00   0.000000000000e+00 
2 1  0.000000000000e+00   0.000000000000e+00   0.000000000000e+00 
3 1  0.000000000000e+00   0.000000000000e+00   0.000000000000e+00 
4 1  0.000000000000e+00   0.000000000000e+00   0.000000000000e+00 
5 1  0.000000000000e+00   0.000000000000e+00   0.000000000000e+00 
6 1  0.000000000000e+00   0.000000000000e+00   0.000000000000e+00 
7 1  0.000000000000e+00   0.000000000000e+00   0.000000000000e+00 
8 1  0.000000000000e+00   0.000000000000e+00   0.000000000000e+00 
8
Step 1000
1 1  2.268187907822e-04   1.475101086428e-04  -1.540211983187e-04 
2 1  4.710452580747e-05  -1.129191560363e-04  -1.106809096921e-04 
3 1 -6.831788871599e-05   5.942718056435e-05  -2.438970575149e-05 
4 1  3.503081109714e-04   9.872052312634e-05  -1.238297417613e-04 
5 1 -4.702855749305e-05  -2.365251540527e-04   1.070518696283e-04 
6 1 -6.985140058177e-06   1.790119030405e-04   1.550595676958e-04 
7 1 -5.046424524868e-05   9.279971506314e-05  -5.293970486284e-05 
8 1 -1.180996438656e-04   4.148652997696e-05   5.263955032987e-05 
8
Step 2000
1 1 -5.924416009238e-05   1.071686492865e-04  -1.831744279718e-04 
2 1  1.116523863834e-04  -1.112430809174e-04  -2.429507039461e-04 
3 1 -6.765508769760e-05  -1.491425642416e-04  -2.674199166967e-04 
4 1 -9.520543620161e-05   1.356717320467e-04   5.372643913796e-05 
5 1 -4.154443881584e-05  -6.739794448598e-05   9.385740527552e-05 
6 1  1.234092253945e-04   1.710317817748e-04   1.267126771305e-04 
7 1  2.849902698617e-04  -2.812492259291e-05  -2.762051047216e-05 
8 1 -2.289573161999e-04  -3.295880983642e-05  -1.050409805060e-04 
8
Step 3000
1 1  9.501612188507e-05  -1.631450251147e-04  -1.653105758528e-04 
2 1  3.134887348446e-04  -1.508144092545e-04  -6.555641074324e-05 
3 1 -1.251384199863e-04  -3.391112871359e-05  -5.289127452957e-05 
4 1 -3.635215270378e-04  -2.850383376127e-04  -1.311901867470e-04 
5 1  5.087319132007e-05   1.914528639090e-05   2.309635499413e-04 
6 1  2.762052611544e-06  -8.548109740682e-05   1.859528542066e-04 
7 1 -7.895908360384e-05   3.972753103891e-04   2.411737420631e-04 
8 1 -2.366349418458e-04   2.382029319780e-04   1.700932079387e-04 
8
Step 4000
1 1  1.590139434677e-05  -1.975957238677e-04  -2.180596615383e-05 
2 1 -1.506320699107e-04   1.268017030871e-04  -3.510945538892e-04 
3 1  8.359792256376e-05   4.459763520237e-05   7.219895085797e-05 
4 1 -1.398901107874e-04  -9.112237007691e-05   7.366427710226e-06 
5 1 -7.561582546257e-05  -1.431735244523e-04  -8.478403588879e-06 
6 1  7.174607058810e-05   1.271821479487e-05   4.581296473527e-06 
7 1  1.594455577454e-05   2.597522043217e-04  -1.266927024041e-04 
8 1 -3.587195417323e-05   5.067209194946e-05  -1.095766481360e-04 
8
Step 5000
1 1 -1.001947749941e-04  -9.490146252097e-05   8.119643252026e-05 
2 1  1.838086697880e-04   7.846383550051e-05  -4.527892582469e-06 
3 1 -1.235181171801e-04  -6.267804679706e-05  -8.534012746314e-05 
4 1  1.622386280845e-05  -3.340220780283e-04   3.676863192918e-04 
5 1 -1.441693019381e-04   8.486377333113e-05   4.656849218166e-05 
6 1 -1.087924858437e-04  -6.330132321024e-06   1.176719793257e-04 
7 1  1.310883545828e-04   1.323733183068e-04   3.660437318574e-05 
8 1  2.408742354809e-04   1.644048602796e-04  -2.387923051728e-05 
8
Step 6000
1 1 -9.596571867881e-05  -3.820569962989e-05  -1.849461872884e-05 
2 1 -1.906840703859e-04   4.474854083183e-05   6.332990365291e-05 
3 1 -1.196158852151e-04   7.522567369957e-05   5.319211523448e-05 
4 1  3.121476536532e-04  -2.930918629231e-05   1.338805320194e-04 
5 1  8.885142521764e-05   2.652559895171e-04   4.397414636665e-05 
6 1 -1.465161647812e-04   3.431681284816e-04  -2.108115153584e-04 
7 1 -2.554457627685e-04   1.426993709581e-04  -6.547969818049e-05 
8 1  2.034551108164e-04   1.314180815488e-04  -4.135341474865e-05 
8
Step 7000
1 1 -1.550059850859e-04  -1.272848698447e-04   1.152798890224e-04 
2 1 -2.156407974000e-04   1.613819775649e-04   5.253110030735e-05 
3 1  7.336103065389e-05   7.447822834897e-06   8.115419048242e-06 
4 1  1.621064004775e-05   1.479634106239e-04  -9.127779510273e-05 
5 1  1.724464568461e-05   9.144362456969e-05   1.072759298160e-04 
6 1  7.231427333838e-05   3.197616507913e-04  -1.705291155657e-04 
7 1 -2.361226979938e-04   3.217879000407e-04  -8.034820293008e-05 
8 1  2.163858725831e-04   1.947674947384e-05  -2.575866991362e-06 
8
Step 8000
1 1 -1.536819406212e-04  -2.456387339866e-04   1.707316329054e-04 
2 1 -3.202997267778e-04   1.239943427057e-04   5.015797421768e-05 
3 1 -2.964914111631e-05   8.453852547313e-05   2.310502253234e-04 
4 1  4.168543942719e-04   4.970932099045e-04  -3.531895124063e-04 
5 1  1.265724290593e-04   1.093952635644e-04  -2.017723924465e-04 
6 1  1.108971531025e-04   1.013400065785e-05  -3.265635801450e-04 
7 1 -1.277048618751e-04   1.714409160475e-04   5.071335612939e-05 
8 1 -6.963420879745e-05  -7.153398047738e-05   6.809819928108e-05 
8
Step 9000
1 1 -8.279640473736e-05   1.625354520132e-04   1.426291777972e-04 
2 1 -1.210674329435e-04   1.357026605307e-04   1.071019519786e-04 
3 1 -1.078669952118e-04   1.057719277363e-04   1.542380575392e-04 
4 1  1.778464768291e-04   9.458264441207e-05  -1.921539706033e-04 
5 1  2.436338889321e-05   7.033944923058e-05  -2.451178322956e-04 
6 1  1.344074581368e-04   1.741152471804e-04  -1.179959641990e-04 
7 1 -4.012505163786e-05   1.783867421480e-04   9.250051726947e-05 
8 1  2.434561406276e-04  -4.112786478611e-04   3.970099840828e-05 
8
Step 10000
1 1 -2.256220646834e-04   3.957152391280e-05   4.909484148778e-05 
2 1  5.795150980456e-05  -1.504524194526e-04   2.106751392321e-04 
3 1  6.935296876151e-06   1.760816059028e-04  -1.741869473459e-04 
4 1  1.736140671187e-04   1.800053120581e-04  -3.844879261056e-05 
5 1  4.579947192327e-04   1.374454559250e-05  -1.855203229514e-04 
6 1  3.488825092938e-04  -2.076970166838e-04  -1.345388853889e-04 
7 1 -3.258206486520e-05   7.864847038421e-05   2.455220597596e-04 
8 1  5.598440533805e-05  -1.572507375420e-04   3.350044964752e-04 
8
Step 11000
1 1  2.864502346830e-05   4.001662593622e-04  -9.976985708332e-05 
2 1  2.917848066085e-05  -3.828479372110e-05  -4.510610845482e-05 
3 1 -2.164433533274e-05   2.388728937720e-05  -1.248567846804e-04 
4 1  4.005531479415e-05   6.914570666141e-05   2.402040905956e-04 
5 1  1.145321453132e-04  -8.399316731482e-05  -1.371365320121e-04 
6 1  6.051091582129e-05  -2.590107931093e-04  -2.718297184405e-04 
7 1 -8.957986591487e-06   6.871047112513e-05  -1.096087351121e-05 
8 1 -1.975266841698e-04   1.214309710811e-05   1.042723229237e-04 
8
Step 12000
1 1  1.877595351184e-04  -6.587870640678e-05   2.292089285513e-05 
2 1 -1.217685685816e-04   1.495182013767e-04  -5.497742825515e-05 
3 1 -3.100036904474e-04   1.260644617223e-04  -2.884270253848e-04 
4 1  4.015016364375e-05  -6.088048859212e-05   3.822830519573e-05 
5 1  4.528513364369e-04  -2.970220751260e-04   1.229921243506e-04 
6 1  2.566885420097e-05  -6.641657732532e-05  -2.071360010358e-04 
7 1  8.840778523985e-05  -5.444903598062e-05   4.815231486807e-05 
8 1 -2.176590262640e-04   1.368731320366e-04   1.056148422813e-04 
8
Step 13000
1 1  1.878896297661e-05   5.480679729130e-05  -2.041177836467e-04 
2 1 -1.260931625961e-04   6.050537255077e-05  -6.249322655588e-06 
3 1 -2.198327629995e-04   9.267958142541e-05   6.864743125027e-05 
4 1  4.189152373196e-06  -8.101124647983e-05  -7.110945318380e-05 
5 1 -1.210712742246e-05   6.369499374945e-06   7.283248238737e-05 
6 1 -1.696851512627e-04  -1.410630242193e-04  -1.481997266154e-04 
7 1  2.703926979253e-04   1.698660923124e-04   2.518062480920e-05 
8 1 -6.362469662472e-05   1.900758828392e-04  -4.748654021675e-05 
8
Step 14000
1 1 -6.909410025794e-07   3.761963474246e-04  -1.695809190344e-04 
2 1  1.762199442793e-04   3.045406279174e-05  -3.829227907958e-05 
3 1 -1.170730913367e-04  -3.279222227163e-05   4.602973060530e-05 
4 1  7.471111539113e-05  -1.067602457831e-04  -2.630838893878e-04 
5 1 -1.048789425078e-04   5.811709293863e-05  -1.247678849304e-04 
6 1 -3.679085592277e-05  -1.258765015620e-04   2.811108086772e-04 
7 1 -1.084797663990e-04   1.247986437252e-04  -3.620011778799e-04 
8 1 -3.511182837991e-05  -1.739482558333e-04  -7.158600472968e-05 
8
Step 15000
1 1  2.751853149204e-05   7.414811582043e-06  -1.337001478674e-04 
2 1  3.032626456729e-05  -4.243916663250e-05   7.504079583217e-06 
3 1 -1.258859418040e-04  -5.622986743268e-05   3.839539542469e-05 
4 1 -1.076818376072e-04  -1.097289050772e-04  -3.255868918007e-04 
5 1 -2.307213595170e-04  -2.500552104903e-05  -1.722867678821e-04 
6 1  2.688886133997e-04   2.562709348663e-05   1.336028536940e-04 
7 1  1.407955093319e-04  -3.318337968854e-05  -2.199701401225e-04 
8 1  1.800891343623e-04  -7.219012859490e-05  -1.035609815778e-04 
8
Step 16000
1 1  1.982199071900e-04   1.411629463232e-04  -2.320501139985e-05 
2 1  1.386980695385e-04  -6.345989206061e-05   1.199051252535e-04 
3 1  3.289039758110e-04   2.195799370342e-05  -2.649086489095e-04 
4 1  4.658549370515e-05  -5.118318398613e-05  -4.910900791172e-05 
5 1 -8.735402610505e-05   2.625701604299e-04  -7.797411485009e-05 
6 1 -1.660144139905e-05   9.287904827807e-06   4.356440680562e-05 
7 1  5.740781233129e-05  -1.905673772142e-04  -6.953614567039e-05 
8 1  2.264578062682e-04   1.681051230217e-04  -1.736018253786e-05 
8
Step 17000
1 1 -1.054206047628e-04  -2.811980179855e-04  -2.447304442379e-04 
2 1  2.131835550642e-04  -6.384943600766e-05   1.752314613885e-04 
3 1  2.086535395555e-05   2.289447241975e-04  -3.668253889073e-04 
4 1  1.919495580512e-05  -8.470669069404e-05   1.296242764714e-04 
5 1 -2.528960600168e-04  -2.992905591563e-05  -1.676636099913e-04 
6 1 -1.079298891440e-04  -1.057510282729e-04  -2.116058268433e-05 
7 1  2.749083111605e-04  -3.748422921600e-05  -4.100708319679e-05 
8 1  1.496595431181e-04   1.539165561935e-04  -1.398345084499e-06 
8
Step 18000
1 1 -3.526765352387e-05  -2.688391963168e-04  -1.085086563767e-04 
2 1  3.754383882412e-04  -8.520308084909e-06   9.034851483359e-05 
3 1  1.441523479032e-04   2.372212612004e-04  -1.935730821906e-05 
4 1  7.527218433997e-05  -4.605320224398e-05   9.017531675827e-05 
5 1 -1.285942627607e-04  -6.335508982597e-05  -6.395492826067e-05 
6 1 -2.004873570735e-04  -1.556228307662e-04   1.102300283362e-05 
7 1  3.026966410656e-04   1.494406989848e-04  -2.217580411366e-05 
8 1  3.228617065229e-04  -1.404226494627e-04   1.061866621786e-04 
8
Step 19000
1 1 -2.519847285520e-04   7.716496308874e-05  -5.918080414198e-05 
2 1  8.054841747729e-05  -5.452149532752e-05   1.024327856767e-04 
3 1  1.847631327971e-04  -7.062075472623e-05   1.975865274544e-04 
4 1  2.271129565205e-04  -1.793767031422e-04   9.699292424973e-05 
5 1 -7.533788768616e-06   1.303515265840e-04   4.597938388318e-06 
6 1 -1.043218819358e-04  -1.250200744743e-04   8.331833655542e-05 
7 1  9.505748276162e-05   2.378303175969e-04  -1.433423504838e-04 
8 1  1.506818343134e-04   3.239593782221e-06   7.559327530095e-05 
8
Step 20000
1 1  1.544787812673e-04  -6.931308510963e-06  -2.666637334784e-04 
2 1  1.196060648610e-04  -1.647065654426e-04   1.760598242316e-04 
3 1 -7.198591354306e-06  -1.595914639706e-04  -1.261990031085e-04 
4 1  4.979576614986e-05  -1.914377745650e-04   8.108749308969e-06 
5 1 -8.975177144824e-05  -6.167190822212e-05   1.010634947690e-04 
6 1 -2.008112750222e-04   9.453489310879e-05   2.339402054753e-04 
7 1 -1.183867258933e-04   3.794673007579e-05   3.181093033576e-06 
8 1  5.503130899980e-06  -1.879343793088e-05   2.318143521844e-04 
8
Step 21000
1 1  1.635735339829e-04   1.094363727413e-04  -1.306397625589e-04 
2 1 -7.458192693712e-05  -4.481055188891e-06   2.711949509951e-04 
3 1  6.067176254004e-05  -1.228356619578e-04  -1.197302505497e-04 
4 1 -1.669896184131e-05  -2.040310769494e-04   5.096929940728e-05 
5 1  2.457963163852e-04  -7.424890806760e-05   5.434354342802e-05 
6 1 -8.896771870304e-05   1.948797477458e-05   1.260562897326e-04 
7 1 -1.274843044281e-04  -7.629365625341e-06   1.521821525060e-04 
8 1  3.537405254085e-05   2.821999683290e-05  -1.291905490231e-04 
8
Step 22000
1 1  1.274332999780e-04   4.896482032512e-05  -4.118701867038e-05 
2 1 -3.562161961509e-04  -1.125072932133e-04  -1.217210730849e-04 
3 1 -1.311747639360e-07   3.971971628099e-05  -3.957061852591e-05 
4 1  9.888750741489e-05  -7.940438483795e-05   1.014411133345e-04 
5 1 -3.414087691957e-05  -2.413661642987e-04   2.114756734351e-04 
6 1 -3.528879535616e-05  -1.452185915965e-04   2.220825689565e-08 
7 1 -1.935025525472e-04  -2.033077090040e-05   2.369934618284e-04 
8 1  2.830695828202e-05  -3.307224350322e-04  -8.115826138666e-05 
8
Step 23000
1 1  1.802092211473e-04  -8.689940679175e-05   6.077627573373e-05 
2 1 -1.397257657067e-04  -8.770735317520e-05  -1.602996409046e-05 
3 1 -1.976578030743e-04   1.693160071452e-04   9.508634977499e-05 
4 1  2.401392853696e-04  -2.192705165909e-04   1.608268966615e-04 
5 1  3.540989992286e-04  -3.928025270070e-05   1.352746193359e-04 
6 1 -2.929877259723e-05   8.625797295961e-05   3.084947547746e-05 
7 1  1.543327038406e-05  -1.130792904964e-04   1.300194582578e-04 
8 1 -2.178026626710e-04   1.514328459812e-04  -1.534567487478e-04 
8
Step 24000
1 1  1.227249422165e-04  -1.337021565860e-04  -2.188015918619e-04 
2 1 -8.345063417181e-05  -3.667198680099e-05  -2.500498896889e-04 
3 1 -1.614193584893e-04   4.761442413640e-05   3.908701285753e-05 
4 1  7.489982039613e-05  -2.129944132321e-04   1.466082323926e-04 
5 1  1.476763445543e-04   2.933630235421e-04   3.854439814298e-05 
6 1  4.017862336451e-06   5.421336748800e-05  -2.257224811151e-04 
7 1 -1.552921408381e-04  -3.134775844159e-05  -1.117708189118e-04 
8 1 -5.965799760324e-05   8.500658104843e-05  -2.315907834314e-05 
8
Step 25000
1 1  1.999473178753e-04   1.860051117245e-04   2.379861212361e-04 
2 1 -4.157688616863e-05  -8.869848845384e-05  -2.997136834506e-04 
3 1  1.085351650584e-04  -3.117440187925e-05  -6.409004872186e-05 
4 1  8.402104940698e-05   4.399940185214e-05   1.692275254181e-04 
5 1  2.493662401062e-04  -3.594249059023e-05   6.835084662973e-05 
6 1  1.582871971221e-04  -1.309353072033e-04  -1.248635919636e-04 
7 1 -1.386345503872e-04   9.688174288806e-05   3.171543646189e-05 
8 1  1.302421689062e-04   3.244450772908e-04  -1.156918750699e-04 
8
Step 26000
1 1  4.119031394911e-05   1.702789235228e-04   2.074311737920e-04 
2 1 -1.320516362248e-04  -1.171992475219e-04  -3.719204185844e-04 
3 1 -4.395087352259e-05   1.166542649624e-04  -1.482282939660e-04 
4 1  5.318541965427e-05   2.559603846991e-04   1.099625203853e-06 
5 1  1.755862455437e-04   1.113466946602e-04  -2.609250919651e-04 
6 1  1.886494124601e-04   2.277072127294e-06  -1.456722593069e-04 
7 1  1.006386295827e-04   1.983494441677e-05   1.589560369062e-05 
8 1  7.168602224675e-05   3.805826353416e-06  -2.575632189760e-04 
8
Step 27000
1 1  2.265595897798e-06  -1.165419999246e-04  -6.876291289339e-05 
2 1 -1.197738476293e-04  -3.850837838816e-05  -9.333370726474e-05 
3 1  1.390539567894e-04  -3.998410827492e-06  -5.153561627233e-05 
4 1  3.235278701320e-04   7.466320071322e-05  -3.384326142409e-06 
5 1  7.097577115232e-05  -1.544856283294e-05  -3.296251136468e-05 
6 1  2.428084150834e-04  -1.997799045493e-05  -1.235009137426e-04 
7 1  1.962044668910e-04  -1.423195668051e-04   8.516034977205e-05 
8 1  1.774827184549e-04  -1.817611364511e-04   9.771061463160e-05 
8
Step 28000
1 1  6.856100673689e-05  -8.617699498111e-05   1.155302969518e-04 
2 1 -1.575803805919e-04  -1.652083790951e-05  -2.551682606245e-04 
3 1  2.333936966393e-04  -3.006667976358e-06   2.043484063087e-06 
4 1  1.272623278428e-04   3.176024141469e-05  -8.333304002481e-05 
5 1  9.855662848985e-05   8.508115443491e-05  -1.777663539571e-04 
6 1  1.780850213260e-04   4.376129546475e-05  -1.471794749150e-04 
7 1  5.592826294362e-05  -1.352703737292e-04  -1.039162890792e-04 
8 1  1.989820007507e-04   5.348704450207e-06  -1.234829707093e-04 
8
Step 29000
1 1 -3.982983204455e-05  -1.480504602131e-05   6.708722877406e-05 
2 1 -2.440374169387e-05  -2.299409253790e-04  -1.138884687782e-04 
3 1  1.703938585694e-04   3.504646726327e-05   1.236672994878e-04 
4 1  1.420258493227e-04  -2.205327951658e-04  -4.006156110142e-05 
5 1  2.769900708747e-04   1.276829563215e-05  -3.946679413759e-05 
6 1  7.068322701297e-05  -4.005656850543e-05   7.064403073831e-05 
7 1 -3.737607146319e-06  -1.511793147320e-04  -7.373342693060e-05 
8 1  4.143752013640e-04  -1.518109657735e-04  -2.294810024633e-05 
8
Step 30000
1 1 -1.610884337734e-04  -1.546415424464e-04   5.723963326671e-05 
2 1 -7.339589022854e-06   4.998294845658e-05   7.045947431750e-05 
3 1  1.166043549977e-04  -1.342856504688e-06   3.995721880971e-05 
4 1  6.229816421036e-06  -1.273118360873e-04  -2.313421258030e-05 
5 1  6.506073960907e-05  -2.557285401834e-04  -1.290974937199e-04 
6 1  1.378469046821e-04   5.871997348068e-05  -2.436165991355e-05 
7 1  1.211161417921e-04  -3.399537943765e-04   1.665773962053e-04 
8 1  3.525754499450e-05  -1.546487682778e-04   5.926771303829e-05 
8
Step 31000
1 1 -2.085523290680e-04  -4.225581459931e-05   1.045793347946e-04 
2 1  2.779924935391e-04  -6.138548598118e-05  -4.627395477857e-05 
3 1  1.401974826125e-04  -1.572570558394e-04  -6.071470372019e-05 
4 1 -1.884168080453e-04  -2.561187194986e-04   3.531037660843e-06 
5 1 -7.140991969151e-05  -1.071786214823e-06  -2.848246494445e-05 
6 1  4.532645139105e-04   5.157541100805e-05  -1.066294331818e-04 
7 1  1.041117678413e-04   6.969922628049e-05   3.251341985894e-04 
8 1 -7.093825996020e-05   1.020920491038e-04   7.675601231876e-05 
8
Step 32000
1 1 -8.073473239375e-05  -2.466700903987e-04   4.297772178589e-05 
2 1  2.591215436235e-04  -2.154367020491e-04   3.852067697973e-05 
3 1  1.424511586963e-04  -1.733744221759e-05   1.586726172189e-04 
4 1 -1.417780289839e-04  -3.705300124797e-04  -1.395866400420e-04 
5 1  5.322648189804e-05  -4.201320153594e-06   6.248880442394e-05 
6 1 -1.701088553929e-06   7.806772383134e-05  -1.302944386094e-04 
7 1  3.795984328004e-04   7.176228801275e-05   2.290756817214e-04 
8 1 -1.083924663108e-04  -6.973707636412e-05   1.227575807744e-04 
8
Step 33000
1 1  1.131401372717e-05   1.170139194935e-04  -3.930120487114e-05 
2 1  6.427237991972e-05  -1.443361221010e-04   7.714700016098e-05 
3 1  3.880627562633e-04  -1.569041903316e-04   1.890010026266e-04 
4 1 -1.722291723251e-05   7.477774368895e-06   1.872230136805e-04 
5 1  8.518265042470e-05   8.901356678636e-05   4.840568214556e-05 
6 1 -1.261555658764e-04   3.819295760292e-05  -1.321595104814e-04 
7 1  1.642765700581e-04   1.428636240395e-05   1.253111098354e-04 
8 1  3.868032886224e-05   5.378118579412e-05  -2.211663716823e-04 
8
Step 34000
1 1 -1.205838271229e-04   1.082100843482e-04  -2.243494439814e-05 
2 1 -1.559701563937e-05  -1.255017317312e-04   3.790207428872e-04 
3 1  1.434737844298e-05   7.505114072242e-05   8.776695276034e-06 
4 1 -1.244397032710e-05  -1.638933506664e-04   2.954617260039e-05 
5 1  1.555919688744e-04  -1.604740474580e-04  -1.024074520125e-04 
6 1 -5.601448828718e-06   7.415940972666e-05   7.832373542360e-05 
7 1 -1.592934636231e-04  -8.233648757754e-05  -7.833400997295e-07 
8 1  1.886997335078e-04  -2.951654825430e-05  -7.325947620297e-05 
8
Step 35000
1 1 -6.605090731186e-06   2.435230203206e-04   1.538366440184e-04 
2 1  6.561416574760e-05   2.153009309022e-04   9.488818454630e-05 
3 1  2.299609358554e-05   1.497871464785e-04  -1.021656128660e-04 
4 1 -6.489879173093e-05  -1.310836902437e-04   6.466613553817e-05 
5 1  1.132396910041e-04   4.136140857639e-05   1.813983822540e-04 
6 1 -1.484681068275e-04   3.012062816412e-06   1.038302360696e-04 
7 1 -2.083018957207e-04   1.465809000307e-04  -1.787667049194e-04 
8 1 -9.770432993646e-05  -7.956452843495e-06   1.433688074104e-04 
8
Step 36000
1 1  1.744659632596e-04   6.441395133593e-05   3.187383459069e-04 
2 1 -7.688520000996e-05   1.106770547281e-04   1.627536437436e-04 
3 1  1.687856360163e-04  -1.280643091570e-04   7.615199275385e-05 
4 1 -1.364609448796e-04   2.770616900759e-05   1.526682672327e-04 
5 1 -1.988629058060e-04   8.538560944441e-05   1.401808166297e-04 
6 1 -3.373328347337e-04   9.870627836055e-05   9.338946520460e-05 
7 1 -9.644463295013e-05   1.816880235640e-04  -5.434495995611e-05 
8 1 -6.915094192765e-05   5.289889053497e-05   1.662682695529e-04 
8
Step 37000
1 1  1.405116241863e-04   2.859966930512e-04  -1.653548615333e-04 
2 1  9.224916729229e-05   3.608039415283e-04   1.640521652937e-04 
3 1 -5.183387119970e-05   1.595378708587e-04   1.474425538102e-05 
4 1 -3.508192567634e-04   1.305899748584e-04   7.152557139127e-05 
5 1  2.833831131988e-04  -2.160342996003e-04   2.079798140117e-04 
6 1 -1.310770150165e-04  -1.418176091437e-04  -3.954263202686e-05 
7 1 -2.724672334112e-04  -1.629326635796e-04   2.047963098693e-04 
8 1 -2.247291882963e-04  -2.114206685895e-04  -1.289787623874e-04 
8
Step 38000
1 1  1.030820302446e-04  -2.815588060882e-05  -1.695600791065e-05 
2 1  1.014945432000e-04   2.430107715565e-04   1.665502135651e-04 
3 1 -2.588649961868e-04  -9.077980805725e-05   2.296589310714e-04 
4 1 -5.125113555848e-05   1.402463699994e-04   3.220923187629e-04 
5 1  1.659101235415e-04   8.975449613682e-05   7.652654176994e-05 
6 1 -2.065555340862e-04  -2.325329885857e-05   1.772558150573e-04 
7 1 -8.958045818669e-05   4.201327162419e-05   6.738514638250e-05 
8 1 -2.299048376016e-04   1.299031416416e-04  -3.953113812953e-04 
8
Step 39000
1 1  2.328950114814e-04   2.339126375482e-04  -1.844364418955e-04 
2 1 -5.778585135440e-06   1.282271313521e-04  -1.071448875790e-04 
3 1  8.225975494892e-06  -6.769248327816e-05  -6.825702450966e-05 
4 1 -3.931723306258e-05   6.488782024792e-05   1.601101515058e-04 
5 1  2.704349865957e-04   1.026842434691e-04   8.343341230704e-05 
6 1  1.913471401841e-04  -1.649458191025e-04   1.938811640212e-04 
7 1  3.656405355842e-05   3.223944161075e-05  -1.824299947631e-04 
8 1  1.632698061086e-05  -3.118593659905e-05  -4.913741748761e-05 
8
Step 40000
1 1 -1.000586271016e-04   1.662408578608e-04  -1.469407966086e-04 
2 1  3.804757965208e-05   1.069819969435e-04   3.617078974489e-05 
3 1  2.449581855125e-04  -2.974044652757e-04  -1.900563889624e-04 
4 1 -5.497583819339e-05   2.759333351869e-04   6.291287383641e-05 
5 1 -4.305002719339e-05   1.139744550051e-04   1.248335828072e-04 
6 1  1.765186316006e-04   6.078220077857e-05  -1.058766886170e-04 
7 1 -1.212116607107e-04   1.300337536694e-04  -3.138490713890e-05 
8 1 -1.522364051338e-04  -7.811525287419e-05   1.592111173750e-04 
8
Step 41000
1 1 -1.124286278615e-04   6.992143607084e-05  -1.786132552622e-04 
2 1 -1.522845432589e-04   3.463378329277e-05  -5.524288848757e-05 
3 1 -1.846239304051e-05  -7.551204402713e-05  -9.563706007459e-05 
4 1 -2.808327153002e-05  -4.871255110747e-06   1.030707172305e-04 
5 1  3.296183324259e-05   5.725282519272e-05   1.327416989675e-04 
6 1  3.179941665206e-04  -1.646564268951e-04  -1.649131750889e-04 
7 1  1.861837933270e-04   1.780308262406e-04  -1.311813602411e-05 
8 1 -3.975393777391e-05  -1.039848202548e-04  -7.920616953042e-05 
8
Step 42000
1 1 -3.608541759484e-05  -2.489579361174e-05  -9.260834330221e-05 
2 1 -1.700084725917e-04  -1.941632099937e-04  -1.675804572604e-04 
3 1  2.397293249232e-05   1.201301160788e-04  -1.579811713408e-04 
4 1  3.719502676066e-05   1.743105264413e-05   5.014605902709e-05 
5 1  2.806088677769e-04   8.528846019846e-05   1.711024217615e-04 
6 1 -3.793994456659e-05  -1.781136996459e-05  -8.082818175406e-05 
7 1  1.948336711573e-04   4.940583644520e-05  -1.285956073576e-04 
8 1 -1.516894877593e-04  -1.190986864070e-04   1.032486387948e-04 
8
Step 43000
1 1 -2.379480822824e-05   5.482397803576e-05  -1.525748527921e-04 
2 1 -2.532009053715e-04  -1.527887817809e-04   5.265329368024e-05 
3 1 -2.790646127390e-05   2.275262844992e-04  -5.252230318073e-05 
4 1  1.352783034131e-04  -1.795941727088e-04   4.493326621885e-05 
5 1  1.077088194327e-04  -4.429852864622e-05   7.500435204524e-05 
6 1  1.275039101763e-04   5.345977777279e-05  -2.818582562180e-04 
7 1  2.729495694948e-04   1.635340490144e-04  -6.043550656719e-05 
8 1  1.014786954881e-04   9.247357648478e-05   1.144829169937e-04 
8
Step 44000
1 1 -1.131260389707e-04   1.572327474535e-05  -5.584130694336e-05 
2 1 -1.408473087417e-04  -1.893186388982e-04   1.641006891497e-04 
3 1 -1.869738686839e-04   3.351503463264e-06   1.963526695223e-04 
4 1  2.274442358041e-04   3.243235889971e-04  -8.889921158240e-06 
5 1 -8.619124242906e-05   5.591647509749e-05   1.926054271733e-04 
6 1  2.280314880884e-04  -3.823614270809e-05  -4.988806027705e-06 
7 1  2.245288196987e-04   1.800429553702e-04  -7.767764434280e-05 
8 1  3.906303417328e-04   4.172002167094e-05  -7.512948359689e-05 
8
Step 45000
1 1 -8.029516770870e-05  -3.031021386419e-04  -1.384562749457e-04 
2 1 -1.036214789398e-04  -3.493425343254e-05  -3.962126942996e-05 
3 1  5.049529530644e-05   3.515833624658e-05   1.321307160165e-04 
4 1  4.550323461952e-04   1.077989896141e-04  -3.050425188719e-04 
5 1 -1.159155825445e-04   1.260839770978e-05   6.596563899415e-05 
6 1  2.423492087200e-05   2.774764177650e-05   9.222847589964e-05 
7 1  1.548098613939e-04   8.148966683358e-05  -7.124351844792e-06 
8 1  1.880494989026e-04  -5.180682591142e-05  -4.008989732344e-04 
8
Step 46000
1 1  1.595798914680e-04  -2.153957239717e-05  -8.063962331699e-05 
2 1  1.453991416938e-04  -4.168917508107e-05  -7.312680741049e-05 
3 1  1.064026293823e-04   1.656340279470e-04   1.327765245583e-04 
4 1  4.170742079554e-06  -6.866185338154e-05  -2.019625772671e-05 
5 1 -1.688066305823e-04   1.324588998514e-04   2.903862918642e-05 
6 1 -1.647097789418e-04  -1.331641093614e-05   1.496546819744e-05 
7 1  1.318547917593e-04   1.223586594007e-04   4.108132381552e-05 
8 1 -4.458547586693e-05   2.523259612084e-05  -1.282633989125e-04 
8
Step 47000
1 1  3.314560441576e-06  -1.504045862446e-04   9.383365793732e-05 
2 1  1.870551615779e-04  -1.350053625033e-04   7.982192322697e-05 
3 1 -3.935658343144e-05  -4.930359001961e-05   7.904666103492e-05 
4 1  7.496873891505e-05  -1.580815820600e-04  -8.605498043332e-07 
5 1 -1.158046576679e-04   1.198831223541e-04   1.215657959602e-04 
6 1  4.378568985800e-05   7.146600822183e-05  -9.899212126297e-05 
7 1 -1.524412308835e-04  -9.206586009187e-05  -1.086058227369e-05 
8 1  1.762171796789e-04  -2.071314623260e-05  -2.559003914135e-04 
8
Step 48000
1 1  1.133315829560e-04  -2.800980665592e-04  -2.276653037238e-04 
2 1  2.598025625267e-04  -2.301279914322e-04  -9.247868557866e-05 
3 1 -2.038349629437e-04  -1.115297246059e-04  -4.018290826737e-05 
4 1 -1.628216321128e-04   1.034031890651e-04  -4.400692833363e-05 
5 1 -1.662779699937e-04   2.197864373029e-04   2.354430807647e-04 
6 1 -1.502711643495e-05   3.139150485701e-04  -2.927639108595e-04 
7 1 -7.033491025829e-05   1.318090443398e-04   5.689053403322e-05 
8 1  1.103878761264e-04  -1.869351437646e-04   5.757255011141e-05 
8
Step 49000
1 1  1.592986508147e-04  -1.602988686991e-04  -4.223541059005e-05 
2 1  1.446794874213e-04  -2.835499733926e-04  -3.880308181818e-05 
3 1 -1.658572666467e-04  -1.234229067054e-04   1.804442958596e-04 
4 1 -8.539571823075e-05   1.574977727812e-04   1.540636975534e-05 
5 1  1.905136183311e-04   1.704375595380e-04   2.452095577315e-04 
6 1  2.744828490942e-04   5.675870302981e-05  -2.935127578527e-04 
7 1 -2.330725154333e-04  -7.948746833917e-05  -3.973275012191e-05 
8 1  1.914840678935e-04  -1.973759579377e-05   2.617135741678e-05 
8
Step 50000
1 1  1.214723929944e-04  -6.825127854045e-05  -6.637582756055e-05 
2 1  1.653134547457e-04   8.600296961982e-05   3.643529120749e-05 
3 1 -4.820895616760e-05  -1.673680814847e-04  -4.612212108430e-05 
4 1 -8.189358042689e-05   8.240047804549e-05   1.963583674005e-04 
5 1 -8.262540020375e-05   1.586543355927e-04   1.213668781208e-04 
6 1  3.385816479694e-04   1.817551091461e-04  -6.983471055138e-06 
7 1 -3.181977939070e-04   1.610302251621e-04   2.554819871832e-05 
8 1  4.012659832409e-05  -1.583281474128e-04   2.895678075362e-04 
8
Step 51000
1 1  1.792891980458e-04   1.343117015931e-04  -1.346282973214e-04 
2 1 -1.384737727950e-04   1.165098965051e-04  -1.447059315387e-04 
3 1  5.957549352279e-05  -1.454300731811e-04   2.235102649102e-07 
4 1  4.019446913748e-05   2.302405969914e-04   2.281292764163e-04 
5 1  2.657785897453e-05   3.417521510122e-04  -6.078769287967e-05 
6 1  5.431822734405e-05   3.404155346651e-05   1.633100911304e-04 
7 1  6.261569564226e-05  -2.079434703666e-05   5.086608354091e-05 
8 1 -1.680418757190e-04  -3.929663738269e-05   1.371437956206e-05 
8
Step 52000
1 1  3.767267005198e-04  -4.389993589865e-05   2.119352273313e-05 
2 1  4.832553647174e-05   1.437054442748e-04  -1.522951335557e-04 
3 1  4.277578227020e-05  -1.723586658906e-04  -1.838079024283e-05 
4 1 -5.274192216553e-05  -6.899698815408e-05   8.425438073563e-05 
5 1  1.017909915253e-04   9.317687897680e-05  -3.207091156087e-05 
6 1  2.936369319705e-04  -2.665971266189e-05  -2.865055384555e-05 
7 1  8.249075643930e-05   3.125454500236e-05   2.284373083199e-04 
8 1 -1.058632864832e-04   4.037453257445e-05   1.243448221932e-04 
8
Step 53000
1 1  3.312774987682e-05   2.378114488811e-04  -1.785598821983e-04 
2 1  1.048556830134e-04  -4.563342924486e-05  -8.750321713476e-05 
3 1  4.892616010642e-05  -1.612506643149e-04  -3.095323937465e-04 
4 1 -3.452980675597e-05   1.617223791851e-04  -1.280029290692e-04 
5 1  2.773621754699e-04   4.239971187416e-05   2.556473954132e-06 
6 1 -3.035110116856e-05  -4.386761537605e-05  -5.288118131752e-05 
7 1 -9.543418409073e-05   1.620705205505e-04   1.122379895707e-04 
8 1  1.356969753940e-04   4.717178279759e-05  -7.422918067838e-05 
8
Step 54000
1 1  1.721000180752e-04   2.486385276671e-04   1.898637540303e-05 
2 1  3.634577015207e-04  -1.322701006992e-04  -5.182656236849e-06 
3 1 -1.501746429574e-04  -2.354819818004e-04  -2.328072229933e-04 
4 1 -1.103424975949e-04   2.744984972792e-05  -5.537278049281e-05 
5 1  1.331194767239e-04   7.120498875139e-05  -2.760146396863e-05 