8
Step 0
1 1  0.000000000000e+00   0.000000000000e+00   0.000000000000e+00 
2 1  0.000000000000e+00   0.000000000000e+00   0.000000000000e+00 
3 1  0.000000000000e+00   0.000000000000e+00   0.000000000000e+00 
4 1  0.000000000000e+00   0.000000000000e+00   0.000000000000e+00 
5 1  0.000000000000e+00   0.000000000000e+00   0.000000000000e+00 
6 1  0.000000000000e+00   0.000000000000e+00   0.000000000000e+00 
7 1  0.000000000000e+00   0.000000000000e+00   0.000000000000e+00 
8 1  0.000000000000e+00   0.000000000000e+00   0.000000000000e+00 
8
Step 1000
1 1  3.622960553293e-05  -6.410902569984e-05   4.269751815514e-05 
2 1  1.595429801412e-04  -8.570947710395e-05  -1.623828806743e-04 
3 1 -2.413812447124e-05   1.283789113543e-04  -5.792083320814e-05 
4 1 -1.580387371227e-06   1.029714315989e-05  -1.514365311836e-04 
5 1 -6.007748617987e-05   6.061983680090e-05   2.469137774052e-05 
6 1 -6.655235459313e-05  -1.861253360714e-04   1.440489252979e-04 
7 1 -5.813142265724e-05   7.991664936929e-07   8.543276981165e-05 
8 1  2.378060654088e-06  -7.083982773741e-05  -1.820816358493e-04 
8
Step 2000
1 1 -5.002340218325e-05  -6.168304316744e-06   6.815423460793e-05 
2 1  1.084155352567e-04   5.421885059920e-05  -1.344711904145e-04 
3 1  2.690726771064e-05   8.610377757806e-05  -9.185938097764e-05 
4 1  1.854582016715e-05   1.278289628524e-05  -9.562860770234e-05 
5 1 -9.638101396029e-05   4.961686666288e-05  -5.804272811363e-05 
6 1 -1.373280345437e-04  -1.609203354689e-04   9.708015144128e-05 
7 1 -1.226858232320e-05   5.684115277230e-05   5.584018258867e-05 
8 1  2.928299946891e-06   2.523869203770e-05  -1.436607076303e-04 
8
Step 3000
1 1 -1.167167590195e-04   5.279294309308e-05   5.500276347541e-05 
2 1  1.034846267602e-06   1.580028626509e-04  -4.706855990059e-05 
3 1  6.936137344078e-05   1.871336359732e-05  -7.766039919201e-05 
4 1  2.996603357120e-05   1.432987636046e-05  -1.058953172710e-05 
5 1 -9.368205640243e-05  -4.918231154869e-06  -1.020125606609e-04 
6 1 -1.591427337309e-04  -8.123763181177e-05   1.988405782469e-05 
7 1  2.960223682403e-05   8.516412860253e-05   9.450771823561e-06 
8 1 -4.678642210070e-09   1.078437158476e-04  -4.069935509678e-05 
8
Step 4000
1 1 -1.373987623593e-04   8.295759058857e-05   1.971097131790e-05 
2 1 -9.817207343581e-05   1.753338600700e-04   5.273857031717e-05 
3 1  8.907166668143e-05  -4.870471911852e-05  -2.997286323225e-05 
4 1  3.982385115531e-05   8.454595736499e-06   5.983939146429e-05 
5 1 -6.264903393693e-05  -4.066535958945e-05  -8.673869168570e-05 
6 1 -1.279245267160e-04   1.050915093321e-05  -5.256717372938e-05 
7 1  4.615953625244e-05   7.646879120488e-05  -4.037047879826e-05 
8 1  1.681714189452e-05   1.199893396605e-04   6.112581636652e-05 
8
Step 5000
1 1 -1.061326367196e-04   6.002246384364e-05  -2.089029703294e-05 
2 1 -1.363905989575e-04   1.185593683123e-04   1.105448767877e-04 
3 1  8.305398764884e-05  -8.972885263376e-05   2.710250892605e-05 
4 1  4.928296260344e-05  -9.510290674023e-06   8.816032283800e-05 
5 1  2.953829181079e-06  -4.470288655323e-05  -3.967786247044e-05 
6 1 -5.814881497444e-05   7.147326547716e-05  -9.022868965106e-05 
7 1  4.118269024013e-05   3.806751345952e-05  -7.830125833615e-05 
8 1  2.865775691251e-05   8.437490638137e-05   1.224584861525e-04 
8
Step 6000
1 1 -3.192289731044e-05   1.944883532005e-05  -7.603716974728e-05 
2 1 -1.084184039578e-04   1.529408421188e-05   1.225833211187e-04 
3 1  5.317293930173e-05  -9.648084012382e-05   6.581836294542e-05 
4 1  5.107527523641e-05  -3.415965406743e-05   7.509201396404e-05 
5 1  7.495599858987e-05  -2.416784154964e-05   2.416028446168e-05 
6 1  1.837105192959e-05   8.269722948077e-05  -8.668531130565e-05 
7 1  2.266760652741e-05  -9.379359806214e-06  -9.004660258235e-05 
8 1  3.533729493612e-05   2.816622026983e-05   1.226867922653e-04 
8
Step 7000
1 1  5.040925384981e-05  -1.186588037729e-05  -1.125678853996e-04 
2 1 -3.829635264948e-05  -8.245411965500e-05   9.276043124457e-05 
3 1  8.644116772968e-06  -7.623694021875e-05   6.321441682468e-05 
4 1  3.651586965488e-05  -5.228631395148e-05   4.045066100861e-05 
5 1  1.114997898877e-04   2.086794265598e-05   7.116629959435e-05 
6 1  7.342599165349e-05   5.312770451394e-05  -5.556608236624e-05 
7 1  2.424130561818e-06  -4.188078123043e-05  -7.196063335711e-05 
8 1  4.248812252089e-05  -2.921309550045e-05   8.152012827585e-05 
8
Step 8000
1 1  9.919890797007e-05  -2.786214043802e-05  -9.237688388831e-05 
2 1  4.321171702547e-05  -1.265492168729e-04   3.877746552295e-05 
3 1 -3.558384841302e-05  -3.965035604469e-05   2.870279182111e-05 
4 1  8.254029240397e-07  -4.904028475070e-05   5.808249751671e-06 
5 1  1.054479686362e-04   5.968529308340e-05   7.509624400520e-05 
6 1  9.613840184751e-05   8.073448455014e-06  -1.809682069483e-05 
7 1 -8.267091913316e-06  -4.861832065497e-05  -3.164941029519e-05 
8 1  2.519875783651e-05  -5.231061610804e-05   2.072795505154e-05 
8
Step 9000
1 1  9.679406286690e-05  -2.526723447170e-05  -1.717058331260e-05 
2 1  9.317737741584e-05  -1.030849379701e-04  -1.131135037684e-05 
3 1 -6.376746696294e-05   2.964643357612e-06  -1.682023289744e-05 
4 1 -4.831577731766e-05  -1.662326633840e-05  -1.296552446532e-05 
5 1  6.023171112518e-05   7.169950474191e-05   4.389439754157e-05 
6 1  8.691308253271e-05  -2.758055973745e-05   8.687028642750e-06 
7 1 -8.404370020217e-06  -3.653138043684e-05   1.402020479901e-05 
8 1 -1.892488434159e-05  -3.922938735885e-05  -3.578531499549e-05 
8
Step 10000
1 1  5.639407255550e-05   2.234970802277e-06   6.913332233177e-05 
2 1  8.517897755808e-05  -3.290568411634e-05  -3.703509566046e-05 
3 1 -6.760130000252e-05   3.265645663471e-05  -5.148825881998e-05 
4 1 -9.265677868281e-05   3.843697540809e-05  -1.093857037538e-05 
5 1 -5.904728441031e-06   4.783957862933e-05  -2.902870056020e-06 
6 1  5.236953433272e-05  -3.916165671582e-05   1.824472274386e-05 
7 1 -6.603646007852e-06  -2.132692759864e-05   4.675359661361e-05 
8 1 -7.467250508005e-05  -1.064426397565e-05  -6.236852668132e-05 
8
Step 11000
1 1 -8.407253347732e-06   3.332641057532e-05   1.350642401606e-04 
2 1  3.205504876901e-05   4.821202724501e-05  -4.287402878889e-05 
3 1 -4.746005533572e-05   4.077329936639e-05  -6.037968251974e-05 
4 1 -1.094625534077e-04   9.654363557097e-05   1.626583311748e-06 
5 1 -5.599067525207e-05  -1.592543407850e-05  -4.391348811889e-05 
6 1  3.928509213615e-06  -2.443279249353e-05   1.535391709060e-05 
7 1 -1.071015325448e-05  -1.625530051560e-05   5.067436546106e-05 
8 1 -1.204545957914e-04   1.494073759568e-05  -5.667931007353e-05 
8
Step 12000
1 1 -7.915455267707e-05   4.128693713103e-05   1.552483652128e-04 
2 1 -1.592385252060e-05   1.049032455888e-04  -4.012905863170e-05 
3 1 -1.527703706477e-05   2.861933014971e-05  -3.883970616644e-05 
4 1 -8.214769695392e-05   1.291497963346e-04   1.114754792769e-05 
5 1 -7.079270482520e-05  -9.618074278477e-05  -5.277091525024e-05 
6 1 -4.366519107300e-05   6.294475346760e-06   8.981954986756e-06 
7 1 -2.406901235545e-05  -2.533604673845e-05   2.569760190998e-05 
8 1 -1.335868425981e-04   2.241839838600e-05  -3.437702571652e-05 
8
Step 13000
1 1 -1.133491325452e-04   1.945803316582e-05   1.071737168503e-04 
2 1 -3.511593164087e-05   1.100747638745e-04  -2.730103128841e-05 
3 1  1.483017245459e-05   6.311064319598e-06   9.002814860560e-06 
4 1 -5.314549691695e-06   1.124956824134e-04   7.256061547228e-06 
5 1 -5.692673586907e-05  -1.468675262948e-04  -2.358406402051e-05 
6 1 -7.350699890121e-05   3.495126471535e-05   4.669956368800e-06 
7 1 -4.415510934485e-05  -2.958648029025e-05  -5.108765152655e-06 
8 1 -9.575420639621e-05   3.106822676748e-06  -9.644618603042e-06 
8
Step 14000
1 1 -8.050175266498e-05  -2.441347510500e-05  -1.830462887479e-06 
2 1 -3.305943805883e-05   6.014209617369e-05  -8.727056433736e-06 
3 1  3.132242128786e-05  -1.058521606342e-05   6.941167797486e-05 
4 1  9.959311576882e-05   4.295531609085e-05  -1.069693065607e-05 
5 1 -2.409126342779e-05  -1.452013743703e-04   1.639810896555e-05 
6 1 -7.682800539722e-05   4.833134489865e-05   4.885928988826e-06 
7 1 -5.910112106773e-05  -4.423793751381e-07  -2.107822168748e-05 
8 1 -5.083945605254e-06  -2.415711618750e-05   1.541052500021e-05 
8
Step 15000
1 1  1.506871398523e-06  -7.595256001486e-05  -1.206410216642e-04 
2 1 -1.652474139759e-05  -1.850002909758e-05   5.907746811615e-06 
3 1  3.102289237066e-05  -1.136259915577e-05   1.128267439196e-04 
4 1  1.834956465809e-04  -5.289864796645e-05  -2.991516103083e-05 
5 1  1.150289702568e-05  -8.063698079999e-05   4.130683833269e-05 
6 1 -5.769719600369e-05   3.848904627540e-05   6.208413007344e-06 
7 1 -5.648766210264e-05   6.934613970395e-05  -1.442277257346e-05 
8 1  1.050096998318e-04  -3.822678510616e-05   2.904804957835e-05 
8
Step 16000
1 1  8.280191116015e-05  -1.134419223745e-04  -1.853061110171e-04 
2 1  1.013301416940e-05  -8.424137436641e-05   1.658491306285e-05 
3 1  1.368492330531e-05   3.892712518167e-06   1.101372965107e-04 
4 1  2.027900922102e-04  -1.228477101157e-04  -3.927498100375e-05 
5 1  2.900338194038e-05   2.827010876594e-05   3.299348195829e-05 
6 1 -2.061379097536e-05   8.104528431894e-06   5.969707439474e-06 
7 1 -3.040007126212e-05   1.530069478360e-04   9.963307883877e-06 
8 1  1.799459904569e-04  -3.263091330493e-05   2.719070363521e-05 
8
Step 17000
1 1  1.393970083889e-04  -1.096278748315e-04  -1.696195389058e-04 
2 1  2.552626253314e-05  -1.101938096397e-04   2.588645722362e-05 
3 1 -1.486773777050e-05   2.553151969257e-05   5.872047954756e-05 
4 1  1.359092152265e-04  -1.307016541406e-04  -3.345616261843e-05 
5 1  2.780100611845e-05   1.199260711321e-04  -1.262709801393e-05 
6 1  2.615518447859e-05  -3.012184863076e-05   4.035759068073e-06 
7 1  1.368474647707e-05   1.998959010754e-04   3.197001518715e-05 
8 1  1.800176255974e-04  -6.863420770995e-07   1.999898934492e-05 
8
Step 18000
1 1  1.301883629292e-04  -4.653467967593e-05  -8.531611004888e-05 
2 1  1.892386497102e-05  -8.924837772388e-05   2.755096242259e-05 
3 1 -3.604052822530e-05   3.573836409901e-05  -2.190694044263e-05 
4 1  1.198377832621e-05  -8.386620112280e-05  -1.089262005095e-05 
5 1  1.487166880086e-05   1.484553234455e-04  -6.931954584119e-05 
6 1  6.367302117923e-05  -5.957073262375e-05   1.459022986647e-06 
7 1  5.919414935487e-05   1.653969209275e-04   3.651760007056e-05 
8 1  1.174371532789e-04   4.567526143043e-05   1.678316543513e-05 
8
Step 19000
1 1  5.013279582430e-05   5.314640881564e-05   2.328184646774e-05 
2 1  2.914586930394e-06  -2.670240814631e-05   2.290232341675e-05 
3 1 -3.713802976690e-05   2.250788069181e-05  -9.589029175714e-05 
4 1 -1.025317873493e-04  -1.440563254782e-05   1.937193317619e-05 
5 1 -3.959170502299e-06   1.133324554106e-04  -9.515603491177e-05 
6 1  7.360683086501e-05  -6.821434822514e-05  -1.456637687213e-06 
7 1  8.508509916638e-05   4.844182012399e-05   2.544935286911e-05 
8 1  2.876438205760e-05   7.943544533248e-05   1.756139391230e-05 
8
Step 20000
1 1 -4.885838920092e-05   1.424783046398e-04   9.929373768464e-05 
2 1 -1.200107771752e-05   4.876557210932e-05   1.841219714473e-05 
3 1 -1.605181055267e-05  -7.789139191685e-06  -1.258906916993e-04 
4 1 -1.518847778669e-04   4.603934934567e-05   4.022583804075e-05 
5 1 -1.935434410064e-05   3.187810590802e-05  -6.732992275104e-05 
6 1  5.736857380144e-05  -4.682631820285e-05  -2.569781386744e-06 
7 1  7.944575167838e-05  -8.562475559197e-05   5.423091214691e-06 
8 1 -5.476708395685e-05   7.881307814468e-05   1.482574886039e-05 
8
Step 21000
1 1 -1.252475843925e-04   1.814583940904e-04   1.134104574637e-04 
2 1 -2.057517055281e-05   9.769856893346e-05   9.793633013303e-06 
3 1  2.458830391063e-05  -3.878657224747e-05  -9.920018920441e-05 
4 1 -1.241272820485e-04   7.440245188809e-05   4.208341407382e-05 
5 1 -2.184179466047e-05  -5.508747309756e-05   8.879566506752e-06 
6 1  2.092056955822e-05  -2.456113936776e-06  -1.829452549396e-06 
7 1  4.302772787540e-05  -1.599744903333e-04  -1.619676397975e-05 
8 1 -9.946586934174e-05   3.968852099108e-05   1.508250010941e-07 
8
Step 22000
1 1 -1.488489569899e-04   1.539115000828e-04   7.296054711487e-05 
2 1 -1.836466397470e-05   9.828340629057e-05  -8.960600659163e-06 
3 1  6.469262266009e-05  -5.351725274430e-05  -3.290833446681e-05 
4 1 -4.841883347207e-05   6.584279855207e-05   2.361667561083e-05 
5 1 -1.185788165283e-05  -1.050588376999e-04   9.846141154004e-05 
6 1 -2.187117369595e-05   4.593180003469e-05  -2.362144165773e-07 
7 1 -1.025010886615e-05  -1.580458230262e-04  -3.317976997845e-05 
8 1 -9.890232350305e-05  -2.037523389287e-05  -2.369698657066e-05 
8
Step 23000
1 1 -1.048924804536e-04   7.198749042032e-05   9.135519827026e-06 
2 1 -5.733409024456e-06   5.820760252576e-05  -2.914460070292e-05 
3 1  7.620398038610e-05  -4.388487392664e-05   3.874657638866e-05 
4 1  2.835902570342e-05   3.218241330395e-05  -7.407605821884e-06 
5 1  4.499061372033e-06  -9.952010851619e-05   1.554216837786e-04 
6 1 -5.296370826954e-05   7.673601837380e-05   2.994107933748e-07 
7 1 -5.846342188888e-05  -1.020920141171e-04  -4.139933535170e-05 
8 1 -6.927218798789e-05  -7.538383915638e-05  -5.284004711437e-05 
8
Step 24000
1 1 -1.673369085658e-05  -2.172988109428e-05  -4.234426340760e-05 
2 1  8.396373840707e-06  -2.080361551413e-06  -4.201606487840e-05 
3 1  4.934220799565e-05  -1.526987653920e-05   8.386390990987e-05 
4 1  6.922507327377e-05  -8.518350962061e-06  -3.543467334665e-05 
5 1  1.915417826696e-05  -4.704148595683e-05   1.504285058611e-04 
6 1 -5.881046429855e-05   7.506346604080e-05  -1.442857487731e-06 
7 1 -7.891983042827e-05  -2.606263301343e-05  -3.742193671902e-05 
8 1 -2.817241609834e-05  -1.030307448519e-04  -7.708751844430e-05 
8
Step 25000
1 1  6.276902660545e-05  -8.171892207786e-05  -6.018444527985e-05 
2 1  1.722649076602e-05  -5.785740274395e-05  -4.660147307117e-05 
3 1 -5.759359275967e-06   1.829296453507e-05   8.653867695299e-05 
4 1  6.331670654382e-05  -3.967443904202e-05  -4.579316134832e-05 
5 1  2.501440485574e-05   2.294637306682e-05   8.169481637434e-05 
6 1 -3.723547183595e-05   3.756173699222e-05  -5.035733407019e-06 
7 1 -6.128230321463e-05   3.705560547365e-05  -2.039635665377e-05 
8 1  1.424600843402e-05  -8.818948453892e-05  -7.474572015576e-05 
8
Step 26000
1 1  1.013124493462e-04  -9.597076659297e-05  -4.339855011285e-05 
2 1  1.791299245015e-05  -8.427134248128e-05  -3.867958636318e-05 
3 1 -6.604326514248e-05   4.448341593502e-05   5.323011821925e-05 
4 1  2.298579564253e-05  -4.905241590826e-05  -3.333133747027e-05 
5 1  1.885641087239e-05   7.449208225956e-05  -2.052319620964e-05 
6 1  6.823200836604e-07  -2.067291447193e-05  -8.765855852181e-06 
7 1 -1.572284632691e-05   6.858233047133e-05   4.659805413513e-06 
8 1  4.664399911363e-05  -3.745227863434e-05  -3.403422685911e-05 
8
Step 27000
1 1  9.074553105980e-05  -7.521782101721e-05  -5.778803973260e-06 
2 1  1.187376360957e-05  -6.854127088237e-05  -1.143972287343e-05 
3 1 -1.023892270076e-04   4.783116129947e-05   2.531879709471e-06 
4 1 -2.493265591190e-05  -3.332284630402e-05  -5.299397712257e-06 
5 1  2.023472603558e-06   8.323588044899e-05  -1.048494012053e-04 
6 1  3.567734084662e-05  -7.172092678955e-05  -1.004864539189e-05 
7 1  3.415866946616e-05   6.427647897724e-05   2.973474801209e-05 
8 1  6.070464149106e-05   3.040897764927e-05   3.260420413458e-05 
8
Step 28000
1 1  4.065652346815e-05  -3.648334209972e-05   3.128906691085e-05 
2 1  2.479711631281e-06  -2.433157764361e-05   2.719174427957e-05 
3 1 -9.830029646879e-05   2.931056757817e-05  -4.144220196797e-05 
4 1 -5.477083505743e-05   1.237115574953e-06   2.381411804778e-05 
5 1 -1.926927307902e-05   5.373932358668e-05  -1.349671689669e-04 
6 1  5.013875382195e-05  -9.097730132839e-05  -5.939170499737e-06 
7 1  6.322352591024e-05   3.335789270029e-05   4.671066532283e-05 
8 1  6.009146283711e-05   8.136850481405e-05   9.680198724483e-05 
8
Step 29000
1 1 -2.070796063246e-05   1.447955156318e-06   4.879548414296e-05 
2 1 -4.702722028000e-06   2.203060423279e-05   6.156295810743e-05 
3 1 -5.726593028485e-05   4.766630053481e-06  -6.084160485891e-05 
4 1 -5.217697633719e-05   4.040406189390e-05   3.882457922414e-05 
5 1 -3.429375069274e-05   2.504345948819e-06  -1.068258466474e-04 
6 1  3.713625087207e-05  -7.067234879754e-05   4.266612735994e-06 
7 1  5.409354039994e-05  -4.144051653224e-06   4.866681430737e-05 
8 1  4.552744101778e-05   9.174260680404e-05   1.308589729890e-04 
8
Step 30000
1 1 -5.974155279478e-05   2.380715438103e-05   3.930596606808e-05 
2 1 -8.677611137548e-06   5.075648965146e-05   7.906834913919e-05 
3 1  4.450312561049e-06  -1.324019060907e-05  -5.139556545494e-05 
4 1 -1.986123990531e-05   6.401180264506e-05   3.016902036198e-05 
5 1 -3.489053690313e-05  -4.863565609300e-05  -4.069124504784e-05 
6 1  1.579348450279e-06  -1.905274467686e-05   1.714656345914e-05 
7 1  7.884763389147e-06  -2.943940764112e-05   3.348464031917e-05 
8 1  1.486370344444e-05   6.033083950104e-05   1.186609439657e-04 
8
Step 31000
1 1 -5.781495843800e-05   2.837363812346e-05   1.053257077318e-05 
2 1 -1.235995902226e-05   5.347510681161e-05   7.180720124335e-05 
3 1  6.184351989621e-05  -2.356096007956e-05  -2.052815465287e-05 
4 1  2.381856144764e-05   5.484279253051e-05   2.167952341003e-06 
5 1 -1.973586917992e-05  -7.664659015664e-05   2.752956460836e-05 
6 1 -4.054860479767e-05   4.021087347978e-05   2.799516284240e-05 
7 1 -5.293865541338e-05  -3.359854018671e-05   5.074566456679e-06 
8 1 -2.504922002168e-05   7.416751448620e-06   5.910764886932e-05 
8
Step 32000
1 1 -1.997562105074e-05   2.256450526479e-05  -2.197309021786e-05 
2 1 -1.600892726547e-05   3.089180432348e-05   3.705734347728e-05 
3 1  8.849414946908e-05  -1.839573488418e-05   1.668159950065e-05 
4 1  5.665373947565e-05   1.096974278616e-05  -2.802691306381e-05 
5 1  5.310973368724e-06  -6.937570210903e-05   6.415680436939e-05 
6 1 -6.710448124070e-05   7.832679663013e-05   3.113309320829e-05 
7 1 -9.533415969529e-05  -1.911233335302e-05  -2.727667134308e-05 
8 1 -5.526857507903e-05  -4.682540562187e-05  -2.230613408977e-05 
8
Step 33000
1 1  2.873386314784e-05   1.404386211693e-05  -4.433167113907e-05 
2 1 -1.853196997800e-05  -3.261879040393e-06  -1.593109916186e-05 
3 1  8.142632786245e-05  -3.536006538264e-06   4.132684677822e-05 
4 1  6.333163153917e-05  -5.228254044136e-05  -4.115473019891e-05 
5 1  3.321322799275e-05  -3.217947418447e-05   6.197015157397e-05 
6 1 -6.118041568916e-05   7.703246136564e-05   2.113189348092e-05 
7 1 -9.047104004686e-05   5.292400987539e-06  -5.180254252427e-05 
8 1 -6.818917877435e-05  -7.727334133532e-05  -8.801576487106e-05 
8
Step 34000
1 1  5.676651078105e-05   6.816972571878e-06  -4.907137573042e-05 
2 1 -2.057456852026e-05  -2.752709744912e-05  -6.602561487285e-05 
3 1  5.073153536408e-05   6.833461133520e-06   4.337330003341e-05 
4 1  3.967175357970e-05  -1.070405364046e-04  -2.552852481044e-05 
5 1  6.046799204401e-05   1.311026837377e-05   3.515879230809e-05 
6 1 -2.016555371476e-05   3.845113883440e-05  -3.776541588263e-06 
7 1 -2.544818196667e-05   2.580798358422e-05  -5.824658492357e-05 
8 1 -6.422690194297e-05  -6.237012037466e-05  -1.168920429169e-04 
8
Step 35000
1 1  4.581629611387e-05   3.596839480068e-06  -3.201559048389e-05 
2 1 -1.603846683380e-05  -3.255355832474e-05  -9.423372218815e-05 
3 1  1.199541854984e-05   5.011514425928e-06   2.528166371708e-05 
4 1 -2.200581692320e-06  -1.180658061691e-04   1.474727899632e-05 
5 1  6.724451994367e-05   4.958611761407e-05  -8.827339770217e-07 
6 1  4.027816866396e-05  -1.682517378967e-05  -3.805728447891e-05 
7 1  7.953060839714e-05   2.984935519258e-05  -4.157698773835e-05 
8 1 -4.023117108332e-05  -1.150096181431e-05  -1.028963651438e-04 
8
Step 36000
1 1 -8.031830959033e-07   3.995884824653e-06   1.690536953748e-06 
2 1  3.214563958225e-06  -2.187494577155e-05  -9.119213603549e-05 
3 1 -1.938508056943e-05  -8.934550925594e-06   3.857571281910e-07 
4 1 -4.238892757570e-05  -7.102347242338e-05   5.879066438038e-05 
5 1  4.061571160320e-05   6.978619948903e-05  -2.721768963687e-05 
6 1  9.059584612762e-05  -5.891643447291e-05  -7.043791877578e-05 
7 1  1.703220282424e-04   1.372844653625e-05  -4.986502878339e-06 
8 1  1.645929233143e-06   4.862071843960e-05  -5.738320890997e-05 
8
Step 37000
1 1 -5.881738060658e-05   2.162192590827e-06   3.505437993432e-05 
2 1  3.654775610853e-05  -4.673476361716e-06  -5.679946537314e-05 
3 1 -3.324889081572e-05  -2.757243116461e-05  -1.504475276527e-05 
4 1 -6.546374698907e-05   1.995600801325e-05   8.102813174051e-05 
5 1 -5.745437419546e-07   6.646095928112e-05  -2.692409765750e-05 
6 1  1.037946782528e-04  -6.563327789942e-05  -8.557598290135e-05 
7 1  1.908151567389e-04  -1.525843159141e-05   3.873105860624e-05 
8 1  4.545831855025e-05   9.747034241248e-05  -7.696914705247e-06 
8
Step 38000
1 1 -9.338185648616e-05  -5.055117631275e-06   5.301946772325e-05 
2 1  6.478821632369e-05   1.059952470692e-05  -5.302351245540e-06 
3 1 -2.834762759083e-05  -3.774329462565e-05  -9.231213098836e-06 
4 1 -6.012746788574e-05   1.179992518290e-04   6.200630483469e-05 
5 1 -2.542924607101e-05   3.698810126688e-05  -5.663161182260e-07 
6 1  7.113621648593e-05  -3.105970700079e-05  -6.687059000294e-05 
7 1  1.292932067642e-04  -4.204317482595e-05   7.747189431669e-05 
8 1  6.424986996609e-05   1.066090733657e-04   1.495480244089e-05 
8
Step 39000
1 1 -7.899554518640e-05  -1.406749379184e-05   5.196603283463e-05 
2 1  7.655104939899e-05   1.758210041320e-05   4.361021147686e-05 
3 1 -1.518325264840e-05  -2.916645976878e-05   7.954989101474e-06 
4 1 -2.566954577912e-05   1.709117948598e-04  -1.094737132886e-06 
5 1 -6.086316163614e-05  -1.049709637148e-05   2.369188415970e-05 
6 1  5.856888350885e-06   2.716508121580e-05  -1.253504865279e-05 
7 1  1.504329653295e-05  -5.548172948350e-05   9.128346775284e-05 
8 1  8.186422712342e-05   6.205186323293e-05   2.144964734596e-05 
8
Step 40000
1 1 -1.653469122260e-05  -1.778509746009e-05   3.376666790453e-05 
2 1  6.991833671322e-05   1.259398867946e-05   7.348544750225e-05 
3 1 -1.008907651865e-05  -1.887108298204e-06   1.922184664722e-05 
4 1  1.796995545565e-05   1.432366601681e-04  -7.907917647192e-05 
5 1 -1.100097198379e-04  -5.423177204718e-05   1.683127766549e-05 
6 1 -5.783152334516e-05   7.119107405424e-05   5.441100854039e-05 
7 1 -1.023164108767e-04  -4.442764715231e-05   6.011719830316e-05 
8 1  1.105124172677e-04  -2.628963991901e-05   3.043527193898e-05 
8
Step 41000
1 1  6.539130597374e-05  -1.346277413731e-05  -5.958077972740e-06 
2 1  2.420131359822e-05   4.016207296254e-06   7.598813279887e-05 
3 1 -1.868120971449e-05   3.536232141490e-05   1.167211210445e-05 
4 1  5.070513244232e-05   5.810998070649e-05  -1.359048668194e-04 
5 1 -1.079439896425e-04  -9.669703495787e-05  -2.783259345103e-06 
6 1 -8.610493003707e-05   7.232639254023e-05   1.102546986425e-04 
7 1 -1.621752002861e-04  -6.163777119410e-06  -6.497186218177e-06 
8 1  7.978300854115e-05  -1.224487601010e-04   1.795385866889e-05 
8
Step 42000
1 1  1.261926545573e-04  -2.663258610786e-06  -6.046390113677e-05 
2 1 -5.120490676012e-05  -1.341956720450e-06   4.914473490847e-05 
3 1 -3.422118307816e-05   6.617361291389e-05  -1.579371790108e-05 
4 1  6.681760486491e-05  -4.352753053265e-05  -1.462405939396e-04 
5 1 -6.088700415078e-05  -1.134922709655e-04  -2.262200807290e-05 
6 1 -8.398549181091e-05   2.137550289048e-05   1.396541534131e-04 
7 1 -1.478263456346e-04   4.893978651908e-05  -7.687650920292e-05 
8 1 -4.369781549748e-06  -1.848552598606e-04  -9.837859409709e-06 
8
Step 43000
1 1  1.365908690117e-04   9.649175549484e-06  -1.136479978405e-04 
2 1 -1.143917537243e-04  -1.284333841939e-06   9.869575882192e-06 
3 1 -4.378329000236e-05   7.499105304375e-05  -5.169228946663e-05 
4 1  5.319045555716e-05  -1.193365377824e-04  -9.060923024824e-05 
5 1 -7.108787928379e-06  -9.047749993772e-05  -3.810994487631e-05 
6 1 -3.836917681700e-05  -7.534803630338e-05   1.132846683394e-04 
7 1 -7.987560674087e-05   1.020291635275e-04  -1.215511907300e-04 
8 1 -9.717383790950e-05  -1.697271816359e-04  -2.048989075505e-06 
8
Step 44000
1 1  8.605683437569e-05   1.601219874295e-05  -1.251628291893e-04 
2 1 -1.288602265177e-04   4.441886831242e-06  -1.819766044014e-05 
3 1 -3.033205833192e-05   5.620281404805e-05  -7.902987044861e-05 
4 1  8.599244242939e-06  -1.355804963362e-04   1.408473792361e-05 
5 1  4.977082488569e-05  -2.990573787751e-05  -4.035783826840e-05 
6 1  2.232524195913e-05  -1.690104381708e-04   5.728979330025e-05 
7 1  7.014402521531e-06   1.276054364949e-04  -1.131946721119e-04 
8 1 -1.550731076889e-04  -8.699039547544e-05   1.334587904232e-05 
8
Step 45000
1 1 -9.455363788053e-06   1.208407679541e-06  -9.519011667132e-05 
2 1 -9.229021736349e-05   7.488208605445e-06  -3.667491657849e-05 
3 1  9.862221224593e-06   1.613192030978e-05  -7.042776027598e-05 
4 1 -3.672888384209e-05  -7.744826352757e-05   1.033043735771e-04 
5 1  1.026410053994e-04   5.167827871065e-05   3.697686410836e-06 
6 1  5.503321770203e-05  -1.903384855031e-04   1.210982961039e-05 
7 1  7.907263290008e-05   1.055205851835e-04  -4.004576343277e-05 
8 1 -1.608875395729e-04   1.144092075500e-05   2.507104079534e-06 
8
Step 46000
1 1 -9.719827542000e-05  -2.473676539174e-05  -3.998893277053e-05 
2 1 -1.776105655499e-05   1.905698555935e-06  -2.910597173043e-05 
3 1  5.938439969760e-05  -2.924091484397e-05  -1.640296389398e-05 
4 1 -6.708639631235e-05   6.259368921972e-06   1.417728781766e-04 
5 1  1.254660643540e-04   1.332633957457e-04   5.943049596083e-05 
6 1  4.992387062493e-05  -1.301474769051e-04  -4.674689692190e-05 
7 1  1.074783068160e-04   3.258236693545e-05   5.920653545906e-05 
8 1 -1.129347212665e-04   1.020595928224e-04   1.619443438197e-05 
8
Step 47000
1 1 -1.304401940202e-04  -3.608096111741e-05   3.219634906021e-05 
2 1  6.424055833836e-05  -1.104814837920e-05  -1.340896039633e-05 
3 1  9.263852161311e-05  -6.424934653527e-05   5.857005882450e-05 
4 1 -8.986181878866e-05   5.969696642907e-05   1.419231775938e-04 
5 1  1.022381615844e-04   1.665508233495e-04   9.380163471425e-05 
6 1  4.212394336430e-05   2.975977788611e-05  -1.042178341145e-04 
7 1  8.560320770708e-05  -5.978363330158e-05   1.249128097616e-04 
8 1 -4.173075827833e-05   1.346886914616e-04   3.297491003688e-05 
8
Step 48000
1 1 -1.174293116155e-04  -2.799837520389e-05   1.164921579664e-04 
2 1  1.175102959862e-04  -2.254119611752e-05  -8.525435551501e-06 
3 1  9.153825211142e-05  -7.313004479298e-05   1.150501023855e-04 
4 1 -6.754029030764e-05   8.342956386158e-05   7.278446687737e-05 
5 1  3.944214945838e-05   1.288479057951e-04   9.417577388552e-05 
6 1  4.228001465975e-06   1.880091494601e-04  -1.178170207820e-04 
7 1  3.347905089886e-05  -1.363241671252e-04   1.386662899207e-04 
8 1  3.614753178191e-05   1.122072528009e-04  -3.772218041517e-06 
8
Step 49000
1 1 -7.311873047646e-05  -9.910364329268e-07   1.589148631840e-04 
2 1  1.138468779344e-04  -2.791059650948e-05  -1.259727922849e-05 
3 1  5.294437363087e-05  -5.402381593274e-05   1.339878276078e-04 
4 1 -7.977381203169e-07   6.705726119555e-05  -3.808675251964e-05 
5 1 -3.054337377035e-05   4.621068051194e-05   4.303413559832e-05 
6 1 -3.183121461398e-05   2.415410881163e-04  -1.038164934430e-04 
7 1 -2.499816653324e-05  -1.673060933550e-04   9.184235974024e-05 
8 1  7.185355408077e-05   7.313569700806e-05  -4.735636221778e-05 
8
Step 50000
1 1 -4.222193415069e-06   5.446501225978e-05   1.278771013779e-04 
2 1  5.925500170542e-05  -2.504069782894e-05  -2.203634910506e-05 
3 1 -1.041215413254e-05  -1.922588826737e-05   9.756923206979e-05 
4 1  6.767912297036e-05   9.735233147685e-06  -1.120847161790e-04 
5 1 -8.632401689714e-05  -3.827539089772e-05  -4.763495958355e-05 
6 1 -5.226495695501e-05   1.901408121689e-04  -5.662002707261e-05 
7 1 -6.504138524613e-05  -1.397186181055e-04  -5.914351188537e-06 
8 1  6.699433110597e-05   1.983191845227e-05  -6.458850080957e-05 
8
Step 51000
1 1  3.894416622801e-05   1.054122863297e-04   6.354392756858e-05 
2 1 -1.183426110416e-05  -6.855758191336e-06  -2.287012331103e-05 
3 1 -7.070663678413e-05   9.206740525643e-06   1.092662280248e-05 
4 1  9.945919489520e-05  -5.085535575158e-05  -1.072274342648e-04 
5 1 -1.130238437442e-04  -9.594005417577e-05  -1.343333670525e-04 
6 1 -4.841644926527e-05   8.917993658001e-05   5.492351608496e-06 
7 1 -7.445809003873e-05  -6.040446280398e-05  -1.029309302153e-04 
8 1  5.429398946119e-05  -4.114839946864e-05  -6.882972561169e-05 
8
Step 52000
1 1  3.213178768318e-05   1.103685272657e-04  -6.675975244214e-06 
2 1 -6.610008812370e-05   3.418827532708e-05  -9.434706560465e-06 
3 1 -1.035678967612e-04   3.458208749287e-05  -8.572813389044e-05 
4 1  9.260496052002e-05  -7.821255899809e-05  -5.536255971847e-05 
5 1 -9.529269493841e-05  -1.131008471604e-04  -1.591616638493e-04 
6 1 -2.205206339840e-05  -3.926549541325e-05   6.483638424928e-05 
7 1 -4.923510165451e-05   2.419711732738e-05  -1.462691816948e-04 
8 1  2.870865846968e-05  -6.339833767262e-05  -4.454118369047e-05 
8
Step 53000
1 1  1.715441603543e-05   6.218747925080e-05  -7.514580058479e-05 
2 1 -8.952401716027e-05   6.533320190157e-05   2.428295682039e-05 
3 1 -9.419310753519e-05   4.336027635125e-05  -1.368527930291e-04 
4 1  3.709321510271e-05  -6.919283476283e-05   2.641638468330e-05 
5 1 -4.123726915737e-05  -7.860971883356e-05  -1.088767008960e-04 
6 1  2.586792442135e-05  -1.277847033877e-04   8.912389390063e-05 
7 1 -1.046309965348e-05   8.941387960549e-05  -1.244813331597e-04 
8 1 -5.118302024376e-06  -6.151348165482e-05   1.527308574633e-05 
8
Step 54000
1 1  1.584037223802e-05  -2.988268693451e-05  -1.128472714199e-04 
2 1 -6.719001070935e-05   6.832603721784e-05   5.869979222470e-05 
3 1 -5.026008312573e-05   2.961456073178e-05  -1.298810540428e-04 
4 1 -3.682916382832e-05  -2.827587308942e-05   8.928081004941e-05 
5 1  2.007728964767e-05  -2.216207616569e-05   2.108825456166e-06 