8
Step 0
1 1  0.000000000000e+00   0.000000000000e+00   0.000000000000e+00 
2 1  0.000000000000e+00   0.000000000000e+00   0.000000000000e+00 
3 1  0.000000000000e+00   0.000000000000e+00   0.000000000000e+00 
4 1  0.000000000000e+00   0.000000000000e+00   0.000000000000e+00 
5 1  0.000000000000e+00   0.000000000000e+00   0.000000000000e+00 
6 1  0.000000000000e+00   0.000000000000e+00   0.000000000000e+00 
7 1  0.000000000000e+00   0.000000000000e+00   0.000000000000e+00 
8 1  0.000000000000e+00   0.000000000000e+00   0.000000000000e+00 
8
Step 1000
1 1  1.214029739198e-04  -1.542163669980e-04  -1.789147474054e-05 
2 1  2.242775327193e-04  -1.305909475590e-04  -2.539598235301e-04 
3 1 -9.691876541901e-05  -5.792821062313e-05  -1.022423750391e-04 
4 1  3.093141554730e-04  -1.695689867688e-05  -3.472596270417e-05 
5 1  5.583754056737e-05   9.904477783428e-05  -1.297854798185e-04 
6 1  1.277875163464e-04   8.308300440517e-05   1.402415265411e-04 
7 1 -5.838712124645e-06  -5.578439616262e-05  -6.406779548099e-05 
8 1  5.990202869291e-06  -1.491788928381e-04  -3.043320183041e-04 
8
Step 2000
1 1  1.916156792538e-04   9.084927782015e-06  -3.682635633126e-05 
2 1 -2.213977028594e-05  -2.991563538393e-05  -1.727477096512e-04 
3 1 -7.989381853863e-05   4.228727260793e-05   4.441866831000e-05 
4 1  2.905396603321e-04  -1.217867282032e-04  -2.117628381495e-04 
5 1  6.171770762418e-06   9.583376757608e-05  -9.877015645834e-05 
6 1 -1.354523533417e-04  -9.499855939412e-06   9.098179123889e-05 
7 1 -1.480455219211e-04   9.300231952724e-05  -6.557524569116e-05 
8 1  1.138525318422e-06   1.638141822547e-04   2.282376427963e-05 
8
Step 3000
1 1 -1.858232805705e-04  -1.270178238059e-04  -1.076153088153e-04 
2 1 -2.862160386743e-04   2.304622997735e-04  -2.018241027301e-04 
3 1 -5.236620786924e-05   4.505040243819e-05  -1.336223212080e-04 
4 1  1.170963884962e-04   9.072774743828e-05  -2.204096638378e-05 
5 1 -2.467513675195e-04   1.819703130013e-04  -1.400004419760e-04 
6 1 -1.542545772960e-04  -2.042064212408e-04   3.763081656836e-04 
7 1  1.957180905198e-04   1.801276224312e-04  -1.987855891371e-04 
8 1  2.496568294631e-05  -1.600131006336e-05  -1.895486342570e-04 
8
Step 4000
1 1 -3.621798459683e-05  -3.970532171951e-06  -6.470361980684e-05 
2 1  2.773119117801e-05   2.155937105438e-05   4.239873660950e-05 
3 1 -2.534296850851e-06   2.734187454482e-04  -5.945401146140e-05 
4 1 -9.102998870332e-05   1.869711401204e-05   1.354804801191e-04 
5 1 -6.340197466445e-05   2.229214196323e-04  -9.786933698971e-05 
6 1 -1.124805583823e-04  -8.367727914376e-05   9.904450118917e-05 
7 1 -3.751893134986e-05   3.297361588253e-05   2.894679141556e-05 
8 1  3.371399836256e-05   1.417194960038e-04   1.078194599626e-04 
8
Step 5000
1 1 -1.384788678853e-04  -7.213630627634e-05   5.676483129397e-05 
2 1 -1.771601927525e-05   1.508381228781e-04  -7.753933862591e-05 
3 1 -3.649214440082e-05   2.638225791252e-04   1.295531275459e-04 
4 1 -9.968132235233e-06   2.717964512936e-04   6.691732477771e-05 
5 1 -5.632383282474e-05   9.239382927075e-05  -9.513955940590e-05 
6 1  5.463769440217e-05   5.436506888742e-05  -1.100291321337e-04 
7 1 -1.984424742918e-04   2.102095063417e-07  -1.906720600491e-04 
8 1  5.187889054839e-05  -6.186976205452e-05   5.905576147779e-05 
8
Step 6000
1 1 -1.011065675447e-04  -9.267805651973e-05   2.573978405205e-04 
2 1 -1.859507941415e-05   1.593740017059e-04   3.113186458317e-05 
3 1 -3.047348977457e-05  -2.389536402479e-05   1.901548202188e-04 
4 1  3.343572445341e-06   3.506350874823e-05  -5.506263669691e-05 
5 1 -7.582837862046e-05   1.723702102363e-05   4.776583758536e-07 
6 1 -1.428021726887e-06   8.404375205021e-05   1.100534606011e-04 
7 1  8.905278035230e-07   1.445872832731e-04   1.344714552660e-04 
8 1  1.493404497098e-04   1.044416517814e-04   1.580230327085e-04 
8
Step 7000
1 1 -1.723715532143e-04  -8.266649847387e-05   5.138285900321e-05 
2 1  2.013457788741e-05   1.453489381805e-04   1.276334531578e-04 
3 1 -3.775643716985e-05   7.139802402482e-05   1.283515774831e-04 
4 1  8.057995340775e-05   1.663489791571e-05   8.359697482941e-05 
5 1  1.652902650223e-04  -5.039328989261e-05  -1.362893451372e-04 
6 1 -1.378546969838e-04   5.828623488136e-05   8.861939703650e-06 
7 1 -2.645182132596e-04   6.859727229139e-05   1.868250462400e-04 
8 1 -1.006332834800e-05  -1.761699890287e-05   9.226902882743e-05 
8
Step 8000
1 1  1.064109848832e-04   6.306066477809e-05   7.603143111068e-05 
2 1 -7.040071834394e-05   2.584000221532e-04   3.433799863973e-04 
3 1  6.130738949405e-05  -9.667378106339e-05  -7.437786775651e-05 
4 1 -7.197810632208e-06   3.239451871826e-04   2.267660379613e-04 
5 1  1.214223478706e-05  -1.278389133597e-04  -1.288895029146e-05 
6 1  5.661993825932e-05   3.639968063461e-05   6.512866221968e-05 
7 1 -2.176468373182e-04   7.118760599128e-05   1.045357414200e-04 
8 1  2.332641894059e-04  -1.823029251559e-04   5.552408042102e-05 
8
Step 9000
1 1  2.370677241511e-05  -2.689804495079e-04   1.441717641083e-04 
2 1 -2.321444275170e-04   9.055477583248e-05   2.089234267455e-04 
3 1 -6.514561538945e-05  -2.264166858953e-04  -1.751112024282e-04 
4 1  1.329703835359e-04   2.293255028004e-04  -1.279326769066e-05 
5 1  1.496652702495e-04  -2.336475608031e-05  -2.090279599196e-05 
6 1  3.102572916339e-04  -1.490963075769e-04  -1.741284550122e-04 
7 1 -5.701922766614e-05  -4.462516004649e-05   1.572670806285e-04 
8 1  7.083384586085e-05  -1.471957292273e-04   2.397202662303e-04 
8
Step 10000
1 1  2.078763266579e-04  -5.380458719385e-05   1.211445942787e-04 
2 1 -1.924174783336e-04   1.995093285562e-04   8.865848156715e-05 
3 1 -2.724895063991e-04   1.318241481014e-05  -1.162770610800e-04 
4 1  1.376349620145e-05   5.009567785323e-05  -1.156178079659e-04 
5 1  1.974145419306e-04   9.131608876099e-05   4.281037991595e-05 
6 1 -4.109033662326e-05  -3.063019697248e-05  -2.029462315529e-04 
7 1  7.724282222760e-05  -1.075932765586e-05   2.359356300987e-04 
8 1 -5.768898483208e-05  -1.206120597939e-04   5.044222457146e-05 
8
Step 11000
1 1  7.784203405941e-05  -2.678311240706e-04   1.204071345763e-04 
2 1 -7.224833494712e-05   1.443054613958e-04   1.936844547404e-04 
3 1 -1.287765245422e-04  -1.272900202099e-04  -1.137512003606e-04 
4 1  5.813602301470e-05   3.506031245592e-04  -2.286409285175e-04 
5 1  2.314006548136e-04   2.301748529459e-05  -1.250976110155e-04 
6 1  1.425921449039e-04  -1.502147137893e-04   5.973909885845e-05 
7 1  3.609329653880e-04  -2.694785593529e-04   1.251249786592e-04 
8 1 -2.585042467999e-04  -3.469803808287e-04   1.210169891922e-04 
8
Step 12000
1 1  3.681490036387e-05   6.695834697611e-06  -1.616913958132e-04 
2 1  1.634643122074e-04  -1.082327486890e-04   1.514718023663e-04 
3 1 -2.601835277431e-04  -5.702768490234e-04  -5.318644459065e-05 
4 1 -7.352046508753e-05   1.411183264829e-04  -3.872372490640e-05 
5 1 -7.806754407960e-05   2.368103665667e-04  -3.209620400617e-04 
6 1 -1.365377360932e-05  -7.704690128097e-05   3.439596363330e-05 
7 1  7.344901071697e-05   4.161125101661e-05  -1.064401368701e-04 
8 1 -6.789225127036e-05  -1.739703241217e-04   2.783206194503e-04 
8
Step 13000
1 1  9.706815846606e-05  -1.282774384639e-04  -5.190889834205e-06 
2 1  1.684754635575e-04  -3.164314870666e-05   6.999025290153e-05 
3 1 -1.463344603496e-04  -1.712227736124e-04  -1.617000148263e-04 
4 1 -1.413100820384e-04   5.967750172751e-05  -1.444948178075e-04 
5 1  4.405954958790e-05   5.732794873731e-05  -3.595131419394e-05 
6 1  1.026890580409e-04   9.605642784830e-05  -6.182226036755e-05 
7 1 -8.761806057846e-05  -1.258490491814e-04  -7.479125275628e-05 
8 1  4.744716762999e-05  -4.062683737249e-05   2.706543242212e-04 
8
Step 14000
1 1  1.464074980976e-04  -3.972096297315e-05  -9.131134225967e-05 
2 1  6.363380429805e-05   5.708215572250e-05   6.902817841136e-05 
3 1 -1.288655093294e-04   1.339831611433e-04  -1.056156444632e-04 
4 1 -3.031494211050e-05  -1.144042421157e-04  -5.126115544772e-05 
5 1 -4.922381184821e-05   4.526674400540e-05   3.368884362664e-05 
6 1  8.367054816629e-05  -1.229144861389e-05  -9.637202124867e-05 
7 1  1.700818685298e-04  -3.193031119730e-04  -8.361362361786e-05 
8 1  1.105583095568e-04   4.443820915169e-05   4.302405656374e-06 
8
Step 15000
1 1  1.909227482972e-04   9.336871621804e-05  -3.527465908205e-05 
2 1  1.938190844243e-04  -3.008300554313e-06   1.203904382703e-04 
3 1  2.481043786032e-04   2.799916912997e-04  -9.018186737423e-05 
4 1  1.367917660561e-04  -3.144203631623e-04  -4.459669276708e-05 
5 1  1.678393879925e-04   1.747435674026e-04  -2.394449866461e-04 
6 1  1.179088492135e-04  -2.588006669032e-05  -1.070661252122e-04 
7 1  2.579758038390e-05  -1.388449570154e-04  -1.641416654424e-04 
8 1 -6.939173289964e-05  -1.054294872182e-04   3.530775940130e-05 
8
Step 16000
1 1  1.216448385221e-04  -3.632088545719e-05  -2.846761859120e-04 
2 1  5.577070635696e-05   8.219515209321e-05   1.426031107709e-04 
3 1 -6.304598610357e-06   2.827351623323e-04   4.783776570215e-05 
4 1  7.027146990927e-05  -3.559273399108e-04  -1.000677708558e-04 
5 1 -5.311108641399e-05   2.386905834331e-05  -9.842965412076e-05 
6 1 -4.447057960992e-05   2.366909054252e-05  -1.605092305131e-04 
7 1  1.331515141614e-04  -2.082089348450e-04  -1.325160960855e-04 
8 1  1.013531294590e-04  -5.145660242838e-05   1.191337438974e-04 
8
Step 17000
1 1  2.422254946216e-04   8.353977686389e-05  -2.613164300122e-04 
2 1  2.895440224979e-05   8.601623022134e-05  -2.170653727511e-05 
3 1  3.225371147401e-05   2.194721795120e-05  -2.841666520384e-05 
4 1  2.155106556040e-04  -1.320812413645e-04  -1.253674021553e-04 
5 1 -7.797577555785e-05   2.596767277522e-04   5.643179486680e-05 
6 1 -9.050179883606e-05   1.723864303539e-04  -6.388003997049e-05 
7 1 -2.127701084691e-04  -1.555803909402e-04  -1.165966005816e-04 
8 1  1.058748468018e-04  -1.122243202660e-04   6.044811697072e-05 
8
Step 18000
1 1  1.284640920999e-04   3.035322435867e-04  -1.922150881062e-04 
2 1  3.120078547054e-06   6.422306804657e-05   1.561550703129e-04 
3 1  4.488792565159e-05  -1.651301698553e-05   5.592393119578e-05 
4 1  1.364428582454e-04  -3.498864348792e-04  -5.764350360280e-05 
5 1 -2.828448085515e-05   4.121876836644e-05   7.049561581870e-05 
6 1  5.795063331267e-05   4.953474693548e-05   6.217089112491e-05 
7 1  2.038814710978e-04  -5.022955226872e-05  -7.469076361081e-05 
8 1 -6.753093648591e-05  -7.011865828802e-05  -8.399869522013e-05 
8
Step 19000
1 1  7.475981722316e-05  -1.339738323793e-05  -2.205529379202e-04 
2 1  8.812549625968e-05   9.065553838982e-05   2.212054437994e-04 
3 1 -2.358554914262e-05  -1.294362838449e-05  -9.815153825470e-05 
4 1 -3.810889335776e-05  -1.351572727932e-04   8.464324586281e-05 
5 1  5.147208474159e-05   7.642249585759e-05   3.175400666898e-05 
6 1 -9.530464862608e-05  -7.703402697821e-06   7.198773239318e-05 
7 1  5.807268609704e-05   1.143800802626e-04   9.458528741197e-05 
8 1 -1.459330383012e-04  -1.859551616129e-04  -7.120448645703e-05 
8
Step 20000
1 1 -1.242615425653e-04   1.023242045718e-04  -1.045784816096e-04 
2 1 -6.157549071130e-05   1.722740063029e-04   1.088439456815e-04 
3 1 -2.567221145525e-06   2.559953749049e-05  -1.249495287149e-04 
4 1 -4.517501168963e-05  -1.945234694416e-04   1.752874033716e-04 
5 1  1.811810069504e-04   1.211499025881e-04  -1.468635809899e-04 
6 1  1.018431269798e-04  -1.729906934891e-04   8.999482676457e-06 
7 1 -1.442440174945e-04   2.227103524317e-04   7.702050263697e-05 
8 1 -1.147649900419e-05  -1.812003863706e-05  -5.208798420708e-05 
8
Step 21000
1 1  6.160642234419e-05   1.081661304874e-05  -1.952816026676e-04 
2 1 -8.077519252533e-05  -1.132999887352e-04  -9.263649096508e-05 
3 1 -3.402093779132e-04   9.131799453074e-05  -6.186147592022e-05 
4 1 -1.781363746368e-04  -5.944685753178e-05  -1.024860185646e-05 
5 1 -2.640711193505e-05  -1.450323010050e-05   3.987360191891e-05 
6 1 -1.739135796712e-04  -1.135007201019e-04  -5.255159865740e-05 
7 1  1.658372537216e-06   2.464861716268e-04   4.808793334081e-05 
8 1  3.457071246514e-05  -5.674003028498e-05   6.012034193020e-06 
8
Step 22000
1 1  2.203072741478e-05   7.000676357710e-05  -6.753978271342e-05 
2 1 -1.122769974834e-04  -1.780842395788e-04   1.460612751603e-04 
3 1 -3.107427928638e-04   3.250791925369e-04   5.381980966284e-05 
4 1 -4.845118952393e-05  -1.274071743201e-04   3.074310953789e-05 
5 1  2.151719067089e-04  -1.483589380089e-04   3.590899789230e-05 
6 1 -1.690415274963e-04  -1.390648098715e-04  -1.586506538507e-04 
7 1  9.130537070963e-05  -4.161779331606e-05   7.716255525840e-05 
8 1  1.168397826754e-04   3.162180027600e-04   3.551265409315e-05 
8
Step 23000
1 1  2.428639185784e-05   9.371391355925e-05  -2.852642701197e-04 
2 1  8.686248029381e-06  -2.093464120933e-04  -1.186769490801e-04 
3 1 -1.181447600925e-04  -1.516983169469e-05   3.163902056764e-05 
4 1 -5.397136768567e-05   1.063851618584e-04   1.604324814531e-04 
5 1 -1.618793228931e-04   3.469213587775e-05   1.132417362029e-04 
6 1 -1.198541115146e-04  -2.488533965151e-04  -1.481587981023e-04 
7 1  4.843114138613e-06  -4.140288809714e-05  -6.278162549006e-05 
8 1  2.178727364157e-05   2.898783597391e-05  -8.371940451736e-05 
8
Step 24000
1 1  7.599186392146e-06   2.732146075950e-04  -1.490747285419e-06 
2 1  1.621801788822e-04  -1.066197174534e-04  -5.650896095746e-05 
3 1 -8.984800414015e-05   2.281052912793e-04   1.565114946832e-05 
4 1 -8.582162714544e-06   2.592914776270e-04   1.014896076399e-04 
5 1  2.448448076081e-05  -4.721019723579e-05  -7.563013550348e-05 
6 1 -2.486932964514e-05  -4.052813619463e-05   1.100340791399e-04 
7 1  3.150683933076e-04  -4.845855004692e-05   1.441947384588e-04 
8 1  1.037868383085e-04   8.039623590096e-05  -3.645093354439e-04 
8
Step 25000
1 1  6.968658303785e-05   8.166542195085e-05  -1.660836599144e-04 
2 1 -2.220531388336e-05   3.801995931666e-05  -2.158695767997e-04 
3 1 -2.212581827458e-04   1.449598160479e-04   5.732748310306e-06 
4 1  5.770081083302e-05   1.542586339481e-05   2.503159621729e-05 
5 1  9.041950576994e-05   2.374163548491e-04  -1.775498798366e-04 
6 1  6.143038089393e-06  -2.760287311387e-05   8.397908619286e-05 
7 1  1.201234615888e-04  -2.495043733346e-04   1.339173564713e-04 
8 1  1.413926111309e-04  -2.615334390845e-04  -1.109064559216e-04 
8
Step 26000
1 1  6.605830792802e-05   7.147310643141e-05  -1.516700313415e-04 
2 1 -5.462106575653e-05   3.053085745275e-05  -3.484842485559e-04 
3 1 -5.347182794312e-05   1.645164187672e-04   8.404433405499e-05 
4 1  2.780377261992e-04  -2.291845565362e-04   2.246495342191e-04 
5 1  9.020134943423e-05   2.998220509118e-04   1.353825033094e-05 
6 1  2.205353953454e-04  -1.017080031868e-04   2.234203200091e-05 
7 1  7.227181106311e-05  -2.267791057566e-05   2.599752497276e-05 
8 1  2.970121531545e-04  -2.114159368791e-05   1.441939616808e-04 
8
Step 27000
1 1  2.040456743217e-05  -8.179285332294e-05   4.184638776046e-05 
2 1 -9.487842820117e-05   1.915541991770e-05  -1.920414534527e-04 
3 1 -4.308332546871e-05   1.742341135878e-04  -8.972195316645e-05 
4 1  1.770948991727e-06   6.718927104825e-05   2.696877407623e-05 
5 1  8.887798699764e-05   2.992451610039e-04  -3.735124813652e-05 
6 1  2.023390283171e-04   8.873694561812e-05  -1.095920685567e-04 
7 1  1.824012624898e-04   6.879130342167e-05  -1.402310100071e-04 
8 1  1.435705950289e-04  -9.434422453699e-05  -7.714871709148e-05 
8
Step 28000
1 1 -8.053584254307e-06  -9.961898363328e-05  -3.891965518335e-05 
2 1 -1.422739441068e-04  -1.085068490944e-04  -9.104459290094e-05 
3 1 -3.835009812174e-05   2.294199663207e-05   6.065416786855e-05 
4 1 -2.742992474169e-05   1.484150715516e-04   1.126096738102e-04 
5 1  2.940333166082e-04   7.583522784328e-05   8.227734511098e-05 
6 1  1.171662359773e-04   1.859912445096e-04   5.159691738898e-05 
7 1  1.538677568153e-04   1.843503024635e-04  -1.850802815627e-04 
8 1  5.152719177753e-05  -2.950615614112e-04   5.430517518465e-05 
8
Step 29000
1 1  2.246346632174e-05  -4.097591072752e-05   1.191574980164e-04 
2 1 -1.775215222906e-04  -1.031871536984e-04  -4.655055546455e-05 
3 1 -1.091055080535e-04   2.362600215568e-04  -2.041581841702e-06 
4 1 -1.611518705112e-04  -8.644611842037e-06   5.757788353198e-06 
5 1  8.292469677209e-05   1.240591940520e-04  -2.686884921601e-05 
6 1  3.513352940595e-04  -4.361605695621e-06  -5.333839147079e-05 
7 1  1.182182121284e-04   2.499513073798e-04  -2.955084849288e-06 
8 1  9.308890852178e-06   7.498401642863e-05  -1.879984421391e-05 
8
Step 30000
1 1 -2.222142244708e-04   2.957470154907e-05  -4.703838171945e-05 
2 1 -3.773706488204e-06  -1.369243282763e-04   3.682137304877e-05 
3 1  1.468364589220e-05   1.804998276511e-04  -2.613851119953e-05 
4 1 -1.920266456717e-04  -1.842200569653e-04  -5.083369343495e-05 
5 1  2.753110377142e-04   1.336770962107e-04   8.177929454473e-05 
6 1  1.680476128635e-04   9.456643070923e-06   4.196526840870e-06 
7 1  3.399027365448e-05   8.167053390509e-05   7.559350590450e-05 
8 1  2.086561524049e-04   3.645208478463e-04  -6.051277062564e-05 
8
Step 31000
1 1 -3.170496375560e-04  -4.063779130132e-05  -1.317256089208e-04 
2 1 -8.256649023432e-05  -1.195053483664e-04   8.834850207624e-05 
3 1 -1.929490910435e-04   1.493951855721e-04   1.239847156157e-04 
4 1 -5.185415959840e-05  -1.768502458147e-04  -1.986364329630e-04 
5 1 -6.821097839175e-06   2.332666862574e-05  -1.294673872794e-05 
6 1 -8.727245710258e-05   2.101536122672e-04  -1.029770773303e-04 
7 1  7.824283086962e-05  -4.373100151333e-05  -1.440009016563e-04 
8 1  6.595362405999e-05   2.207833939271e-04  -1.168551159855e-04 
8
Step 32000
1 1  1.340060750814e-04   3.345716409092e-04   7.738606321384e-05 
2 1 -1.454145052136e-04  -5.944020563698e-05  -6.891181539545e-05 
3 1  2.476927362994e-05  -6.046333434204e-05   1.220265465305e-04 
4 1 -1.267655520329e-05  -1.462494378761e-04   1.253172938812e-05 
5 1 -6.384206819278e-06   2.198359975411e-04  -4.389434755401e-05 
6 1  3.368697438940e-05   2.176757651964e-04  -2.082533039766e-04 
7 1 -4.360203640264e-05   1.009111098832e-04  -9.208670418491e-05 
8 1  5.886983119310e-05   1.337156373408e-04  -4.748869471238e-05 
8
Step 33000
1 1 -1.297663477782e-04   1.706744853293e-05   1.812531768554e-05 
2 1 -3.250835388190e-04  -1.677242216906e-04   1.692072425739e-05 
3 1  1.523095173423e-04  -1.527181067647e-05   2.209018065406e-04 
4 1 -1.837258941195e-04  -2.591856982452e-04  -1.923677518897e-04 
5 1  7.967883233251e-05   1.504162755225e-04  -2.692704555135e-04 
6 1  1.355057238113e-04   8.996266940736e-05  -2.463784654381e-04 
7 1 -2.211125166369e-04   9.003682157343e-05   1.348756284373e-05 
8 1 -1.065990480723e-05   2.452068013675e-05   2.716924897394e-05 
8
Step 34000
1 1 -2.644540285531e-06   3.064374267831e-05  -3.776742292887e-05 
2 1 -3.608520582218e-04   9.200790239983e-05   1.803793340030e-05 
3 1  1.367020241931e-04   5.486615653931e-05   1.038387739778e-04 
4 1 -1.775089169915e-04  -2.006894123077e-06  -5.324826866752e-05 
5 1  1.061514861104e-04   2.684647939678e-04  -1.178331784441e-04 
6 1 -2.924920238377e-04   2.043525370553e-04  -1.237842090920e-04 
7 1 -1.872522071601e-04   1.279161954845e-05  -1.618765780909e-04 
8 1 -3.346686828863e-04   2.116182507627e-04   5.710395761219e-05 
8
Step 35000
1 1 -1.276234341228e-04  -5.424314228517e-05  -9.153627216705e-05 
2 1 -8.720511247756e-05  -2.196281113753e-04   1.214504630896e-04 
3 1  1.888001478584e-04  -2.379644974087e-04   9.248262745335e-05 
4 1 -3.028318353414e-04   3.739249963673e-05   9.796379485668e-06 
5 1  1.082383952063e-04   9.622070165944e-05  -5.760250319155e-05 
6 1 -2.130130581045e-04   1.441973249035e-04   1.038952685342e-04 
7 1 -9.745018020391e-05   9.497564891164e-05  -2.167900990307e-05 
8 1 -1.678769915645e-04   2.227526937059e-04  -7.234663144423e-05 
8
Step 36000
1 1 -9.231149010149e-05   1.595454791385e-04  -3.965901275764e-06 
2 1 -1.378474432362e-04  -1.258994170244e-04  -7.422864022748e-05 
3 1  1.549114093013e-04  -4.884492705102e-05   3.156736103341e-05 
4 1 -1.765955230168e-04   6.229494232418e-05   4.097481141318e-05 
5 1  1.796939165785e-04   6.309518908553e-05   1.882749481413e-04 
6 1 -6.944873177099e-05  -4.834852772773e-05  -4.943220099673e-05 
7 1 -3.540937166259e-04  -1.441444636011e-06  -2.463639248989e-04 
8 1 -9.679648244932e-05   4.575692443002e-05   1.355051949785e-04 
8
Step 37000
1 1 -1.025048485100e-04   1.737194682975e-05   2.922000146598e-04 
2 1 -1.579761741068e-05  -1.966932843341e-04   1.252068147064e-04 
3 1  4.259581049272e-05  -2.229444887282e-04   8.523404950748e-05 
4 1  4.664525120234e-05  -5.492214983180e-05   7.416635934799e-05 
5 1  1.804811523035e-04   1.995785322944e-04   1.997432688282e-04 
6 1 -2.613657263901e-04   7.035947952397e-06  -2.926334163720e-04 
7 1 -2.052449684914e-04   1.303190089508e-04  -2.517688654204e-04 
8 1 -8.023256642999e-05   2.721428742794e-04   8.542756075132e-05 
8
Step 38000
1 1 -6.935516524336e-05  -9.027967366403e-05  -7.475002340125e-05 
2 1  7.576384747977e-05  -3.403003631146e-05  -6.045854996087e-05 
3 1  2.796419087870e-04   3.549765942739e-05  -7.963463982538e-05 
4 1 -1.836937616007e-05   7.060423161558e-05  -7.933462038417e-05 
5 1  2.138459154532e-04  -5.011391090066e-05   1.268141811578e-05 
6 1 -1.230318273367e-04  -7.661687341416e-05  -2.003225800843e-04 
7 1 -4.179554101852e-04  -5.826343421767e-05  -1.207105096860e-04 
8 1 -6.162311671859e-05  -3.827022874163e-05   2.238063225740e-05 
8
Step 39000
1 1  5.167144227932e-05  -2.506548947737e-04  -4.629822128432e-05 
2 1  2.025887444145e-04   9.226067277114e-05   1.113758742388e-04 
3 1  2.797940970701e-04   5.572667156613e-05   4.978309859164e-05 
4 1 -1.259892090194e-05   2.320268201523e-05  -1.145196155636e-04 
5 1  8.041720237112e-05   1.661178310839e-04  -1.687678070691e-05 
6 1 -1.630513708080e-04  -2.061857839958e-06  -1.418852334796e-04 
7 1 -1.212913574979e-04   2.217157758192e-04   2.994525892755e-05 
8 1 -1.936467971180e-04   1.111219299197e-04   3.674828044766e-05 
8
Step 40000
1 1  1.664647908648e-04  -7.250808827178e-05  -2.651105081826e-04 
2 1 -1.009823141560e-04   1.435172407251e-04   1.676255695983e-04 
3 1 -5.686525007029e-05   9.301636950119e-05   7.431371848790e-05 
4 1 -8.048254341018e-05  -1.090340077577e-04  -3.468467564606e-05 
5 1  1.279025829773e-04   9.895846969836e-05  -1.032582874353e-04 
6 1  9.932531585673e-05  -2.186946240182e-04   4.242622419496e-05 
7 1  2.609754723631e-04   1.034628028380e-05  -3.200922944550e-06 
8 1 -7.554378392407e-05  -3.248106361340e-06  -9.149913465841e-05 
8
Step 41000
1 1 -6.609519532910e-07  -2.733568894326e-05  -1.465893840929e-04 
2 1 -7.084406123350e-05  -5.459275405157e-05   1.552477791915e-04 
3 1  1.459857212961e-04  -2.724424225728e-05  -1.326061563199e-04 
4 1 -4.005291380881e-05   1.249704166598e-04  -7.562574813440e-05 
5 1  1.257906185367e-04   1.425371883093e-04   2.937958308353e-05 
6 1  8.220816188681e-05  -4.061260820847e-05   3.321021669819e-05 
7 1  5.083869814242e-05   9.554972538875e-05  -1.032777358575e-04 
8 1 -1.727235286881e-04  -2.691677022272e-05  -1.185065048409e-05 
8
Step 42000
1 1  8.981222166923e-05   1.757661638050e-05   1.073354173871e-04 
2 1 -1.276744718809e-04  -3.838490530307e-05   3.896577589600e-04 
3 1 -4.920510803449e-05  -1.083886934116e-05  -4.497594954760e-05 
4 1 -8.018422943710e-05  -1.417101118452e-05  -2.041705342738e-05 
5 1  7.383716849992e-05  -9.288910715704e-05   1.404968480819e-04 
6 1  4.661444161945e-04  -1.779213015564e-04  -9.945956791069e-05 
7 1  3.042033746387e-05   3.312013760618e-04  -4.437464145183e-05 
8 1 -6.263367609255e-05   1.034115884569e-04  -2.960757943481e-04 
8
Step 43000
1 1  6.399426633675e-05   1.034286233307e-04   1.219483708115e-04 
2 1  8.743229097963e-06   2.466581435551e-05   1.049422138428e-04 
3 1 -1.208811297167e-04   9.010089194951e-05   1.600615304933e-04 
4 1 -2.026083236799e-04   1.652603899746e-04  -3.919299580089e-05 
5 1  4.378897282181e-05  -9.802733595617e-05   8.841330381830e-05 
6 1  5.302565419298e-05  -1.702153947058e-04  -7.522794723095e-05 
7 1 -1.802580746446e-05   2.264683238800e-04  -7.851454341622e-05 
8 1 -1.236521569791e-05  -5.772559072540e-05   2.344801758652e-05 
8
Step 44000
1 1 -1.713322295099e-05  -1.125118401766e-04   3.158479870151e-05 
2 1 -4.619655959198e-05  -8.613058672743e-05  -1.030455763271e-04 
3 1 -1.897651657874e-06   1.040161087912e-04   1.440869552205e-04 
4 1 -1.421031120235e-04  -1.029932248525e-04  -1.322844476131e-05 
5 1  4.071837445137e-05  -1.283314156356e-04   5.822145312421e-05 
6 1 -9.530229662900e-06  -2.109960728890e-04  -1.345751133021e-04 
7 1  2.954614966517e-05   3.059203029107e-06   1.006098271702e-04 
8 1  2.202156656414e-04  -3.969984521865e-05   2.206723446881e-05 
8
Step 45000
1 1  1.206522319340e-04  -6.000395052825e-05   5.087047325549e-05 
2 1  2.348034179661e-06  -5.421526683434e-05  -1.615059754569e-04 
3 1 -1.306028008299e-04   5.441968910336e-05  -2.118853806286e-05 
4 1  5.260650076629e-06  -2.167915951342e-05   2.509261326860e-04 
5 1 -9.554508029260e-05   1.786300847152e-04   1.270320780329e-04 
6 1 -7.152736840041e-05  -2.029998619882e-04  -1.576677028197e-04 
7 1 -7.013425469304e-06   1.602021684734e-04  -4.016954863575e-05 
8 1  1.236048086788e-04  -1.441910141387e-04  -4.333672661433e-05 
8
Step 46000
1 1  1.183771240052e-04  -8.474148280740e-05   3.392965643822e-05 
2 1  1.358140955043e-04  -1.341295081467e-04   7.094050079826e-05 
3 1 -1.613560864796e-04  -1.488655113750e-04  -1.138832151515e-04 
4 1  1.145413636732e-04   3.975210511206e-05  -7.738772610829e-05 
5 1  1.075317396438e-05  -3.051706185412e-04  -7.668357847941e-05 
6 1  5.377687731278e-05   5.382276855301e-05  -3.950874357982e-04 
7 1 -6.928426986958e-05   6.404660160048e-05  -1.838222475416e-05 
8 1  5.921243011621e-05  -3.202808376597e-04  -1.707906376997e-04 
8
Step 47000
1 1  2.537338774459e-04   4.605872641403e-05  -1.445034505806e-04 
2 1  9.408644665283e-05  -6.557165419397e-05   5.935648605836e-05 
3 1 -3.212287163914e-04  -2.668071024958e-05  -1.026526090216e-04 
4 1  5.368139400589e-05   2.507608967498e-04  -1.986036395647e-04 
5 1 -6.935152952626e-05  -2.232632965848e-04   7.255188560610e-05 
6 1 -1.862419046680e-05   1.516541498330e-04  -2.544789570047e-04 
7 1  7.606019504818e-05   7.542997272580e-05  -1.541672841348e-05 
8 1 -2.804433624606e-04  -1.228630949999e-04   8.631536715546e-05 
8
Step 48000
1 1  3.209024418929e-05  -8.772226828739e-05  -5.772354115171e-05 
2 1 -6.297265878332e-06  -7.928844456875e-05   2.496241467685e-04 
3 1 -3.842745090236e-05  -1.620866411232e-04   4.429394207467e-05 
4 1  1.921172557398e-04   3.045367879071e-04  -2.068156553228e-04 
5 1  9.743993285079e-05  -6.118648606662e-05   9.294988128929e-05 
6 1  2.178999015528e-04  -8.310898208641e-05  -2.054735041439e-04 
7 1 -1.082628574787e-04  -9.979709933815e-05  -4.832742536490e-05 
8 1 -6.101920588427e-05   5.218144681955e-05  -2.226285245985e-05 
8
Step 49000
1 1 -7.340039435359e-06  -1.550721720962e-04  -1.768623286459e-04 
2 1  1.687987474012e-04  -1.617736923424e-04   2.005640641443e-04 
3 1  1.669951148632e-04  -1.239534655405e-04  -4.051903534363e-05 
4 1 -1.633687686475e-04   1.251718419829e-04  -6.721780203819e-05 
5 1 -2.086287066821e-04   8.630828823570e-05  -1.563147669344e-04 
6 1  1.193052245446e-04  -1.039389450055e-04  -1.972335888024e-04 
7 1 -1.128164706105e-04   1.043587938096e-04   5.686766214671e-05 
8 1 -1.339666311461e-05   1.475263500620e-04  -1.168708532487e-04 
8
Step 50000
1 1  1.393759944643e-04  -1.596374562831e-05   4.843573022708e-07 
2 1  2.368417586217e-04  -2.501486003252e-04  -1.569998187413e-04 
3 1  2.611476506700e-04  -1.167612619700e-04   1.522037220800e-04 
4 1 -2.552086559248e-05   2.216461352724e-04   1.060495096726e-05 
5 1 -8.349620208661e-05  -5.493486622861e-05  -1.897226361019e-04 
6 1  3.154863572872e-04  -1.462944556686e-04  -1.492445190515e-04 
7 1 -2.027071543225e-04  -6.766515236398e-05  -6.527882284689e-05 
8 1 -5.041433901331e-05   2.237153309033e-04  -2.184705870319e-04 
8
Step 51000
1 1 -1.656410851289e-05  -1.888684795099e-04   4.451129231348e-05 
2 1  2.347100083586e-04  -2.281717976540e-04   5.538720207615e-05 
3 1  1.205478655555e-04  -2.541492254613e-04   1.093637950537e-04 
4 1 -3.217250934669e-06  -2.828675875947e-04   4.918682231370e-05 
5 1  1.017990959215e-04  -7.174524910358e-05  -5.812543945264e-06 
6 1  2.134965964484e-04   3.675165762093e-06  -3.243139503307e-04 
7 1 -2.774146559729e-04   2.796364464257e-04  -4.217998009521e-06 
8 1  1.210111552782e-04   8.283904647333e-05   1.370042600710e-04 
8
Step 52000
1 1 -1.586088784065e-06   4.999614847292e-05  -3.408786952532e-04 
2 1  7.178073542063e-05  -1.530872606302e-04  -3.498439152326e-04 
3 1  8.508481795404e-05  -2.338919087003e-04  -1.317404800586e-05 
4 1  4.030328436010e-05   8.681586320770e-05  -3.898371755416e-05 
5 1  3.452679472676e-05   1.895338694717e-04   1.840272349882e-05 
6 1  7.769520001486e-05  -1.498048644680e-04  -2.044615653191e-04 
7 1 -1.041219855768e-04   1.944113198860e-04  -1.884038618988e-04 
8 1  6.295041079242e-05  -7.355653762979e-05  -1.627070495460e-04 
8
Step 53000
1 1  6.334257234466e-05  -2.606764072047e-05  -3.447039685669e-05 
2 1  4.640938596404e-05   6.457844107928e-05  -2.362769238994e-04 
3 1  1.449664515630e-04  -1.281247290150e-04   1.928578084123e-04 
4 1 -1.706572118786e-04  -8.739700978523e-05   1.245980018315e-04 
5 1 -3.997869216615e-06   1.596510111997e-05   1.626219537821e-04 
6 1  4.470494608763e-04  -1.226522373114e-04  -5.336983534393e-05 
7 1 -1.154258293434e-04  -1.259056446591e-04  -2.282564120354e-04 
8 1 -4.821457610640e-05  -4.594894980091e-05  -1.419365663999e-04 
8
Step 54000
1 1 -1.855667465246e-06   3.231953197406e-05  -1.475965122443e-04 
2 1 -8.865554668990e-05  -1.010275993776e-04  -7.237416262953e-05 
3 1  3.152659230823e-04  -4.570393439494e-05   3.384296461892e-04 
4 1 -5.212032478701e-05   2.023932187114e-04  -1.705652812398e-05 
5 1  9.364279504112e-05  -2.928456297084e-04   8.639950527542e-05 