8
Step 0
1 1  0.000000000000e+00   0.000000000000e+00   0.000000000000e+00 
2 1  0.000000000000e+00   0.000000000000e+00   0.000000000000e+00 
3 1  0.000000000000e+00   0.000000000000e+00   0.000000000000e+00 
4 1  0.000000000000e+00   0.000000000000e+00   0.000000000000e+00 
5 1  0.000000000000e+00   0.000000000000e+00   0.000000000000e+00 
6 1  0.000000000000e+00   0.000000000000e+00   0.000000000000e+00 
7 1  0.000000000000e+00   0.000000000000e+00   0.000000000000e+00 
8 1  0.000000000000e+00   0.000000000000e+00   0.000000000000e+00 
8
Step 1000
1 1 -1.919976003919e-04   2.173603935682e-04   8.634491034401e-05 
2 1 -1.106383746150e-04   6.358301204057e-05   3.008311943542e-05 
3 1  3.068312523917e-05  -1.135383080943e-04   9.663178623958e-05 
4 1 -4.949558472386e-05   4.121543881617e-05   3.679191377663e-05 
5 1  7.577892424688e-05  -5.440313811359e-05   3.985847181111e-04 
6 1  2.976435522400e-05   6.868296294792e-05  -2.692017516248e-04 
7 1 -2.605535445357e-04   6.261866288534e-05  -4.606651075032e-05 
8 1 -1.308410777628e-04   8.950132156487e-05   9.555212480301e-05 
8
Step 2000
1 1  3.284766654989e-05  -1.681503483700e-05   4.365199788046e-05 
2 1  6.649356667104e-05   1.953113481595e-04  -3.214407007986e-05 
3 1 -1.271986806902e-04  -1.613085715316e-04   4.119097060923e-05 
4 1 -1.856810761498e-04   1.392406440084e-04   6.861711258162e-05 
5 1  5.673325743957e-05  -3.017899378871e-04   7.046231274582e-05 
6 1 -2.272476534448e-05   1.812773531631e-04  -7.101232803955e-05 
7 1  1.191050519379e-04   4.891736501353e-05   4.635191307209e-05 
8 1 -6.850948729268e-05   3.908988058091e-05   8.439284862051e-05 
8
Step 3000
1 1  5.266321221637e-05  -2.810691216487e-05  -1.340593110765e-04 
2 1 -1.228220238655e-04  -3.657607691709e-04   8.611325828758e-05 
3 1  4.293877591758e-04  -3.699414971499e-05   1.835123472398e-04 
4 1  9.837427671665e-05  -1.164509895708e-05  -2.118779112960e-05 
5 1  3.460453231021e-04   4.033621439327e-06   1.666558550917e-04 
6 1 -1.795252376220e-04   2.040723815115e-04  -2.965553671391e-04 
7 1  4.345467399592e-05   5.559980833848e-05   1.888948322234e-04 
8 1 -7.335627748891e-05   2.169725738899e-04   1.288299821712e-04 
8
Step 4000
1 1  9.453627050581e-05   1.958189197451e-04   1.088750904074e-04 
2 1  2.423027946625e-04  -2.118182944789e-04  -2.457806209309e-04 
3 1  1.614729638597e-04  -1.751053806098e-04  -5.740805455205e-05 
4 1 -1.133337812256e-04  -2.199055720511e-04  -1.103142408946e-04 
5 1  1.337944232767e-05  -9.014794437889e-06   8.816718945655e-05 
6 1  4.217387751247e-05   3.748953546780e-05  -5.085940740533e-05 
7 1  4.655629694869e-06   2.431183465650e-04   1.026728183753e-04 
8 1  2.347410434526e-06  -1.626251823842e-04  -2.771460528778e-05 
8
Step 5000
1 1  6.390593863032e-05   7.186137264299e-05   7.142246320741e-05 
2 1  1.622552162536e-05  -1.815599960114e-04   7.553876004520e-05 
3 1 -5.051701535273e-06  -1.959084780762e-04   1.425312858506e-05 
4 1  2.319309387827e-05   4.999864983078e-05   9.112827538112e-05 
5 1  2.032427769054e-04  -1.531620325473e-04   2.553889570726e-05 
6 1  1.124437083875e-04   1.472624735506e-04  -2.130883213694e-04 
7 1  1.773427962038e-04   6.696044580778e-05  -2.424647729857e-05 
8 1 -1.875963773883e-04   2.179877292116e-05  -7.924408718204e-05 
8
Step 6000
1 1  1.231316930089e-04   1.406921156618e-04   3.388130480659e-06 
2 1 -4.899548540598e-05   1.420278253258e-05   1.240519307177e-04 
3 1  1.046338428330e-04   1.958601956484e-04  -5.385766062814e-04 
4 1 -1.886551981908e-05   1.144751622856e-04  -1.027387176802e-04 
5 1  3.694968469663e-05  -1.619518634033e-04   1.072135390903e-04 
6 1 -1.169266247688e-05   2.152563492401e-05  -4.453308666383e-05 
7 1  1.535399116247e-04  -2.617383332053e-04  -2.533992941800e-04 
8 1  6.731997237583e-05   1.268264884038e-04  -5.500844910404e-06 
8
Step 7000
1 1  1.035572458293e-04  -1.102185796385e-04   7.587903026330e-05 
2 1 -2.591826929075e-05  -2.342683723344e-04  -1.320821053543e-04 
3 1 -1.749777778624e-04   4.789198055725e-05   4.961910120014e-05 
4 1 -9.254233220676e-05  -2.329181393037e-04  -4.556690671816e-05 
5 1 -1.236246516542e-04   2.671413368154e-06   1.021521378962e-04 
6 1  2.997387546194e-05  -3.716476041051e-05  -2.469166005587e-04 
7 1  3.248043687529e-05   1.298498654173e-05  -2.770500948975e-04 
8 1  1.123492496140e-04   1.414427202137e-04  -2.296770745194e-04 
8
Step 8000
1 1  9.300641402314e-05   2.256258779294e-05  -2.458192689715e-04 
2 1  9.824696860005e-05  -1.164730389284e-04  -1.245825154216e-04 
3 1  8.306712160778e-05   1.050369354934e-04   1.050216888032e-04 
4 1 -9.048877897050e-05  -7.648076038440e-06  -1.208309538328e-04 
5 1 -6.502594989307e-05   1.121027865909e-04  -2.889412582633e-05 
6 1  9.606091452412e-05  -3.211809197120e-05  -2.922659629911e-04 
7 1  4.732554630021e-04  -3.443904395826e-05  -1.372402670070e-05 
8 1  9.921523904124e-05   1.069304480925e-04  -8.735471999646e-05 
8
Step 9000
1 1  1.951607616553e-04   3.424477137878e-05  -1.695403800494e-05 
2 1  1.894767569201e-04  -1.730314042423e-04  -1.822144437786e-04 
3 1 -1.886342320011e-04  -2.297505747798e-05   2.454777541252e-04 
4 1 -2.833028956890e-04  -6.330363012054e-05   1.714887908294e-04 
5 1 -1.980292104163e-04   2.607802576315e-05  -2.477638907951e-04 
6 1 -2.948830373221e-04   1.831746981826e-04  -8.931214191980e-05 
7 1  1.839523946727e-04   9.303443172335e-05  -1.639064698968e-04 
8 1  7.104990515903e-05  -4.892920927908e-05  -2.435436615033e-04 
8
Step 10000
1 1 -1.125964063254e-04   9.398222883672e-05  -4.304720889168e-05 
2 1 -7.572290515617e-05   1.342985712188e-04  -1.752745471231e-04 
3 1  1.969212085267e-05   3.555806512306e-05   1.377050525335e-04 
4 1  1.807243751787e-05  -6.304593494606e-05   2.101874803886e-04 
5 1 -7.648158923559e-05   1.214507551786e-04  -2.135776187346e-04 
6 1  1.297902112308e-04   1.148023983196e-04   2.900206462392e-04 
7 1 -8.408472664946e-05   2.534587511931e-04  -3.132679146821e-05 
8 1  2.384954436611e-04   4.229678302842e-05  -1.609562390241e-05 
8
Step 11000
1 1  1.306037527104e-04   1.756955745076e-05  -1.148095783259e-04 
2 1  1.240231545334e-04  -1.866120053351e-04  -2.080496930392e-05 
3 1  1.486785103364e-04   2.524065416600e-05   1.067322361928e-04 
4 1 -1.296922193763e-05  -1.612777082510e-04   1.572641725769e-04 
5 1 -5.555932085419e-05   2.078492552556e-04  -7.053451673744e-05 
6 1 -1.067558077347e-04  -3.989753654549e-05   3.302574025967e-06 
7 1 -2.759385107373e-05   7.189768870171e-05  -2.334806598745e-04 
8 1  1.658354590091e-04   1.104140373675e-04  -1.484673982482e-04 
8
Step 12000
1 1  5.576995989275e-05  -1.287371726082e-04   2.539824435558e-04 
2 1 -1.278115135030e-04   3.790969043920e-04  -2.359578810994e-04 
3 1  3.591811681464e-04   6.392031253813e-05  -8.942216910737e-05 
4 1 -8.138797259097e-05  -2.266707240803e-05   2.230840638659e-05 
5 1  5.627843417613e-05  -1.462961897472e-04   3.568039852046e-04 
6 1  1.675694505354e-04  -1.853982838868e-04   1.959220380060e-06 
7 1  6.475454846188e-05   7.961192337196e-05  -1.944188596099e-04 
8 1  2.131431942254e-05   4.349986181285e-04  -1.735268119185e-04 
8
Step 13000
1 1  1.108676517054e-04   4.309580007272e-05   2.283618067710e-05 
2 1  1.822890991216e-04   1.150215899136e-04  -9.543357218710e-05 
3 1  1.165808729899e-04   1.311241687513e-04   4.141236739607e-05 
4 1 -1.938711917247e-04  -2.138411140855e-04   1.430090386850e-04 
5 1  6.808896241543e-05  -1.914070496216e-05   1.013097553970e-04 
6 1  3.331392271557e-04  -2.281431508136e-06  -1.255789576817e-04 
7 1 -2.214475538004e-04   2.385017116585e-04   7.651963639486e-06 
8 1 -8.434861970729e-06   2.213490899150e-04  -2.480386951038e-04 
8
Step 14000
1 1  5.980143690262e-05   4.395754295790e-05   1.768079105666e-04 
2 1 -1.262235160501e-04  -8.769911645871e-05  -2.189719728458e-05 
3 1  1.099520263763e-04   7.476027550332e-05  -6.105335590387e-05 
4 1  1.012070286058e-04   1.237417936460e-04   1.115136689673e-04 
5 1  3.501886532343e-04  -1.623092818491e-04  -8.126090818266e-05 
6 1  1.832601681211e-04   1.595020566769e-04   9.665641482740e-05 
7 1  5.553719190847e-05   4.636362674546e-04   1.349223204246e-04 
8 1 -4.423642385169e-05   4.695317661563e-06  -7.823077785728e-05 
8
Step 15000
1 1 -6.942575479982e-07   2.355288915985e-04  -1.527060089141e-04 
2 1  2.982534173587e-04  -1.556029743225e-05  -2.561331936712e-04 
3 1 -2.635849437046e-04  -3.376174172737e-04   9.681831064737e-05 
4 1 -1.225113031241e-05   1.281102101700e-04   1.309121991856e-04 
5 1  1.070071613246e-04  -4.434130134320e-04  -1.085150221695e-04 
6 1 -8.504484867540e-05   1.383716720903e-04   5.171000084402e-05 
7 1  1.097339814416e-04   2.131454955600e-04   2.018487964269e-05 
8 1  7.309262845299e-05   1.286791343857e-04   6.269102239350e-05 
8
Step 16000
1 1 -1.891913650181e-05  -3.043141981985e-05   2.177654235638e-04 
2 1  4.991877655842e-05  -1.338395936462e-05  -1.942607984456e-04 
3 1 -2.677787424255e-04  -2.242993833226e-04  -5.453743832702e-05 
4 1  7.124008034195e-05   2.018265028019e-04   1.536649752730e-04 
5 1 -5.742004977398e-05  -9.120517067239e-05   1.036386011400e-04 
6 1  6.296176697572e-05   6.613194670974e-05   2.450573900969e-05 
7 1 -8.687749185682e-05   1.285724381267e-04   1.160576149387e-04 
8 1 -3.923637655923e-05   1.904801685751e-04  -4.793556707338e-05 
8
Step 17000
1 1 -2.176865535291e-04   8.507930756345e-05   1.467753392620e-05 
2 1  5.620450986212e-05   5.502673407487e-05  -2.019849142704e-04 
3 1  1.092316909988e-05   5.733345200359e-06   9.316826372858e-05 
4 1  2.761374807372e-05   7.997313188801e-05   1.231748754735e-04 
5 1  3.754254972671e-04   2.265081387736e-04  -3.753469023692e-05 
6 1 -4.476959776047e-05  -2.808379945104e-04  -1.588691166809e-04 
7 1 -3.983804987018e-05   2.208717989763e-04   5.509487235052e-05 
8 1  1.060093534990e-04   2.699855833701e-04  -2.881934200843e-05 
8
Step 18000
1 1  2.216538185283e-05  -7.254114074245e-05   1.148912744161e-04 
2 1  3.733147966173e-05   6.589715760667e-07  -3.767811841892e-05 
3 1 -8.861650412275e-05   1.241439751633e-05   6.753210868587e-05 
4 1 -1.488488173379e-04   2.413090523958e-04   1.110261485457e-04 
5 1 -1.496593055528e-04  -4.359565930047e-05   2.103614166601e-04 
6 1 -9.050406995360e-05  -7.296999659622e-05   1.297937409218e-05 
7 1 -1.774448672678e-05  -6.176767887100e-05  -1.779511854120e-04 
8 1  8.935277019220e-05  -1.224231742919e-04   1.208517853436e-04 
8
Step 19000
1 1  9.972884839963e-05  -5.701340450950e-05  -1.233185969532e-04 
2 1 -1.113878913676e-04  -5.793946330685e-05  -1.349634655586e-04 
3 1  1.421273699941e-04   9.249553011199e-06  -1.215199381500e-04 
4 1  1.004503872748e-04   1.754604893100e-04   1.790892992041e-04 
5 1 -1.553131167109e-04   2.963691558544e-05   2.573443700687e-05 
6 1 -7.999615994189e-05   1.289579966662e-05  -2.180104086492e-04 
7 1  6.319788139260e-05  -3.696582449772e-05  -1.435845206102e-04 
8 1  1.687858810631e-04   2.249060779290e-05   2.756523152555e-04 
8
Step 20000
1 1  1.104731874919e-04   2.756982033082e-04  -1.127194607081e-04 
2 1 -1.256783950155e-04  -7.732693433532e-05   2.415706596568e-04 
3 1  7.963338170653e-05   4.302992421703e-05   2.052269549217e-05 
4 1 -1.599572466509e-04   1.316615560217e-04   5.460094750655e-05 
5 1 -3.882108341291e-05   1.120530214191e-04  -9.954246961560e-05 
6 1 -1.321925031789e-04   1.127030449301e-07   1.017615446503e-04 
7 1  1.667344191833e-04   5.497466881081e-05   1.584956933869e-05 
8 1  7.590690666297e-05  -2.021914607333e-05   1.602212010229e-04 
8
Step 21000
1 1 -3.467017786183e-05   1.295680769340e-04  -2.485989391266e-04 
2 1 -2.586228947195e-04   1.213463743367e-04  -6.252758051312e-05 
3 1  1.226238169987e-04  -1.207109949694e-04   2.733497802409e-04 
4 1 -1.357491005044e-04   5.657579161907e-05  -1.271447681222e-04 
5 1 -8.460187438793e-05  -1.265757420884e-05  -1.030455477500e-04 
6 1  2.186998222180e-05   2.028396535292e-04   1.176336379454e-04 
7 1 -1.332644505903e-04  -1.358383321153e-04  -1.039878013756e-04 
8 1  9.565235006551e-05  -1.120447654506e-04  -4.013980580617e-05 
8
Step 22000
1 1 -1.628584012823e-04   7.696843731253e-05   5.149787682411e-05 
2 1 -6.541551392259e-05   4.453633352993e-04   2.228368200091e-05 
3 1  1.935698431553e-04  -3.216236112007e-04   1.213359390960e-04 
4 1  2.163292754971e-05   1.905826809185e-04  -2.558611082127e-04 
5 1  1.039461534882e-04  -2.474038201430e-04   4.051842920242e-05 
6 1  3.220092199983e-04   5.785573238875e-05   1.271191190671e-04 
7 1 -5.721635802653e-05   3.380325038329e-05   7.606147521999e-05 
8 1  6.890398689166e-06  -5.031809072442e-05   8.018642172410e-05 
8
Step 23000
1 1 -1.225048623448e-04  -2.312734335939e-04   9.024117389440e-05 
2 1 -1.528478754118e-05   9.812222273111e-05  -1.483445994153e-05 
3 1 -1.105124706992e-05  -2.375940190223e-05   1.094837426480e-04 
4 1 -3.360860430380e-05   4.087202327033e-05  -1.419870756358e-04 
5 1  1.139316459250e-04  -8.142198027163e-05  -4.525736563137e-05 
6 1  1.374629102485e-04  -1.200312378726e-05   1.572442507258e-04 
7 1 -1.916893096458e-04  -1.424597469647e-04   3.001949720857e-05 
8 1 -5.308074257660e-05  -1.979332831034e-06   1.848284926619e-04 
8
Step 24000
1 1 -1.034667020659e-04  -6.417508171740e-05   8.269255830587e-05 
2 1 -6.567865977192e-05   6.696723084865e-05   8.012529906808e-05 
3 1  6.196967989598e-06   1.321493852100e-04  -3.420661854160e-04 
4 1 -3.331995969289e-05  -1.371243866220e-04   4.814465554263e-05 
5 1  5.562118946460e-05  -2.691576586829e-05   2.776658527811e-05 
6 1  3.100177423035e-04   1.620888227779e-04   1.839194634651e-05 
7 1  2.532933134754e-05   1.064023588055e-05   1.692719458881e-04 
8 1 -7.324240053211e-05   1.252252844219e-04   1.917671121670e-04 
8
Step 25000
1 1  7.415279275129e-05   1.846977898000e-05   1.353010407692e-05 
2 1  6.392246731447e-05   5.058302469628e-05   2.950000686290e-04 
3 1  6.148959603072e-06  -5.791427896709e-05   1.738017729860e-05 
4 1 -1.654349055155e-04   2.202370474921e-05   1.400684990494e-05 
5 1 -2.569668540416e-05  -2.969713406118e-04   4.605639186192e-05 
6 1  1.331167102815e-05  -4.560530829474e-05  -9.407538498113e-05 
7 1 -1.896786268250e-04   1.305500011724e-04   3.083613620199e-05 
8 1 -2.276952694707e-05   2.296668294155e-04   1.651709254812e-04 
8
Step 26000
1 1 -1.480140986918e-04   2.080418574324e-06   1.476009276798e-04 
2 1 -1.017066802719e-04   4.344719870191e-05   2.545791948843e-04 
3 1  5.916479307047e-05  -9.877660189618e-05  -3.652824798779e-05 
4 1 -2.506381255963e-05  -9.234666276381e-05  -4.431551865894e-04 
5 1  2.509672331111e-05  -2.224115761563e-04   1.072543594036e-04 
6 1  4.625403398988e-05  -8.932454144771e-05   9.883993682128e-05 
7 1  3.026425353642e-05  -1.002301986115e-04  -6.737943195663e-05 
8 1  6.706941648086e-06   6.628963835861e-05   7.574670249982e-05 
8
Step 27000
1 1  6.254071346848e-05   1.121089815737e-04   2.583308027962e-05 
2 1  6.335645917541e-05   2.558541406955e-04   5.487036659021e-05 
3 1  1.084452854055e-05  -2.357729912673e-04  -2.184945127825e-05 
4 1 -1.506150263645e-04   1.592295261638e-05  -1.102759223143e-04 
5 1 -2.110287790087e-04  -1.168542337736e-04  -1.175274212573e-04 
6 1 -5.670272510651e-05   5.695728457163e-06   8.580178850329e-06 
7 1 -1.186610349392e-04  -1.808635782230e-04  -1.268589690738e-04 
8 1 -1.407227382704e-04   7.701040416547e-05  -5.453290462495e-05 
8
Step 28000
1 1  1.689938510877e-04  -1.587538312215e-05   9.006030923101e-05 
2 1  2.951864885906e-05  -4.869023890997e-05  -1.482680193223e-04 
3 1 -1.025116071407e-04  -1.957873481640e-04   4.019386005811e-05 
4 1 -1.739587622103e-04  -1.523889541497e-04   8.633966288760e-05 
5 1  1.990174334439e-04  -1.821530444866e-04   4.216216493053e-05 
6 1  7.838707010288e-05   5.918787484928e-05  -1.941868740921e-04 
7 1  6.013968621065e-05   3.141303201283e-05  -8.653224904983e-05 
8 1  8.913098682234e-05  -1.578104499850e-05  -1.757589860290e-04 
8
Step 29000
1 1  1.608850061699e-04   1.943207827440e-04   1.821482644449e-05 
2 1 -2.064787820474e-04   1.733363613119e-04  -2.500506731831e-04 
3 1 -4.143242237898e-05  -3.058287315145e-04   1.017308941177e-04 
4 1  3.271799138956e-04  -3.224475641086e-04   3.730121534061e-05 
5 1  4.035529851618e-05   8.002603833331e-05   1.154040591153e-04 
6 1 -1.584081224241e-04  -1.242089463587e-05  -9.530042602813e-05 
7 1 -2.633727620284e-04  -1.642276859043e-04  -1.213538724638e-04 
8 1  2.470662178444e-05  -6.975592513324e-05  -6.108994751492e-05 
8
Step 30000
1 1  7.746258136511e-05  -1.565094737720e-04   5.232681795200e-05 
2 1 -1.649028027411e-05   5.461439941283e-05  -8.083577432272e-05 
3 1 -9.218191992724e-05  -2.087913504290e-04  -2.756671253380e-06 
4 1 -7.803508009426e-05   1.852766510393e-05   1.881109518795e-04 
5 1 -2.082010645976e-04  -2.507422830715e-04  -1.653702277097e-04 
6 1  6.261777004677e-05   4.643168372307e-06  -6.889929471463e-05 
7 1  1.525498250100e-04   2.482418239638e-05  -8.816717141259e-05 
8 1  1.274851184378e-04  -2.358419842433e-04  -4.157211491790e-05 
8
Step 31000
1 1  3.532777788217e-05  -1.191456540875e-04  -5.750686424579e-05 
2 1 -2.362079931892e-04  -7.614215837435e-05  -1.289571299965e-04 
3 1  5.315024526709e-05  -2.157024901428e-04  -2.531112974795e-04 
4 1  2.336705153427e-05   6.994041018159e-05   2.823901102238e-05 
5 1 -3.807669481374e-05  -5.653320343892e-05  -5.979737328954e-05 
6 1 -1.388871999857e-05   4.466879267519e-06   7.525057047825e-05 
7 1  1.748108951710e-04   7.477038745072e-05   2.491012913435e-04 
8 1 -1.550058033587e-04  -2.391349812929e-04  -5.800323538229e-05 
8
Step 32000
1 1 -1.280882327054e-04  -4.240322995656e-04  -2.726885930298e-04 
2 1  1.145098731514e-04  -6.618881836508e-05   2.718249638439e-05 
3 1 -5.252857387715e-05  -1.251759922244e-04   1.208083479785e-04 
4 1 -2.222576171117e-05   1.590282934721e-04  -1.762702690307e-04 
5 1 -3.248662265048e-05   1.501502525802e-04   1.543758995753e-04 
6 1  6.930928960555e-05  -1.333714357590e-04   3.982568483698e-04 
7 1  7.705606498713e-05  -1.686653529126e-05   1.861404298309e-04 
8 1  5.409171587669e-05  -6.907467225253e-05   7.590132443378e-05 
8
Step 33000
1 1  3.417273316985e-05  -2.613295437277e-04   5.074777920836e-05 
2 1 -3.427842619954e-06  -2.106645941960e-04  -6.846490286426e-05 
3 1 -9.332553509837e-05   3.417600283710e-05  -8.238137486684e-05 
4 1 -3.037417019741e-04   1.196556535367e-04   6.854618407056e-05 
5 1 -2.479767890749e-05  -2.395235750163e-04   3.474842826638e-04 
6 1 -8.365833358025e-05  -1.476430504284e-05   2.117837849777e-04 
7 1  1.209328363865e-04  -2.422252362295e-04   1.233323438295e-04 
8 1  7.365772765932e-05  -3.474498579129e-04  -5.524652294986e-05 
8
Step 34000
1 1 -2.135117007399e-04  -9.769366527094e-06  -3.576100756529e-05 
2 1  1.298448587845e-04  -1.543701552094e-04  -8.388976104616e-05 
3 1 -3.038621592218e-05   1.659846971739e-04  -1.573959052020e-04 
4 1  1.081205354542e-04   1.903894409434e-04   6.866162318600e-05 
5 1  1.931333409156e-04  -1.792795059199e-04  -4.767231213744e-05 
6 1  2.582252193279e-04  -8.768590078729e-05   3.533811285648e-04 
7 1  1.991114819572e-04  -5.639121991621e-05   2.559277055129e-04 
8 1  2.553323082146e-04  -1.966270172977e-06  -1.012499778144e-04 
8
Step 35000
1 1 -8.959391286031e-06  -3.254164285581e-04  -4.815743819749e-05 
2 1  1.107745812247e-04  -1.142042463123e-04   5.360173609884e-06 
3 1 -1.248329920119e-04  -6.379167098583e-05  -5.215620309973e-05 
4 1  2.075835660518e-04  -1.440702128750e-05  -1.221121789816e-04 
5 1  7.348934996152e-05  -7.100933776448e-05  -2.390664531436e-04 
6 1  2.173163498002e-04  -1.582495810844e-04   2.929223379534e-04 
7 1  3.966806902350e-05  -2.161887609451e-04   1.115194778357e-04 
8 1 -9.917016279436e-05  -1.522052324348e-04   1.364671551753e-04 
8
Step 36000
1 1 -2.154869659034e-04  -1.329994304639e-04   6.537278397017e-05 
2 1  5.174366289932e-05   1.577081356166e-04  -1.580895597680e-04 
3 1  2.882769179693e-04   1.104372110034e-05  -6.109643464260e-05 
4 1  3.666317462983e-04  -1.482914537442e-04   2.660113603280e-04 
5 1 -8.667556259979e-05  -5.239671930271e-05  -1.980960019671e-04 
6 1  1.358395437972e-04   5.779340260588e-05   1.273101214203e-04 
7 1  2.754996258929e-04   3.081831101034e-04   5.483071409650e-05 
8 1 -2.554858580951e-06  -1.714864501428e-04   8.125710629129e-05 
8
Step 37000
1 1 -1.407988433576e-05   1.394735694955e-04  -9.735958968041e-05 
2 1 -9.106619581218e-05   7.404624052267e-05  -2.437826981766e-05 
3 1  1.431524586034e-04  -2.002477652114e-04   1.457339402321e-05 
4 1 -6.312620020768e-05   8.639942258084e-05  -1.015722125476e-04 
5 1 -1.682347806467e-04  -1.912007794286e-04  -1.573863515964e-04 
6 1  2.888707882896e-04  -1.013241613673e-05   1.822558706207e-04 
7 1  5.551578412290e-05   8.499974263968e-05   2.634634545976e-04 
8 1  8.539091932598e-05  -3.512747329085e-04  -1.511806266466e-04 
8
Step 38000
1 1 -1.020384751973e-04   3.290653636918e-05  -1.286739725163e-04 
2 1 -3.824864203995e-05  -1.703735021832e-04   4.284967747645e-05 
3 1 -1.676132983212e-04  -1.380382262526e-04   1.504471585004e-05 
4 1  1.315826755137e-04   2.048364756696e-05  -1.559726667049e-04 
5 1  1.115444783381e-04  -2.872124595893e-04  -1.243779977671e-04 
6 1  5.485704767763e-06   2.780441122812e-04  -5.715124057038e-06 
7 1  2.713218815277e-04  -1.590557674342e-04   1.013483492397e-04 
8 1  1.487523708562e-04   4.122098722668e-06  -3.416524548495e-05 
8
Step 39000
1 1 -2.525670954342e-05  -1.475718065812e-05  -3.440834841809e-05 
2 1  1.179294306994e-04   1.667829920577e-04   5.314771385417e-05 
3 1 -1.834803495975e-04  -3.451559259839e-04  -3.631525475598e-05 
4 1  1.082593887672e-04  -1.903051792567e-04   9.361955399327e-05 
5 1  7.892469540963e-05   3.353747698745e-05   1.195627963441e-05 
6 1  1.203656489224e-04   1.439907769904e-04   1.637643908570e-04 
7 1  4.567510488983e-05  -1.802820299233e-04  -1.313364652021e-04 
8 1  3.773048123330e-05  -1.697742347814e-04   6.552704073188e-05 
8
Step 40000
1 1 -2.233320087440e-04   7.309036731573e-05  -8.172987423919e-05 
2 1  1.847101983214e-04  -9.210269583696e-05  -3.708229097715e-04 
3 1  2.381227529986e-04  -1.623228471908e-04   7.646968023499e-05 
4 1  1.769853880674e-04   7.733847405705e-05  -5.149090158943e-06 
5 1 -1.924332820492e-04  -1.149462387245e-04  -1.802066662565e-04 
6 1  1.885319265952e-04  -8.719649441009e-05   3.742920137075e-06 
7 1  4.060874122911e-05  -7.959299312629e-05   1.490588519842e-04 
8 1  7.760112652742e-05  -1.216528668978e-04   6.811786281924e-05 
8
Step 41000
1 1  1.076738456733e-04  -2.074921594458e-04   6.242650617442e-05 
2 1  8.596937491884e-05  -1.382012143903e-04  -3.407471450600e-06 
3 1  1.052662629543e-04  -2.406667863955e-05   2.721661390047e-04 
4 1  2.035028970987e-04  -3.546489160195e-05  -1.017074623755e-04 
5 1 -2.054812630747e-04  -1.309342683225e-04   2.360855713988e-05 
6 1 -6.361050158874e-05   9.248320379974e-05  -1.913984974642e-04 
7 1 -1.214602884353e-04  -1.588877478677e-04  -1.860463361303e-04 
8 1  3.822521154891e-05  -1.771220303358e-04   8.604673582970e-05 
8
Step 42000
1 1  1.470144059374e-04   1.065977082584e-04  -2.367722387113e-04 
2 1  1.590236618165e-04   2.857518570623e-05  -5.201468087960e-06 
3 1  1.451962575206e-04   1.175882777188e-04  -1.023322123959e-04 
4 1  1.295292132076e-04  -1.243879037196e-04   9.531856177255e-05 
5 1 -1.976301494411e-04  -4.423421880333e-06  -4.875711350262e-05 
6 1 -1.834563937058e-04  -1.163639733928e-04   7.356786252451e-05 
7 1 -1.943159191833e-04  -2.748900877376e-04  -2.669998417179e-04 
8 1 -3.354509260041e-05  -1.919835212717e-04   5.575126458396e-05 
8
Step 43000
1 1  1.655165043148e-04  -2.803295780807e-04  -1.136493057380e-04 
2 1  2.181599802759e-04  -2.075996099490e-04  -1.070151565073e-04 
3 1  3.270560835406e-04  -1.721627769173e-04   2.391134264066e-05 
4 1  2.477371438806e-04   2.568372094699e-05   2.008846220460e-04 
5 1 -8.873361933225e-05  -1.036517061986e-04  -3.394541049049e-04 
6 1 -1.712690599091e-05  -2.197871966248e-05  -7.709681066376e-05 
7 1 -1.214559209469e-04  -8.248156206347e-05  -1.105228066980e-04 
8 1  5.497402393841e-06   1.197982137215e-05  -1.674502270524e-05 
8
Step 44000
1 1 -2.145199621166e-04  -6.627669966624e-05  -3.373515848021e-05 
2 1  1.778100363020e-04  -1.153895427050e-04   5.059499588512e-05 
3 1 -2.477113625329e-05  -8.619482081678e-05   6.681378125176e-05 
4 1  1.578941627333e-04  -5.293395233828e-05  -2.219175275977e-05 
5 1  1.315143788904e-04  -5.836027265156e-05   4.206363559761e-05 
6 1  4.409199077521e-05   1.758774854236e-04   2.283454132956e-04 
7 1 -1.165138335678e-04  -1.686648296631e-04   3.795595809198e-05 
8 1 -2.962193096297e-04   4.940101805656e-05  -9.890917156288e-05 
8
Step 45000
1 1 -1.638949703121e-05   1.677173630499e-05  -1.316535740046e-05 
2 1  8.334461050424e-05  -1.178642100994e-04   5.734654018287e-05 
3 1  1.480330921517e-04  -1.280782390126e-04   1.138855393908e-04 
4 1  5.840230009917e-05   1.085602440763e-04  -6.411917815896e-05 
5 1  5.617521109453e-05  -5.224083317530e-05  -1.871717063529e-04 
6 1 -1.350248784300e-05  -1.421995229870e-05   9.284420020268e-05 
7 1 -3.883478769378e-05  -1.534928423062e-04   7.904033445578e-05 
8 1 -2.031521083124e-04   2.333866353203e-05  -2.353162550868e-04 
8
Step 46000
1 1 -1.340718232096e-04  -2.137485477719e-04   2.524798471345e-04 
2 1 -3.451743541774e-04   7.221506302305e-05   1.157836267140e-04 
3 1  1.828325270184e-04   1.405001834601e-04   6.280960602868e-05 
4 1  1.396893203822e-04  -4.723776154532e-06   1.295713594833e-04 
5 1  5.488453751331e-06  -8.509298237767e-06  -3.060013834843e-05 
6 1  1.706408898600e-04  -8.320687762947e-05   6.907851556792e-05 
7 1 -9.845284499314e-05  -2.244539342096e-04  -6.179039419537e-05 
8 1 -1.222243166103e-05   9.375463568165e-05   1.520311492347e-04 
8
Step 47000
1 1 -9.797479960388e-05  -1.254315098885e-04  -1.895837680273e-05 
2 1  1.132880779229e-04  -1.121845015460e-04   6.773492155987e-05 
3 1  1.293840891790e-04  -2.873056380268e-05  -2.225520421011e-04 
4 1  3.083179342960e-05  -3.085500216729e-04  -1.221760993733e-04 
5 1 -1.014182018650e-04   4.023777154098e-05  -8.334674884345e-05 
6 1 -2.299366278318e-04   3.378398192611e-05   1.583741867918e-04 
7 1 -4.374733462147e-05  -1.998595108530e-04   9.664402323664e-05 
8 1  1.184995040461e-04   8.505884525883e-05   5.172181071217e-05 
8
Step 48000
1 1 -1.330147548121e-04  -2.935078442067e-04   1.861565372883e-05 
2 1 -6.666265182656e-05   1.047119175303e-04   7.105994123284e-05 
3 1  8.210589570629e-05  -5.763020079527e-05   9.677615132753e-07 
4 1  5.887654976215e-05  -4.123582532794e-04   5.645153197223e-05 
5 1  1.421398841468e-04   2.180037241593e-04  -1.238832798885e-04 
6 1 -1.892353569848e-04   6.829913164024e-05   3.777776193247e-04 
7 1  9.821297140778e-05  -1.089843990289e-04  -2.604330780729e-04 
8 1  5.228960496759e-05   1.790260355252e-04   7.855238016335e-05 
8
Step 49000
1 1 -1.581693570198e-04  -3.520201827410e-05   1.669151166951e-04 
2 1 -6.005186383419e-06  -3.894106875038e-05  -1.929446972541e-04 
3 1  1.443638673399e-05  -1.931396718397e-05  -5.284006794633e-05 
4 1 -4.368042906040e-06  -1.657026830456e-04  -3.382909441898e-05 
5 1  1.032844058858e-04  -1.644407532899e-05   6.399151377731e-05 
6 1 -1.081169703351e-04   8.527141747895e-05   1.494770100665e-04 
7 1  1.501413243016e-04   1.338681174751e-04  -3.514367191024e-05 
8 1  2.765330560319e-05  -6.688532940807e-05   1.102324117648e-04 
8
Step 50000
1 1 -1.745333339386e-04  -2.165309414474e-04   1.524030238380e-04 
2 1 -1.300375769222e-04   3.492943009003e-04   1.282967749400e-04 
3 1  5.927174172801e-05   2.205433190994e-04  -1.234904016638e-04 
4 1  5.514981488312e-05  -8.741160720222e-05  -9.392981091229e-05 
5 1  2.825318951279e-05   1.338401417731e-05  -3.864033032025e-05 
6 1 -9.826198771343e-05  -1.972640973257e-05   8.649141549475e-05 
7 1  1.256493665210e-04   3.444974088472e-04   1.118995304657e-05 
8 1  1.721063143311e-04  -2.680517313587e-05  -4.925265731468e-05 
8
Step 51000
1 1  8.136515603812e-05  -1.428844041389e-04   1.553047479204e-04 
2 1 -1.483030656930e-04   7.910263078353e-05   2.276808446021e-05 
3 1 -1.933730006311e-04   1.169237872039e-04  -1.691724472853e-04 
4 1  1.656557143420e-06   3.403374018457e-04   1.826349180978e-05 
5 1  1.148215965853e-04  -2.968576408281e-05  -5.117051560187e-06 
6 1 -2.635145664723e-04  -1.302902626492e-04   1.594476069368e-04 
7 1 -3.499092819577e-05   1.694079485305e-05  -3.704899362816e-05 
8 1 -1.111639934592e-05   5.090822601260e-05   3.486041469278e-04 
8
Step 52000
1 1 -1.178009891907e-05  -1.932077500474e-04  -4.340384434320e-06 
2 1  1.119320302752e-05   3.101235761825e-04   6.337383009044e-05 
3 1 -4.312816474995e-05  -2.294063762775e-05   9.832833575196e-05 
4 1  1.422800526225e-04  -5.957104105316e-05  -6.115775699870e-05 
5 1  2.281381126048e-04   6.815565306990e-05  -3.871394698698e-05 
6 1 -8.360967460638e-05   5.082669635995e-05  -1.608272092332e-04 
7 1  1.274676372873e-04  -1.078962903377e-05   5.405601607831e-05 
8 1 -9.832755282996e-05   2.717718852616e-04   1.543246877716e-04 
8
Step 53000
1 1  1.087843849325e-04   1.944750473487e-05   3.786008433886e-05 
2 1  5.180330772349e-05  -4.726113520797e-05   9.314512327266e-05 
3 1  3.700551293889e-05   1.460945610154e-04  -1.003782138102e-04 
4 1 -1.548198087646e-04   5.038949064511e-05  -1.852637573323e-05 
5 1 -4.388659511473e-05   2.814875938870e-04  -2.525863984597e-04 
6 1 -1.480421548570e-04   3.507773249658e-04   6.696571872581e-05 
7 1 -1.916692424186e-04  -2.622459806563e-05   1.864714703391e-04 
8 1 -1.076511425955e-04   3.719877320194e-05   2.800181967312e-04 
8
Step 54000
1 1 -5.902841263224e-05   1.230264591043e-04  -1.983507932565e-04 
2 1  2.427582522765e-04  -2.089740723115e-04  -5.153526915621e-05 
3 1  1.563244409337e-04   1.842536078400e-04  -3.117315964091e-05 
4 1 -1.282549521830e-04  -8.913600604533e-05   8.359384250483e-05 
5 1 -1.545432575362e-04  -2.178349724156e-04   5.520470800945e-06 