8
Step 0
1 1  0.000000000000e+00   0.000000000000e+00   0.000000000000e+00 
2 1  0.000000000000e+00   0.000000000000e+00   0.000000000000e+00 
3 1  0.000000000000e+00   0.000000000000e+00   0.000000000000e+00 
4 1  0.000000000000e+00   0.000000000000e+00   0.000000000000e+00 
5 1  0.000000000000e+00   0.000000000000e+00   0.000000000000e+00 
6 1  0.000000000000e+00   0.000000000000e+00   0.000000000000e+00 
7 1  0.000000000000e+00   0.000000000000e+00   0.000000000000e+00 
8 1  0.000000000000e+00   0.000000000000e+00   0.000000000000e+00 
8
Step 1000
1 1 -1.427617955452e-05  -8.156878586223e-05   2.669628843708e-04 
2 1 -8.026566505228e-05   2.074585291989e-04   1.200909972189e-04 
3 1 -8.412566927487e-05   9.004271220160e-05   2.195989989605e-05 
4 1 -4.719199049693e-04   2.102900468238e-05   1.480893300554e-04 
5 1 -1.282915150493e-04  -6.466611465896e-05  -8.782887812559e-05 
6 1 -8.547891570059e-05   1.556743598366e-05  -8.609086484229e-05 
7 1  5.715167256997e-05   4.213060223804e-05   1.987680718974e-04 
8 1  2.117405870731e-04  -3.342539136520e-05   2.431314840994e-04 
8
Step 2000
1 1 -6.842691696028e-05  -1.134305404556e-05   2.170405247139e-04 
2 1 -1.351916125574e-04   1.277493376751e-06   3.421029885298e-04 
3 1  2.252369770092e-04   7.065982018484e-06   4.085645494992e-05 
4 1 -7.983689485776e-05  -4.695656882778e-05   1.642214221586e-04 
5 1  1.081374169671e-04   1.959076404417e-04   2.109161038969e-04 
6 1  3.437464227557e-05  -4.294143136792e-05  -1.844448619012e-04 
7 1 -1.333085250095e-04  -1.242182558861e-05   1.012211902764e-04 
8 1  8.036962879836e-05   1.518535874823e-04   6.780257054311e-05 
8
Step 3000
1 1  6.761099111592e-05   2.815801571404e-05   2.185594006501e-04 
2 1  9.036853134495e-05   1.435773047430e-04  -1.378498586249e-05 
3 1  1.350525063302e-04  -1.551096895083e-04   1.766484021999e-04 
4 1 -9.811529779043e-05  -2.403220396595e-05   8.964463184188e-05 
5 1 -2.614851227427e-05   8.575525636623e-05   7.360425340207e-05 
6 1  1.626717208496e-04   8.498812388275e-05  -2.983255034677e-04 
7 1  4.409350426754e-05  -1.773647928373e-04   5.463226900529e-06 
8 1 -3.553723103924e-05  -9.749609173468e-05  -2.225609251212e-05 
8
Step 4000
1 1  1.407563494184e-04   4.376186283929e-05  -5.245885547984e-05 
2 1  2.756829882878e-05  -6.597425801449e-05   2.269343924214e-04 
3 1 -6.847260553429e-05  -2.110351529508e-04   2.935553769093e-04 
4 1  7.337611399086e-05   1.195101838505e-04   4.031899255507e-05 
5 1  1.332377349021e-04  -5.122164278780e-05   6.278200504475e-06 
6 1 -8.555170482831e-05   7.056859880390e-05  -1.891341479171e-04 
7 1 -5.348274919782e-06  -1.979481166000e-04  -4.603260710675e-05 
8 1 -1.467026172331e-04   9.764619798664e-05   1.573008793490e-05 
8
Step 5000
1 1  3.642904515028e-04   3.384193078995e-04   3.280653283801e-05 
2 1  1.933996465522e-04  -3.092642847939e-04   3.157131051242e-05 
3 1  1.158337354266e-04  -1.918293310501e-04  -2.041770477540e-04 
4 1 -4.118415904963e-05  -1.179283476923e-04  -1.610118565373e-04 
5 1  5.934431301902e-05  -4.745841557111e-05   3.767546820281e-05 
6 1 -9.015659009257e-05  -2.005157995829e-05  -8.374100690238e-05 
7 1  2.089105626748e-04  -8.500293149196e-05  -1.092298944282e-04 
8 1  1.120998903633e-04  -7.407239413304e-05   7.730147519203e-05 
8
Step 6000
1 1  5.728351821700e-05  -2.046504882707e-05   9.853473659147e-05 
2 1 -3.438867234760e-05  -2.586241778312e-04  -5.315326615758e-05 
3 1  1.687760751435e-04  -4.538738338255e-05  -1.404023751246e-05 
4 1 -9.162930835627e-05  -1.091236404927e-04  -3.668807837542e-05 
5 1  8.352002356118e-05  -2.819635531168e-04  -4.104660030928e-05 
6 1 -4.162800496391e-05  -3.293899061849e-05  -9.654782845730e-05 
7 1  1.727767670121e-04  -7.084220982115e-05   2.685026316993e-05 
8 1 -1.073349914394e-04   3.740875437097e-05   1.819211661074e-05 
8
Step 7000
1 1  2.749524655066e-04   2.339565857332e-04  -1.578319928498e-04 
2 1  1.615482121205e-05  -2.668645088870e-05   6.204807519426e-05 
3 1  1.329548152763e-04   1.029451395916e-04  -1.099932509809e-04 
4 1 -3.446636825715e-05   6.729014910514e-05  -2.495917592774e-04 
5 1  6.952125932469e-05  -1.121741381757e-04   6.556942358615e-05 
6 1  1.314186647198e-04  -5.706722568151e-05   1.728288795537e-04 
7 1  2.796519776452e-04  -1.658434978141e-04   7.518481648071e-06 
8 1 -4.686540413777e-05   1.632156480818e-04   6.245954405819e-05 
8
Step 8000
1 1  1.683041035126e-05  -1.120094667551e-04   1.769079279990e-04 
2 1  1.808459072644e-04   7.322421588813e-06  -2.722197913980e-04 
3 1 -1.918345816772e-04  -3.134527087442e-05   5.648883965246e-05 
4 1 -1.783550663424e-04  -4.141827633807e-04   1.828103681874e-05 
5 1 -1.179715784229e-04  -1.601952350818e-04  -8.958876319525e-05 
6 1 -8.614189306557e-06  -7.646124191952e-05   1.892480787083e-04 
7 1 -1.030390403383e-04   3.010500056485e-05  -2.495286996999e-04 
8 1  5.168588230834e-05  -3.391979059933e-05  -1.289193105493e-04 
8
Step 9000
1 1 -7.554516313702e-05   6.384319820829e-05  -1.130602876413e-06 
2 1  5.744833599117e-05   8.236363296268e-05  -6.181886318695e-05 
3 1  4.262065749012e-05   2.648604239158e-05  -7.364800098426e-06 
4 1 -9.920985634807e-05  -1.332072738735e-04  -3.069516134694e-05 
5 1  2.411764500471e-05   5.302363670436e-05   8.543920303255e-05 
6 1  1.231184764935e-04  -8.333377230221e-05   2.180107862347e-04 
7 1  4.126418733466e-05   9.508237293087e-05  -2.435106244427e-05 
8 1  8.747319359459e-05   3.172676087131e-04  -1.135716947244e-04 
8
Step 10000
1 1  1.107504350341e-04   1.328202440676e-04   4.675962782130e-05 
2 1  2.056121025387e-04  -2.244499592380e-04  -1.652581360866e-05 
3 1  6.416245090377e-05   1.860752005856e-05   7.514176193130e-05 
4 1  7.458656515282e-06  -1.602555128922e-04   6.007743718252e-05 
5 1 -2.900330618758e-04   2.809534481468e-05   1.340084090698e-04 
6 1 -1.869478261296e-04  -5.926702770549e-05   9.113067140220e-05 
7 1  2.204075617401e-04  -7.903296213963e-05  -2.141513195471e-04 
8 1 -3.198702710837e-05   2.544353749096e-04  -3.949809119112e-04 
8
Step 11000
1 1 -6.613530544791e-05  -5.921232831298e-05   4.329791095094e-04 
2 1 -5.298834593353e-05   6.226091277769e-05  -2.111688740744e-04 
3 1  1.123786800231e-04   8.420108089637e-05   1.996418271503e-05 
4 1 -2.125256390758e-04  -1.307410685647e-04   2.008968375946e-04 
5 1 -1.661858831019e-04  -5.471327722272e-05   1.751596237750e-04 
6 1  9.041600608237e-05   9.200789143926e-05   2.042140715116e-04 
7 1  3.101866155014e-07   2.977069554400e-05  -2.047544523507e-04 
8 1  2.074797379497e-04   2.456374319212e-04  -5.044916577088e-05 
8
Step 12000
1 1  1.096102787696e-04   4.053928221318e-06   3.790923452308e-05 
2 1  1.157782768106e-04  -2.664673516488e-05  -3.009288787589e-05 
3 1  3.467648133910e-04   1.323615411502e-04   1.444531618409e-04 
4 1 -2.593308649085e-04  -1.297794760579e-04   1.606990500861e-04 
5 1 -1.573676484721e-04   1.872982729754e-04   7.978049569111e-05 
6 1 -6.557359468024e-05   1.068034692717e-04  -6.735813231836e-05 
7 1 -8.639185405194e-05   1.389846302413e-05   7.742927014704e-05 
8 1  2.362844490017e-04  -4.978043089508e-05  -1.593007817687e-04 
8
Step 13000
1 1 -6.991457053405e-05   5.170883645216e-05   3.088595500134e-04 
2 1 -2.259616275904e-04  -8.154021340019e-05  -1.465662111825e-04 
3 1  1.267541767547e-04   7.337795296715e-05   4.884360583352e-05 
4 1 -7.490551497194e-05   2.521877107272e-04   4.133092922112e-04 
5 1  1.244407072724e-05   1.783477119771e-05  -6.211022474096e-06 
6 1  1.501240341284e-05   1.568352634297e-04   2.115139233463e-04 
7 1  4.775203371977e-05  -1.801320501124e-05   2.127451350558e-04 
8 1  1.800386861276e-04   1.030455941412e-05  -2.431965552435e-05 
8
Step 14000
1 1 -1.957516276968e-04  -1.202816056253e-04   1.661965064923e-04 
2 1  1.149410254537e-04  -5.968791378144e-05  -1.186705006431e-04 
3 1 -1.616692424481e-06  -3.046118402090e-05   1.949485361279e-04 
4 1 -6.299571667818e-05   3.505936814881e-05   2.446018815954e-04 
5 1 -1.491300897467e-04   2.853862778609e-05   1.426114668299e-05 
6 1  5.647639235256e-05   1.612624823550e-04   9.917387043911e-05 
7 1 -3.247099593356e-04   1.035340414403e-04   1.602602843857e-04 
8 1  1.301676059856e-04   1.445525007058e-04  -1.246928857378e-04 
8
Step 15000
1 1 -2.564041190891e-05  -1.958215709841e-04   2.694709329233e-04 
2 1 -1.240273737051e-04  -4.875253573405e-05   9.431356816179e-06 
3 1 -4.548238891152e-05   1.469750442570e-05   9.351015518962e-05 
4 1  5.160166494670e-05   1.659841532867e-04   3.229692674152e-04 
5 1 -1.067027309930e-04   6.431047160718e-05   4.388110539398e-04 
6 1  1.539600791897e-04  -4.285754402093e-05   1.817780828750e-04 
7 1 -1.799309212009e-04   1.369768081355e-04   1.631167060230e-04 
8 1 -9.941403052861e-05  -6.260894393783e-05  -1.644942865119e-04 
8
Step 16000
1 1 -2.019930097286e-04   3.559464566561e-05  -1.257923605847e-05 
2 1 -1.042583323221e-04  -7.956196478486e-05  -1.031836210102e-04 
3 1 -1.098621925477e-04  -2.160768181790e-04   2.917821251578e-04 
4 1 -2.492901672181e-04   2.713812901244e-04   1.555391311110e-04 
5 1  1.369243488653e-04  -6.495383368343e-05   5.281295151848e-05 
6 1 -1.195572457148e-04  -1.193789086193e-04   3.133108797378e-05 
7 1 -1.403029137144e-04   3.363093959423e-04  -4.938587826959e-05 
8 1 -2.075513899134e-04   1.216351004861e-05   5.969442040927e-05 
8
Step 17000
1 1  5.578766663261e-05   4.944125909606e-05   5.431315868621e-04 
2 1 -5.972329374426e-05   2.059266635686e-05  -1.507996656633e-04 
3 1 -2.458709842560e-04  -1.741799690393e-04   3.132335914641e-04 
4 1 -2.304657379466e-04   2.209060964412e-04  -1.293361929908e-05 
5 1 -7.814683756270e-05  -1.566616986210e-04   2.196372821504e-04 
6 1 -3.519453954725e-04   3.989976317490e-05   6.122732591480e-05 
7 1 -1.067868290476e-04   1.037151389993e-04  -1.617700835556e-04 
8 1 -8.830691193021e-05   7.811460816023e-05   1.673843058740e-05 
8
Step 18000
1 1  1.390089802427e-04  -6.515935195475e-05   1.011289631502e-04 
2 1 -1.070073623643e-04   1.607173385136e-04  -2.121897256552e-04 
3 1 -2.109430089705e-04  -3.401945120899e-07   2.164538499386e-06 
4 1  1.075890328528e-04   1.244022239626e-04   8.334089867807e-05 
5 1 -9.951959565776e-05   6.783969316732e-05   1.024687087988e-04 
6 1 -6.458899674414e-05  -2.349976979253e-04  -2.151563504710e-04 
7 1 -6.797717701921e-05   5.993718951416e-05  -7.617693375777e-05 
8 1  7.092553963376e-05   1.931693463863e-04  -4.491669349728e-05 
8
Step 19000
1 1  5.682951549317e-05  -2.111890121343e-05   2.122226497252e-04 
2 1 -1.591063693616e-05  -2.390888194541e-06   1.942933945691e-05 
3 1 -1.851411306941e-04   7.228555887044e-05   1.686316896809e-04 
4 1 -2.337028000375e-04   5.983317059927e-05   5.594290840455e-05 
5 1 -1.467131980527e-04  -1.437025250204e-04   9.856426252926e-05 
6 1  7.961745132343e-05  -1.331404541974e-04  -3.500830333621e-05 
7 1  8.459895021612e-05  -1.209448546873e-04   7.671014566738e-05 
8 1  2.445664578070e-05   4.132932494003e-07   6.370079928097e-06 
8
Step 20000
1 1 -1.002712880751e-06  -5.220729877068e-05   7.718941007182e-05 
2 1 -8.355458931382e-05   1.416390285766e-06  -2.686096904607e-04 
3 1  1.346311591530e-04  -1.157519855651e-04   1.240408029814e-04 
4 1 -6.395336208451e-05   4.734656908776e-04  -3.710022840751e-05 
5 1 -2.557691561746e-04  -6.264846898406e-05  -8.463878433683e-05 
6 1  1.440926174852e-04   2.329008016259e-04  -2.057565161923e-04 
7 1 -6.473843937916e-05  -1.549628953267e-04  -1.127520488399e-04 
8 1 -3.605372685504e-05   8.622021212242e-05  -2.347340245620e-04 
8
Step 21000
1 1 -2.497843608358e-05   7.531530376568e-05   1.101290761898e-04 
2 1  3.458527585769e-05  -1.764822244654e-05   4.773809808562e-05 
3 1  3.049613022874e-04  -4.834534885076e-05  -3.957986380842e-05 
4 1 -1.416031664232e-04   1.137077912517e-04  -5.031098120629e-05 
5 1 -2.599313650781e-05   1.298663192651e-04   1.963620984191e-06 
6 1  2.069328820429e-04  -3.991894110971e-06  -4.925811372471e-05 
7 1  7.534997453061e-05  -9.298748806058e-05  -1.810837610752e-04 
8 1  1.623368340261e-04   9.509370258329e-05   2.914118722997e-05 
8
Step 22000
1 1 -9.474852729980e-05  -4.270743446903e-06   1.250040484190e-04 
2 1  9.769740836647e-05   3.633855720071e-05   1.504651092705e-05 
3 1  1.884358915517e-04  -7.767893375266e-05  -4.389308174058e-05 
4 1 -9.313036120913e-05   2.291985157991e-05  -6.771115495005e-05 
5 1 -1.784750351103e-05   2.066356756614e-04  -2.586151481627e-04 
6 1  4.422023741429e-05  -2.930377786454e-05  -4.146831092924e-05 
7 1  4.088550538544e-05  -1.533000734074e-04  -2.313780918450e-04 
8 1  1.672101864873e-05  -6.054046415334e-05   1.677125462773e-04 
8
Step 23000
1 1 -1.489325788496e-04   6.846947552060e-05   9.831809269859e-05 
2 1  5.555375894412e-05   1.540927346551e-04   9.225167046616e-05 
3 1  1.461738238013e-04  -1.639363424132e-04  -7.640401099003e-07 
4 1  6.447023712330e-05   1.656485744879e-04  -3.624124174526e-04 
5 1 -5.688217280678e-05  -8.137289359691e-05  -2.257375834861e-04 
6 1  2.473120554813e-04   1.440545647215e-04  -1.248302916249e-04 
7 1  6.503270456456e-05  -1.614382632013e-04   4.275080174479e-05 
8 1  1.033146516896e-04  -1.145734046441e-04   2.081817701030e-04 
8
Step 24000
1 1  8.223101709118e-05  -2.406516344651e-04  -8.043605927998e-05 
2 1  6.280774171414e-05   1.234192829331e-04   1.410523776286e-04 
3 1  6.696418678825e-05  -3.226315162889e-04   1.582231560392e-04 
4 1 -1.248418995080e-04  -1.072999829929e-04  -3.337049505263e-04 
5 1  1.977416412790e-05  -3.847872665689e-04  -8.524487156098e-05 
6 1 -1.413179513693e-04  -2.659456457972e-05  -5.633752722053e-05 
7 1 -1.108505949400e-04  -5.443498185695e-05  -3.044583300775e-05 
8 1  4.821450824937e-05  -6.383002779167e-05   1.553200717693e-04 
8
Step 25000
1 1 -3.430636664913e-04  -5.312117996550e-05  -9.456275421195e-05 
2 1 -1.592907883947e-04   2.358789503899e-04   3.414118225367e-04 
3 1  1.825277421178e-04  -1.366197840316e-05  -1.809778713947e-04 
4 1 -2.309938401599e-05  -2.807759781314e-04  -3.645579834833e-06 
5 1 -3.899117515044e-05  -1.561754314053e-05  -6.268870582522e-05 
6 1 -3.500471870763e-06  -1.350969519480e-04   1.386992062896e-04 
7 1  1.666874422656e-05  -6.065016892711e-05  -1.536130575898e-04 
8 1 -6.699982702111e-05  -4.632178501432e-05   8.500731830553e-05 
8
Step 26000
1 1 -5.755534252056e-05  -1.436452970463e-04   5.920049689114e-05 
2 1  4.083569551328e-05   1.512440848672e-04   4.380920257775e-04 
3 1  1.181510788991e-04  -2.885599082479e-04  -4.870721025935e-05 
4 1 -2.179670690518e-04  -2.639697783681e-06   9.021611944540e-05 
5 1 -2.540615348713e-04  -3.410804623249e-04  -5.722583645957e-05 
6 1 -1.640258200835e-04  -5.552010283664e-05   1.123043229972e-04 
7 1 -1.297387665259e-04  -4.391925565474e-05  -5.006989025215e-05 
8 1 -7.117778631962e-05  -6.859176385896e-05   2.895663840922e-05 
8
Step 27000
1 1  1.359070646872e-05  -2.117506298305e-04   6.112002780884e-05 
2 1  1.083165281080e-04   2.468400762632e-05   8.079044082565e-05 
3 1 -1.976912479629e-04  -8.897772680257e-05   1.002086339100e-04 
4 1 -9.970151731490e-05  -2.190947235301e-04  -1.370945482043e-04 
5 1 -4.180605659630e-05  -1.880657507450e-04   1.402113099116e-04 
6 1 -1.146301225636e-04  -3.074944068467e-05  -6.096062132200e-06 
7 1  9.634458821017e-05  -1.174490376785e-06  -5.941792511275e-05 
8 1  4.764991331397e-05  -5.902497302257e-05  -2.049627288452e-05 
8
Step 28000
1 1  3.630807363304e-04   7.151001174064e-05  -1.018690382010e-04 
2 1  1.239897581213e-04   1.802360492710e-04   8.841231944950e-05 
3 1 -8.361295463685e-05   3.683535805451e-05  -3.584670862097e-05 
4 1 -1.104064356051e-04  -1.810706529181e-04  -2.204674175770e-04 
5 1 -2.969593025152e-04   1.294458075904e-04   2.301393484316e-04 
6 1 -3.438892561315e-04  -6.659319796004e-05   3.981695823349e-05 
7 1 -1.188978849370e-04  -1.249489608617e-04  -2.433103738687e-05 
8 1 -2.493837132025e-04   1.465092745394e-04   2.041483145502e-04 
8
Step 29000
1 1  1.258877774295e-04  -3.166641682907e-05   6.777218087644e-05 
2 1 -1.089108043669e-05   2.149863859329e-05   1.873195418744e-05 
3 1 -1.971808590506e-04  -1.140608440792e-04  -9.286558349575e-05 
4 1 -2.374240665669e-04   2.149368693910e-04   1.048419788766e-04 
5 1 -1.155120772334e-04  -1.327292624697e-04  -1.917982093354e-05 
6 1 -2.338593450719e-04   2.026021979326e-05   1.525548089983e-04 
7 1  1.017260153800e-04  -1.155865456972e-04   1.204900186107e-04 
8 1 -3.929518849261e-05  -9.999340596070e-05  -9.979758185351e-05 
8
Step 30000
1 1  1.134961318281e-04   1.411781577928e-04   1.115909894491e-04 
2 1  9.723021017300e-06   8.454039913435e-05  -2.372353847852e-04 
3 1 -6.936806616799e-05  -2.188039039257e-04  -1.243490673868e-04 
4 1  9.462425554077e-05   2.682809306211e-04  -4.423711741468e-06 
5 1 -2.511735945306e-04   1.964174548988e-04  -3.839241949853e-05 
6 1 -1.408917575525e-04  -7.168077115328e-05   1.002435685785e-04 
7 1 -1.044819990042e-04   7.364205972509e-05   1.961951975236e-05 
8 1  5.194447943078e-05  -2.213161162599e-04  -7.567618734831e-05 
8
Step 31000
1 1  3.179678646842e-04  -5.831018454132e-05   7.094347852122e-05 
2 1  2.065086167845e-04   1.025149414839e-04  -8.602557644823e-05 
3 1 -1.117366383060e-04   1.014044115042e-04  -1.424939508913e-04 
4 1 -4.895462569686e-05   3.484671543747e-04   1.525045980931e-04 
5 1 -1.804228307224e-04  -1.867241261741e-06   2.889799355058e-05 
6 1 -9.522693415021e-05   4.548454641176e-05   1.661142213815e-04 
7 1 -2.025036253812e-05  -1.112950167971e-05  -2.102064286702e-04 
8 1  1.477383758473e-04  -4.915795755931e-05   3.793446991285e-05 
8
Step 32000
1 1  1.405015061848e-04  -6.834485694741e-05   6.441711402182e-05 
2 1 -3.318069276997e-05   1.041044796091e-04  -2.377079866077e-04 
3 1 -4.890182384345e-05   1.407376738848e-04  -3.500676618071e-04 
4 1 -5.215062463783e-05   1.586294469299e-04   2.515161108292e-04 
5 1 -3.195304846281e-04  -1.262029176932e-04   7.985996111445e-05 
6 1 -2.584455859898e-04   4.521090586291e-05   5.341303027124e-05 
7 1  2.629590375712e-05   7.441281235940e-05   2.291196275933e-06 
8 1 -2.187626518748e-04  -8.263661510284e-05  -4.229234547296e-05 
8
Step 33000
1 1  1.170684002780e-05   1.991294668486e-04  -7.829544746692e-05 
2 1  2.889997139488e-04   3.183981089315e-04  -2.001238331724e-04 
3 1 -2.841745365443e-04   1.010421752960e-04   3.108284950577e-05 
4 1  1.782673887472e-04   2.727375027060e-04  -7.224453452293e-05 
5 1 -1.519536827762e-04   2.983372224340e-05   1.958131558483e-04 
6 1 -3.527616102106e-05  -1.664509539232e-04   1.187404305391e-04 
7 1 -2.662912206833e-06   1.818663351297e-04   8.075330732049e-05 
8 1 -8.327019441011e-06  -7.624442039648e-05   9.646819466078e-05 
8
Step 34000
1 1  1.405199820298e-05  -3.487238750790e-05   9.636469917105e-06 
2 1  1.431121750171e-04   8.647539350089e-05  -1.656916464638e-04 
3 1 -1.618802317034e-04   1.283578524638e-05   1.256437472849e-05 
4 1 -3.437885446016e-06  -7.828519178656e-05   3.242579376549e-05 
5 1 -1.145154027749e-04  -1.660873398831e-04   7.384892317271e-05 
6 1  5.417720015285e-05   1.700425152256e-05   3.032994614158e-05 
7 1  5.299903032508e-05  -7.590301072305e-05   4.881310370851e-05 
8 1 -8.836387647213e-05  -1.754414964663e-04   2.370226941246e-05 
8
Step 35000
1 1 -3.869857194231e-05  -3.730981679625e-05  -3.463538871258e-05 
2 1 -3.928933355989e-06   4.021830573625e-05  -1.682076513517e-04 
3 1  4.278688138650e-05   1.837999032382e-04  -1.007653816421e-04 
4 1  1.973472746689e-04  -3.987137392094e-05   2.774909221956e-04 
5 1 -8.817964517710e-05  -1.451373988956e-04  -1.235317342357e-04 
6 1  1.226944252839e-04   1.055019115759e-04   1.569498100059e-04 
7 1  1.681608703903e-04   9.163943321737e-05  -6.536337923195e-06 
8 1  4.345956334789e-05   1.453504000947e-04  -5.048222702040e-05 
8
Step 36000
1 1 -5.581820146197e-05  -2.571730896079e-05  -1.352012718941e-04 
2 1  4.246726038301e-05  -3.989858098058e-05   7.296744269110e-05 
3 1 -3.662149601013e-04  -5.300951928802e-05  -1.306205475282e-04 
4 1 -6.349080594484e-06   3.901157798730e-05  -2.551447710691e-04 
5 1 -1.793075384345e-04  -1.347675206995e-04  -4.015837188179e-05 
6 1  2.144972101630e-04  -1.741435537000e-04   1.841082973002e-05 
7 1 -3.697235898530e-05   1.730645086813e-05   3.138191292666e-04 
8 1  6.759606832448e-05   1.884648515326e-05  -9.629410649762e-06 
8
Step 37000
1 1 -1.032827627257e-04  -1.600394087212e-04   5.262717344246e-06 
2 1 -9.748127320151e-05  -2.641522538261e-05   6.313206320307e-06 
3 1 -1.007486272052e-04   6.434218549338e-05   9.838516873964e-05 
4 1  2.710365908874e-04  -1.693492926825e-04  -1.921474392120e-05 
5 1 -2.834486911461e-04  -1.626533210564e-05  -1.137561661804e-04 
6 1  3.765389799999e-05   2.315393243955e-04  -5.588414587769e-05 
7 1  1.995695005537e-04  -9.601244811324e-05   1.625249080833e-04 
8 1  3.835883114641e-04   6.107883531430e-05   1.179197204732e-05 
8
Step 38000
1 1 -1.609279905322e-04  -6.302480588538e-07   1.772109389151e-04 
2 1 -2.050865597680e-05  -1.862234792265e-06   3.608066192192e-05 
3 1 -2.973561254444e-05   7.898711581112e-05   5.805563569182e-05 
4 1 -1.134044546380e-04  -5.309597940303e-05  -3.012332997358e-05 
5 1 -1.433635223483e-04   5.116025929136e-05   1.355401131092e-04 
6 1  1.007170627425e-04   2.116250854737e-05   1.979740618479e-04 
7 1  1.327927328294e-04  -1.918444657864e-05  -1.547282552223e-05 
8 1 -2.863512828028e-05  -1.253601301912e-04   5.245231858844e-05 
8
Step 39000
1 1 -2.042792661611e-04  -3.870872579163e-05   1.172984184896e-05 
2 1  8.948397129673e-05  -1.802364213777e-04  -3.605507491617e-06 
3 1 -1.894340543731e-04   6.502970155900e-05   2.379582671473e-04 
4 1 -4.437547061671e-05   7.694753274449e-05  -1.452190894108e-04 
5 1 -2.551785674786e-04  -2.807446506308e-04   2.146049767133e-05 
6 1 -2.003940006327e-04  -1.191260428775e-04   3.274115811807e-05 
7 1  1.639651397567e-04  -1.809413092787e-04   1.862609102330e-04 
8 1  6.753100255420e-05   1.784188333879e-04   6.951005498018e-05 
8
Step 40000
1 1  7.916446554490e-05  -2.546531275158e-04   1.876639076185e-04 
2 1  4.994148695222e-05  -1.193672054222e-05   2.446150246021e-04 
3 1 -2.434873392655e-04  -7.145938847383e-05  -4.730725714572e-06 
4 1  1.359336243574e-07  -1.650604318003e-04   1.917552627048e-04 
5 1 -2.086643535934e-04  -2.188561244490e-05   1.213288234597e-04 
6 1 -1.274150553316e-04  -1.942162196293e-05   1.457777130020e-04 
7 1  9.065595574917e-05  -3.084589881994e-05  -8.169832936206e-05 
8 1  3.503349466364e-05   1.872440783654e-04   2.003965148874e-04 
8
Step 41000
1 1 -8.351703665498e-05   4.526968683344e-05   1.161077695492e-04 
2 1  1.421998843730e-04   3.646770001726e-05  -1.685220025895e-04 
3 1  3.303633943308e-06  -4.621981676117e-05  -1.021071275950e-04 
4 1  5.842528908109e-06   8.136564159739e-05   7.734477162946e-05 
5 1 -2.647251975411e-04  -3.110218465591e-05  -1.202414399895e-04 
6 1  2.081156911869e-05   4.434975524730e-05   3.897953180009e-04 
7 1 -9.268629455226e-05  -1.174679085146e-04   1.983825956332e-04 
8 1  1.155324792932e-04   4.672861101268e-05   1.478385215098e-05 
8
Step 42000
1 1  2.191849249526e-04  -1.718608030694e-04   7.879150150794e-05 
2 1  9.682773306214e-05  -1.551510072808e-04  -3.548542801498e-04 
3 1  6.035054410182e-05  -2.247734132460e-05   2.883648425422e-04 
4 1  6.253193382594e-05   1.161072667478e-04  -7.219737989621e-05 
5 1  7.412602289310e-07  -5.491667802724e-05  -1.308121163969e-04 
6 1 -2.417440008992e-05   4.000223578290e-04  -7.864255726675e-05 
7 1 -2.595483304663e-04  -2.092588503904e-04   1.398766015970e-04 
8 1  8.855189769120e-05   1.472963302661e-04   5.608807908832e-05 
8
Step 43000
1 1  1.028822885868e-05   9.705780092133e-05  -1.826733965507e-04 
2 1  1.681032010199e-04  -7.288502787781e-06   5.618688817438e-05 
3 1 -3.962884812221e-05  -9.416106623689e-05   1.181811870500e-05 
4 1  1.485494033205e-05  -1.878161361900e-04   3.353166236697e-05 
5 1  6.638429162009e-06   1.892675795039e-04   4.785647138124e-05 
6 1 -1.963348768768e-04   1.276466690564e-04   7.160445954713e-05 
7 1 -7.994721033820e-05  -1.796815456447e-04   7.439896651545e-05 
8 1 -1.640771731097e-04   1.320714978646e-04   8.256365774791e-05 
8
Step 44000
1 1  1.191560204048e-04  -5.786727641774e-05  -2.333608866532e-04 
2 1  2.200791751074e-04  -6.968977916516e-05  -5.686727296773e-05 
3 1  2.015019993532e-04  -1.198834511854e-04  -1.090503253473e-04 
4 1  6.025680143586e-05   6.148297962846e-05   1.449081145196e-04 
5 1 -4.138380672106e-05   8.390049484333e-05  -3.591509060464e-04 
6 1 -2.215999823756e-04   1.791321767900e-04   1.935284632589e-04 
7 1 -1.415077913821e-04   2.026263651665e-04  -3.811262398299e-05 
8 1 -1.156808105489e-04   1.866514257480e-05  -6.014147144184e-05 
8
Step 45000
1 1 -4.363754360616e-05  -4.556576494947e-05   6.650540989325e-05 
2 1 -1.711528306704e-05   2.642048961652e-04  -4.072980679462e-05 
3 1  6.554280875223e-05   1.547763198587e-04   4.215617857640e-06 
4 1  3.354962678104e-05  -1.763543550116e-04   7.021448102746e-05 
5 1  1.642130142767e-04  -1.247022134330e-05  -6.221755711442e-05 
6 1  9.223766103765e-05   2.383458813228e-04   8.309346705209e-05 
7 1 -1.879788997972e-04   2.219577216456e-06  -1.132434494686e-04 
8 1 -6.153898201208e-05   1.509304208679e-04   3.367252403173e-04 
8
Step 46000
1 1 -4.796590287442e-05   8.040021780449e-05  -1.036909882301e-04 
2 1  1.934248339291e-04   1.216220992040e-04   2.054594822957e-05 
3 1  5.818524560669e-05  -8.308559038598e-05  -9.772066925690e-05 
4 1 -3.852217395400e-05  -4.915810289565e-05   4.989866236322e-06 
5 1  1.497093588942e-04  -5.871337083658e-05  -2.854870216366e-04 
6 1 -1.064312143399e-04   5.291630707725e-05   2.432989978602e-04 
7 1  8.918399500712e-05  -3.002457576809e-05  -2.200701001085e-05 
8 1 -6.122057155088e-05   2.562747298413e-04   8.150467965384e-05 
8
Step 47000
1 1 -5.969452455670e-05  -1.137751489674e-04  -6.165565893109e-06 
2 1 -1.704383342891e-04   3.507633228172e-04  -1.196695716285e-05 
3 1  3.159653216151e-04  -2.930161157647e-05   4.039410262325e-05 
4 1  1.177565447255e-05   5.669596333929e-05   1.773987367108e-04 
5 1  3.992876525172e-04  -2.296760265469e-05  -3.295739439755e-05 
6 1 -4.900765573409e-05  -1.369691478062e-04   9.114085701591e-05 
7 1  2.160276957599e-04   5.698121179480e-05   6.002683355163e-05 
8 1  4.632573787146e-05   1.348632212360e-04   2.365803184633e-04 
8
Step 48000
1 1 -4.769168334931e-05   2.707074075377e-04   5.730161752487e-05 
2 1  2.201472759044e-05   9.178218264596e-05  -7.717064011649e-05 
3 1  1.592749003239e-04   1.245633563671e-04  -1.173992358166e-04 
4 1  1.910397799833e-04  -4.191115912390e-04  -8.219386630084e-05 
5 1  1.105151500343e-04  -1.156240015512e-05  -1.481462294009e-04 
6 1 -2.053025002131e-04  -1.420306586538e-04   1.694603654919e-04 
7 1  1.412942741565e-04  -6.659717735446e-05   2.188132885911e-04 
8 1  5.831712860300e-05  -6.392041777992e-05  -5.050068176660e-08 
8
Step 49000
1 1 -2.567662381805e-04  -1.997801829236e-05   7.133271946499e-05 
2 1 -4.331054974582e-05   4.307306681714e-04  -1.704567381659e-06 
3 1  1.988087355382e-04   2.517441654341e-04  -1.145523522395e-04 
4 1  4.041865262457e-04  -1.390992723646e-04  -1.630579139091e-04 
5 1  3.005999014739e-04   2.083806755240e-04  -1.832221258920e-05 
6 1 -5.691966367732e-05   4.497157218091e-06   3.473137882905e-04 
7 1  1.165518616389e-04  -3.325960131202e-05  -1.817393052924e-04 
8 1  1.342408478691e-04  -1.725885720860e-04  -7.837590755681e-05 
8
Step 50000
1 1 -4.123416261024e-07   4.231755447255e-05   1.452377818109e-04 
2 1 -9.562069359863e-05   7.430733851054e-05  -1.277768788029e-04 
3 1  7.255239184247e-06   5.435467741596e-05  -8.494314105367e-05 
4 1  4.341720300418e-05  -8.030948017324e-05  -5.703572781019e-05 
5 1  2.418990347627e-04   1.476744107131e-05   1.547578616368e-04 
6 1 -1.400150030085e-04   9.129622320064e-05   1.108810489223e-04 
7 1  7.974736779112e-05  -4.442910832832e-04  -1.657715134883e-04 
8 1 -3.077391611081e-05  -1.976346978756e-04   8.665327817322e-05 
8
Step 51000
1 1 -6.068093641530e-05  -1.290379795130e-04   6.531454761849e-05 
2 1 -1.004043837687e-04   1.010994712015e-04   4.163590944024e-05 
3 1  1.722117663392e-04   9.495582074837e-05   6.615029362917e-05 
4 1  7.495410684524e-05  -1.080097541946e-04  -1.312724620935e-04 
5 1  2.322177094923e-05  -1.020821074209e-04   6.617916840135e-06 
6 1 -7.008476374016e-05   1.346250101886e-04   2.753337396035e-04 
7 1  1.747067707408e-04  -1.815481127547e-04   2.463030177510e-05 
8 1  6.210305374335e-05  -1.381618255201e-04  -6.183768250964e-05 
8
Step 52000
1 1 -1.764321252124e-04  -1.194025284898e-05   1.160392879307e-04 
2 1 -1.515971795003e-04  -1.777703406551e-04   3.141698182699e-04 
3 1  3.848865526187e-05   1.579650084711e-04  -1.995745778373e-04 
4 1  6.482030749537e-05   2.142004462460e-04  -7.606435369593e-05 
5 1 -8.785610851769e-07  -2.288681668930e-06  -5.225944906948e-05 
6 1 -2.564340155094e-04   1.012136766012e-04   4.218613134410e-04 
7 1 -1.015050481316e-04  -9.498292283878e-05   1.296880833533e-04 
8 1  1.438862006431e-04  -3.379828443028e-04   1.385485217666e-04 
8
Step 53000
1 1 -2.572300908975e-04  -6.917218197193e-05   8.624369999453e-05 
2 1 -2.543012755942e-05   1.018608715470e-04   1.172899625408e-04 
3 1 -3.101918546838e-05   9.887141472049e-05   1.311954462808e-04 
4 1  2.971837584210e-04   1.035995173027e-04   1.340298206956e-05 
5 1 -4.926148014480e-05  -1.063985043099e-04   1.831000104407e-04 
6 1 -1.122841989371e-04   9.513464491143e-05   7.744337049759e-06 
7 1  2.110123145860e-04  -4.349066058259e-05   7.672400918895e-05 
8 1 -7.001418379147e-06   2.347671097195e-05  -4.135714594588e-05 
8
Step 54000
1 1  3.964542056833e-05  -2.093160563287e-04   2.206727794029e-04 
2 1 -1.345520561879e-04   2.728624876449e-04   3.341385794935e-05 
3 1 -1.542131297374e-04   9.629489876106e-05  -8.134547465520e-05 
4 1 -1.483079312387e-04   8.333280885574e-05   1.644052181623e-04 
5 1 -2.396281179793e-04   2.084239484796e-04   7.923391959900e-05 