8
Step 0
1 1  0.000000000000e+00   0.000000000000e+00   0.000000000000e+00 
2 1  0.000000000000e+00   0.000000000000e+00   0.000000000000e+00 
3 1  0.000000000000e+00   0.000000000000e+00   0.000000000000e+00 
4 1  0.000000000000e+00   0.000000000000e+00   0.000000000000e+00 
5 1  0.000000000000e+00   0.000000000000e+00   0.000000000000e+00 
6 1  0.000000000000e+00   0.000000000000e+00   0.000000000000e+00 
7 1  0.000000000000e+00   0.000000000000e+00   0.000000000000e+00 
8 1  0.000000000000e+00   0.000000000000e+00   0.000000000000e+00 
8
Step 1000
1 1 -8.770796238785e-05  -5.678300043579e-05   6.686295292426e-05 
2 1 -1.422507903099e-04   1.531595472945e-04   1.535672741633e-04 
3 1  1.290438063394e-04  -1.069830473156e-06   7.963825639785e-05 
4 1 -6.314044866554e-05  -1.115069379109e-05   1.771644178261e-05 
5 1 -1.330315762697e-04  -5.829570277818e-05   5.932372336752e-05 
6 1 -7.971551222749e-05  -3.756130016551e-06  -6.950382568298e-05 
7 1 -1.084399178956e-04   2.238289753875e-05   1.093778231610e-04 
8 1 -2.786663784429e-05  -1.146040518969e-05   1.699817910367e-04 
8
Step 2000
1 1 -7.207535648344e-05  -8.618649672843e-05   3.540049173023e-05 
2 1 -8.386272389114e-05   6.090367989070e-05   1.404051843373e-04 
3 1  1.148262748801e-04   2.939313332602e-05   1.066426711687e-04 
4 1 -3.342786633413e-05   4.501196084885e-05  -4.848222128988e-05 
5 1 -3.882912761367e-05   2.420291587355e-05   7.447974179021e-05 
6 1 -7.123309576316e-05  -3.588035825545e-05  -8.644082069857e-06 
7 1 -1.000317785544e-04   2.315871561020e-05   5.319819644437e-05 
8 1  3.021048323527e-05  -6.412609420261e-05   1.246667564086e-04 
8
Step 3000
1 1 -2.288519034810e-05  -8.596490700987e-05  -1.436978586076e-05 
2 1  2.261212615770e-05  -4.768800338562e-05   7.255879148201e-05 
3 1  5.980436806807e-05   5.198163699269e-05   8.494549880489e-05 
4 1  9.338478656242e-06   6.981941202221e-05  -9.197704418048e-05 
5 1  5.069824289673e-05   5.896203260538e-05   4.842023650902e-05 
6 1 -3.663786158147e-05  -5.461821635976e-05   7.565061855120e-05 
7 1 -4.448300240115e-05   2.933638484952e-05  -2.319421245801e-05 
8 1  5.285975782048e-05  -7.217399023152e-05   2.352002940557e-05 
8
Step 4000
1 1  3.823345608053e-05  -4.489548643958e-05  -5.755918170645e-05 
2 1  1.056993483657e-04  -1.034014728239e-04  -2.278551221247e-06 
3 1  1.212438371839e-06   5.485233079698e-05   2.910863284216e-05 
4 1  5.024151210345e-05   6.204642196854e-05  -9.879526591895e-05 
5 1  8.068170832433e-05   5.668015567483e-05  -5.746554467257e-06 
6 1  1.988451569770e-05  -6.251278312300e-05   1.282569288416e-04 
7 1  2.717144158914e-05   3.733494516243e-05  -7.318295694936e-05 
8 1  5.329539861562e-05  -3.246783594651e-05  -5.747500803951e-05 
8
Step 5000
1 1  8.390308195667e-05   2.488816289437e-05  -7.624310539833e-05 
2 1  1.191801258910e-04  -9.179413038481e-05  -4.309182966196e-05 
3 1 -3.491073566735e-05   2.925191483407e-05  -3.219417452381e-05 
4 1  8.070044445965e-05   3.673992159944e-05  -6.880579369880e-05 
5 1  5.668498928467e-05   3.798643283079e-05  -7.012020739423e-05 
6 1  8.030932411219e-05  -5.234401480635e-05   1.108036434398e-04 
7 1  6.698104505544e-05   2.633494802679e-05  -7.959816901407e-05 
8 1  4.176739373969e-05   4.364882994005e-05  -7.361295526936e-05 
8
Step 6000
1 1  1.005857893574e-04   7.837008533504e-05  -7.129876690155e-05 
2 1  7.597175767110e-05  -4.342994241613e-05  -4.639291418016e-05 
3 1 -4.033003700860e-05  -3.468567476817e-05  -6.681932591736e-05 
4 1  9.516160369895e-05   7.044966889109e-06  -1.947567670634e-05 
5 1  1.548057102899e-05   1.226201190752e-05  -1.272741239524e-04 
6 1  1.202087961161e-04  -1.666108611886e-05   1.075307754788e-05 
7 1  7.023702895984e-05  -3.217404261698e-05  -5.649898694278e-05 
8 1  2.370398170327e-05   1.328104318077e-04  -4.641326161296e-05 
8
Step 7000
1 1  8.465705078441e-05   9.024033001837e-05  -5.249394956084e-05 
2 1  1.946212950422e-05   3.919882528155e-06  -2.881587334402e-05 
3 1 -2.405363893144e-05  -1.237385386433e-04  -5.864046100249e-05 
4 1  8.781239636514e-05  -2.485911026425e-05   2.642100092686e-05 
5 1 -1.295285038726e-05  -1.772245251816e-05  -1.543852374633e-04 
6 1  1.221385864407e-04   4.408390564975e-05  -1.177766364342e-04 
7 1  5.686376684983e-05  -1.173334481490e-04  -2.462170694527e-05 
8 1  3.905602603548e-06   1.924566792891e-04  -6.371151295005e-06 
8
Step 8000
1 1  2.775157574584e-05   7.676736429869e-05  -2.283416311828e-05 
2 1 -1.930335962085e-05   2.928977720472e-05  -6.041727770306e-06 
3 1 -2.589841977122e-06  -1.772051846055e-04  -1.732723595234e-05 
4 1  4.532744820804e-05  -5.846241385641e-05   5.470760520001e-05 
5 1 -2.065854965639e-05  -4.597133065264e-05  -1.201831589594e-04 
6 1  6.886654647067e-05   1.108970323946e-04  -1.675730043449e-04 
7 1  4.089185870824e-05  -1.666387594203e-04   2.317936125450e-06 
8 1 -1.515610616696e-05   1.792332626882e-04   2.491986142472e-05 
8
Step 9000
1 1 -5.129072477979e-05   5.528279039610e-05   3.806651766559e-06 
2 1 -3.532290168587e-05   2.826103949778e-05   1.345268127731e-05 
3 1  1.330956677348e-05  -1.645301500556e-04   2.601507589686e-05 
4 1 -2.297080824338e-05  -8.566660649144e-05   6.150159319325e-05 
5 1 -1.246595916618e-05  -6.035152014390e-05  -1.374827047008e-05 
6 1 -3.832284716349e-05   1.473424882169e-04  -1.437841468950e-04 
7 1  2.063095931325e-05  -1.568835121997e-04   1.917892311737e-05 
8 1 -3.385737330419e-05   5.897355672393e-05   2.910668997790e-05 
8
Step 10000
1 1 -1.017104168164e-04   3.286865745657e-05   2.888071768710e-05 
2 1 -3.081085635606e-05   5.824167327702e-06   2.450218945198e-05 
3 1  1.925226076121e-05  -9.164689664616e-05   4.968695274793e-05 
4 1 -7.717679644447e-05  -8.990556298770e-05   4.882741616404e-05 
5 1  3.092690416873e-06  -4.940843673851e-05   9.345030167718e-05 
6 1 -1.269473564793e-04   1.326606366014e-04  -8.525071548865e-05 
7 1 -9.218217577369e-06  -9.262372085288e-05   2.388939641081e-05 
8 1 -5.238692658038e-05  -9.520289550760e-05  -2.453178877543e-06 
8
Step 11000
1 1 -9.758413921663e-05   1.385177785639e-05   6.111859290866e-05 
2 1 -1.055320151579e-05  -2.347077176758e-05   2.339516682828e-05 
3 1  1.409371518844e-05  -9.450776068896e-08   4.108701936134e-05 
4 1 -9.654345930870e-05  -4.851280064111e-05   2.221337057919e-05 
5 1  1.706846724174e-05  -1.094531137489e-05   1.386865065306e-04 
6 1 -1.409527808561e-04   6.410499224425e-05  -2.402981333943e-05 
7 1 -4.125585969904e-05  -1.293516429050e-05   1.600192304296e-05 
8 1 -6.565224388042e-05  -1.467158455855e-04  -2.693711300429e-05 
8
Step 12000
1 1 -4.978448837612e-05   1.282702290358e-06   8.015738940018e-05 
2 1  1.603420200362e-05  -4.091887713888e-05   9.384332470142e-06 
3 1  3.177771966938e-08   5.982099886893e-05   4.477378478851e-06 
4 1 -8.841411611768e-05   3.837380478062e-05  -9.219985887198e-06 
5 1  2.177427201278e-05   4.225284587719e-05   1.176305022298e-04 
6 1 -9.348888297910e-05  -2.917547877021e-05   1.780781302793e-05 
7 1 -6.297699273927e-05   3.653971228240e-05  -1.396711718318e-06 
8 1 -5.857225409153e-05  -1.117476199596e-04  -2.665408479002e-05 
8
Step 13000
1 1  1.250050969369e-05  -5.868837456705e-06   7.420296349905e-05 
2 1  3.667151038946e-05  -3.347354125360e-05  -1.404466213697e-05 
3 1 -1.742474249066e-05   7.725278993310e-05  -3.680921250300e-05 
4 1 -6.001121692332e-05   1.128132119094e-04  -3.507399706488e-05 
5 1  1.248670115353e-05   8.554119055359e-05   4.883783180424e-05 
6 1 -1.939036743810e-05  -8.218948759607e-05   3.310789587274e-05 
7 1 -6.456940724438e-05   5.035106468704e-05  -2.043009041696e-05 
8 1 -1.921328775564e-05  -3.107448563859e-05  -7.368102194953e-06 
8
Step 14000
1 1  5.834764405127e-05  -1.204585532756e-05   3.959341523107e-05 
2 1  4.032985571775e-05   5.801980855876e-07  -3.915761034813e-05 
3 1 -3.054829779162e-05   6.115225206861e-05  -6.347052384133e-05 
4 1 -1.551829297045e-05   1.317791653871e-04  -5.032824915849e-05 
5 1 -1.078221193686e-05   9.689373956812e-05  -2.944474113583e-05 
6 1  4.350641857943e-05  -7.706568995129e-05   2.630550040257e-05 
7 1 -4.030242111518e-05   4.412959086185e-05  -3.049890543281e-05 
8 1  4.146750543875e-05   4.790409840454e-05   2.498747118606e-05 
8
Step 15000
1 1  6.802108758664e-05  -2.095389418690e-05  -1.715541182963e-05 
2 1  2.064756684632e-05   4.817159629152e-05  -5.536207647180e-05 
3 1 -3.113562985522e-05   2.501329743566e-05  -6.162988756763e-05 
4 1  2.667509454982e-05   1.033582292546e-04  -5.667323426395e-05 
5 1 -4.182702094710e-05   6.582630941799e-05  -7.757662057037e-05 
6 1  6.889711931621e-05  -4.103326412053e-05   8.881003814570e-06 
7 1  6.208366460335e-06   3.169491079193e-05  -2.280362976962e-05 
8 1  9.370800225837e-05   8.657047594295e-05   5.967101172943e-05 
8
Step 16000
1 1  4.129018749159e-05  -3.241911091619e-05  -7.166363547904e-05 
2 1 -2.160828476990e-05   8.523957635079e-05  -5.079463674243e-05 
3 1 -1.305015288981e-05  -1.422684872901e-05  -2.608664929648e-05 
4 1  4.896443604732e-05   5.133797687928e-05  -5.558559993166e-05 
5 1 -6.776502638723e-05  -3.808375830339e-06  -8.022136261871e-05 
6 1  5.498936006580e-05  -4.554600524129e-06  -5.505727123741e-06 
7 1  5.613320275132e-05   1.974724074681e-05   5.301384040647e-06 
8 1  1.129826515958e-04   7.105101205518e-05   8.251614187885e-05 
8
Step 17000
1 1 -3.929886540785e-06  -4.123998342435e-05  -9.613022599755e-05 
2 1 -7.509871835199e-05   8.833421562947e-05  -1.688452646791e-05 
3 1  2.420645843876e-05  -3.986486900508e-05   3.043398528475e-05 
4 1  4.991050778726e-05   4.007620742435e-06  -3.973622829340e-05 
5 1 -7.096070707528e-05  -8.133970006326e-05  -4.255553095049e-05 
6 1  1.750352957857e-05   1.284482742936e-05  -6.789648305177e-06 
7 1  8.531689669483e-05   9.680616997849e-06   4.639405050753e-05 
8 1  9.207444296892e-05   1.164351949910e-05   8.002051480939e-05 
8
Step 18000
1 1 -4.640970088608e-05  -3.554178692784e-05  -8.095398149683e-05 
2 1 -1.155068244531e-04   4.146464571639e-05   3.959962479621e-05 
3 1  7.097050737714e-05  -4.268765503814e-05   8.115200201072e-05 
4 1  3.705255042772e-05  -2.103474900071e-05   1.893777237158e-05 
5 1 -3.576962950560e-05  -1.203339596599e-04   1.709582638226e-05 
6 1 -2.224250876320e-05   5.696917814857e-06   6.994066774223e-06 
7 1  8.385653880557e-05  -4.205975636744e-06   8.127895239343e-05 
8 1  4.450169221419e-05  -5.771256311899e-05   4.407800399923e-05 
8
Step 19000
1 1 -7.151966371827e-05   5.361627953261e-06  -3.467956567866e-05 
2 1 -1.104387531719e-04  -4.592152824940e-05   9.391467393811e-05 
3 1  1.064518805707e-04  -2.405232061207e-05   1.012634524013e-04 
4 1  1.916512804398e-05  -3.010246712039e-05   1.239961546410e-04 
5 1  3.370717590992e-05  -1.016222953554e-04   6.980757890372e-05 
6 1 -4.651974442600e-05  -1.662435317212e-05   2.604220115064e-05 
7 1  5.466442900662e-05  -2.782696298562e-05   8.405209671387e-05 
8 1 -1.942712807333e-06  -9.344491602768e-05  -1.455745942910e-05 
8
Step 20000
1 1 -6.806750695384e-05   9.459889555618e-05   2.457860825752e-05 
2 1 -3.465509406825e-05  -1.216240536946e-04   1.231281679574e-04 
3 1  1.053086557700e-04   7.010101500631e-06   7.863421485082e-05 
4 1  3.626440438780e-06  -3.931995787047e-05   1.777079080454e-04 
5 1  1.001971991302e-04  -4.196864729273e-05   8.418406301270e-05 
6 1 -4.628093149376e-05  -3.029213668518e-05   2.750662160742e-05 
7 1 -2.091830123189e-06  -5.472481734327e-05   3.691185897561e-05 
8 1 -2.951255243480e-05  -7.344475262811e-05  -6.672983676264e-05 
8
Step 21000
1 1 -3.587485094291e-05   1.829964523753e-04   7.388823947536e-05 
2 1  7.603492474587e-05  -1.431798074185e-04   1.104838881714e-04 
3 1  4.922658001061e-05   2.950493878426e-05   1.276212801219e-05 
4 1 -5.496940296107e-06  -4.557241580547e-05   1.639947814588e-04 
5 1  1.232295761317e-04   2.824909182070e-05   4.679953270626e-05 
6 1 -2.169383108327e-05  -1.322308081384e-05  -1.539481800282e-05 
7 1 -7.932972950465e-05  -7.335750823040e-05  -4.327896469812e-05 
8 1 -3.613458034778e-05   2.647518718770e-06  -9.688990088918e-05 
8
Step 22000
1 1  1.034272193252e-05   2.096020266270e-04   9.020441254867e-05 
2 1  1.452324854421e-04  -1.048765497368e-04   5.304017765800e-05 
3 1 -4.293221841991e-05   2.440340431062e-05  -7.251532419278e-05 
4 1 -8.183001509597e-06  -3.028917947978e-05   1.240417153164e-04 
5 1  8.860289242871e-05   7.718998348360e-05  -2.580026118898e-05 
6 1  2.047233123450e-05   3.479508222201e-05  -9.828647962572e-05 
7 1 -1.342144506953e-04  -7.656276798247e-05  -1.089704381740e-04 
8 1 -2.446222226029e-05   1.082325452651e-04  -9.389613915874e-05 
8
Step 23000
1 1  4.980946137931e-05   1.710199154517e-04   6.876912571110e-05 
2 1  1.490407178042e-04  -3.033802491855e-05  -1.355881055191e-05 
3 1 -1.081981821040e-04  -8.135067407855e-06  -1.230870195131e-04 
4 1 -7.014221607678e-06   1.003881975672e-05   8.012418122524e-05 
5 1  1.488423841894e-05   8.552469027508e-05  -9.545248698563e-05 
6 1  7.011968009719e-05   8.974845011873e-05  -1.663684738345e-04 
7 1 -1.327448057347e-04  -5.041450778430e-05  -1.282625147328e-04 
8 1  2.801849037945e-07   1.839161528590e-04  -5.127560293430e-05 
8
Step 24000
1 1  6.626518823484e-05   1.087907282491e-04   3.038832523433e-05 
2 1  9.351581924378e-05   2.872916916416e-05  -5.406916708509e-05 
3 1 -1.122088172962e-04  -4.857110626693e-05  -1.041526489275e-04 
4 1 -5.094490433218e-06   5.765738349847e-05   3.674490520889e-05 
5 1 -5.347753062593e-05   5.591304176908e-05  -1.069542790899e-04 
6 1  1.131229317121e-04   1.143234863748e-04  -1.811993592704e-04 
7 1 -8.321004457633e-05   2.947091868877e-05  -9.204285699863e-05 
8 1  2.836198176067e-05   1.815654394910e-04   9.913917168144e-06 
8
Step 25000
1 1  5.379743066115e-05   6.704727280211e-05  -1.698889063918e-05 
2 1  1.480388405399e-05   4.561240374797e-05  -7.237651249453e-05 
3 1 -6.826344375462e-05  -6.601679610435e-05  -4.424512997835e-05 
4 1 -3.320078101258e-06   8.073209240806e-05  -2.977372085116e-06 
5 1 -8.527086133411e-05   2.118886565064e-06  -5.715853380224e-05 
6 1  1.263338422607e-04   7.485864284922e-05  -1.312713740619e-04 
7 1 -1.273968496794e-05   1.113585349557e-04  -1.411295970931e-05 
8 1  4.442225515526e-05   7.836537796581e-05   5.225528058217e-05 
8
Step 26000
1 1  1.680225656499e-05   2.545029147221e-05  -6.935219609531e-05 
2 1 -3.950590098672e-05   3.331275124375e-05  -7.448068028717e-05 
3 1 -1.188356405335e-05  -4.079879388058e-05   1.794402079957e-05 
4 1 -1.802381897833e-06   6.244028023760e-05  -3.451653472186e-05 
5 1 -7.770596241115e-05  -5.681890518117e-05   1.345467452344e-05 
6 1  7.891196955959e-05  -3.469918222021e-05  -3.579041595966e-05 
7 1  4.053689401957e-05   1.389598165732e-04   5.837341560723e-05 
8 1  3.483536276708e-05  -6.817370292926e-05   5.590310347606e-05 
8
Step 27000
1 1 -3.146588333274e-05  -2.295899139885e-05  -1.047478060257e-04 
2 1 -6.136856852051e-05   9.603053562044e-06  -5.878831558668e-05 
3 1  2.973559569672e-05   1.909952322958e-05   5.856406193117e-05 
4 1 -5.942381216805e-07   8.052267409534e-06  -5.559056232144e-05 
5 1 -4.503171907796e-05  -9.495912717809e-05   6.528693936310e-05 
6 1 -2.408111969768e-05  -1.319474436838e-04   4.422898255877e-05 
7 1  5.525065757826e-05   1.175765876168e-04   9.246645061886e-05 
8 1 -1.420235461748e-06  -1.363411078658e-04   3.011824098936e-05 
8
Step 28000
1 1 -7.040503280954e-05  -5.873123211604e-05  -1.049331881165e-04 
2 1 -6.367740161776e-05  -9.550382626209e-06  -2.461827972850e-05 
3 1  4.665972413992e-05   8.149514495886e-05   6.655978669469e-05 
4 1  4.960662150011e-07  -5.857572672329e-05  -6.275432409959e-05 
5 1 -7.769186794871e-06  -8.999269494053e-05   7.674412859054e-05 
6 1 -1.033033558441e-04  -1.515703932851e-04   8.507297441035e-05 
7 1  4.490991160917e-05   6.225190088004e-05   8.821268331972e-05 
8 1 -5.176718942589e-05  -1.286808430958e-04   2.504832254613e-06 
8
Step 29000
1 1 -8.092481204331e-05  -5.927065515836e-05  -6.853215365540e-05 
2 1 -5.087154635773e-05  -1.330024548812e-05   2.083345764787e-05 
3 1  4.327685819694e-05   1.114687775883e-04   4.853764202593e-05 
4 1  1.543936783457e-06  -1.038829450604e-04  -5.076224752080e-05 
5 1  1.882499773143e-05  -2.926519141641e-05   4.833770682001e-05 
6 1 -1.206637150832e-04  -1.130083432098e-04   8.278573693832e-05 
7 1  2.284937385174e-05   4.036595612438e-07   5.550705062620e-05 
8 1 -9.232448915721e-05  -7.268152283285e-05  -1.047152377200e-05 
8
Step 30000
1 1 -5.827830039155e-05  -2.488689031254e-05  -5.609646274250e-06 
2 1 -2.645673427045e-05  -2.828022452782e-06   6.114782217885e-05 
3 1  2.985237169471e-05   8.976783908286e-05   1.419729264781e-05 
4 1  2.220442189407e-06  -1.061350137164e-04  -1.869929254906e-05 
5 1  2.853575885071e-05   7.165341616143e-05  -2.169500438435e-06 
6 1 -8.984938079142e-05  -5.153325068821e-05   4.528352368054e-05 
7 1 -2.833459783751e-07  -3.767661866174e-05   8.995045139972e-06 
8 1 -9.511421397664e-05   2.796316993276e-06  -5.840664982279e-06 
8
Step 31000
1 1 -1.301639221190e-05   2.542291350781e-05   5.803308800390e-05 
2 1  3.208820933635e-06   9.989569768482e-06   8.077430440231e-05 
3 1  1.568193936933e-05   1.562056137499e-05  -3.086290934194e-05 
4 1  2.281401458059e-06  -5.914636565139e-05   2.403369871743e-05 
5 1  2.469505962286e-05   1.504713167724e-04  -4.755286658777e-05 
6 1 -3.587048493547e-05   1.692516523346e-06  -3.112763127889e-06 
7 1 -1.402667036761e-05  -4.258429997114e-05  -3.134892826798e-05 
8 1 -3.895887506741e-05   6.712434805737e-05   9.124672311014e-06 
8
Step 32000
1 1  3.776241461160e-05   6.458197311608e-05   8.862716818701e-05 
2 1  3.030617840892e-05   1.238368591547e-05   7.062203474538e-05 
3 1  5.308765465349e-06  -7.696164410537e-05  -7.695261906663e-05 
4 1  2.140625692216e-06   2.658976246048e-05   6.089792275940e-05 
5 1  1.583932846652e-05   1.582041802563e-04  -6.665635689390e-05 
6 1  1.312088111807e-05   2.885079778123e-05  -3.775248671532e-05 
7 1 -1.564922138592e-05  -2.659541934521e-05  -5.174141455625e-05 
8 1  6.839097645220e-05   9.702052394929e-05   1.567277951739e-05 
8
Step 33000
1 1  7.137332448633e-05   7.034536970448e-05   7.525081371472e-05 
2 1  4.810015786739e-05  -2.186530784170e-06   3.043625134738e-05 
3 1 -3.734322121010e-06  -1.291295914838e-04  -1.054288597546e-04 
4 1  2.567673595085e-06   1.082127384420e-04   7.828252818078e-05 
5 1  7.835709964426e-06   9.054593572919e-05  -5.362396290953e-05 
6 1  3.828205551274e-05   2.452930216501e-05  -4.602397450902e-05 
7 1 -9.658736027729e-06  -1.206680880010e-05  -5.003447630511e-05 
8 1  1.484114910765e-04   7.799117754628e-05  -4.855583536226e-06 
8
Step 34000
1 1  6.913667438247e-05   3.400318765558e-05   3.615527530233e-05 
2 1  5.295882076118e-05  -3.249567528727e-05  -2.791023376664e-05 
3 1 -1.866768362923e-05  -1.136920248943e-04  -9.759781501952e-05 
4 1  3.677445880561e-06   1.389697766948e-04   6.918502115058e-05 
5 1  3.318254052484e-06  -1.580042163646e-05  -1.613612681328e-05 
6 1  3.734502719133e-05   2.247007413881e-06  -3.455661255849e-05 
7 1 -3.172231885631e-06  -8.626112386371e-06  -3.282067794543e-05 
8 1  1.491936540671e-04   1.334142530581e-05  -5.028020908168e-05 
8
Step 35000
1 1  3.302218081433e-05  -3.447970419153e-05  -9.272877059370e-06 
2 1  4.372515545162e-05  -6.306120403367e-05  -8.048388587807e-05 
3 1 -4.083787947223e-05  -4.200941957189e-05  -4.558577725740e-05 
4 1  5.406838168454e-06   1.065544596543e-04   2.994159412622e-05 
5 1  3.892130915032e-06  -9.079362701143e-05   3.035994529267e-05 
6 1  2.653271189025e-05  -8.171483477734e-06  -1.776834616652e-05 
7 1 -1.374400295231e-06  -9.779860970899e-06  -1.357826758163e-05 
8 1  9.122631997412e-05  -6.448936224535e-05  -9.683083466540e-05 
8
Step 36000
1 1 -1.058715559376e-05  -1.050602363467e-04  -5.211200353800e-05 
2 1  1.914800185611e-05  -6.895641772724e-05  -1.001665232015e-04 
3 1 -6.174201973606e-05   3.827701594275e-05   3.544535259397e-05 
4 1  1.004945180248e-05   2.843568470955e-05  -3.577503602686e-05 
5 1  8.123011167601e-06  -1.017733467023e-04   6.792331454167e-05 
6 1  1.996260210641e-05   4.667931303017e-06  -7.138443938834e-07 
7 1 -3.521356307583e-06  -7.924215466118e-06  -3.894341919701e-06 
8 1  1.796050650174e-05  -1.127690227564e-04  -1.181265466335e-04 
8
Step 37000
1 1 -3.619653331596e-05  -1.436169478590e-04  -8.724134285991e-05 
2 1 -2.241993006470e-05  -3.788484626984e-05  -7.952937139376e-05 
3 1 -6.945034227462e-05   7.086714100623e-05   1.013994862101e-04 
4 1  2.040513000401e-05  -5.174357423462e-05  -1.011495416814e-04 
5 1  1.131106250495e-05  -6.523038913829e-05   7.817238662829e-05 
6 1  1.434316874085e-05   3.333295461574e-05   1.712106367184e-05 
7 1 -4.414395394063e-06   4.964036289954e-06  -1.035927473718e-06 
8 1 -3.051570503846e-05  -1.098339733074e-04  -9.462438037185e-05 
8
Step 38000
1 1 -3.412579111640e-05  -1.211531520535e-04  -1.052176016073e-04 
2 1 -7.422267014790e-05   1.790757270105e-05  -3.683691690046e-05 
3 1 -5.475534022039e-05   4.939747636872e-05   1.172529981146e-04 
4 1  1.924364254082e-05  -9.495980722044e-05  -1.305239983636e-04 
5 1  7.690051173304e-06  -1.685896223605e-05   4.746329120868e-05 
6 1  4.686351330047e-06   5.906497566644e-05   3.701924922028e-05 
7 1  3.526818071549e-07   4.162537634725e-05   1.769946477883e-06 
8 1 -3.674920757973e-05  -5.819392473261e-05  -2.612187367578e-05 
8
Step 39000
1 1 -9.040633479795e-06  -1.928885694797e-05  -8.915485553399e-05 
2 1 -1.158441319800e-04   6.822553766837e-05   5.042345053634e-06 
3 1 -1.754496469259e-05  -1.696041568115e-06   7.709302669982e-05 
4 1 -1.115837152724e-05  -8.700628949998e-05  -1.082528550143e-04 
5 1 -6.529079451504e-06   1.596250942534e-05  -2.320437962755e-05 
6 1 -1.005074151658e-05   6.181840361835e-05   5.832747889006e-05 
7 1  1.145827754041e-05   1.086693009306e-04   7.984967904309e-06 
8 1 -1.519255558588e-05   7.746397795595e-06   4.471485065627e-05 
8
Step 40000
1 1  2.145737003947e-05   1.016587860799e-04  -3.584937378084e-05 
2 1 -1.274214805159e-04   9.024456383414e-05   3.165636049886e-05 
3 1  2.906889692835e-05  -4.876390703558e-05  -3.347724644017e-06 
4 1 -5.175155979573e-05  -3.674417435527e-05  -3.724993742273e-05 
5 1 -3.230412178110e-05   2.265603553633e-05  -1.043455018383e-04 
6 1 -2.705100871708e-05   2.283024605730e-05   8.057022659186e-05 
7 1  2.491859058424e-05   1.687562025182e-04   1.553411724429e-05 
8 1  4.555237838487e-06   5.127566771778e-05   8.232445374160e-05 
8
Step 41000
1 1  3.783705450325e-05   1.500633080892e-04   2.962311006452e-05 
2 1 -9.490837189006e-05   7.866111755874e-05   3.715205250333e-05 
3 1  6.416194623682e-05  -6.594390281634e-05  -8.167025436253e-05 
4 1 -7.694146572649e-05   2.945689041424e-05   5.140941979039e-05 
5 1 -6.924174107682e-05   4.902693844170e-06  -1.447058615440e-04 
6 1 -4.015576246528e-05  -4.991202706138e-05   1.002487265440e-04 
7 1  3.027021626847e-05   1.746647509567e-04   1.784276148301e-05 
8 1  3.285597566654e-06   6.759283284808e-05   9.194101985509e-05 
8
Step 42000
1 1  2.974970202373e-05   1.248589302552e-04   7.331305335031e-05 
2 1 -1.876241447753e-05   3.873950894456e-05   2.646080228751e-05 
3 1  7.324186542160e-05  -4.576187225006e-05  -1.076400736885e-04 
4 1 -6.967621573200e-05   7.960696200773e-05   1.056307946872e-04 
5 1 -1.086220019681e-04  -2.162923765537e-05  -1.139528917569e-04 
6 1 -4.265022567999e-05  -1.115436166333e-04   1.055481683830e-04 
7 1  1.545088207120e-05   1.134346773948e-04   7.135888790857e-06 
8 1 -2.120767010920e-05   5.951931935148e-05   8.298094508908e-05 
8
Step 43000
1 1 -1.818665807564e-06   5.567072847727e-05   7.579259139602e-05 
2 1  4.934316745813e-05  -1.406317296990e-05   8.817188782998e-06 
3 1  5.494053748977e-05   1.157240116665e-06  -6.035195381343e-05 
4 1 -2.299202760546e-05   8.880005598108e-05   1.052327855307e-04 
5 1 -1.164605761489e-04  -3.289415250957e-05  -2.221497055110e-05 
6 1 -3.076970948471e-05  -1.297323810731e-04   8.156823490288e-05 
7 1 -2.116593019125e-05   1.898208223891e-05  -2.313626968417e-05 
8 1 -5.098046977559e-05   2.792661280903e-05   5.329702612362e-05 
8
Step 44000
1 1 -4.272272824644e-05  -1.676079563161e-05   4.614018320574e-05 
2 1  7.355791437508e-05  -5.448999187501e-05  -8.788802806085e-06 
3 1  1.730557755922e-05   5.171021538363e-05   4.340726351453e-05 
4 1  4.644256347300e-05   5.319551128136e-05   6.406446334133e-05 
5 1 -5.633974420641e-05  -1.357424656385e-05   7.820065863384e-05 
6 1 -5.231150304592e-06  -9.650227200149e-05   2.092887248851e-05 
7 1 -6.586433645946e-05  -3.660163248711e-05  -6.402605809416e-05 
8 1 -5.212989048399e-05  -1.817533384229e-05   1.044521273061e-05 
8
Step 45000
1 1 -7.028208059451e-05  -5.711589051856e-05   4.365453435766e-06 
2 1  7.462712156435e-05  -6.310157781045e-05  -2.467520089841e-05 
3 1 -2.524055808579e-05   8.160427924243e-05   1.360501969582e-04 
4 1  1.007590995145e-04  -5.939128221176e-06   1.017650986592e-05 
5 1  5.147489210102e-05   3.441071059034e-05   1.297744595597e-04 
6 1  2.710444496881e-05  -2.538225296612e-05  -4.157297650079e-05 
7 1 -9.302456081083e-05  -3.762806430931e-05  -7.748814947793e-05 
8 1  1.275996396554e-06  -6.234883174348e-05  -2.722451415980e-05 
8
Step 46000
1 1 -6.774419906070e-05  -5.785732723425e-05  -3.447823105912e-05 
2 1  6.867295947638e-05  -4.096028828042e-05  -3.762365308197e-05 
3 1 -5.528895914031e-05   7.830389016700e-05   1.613797625529e-04 
4 1  1.150239662202e-04  -5.791812526504e-05  -3.163757862673e-05 
5 1  1.302341586407e-04   9.146489637408e-05   1.119961157104e-04 
6 1  5.161691665032e-05   4.395801424560e-05  -6.887801545030e-05 
7 1 -8.007272449154e-05  -1.975406263285e-05  -3.374502473577e-05 
8 1  1.053404361997e-04  -8.896613326979e-05  -4.984338715187e-05 
8
Step 47000
1 1 -3.526318545709e-05  -3.345942712420e-05  -5.680135829683e-05 
2 1  5.337445820723e-05  -5.424615673841e-06  -4.303750928169e-05 
3 1 -6.177374332280e-05   5.020569891397e-05   1.006014379802e-04 
4 1  8.579761249533e-05  -8.301607634092e-05  -5.135873883871e-05 
5 1  1.409723180970e-04   1.186644044830e-04   3.751522991375e-05 
6 1  5.696716917501e-05   7.704908125331e-05  -6.342432996245e-05 
7 1 -2.438426124661e-05  -1.376089383630e-05   6.153561491979e-05 
8 1  1.896615475972e-04  -8.127174277282e-05  -5.424917053234e-05 
8
Step 48000
1 1  1.131000981807e-05  -1.956249388110e-06  -5.232348288976e-05 
2 1  2.233230740801e-05   2.290138845008e-05  -2.826710835180e-05 
3 1 -4.699983936522e-05   1.548254589069e-05  -3.283855084524e-05 
4 1  2.205793868623e-05  -7.652218535011e-05  -4.808964086631e-05 
5 1  9.046776556038e-05   7.452138315437e-05  -5.429693441317e-05 
6 1  4.680912479913e-05   6.562860933965e-05  -4.062919445029e-05 
7 1  4.845630260670e-05  -2.414865791133e-05   1.455162116784e-04 
8 1  1.977799750480e-04  -2.821560514948e-05  -4.081870554177e-05 
8
Step 49000
1 1  4.793740728326e-05   2.207224571454e-05  -1.852421902935e-05 
2 1 -1.992544430426e-05   3.118805779548e-05   4.081700774247e-05 
3 1 -2.054645804661e-05  -1.524769788500e-05  -1.393151363800e-04 
4 1 -4.909128301491e-05  -4.615931717408e-05  -2.496744173710e-05 
5 1  1.283122832940e-05  -3.318452986761e-05  -1.119667917600e-04 
6 1  2.706580840546e-05   2.561364380981e-05  -1.656605114535e-05 
7 1  9.448715273395e-05  -3.927832403348e-05   1.664109546608e-04 
8 1  1.311428501954e-04   5.096511909298e-05  -1.559272016193e-05 
8
Step 50000
1 1  5.489458810760e-05   2.908464331694e-05   3.133204173165e-05 
2 1 -6.097048541302e-05   1.896938852120e-05   1.620443995540e-04 
3 1  1.375997524947e-05  -3.644693034968e-05  -1.575470672640e-04 
4 1 -8.699974200563e-05  -9.670731331828e-06   1.037261246628e-05 
5 1 -4.123328494430e-05  -1.254489734220e-04  -1.071500804891e-04 
6 1  3.891493225746e-06  -1.120861501587e-05  -3.358639338028e-06 
7 1  9.552040800509e-05  -3.980562305365e-05   1.194168616872e-04 
8 1  4.447443074062e-05   1.118783099033e-04   1.065529175156e-05 
8
Step 51000
1 1  4.070780802178e-05   1.880564182016e-05   6.795049412665e-05 
2 1 -8.583713126486e-05   2.626808543249e-06   2.257113277495e-04 
3 1  5.083224734102e-05  -4.210442807527e-05  -1.055756754733e-04 
4 1 -8.375696052122e-05   1.759448698576e-05   4.530589004941e-05 
5 1 -5.739387065706e-05  -1.538897451956e-04  -5.782699091545e-05 
6 1 -1.462224449285e-05  -2.906177854003e-05  -2.388242485037e-06 
7 1  6.269881149038e-05  -1.086060955075e-05   3.266145525957e-05 
8 1 -4.824335378115e-06   1.264223703175e-04   2.971491603505e-05 
8
Step 52000
1 1  2.403810702944e-05   1.299716338462e-07   6.689139694545e-05 
2 1 -7.940802070508e-05   1.440249338726e-05   1.998494547242e-04 
3 1  7.297380482004e-05  -2.890025513422e-05  -2.304129290651e-05 
4 1 -5.936963025253e-05   3.308936580707e-05   6.443070230252e-05 
5 1 -4.857577894857e-05  -1.213348520618e-04  -6.959829091896e-08 
6 1 -2.399820895476e-05  -3.060342358513e-05  -2.905256821043e-06 
7 1  1.060755478082e-05   4.048712594189e-05  -3.938481373872e-05 
8 1 -2.305137604415e-05   9.432863156325e-05   4.156298140180e-05 
8
Step 53000
1 1  9.851896463358e-06  -1.687309391405e-05   2.580851607273e-05 
2 1 -3.702833240545e-05   5.057670723582e-05   1.076373665705e-04 
3 1  7.422173843767e-05   2.778284115949e-07   4.339909541082e-05 
4 1 -3.179760388099e-05   4.067427996448e-05   5.395039765248e-05 
5 1 -2.788232656269e-05  -5.247468435507e-05   4.126740505639e-05 
6 1 -2.453458097956e-05  -2.499490741171e-05   6.573746584107e-06 
7 1 -3.940671559008e-05   8.697567234858e-05  -7.104729636498e-05 
8 1 -2.279483237968e-05   3.505743419170e-05   4.718595095033e-05 
8
Step 54000
1 1  2.806854341085e-06  -2.469280831442e-05  -3.295507508949e-05 
2 1  2.497108106135e-05   8.738868980305e-05   1.281539523037e-05 
3 1  5.999374853625e-05   3.770953309081e-05   6.754166331988e-05 
4 1 -9.939365646659e-06   4.286491964283e-05   1.319724266643e-05 
5 1 -8.634109187619e-06   1.684267488534e-05   5.528198683084e-05 