8
Step 0
1 1  0.000000000000e+00   0.000000000000e+00   0.000000000000e+00 
2 1  0.000000000000e+00   0.000000000000e+00   0.000000000000e+00 
3 1  0.000000000000e+00   0.000000000000e+00   0.000000000000e+00 
4 1  0.000000000000e+00   0.000000000000e+00   0.000000000000e+00 
5 1  0.000000000000e+00   0.000000000000e+00   0.000000000000e+00 
6 1  0.000000000000e+00   0.000000000000e+00   0.000000000000e+00 
7 1  0.000000000000e+00   0.000000000000e+00   0.000000000000e+00 
8 1  0.000000000000e+00   0.000000000000e+00   0.000000000000e+00 
8
Step 1000
1 1 -6.333515956327e-05  -3.937641811082e-05   4.906308396064e-05 
2 1 -5.593070314717e-05   1.226467061670e-04  -5.633491908075e-05 
3 1 -1.074404514708e-04   1.313794920976e-04  -1.119197556145e-04 
4 1 -1.337586137159e-04   1.043521585280e-04   4.835664015154e-05 
5 1 -7.701941594819e-05   1.052687532815e-04  -2.587260920567e-05 
6 1  3.909366375489e-05  -2.236248847568e-04  -3.206945397428e-05 
7 1 -4.637419711338e-05   1.214441272268e-04   1.216504229619e-04 
8 1  1.315144385822e-04  -3.243469348214e-05  -5.890621120807e-06 
8
Step 2000
1 1 -5.165389776744e-05  -3.520566064973e-05  -2.143302655410e-05 
2 1 -3.854705413057e-05   6.377214589065e-05  -4.756693589326e-05 
3 1 -6.743735432987e-05   1.912909549217e-05  -8.653016514993e-05 
4 1 -6.416937077925e-05   7.952123727308e-05   1.547105909326e-05 
5 1  9.946703970318e-06   2.531490314592e-05  -6.277158500553e-06 
6 1 -2.273064389314e-05  -1.578068067950e-04   4.571892850997e-05 
7 1 -2.961758393580e-05   2.982053399724e-05   8.991797677577e-05 
8 1  2.228038663183e-05  -8.082889224266e-05   1.083581938395e-05 
8
Step 3000
1 1 -1.516810655186e-05  -1.079150532957e-05  -8.242558773326e-05 
2 1  1.481739515652e-06  -2.928726738452e-05  -8.643465818871e-06 
3 1  3.997415699203e-06  -6.820441769926e-05  -3.765702986968e-05 
4 1  2.360769141294e-05   1.386526426205e-05  -3.987485624997e-05 
5 1  7.121087505083e-05  -5.366198287131e-05   8.942079486201e-07 
6 1 -6.072630623728e-05  -2.655658624210e-05   1.031326278575e-04 
7 1 -2.078695832597e-06  -4.098983737902e-05   1.686100790236e-05 
8 1 -6.409471933552e-05  -7.956508865652e-05   3.185418743850e-05 
8
Step 4000
1 1  4.566852566170e-05   3.219075314522e-05  -1.056051084426e-04 
2 1  2.702474164119e-05  -1.002307537705e-04   5.784217103819e-05 
3 1  5.769577996818e-05  -9.702987318085e-05   2.088095848831e-05 
4 1  7.369101313696e-05  -5.982406510872e-05  -8.133175345251e-05 
5 1  8.321984694690e-05  -9.212270555573e-05   1.875337311875e-05 
6 1 -6.721506463082e-05   5.707853213548e-05   1.046704872986e-04 
7 1  3.504449668985e-05  -6.320540691792e-05  -5.731733312547e-05 
8 1 -9.408356758926e-05  -2.909172525202e-05   4.190185759309e-05 
8
Step 5000
1 1  9.114514358908e-05   7.121765844745e-05  -6.608422845270e-05 
2 1  3.333040255567e-05  -1.071377906909e-04   9.975990844276e-05 
3 1  7.235667592511e-05  -7.589807222051e-05   5.655124596988e-05 
4 1  7.716031446883e-05  -1.000092765148e-04  -9.386961834831e-05 
5 1  5.758206710716e-05  -8.499822044582e-05   5.065138508508e-05 
6 1 -5.163608591464e-05   8.103985265568e-05   6.088121853652e-05 
7 1  7.222367924997e-05  -4.988617879928e-05  -8.769354468917e-05 
8 1 -7.680941641139e-05   5.286832159056e-05   2.494440336553e-05 
8
Step 6000
1 1  9.952482800686e-05   9.606723668451e-05  -2.499540265432e-06 
2 1  2.912254236803e-05  -6.371438840258e-05   1.043759379187e-04 
3 1  6.245825895704e-05  -2.102130566358e-05   6.658847588226e-05 
4 1  5.056025505889e-05  -9.519563938077e-05  -7.923134081423e-05 
5 1  1.593078707235e-05  -4.454791496790e-05   7.936558260915e-05 
6 1 -2.716357434301e-05   6.519307067691e-05   3.798652569979e-06 
7 1  1.006879312843e-04  -2.136909835650e-05  -7.568499518343e-05 
8 1 -2.679772015167e-05   1.360419939841e-04  -3.630975010580e-05 
8
Step 7000
1 1  6.415780108444e-05   1.096784191703e-04   3.658379922124e-05 
2 1  2.192773896688e-05  -8.768029016260e-06   7.656953892358e-05 
3 1  4.222408304492e-05   4.085303371265e-05   6.802406642505e-05 
4 1  1.497467354926e-05  -6.312322260759e-05  -5.130282710682e-05 
5 1 -1.812239262227e-05   6.585819778014e-06   8.719045972820e-05 
6 1 -3.760225950637e-06   1.895775308379e-05  -3.584652995246e-05 
7 1  1.149090506635e-04   7.258788981251e-06  -4.355451679226e-05 
8 1  3.680965139279e-05   1.819306892292e-04  -1.153321789293e-04 
8
Step 8000
1 1 -9.748237353497e-06   1.047219075947e-04   3.375086631251e-05 
2 1  1.199717281711e-05   2.580923074835e-05   3.381009368539e-05 
3 1  1.868555045368e-05   8.034082515105e-05   6.510714797217e-05 
4 1 -1.255660747873e-05  -2.587466590662e-05  -2.517793029370e-05 
5 1 -2.970193958684e-05   4.541371359297e-05   5.470311118349e-05 
6 1  1.183240860875e-05  -4.137153546877e-05  -4.603526589735e-05 
7 1  9.763413045124e-05   2.671088921197e-05  -9.760215270547e-06 
8 1  8.932125209811e-05   1.494419651024e-04  -1.588658460318e-04 
8
Step 9000
1 1 -7.695724792072e-05   4.850697893699e-05   7.774131666813e-06 
2 1 -1.539408130031e-06   3.235287186183e-05  -1.570498770492e-05 
3 1 -3.964380631615e-06   7.989089345905e-05   4.010068479396e-05 
4 1 -2.496058474923e-05   6.406804781361e-06   1.702332155658e-07 
5 1 -2.533919712174e-05   5.651305706234e-05  -2.762794474568e-05 
6 1  2.174839978720e-05  -8.749627663554e-05  -3.252890850415e-05 
7 1  3.115132327510e-05   3.335869532534e-05   1.720069114561e-05 
8 1  1.023520489034e-04   1.447805503429e-05  -1.555757775302e-04 
8
Step 10000
1 1 -1.074518572854e-04  -5.153240951416e-05  -9.801981346553e-06 
2 1 -4.863796550769e-06   2.528316886989e-05  -5.933794886224e-05 
3 1 -2.380242125508e-05   3.863546697819e-05  -1.013124144136e-05 
4 1 -1.925389408021e-05   2.873701653972e-05   2.848909559173e-05 
5 1 -1.907746430313e-05   4.012048178554e-05  -1.101665778425e-04 
6 1  2.947288189838e-05  -9.488194422809e-05  -8.870143040622e-06 
7 1 -4.772173122859e-05   2.747187400764e-05   3.273470533752e-05 
8 1  5.813294390918e-05  -1.096777997306e-04  -1.172647213078e-04 
8
Step 11000
1 1 -9.495420604395e-05  -1.130347709031e-04  -2.359990137430e-05 
2 1  5.507867817397e-07   9.823160423593e-06  -5.739124360243e-05 
3 1 -3.732096828664e-05  -2.419005100961e-05  -6.451606911556e-05 
4 1  2.059624366968e-06   3.494161505892e-05   4.534650612845e-05 
5 1 -1.144150811872e-05   9.060561668067e-06  -1.413794686929e-04 
6 1  3.337238764516e-05  -5.234004375578e-05   1.132328309378e-05 
7 1 -8.761495591254e-05   1.263959392517e-05   3.219945253343e-05 
8 1 -2.777470837371e-05  -1.426132673508e-04  -4.520113312924e-05 
8
Step 12000
1 1 -3.513871190888e-05  -1.109267735490e-04  -2.691463847303e-05 
2 1  2.508108709804e-07  -8.506586021863e-06  -3.270615298158e-05 
3 1 -4.137551226817e-05  -7.765907169417e-05  -9.848509044523e-05 
4 1  1.928789184443e-05   2.480180838071e-05   4.216937200276e-05 
5 1 -8.084668618168e-06  -2.569782062418e-05  -1.220309478661e-04 
6 1  2.867692741587e-05   2.599396439151e-05   1.868709799369e-05 
7 1 -8.463388634347e-05  -5.157267310105e-06   1.440677558249e-05 
8 1 -1.039043996416e-04  -1.126363250906e-04   2.117665820401e-05 
8
Step 13000
1 1  3.640426251110e-05  -6.821965599687e-05  -1.346681315465e-05 
2 1 -8.606220863775e-06  -1.655778771635e-05  -7.776849630311e-06 
3 1 -3.392372067401e-05  -9.936194857812e-05  -9.588565411392e-05 
4 1  1.630637497746e-05  -6.343854804715e-07   2.303337777117e-05 
5 1 -6.354225183936e-06  -5.263240561881e-05  -7.212708463182e-05 
6 1  1.272982940239e-05   9.897786642996e-05   1.157439167835e-05 
7 1 -5.487475990645e-05  -1.977189371739e-05  -1.318018275885e-05 
8 1 -1.298125583155e-04  -5.283896508019e-05   6.168912454224e-05 
8
Step 14000
1 1  7.847716625162e-05  -1.061432064140e-05   6.799523577425e-06 
2 1 -2.637405619301e-05  -1.141453471527e-05   1.644577898420e-05 
3 1 -1.428569743566e-05  -7.720993928963e-05  -5.303168467551e-05 
4 1 -3.493615289774e-06  -3.532384673605e-05  -9.964089303142e-06 
5 1  3.491054391425e-06  -6.057867019357e-05  -2.083710854517e-05 
6 1 -1.226034362861e-05   1.299051804137e-04  -3.133414178782e-06 
7 1 -1.718559149968e-05  -2.468397572198e-05  -3.851457058995e-05 
8 1 -9.752178982694e-05   2.056579192868e-06   7.570329702128e-05 
8
Step 15000
1 1  7.707329296682e-05   3.628214694311e-05   2.725883028126e-05 
2 1 -4.858313560746e-05  -9.462163106053e-07   3.437105402421e-05 
3 1  1.483181129999e-05  -1.648760784424e-05   8.168062102468e-06 
4 1 -3.189222191723e-05  -5.886364964453e-05  -4.517522164086e-05 
5 1  2.082354227647e-05  -4.267535630722e-05   1.140987438279e-05 
6 1 -3.870108400205e-05   1.087675313166e-04  -1.379783847533e-05 
7 1  1.166677770753e-05  -1.969514456108e-05  -4.864851556949e-05 
8 1 -2.581058810330e-05   3.380233357667e-05   6.381078385567e-05 
8
Step 16000
1 1  3.733738122282e-05   5.369057193682e-05   4.743188483207e-05 
2 1 -6.085564897210e-05   1.017074875596e-05   3.560219212890e-05 
3 1  4.643788755598e-05   5.527362184513e-05   5.290155965800e-05 
4 1 -5.472690370796e-05  -5.034483393712e-05  -6.566472542836e-05 
5 1  3.806496486421e-05   1.338858672060e-06   2.613731257606e-05 
6 1 -5.732480471119e-05   4.964302637453e-05  -8.676586494914e-06 
7 1  2.348896329653e-05  -1.272489850189e-05  -3.191145270208e-05 
8 1  4.035629414302e-05   4.661302103957e-05   2.853945169638e-05 
8
Step 17000
1 1 -2.408254124479e-05   3.891143707061e-05   6.059717092993e-05 
2 1 -4.686189638510e-05   1.753798433066e-05   2.145466813217e-05 
3 1  7.209519411765e-05   1.016257891510e-04   6.744161660148e-05 
4 1 -5.507397277797e-05   3.718874727717e-07  -6.366980187274e-05 
5 1  4.737939672569e-05   6.252391376461e-05   3.010526621415e-05 
6 1 -5.697900059258e-05  -1.261341303979e-05   2.161986452724e-05 
7 1  2.031300708472e-05  -9.924906668215e-06   1.608470662403e-05 
8 1  7.042378645583e-05   4.430993127414e-05  -1.706895766500e-05 
8
Step 18000
1 1 -7.806128702621e-05   4.302162342326e-06   5.764584041561e-05 
2 1  5.856615336219e-08   1.424188226805e-05  -5.112752249323e-06 
3 1  8.209949083025e-05   1.044261336772e-04   5.688452085876e-05 
4 1 -2.607445741862e-05   8.158035065081e-05  -3.362976947344e-05 
5 1  4.240001888486e-05   1.157042361357e-04   3.058080012510e-05 
6 1 -2.377511486931e-05  -5.663520339540e-05   7.264748194275e-05 
7 1  1.210904164871e-05  -1.231500445135e-05   7.981402106661e-05 
8 1  6.386223358895e-05   2.978549465842e-05  -5.252853806197e-05 
8
Step 19000
1 1 -1.047177979085e-04  -2.654062341292e-05   2.265741387658e-05 
2 1  5.995265945668e-05  -2.145136849149e-06  -4.230401782317e-05 
3 1  6.610345510166e-05   7.076061337412e-05   3.389978538059e-05 
4 1  2.459840172082e-05   1.403782590253e-04   2.817503394673e-05 
5 1  2.470793527019e-05   1.344370233294e-04   3.154217619809e-05 
6 1  4.968734660005e-05  -7.530738900766e-05   1.166658064667e-04 
7 1  1.273052692734e-05  -1.550041757960e-05   1.232357147776e-04 
8 1  3.212357782480e-05   6.398697630792e-06  -6.499492954861e-05 
8
Step 20000
1 1 -9.684554746969e-05  -4.811622974997e-05  -4.455684630336e-05 
2 1  9.692017962562e-05  -3.003867027155e-05  -8.603883115662e-05 
3 1  1.654725911048e-05   2.077873740849e-05   1.304503484845e-05 
4 1  7.513479290312e-05   1.485574379392e-04   9.676342268210e-05 
5 1 -1.222118758636e-06   8.919601811157e-05   2.509605224649e-05 
6 1  1.264541024931e-04  -6.152075212830e-05   1.148543245610e-04 
7 1  2.760083142675e-05  -9.919186866987e-06   1.100057399783e-04 
8 1 -6.166560947128e-06  -1.912943445140e-05  -5.217483849835e-05 
8
Step 21000
1 1 -4.329039766599e-05  -4.332748431967e-05  -1.109646398767e-04 
2 1  9.652716961728e-05  -6.091261182625e-05  -1.160048810783e-04 
3 1 -6.639395706934e-05  -2.479865686600e-05  -5.980432171740e-06 
4 1  9.251243098163e-05   7.850476435224e-05   1.367418844319e-04 
5 1 -2.611779604366e-05  -4.664905425735e-06  -3.649310556712e-06 
6 1  1.538997038245e-04  -1.783289306206e-05   4.479295350496e-05 
7 1  4.763423714283e-05   1.219149495867e-05   3.176323042446e-05 
8 1 -3.085984543768e-05  -3.353838971641e-05  -1.920133779530e-05 
8
Step 22000
1 1  4.871806712783e-05   2.900507066278e-06  -1.451885563543e-04 
2 1  5.975815828152e-05  -7.380545157215e-05  -1.088472345703e-04 
3 1 -1.318383027722e-04  -5.683186073968e-05  -1.980928711628e-05 
4 1  7.238900665500e-05  -3.235923781162e-05   1.364948426292e-04 
5 1 -4.359429046232e-05  -8.707177671529e-05  -5.145516892197e-05 
6 1  1.146183404847e-04   4.008677761687e-05  -5.955647827269e-05 
7 1  5.240227633452e-05   4.192032864648e-05  -6.520255477792e-05 
8 1 -3.020959601485e-05  -3.627386119092e-05   2.640666480966e-05 
8
Step 23000
1 1  1.133317285790e-04   8.329801238520e-05  -1.414306335738e-04 
2 1 -1.226303562235e-05  -5.028345779631e-05  -4.511239903220e-05 
3 1 -1.319150728809e-04  -5.985302664062e-05  -1.107013231445e-05 
4 1  3.563423212570e-05  -1.100653924623e-04   8.562185235608e-05 
5 1 -4.694659951441e-05  -1.109367070306e-04  -9.418112119510e-05 
6 1  2.797431544509e-05   8.234108634084e-05  -1.231045744756e-04 
7 1  2.309921231577e-05   5.828757375800e-05  -1.189369926320e-04 
8 1 -6.357994503547e-06  -3.190802561400e-05   7.214763676630e-05 
8
Step 24000
1 1  1.202924504715e-04   1.676401801400e-04  -7.558469939470e-05 
2 1 -7.439179777940e-05   1.548677112725e-05   5.655872582062e-05 
3 1 -9.597333395437e-05  -5.078761600226e-05   9.102386757243e-06 
4 1 -8.168895753284e-06  -1.205035767109e-04   1.790305743097e-05 
5 1 -3.714670137631e-05  -9.247734371712e-05  -9.702993147464e-05 
6 1 -4.432377122542e-05   8.596938283622e-05  -1.323665362212e-04 
7 1 -3.646479351752e-05   4.557693061354e-05  -1.087424987727e-04 
8 1  2.334563966143e-05  -1.996708329991e-05   9.543459268694e-05 
8
Step 25000
1 1  9.088334527462e-05   1.974552417616e-04   1.197017242249e-05 
2 1 -9.237235534693e-05   8.547473444942e-05   1.307416471716e-04 
3 1 -5.313843578442e-05  -3.818766189016e-05   1.836885979288e-05 
4 1 -4.397183162710e-05  -9.082073618862e-05  -2.188246774725e-05 
5 1 -1.692985315181e-05  -3.527334947247e-05  -3.884548766582e-05 
6 1 -7.415977471181e-05   4.381987999319e-05  -1.134152245286e-04 
7 1 -9.460659727031e-05   1.161183358122e-05  -4.736588659877e-05 
8 1  3.265964491030e-05   9.602588401619e-06   7.775154615549e-05 
8
Step 26000
1 1  2.294190209660e-05   1.517932244988e-04   7.175086272563e-05 
2 1 -6.062485397886e-05   1.131446738465e-04   1.395433369514e-04 
3 1 -2.252144059490e-05  -2.166862991443e-05   8.058261135850e-06 
4 1 -6.335665454721e-05  -3.405454374147e-05  -3.329699818900e-05 
5 1  1.094228825628e-05   2.292702043872e-05   3.916865193033e-05 
6 1 -5.678485877347e-05  -2.629014479474e-05  -5.027278187855e-05 
7 1 -1.225281221675e-04  -2.451417151282e-05   2.726885677450e-05 
8 1  3.953395719707e-06   5.774258185096e-05   8.584024217803e-06 
8
Step 27000
1 1 -4.944191554827e-05   2.751052694249e-05   9.774510963633e-05 
2 1 -1.055873197058e-05   1.033096798025e-04   8.481283729722e-05 
3 1 -8.416256062787e-06  -6.288798413796e-07  -1.088780370341e-05 
4 1 -6.536261788732e-05   2.856552323390e-05  -2.730493305707e-05 
5 1  4.139731843926e-05   5.948747923444e-05   9.357162143796e-05 
6 1 -2.087892368850e-05  -7.964392614096e-05   2.011883697150e-05 
7 1 -1.080880209075e-04  -4.918166289291e-05   7.441686430117e-05 
8 1 -5.096127212502e-05   1.000715007588e-04  -9.434615190480e-05 
8
Step 28000
1 1 -8.183732520268e-05  -6.862321766725e-05   8.800647700301e-05 
2 1  3.295572093852e-05   5.620564830190e-05   9.947034780670e-06 
3 1 -8.691546966723e-07   2.237277356059e-05  -3.276957606659e-05 
4 1 -5.187045787217e-05   7.122321804461e-05  -1.794759240706e-05 
5 1  6.592190147485e-05   7.149649008016e-05   1.064220855970e-04 
6 1  2.924024701470e-06  -8.798189151652e-05   6.357117995221e-05 
7 1 -5.111810348050e-05  -5.189058696250e-05   7.482678952317e-05 
8 1 -1.028287698635e-04   1.146738030821e-04  -1.586946687693e-04 
8
Step 29000
1 1 -6.810965359133e-05  -9.082267902395e-05   4.701196344920e-05 
2 1  5.782808512599e-05  -1.438811447248e-05  -4.298521188681e-05 
3 1  4.884437442012e-06   3.732549276374e-05  -4.000064985677e-05 
4 1 -2.102044518537e-05   8.231753570507e-05  -1.255606729415e-05 
5 1  7.714161161822e-05   5.630409042393e-05   7.394085561391e-05 
6 1  1.154782142530e-05  -5.106301765301e-05   7.908003377973e-05 
7 1  2.205954646561e-05  -3.120277091569e-05   3.369852874305e-05 
8 1 -1.143341552222e-04   9.823705843974e-05  -1.470300925218e-04 
8
Step 30000
1 1 -2.515898634211e-05  -6.781401682161e-05  -2.414883274433e-06 
2 1  5.677614003484e-05  -6.722510475188e-05  -6.675267281947e-05 
3 1  1.482166887272e-05   3.844110495693e-05  -1.826631769655e-05 
4 1  2.194535894482e-05   5.975440154451e-05  -7.646523921400e-06 
5 1  7.262722026742e-05   1.896961250004e-05   1.179608651670e-05 
6 1  5.081360291617e-06   1.149797232205e-05   6.106487781850e-05 
7 1  7.243407008348e-05   2.077120835417e-06  -2.144383075282e-05 
8 1 -5.409101955036e-05   5.521268046874e-05  -7.147601688723e-05 
8
Step 31000
1 1  2.031976880374e-05  -2.188846230788e-05  -4.126434563183e-05 
2 1  2.777878505901e-05  -8.073257183040e-05  -6.210753536632e-05 
3 1  2.859779421762e-05   2.944649932705e-05   2.166140388356e-05 
4 1  5.878138282693e-05   5.652717305720e-06  -3.042618203706e-06 
5 1  4.892645702434e-05  -2.371242858614e-05  -4.730817561552e-05 
6 1 -1.052729313179e-05   5.955076306503e-05   1.588355679944e-05 
7 1  8.569797989165e-05   3.154099733637e-05  -5.662120639398e-05 
8 1  5.272044717796e-05   3.251756719197e-06   2.818757420457e-05 
8
Step 32000
1 1  4.154165506973e-05   2.642845192211e-05  -7.018687665678e-05 
2 1 -2.795336416080e-05  -7.074749806543e-05  -3.198924158529e-05 
3 1  3.884775726115e-05   1.395767501050e-05   6.094097599253e-05 
4 1  7.712833976561e-05  -5.398983250065e-05   2.434073427551e-06 
5 1  2.663371906718e-06  -5.435528165780e-05  -7.632292716032e-05 
6 1 -2.391917406824e-05   6.956085272059e-05  -3.339123120161e-05 
7 1  6.754783449585e-05   4.121157677286e-05  -5.640635123225e-05 
8 1  1.281339588337e-04  -3.194449881514e-05   9.382712926169e-05 
8
Step 33000
1 1  3.060926180175e-05   5.199785550671e-05  -7.483479650412e-05 
2 1 -9.952424135588e-05  -5.437354657589e-05  -5.884775598005e-06 
3 1  3.634017317647e-05  -1.890147823972e-06   8.552410183383e-05 
4 1  7.139484384303e-05  -8.496989785363e-05   1.479412934203e-05 
5 1 -5.827467791143e-05  -6.828432777502e-05  -7.142831878023e-05 
6 1 -2.434815317753e-05   4.009625323461e-05  -6.707333957610e-05 
7 1  2.765234779892e-05   1.956916278286e-05  -1.740410181668e-05 
8 1  1.415486573297e-04  -4.702070392192e-05   1.020061294863e-04 
8
Step 34000
1 1  1.429711817551e-06   4.344432782559e-05  -5.317300975121e-05 
2 1 -1.586593702222e-04  -4.037850638505e-05   1.331980686962e-05 
3 1  1.070376204417e-05  -8.450109537280e-06   7.636747216688e-05 
4 1  3.422422427367e-05  -8.181232229383e-05   3.287458105582e-05 
5 1 -1.013150443575e-04  -6.254974088098e-05  -4.334185945129e-05 
6 1 -6.637110067539e-06  -1.204819674354e-05  -7.489605909356e-05 
7 1 -1.961614330736e-05  -1.865930398437e-05   4.557903308275e-05 
8 1  9.570607393270e-05  -5.368952813573e-05   6.811621485662e-05 
8
Step 35000
1 1 -3.082557847026e-05   1.265889951344e-05  -2.327992010138e-05 
2 1 -1.662966415259e-04  -2.896830891600e-05   3.741945043434e-05 
3 1 -3.507491747695e-05  -9.730017202680e-06   1.355424094220e-05 
4 1 -2.598752813820e-05  -4.563057323164e-05   4.901733845641e-05 
5 1 -1.022212160477e-04  -2.149903895300e-05   2.582974488654e-06 
6 1  2.530268798281e-05  -6.139913357224e-05  -5.552100670826e-05 
7 1 -5.067015292842e-05  -3.979992892563e-05   9.761399723666e-05 
8 1  1.548589182501e-05  -5.510262893771e-05   1.707547207095e-05 
8
Step 36000
1 1 -4.609993799798e-05  -1.629264480368e-05   7.848651015492e-06 
2 1 -8.876807222466e-05  -9.282147563456e-06   4.516345777301e-05 
3 1 -7.394300798641e-05  -8.331937174080e-06  -7.383132018846e-05 
4 1 -8.189222028202e-05   1.412456885025e-05   5.174412595749e-05 
5 1 -7.345757462005e-05   4.769898762226e-05   4.675783890326e-05 
6 1  6.040729980050e-05  -8.455338868372e-05  -1.427236578089e-05 
7 1 -5.075559239133e-05  -2.817368680060e-05   1.083967187516e-04 
8 1 -5.365113184133e-05  -4.923722398562e-05  -2.745327133250e-05 
8
Step 37000
1 1 -2.040530498071e-05  -3.334916866126e-05   3.289296544973e-05 
2 1  2.501503377540e-05   1.234579673443e-05   2.979558263378e-05 
3 1 -8.509001815045e-05  -5.734994344867e-06  -1.320855481689e-04 
4 1 -9.981800125849e-05   6.915751475705e-05   2.291759930343e-05 
5 1 -2.449949746922e-05   1.193063312738e-04   6.730505684953e-05 
6 1  8.271111117035e-05  -6.150873293998e-05   3.333566868495e-05 
7 1 -2.548492875183e-05   1.181788554083e-05   6.205311938478e-05 
8 1 -8.458080595985e-05  -3.490651552851e-05  -4.929262328896e-05 
8
Step 38000
1 1  3.477676240814e-05  -3.797033249819e-05   4.960495727888e-05 
2 1  1.005512385962e-04   2.865422296050e-05   8.546151398132e-06 
3 1 -6.956665490222e-05  -2.192655008190e-05  -1.488991285760e-04 
4 1 -7.876072557032e-05   1.167348028939e-04  -3.232654182129e-05 
5 1  3.452123316964e-05   1.554218222218e-04   5.939014234449e-05 
6 1  7.333853114705e-05   1.372270571371e-05   6.392994481094e-05 
7 1  1.071707034482e-05   6.211465067360e-05  -2.898943022776e-05 
8 1 -6.999856012468e-05  -1.086523054769e-05  -4.537669247976e-05 
8
Step 39000
1 1  9.725682960711e-05  -2.457270587560e-05   6.067440247177e-05 
2 1  1.228245004315e-04   3.568759439341e-05  -1.991512534710e-05 
3 1 -1.666438501665e-05  -4.888496905311e-05  -1.098542092026e-04 
4 1 -3.926337573739e-05   1.412712404651e-04  -8.530083918247e-05 
5 1  6.291362652563e-05   1.247799431979e-04   2.689525931332e-05 
6 1  2.609796404722e-05   1.143235656447e-04   6.364979929487e-05 
7 1  3.969063118642e-05   9.687274614377e-05  -1.136482342325e-04 
8 1 -1.666382160477e-05   1.805340078166e-05  -2.302379635589e-05 
8
Step 40000
1 1  1.393679190233e-04   5.884404691793e-07   6.039543400277e-05 
2 1  9.426089184372e-05   2.699613586404e-05  -4.220365559898e-05 
3 1  5.661652831442e-05  -4.503905447221e-05  -4.914278437447e-05 
4 1  7.972383854729e-06   1.066004469560e-04  -1.104681924856e-04 
5 1  6.144207153935e-05   3.526185486515e-05  -4.484257961746e-05 
6 1 -4.141976828993e-05   1.747015143298e-04   4.044959273137e-05 
7 1  4.970038227871e-05   9.355485629546e-05  -1.437853953597e-04 
8 1  4.624960690408e-05   4.121721360105e-05   7.110620963492e-06 
8
Step 41000
1 1  1.243177067083e-04   2.377130346149e-05   3.702547457601e-05 
2 1  2.837271016110e-05   2.660193228400e-06  -4.686786545173e-05 
3 1  1.062788861069e-04   1.486985964198e-05  -2.438145842172e-05 
4 1  6.272066079555e-05   1.224150096043e-05  -9.292002373705e-05 
5 1  4.658926208673e-05  -5.928809880166e-05  -1.308634091745e-04 
6 1 -9.334855077622e-05   1.537132855524e-04   1.215195624469e-05 
7 1  3.632868872409e-05   4.024654319897e-05  -1.106814587020e-04 
8 1  8.062196012218e-05   4.947303342335e-05   3.848846954444e-05 
8
Step 42000
1 1  4.166647116979e-05   4.032427364643e-05  -1.160767453305e-05 
2 1 -4.532400817796e-05  -2.716963077173e-05  -2.933019431752e-05 
3 1  1.118634710004e-04   1.041694474248e-04  -1.035740483779e-05 
4 1  1.018702998321e-04  -7.908648356135e-05  -2.986734683510e-05 
5 1  2.076213634558e-05  -1.010622845819e-04  -1.610516117463e-04 
6 1 -1.124775071359e-04   5.740148186179e-05  -9.524947939339e-06 
7 1 -1.783851938584e-06  -4.790801161439e-05  -3.130537223071e-05 
8 1  6.512713079067e-05   4.691576419422e-05   5.513837749274e-05 
8
Step 43000
1 1 -6.329813240279e-05   4.667165723890e-05  -6.447317962496e-05 
2 1 -9.392671138105e-05  -6.129426979657e-05   2.192506055742e-05 
3 1  6.899910478653e-05   1.629083198193e-04   1.570116728969e-05 
4 1  1.060079027910e-04  -1.161405575953e-04   4.498915689760e-05 
5 1 -3.977338320746e-06  -9.279724896520e-05  -1.251820713806e-04 
6 1 -9.377372320028e-05  -4.591143059948e-05  -2.345911818607e-05 
7 1 -5.895653767308e-05  -1.132019830022e-04   4.625072465202e-05 
8 1  3.445089202324e-06   4.087354568749e-05   4.130550828443e-05 
8
Step 44000
1 1 -1.212214373840e-04   4.236214358706e-05  -9.044878865495e-05 
2 1 -9.866435111731e-05  -1.099649381741e-04   9.034426229919e-05 
3 1 -5.846491671009e-06   1.678064101929e-04   4.675902861170e-05 
4 1  7.641004813634e-05  -1.022767541030e-04   9.513934332251e-05 
5 1 -2.084706294398e-05  -5.711761942581e-05  -5.154038057383e-05 
6 1 -4.087236840552e-05  -9.332616903853e-05  -5.006425473631e-05 
7 1 -1.171827413998e-04  -1.168847263761e-04   8.458765923502e-05 
8 1 -7.120755304100e-05   2.939677558234e-05   1.616131169037e-06 
8
Step 45000
1 1 -1.162839108894e-04   2.839714749378e-05  -8.016607139510e-05 
2 1 -6.110547118301e-05  -1.439343089949e-04   1.352707653324e-04 
3 1 -7.367780007712e-05   1.165741720800e-04   5.858036740265e-05 
4 1  2.232440665833e-05  -5.391070520610e-05   9.469171150096e-05 
5 1 -2.799551096976e-05  -8.525366094327e-06   2.271893928047e-05 
6 1  1.677897915942e-05  -8.874764703429e-05  -9.111754494699e-05 
7 1 -1.461219647472e-04  -6.766969884915e-05   8.197580729657e-05 
8 1 -1.193887325503e-04   7.558903025592e-06  -3.326581761052e-05 
8
Step 46000
1 1 -6.222122437538e-05   7.316292981660e-06  -3.948837705922e-05 
2 1  7.430142215309e-06  -1.222236537093e-04   1.366589256026e-04 
3 1 -1.065826408018e-04   4.019713143194e-05   3.200331389416e-05 
4 1 -3.793121601875e-05   1.527740553951e-06   5.893167450116e-05 
5 1 -3.929333924937e-05   3.194199139096e-05   5.900805397267e-05 
6 1  5.109834165482e-05  -4.237723174272e-05  -1.180966743150e-04 
7 1 -1.234962128938e-04  -1.696484429451e-06   5.235923321978e-05 
8 1 -1.071070030123e-04  -2.542286863701e-05  -7.541461989288e-05 
8
Step 47000
1 1  1.061133223243e-05  -2.565506057582e-05   2.295647620338e-05 
2 1  7.846902198954e-05  -5.489864376518e-05   7.885528717035e-05 
3 1 -9.748476179250e-05  -5.632343602960e-06  -2.056608104914e-05 
4 1 -7.524227375029e-05   3.677342875455e-05   8.796812209967e-06 
5 1 -6.365457246392e-05   5.141566924798e-05   5.250022435678e-05 
6 1  5.575826594268e-05   1.502456751260e-05  -1.167177649377e-04 
7 1 -4.642205986285e-05   3.829952430627e-05   1.025406317247e-05 
8 1 -2.869396446252e-05  -4.709139719845e-05  -1.153982593039e-04 
8
Step 48000
1 1  6.687436929254e-05  -6.758477021189e-05   7.246849288451e-05 
2 1  1.066981153075e-04   2.614173975964e-05  -2.246466482077e-05 
3 1 -4.633991271669e-05  -1.860092692140e-05  -7.067042405008e-05 
4 1 -7.590362128739e-05   5.616930256241e-05  -3.469127186552e-05 
5 1 -9.044422928255e-05   4.991424025471e-05   2.286011842804e-05 
6 1  4.434473531782e-05   4.455890112480e-05  -7.574323987292e-05 
7 1  4.642212982364e-05   3.860747994018e-05  -2.860141134889e-05 
8 1  7.825228332144e-05  -6.097647903622e-05  -1.193481690547e-04 
8
Step 49000
1 1  7.768394624526e-05  -1.028146110833e-04   9.084651762647e-05 
2 1  8.317406789410e-05   8.595157810173e-05  -1.021142935996e-04 
3 1  3.580508202751e-05  -3.271096299987e-05  -8.753236387326e-05 
4 1 -4.342680496931e-05   4.859962027545e-05  -5.323358509295e-05 
5 1 -8.964436437010e-05   2.532198853801e-05  -2.010725128045e-06 
6 1  2.770027653238e-05   6.073496060005e-05   2.159369725926e-07 
7 1  9.067025744236e-05   1.014198877214e-05  -5.124331328215e-05 
8 1  1.378593433118e-04  -5.531546326922e-05  -8.916621968969e-05 
8
Step 50000
1 1  4.046617825874e-05  -1.120618910720e-04   7.781938856008e-05 
2 1  2.735077512136e-05   9.341031418552e-05  -1.159148168990e-04 
3 1  1.097161636108e-04  -3.816759062216e-05  -6.471554615105e-05 
4 1  8.869373056947e-07   1.534367963307e-05  -4.080818245305e-05 
5 1 -2.323465050800e-05  -1.229067455654e-05  -6.274900191412e-06 
6 1  1.461982466677e-05   5.423567077814e-05   5.299393224026e-05 
7 1  8.196888984884e-05  -1.854273760294e-05  -5.451270537808e-05 
8 1  1.283669674245e-04  -1.503929474060e-05  -2.944786816384e-05 
8
Step 51000
1 1 -1.384194532787e-05  -7.181641879622e-05   4.085474774950e-05 
2 1 -2.957282773280e-05   4.277771888695e-05  -8.339187955639e-05 
3 1  1.414199036388e-04  -2.321890934532e-05  -7.757899053984e-06 
4 1  3.886332049130e-05  -2.363722369673e-05  -1.123508148328e-05 
5 1  7.277219249408e-05  -4.467800091186e-05   8.118105709197e-06 
6 1 -6.928913792608e-07   1.800323587271e-05   6.692317844383e-05 
7 1  5.011285927684e-05  -2.329368139037e-05  -3.934819511768e-05 
8 1  7.569259476305e-05   4.956667265441e-05   3.436067916703e-05 
8
Step 52000
1 1 -5.625069894616e-05   5.154256556365e-06   1.757216080831e-06 
2 1 -5.442275161693e-05  -9.983868102603e-06  -3.145921282978e-05 
3 1  1.148685190470e-04  -5.464360070975e-07   6.802947661626e-05 
4 1  6.008642663035e-05  -4.659896085533e-05   1.505744781862e-05 
5 1  1.293707572445e-04  -5.978623227848e-05   2.570885062101e-05 
6 1 -2.259039859026e-05  -2.758540618914e-05   5.890740800117e-05 
7 1  1.567596644860e-05  -5.706396977458e-06  -7.091668456565e-06 
8 1  1.881083251955e-05   1.083219563731e-04   7.082670432451e-05 
8
Step 53000
1 1 -7.167653386552e-05   8.027527244536e-05  -3.336765499236e-05 
2 1 -5.001284707974e-05  -4.032702748158e-05   2.542231261896e-05 
3 1  3.355128647329e-05   2.425374633006e-05   1.231134694803e-04 
4 1  6.145785049471e-05  -5.090869258080e-05   2.595193010005e-05 
5 1  1.291400875125e-04  -4.829565086023e-05   3.258738995468e-05 
6 1 -5.021452471025e-05  -6.853212059661e-05   4.032372124343e-05 
7 1 -1.042640552733e-05   1.390182633770e-05   2.951874250183e-05 
8 1 -1.402073294402e-05   1.298689932880e-04   7.772668421625e-05 
8
Step 54000
1 1 -4.453599403462e-05   1.097151683202e-04  -5.689522936983e-05 
2 1 -2.907348973514e-05  -5.132094884414e-05   6.736648811683e-05 
3 1 -6.820736405366e-05   4.068619888794e-05   1.294969720473e-04 
4 1  3.817309177942e-05  -2.184328725356e-05   2.036385949237e-05 
5 1  8.087937701418e-05  -6.065753526129e-06   2.207538056102e-05 