8
Step 0
1 1  0.000000000000e+00   0.000000000000e+00   0.000000000000e+00 
2 1  0.000000000000e+00   0.000000000000e+00   0.000000000000e+00 
3 1  0.000000000000e+00   0.000000000000e+00   0.000000000000e+00 
4 1  0.000000000000e+00   0.000000000000e+00   0.000000000000e+00 
5 1  0.000000000000e+00   0.000000000000e+00   0.000000000000e+00 
6 1  0.000000000000e+00   0.000000000000e+00   0.000000000000e+00 
7 1  0.000000000000e+00   0.000000000000e+00   0.000000000000e+00 
8 1  0.000000000000e+00   0.000000000000e+00   0.000000000000e+00 
8
Step 1000
1 1 -2.583015363705e-04  -1.850115043286e-05   3.900377418391e-04 
2 1 -5.150051930824e-05   1.898543586066e-04  -3.542577630291e-05 
3 1 -5.514703186629e-05   9.033062828241e-05  -5.117232799274e-05 
4 1 -5.351997414110e-04   4.258454132635e-04   1.860433214662e-04 
5 1 -1.899339847136e-04   3.173077703076e-04  -2.995674583063e-05 
6 1  1.660506173682e-04  -2.479771230320e-04  -1.735082553505e-04 
7 1  2.019013355029e-05   1.707368796031e-04   3.056180187874e-04 
8 1  2.828040131671e-04  -1.074245573066e-04  -1.594762162290e-04 
8
Step 2000
1 1 -1.197062294778e-04  -1.270739305350e-04  -3.579881438045e-05 
2 1 -8.912579189077e-05   2.803057486130e-04   1.153774412751e-04 
3 1  8.141754182644e-05  -1.234762313248e-06   2.469180016291e-04 
4 1 -5.414999343481e-06  -1.405924348969e-04  -1.351655864932e-04 
5 1  9.574502082062e-06  -1.739333152748e-05   1.155196588819e-05 
6 1  5.037913480448e-05   1.019322542387e-04  -1.573332985822e-04 
7 1  8.154877943135e-05  -2.531464580873e-04   3.357590897819e-05 
8 1 -2.816625631942e-04   6.863643352018e-05   4.276282935195e-05 
8
Step 3000
1 1 -5.105333148879e-04  -4.822898040956e-05   1.662004133718e-04 
2 1 -2.550065897187e-05   3.411160702964e-04  -1.883609400254e-04 
3 1 -1.368530951024e-05  -5.973280260584e-05  -1.288308910466e-04 
4 1 -1.531837266126e-04   2.176531656990e-04   1.817620936698e-04 
5 1 -1.303342821347e-06  -4.013361391254e-05  -1.191406689339e-04 
6 1  4.250237097083e-05   1.015966028506e-05   1.318087961795e-04 
7 1 -1.489045768091e-04   1.100354217196e-05   3.472890548030e-04 
8 1  3.772369576254e-05  -2.812381182142e-05  -9.352207777771e-05 
8
Step 4000
1 1 -6.571391361074e-05  -3.830983009936e-04   4.116473629609e-05 
2 1 -1.524045173524e-04   2.796689894710e-04   1.030915477783e-04 
3 1  1.690729138223e-04   1.817270487449e-05   7.037551682073e-05 
4 1  1.139709864698e-05  -1.475363729214e-04  -1.833105237924e-04 
5 1  6.170703732501e-05   1.901672404157e-04   1.274264975070e-04 
6 1  1.850417753507e-04  -3.261924032704e-05  -3.258801827043e-04 
7 1  1.033037295340e-04  -1.172461504681e-04   1.172991588146e-04 
8 1 -1.950313698615e-04   8.783139802422e-05  -6.307129907714e-05 
8
Step 5000
1 1 -1.448702198878e-04  -5.183507602528e-05   7.959962670755e-05 
2 1 -1.863389201348e-04  -2.287792010669e-07  -2.841056914435e-04 
3 1 -7.128715503932e-05  -1.584609723946e-04  -4.383054138913e-05 
4 1  9.364341633013e-05   1.680526195681e-04   2.009892217445e-04 
5 1  1.341173855832e-05  -7.997332216302e-05  -2.449687472810e-04 
6 1 -1.641146292961e-04   1.229234881876e-04   1.918450993663e-04 
7 1 -4.775390021944e-06   4.230045361772e-05  -8.380499905633e-05 
8 1  1.444242610378e-04  -4.131432164443e-04  -5.005453940730e-05 
8
Step 6000
1 1 -1.941580799687e-05  -4.980929157015e-06  -2.251560196257e-04 
2 1  8.191594173107e-05   2.438560122805e-04   8.212158204448e-07 
3 1  2.094559311679e-04   3.184364334144e-05   6.112860824656e-05 
4 1 -1.609902748070e-04  -1.115775399726e-04  -1.569800038103e-04 
5 1  1.666702211688e-04   3.048960630740e-04   1.731955492278e-04 
6 1  8.599489962549e-06  -1.806443877272e-04  -2.151489677069e-04 
7 1  9.920198726096e-05  -1.043549495320e-04   1.095379733413e-04 
8 1 -3.177187492188e-05  -1.769325017229e-06   1.079536683753e-05 
8
Step 7000
1 1 -2.856188711120e-05   1.015065897202e-04  -1.772205495491e-05 
2 1  8.471058234953e-06   1.686341066316e-04  -1.115883231277e-04 
3 1 -7.890488106996e-05  -6.302035937541e-05   9.093934323034e-05 
4 1  1.765975981597e-04   1.378601619454e-05   6.577761324831e-05 
5 1  2.592270688603e-05  -6.137631655258e-05  -2.531825674266e-04 
6 1 -2.354833107557e-04   2.159426482970e-04   2.819501182420e-04 
7 1 -8.628909060154e-05  -1.640663204505e-04  -2.296283655309e-04 
8 1 -4.225954693467e-05  -1.668730272292e-05   2.216278247806e-04 
8
Step 8000
1 1  8.007496488637e-06  -1.571058711727e-05  -3.573214061970e-04 
2 1  1.363545998028e-04   2.995612619046e-04   8.736244969418e-05 
3 1  3.731057445890e-05   2.997866869835e-05   2.607111470882e-04 
4 1 -2.926525071846e-04  -2.030903098457e-04  -3.010554077697e-04 
5 1  3.190031650834e-05   2.688099797686e-04   6.881390401544e-05 
6 1  9.680756595201e-05  -2.215504185038e-04   7.453326450533e-05 
7 1 -7.187737225345e-05  -1.188885863051e-04  -1.517964765381e-05 
8 1  1.435630356420e-04   2.749426020979e-07  -1.889201672540e-04 
8
Step 9000
1 1  6.089241029962e-05   3.197696596793e-05   7.077273867731e-06 
2 1  6.775493003734e-05   3.546696782254e-04   3.570514108189e-05 
3 1 -3.638530752288e-04   1.847820633559e-05   3.390117350679e-05 
4 1  1.300917703519e-04  -1.533872566229e-05  -1.781515264805e-05 
5 1  2.422663002164e-04   9.507043905101e-07   1.046631460657e-06 
6 1 -2.230778245560e-04  -6.519905410952e-05   9.898166128669e-05 
7 1  1.189050704855e-04   1.008030728631e-04  -1.728768754921e-04 
8 1 -4.463545466967e-05  -8.350944026790e-05   1.000479700962e-04 
8
Step 10000
1 1  1.495119757502e-04   1.076803479805e-05  -1.378823200266e-04 
2 1  5.466358692996e-05   1.959915938112e-04  -3.400562965432e-05 
3 1  2.032631336335e-04  -4.092062247245e-05   3.105333201969e-04 
4 1 -2.201667413976e-04   5.249030757538e-05   2.008177518533e-05 
5 1 -1.368597797419e-04   3.209291951406e-04   6.357708505957e-05 
6 1  7.666070647560e-05  -2.749946957389e-05   5.315343734809e-05 
7 1 -1.414497855255e-04  -1.544643002762e-04  -1.615206601810e-05 
8 1  1.306044191150e-04  -2.479017851013e-04  -1.117600643998e-04 
8
Step 11000
1 1 -1.614418566963e-04   2.091179937789e-04  -1.033422975583e-05 
2 1  1.216239518487e-04   2.762673565318e-05   4.143010177239e-04 
3 1  4.970518662808e-05  -1.033134102499e-04   2.972952227780e-05 
4 1  3.405135034903e-05   3.467586466112e-05   8.069930398220e-05 
5 1  1.966320038712e-04  -4.720001595834e-05   1.161499681878e-04 
6 1 -2.405606175380e-04  -2.393771954333e-04  -2.271056730783e-04 
7 1  1.340899754918e-04   5.125171089765e-04  -2.312629356669e-04 
8 1 -4.611688499195e-05  -1.474399899983e-04   1.961013553463e-04 
8
Step 12000
1 1  2.360117465333e-04  -5.649490663273e-06  -2.101255795784e-04 
2 1 -3.671871882615e-04   2.793828901411e-04   2.746126805278e-05 
3 1 -4.078048343998e-05  -7.518778844332e-06   5.656209901819e-05 
4 1 -9.846134240202e-06   1.767539048347e-04  -1.446213807645e-04 
5 1 -1.724353185432e-04   7.433553487389e-05  -1.848246429711e-04 
6 1  2.315162167197e-04   1.748703628434e-05   1.868796220834e-05 
7 1  8.164544243146e-05  -8.054257532799e-05   9.756611229754e-05 
8 1  1.481289584087e-04  -6.097743724961e-05   1.100943643775e-04 
8
Step 13000
1 1 -1.171776684590e-04   9.661327677179e-05   2.145730884341e-04 
2 1  1.881831999067e-04  -2.062210889477e-04   1.709556165428e-04 
3 1  1.073569241607e-04   1.964379876886e-04  -1.278937735488e-04 
4 1 -2.239928995857e-04  -1.832698808304e-04   1.217322567477e-04 
5 1  3.006545313278e-04  -1.783227396191e-05  -5.302112685861e-05 
6 1 -2.247794892129e-04   4.548763309446e-05  -3.813627159020e-05 
7 1  2.602986837606e-04  -3.655605057245e-05  -4.331326301987e-06 
8 1 -1.224010463066e-04   6.942458844614e-05   3.973264761846e-05 
8
Step 14000
1 1  3.073517409728e-04  -4.948357596498e-05   1.413417755011e-05 
2 1 -1.463173403178e-04   2.122286010724e-04   3.221377569337e-04 
3 1 -2.163664780136e-04  -4.583721845513e-04   7.256979846922e-05 
4 1  2.035074119391e-04   2.855480749396e-04  -2.444428647813e-04 
5 1 -5.793447193491e-05   2.954558867074e-04   9.431489804891e-05 
6 1  7.443726093582e-06  -4.737387485353e-05   1.943185135636e-04 
7 1 -1.974285189267e-04  -1.225580809375e-04   3.995883625266e-07 
8 1  6.285105617115e-05   8.382371716340e-06  -2.213933760756e-05 
8
Step 15000
1 1 -1.728162422003e-04   1.189786277186e-04   2.337278634874e-04 
2 1  1.393020516412e-04  -1.469647259121e-04   2.675945558550e-06 
3 1  1.117593636459e-04   1.258942845176e-04  -1.710641850017e-04 
4 1 -2.038247744004e-04  -1.208016366296e-04   5.247276920525e-05 
5 1  1.792057764357e-05   3.474292989067e-04   5.712736265456e-06 
6 1 -1.630002852202e-04   9.869091323965e-05  -2.138792563809e-04 
7 1 -3.134246224320e-05  -2.473408633454e-04  -4.839924654747e-05 
8 1  7.091379046046e-05  -8.671473913553e-06   5.692020569996e-06 
8
Step 16000
1 1  2.191589537058e-04  -2.696748758320e-04  -1.815373195901e-04 
2 1 -1.353294238906e-04   1.739968202898e-04  -6.097514520137e-05 
3 1  1.065821569173e-04  -1.298732836763e-04   2.830986867163e-05 
4 1  2.993790852759e-05   7.087864909337e-05  -1.958288302062e-04 
5 1 -1.179127917398e-04   2.527909669718e-04   2.002108944249e-04 
6 1  8.367323161676e-05  -1.720702864573e-04  -1.821428381419e-05 
7 1  1.679335664595e-04   5.687203012619e-05   9.383485589020e-06 
8 1 -1.164770804043e-04   2.361484332083e-04   6.453963453518e-05 
8
Step 17000
1 1 -7.246940835730e-05   1.364511341570e-04   1.554236079256e-04 
2 1  1.644440454998e-04  -7.505928211455e-05   6.504202755776e-05 
3 1  9.199272117711e-05   2.342448608868e-05  -3.072096623433e-04 
4 1 -1.161218042095e-04   1.942275848225e-04   2.024162356041e-04 
5 1 -1.344880329295e-04  -3.291661118084e-04  -4.524213923776e-05 
6 1  4.934359287560e-05   1.655315657030e-05  -1.361250522318e-04 
7 1  4.715280695116e-05   8.427804712893e-05   4.479667992320e-05 
8 1 -4.425592546880e-05  -1.561525319293e-04  -7.284391653531e-05 
8
Step 18000
1 1  9.369266748107e-05  -5.168788873921e-05  -1.425457611429e-04 
2 1 -1.998907974798e-04  -2.225549551232e-06  -1.785755495192e-04 
3 1  2.316841139931e-05  -7.040289287754e-05   1.394518451379e-05 
4 1 -2.007264303184e-04   1.344158882393e-05  -2.823149793042e-04 
5 1  2.781155004188e-04   1.153625639181e-04   2.136078854712e-04 
6 1 -5.662798156776e-05   1.237407713611e-04   1.020089165870e-04 
7 1  1.154308229354e-04  -9.823881734345e-05  -1.766424012866e-05 
8 1 -4.317658386795e-04   5.245651389067e-06  -2.281404599061e-04 
8
Step 19000
1 1 -7.118190726148e-05   2.201312023773e-04   1.700310114527e-04 
2 1  1.049320102926e-04   1.041227605586e-04   2.392688242277e-04 
3 1 -2.008506470170e-04  -7.606667671428e-05  -2.311626005735e-04 
4 1  2.761671792649e-04   1.790753128866e-04   1.462796708791e-04 
5 1 -1.764749297235e-04  -2.572362533227e-04  -8.725871488003e-05 
6 1  2.262621575716e-04   1.700849812351e-04   2.077513226331e-05 
7 1 -4.993572520942e-05   3.090708754794e-05  -9.388530436046e-05 
8 1  6.545326387358e-05  -3.799727454841e-05   1.623294048964e-04 
8
Step 20000
1 1  2.099120749821e-04   2.580449154699e-05  -1.242164028333e-04 
2 1  3.932817434801e-05  -1.114062779097e-04  -2.512981183355e-04 
3 1  2.926730338678e-04   1.320402511895e-04   1.480002106262e-04 
4 1 -1.509233217231e-04  -1.162861157195e-04  -1.136617961401e-04 
5 1 -2.318622101262e-05   1.829667522419e-04   1.321784890254e-04 
6 1 -1.810641948011e-04  -2.068469654907e-04   4.323143337092e-05 
7 1  1.212232481168e-04  -2.432784802018e-04  -3.083942858795e-05 
8 1 -1.035964022539e-04   3.803616127828e-04  -9.477322054560e-05 
8
Step 21000
1 1 -1.058089210275e-04   1.251206642953e-04   1.407275147694e-04 
2 1 -1.991432532105e-05   6.527260647758e-05  -2.101637509200e-05 
3 1 -1.436028011943e-04  -2.059427790185e-05  -1.845901204576e-04 
4 1  7.666826592865e-05   1.484034432526e-04   2.305716419517e-04 
5 1 -1.009911079291e-04  -7.231240753476e-06  -4.874110942622e-05 
6 1 -7.103872749559e-05  -7.463239007920e-05   5.994868349369e-05 
7 1  4.617664753787e-05   1.270066155582e-05   1.361774201045e-04 
8 1  3.048822915814e-05  -3.352883491478e-05  -2.993814423200e-05 
8
Step 22000
1 1 -1.455649703654e-05   1.313571451396e-04   7.377211336753e-05 
2 1 -9.559178143494e-06  -1.493630962960e-04  -9.819535490131e-05 
3 1  9.502248509108e-05   2.364534465513e-04  -4.840175502903e-05 
4 1 -4.422862570408e-08   4.224416180502e-05   5.607043097395e-05 
5 1 -5.897900962039e-05  -1.368652292541e-04   1.203541592289e-04 
6 1  1.304758143068e-04  -7.267053062437e-05  -5.568665821313e-05 
7 1  1.647654828233e-06  -9.567423540265e-05  -1.415516825651e-05 
8 1  1.522585666923e-04   3.555583612477e-05   5.161959363821e-06 
8
Step 23000
1 1  1.332787457331e-04  -2.490873438892e-05   1.206890740994e-04 
2 1 -1.825425672119e-04   8.221190635430e-05   1.229250274808e-04 
3 1 -2.174269171369e-04  -6.125402743500e-05   9.122500783615e-05 
4 1  1.476637031421e-04  -2.396645832266e-04  -6.806207163398e-05 
5 1  1.942766042785e-04  -3.898737194542e-05  -4.350982742315e-04 
6 1 -1.759152057318e-04   3.632649648759e-04   3.634162942723e-04 
7 1  1.915859424065e-05  -2.734621234419e-04   1.542899446825e-04 
8 1  2.126582395499e-06   9.782225288216e-06  -1.164334892038e-04 
8
Step 24000
1 1 -2.750734033477e-04   1.526979119512e-04   2.022120096935e-05 
2 1  9.112410546983e-05  -1.836228164922e-04   8.539904875899e-05 
3 1  8.349760329338e-05   1.828932893330e-04  -1.620882543361e-04 
4 1 -1.635465656773e-04   1.005411230496e-04   2.291197898132e-04 
5 1 -2.210475388664e-04  -6.483217752799e-05  -3.420037978889e-05 
6 1  2.468652361632e-04  -3.115175263254e-05  -5.075094009088e-05 
7 1 -2.154536762921e-04  -8.858414889614e-05  -9.065142181907e-05 
8 1  5.026791792445e-05  -1.654601881496e-05   1.614549218597e-04 
8
Step 25000
1 1  5.128261772034e-05  -3.828336259577e-04   3.258941175157e-05 
2 1 -1.149127510206e-04   1.298664627739e-04  -3.042929129228e-05 
3 1 -8.993382607732e-05  -1.236796611745e-04   9.381792849467e-05 
4 1  5.121659086275e-05   7.933433770068e-05  -1.311919503690e-04 
5 1  1.208032190034e-04   2.879603988704e-04  -8.451682143494e-05 
6 1  1.801872044105e-05  -1.275839445294e-04   7.493884031746e-05 
7 1  1.728508646896e-04  -2.911251932519e-04   1.028672885124e-04 
8 1 -2.357237258972e-05   1.181088232233e-04  -1.465714660245e-04 
8
Step 26000
1 1 -6.381999993153e-05   1.843016362200e-04  -1.261327400066e-04 
2 1  2.525694048862e-04  -3.745636428845e-06   2.097817271851e-04 
3 1  1.251864260852e-05   1.468086126974e-04  -2.410785790989e-04 
4 1 -4.276246736681e-05   2.086276043530e-04   2.392422804700e-04 
5 1 -2.501751756170e-05  -1.943130033640e-04   3.618719957036e-05 
6 1  1.823848798552e-04  -3.702803470352e-05  -2.057556812099e-04 
7 1 -2.369371635761e-04  -4.644883999247e-05   3.907576031786e-05 
8 1 -1.742174534753e-04   8.087824134929e-05   2.133241080171e-05 
8
Step 27000
1 1  9.485679628248e-05  -1.602574981842e-04  -8.738741679072e-05 
2 1  1.021135990810e-05   1.371031216539e-04  -1.958772334662e-04 
3 1 -8.814314763809e-05  -2.302397264404e-04   1.905478174857e-04 
4 1  1.047892671598e-05  -1.202105516970e-04   1.037153120395e-05 
5 1  5.357427455258e-05   5.885501061518e-05  -1.493122661219e-04 
6 1  4.598172553284e-05  -1.007692930304e-04   1.851936984592e-04 
7 1  7.447111009896e-05  -6.041170297150e-05  -1.427672113998e-04 
8 1 -9.037588162286e-05   1.092008616915e-04  -7.083941058855e-05 
8
Step 28000
1 1  6.205649883463e-05   2.447292671332e-04  -1.639709973834e-04 
2 1  8.425544925555e-05  -9.555079011356e-06   4.122896515783e-05 
3 1 -9.946854796834e-06   1.484318686681e-04  -6.600986007653e-05 
4 1  1.350317398202e-05  -9.854245325283e-05   6.455463909654e-05 
5 1  1.998886021572e-04  -1.920561032831e-04   1.225077934085e-04 
6 1 -1.474634055529e-04   4.741904981945e-05  -1.888309145409e-04 
7 1  7.319826030232e-05   1.670030938472e-04  -5.754403591069e-05 
8 1 -1.784695717504e-04  -2.178065666067e-04  -7.745335900467e-05 
8
Step 29000
1 1 -8.862849601592e-05  -6.789463116294e-05  -6.759406887623e-05 
2 1  6.938725707732e-05   1.749154655811e-04  -4.506108607021e-05 
3 1 -4.317593294053e-05  -2.817942730964e-04   2.730514577120e-04 
4 1  2.046596283093e-04  -1.224710339320e-04   2.661372778656e-04 
5 1 -1.077935536645e-04   3.861441092777e-04  -2.660863226408e-04 
6 1  9.349691405422e-05   8.413804734286e-05   1.449981288380e-04 
7 1 -2.957053755797e-05   1.227683062652e-04  -2.906393031621e-04 
8 1  1.502169850092e-05  -1.440894884016e-05   4.517267400624e-05 
8
Step 30000
1 1  1.590408490166e-04   1.500925066937e-04   5.587416436797e-05 
2 1 -1.671797065399e-04  -5.240130212875e-05   4.664005151259e-05 
3 1 -1.068552607872e-04   8.863918283614e-05  -1.354911729245e-04 
4 1  3.818780937891e-04  -1.068237535100e-04  -5.159308628712e-06 
5 1 -5.777896644456e-05   2.012571506480e-04  -6.583408405616e-05 
6 1 -2.521627309132e-04  -2.488243753404e-04   2.581309977240e-04 
7 1  2.215838528743e-04   6.023157182985e-05  -3.823932130385e-05 
8 1 -2.985223209180e-04  -2.162264346773e-04  -9.201602359427e-05 
8
Step 31000
1 1 -1.521893140148e-04   1.864732158445e-06   1.784323675901e-05 
2 1  3.790851599802e-05   2.427258228615e-05   1.918709256174e-04 
3 1 -2.299636913613e-05  -1.647702816754e-04   1.698354409380e-04 
4 1 -2.312257695690e-05   1.885040571959e-04  -5.255313667845e-05 
5 1  1.708521448177e-05   1.738517780247e-04   2.168458011539e-05 
6 1  1.136853346322e-04  -8.099444894139e-06   2.721606920345e-05 
7 1  1.558315964603e-05  -2.091765317284e-04   2.058453348902e-04 
8 1 -1.193277698538e-04   1.892574592639e-04  -7.986993480165e-05 
8
Step 32000
1 1  2.044202242213e-04  -1.218512217954e-05   2.621442120552e-04 
2 1 -1.554224189132e-04   1.057714797095e-04  -2.188520845762e-04 
3 1 -2.413913186213e-04   1.431166784510e-04  -2.047012852547e-04 
4 1  3.364053793216e-04  -1.204258958122e-04  -7.078444348011e-05 
5 1 -2.174176290724e-04  -8.796414024926e-05  -1.398191608913e-04 
6 1 -7.617087940895e-05  -4.396472016666e-04   3.477017582420e-04 
7 1  1.474278108921e-04   2.651795340881e-04  -1.421340287145e-04 
8 1 -1.208001662346e-04  -6.194142197783e-05  -2.223310927195e-04 
8
Step 33000
1 1 -1.498115254192e-04   5.289073740905e-05  -8.512236465139e-05 
2 1  1.071487210395e-04  -1.332259199673e-04   1.917197753430e-04 
3 1  4.687257635549e-05  -2.715560863982e-05   2.943400995610e-05 
4 1 -3.338705062362e-06   1.309740833237e-04  -6.490418490341e-05 
5 1 -3.330822259992e-05  -1.916187845812e-04  -8.955801183004e-05 
6 1  9.199462437509e-05   9.620577214457e-05  -4.712975642553e-05 
7 1 -1.199545973087e-05  -5.531443675842e-05  -2.703605169401e-04 
8 1  6.653773564713e-06  -8.499219480104e-05   1.990058338863e-04 
8
Step 34000
1 1  1.425839656745e-04  -6.446163313938e-05   1.882227827133e-04 
2 1 -8.186926515450e-05   1.080121972243e-04  -2.224483729126e-04 
3 1 -8.346517634101e-06  -2.243553385553e-05  -6.690629521957e-05 
4 1  7.380791033365e-06  -9.450822032917e-05  -2.616308115275e-05 
5 1  4.663444669830e-05   2.372911370709e-04   1.958471703585e-04 
6 1 -3.903880153732e-05   3.654138759188e-06   2.284192730460e-04 
7 1 -1.573258053852e-04   3.994180965477e-05  -9.815066643083e-05 
8 1  5.036760701541e-05  -3.645142914331e-05  -5.822368946448e-05 
8
Step 35000
1 1 -2.949920191509e-04   7.844729489833e-05   8.971928623481e-05 
2 1  1.536800279483e-04  -2.073820332014e-04   6.930410622800e-05 
3 1  6.319854548217e-05   1.535289278382e-04   1.095150131589e-04 
4 1  2.845098468902e-05   4.686721106541e-05   1.660893980405e-05 
5 1 -1.238914254892e-04  -3.815332872980e-05  -2.766841104544e-04 
6 1  1.383567026213e-04   3.425956115305e-04   7.196544777498e-05 
7 1  7.359249440532e-05  -2.631946480571e-04  -7.474526596475e-05 
8 1 -3.337935092419e-04  -2.010917123549e-04   1.376617672792e-04 
8
Step 36000
1 1 -2.267081765687e-05  -1.194686050715e-04   2.408624668571e-04 
2 1  4.161472627973e-05   2.269613379618e-04  -2.098236719622e-04 
3 1  1.014647600825e-04  -8.664516550306e-05   1.484002476642e-04 
4 1 -2.989632137053e-04  -2.067257202868e-04  -3.160228061486e-04 
5 1  3.907100217936e-04   3.103772968266e-04   1.181547291538e-04 
6 1 -4.697629570699e-05   8.222002222316e-06   1.704355191495e-04 
7 1 -3.310983934544e-05  -2.155624807486e-05   7.880037259480e-06 
8 1  1.230421563381e-04   1.471729669784e-04  -7.760669170753e-05 
8
Step 37000
1 1 -9.489176004323e-05   5.916898881674e-05   1.868998417784e-05 
2 1  1.292773953254e-05  -1.586579170070e-04   3.294963926248e-05 
3 1  1.155437322885e-04   2.077316033676e-04  -4.690369288186e-05 
4 1  6.386044033464e-05  -3.135348841261e-05   1.303718368532e-05 
5 1 -2.726463506226e-04   7.842535331253e-05  -1.980673009946e-04 
6 1  1.387821318318e-04  -8.069245882127e-05   2.854009471784e-04 
7 1  2.426974202645e-04   9.682260183076e-05  -1.231030190972e-05 
8 1  3.794724811012e-05  -4.101086409359e-06   8.491782187727e-05 
8
Step 38000
1 1  9.495329188882e-05  -1.599409026659e-04   3.319837134120e-06 
2 1  9.771171846499e-05   1.653554030505e-04   3.864403631844e-07 
3 1  1.571757064406e-05  -8.427431001902e-05   1.903871540306e-05 
4 1 -7.951304561576e-05   3.111585905559e-04  -1.949362894006e-04 
5 1  1.579442952806e-04   2.576127129534e-04   2.356643547787e-04 
6 1  3.224805115559e-05  -2.899766678886e-04  -3.227862412593e-04 
7 1 -2.444312815656e-04  -2.633569731889e-04   7.546046429369e-05 
8 1  1.711639648445e-05   1.066711100504e-05   1.825830508042e-04 
8
Step 39000
1 1  1.122108649847e-06   2.534224491332e-05   8.128899208609e-05 
2 1 -4.632252383424e-05  -8.621825457191e-05  -2.076789515324e-05 
3 1 -1.569088469328e-05   2.657558463076e-04  -8.819594825278e-05 
4 1  8.519661315469e-05  -2.308564284908e-04   2.528738084798e-04 
5 1 -1.589741964872e-04   2.222618398269e-06  -1.820939896261e-04 
6 1 -1.029768857334e-04  -1.082115573713e-04   2.189767645772e-04 
7 1  1.397254129723e-04   2.804970957162e-04  -4.320038661435e-05 
8 1  2.291380244398e-04  -4.974765771905e-05  -2.065562221247e-04 
8
Step 40000
1 1 -1.016820642826e-04  -1.466034686382e-05  -1.154023265023e-04 
2 1  2.176562291851e-04  -3.714725159618e-07   6.800600708337e-05 
3 1 -3.228045257410e-04  -1.332596046237e-04  -1.034412852461e-04 
4 1  7.328638453017e-05   2.970184119841e-04  -1.862425815986e-04 
5 1  1.431129139726e-04  -1.956861097236e-05   1.283363523208e-04 
6 1  5.936986994441e-05   8.791422952901e-05  -5.759262298313e-05 
7 1  3.726466679962e-05  -1.655306513907e-04  -6.583515112264e-05 
8 1 -1.366235884427e-04  -1.001451745784e-04   6.547397151246e-05 
8
Step 41000
1 1 -1.637750153813e-05  -1.397087550857e-04   1.314476484325e-04 
2 1 -1.281199776479e-04   1.161295215303e-04  -8.285457329655e-05 
3 1  1.343350139922e-04   4.430341398969e-05  -1.095335427046e-04 
4 1 -1.899055289473e-04  -1.781558186807e-04   1.916678407252e-04 
5 1  1.983882719488e-04   3.242581458247e-04  -3.004953751249e-05 
6 1 -1.678022203762e-04  -2.682982969988e-04   5.915279789146e-05 
7 1 -1.332507607418e-04   6.281361742091e-05   7.295029698010e-05 
8 1  1.369790172941e-04  -6.641056439469e-05  -3.728446318571e-04 
8
Step 42000
1 1 -2.318291787247e-04   1.345630870456e-04  -2.168654915818e-04 
2 1  9.263904221534e-05  -1.826320315924e-04   3.197641824897e-04 
3 1 -1.149751160281e-04  -4.300311246711e-06   1.555999897945e-04 
4 1  3.446113468627e-04   1.151959059138e-04  -6.197487618704e-05 
5 1  1.298772607562e-04  -2.929687492761e-04   4.178152370516e-05 
6 1 -1.804139348705e-04   9.327241040183e-05   1.791749218219e-04 
7 1  1.329330768505e-04  -3.888185548562e-05  -2.197039313664e-04 
8 1 -9.765750797942e-05   2.575878470688e-05   2.330052740804e-04 
8
Step 43000
1 1  7.799247061593e-06   9.929710327756e-06   1.434319931592e-04 
2 1 -7.512201891424e-05   1.747071251890e-04  -8.632109418957e-05 
3 1  8.478076916878e-05  -1.145907052898e-04  -2.016748773783e-04 
4 1 -3.469260996253e-05  -2.468835992981e-04   1.563409307041e-04 
5 1  1.150017579324e-04   3.094644246683e-04   2.488920725566e-04 
6 1 -1.637529781093e-04  -1.150721630490e-04  -2.023985970147e-04 
7 1 -2.758853345305e-05   1.798714520348e-04   1.020251344438e-04 
8 1  2.357409346485e-04  -3.268671461873e-05   8.363136620039e-05 
8
Step 44000
1 1 -3.298430003314e-05   1.352826196788e-04  -1.008354487934e-04 
2 1  4.617003205857e-05  -1.372219324452e-04   2.017107872767e-04 
3 1 -1.172222171627e-04   2.330649478123e-04   1.366727351075e-04 
4 1  1.915158784907e-04   1.235282081729e-04   2.491762873743e-04 
5 1 -1.379830691593e-04  -8.397651398623e-05  -1.325595849689e-04 
6 1 -1.050274300892e-04   1.970332238451e-04   8.718871283539e-05 
7 1  1.565109419270e-04   8.547201943228e-05  -2.327310387143e-05 
8 1 -1.348206402148e-04  -1.330595364608e-04   4.728648746612e-05 
8
Step 45000
1 1  4.387659371526e-05  -1.397034997342e-04   6.342918271396e-05 
2 1 -1.112533047245e-04   1.087630298405e-04  -2.565954042536e-04 
3 1 -6.539756781915e-05  -1.759352975150e-04  -2.591715434629e-04 
4 1  1.113086432506e-04  -1.360523940289e-04   4.986197800310e-05 
5 1  1.941380867614e-04   2.986032783962e-04   9.083957584385e-05 
6 1 -4.659633727727e-05  -4.842887407647e-05  -2.754132513389e-04 
7 1 -3.277361908082e-05  -7.390649700487e-05   7.500804623133e-05 
8 1  1.229424645212e-04  -1.314163232783e-04  -1.233280155748e-04 
8
Step 46000
1 1  8.020949652304e-05   1.952639866432e-04  -1.906038628212e-04 
2 1 -2.155999688156e-04   8.484400790657e-05   9.399347321752e-05 
3 1  1.085634505201e-04  -2.225790464753e-04   2.267725662213e-05 
4 1  2.930815030381e-05   8.849217459478e-05   2.376375056654e-04 
5 1 -2.471302234305e-04  -4.694694256323e-05  -2.336846494905e-04 
6 1  6.007431114598e-05   9.947903389089e-05   4.649407743822e-05 
7 1  3.723979654127e-06  -1.049481643420e-04   8.318262242906e-05 
8 1 -2.775153419332e-05   3.460634893472e-05  -2.444774431741e-04 
8
Step 47000
1 1 -2.550347845371e-04  -1.593705361440e-04   2.367326890497e-04 
2 1 -6.262668990822e-06  -2.453454435358e-05   8.883447056190e-05 
3 1 -1.360278092364e-04   1.857424712926e-04  -1.494838949922e-04 
4 1  1.021051662202e-04  -1.791522874780e-04   1.249556195591e-04 
5 1  1.780367513856e-04   1.183103489293e-04   1.094904684118e-04 
6 1 -2.527807645756e-04  -9.395350873546e-05  -1.470819323088e-04 
7 1 -1.936380639885e-04  -3.679610780862e-05  -1.873675424295e-04 
8 1  1.292009420418e-04   2.190101183912e-04  -8.867248433766e-05 
8
Step 48000
1 1  2.056021936251e-05   2.333667264211e-05   1.319811238617e-05 
2 1 -1.954989612689e-04   9.725251561711e-05  -1.231196600077e-04 
3 1  2.036026402244e-04  -2.244651294287e-04   4.144334557472e-04 
4 1 -2.361446232587e-04  -3.934023456356e-05   3.094071725228e-04 
5 1 -1.649421118790e-04   5.064029615909e-05  -1.744266542173e-04 
6 1  5.665910011738e-05  -1.189423844323e-04  -1.840532646687e-04 
7 1  1.264343050002e-05   1.452973925410e-04   2.681643656218e-04 
8 1  7.031623775409e-05  -1.239779286987e-04   1.727934910700e-04 
8
Step 49000
1 1 -9.586762208521e-05  -4.822012254408e-07   5.165582943111e-05 
2 1  1.421137181413e-04  -1.487801620324e-04   2.519113275768e-05 
3 1 -2.258121248276e-04   1.123901559248e-04   6.944021094222e-05 
4 1  1.330275276105e-04  -9.194968846905e-05  -1.064451819130e-04 
5 1  1.548688522959e-05  -1.328990599107e-04  -1.831904098226e-04 
6 1  1.171448000965e-04   6.228904705954e-05   1.966547619217e-04 
7 1  8.808883351120e-05   1.301963945684e-05   4.405423924001e-05 
8 1 -2.710428305031e-04   1.256001007127e-04  -6.091131673514e-06 
8
Step 50000
1 1 -7.941501565761e-06  -2.423145546249e-05   2.391992201750e-05 
2 1 -1.278772901858e-04   9.447168556074e-05  -1.395436276438e-04 
3 1  1.684832339861e-04   5.589308162956e-05   1.723294468259e-04 
4 1 -1.270521214476e-04  -2.412820856497e-04   3.125418054142e-05 
5 1  1.074245726483e-04   1.566050858153e-04   1.285969758084e-04 
6 1  3.529774615617e-05  -1.874463667621e-04  -1.931267386014e-05 
7 1 -1.904885240179e-04   1.519829623401e-04   3.297896184791e-05 
8 1  5.865732990481e-05   2.827546077651e-05  -4.600216558998e-05 
8
Step 51000
1 1  6.516201006494e-05   1.408997246569e-04  -6.991531053277e-05 
2 1  2.909264757856e-04  -1.956127920610e-04   3.973463478458e-05 
3 1 -2.054834570828e-04  -1.032686386986e-04   1.031577731410e-04 
4 1  1.748568685053e-04   1.501563780896e-04  -1.617738768347e-04 
5 1 -2.008939337570e-04  -1.845101094168e-04   2.734338312833e-06 
6 1  1.237041022340e-05   2.497724371482e-04   4.325300636952e-05 
7 1  1.885903327172e-04  -2.216127724869e-04  -2.439614928013e-05 
8 1  1.192711297129e-04   1.671388134489e-04  -6.556457425150e-05 
8
Step 52000
1 1  2.806704779514e-05   1.742022228773e-05   5.971466110513e-05 
2 1 -2.482836672423e-04  -8.567129827334e-05  -1.281852525316e-04 
3 1 -1.605861852186e-05   2.727846508263e-04   1.688115457584e-04 
4 1 -9.330919550830e-05  -1.987403595870e-04   8.930147178526e-05 
5 1  9.392374091581e-05   1.550453463951e-04  -5.206616757288e-05 
6 1  1.621745287429e-04  -3.115321304819e-04   6.658159128101e-05 
7 1  1.401296537864e-04   1.493122695519e-04  -2.039750927172e-04 
8 1 -1.811835926703e-04   2.579317310815e-05   1.308538572670e-04 
8
Step 53000
1 1  1.239331994279e-04   4.868769772571e-04  -2.897484466425e-04 
2 1  7.874121631580e-05  -3.691249677803e-04   1.201933351907e-04 
3 1 -1.949140695187e-05  -1.535197235912e-04   2.222398855636e-04 
4 1  3.332190006626e-05   1.768312878594e-04  -1.527591823310e-04 
5 1 -1.928835681016e-05  -1.152266401543e-04   1.289814843484e-04 
6 1  5.403617222283e-05  -6.758966222410e-05  -2.131965223891e-04 
7 1 -2.377307815637e-04  -8.901696006588e-05   8.415977130289e-06 
8 1  5.123999726808e-05   1.053331031032e-04   1.043775006761e-04 
8
Step 54000
1 1  1.159598615666e-04   7.654478998230e-05   1.091136592608e-04 
2 1 -1.141436117045e-04   4.623211073364e-05   1.187464567356e-04 
3 1 -1.373049981913e-04   2.368641399659e-04   9.024732689139e-06 
4 1  3.484920283328e-05  -2.963698108102e-04   4.467138784629e-05 
5 1  1.406240633437e-04   1.117362590546e-04  -3.043792806354e-04 