8
Step 0
1 1 0.00000000000000000e+00 0.00000000000000000e+00 0.00000000000000000e+00
2 1 0.00000000000000000e+00 0.00000000000000000e+00 0.00000000000000000e+00
3 1 0.00000000000000000e+00 0.00000000000000000e+00 0.00000000000000000e+00
4 1 0.00000000000000000e+00 0.00000000000000000e+00 0.00000000000000000e+00
5 1 0.00000000000000000e+00 0.00000000000000000e+00 0.00000000000000000e+00
6 1 0.00000000000000000e+00 0.00000000000000000e+00 0.00000000000000000e+00
7 1 0.00000000000000000e+00 0.00000000000000000e+00 0.00000000000000000e+00
8 1 0.00000000000000000e+00 0.00000000000000000e+00 0.00000000000000000e+00
8
Step 1000
1 1 -1.22728371665743256e-06 -7.66826349598185979e-07 9.50199535292036240e-07
2 1 -1.08608382092871978e-06 2.38068207240221032e-06 -1.10031230794386865e-06
3 1 -2.09205036086991192e-06 2.55119380739765604e-06 -2.17287405672551326e-06
4 1 -2.60569933551505290e-06 2.03524307295437995e-06 9.63946629693590017e-07
5 1 -1.49078869217187722e-06 2.06077081128658717e-06 -5.05612636444439106e-07
6 1 7.47142159520090884e-07 -4.35661442082514491e-06 -6.08491212493405765e-07
7 1 -8.84584524782981107e-07 2.37528242033745551e-06 2.36652916689991136e-06
8 1 2.56080875058897704e-06 -6.57060681410484995e-07 -1.13102313599024665e-07
8
Step 2000
1 1 -9.66542655516429020e-07 -7.29936664046255628e-07 -4.94620994915594571e-07
2 1 -7.33592202366390494e-07 1.22821332174509284e-06 -9.85694202105446367e-07
3 1 -1.34906135236011216e-06 1.81634825848130065e-07 -1.70034639762854388e-06
4 1 -1.27308350405569731e-06 1.57916640376664555e-06 4.09437265931733672e-07
5 1 3.46274323461431099e-07 4.55651401836583876e-07 -1.36100822995741676e-07
6 1 -6.18550472068888562e-07 -3.08757693432840427e-06 1.09997437610700150e-06
7 1 -5.40913190345076956e-07 4.58857009087456281e-07 1.76813229866231445e-06
8 1 3.50451180192343193e-07 -1.67671551995983851e-06 1.88513099311544069e-07
8
Step 3000
1 1 -3.03894528160671368e-07 -4.39547469731606251e-07 -1.87486929885269351e-06
2 1 1.20487055848102961e-07 -5.38556596496564714e-07 -3.99326820332340281e-07
3 1 5.65127966382295839e-09 -2.05449380426237857e-06 -8.25978801042459942e-07
4 1 5.72561011189527594e-07 3.56962764595748986e-07 -6.85780272729567660e-07
5 1 1.95499475636925550e-06 -1.44367874396767766e-06 -4.99826551795567284e-08
6 1 -1.73244820878731150e-06 -3.09832910799059049e-07 2.56898676550856371e-06
7 1 -1.09959883717198611e-07 -1.47567609453534177e-06 4.15747231191717769e-07
8 1 -1.77332801186423714e-06 -1.65344467849532453e-06 5.54164167592451963e-07
8
Step 4000
1 1 8.21230127637610496e-07 2.38797727507281105e-07 -2.60698863134426991e-06
2 1 5.78506706306891921e-07 -2.03878198758742143e-06 7.58004735194264262e-07
3 1 1.25486133134340628e-06 -2.97598687157010218e-06 3.96820906853316006e-07
4 1 1.93508925522451709e-06 -1.05192450464164820e-06 -1.70014668884956175e-06
5 1 2.55326044247195241e-06 -2.70353154064434611e-06 9.29314653413334389e-08
6 1 -2.17365863626372575e-06 2.07760980251373311e-06 2.70347756811065509e-06
7 1 3.07878212894735249e-07 -2.49072608615121963e-06 -1.05293198638197787e-06
8 1 -2.80928092902796659e-06 -6.04697992314802048e-07 7.36625277075586010e-07
8
Step 5000
1 1 1.42830071713570622e-06 8.90171831764270689e-07 -1.90527664064980870e-06
2 1 4.83996278552301577e-07 -2.30392623590787242e-06 1.57872044164451897e-06
3 1 1.90851529831944009e-06 -2.50160386041341384e-06 1.47925306811509015e-06
4 1 2.28587666243058056e-06 -2.07323550411127043e-06 -2.19636365527748781e-06
5 1 1.98381529444165670e-06 -2.83527306173834442e-06 4.95674003183715206e-07
6 1 -1.72944100410030860e-06 3.09875911210688603e-06 1.66663634577681040e-06
7 1 5.94079326752512779e-07 -2.36560713677689428e-06 -1.94756051136706279e-06
8 1 -2.49015598476897706e-06 9.14170876655066999e-07 6.31224867555067556e-07
8
Step 6000
1 1 1.01486363850180565e-06 1.24273143874974453e-06 -3.37999813043656282e-07
2 1 -2.32982067126754238e-08 -1.25367282261397103e-06 2.01405964954994373e-06
3 1 1.98439629007720949e-06 -1.07161986083888585e-06 2.07977899836745922e-06
4 1 1.69692817717980100e-06 -2.26604231949008297e-06 -1.95261300783207055e-06
5 1 6.61216077485148918e-07 -1.82952791401557064e-06 1.07170561732978104e-06
6 1 -8.30238453754994508e-07 2.61157020527517552e-06 7.94037152026976703e-08
7 1 7.34852830736414932e-07 -1.40154322697031133e-06 -1.97971333641846388e-06
8 1 -1.17696921564141204e-06 2.06418865824256505e-06 1.40815986523204480e-07
8
Step 7000
1 1 -6.43984993749356953e-08 1.25841522956824324e-06 1.08233950551219896e-06
2 1 -7.60149697903607866e-07 2.91771552583236543e-07 2.05537160414166008e-06
3 1 1.54300025858103895e-06 6.72649789401786591e-07 2.12546123944260851e-06
4 1 6.14438641654967891e-07 -1.58434283271548530e-06 -9.66495564616392633e-07
5 1 -6.55963692871794107e-07 -2.24794661058452404e-07 1.56814163795310140e-06
6 1 1.11932342670176222e-07 1.06538065692415077e-06 -1.37097608665841433e-06
7 1 7.66918362632687582e-07 -1.56107266939173080e-07 -1.25309007896045354e-06
8 1 3.99718232235828082e-07 2.21792658992831695e-06 -7.43035555034061985e-07
8
Step 8000
1 1 -1.14879517534235196e-06 8.88955808343103270e-07 1.77411742321852167e-06
2 1 -1.12464997079019089e-06 1.46303126856481696e-06 1.24377996035435517e-06
3 1 6.25962119480315047e-07 1.84633085978878740e-06 1.61389215716049003e-06
4 1 -4.42054533920197109e-07 -3.00969467335169508e-07 3.64957857219773725e-07
5 1 -1.34134696523098565e-06 1.15256204179996061e-06 1.59022466560105865e-06
6 1 8.12885585968010634e-07 -5.88890064595755060e-07 -1.95820944421119380e-06
7 1 6.84462646743172724e-07 8.06602871280748510e-07 -1.68707996727223727e-07
8 1 1.51628210643601941e-06 1.23925372475196620e-06 -1.71067006796378239e-06
8
Step 9000
1 1 -1.80775150520633493e-06 6.59441296210928539e-08 1.78212139531445342e-06
2 1 -6.62827146736471891e-07 1.94430170357722553e-06 -4.80532518384018061e-07
3 1 -2.79687715784964287e-07 2.00774004579596169e-06 7.36006898917073316e-07
4 1 -1.02155463463255686e-06 9.76301029715436321e-07 1.41674294554084828e-06
5 1 -1.20576088005717571e-06 1.77765966618440961e-06 8.88696694694559534e-07
6 1 1.07941757747633058e-06 -1.66363891404872342e-06 -1.60439889845973906e-06
7 1 4.28641937134682412e-07 1.16935555796240118e-06 7.28368161288531929e-07
8 1 1.81083634838241486e-06 -4.67893757165781089e-07 -2.29251792734995504e-06
8
Step 10000
1 1 -1.76391478362896274e-06 -8.45242322922438331e-07 9.43820376053835063e-07
2 1 5.85797205005433283e-07 1.53926694223356295e-06 -1.94392103634375922e-06
3 1 -7.50364990951243516e-07 1.22123660836908918e-06 -2.03635809497330346e-07
4 1 -9.97315517661018612e-07 1.66535031367957754e-06 1.81184762098380771e-06
5 1 -4.99633549756836529e-07 1.57297420825456691e-06 -4.11871960050308421e-07
6 1 9.69081270575983880e-07 -1.83775067639795156e-06 -6.73328593325276785e-07
7 1 -2.58865729983459680e-08 9.69650601533814206e-07 1.05090410471741597e-06
8 1 1.30019747016731886e-06 -2.07312643242424731e-06 -2.06782228241141075e-06
8
Step 11000
1 1 -7.44427955736693244e-07 -1.45961556047383624e-06 -3.17488609688493634e-07
2 1 1.99882697193424254e-06 3.71014326516508840e-07 -2.38334690146660959e-06
3 1 -7.96391508173390308e-07 -2.08995472498241156e-08 -9.48788793382781948e-07
4 1 -5.72306611999972855e-07 1.56835520004214582e-06 1.55188272227582497e-06
5 1 2.55588874710544301e-07 7.53455904468965710e-07 -1.80695814046592572e-06
6 1 6.86902469944802254e-07 -1.04109269930839385e-06 3.67247315969411113e-07
7 1 -6.70657745908887023e-07 4.50292217115485411e-07 8.07094804739001166e-07
8 1 2.80797019072532397e-07 -2.79270564087186974e-06 -7.88173827351688035e-07
8
Step 12000
1 1 1.03232245789745691e-06 -1.63281356176432634e-06 -1.05904135772851624e-06
2 1 2.90078902445083861e-06 -8.39698357963216808e-07 -2.04169962741554832e-06
3 1 -7.75120406818695684e-07 -1.18994586133560764e-06 -1.36499067170966029e-06
4 1 -6.12077292827462393e-08 9.12759551897684235e-07 8.94834885409552194e-07
5 1 6.08072275802528419e-07 -2.40298465457033188e-07 -2.64282612233034626e-06
6 1 3.52488580552592740e-07 2.65412410369615373e-07 1.00773394432374128e-06
7 1 -1.44338462235814134e-06 -1.02361498674661934e-07 2.73436501096366943e-07
8 1 -7.36727976752300382e-07 -2.33393825337493274e-06 1.33987815151427787e-06
8
Step 13000
1 1 2.73059303870794178e-06 -1.40622680838201930e-06 -1.00106951821118204e-06
2 1 2.58863464472104439e-06 -1.39853332921238813e-06 -1.18861531450022633e-06
3 1 -6.92239181563955863e-07 -1.86059164195896886e-06 -1.41609245300706333e-06
4 1 2.56151467820070514e-07 1.09037824759666326e-07 1.61255368924576122e-07
5 1 3.96834639102479373e-07 -9.17538876592910882e-07 -2.46746956315234047e-06
6 1 1.22862331060573260e-08 1.31999009478189095e-06 1.00192027732580832e-06
7 1 -2.13574692652815629e-06 -4.89774239401228280e-07 -2.21130776545087147e-07
8 1 -1.33381179395056467e-06 -9.38749611657211464e-07 3.28297288007147649e-06
8
Step 14000
1 1 3.42108623873492348e-06 -8.77621325416603026e-07 -5.31234666048791915e-07
2 1 8.13409520185525767e-07 -1.27836072734847937e-06 6.14759233747070001e-10
3 1 -4.57036828193651640e-07 -1.74090672791388087e-06 -1.13493907834008671e-06
4 1 2.76859477730829094e-07 -5.29753941165333517e-07 -4.20370193205817846e-07
5 1 -1.56725846331971661e-07 -1.01411606534344846e-06 -1.24384068948771348e-06
6 1 -3.82222754722274604e-07 1.77218583022767589e-06 5.17570226885707328e-07
7 1 -2.31516299170419988e-06 -6.17602982252423484e-07 -4.37790444546175818e-07
8 1 -1.33561545256296998e-06 6.80086157314789557e-07 4.07777905780432883e-06
8
Step 15000
1 1 2.65615664574283502e-06 -1.98433002926859392e-08 1.06948562954051589e-07
2 1 -1.57096329070415575e-06 -6.88557314607866223e-07 9.59480423350850905e-07
3 1 -1.59038865050810660e-07 -7.93514091190434163e-07 -5.25510840236221529e-07
4 1 4.34326161615334174e-08 -8.43588368641620689e-07 -6.96282116756649805e-07
5 1 -6.61555678299646582e-07 -6.61463591797623079e-07 5.90852880669458940e-07
6 1 -5.83808425041953319e-07 1.34448470197120320e-06 -1.01216951713597815e-07
7 1 -1.72859536472270521e-06 -4.59868142829380024e-07 -3.54627933840198516e-07
8 1 -7.78893557710705953e-07 1.68465832870013940e-06 3.57215664112867873e-06
8
Step 16000
1 1 9.35513348002924394e-07 1.03952743336690444e-06 7.34486669053412675e-07
2 1 -3.13068338493894557e-06 6.54715474065049717e-08 1.16234117568873122e-06
3 1 7.52151128598920835e-08 4.59122993084126573e-07 3.54267208057325858e-07
4 1 -3.21568281874612285e-07 -7.53454588751808637e-07 -5.82187968299195213e-07
5 1 -7.28349580163183590e-07 -5.59628182086068088e-08 2.22795018224686946e-06
6 1 -5.31821754682837586e-07 9.11966477395543487e-08 -5.44014713157925914e-07
7 1 -5.14282766737598883e-07 -1.28338531574617425e-07 -1.04005879792978199e-07
8 1 2.13890811373515241e-08 1.76337257875095376e-06 2.22459521371183352e-06
8
Step 17000
1 1 -1.01987663137366944e-06 1.74225243015597863e-06 8.21996018479220732e-07
2 1 -3.34756984396861682e-06 7.10266344516044969e-07 9.30409288594946349e-07
3 1 3.66231285086264344e-07 1.47913502985612295e-06 1.34320185074505341e-06
4 1 -4.37994247081389669e-07 -3.82154949718770054e-07 -2.60122416802686701e-07
5 1 -1.65947306016294368e-07 5.12959375013082654e-07 2.89158971890663501e-06
6 1 -3.30051776960222388e-07 -1.22834185840639367e-06 -6.09778652348773789e-07
7 1 8.83638885604543530e-07 1.85142588411230307e-07 1.59018581017521583e-07
8 1 6.90966797335112784e-07 1.22392381234856976e-06 8.43019844740600826e-07
8
Step 18000
1 1 -2.27710020641004937e-06 1.80127908347521603e-06 3.82050536723228436e-07
2 1 -2.22696326387161750e-06 8.40208909202106552e-07 4.39088897763817643e-07
3 1 6.37792030122912475e-07 2.02774029681205698e-06 1.97164587168189028e-06
4 1 -3.28154130229629292e-07 1.76877785147055420e-07 1.54357324373286858e-07
5 1 7.28455035235821214e-07 7.24387930307954550e-07 2.31172283043435707e-06
6 1 -6.55882271326722340e-08 -1.93590676354158189e-06 -3.31498511673122759e-07
7 1 2.00438867059965317e-06 4.06940500206409042e-07 3.34665613769954682e-07
8 1 1.01438771671044390e-06 6.10730417906793710e-07 -9.12918711645425323e-08
8
Step 19000
1 1 -2.40211513751848073e-06 1.35478761308443944e-06 -1.25272821109048185e-07
2 1 -1.28244129998686082e-07 4.53124944153664388e-07 -3.19189759289213432e-07
3 1 6.90831791504592387e-07 1.84566016961851108e-06 1.81100874622000312e-06
4 1 -9.16212392197390511e-08 7.91879098972644523e-07 4.64920362072508508e-07
5 1 1.35747123556762523e-06 4.88015244324175448e-07 8.13409678981830484e-07
6 1 2.33270687915271590e-07 -1.82379247956321523e-06 1.13699541584326931e-07
7 1 2.36215296990929112e-06 5.06854545859768338e-07 3.42996064091384271e-07
8 1 9.32615588826605456e-07 2.91102608893001945e-07 -6.79849726164342393e-07
8
Step 20000
1 1 -1.45199432337690539e-06 4.36608303772443995e-07 -6.34680292094328994e-07
2 1 1.74357815234027227e-06 6.92839529110951192e-08 -7.54213830050618264e-07
3 1 4.22192201502340288e-07 8.78086769442483105e-07 8.55737337969978654e-07
4 1 2.45322886498829153e-07 1.15770624020786858e-06 4.63093663926218351e-07
5 1 1.31823282020774667e-06 2.97860382827018900e-08 -8.59356034701069424e-07
6 1 4.09203450445816369e-07 -8.56391142867202728e-07 3.84691063808765035e-07
7 1 1.93162593488911028e-06 3.27663269042451660e-07 1.59342436513841941e-07
8 1 5.00860906541429711e-07 2.32914655800083457e-07 -1.05273409094769910e-06
8
Step 21000
1 1 -1.49644259959334428e-07 -4.39160951493131443e-07 -8.13005293222807064e-07
2 1 2.54094006010710959e-06 -2.34236840314858541e-07 -8.14871224899399737e-07
3 1 -3.84749038741674733e-08 -3.69346612189771433e-07 -5.12199539947914852e-07
4 1 5.70757047196161970e-07 1.02357753060333950e-06 1.67424397206321756e-07
5 1 5.81246692011823956e-07 -4.67568568171577949e-07 -1.92387168605080494e-06
6 1 3.82671168944579141e-07 4.87242283093925297e-07 2.90260146208657732e-07
7 1 1.04319462775322396e-06 -6.37742705003200868e-08 -1.18678319778366876e-07
8 1 -6.12033347629303737e-08 1.68314214483366541e-07 -1.13194211380956942e-06
8
Step 22000
1 1 7.48954905190207546e-07 -8.23094683969874100e-07 -5.43303748060644586e-07
2 1 2.24160563905901922e-06 -4.69212582637723906e-07 -5.90863498404698229e-07
3 1 -4.16055417020518823e-07 -1.38352734634194747e-06 -1.72219035981473227e-06
4 1 7.11541553643343599e-07 3.40545701945787815e-07 -2.21834542973019073e-07
5 1 -5.21085820626465985e-07 -7.67302846482865104e-07 -1.97930177525875462e-06
6 1 1.45150318589525867e-07 1.58806861637533953e-06 -9.23248081013265607e-08
7 1 4.43680472466950396e-08 -4.53911406853296529e-07 -3.47230361342032227e-07
8 1 -4.52201318530983940e-07 -8.57052420324028648e-08 -8.07135520941908010e-07
8
Step 23000
1 1 9.72006111027627893e-07 -7.67593178950137709e-07 -8.98748973295087066e-08
2 1 1.03143157551882702e-06 -2.90494861875000606e-07 -8.62509012213338722e-08
3 1 -5.65100504268245090e-07 -1.90899966407720399e-06 -2.22184490543903306e-06
4 1 6.93231810233281419e-07 -7.27794507322313955e-07 -5.23548536785441724e-07
5 1 -1.45679355382782328e-06 -6.84470282350553431e-07 -1.16235774818101065e-06
6 1 -1.65581992497084148e-07 1.99616040778340055e-06 -4.70262099072478777e-07
7 1 -7.42989799111827272e-07 -6.41072744719220239e-07 -4.12833287077798425e-07
8 1 -4.81472292429218103e-07 -5.57179597385335971e-07 -1.63348876142901780e-07
8
Step 24000
1 1 7.07274067132518135e-07 -5.54521332621155868e-07 2.51574733839936861e-07
2 1 -5.52170335670504132e-07 2.15384782746286633e-07 4.65083313897489568e-07
3 1 -5.03420062806596287e-07 -1.78765329510989526e-06 -1.85210607521553593e-06
4 1 4.95239203891804939e-07 -1.70900342201049917e-06 -4.86961777402869941e-07
5 1 -1.75609515549791467e-06 -1.90480188129926585e-07 3.12255744172838474e-08
6 1 -3.85389992867668744e-07 1.66224484712732397e-06 -5.07824930060236583e-07
7 1 -1.14803440258396878e-06 -5.35612161153104878e-07 -2.88580406935104254e-07
8 1 -1.88807978087908896e-07 -1.05883447129564322e-06 5.22872122508256499e-07
8
Step 25000
1 1 1.69772149848950449e-07 -2.83255081322209752e-07 4.41090140542993243e-07
2 1 -1.61157604012979368e-06 5.20179532865782855e-07 7.33389147800628837e-07
3 1 -2.22498753971904255e-07 -1.04040452552831947e-06 -8.02782283933049106e-07
4 1 -8.77465002016078548e-09 -2.09496192232112374e-06 -1.19159022462828665e-07
5 1 -1.28311019689576506e-06 5.63519459213214448e-07 1.00728541864799473e-06
6 1 -4.10360956747292068e-07 8.01356239267539313e-07 -8.14437837135191720e-08
7 1 -1.21135508879392026e-06 -1.34693332150500722e-07 -2.50280537115558254e-08
8 1 1.48268033584691228e-07 -1.30147766472229086e-06 9.51315907331025029e-07
8
Step 26000
1 1 -2.79357492024757121e-07 -4.27305118547597012e-08 4.84321419958192519e-07
2 1 -1.79262810304920709e-06 4.58078889154763907e-07 6.84530329892764870e-07
3 1 9.60160362554868976e-08 2.31359539434071163e-09 4.51573431200495152e-07
4 1 -6.43255086796977608e-07 -1.63228400537986709e-06 3.36457331187535731e-07
5 1 -2.76827142953698516e-07 1.25266546599772696e-06 1.35638525008651162e-06
6 1 -2.14088858502537203e-07 -1.85510397093619781e-07 5.87194584040685862e-07
7 1 -1.05442219957186664e-06 4.32707215748215301e-07 2.62760860992709486e-07
8 1 2.26457182556279173e-07 -1.15570136034573774e-06 9.40093172734572291e-07
8
Step 27000
1 1 -3.01987935151044655e-07 6.41834070505734856e-08 4.05618699864609563e-07
2 1 -1.21580139552038099e-06 1.07814288418146008e-07 3.31045705866611558e-07
3 1 2.00760007196116640e-07 8.98607134277201277e-07 1.35275288493640992e-06
4 1 -1.18133777883471100e-06 -3.27612447597625991e-07 7.67374378963667340e-07
5 1 7.88927086705621196e-07 1.47583001156258281e-06 1.00444032122924154e-06
6 1 1.39506625296521455e-07 -9.74538927913534366e-07 1.02207662766404413e-06
7 1 -7.32244588404811568e-07 8.74117133349670048e-07 4.17646860782898236e-07
8 1 -9.23898913174532021e-08 -5.94712988660224591e-07 5.49294454360716367e-07
8
Step 28000
1 1 3.69298220458128258e-08 9.99550043234459485e-08 2.85353264893686707e-07
2 1 -1.44385938493326937e-07 -4.73188029356037026e-07 -2.14015870464155110e-07
3 1 2.43179144561104988e-08 1.38860828267933875e-06 1.51527165438931943e-06
4 1 -1.52178660373603583e-06 1.29382624262169795e-06 8.94503687701982370e-07
5 1 1.46040737206317456e-06 9.87474150692119839e-07 2.06777775558653147e-07
6 1 5.56653751962354206e-07 -1.37430642602175258e-06 1.07309707193683454e-06
7 1 -2.66720282306495285e-07 9.05911058267585083e-07 3.34087850247589350e-07
8 1 -6.93724708657197484e-07 2.45345579951876105e-07 -7.75645936112389852e-09
8
Step 29000
1 1 4.44804138431415044e-07 1.63919327567344860e-07 1.81250323923332106e-07
2 1 8.91090671338297090e-07 -1.01754518090652091e-06 -6.69044161784064168e-07
3 1 -2.28686668741298991e-07 1.38309872479463588e-06 1.03903198641492027e-06
4 1 -1.45036521049307643e-06 2.46646775850563140e-06 4.82750748750274698e-07
5 1 1.45916737974376256e-06 -1.74623431311828870e-07 -5.90036220548328956e-07
6 1 7.96997705217405819e-07 -1.32322128146478720e-06 6.28273642557208213e-07
7 1 2.86403855891323379e-07 4.69513490437964560e-07 5.85763697111928670e-08
8 1 -1.16502320453858014e-06 1.00415643605497117e-06 -4.89741013697422641e-07
8
Step 30000
1 1 6.32576399429106816e-07 2.93787126310622271e-07 1.20474246895010551e-07
2 1 1.38309675156804095e-06 -1.17838478967661013e-06 -8.00908835487007733e-07
3 1 -2.99033196949586453e-07 9.61185710844028358e-07 2.74905932237137969e-07
4 1 -7.47417041529936335e-07 2.68297554667150824e-06 -3.49180422518792966e-07
5 1 8.19239637419757053e-07 -1.59384171964552860e-06 -1.00715941092322589e-06
6 1 6.28665099798968632e-07 -9.47545993232834330e-07 -3.01542056819692027e-07
7 1 7.90877021715460453e-07 -2.96360132990059374e-07 -2.73200561518004277e-07
8 1 -1.02908730848790743e-06 1.37258662801049726e-06 -6.78437530539683567e-07
8
Step 31000
1 1 4.32477806858838576e-07 3.80958927698807227e-07 -3.64993011050403786e-08
2 1 1.17090558025559071e-06 -7.76290684766753035e-07 -5.84136498857255990e-07
3 1 -4.54356066180728055e-08 3.02651899242428062e-07 -3.94305350569256442e-07
4 1 4.11673678083973874e-07 1.85909794851532117e-06 -1.16653619632876269e-06
5 1 -1.05560699972878745e-07 -2.55843237277277108e-06 -8.78078540607575446e-07
6 1 2.22215174571460046e-08 -4.55214790067636133e-07 -1.29858545825217963e-06
7 1 1.07232730149704647e-06 -1.06421110631459266e-06 -4.85195434874909527e-07
8 1 -1.21420865901339511e-07 1.24307056756890890e-06 -4.80695585058985662e-07
8
Step 32000
1 1 -1.24319618319198683e-07 3.22287361597644655e-07 -3.56536891414694242e-07
2 1 4.63834329970468013e-07 3.06146477916000438e-08 -7.76929541035575978e-08
3 1 4.73353376556578419e-07 -3.26528824503844018e-07 -6.48216648016690288e-07
4 1 1.51356515690643031e-06 2.82597205708796510e-07 -1.70253348306229421e-06
5 1 -8.91609538175151742e-07 -2.48856192304406629e-06 -3.12526135531231340e-07
6 1 -7.93126008516771499e-07 2.57851645499495992e-08 -1.76487949988362445e-06
7 1 9.87113911477163731e-07 -1.40781797126396020e-06 -3.98457976525775637e-07
8 1 1.18484954531064670e-06 6.88165254758548170e-07 -2.30233959198271215e-08
8
Step 33000
1 1 -7.86896622319015121e-07 9.31640777896831929e-08 -7.51485061530003806e-07
2 1 -3.96741683048936648e-07 8.18152487481680293e-07 5.54940090563698230e-07
3 1 1.00140586937550015e-06 -7.67320877670505428e-07 -4.46050663088906295e-07
4 1 2.19441410732326943e-06 -1.37795022924128195e-06 -1.59764412043711571e-06
5 1 -1.21837020695489961e-06 -1.24055581464421413e-06 3.52699557668701181e-07
6 1 -1.51036401885187215e-06 4.83835134833753165e-07 -1.46177724285759286e-06
7 1 5.02559372515352070e-07 -1.06580030732839677e-06 3.29849785609490253e-08
8 1 2.16726190615002062e-06 -5.38108056329607871e-08 4.28657910368067490e-07
8
Step 34000
1 1 -1.17856956620215962e-06 -2.24543045331932233e-07 -1.01384593648363434e-06
2 1 -9.88852159852035485e-07 1.18942097482824751e-06 1.08864056416745145e-06
3 1 1.24791344687732985e-06 -9.37838598632500872e-07 9.12112157090317663e-08
4 1 2.16283447163279594e-06 -2.43155227787160891e-06 -6.42045416138580258e-07
5 1 -9.08564103180506094e-07 7.30228661683587678e-07 7.93385073331323350e-07
6 1 -1.86756887731814535e-06 7.57775057569400868e-07 -7.40132146675905028e-07
7 1 -2.36553994787820017e-07 -8.25374707862596873e-08 6.86182709945538803e-07
8 1 2.21930587419505178e-06 -6.48134155313631000e-07 6.31802049668764753e-07
8
Step 35000
1 1 -1.09262058827765874e-06 -5.00150808259036289e-07 -1.01679449233236268e-06
2 1 -1.03455612339737363e-06 1.02366336703302881e-06 1.24056501890009573e-06
3 1 8.79362983000383152e-07 -7.98827429408930518e-07 5.68190026709218089e-07
4 1 1.36744442566470691e-06 -2.49212635842940117e-06 8.91765312854546803e-07
5 1 -1.78631540951664472e-07 2.43756308020802756e-06 8.17380678490921981e-07
6 1 -1.31495006679958897e-06 7.36556721269003360e-07 2.05187770847639380e-07
7 1 -9.23584530023011063e-07 1.11416466228877851e-06 1.23661535655761593e-06
8 1 1.24085077393933719e-06 -8.46797169620608427e-07 4.46009784579741449e-07
8
Step 36000
1 1 -4.69240796032559643e-07 -5.57963402450682416e-07 -6.31961304867164453e-07
2 1 -6.00409978582158109e-07 4.47408946555285044e-07 9.03693205439776800e-07
3 1 -1.55731954253717866e-07 -4.54677579086566607e-07 5.70116508973197880e-07
4 1 7.72167994395804084e-08 -1.59471974941710032e-06 2.34602584067151988e-06
5 1 5.45871085944167478e-07 3.08752709689889224e-06 3.68568935615743109e-07
6 1 4.59541361145185217e-07 5.54723923356690150e-07 1.13486777227875528e-06
7 1 -1.23313167644311176e-06 1.86262504863369286e-06 1.22978052977345422e-06
8 1 -2.69792689080559500e-07 -6.11378841845264015e-07 -1.11889142091955554e-07
8
Step 37000
1 1 4.78792414971196526e-07 -2.82970941502076104e-07 1.93687723054468726e-07
2 1 8.89209261800656807e-09 -2.20413832268667870e-07 1.70847142072042806e-07
3 1 -1.37437416295654097e-06 -3.10301940276925076e-08 -2.43542858598635996e-08
4 1 -1.15910713074086634e-06 -1.42128675561416456e-07 3.04887887300055572e-06
5 1 1.01240581008653494e-06 2.43287475123610326e-06 -3.32881466841333816e-07
6 1 2.72521090835306699e-06 3.36016345040007209e-07 1.60082691908101607e-06
7 1 -9.74350025480113122e-07 1.70387833759420884e-06 4.21290145995438287e-07
8 1 -1.52917047087726454e-06 -1.26561954165523536e-07 -8.31407439909553911e-07
8
Step 38000
1 1 1.27175774869636980e-06 3.30919971744758485e-07 1.20152588090841967e-06
2 1 5.24895125475181612e-07 -5.56909595905603464e-07 -7.56757292252921687e-07
3 1 -2.01035702890815720e-06 3.39289472358140254e-07 -9.51248223103889554e-07
4 1 -1.82292616613784359e-06 1.23398866806061065e-06 2.61411581545982959e-06
5 1 1.01092364121180189e-06 7.53419245187543252e-07 -7.88448644847501569e-07
6 1 4.15175471121306472e-06 2.08641018765683143e-08 1.39429950844358845e-06
7 1 -1.40787584468101909e-07 5.77104691544940681e-07 -1.03900750388688662e-06
8 1 -2.02277206595668277e-06 4.23050261732033097e-07 -1.38199253850334054e-06
8
Step 39000
1 1 1.37649171066940047e-06 9.45252666348335848e-07 1.91248742839047926e-06
2 1 7.70368390054981933e-07 -4.65906266125989509e-07 -1.62783774577521590e-06
3 1 -1.77221461240436338e-06 5.77566224837877226e-07 -1.54895499941154942e-06
4 1 -1.73299117354026814e-06 2.00007941035658370e-06 1.07915955330484748e-06
5 1 3.85148646858557350e-07 -1.03981175125564507e-06 -7.02374031550216899e-07
6 1 4.07169364288603451e-06 -1.99772182244677559e-07 7.58027345788069577e-07
7 1 9.37240322362504211e-07 -1.05353462480068455e-06 -2.62299521627810689e-06
8 1 -1.45911225061643681e-06 7.15169345184109517e-07 -1.35480917145749695e-06
8
Step 40000
1 1 8.10439753944829889e-07 1.12143487856825923e-06 1.97441722269120102e-06
2 1 6.92770821337661945e-07 -1.58271082792764639e-07 -1.95223120408949817e-06
3 1 -9.93251925058487491e-07 5.63441793546919288e-07 -1.42610090256330770e-06
4 1 -1.14440483729574206e-06 1.82506475529684466e-06 -8.80235328271450229e-07
5 1 -5.49529613756017825e-07 -2.05337866200528802e-06 -2.43569426772630882e-07
6 1 2.81456747982965733e-06 -7.93755240876949119e-08 6.22849232938753449e-08
7 1 1.64015739356728730e-06 -2.20500366904604189e-06 -3.46002987603506999e-06
8 1 -3.28041311492204978e-07 4.61814934868787065e-07 -4.89884436411238560e-07
8
Step 41000
1 1 -3.02173605717724063e-08 6.50199943865887627e-07 1.32691013201868138e-06
2 1 2.67679724600663492e-07 1.51510966862379062e-07 -1.58499549460460918e-06
3 1 4.04883667514150717e-07 4.32089246108529714e-07 -5.55501095975495625e-07
4 1 -3.23277123915023977e-07 9.21044033793682272e-07 -2.38488998982085225e-06
5 1 -1.31437808678644424e-06 -2.33461855030018701e-06 4.47112181891154743e-07
6 1 5.07985502517060119e-07 2.38246617501256327e-08 -4.41882596546437819e-07
7 1 1.67666209357638919e-06 -2.08329404925976630e-06 -2.75030353424751326e-06
8 1 7.42899117759075234e-07 -1.56598805604940415e-07 9.57375076612716680e-07
8
Step 42000
1 1 -7.50889318477936948e-07 -3.17894366547856363e-07 2.36930830320719640e-07
2 1 -1.85898412205617884e-07 2.30474552073384996e-07 -8.62603875186091639e-07
3 1 1.85577190112423783e-06 1.82205564468329298e-07 1.07078113461396224e-06
4 1 3.99131295850047101e-07 -2.93160159561258226e-07 -2.97143724910027976e-06
5 1 -1.35167374392711764e-06 -1.68187368645757121e-06 1.29660565693417165e-06
6 1 -1.97634703987951591e-06 -3.74560398483811562e-10 -6.93464352255946121e-07
7 1 1.13656567839954720e-06 -1.10065976878033849e-06 -8.66840527348953597e-07
8 1 1.37953920821939743e-06 -7.46876732373122545e-07 2.25166748215612719e-06
8
Step 43000
1 1 -1.04322286581234574e-06 -1.49302341297603580e-06 -9.76405840848023225e-07
2 1 -3.12568871437368195e-07 -1.06217714331819837e-07 1.63332691897366916e-09
3 1 2.46055165583299366e-06 -8.83070491602870658e-08 2.72857491754594998e-06
4 1 7.33185240741374753e-07 -1.34169815472893758e-06 -2.54190715988635687e-06
5 1 -6.83835823045617015e-07 -3.99536933509300458e-07 1.40502934073763464e-06
6 1 -3.10766433716106377e-06 -1.68963649121671466e-07 -7.82106628492845807e-07
7 1 -3.57686472370722428e-07 7.65977959548724820e-07 1.46991496320464132e-06
8 1 1.47494991847680425e-06 -1.22455656933978642e-06 2.75597335513343603e-06
8
Step 44000
1 1 -7.57926979864675066e-07 -2.35728228439149775e-06 -1.69366800302662442e-06
2 1 -1.74889519231680321e-07 -6.93485048165275485e-07 6.55945494761504332e-07
3 1 1.70069848829076915e-06 -2.34674149965123831e-07 3.46324539093425728e-06
4 1 5.58683927059832159e-07 -1.63932855303867049e-06 -1.30084554313205840e-06
5 1 5.43011173362223379e-07 1.04583245098457117e-06 2.59701011585048665e-07
6 1 -2.70783311327057651e-06 -5.09692835923659380e-07 -7.24930984287433315e-07
7 1 -1.96108464582362757e-06 2.45728868031033697e-06 3.19439093763165694e-06
8 1 7.49082918467659204e-07 -1.15910269325819044e-06 2.17037265183744327e-06
8
Step 45000
1 1 4.09931942011130882e-07 -2.02937072972759242e-06 -1.93762266411012014e-06
2 1 -4.70489156262136192e-07 -1.05711497273139930e-06 1.24788984707081986e-06
3 1 1.91932558271851664e-07 -2.67683473677397153e-07 2.61883219416796570e-06
4 1 1.57466267044064776e-07 -9.69815669921693181e-07 1.47453001456789775e-07
5 1 1.57130949316879495e-06 1.88048688380188651e-06 -1.40878613437336308e-06
6 1 -1.95279772897564006e-06 -7.75739468417612084e-07 -4.79440998443702623e-07
7 1 -2.51781009872154740e-06 2.53331783259983723e-06 3.64585057691298375e-06
8 1 -3.42340831619136010e-07 -1.40154722564692696e-07 6.04141596715761026e-07
8
Step 46000
1 1 1.36558190981801955e-06 -5.93367206115016753e-07 -1.68021797452664909e-06
2 1 -8.49075663421926666e-07 -1.00325328660124913e-06 1.59560173137222656e-06
3 1 -1.42919488724571239e-06 -2.03712134806760820e-07 6.11526891849695617e-07
4 1 -1.76780201150564752e-07 3.46749025129725864e-07 1.23124165235253963e-06
5 1 1.94989445945812420e-06 2.02226653867766580e-06 -2.68783557371910651e-06
6 1 -6.34294943711956267e-07 -9.75778795955361357e-07 -1.99248918230712273e-07
7 1 -2.54982152780077095e-06 1.36699191559290591e-06 2.71254870904141086e-06
8 1 -1.21185529592554182e-06 1.29427528729368609e-06 -1.08960394405890439e-06
8
Step 47000
1 1 1.15900414267615192e-06 1.20745216626425649e-06 -8.07920577557896900e-07
2 1 -1.09496418304892027e-06 -2.59604423870014088e-07 1.65650204817071203e-06
3 1 -2.49142259730403327e-06 -1.49930550034620801e-08 -1.59715215880754048e-06