8
Step 0
1 1  0.000000000000e+00   0.000000000000e+00   0.000000000000e+00 
2 1  0.000000000000e+00   0.000000000000e+00   0.000000000000e+00 
3 1  0.000000000000e+00   0.000000000000e+00   0.000000000000e+00 
4 1  0.000000000000e+00   0.000000000000e+00   0.000000000000e+00 
5 1  0.000000000000e+00   0.000000000000e+00   0.000000000000e+00 
6 1  0.000000000000e+00   0.000000000000e+00   0.000000000000e+00 
7 1  0.000000000000e+00   0.000000000000e+00   0.000000000000e+00 
8 1  0.000000000000e+00   0.000000000000e+00   0.000000000000e+00 
8
Step 1000
1 1  3.801174563864e-05  -6.397124126756e-05   4.284034907552e-05 
2 1  1.595500382858e-04  -8.765679727765e-05  -1.616153534288e-04 
3 1 -2.417339775564e-05   1.283416183112e-04  -5.696237724999e-05 
4 1 -1.451649961162e-06   1.034357319278e-05  -1.521346646060e-04 
5 1 -5.976412986246e-05   6.067516605392e-05   2.507359333880e-05 
6 1 -6.115294103049e-05  -1.822835212226e-04   1.439910364976e-04 
7 1 -5.804596359149e-05   5.735204794668e-07   8.539110488236e-05 
8 1  3.082471032837e-06  -7.172736259564e-05  -1.817137702009e-04 
8
Step 2000
1 1 -3.472406889991e-05  -6.408836866914e-06   6.853995165172e-05 
2 1  1.072274003898e-04   3.238314412204e-05  -1.317166420817e-04 
3 1  2.224042956455e-05   8.431551113626e-05  -8.776292026063e-05 
4 1  1.994840362770e-05   1.225082028953e-05  -9.900317535956e-05 
5 1 -9.762352209144e-05   5.366548816131e-05  -5.304711768661e-05 
6 1 -1.130767336402e-04  -1.512712681550e-04   9.577941746291e-05 
7 1 -1.151371551997e-05   5.437780897646e-05   5.425161793696e-05 
8 1  9.263286787832e-06   9.384792017749e-06  -1.431932517988e-04 
8
Step 3000
1 1 -8.126254761670e-05   4.814838265270e-05   5.492042001031e-05 
2 1 -2.586678554520e-06   1.031041410213e-04  -4.576036371608e-05 
3 1  5.306457830511e-05   1.429192691610e-05  -7.280202803622e-05 
4 1  3.397582817238e-05   9.147579985601e-06  -1.696831559137e-05 
5 1 -9.525746245574e-05   4.983523379451e-06  -8.960762328283e-05 
6 1 -1.238031793702e-04  -7.886710801964e-05   1.750208310194e-05 
7 1  2.991917825915e-05   7.924472987606e-05   3.373484078085e-06 
8 1  1.262944257339e-05   6.369128378669e-05  -4.167721496906e-05 
8
Step 4000
1 1 -9.673594690373e-05   6.425982435473e-05   1.303455789115e-05 
2 1 -9.103530298239e-05   1.084226029422e-04   3.208103117996e-05 
3 1  6.447363929922e-05  -4.214787325136e-05  -2.723330249255e-05 
4 1  4.255545013906e-05  -5.256629393461e-06   3.969613582768e-05 
5 1 -5.090829450415e-05  -3.863687250540e-05  -7.496597745768e-05 
6 1 -1.025045027430e-04  -7.947799855326e-06  -4.351416630620e-05 
7 1  5.340199834911e-05   6.890278260517e-05  -4.689683816124e-05 
8 1  2.579385651007e-05   6.694675065560e-05   4.374113601355e-05 
8
Step 5000
1 1 -8.334392084776e-05   2.804263018576e-05  -4.954405458674e-05 
2 1 -1.111135910897e-04   6.575063026296e-05   5.958631223227e-05 
3 1  5.929365510610e-05  -5.902480952420e-05   2.629698218544e-05 
4 1  4.455397696571e-05  -3.328705636523e-05   4.874662320388e-05 
5 1  2.384864145051e-05  -6.644348653115e-05  -2.681693847991e-05 
6 1 -5.991208503313e-05   2.965365747128e-05  -5.853896676625e-05 
7 1  6.690512099639e-05   3.232261516105e-05  -7.075810781364e-05 
8 1  4.260469675119e-05   3.591370018397e-05   7.187582087264e-05 
8
Step 6000
1 1 -4.068666436334e-05  -1.150311332966e-05  -1.264527749109e-04 
2 1 -8.109090195284e-05  -7.047207862507e-06   5.924486163510e-05 
3 1  3.988631969702e-05  -4.634128810681e-05   6.769540094724e-05 
4 1  3.492980092135e-05  -7.210685185191e-05   3.212227871636e-05 
5 1  8.574093179955e-05  -7.884071623028e-05   2.783115489462e-05 
6 1 -1.216436930272e-05   3.077004891805e-05  -3.599554181235e-05 
7 1  6.738269745087e-05  -1.066145868130e-05  -5.781131661287e-05 
8 1  5.692023385251e-05  -1.121909050016e-05   6.566999764687e-05 
8
Step 7000
1 1  2.024311674602e-05  -2.480371629484e-05  -1.733510061142e-04 
2 1 -3.457877350600e-05  -7.203783369364e-05   4.341742179833e-05 
3 1  1.622659334783e-05  -1.882120073954e-05   9.088008098592e-05 
4 1  2.664165586119e-06  -1.036268543349e-04   1.171449787998e-05 
5 1  1.022831559382e-04  -6.588261726681e-05   5.920448222923e-05 
6 1  3.078107163774e-05   8.759622304561e-06  -9.015818764336e-07 
7 1  4.194709894499e-05  -4.264254830608e-05  -2.825320844451e-05 
8 1  5.473114090066e-05  -5.105290629494e-05   4.024192075541e-05 
8
Step 8000
1 1  8.149475760916e-05  -1.041334881600e-05  -1.579921085753e-04 
2 1  7.022261064429e-06  -9.946021591084e-05   1.743855320778e-05 
3 1  9.566481826664e-07   3.659521724597e-06   8.842951403401e-05 
4 1 -5.967953957366e-05  -1.017837120759e-04   1.292607109009e-06 
5 1  7.959703498658e-05  -2.110864176205e-05   5.105100689684e-05 
6 1  7.094663840350e-05  -1.777063748702e-05   1.452397866881e-05 
7 1 -2.178847144282e-05  -5.684349424602e-05  -9.361059035103e-06 
8 1  2.561245664731e-05  -5.993224769060e-05   7.714625656321e-06 
8
Step 9000
1 1  1.112727892321e-04   1.750617758881e-05  -4.841150775940e-05 
2 1  3.665458677876e-05  -7.790757780023e-05  -1.173089224046e-05 
3 1 -4.470058221898e-06   1.090361428925e-05   4.273852857943e-05 
4 1 -1.221146989126e-04  -5.673693093462e-05   6.239173621061e-06 
5 1  3.968610590446e-05   3.550970647906e-05   9.214316506938e-06 
6 1  1.082907814366e-04  -2.827312280414e-05   8.889176462484e-06 
7 1 -9.396592248009e-05  -4.987299351338e-05  -4.066457206060e-06 
8 1 -1.904712351076e-05  -1.493551660435e-05  -2.412011566548e-05 
8
Step 10000
1 1  9.187299841281e-05   3.524598401813e-05   7.616025077998e-05 
2 1  4.595445110468e-05  -1.473181352641e-05  -3.448641665435e-05 
3 1 -5.898378094137e-06   2.912003889793e-06  -4.400938761138e-05 
4 1 -1.459037421927e-04   1.569647947162e-05   1.099015781334e-05 
5 1  3.620836814854e-07   7.323623046664e-05  -3.324994072465e-05 
6 1  1.093577153211e-04  -1.283851165548e-05  -5.136797093750e-06 
7 1 -1.246713892920e-04  -3.815587572387e-05  -8.231347275573e-06 
8 1 -6.032827751086e-05   5.358850318197e-05  -4.699851601430e-05 
8
Step 11000
1 1  3.051869417136e-05   4.089523733744e-05   1.106714590293e-04 
2 1  3.103739526728e-05   5.303412223302e-05  -4.563845508144e-05 
3 1 -4.676167751040e-06  -7.845545527079e-06  -1.187453759242e-04 
4 1 -1.262530920508e-04   6.926398010961e-05   5.580437982683e-06 
5 1 -2.581892086110e-05   7.147028445737e-05  -4.959091629824e-05 
6 1  5.040188422325e-05   2.400406320752e-05  -1.584495635777e-05 
7 1 -1.031476318433e-04  -2.678919035084e-05  -1.605552148611e-05 
8 1 -8.619075439454e-05   8.298720104293e-05  -5.568414373075e-05 
8
Step 12000
1 1 -4.673944403180e-05   2.493326410616e-05   9.387221364357e-05 
2 1 -2.311995135953e-07   9.098818568606e-05  -4.482513700326e-05 
3 1 -1.668264507962e-06  -6.799134026879e-06  -1.408699618398e-04 
4 1 -6.740761886230e-05   8.044992116655e-05  -1.137180507282e-05 
5 1 -3.303137613898e-05   3.489710192496e-05  -3.434660501438e-05 
6 1 -2.929234145897e-05   6.209520942461e-05  -1.487357507127e-05 
7 1 -4.989587818412e-05   4.999113922368e-06  -1.158476351038e-05 
8 1 -8.817845903968e-05   6.397251230932e-05  -4.725810248781e-05 
8
Step 13000
1 1 -1.003306846821e-04  -1.138443742809e-05   5.404501325500e-05 
2 1 -3.494708625939e-05   8.535646207357e-05  -2.954634548484e-05 
3 1  1.490140238733e-06   6.746521488436e-06  -1.115483428744e-04 
4 1  1.926820484472e-06   6.234852219791e-05  -3.617056726729e-05 
5 1 -2.246351210994e-05  -1.365838941009e-05   2.270175216007e-06 
6 1 -8.618155446123e-05   7.085647414043e-05   1.173242025771e-06 
7 1  8.210944108206e-06   5.971997647754e-05   6.439476342876e-06 
8 1 -6.201400281795e-05   1.060328177711e-07  -2.043646406709e-05 
8
Step 14000
1 1 -1.065081123955e-04  -4.756817985911e-05   9.844155640893e-06 
2 1 -5.992101204760e-05   3.693498220170e-05  -2.206204779153e-06 
3 1  4.407485045932e-06   2.899959717831e-05  -4.362056713292e-05 
4 1  4.084994185526e-05   2.936087698860e-05  -5.711787316217e-05 
5 1 -1.094439120564e-06  -5.049989373705e-05   3.809469913850e-05 
6 1 -1.058930013301e-04   3.590750871896e-05   2.661843671514e-05 
7 1  4.673865538481e-05   1.093166372400e-04   2.649634482776e-05 
8 1 -1.469092509481e-05  -8.303649631980e-05   2.185825532960e-05 
8
Step 15000
1 1 -6.865993487479e-05  -6.613585719882e-05  -2.223374295009e-05 
2 1 -6.121530179396e-05  -3.308858711686e-05   3.394230948705e-05 
3 1  4.105285005608e-06   4.918311788113e-05   2.448797722241e-05 
4 1  4.598932179357e-05  -9.983388222538e-06  -5.874001987101e-05 
5 1  2.144007009499e-05  -5.984864583942e-05   5.280745489773e-05 
6 1 -8.501666055394e-05  -2.911998815399e-05   4.976475357560e-05 
7 1  5.178994739596e-05   1.268148796113e-04   4.069935864048e-05 
8 1  3.803823827577e-05  -1.381971339561e-04   6.541788938479e-05 
8
Step 16000
1 1 -8.197135720501e-06  -6.009286284613e-05  -3.726707590658e-05 
2 1 -2.997066742494e-05  -8.645471689905e-05   7.288351039503e-05 
3 1 -3.045318019198e-06   5.098506895571e-05   5.663772278138e-05 
4 1  3.445011947315e-05  -4.543631458882e-05  -3.148731813780e-05 
5 1  3.273888591003e-05  -3.682915381406e-05   3.790371775599e-05 
6 1 -3.395838300146e-05  -8.933808697393e-05   5.707390573256e-05 
7 1  3.502872938698e-05   1.027919371394e-04   4.269436284060e-05 
8 1  7.336276036497e-05  -1.362118524047e-04   9.323930732455e-05 
8
Step 17000
1 1  4.625411248888e-05  -2.757488941442e-05  -3.835283348462e-05 
2 1  2.846397362385e-05  -9.507018294072e-05   9.763845381519e-05 
3 1 -1.609559026149e-05   2.232825876017e-05   5.200032766700e-05 
4 1  1.762730018411e-05  -6.858589985514e-05   2.092595172107e-05 
5 1  2.123471703981e-05   2.801645024371e-06  -4.930202789970e-06 
6 1  2.153846665839e-05  -1.143303473643e-04   3.741333862922e-05 
7 1  1.562080611784e-05   4.147566961249e-05   2.705198506985e-05 
8 1  8.272783773296e-05  -6.972480228852e-05   9.711348656543e-05 
8
Step 18000
1 1  7.230725352715e-05   2.294992564959e-05  -2.885264572493e-05 
2 1  8.895758809326e-05  -5.325399439230e-05   9.350521979596e-05 
3 1 -2.980909228551e-05  -3.410887053118e-05   2.279040735963e-05 
4 1  4.485407143636e-06  -6.769722874228e-05   7.242923740553e-05 
5 1 -2.214365563395e-05   3.622062154437e-05  -6.232413807808e-05 
6 1  5.842544702064e-05  -9.413053493298e-05  -8.295610871417e-06 
7 1  3.180060929395e-06  -2.591349125515e-05  -4.833414257624e-06 
8 1  7.278843086781e-05   3.021903823354e-05   7.100845624246e-05 
8
Step 19000
1 1  6.736091712286e-05   6.904177809824e-05  -1.064589409196e-05 
2 1  1.217263785341e-04   2.712068880391e-05   5.515768880743e-05 
3 1 -2.583569077763e-05  -8.459032816867e-05  -5.246831894507e-06 
4 1 -5.590250160353e-06  -3.243641394826e-05   9.171327261500e-05 
5 1 -9.641250742558e-05   4.707258593069e-05  -1.076810775779e-04 
6 1  6.605921313204e-05  -3.522608440620e-05  -5.839840278714e-05 
7 1 -8.828612643217e-07  -5.919872892946e-05  -4.335303085444e-05 
8 1  4.623761861803e-05   9.324601233179e-05  -2.374699593281e-06 
8
Step 20000
1 1  4.176229479672e-05   8.606671514292e-05   1.353116573643e-05 
2 1  1.094035378465e-04   1.048879733895e-04  -1.286311370458e-05 
3 1  4.002123261402e-06  -1.102857493724e-04  -1.906948075413e-05 
4 1 -1.310689555117e-05   5.456921926770e-05   8.748245934720e-05 
5 1 -1.610125325711e-04   2.891592673850e-05  -1.069326548276e-04 
6 1  4.455520457978e-05   3.301528969594e-05  -8.069957170100e-05 
7 1 -3.730938948436e-08  -5.511335160598e-05  -7.230951221001e-05 
8 1  1.397320556768e-05   1.066028872717e-04  -9.006813065315e-05 
8
Step 21000
1 1  1.453361838250e-06   7.372126718961e-05   3.686280747274e-05 
2 1  4.341989555899e-05   1.295260461616e-04  -7.588980270237e-05 
3 1  6.516468732175e-05  -8.660216659826e-05  -1.996831281749e-05 
4 1 -1.429750213761e-05   1.622697297471e-04   7.168728740215e-05 
5 1 -1.559084839046e-04  -7.081114183978e-06  -4.679823451297e-05 
6 1  3.718458716432e-06   6.926026766491e-05  -5.632532546652e-05 
7 1 -3.764838270069e-06  -3.447788185782e-05  -8.001971648413e-05 
8 1 -9.670434123698e-06   7.264101556160e-05  -1.177865343800e-04 
8
Step 22000
1 1 -3.504645143041e-05   4.331928180862e-05   5.159235934332e-05 
2 1 -4.868103338231e-05   8.302790342607e-05  -1.056639652070e-04 
3 1  1.248262492888e-04  -1.619210120122e-05  -3.380911940108e-06 
4 1 -8.400294225797e-06   2.082580620102e-04   4.681384169793e-05 
5 1 -6.707755857751e-05  -4.299783999921e-05   5.791841177988e-05 
6 1 -3.832264672294e-05   6.303117251381e-05   2.431865432789e-07 
7 1 -3.274923510737e-05  -1.430237391574e-05  -6.642777459700e-05 
8 1 -2.364361128879e-05   1.052307650328e-05  -1.011919386385e-04 
8
Step 23000
1 1 -4.277427436295e-05  -1.301257934691e-05   5.592807022858e-05 
2 1 -1.049087847851e-04  -3.549887979009e-06  -1.002377848120e-04 
3 1  1.449855268707e-04   5.301139464693e-05   3.243318442898e-05 
4 1 -1.705485085106e-05   1.511606663602e-04  -3.377915402458e-06 
5 1  5.188390420352e-05  -5.555036100259e-05   1.345358790266e-04 
6 1 -6.251474019462e-05   3.721646002710e-05   4.690509341931e-05 
7 1 -9.012560077855e-05  -6.424760490509e-06  -2.599551346939e-05 
8 1 -2.924187088434e-05  -4.314870894715e-05  -7.738909992578e-05 
8
Step 24000
1 1 -2.350951029180e-05  -9.555374464791e-05   4.705780225828e-05 
2 1 -1.165949000131e-04  -8.563137239309e-05  -5.722798971738e-05 
3 1  8.674334225304e-05   7.221154016894e-05   4.522056089665e-05 
4 1 -9.895874295685e-06   5.067369892969e-05  -5.562949092767e-05 
5 1  1.261409911377e-04  -3.673538241414e-05   1.412424903072e-04 
6 1 -5.599586227837e-05   1.568427055799e-05   5.320187647799e-05 
7 1 -1.417682866880e-04  -1.776846260586e-05   3.825384817779e-05 
8 1 -1.975248547284e-05  -5.931196032875e-05  -5.513635125779e-05 
8
Step 25000
1 1 -4.934828460191e-06  -1.700475844369e-04   3.782776230953e-05 
2 1 -8.839330362862e-05  -1.204655482563e-04   9.368388973387e-07 
3 1 -6.242525999797e-06   8.114133225777e-05   1.775113954255e-05 
4 1 -2.863394027484e-06  -3.696578087206e-05  -8.355278954354e-05 
5 1  1.344440202228e-04   2.984860894583e-06   8.854019968444e-05 
6 1 -1.993954542841e-05   1.163900212653e-05   1.368431149925e-05 
7 1 -1.494016519341e-04  -3.014183838272e-05   9.615355714717e-05 
8 1  5.798628136938e-07  -2.885524388128e-05  -2.906927097524e-05 
8
Step 26000
1 1  8.279632868240e-06  -1.734219106208e-04   2.576018396407e-05 
2 1 -4.805528830835e-05  -1.100123071398e-04   4.741892215546e-05 
3 1 -7.374742038245e-05   5.249417749670e-05  -7.222249302611e-06 
4 1  4.541548440414e-06  -7.499329107162e-05  -8.379008860259e-05 
5 1  9.253976892868e-05   7.933041406945e-05  -2.598435747568e-06 
6 1  3.497257625488e-05   2.417810566440e-05  -4.723572426810e-05 
7 1 -8.973077259438e-05  -2.113810666862e-05   1.229033140846e-04 
8 1  2.219205761090e-05   1.628495634434e-05   3.996094254119e-06 
8
Step 27000
1 1  2.911037690437e-05  -9.322667780589e-05  -6.863800885902e-07 
2 1 -1.266369212947e-05  -6.349548530641e-05   6.617601806932e-05 
3 1 -1.023987217397e-04  -1.343657040921e-05  -2.421154756952e-05 
4 1  1.434762128116e-05  -6.616642261254e-05  -5.155605816325e-05 
5 1  1.680021417374e-05   1.263071099476e-04  -7.818378892834e-05 
6 1  8.315702527524e-05   2.702632671055e-05  -8.616202624331e-05 
7 1  1.205069275693e-05   1.396237404421e-05   1.177066639358e-04 
8 1  3.741748521122e-05   4.558026914579e-05   4.531112585314e-05 
8
Step 28000
1 1  3.414863169097e-05  -1.283681661271e-06  -3.348899387502e-05 
2 1  1.052422559208e-05  -3.486153524186e-06   6.159752397610e-05 
3 1 -9.522250502001e-05  -7.514569510063e-05  -3.152040515025e-05 
4 1  2.381414427309e-05  -2.834524876127e-05  -1.901889075132e-06 
5 1 -4.689365020980e-05   1.126719942278e-04  -9.990973540831e-05 
6 1  8.849735993273e-05   2.110749352780e-06  -7.470242195219e-05 
7 1  8.297524140416e-05   5.878141146717e-05   7.561298496453e-05 
8 1  3.690809264093e-05   4.742150824170e-05   6.765493492894e-05 
8
Step 29000
1 1  1.818001763881e-05   5.185101334785e-05  -6.944846129811e-05 
2 1  1.605069795079e-05   3.198746433265e-05   3.473964365188e-05 
3 1 -6.035722442753e-05  -9.781267751452e-05  -2.340993224753e-05 
4 1  2.945383557594e-05   1.427488252412e-05   4.498831290684e-05 
5 1 -7.704700335440e-05   3.249383171685e-05  -7.614551445640e-05 
6 1  3.825256345798e-05  -3.850614483547e-05  -3.053148307518e-06 
7 1  9.829329118125e-05   9.579930188966e-05   6.526855209888e-06 
8 1  1.819748879859e-05   1.544031455744e-05   6.905035667430e-05 
8
Step 30000
1 1 -7.917013181987e-06   6.174901432745e-05  -9.936047134630e-05 
2 1  1.055393965353e-05   4.570450046724e-05  -1.163718775089e-05 
3 1 -1.643483389911e-05  -7.295648359798e-05  -3.210399426216e-06 
4 1  3.211927997965e-05   4.406510585859e-05   7.245578218510e-05 
5 1 -7.276368279071e-05  -8.214520106940e-05  -2.393866535940e-05 
6 1 -4.682962460185e-05  -7.350411541986e-05   9.452137830903e-05 
7 1  6.443867618591e-05   1.036882980708e-04  -5.390256725989e-05 
8 1 -2.451322354637e-05  -3.835887636838e-05   4.634275876220e-05 
8
Step 31000
1 1 -4.106600408980e-05   3.651842998232e-05  -9.779188115253e-05 
2 1  2.236948991410e-06   4.450998072960e-05  -5.871116456392e-05 
3 1  2.102203710156e-05   3.352447498544e-06   1.466664321237e-05 
4 1  3.080677304148e-05   4.819956252414e-05   6.912480615763e-05 
5 1 -3.962695608948e-05  -1.531175375533e-04   2.732611555905e-05 
6 1 -1.216185923993e-04  -8.130918747560e-05   1.552883519538e-04 
7 1  4.432317941404e-06   6.553017518077e-05  -8.314547572351e-05 
8 1 -7.894596495831e-05  -9.396326021746e-05   3.339228377394e-07 
8
Step 32000
1 1 -6.813264739319e-05   2.951873953817e-06  -4.811592334164e-05 
2 1 -1.820820660335e-06   2.876108576634e-05  -8.648062596818e-05 
3 1  4.576611601800e-05   1.020579787511e-04   2.576635060664e-05 
4 1  2.034896107896e-05   2.272901607631e-05   3.611957699695e-05 
5 1  7.587982783023e-06  -1.461946249008e-04   5.220639030763e-05 
6 1 -1.467386688492e-04  -4.547672561496e-05   1.500296358497e-04 
7 1 -4.657414700950e-05  -6.837261442470e-06  -7.687713260067e-05 
8 1 -1.170213556103e-04  -1.313526538980e-04  -4.830369129915e-05 
8
Step 33000
1 1 -6.336489196409e-05  -1.830696809716e-05   3.515965409944e-05 
2 1 -1.888544383281e-08   1.039177890103e-06  -8.541939713994e-05 
3 1  5.812315946390e-05   1.621448855995e-04   2.629665017888e-05 
4 1 -4.338700485190e-06  -1.709438639181e-05  -6.167692305192e-06 
5 1  4.668109516044e-05  -7.568938033613e-05   4.796278021833e-05 
6 1 -1.069729463262e-04   4.554505930919e-05   8.239505049643e-05 
7 1 -6.833356865763e-05  -5.957871922156e-05  -4.377504782769e-05 
8 1 -1.010717422470e-04  -1.242021698205e-04  -7.428767005001e-05 
8
Step 34000
1 1 -1.569546135486e-05  -2.849785935929e-05   1.027719821025e-04 
2 1  9.146488306869e-06  -2.380232998800e-05  -4.576484556898e-05 
3 1  5.567740302235e-05   1.473235293730e-04   1.169924064152e-05 
4 1 -3.507891983547e-05  -4.919580335800e-05  -3.409987720854e-05 
5 1  6.436220262024e-05   5.944355685014e-06   2.621600586181e-05 
6 1 -1.366211783424e-05   1.558670839962e-04  -5.253937399489e-06 
7 1 -5.319615002696e-05  -7.157110115737e-05   1.222961207638e-06 
8 1 -2.055334120946e-05  -5.468708810970e-05  -7.303974906551e-05 
8
Step 35000
1 1  6.237501061247e-05  -2.612383041024e-05   1.240433164138e-04 
2 1  2.449690136390e-05  -4.060897438460e-05   4.261162857953e-05 
3 1  3.928083183941e-05   4.878911180242e-05  -1.815519376994e-05 
4 1 -6.975054253398e-05  -6.528530039880e-05  -4.408015581055e-05 
5 1  5.748820894497e-05   4.847070353612e-05  -1.533600846174e-06 
6 1  7.173513314960e-05   1.994983000862e-04  -6.157434310235e-05 
7 1 -1.102624648952e-05  -6.261784066288e-05   3.988299534036e-05 
8 1  8.391026918951e-05   4.938449743335e-05  -4.381928688494e-05 
8
Step 36000
1 1  1.282430278390e-04  -8.113597219149e-06   1.036796464217e-04 
2 1  2.628931068925e-05  -5.157405490484e-05   1.228586803302e-04 
3 1  1.016553470873e-05  -8.376085823220e-05  -4.076550809709e-05 
4 1 -9.376220540142e-05  -5.430018914014e-05  -3.015109257445e-05 
5 1  2.778936473165e-05   4.881843426543e-05  -2.558416702663e-05 
6 1  9.924640279925e-05   1.618420216255e-04  -7.547349023485e-05 
7 1  3.709353200753e-05  -4.360562804675e-05   6.075907984720e-05 
8 1  1.447570708900e-04   1.149416924589e-04   3.259959018882e-06 
8
Step 37000
1 1  1.426744401394e-04   1.158133443439e-05   6.678281183601e-05 
2 1  1.986959141104e-06  -5.071925542066e-05   1.404046281314e-04 
3 1 -2.531097877586e-05  -1.428193655932e-04  -3.502630410847e-05 
4 1 -8.368481826933e-05  -4.913601183996e-06  -8.004358758139e-07 
5 1 -1.674062125751e-05   1.948334631772e-05  -3.480066554332e-05 
6 1  8.366617212578e-05   8.046610818307e-05  -5.567424096018e-05 
7 1  7.062625042284e-05  -2.068525358505e-05   5.602693355712e-05 
8 1  1.397179984456e-04   1.107903705403e-04   5.351675615575e-05 
8
Step 38000
1 1  1.003925252043e-04   1.951505833448e-05   3.207822280241e-05 
2 1 -2.546483964258e-05  -2.868772817409e-05   1.102988823527e-04 
3 1 -5.890140655252e-05  -1.341332674186e-04  -1.358402306919e-05 
4 1 -3.361782373591e-05   6.385664838296e-05   1.821099416611e-05 
5 1 -6.078981004484e-05  -2.103299183521e-05  -2.095976247193e-05 
6 1  4.794805530840e-05   9.443623300464e-06  -1.359384180946e-05 
7 1  7.335686207305e-05  -1.488645441638e-06   2.534767218673e-05 
8 1  7.619020743603e-05   6.267785022954e-05   9.206891265849e-05 
8
Step 39000
1 1  2.466041193599e-05   1.172500893456e-05  -5.340417450864e-07 
2 1 -5.403433505365e-05   9.722815212487e-06   3.744071129518e-05 
3 1 -7.641613892417e-05  -9.505608909400e-05   3.148587818247e-05 
4 1  4.093173336942e-05   1.209079954965e-04   2.245753332116e-05 
5 1 -9.587137543739e-05  -5.273378836192e-05   1.001673837044e-05 
6 1  8.563727933504e-06  -2.727204314358e-05   2.756204400354e-05 
7 1  3.787116404000e-05   9.689124865887e-06  -1.999468081283e-05 
8 1 -5.418716362872e-06   2.057453645732e-07   1.069895598033e-04 
8
Step 40000
1 1 -4.651095475698e-05   1.657561640375e-06  -3.061554872485e-05 
2 1 -8.702567713251e-05   4.749982259270e-05  -5.240493309171e-05 
3 1 -7.811491398129e-05  -2.508386082612e-05   9.268756438770e-05 
4 1  1.043697339160e-04   1.406377577164e-04   1.870719179243e-05 
5 1 -1.059749377147e-04  -5.874714173215e-05   4.517475518071e-05 
6 1 -2.173423522462e-05  -2.709971804936e-05   4.668677310319e-05 
7 1 -2.907206174281e-05   2.119134843226e-05  -6.129210597970e-05 
8 1 -6.327961611034e-05  -5.021134360375e-05   9.662256359420e-05 
8
Step 41000
1 1 -7.718045339690e-05   1.435776388072e-05  -5.203934077772e-05 
2 1 -9.395727963805e-05   7.239459684628e-05  -9.541175479049e-05 
3 1 -6.868310871376e-05   4.714462490043e-05   1.268269391415e-04 
4 1  1.233133605029e-04   1.047831977599e-04   5.669207058343e-06 
5 1 -8.653545023480e-05  -2.500346625337e-05   6.460273865023e-05 
6 1 -3.640482151155e-05   1.393640969078e-07   4.204124381118e-05 
7 1 -9.928798933125e-05   4.217509588274e-05  -8.570888528671e-05 
8 1 -8.504689293731e-05  -6.721732992280e-05   4.830142484679e-05 
8
Step 42000
1 1 -6.333915501414e-05   4.539209047450e-05  -5.414843132720e-05 
2 1 -6.405536815159e-05   7.572171913084e-05  -9.065541696818e-05 
3 1 -4.277437630208e-05   8.341783071475e-05   1.014500137047e-04 
4 1  9.365065165584e-05   2.682963917972e-05  -1.459390384737e-05 
5 1 -3.425722605135e-05   3.918128707604e-05   5.112211454855e-05 
6 1 -3.346295963739e-05   2.939723778757e-05   2.081387659424e-05 
7 1 -1.313782563793e-04   6.353798128898e-05  -7.624665200721e-05 
8 1 -6.760011383417e-05  -4.694167852677e-05  -3.872275565752e-05 
8
Step 43000
1 1 -2.286068964473e-05   7.502458258826e-05  -3.209603315279e-05 
2 1 -2.806037690367e-06   5.360128081748e-05  -5.849566742440e-05 
3 1 -5.197879396849e-06   8.532912269387e-05   1.098809901582e-05 
4 1  3.071131298547e-05  -4.159664931454e-05  -4.005694695789e-05 
5 1  3.360726764077e-05   9.259348138666e-05   3.438515086038e-07 
6 1 -1.612783360569e-05   3.383968654862e-05  -1.185131781487e-06 
7 1 -1.064304384617e-04   7.124215723899e-05  -5.641920895611e-06 
8 1 -1.955550174457e-05  -1.360988760373e-05  -1.101387568850e-04 
8
Step 44000
1 1  1.604917925326e-05   8.680856768923e-05   2.513017798728e-06 
2 1  6.848018970588e-05   1.652333524763e-05  -1.223141801148e-05 
3 1  3.240363703891e-05   4.682618412464e-05  -9.811991639936e-05 
4 1 -3.195572640480e-05  -7.325910648680e-05  -6.433544719242e-05 
5 1  7.837343554804e-05   1.002485119569e-04  -6.839245977856e-05 
6 1  5.237692339195e-06   1.486199282270e-06  -1.168594031604e-05 
7 1 -3.179513228252e-05   3.953912579326e-05   1.152941245923e-04 
8 1  2.217737400081e-05   2.540844595232e-05  -1.203052450121e-04 
8
Step 45000
1 1  3.494316002222e-05   5.566414438046e-05   4.447074358008e-05 
2 1  1.104292641489e-04  -3.278621951588e-05   2.845729425444e-05 
3 1  6.397927294032e-05  -1.675528204908e-05  -1.538578098245e-04 
4 1 -6.498316195486e-05  -7.061827110189e-05  -7.009533712575e-05 
5 1  7.945617091999e-05   5.833726862969e-05  -1.111006373896e-04 
6 1  1.913564697375e-05  -5.475374815908e-05  -1.837819739080e-05 
7 1  5.506554438981e-05  -3.145099102970e-05   1.906481871762e-04 
8 1  4.121482300319e-05   6.312602484021e-05  -9.201410276102e-05 
8
Step 46000
1 1  3.056411976480e-05  -1.526815423308e-05   7.956265804605e-05 
2 1  1.009200686061e-04  -9.471599625474e-05   4.974762456538e-05 
3 1  7.193490691711e-05  -6.611483093896e-05  -1.355733466055e-04 
4 1 -5.975765890195e-05  -4.468883124458e-05  -4.413927833775e-05 
5 1  5.766461890653e-05  -3.569727008128e-05  -1.089553303209e-04 
6 1  1.932114477735e-05  -1.003423009397e-04  -3.109293388326e-05 
7 1  1.059230181952e-04  -1.015935325541e-04   1.816298507336e-04 
8 1  3.598159592132e-05   1.111322777744e-04  -4.228270484175e-05 
8
Step 47000
1 1  5.581527935325e-06  -7.741104392364e-05   8.554096146048e-05 
2 1  5.839807372764e-05  -1.425983083079e-04   5.391343790408e-05 
3 1  4.622296675364e-05  -8.105293898879e-05  -5.131565731038e-05 
4 1 -2.824822499802e-05  -8.672447789222e-06   1.436701316374e-05 
5 1  3.528051827120e-05  -1.342213776427e-04  -6.437912598587e-05 
6 1  7.245378903946e-06  -9.853105964974e-05  -4.849075657856e-05 
7 1  9.317541137315e-05  -1.233839813004e-04   1.093548566867e-04 
8 1  1.805075037210e-05   1.352974699479e-04   1.087314428707e-06 
8
Step 48000
1 1 -2.083409533542e-05  -1.057982192267e-04   5.742494188417e-05 
2 1  1.273732557591e-05  -1.396921455990e-04   4.104363539029e-05 
3 1 -5.709404828895e-06  -6.580337672294e-05   5.193166241846e-05 
4 1  1.233834933640e-05   2.104335511923e-05   7.599575865631e-05 
5 1  1.491896861251e-05  -1.637533744454e-04   1.894496198557e-05 
6 1 -3.404147448038e-07  -2.921792220649e-05  -6.256022833962e-05 
7 1  3.379965442062e-05  -1.018758481974e-04   1.620986921634e-05 
8 1  4.963221461564e-07   1.040039145785e-04   2.654327399021e-05 
8
Step 49000
1 1 -3.718281313100e-05  -9.606212046235e-05  -6.136147453931e-06 
2 1 -3.064586899587e-05  -8.921748821536e-05   1.072361250594e-06 
3 1 -5.531336587369e-05  -2.227787671178e-05   1.109364226681e-04 
4 1  3.829705176842e-05   3.977167652870e-05   1.095114289054e-04 
5 1 -1.283576593618e-05  -1.177948014086e-04   1.132080794311e-04 
6 1  1.712182180710e-05   7.753450516702e-05  -6.320170377573e-05 
7 1 -1.642972225713e-05  -6.574218563864e-05  -4.740916871325e-05 
8 1  4.181251619331e-06   1.963280863493e-05   2.358059573430e-05 
8
Step 50000
1 1 -2.862573397964e-05  -6.130787189897e-05  -7.916352894903e-05 
2 1 -5.537471695763e-05  -2.712496928679e-05  -5.120060722070e-05 
3 1 -8.794089643746e-05   4.370026573122e-05   1.031647221874e-04 
4 1  3.011386474682e-05   4.525415331275e-05   1.001902689516e-04 
5 1 -4.408537358012e-05  -4.397118461560e-05   1.491071644584e-04 
6 1  5.108792605404e-05   1.440081303376e-04  -4.103381914533e-05 
7 1 -3.060882847613e-05  -3.567683885907e-05  -7.165410415155e-05 
8 1  7.556981818369e-06  -6.540527954988e-05   3.973459248979e-06 
8
Step 51000
1 1  6.622261034651e-06  -7.264591577754e-06  -1.317655398095e-04 
2 1 -5.332848359359e-05   1.132557338122e-05  -6.965223885666e-05 
3 1 -9.291485478523e-05   1.054339256732e-04   4.551175839054e-05 
4 1 -9.603004652443e-07   3.454394596140e-05   5.113384558758e-05 
5 1 -6.809732433006e-05   1.617734597706e-05   1.242968735226e-04 
6 1  7.873229361242e-05   1.441680369510e-04  -5.316622914330e-07 
7 1 -1.653390444995e-05  -2.091313675384e-05  -6.039356225567e-05 
8 1 -1.745893754647e-05  -1.157475695541e-04  -1.359105331868e-05 
8
Step 52000
1 1  5.757855586808e-05   3.401602804890e-05  -1.340516548576e-04 
2 1 -3.828916841844e-05   2.003269890662e-05  -5.261423477034e-05 
3 1 -6.578324872645e-05   1.321464196186e-04  -2.828047888090e-05 
4 1 -2.714515140534e-05   6.433153545583e-06  -1.935142552145e-05 
5 1 -7.808926073161e-05   4.074066542553e-05   7.581864906441e-05 
6 1  8.184388244098e-05   1.037242953094e-04   4.202147808802e-05 
7 1  1.035792830041e-05  -1.356552304439e-05  -2.445601554494e-05 
8 1 -5.451157786014e-05  -1.124551867617e-04  -2.187697814046e-05 
8
Step 53000
1 1  1.030896841057e-04   4.094930040161e-05  -7.845963598672e-05 
2 1 -1.642790907895e-05   1.416001184511e-05  -1.531607651739e-05 
3 1 -2.258180326685e-05   1.036968832756e-04  -7.997742633518e-05 
4 1 -3.833648704938e-05  -3.832669142477e-05  -7.309454323649e-05 
5 1 -6.436720661261e-05   3.431423045800e-05   3.129787426167e-05 
6 1  4.973587237770e-05   5.910419579676e-05   7.009563836518e-05 
7 1  3.062414461897e-05   5.432641725001e-07   2.107854030362e-05 
8 1 -7.797180185597e-05  -5.983677144092e-05  -1.971831009059e-05 
8
Step 54000
1 1  1.139086004597e-04   3.387455599233e-05  -4.124380871340e-06 
2 1  6.860008344074e-06   4.743098280180e-06   2.898902470541e-05 
3 1  1.366604760779e-05   1.067219590580e-05  -8.985390714292e-05 
4 1 -2.455459000285e-05  -1.044684179404e-04  -8.527794994373e-05 
5 1 -7.241337143211e-06   1.305315980590e-05   1.353001813736e-06 