8
Step 0
1 -3.472934504792e+01   2.985585161505e+01   4.552711624413e+01 
1 -3.872914153085e+01   5.183552870333e+01   2.841252880511e+01 
1  6.597310272429e+01   3.473535297890e+01   3.212630301548e+01 
1 -6.209027598665e+01   1.844554586020e+01  -3.110501871492e+01 
1 -4.675834713363e+01   3.854789838996e+01   6.659078998682e+01 
1 -1.328434623653e+01  -5.953552595268e+01  -6.135440417252e+01 
1  6.150941286889e+01  -3.705897999201e+01   2.680974576907e+01 
1  1.897523860070e+01  -3.176705575740e+00  -2.894581516525e+01 
8
Step 1000
1 -5.991641621223e+01   3.924964473691e+01   4.703191100973e+01 
1 -3.261007696601e+01   5.698562857329e+01  -3.355640401305e+00 
1  5.454842692731e+01   4.067652326778e+01   1.584348133759e+01 
1 -3.733819516601e+01   4.667695733947e+01   9.173108116289e+00 
1 -3.816946784117e+01   6.982938478722e+01   6.399861390536e+01 
1 -2.765096672894e+01  -6.741245302090e+01  -6.683718522770e+01 
1  3.126046714639e+01  -4.545785225724e+01   4.087840700947e+01 
1 -5.523665667475e-01  -4.625249217241e+01  -3.036458852885e+01 
8
Step 2000
1 -5.839323849708e+01   4.120192640719e+01   2.634675021860e+01 
1 -8.143631224495e+00   3.209927882799e+01  -3.042524941298e+01 
1  2.323129123867e+01   2.587363038239e+01  -3.298553431685e+00 
1  3.667246260635e+00   5.235511589774e+01   3.565481804391e+01 
1 -6.741294177900e+00   7.283496395488e+01   3.874078164599e+01 
1 -2.988069329249e+01  -4.141510114763e+01  -4.630261052627e+01 
1  2.528419318912e+00  -4.284161659841e+01   2.918781172702e+01 
1 -2.292006559064e+01  -6.132904349173e+01  -2.713762949757e+01 
8
Step 3000
1 -3.215032012698e+01   3.374452040849e+01  -5.623939128027e+00 
1  2.303722018546e+01  -7.097740236377e+00  -4.362679067235e+01 
1 -1.350495373573e+01  -3.297544151366e+00  -2.078946020417e+01 
1  3.174828480258e+01   3.485620789093e+01   4.577332272643e+01 
1  2.520119443020e+01   5.034890367763e+01   3.211344450248e-01 
1 -1.498039332519e+01   3.214338947289e+00  -1.186375387191e+01 
1 -1.403537413426e+01  -2.519059890573e+01  -9.232153859206e-01 
1 -3.855784875455e+01  -4.979719782465e+01  -1.805758536595e+01 
8
Step 4000
1  2.233108575693e+00   1.373817769808e+01  -2.937937176785e+01 
1  4.215099737395e+01  -3.119988108090e+01  -4.265585393244e+01 
1 -3.630921866372e+01  -3.169228212355e+01  -3.269341095074e+01 
1  3.736302816325e+01   4.788619057499e+00   4.492466534360e+01 
1  3.752970262355e+01   1.747135934766e+01  -2.843628787817e+01 
1  1.535425586784e+01   3.231900943114e+01   1.440785729958e+01 
1 -1.952649419925e+01   6.782895100938e+00  -2.902450756011e+01 
1 -4.079352434304e+01  -2.307046244224e+01  -3.378885716643e-01 
8
Step 5000
1  2.176513770155e+01  -2.183068876653e+01  -3.368145741451e+01 
1  4.081685745191e+01  -3.186664391558e+01  -3.175163496887e+01 
1 -4.188698110453e+01  -4.501657059805e+01  -3.618831117836e+01 
1  2.495277610392e+01  -1.837718105824e+01   3.687116370603e+01 
1  3.013849398246e+01  -5.616206979653e+00  -3.743295867042e+01 
1  4.743881107304e+01   3.919657117422e+01   2.151785951980e+01 
1 -1.974892458490e+01   4.093931252851e+01  -3.751464843193e+01 
1 -2.816511145695e+01   3.072505464362e+00   2.794329748625e+01 
8
Step 6000
1  2.200108570819e+01  -6.494825920093e+01  -2.175196268457e+01 
1  2.451029751283e+01  -1.842165916289e+01  -1.736248959372e+01 
1 -3.546646737121e+01  -3.999278789982e+01  -2.763297875135e+01 
1  3.729274852599e-01  -2.437644474583e+01   2.333731213711e+01 
1  1.358956202071e+01  -1.389124695470e+01  -3.213983580353e+01 
1  6.230933706079e+01   3.162551994404e+01   1.577831273468e+01 
1 -1.936828704471e+01   6.032612293807e+01  -2.664256197453e+01 
1 -3.200605536548e+00   1.665278482885e+01   6.233665342072e+01 
8
Step 7000
1  1.045649786915e+01  -9.287088753794e+01  -4.822595402154e+00 
1  6.306672757141e+00  -1.130558488591e+00  -6.029811520818e+00 
1 -2.135354739410e+01  -2.233747599302e+01   8.115171744514e-01 
1 -2.676218715836e+01  -1.790053595594e+01   5.727043533575e+00 
1 -1.022040267353e+00  -1.274500625222e+01  -1.845020871409e+01 
1  5.109798756197e+01   1.385530602286e+01   8.880408335317e+00 
1 -2.030453382513e+01   5.988956426794e+01  -8.573234508925e+00 
1  2.614804542462e+01   1.245312391747e+01   9.013783929284e+01 
8
Step 8000
1 -5.863694748997e+00  -9.437664052167e+01   8.119675175325e+00 
1 -5.529012555053e+00   1.308718894019e+01  -3.825659977673e-01 
1 -3.482246567222e+00  -1.847737054941e+00   4.756555260240e+01 
1 -4.554727928313e+01  -5.595190188549e+00  -1.320761057790e+01 
1 -8.987409433648e+00  -6.083792758398e+00  -2.547720083389e-01 
1  1.708590152846e+01  -8.840205845603e+00   7.510208500465e+00 
1 -2.191373967871e+01   4.574148803575e+01   5.677435855654e+00 
1  4.704074029678e+01  -9.535055981522e+00   9.913149931596e+01 
8
Step 9000
1 -1.936419250429e+01  -7.653782185067e+01   1.494742481531e+01 
1 -1.083985291562e+01   2.020039640600e+01   1.716186646775e+00 
1  1.338726655942e+01   1.424103635677e+01   8.072245674245e+01 
1 -4.831945082674e+01   8.784613756709e+00  -2.927368518798e+01 
1 -1.040231234437e+01   3.387649717823e+00   1.786870966106e+01 
1 -1.858320111735e+01  -2.905356785106e+01   1.166869207713e+01 
1 -2.193385856796e+01   2.704557342901e+01   1.308486159481e+01 
1  5.026769202205e+01  -3.819007635092e+01   7.489715706931e+01 
8
Step 10000
1 -2.195041441110e+01  -5.104888956435e+01   1.550445054520e+01 
1 -1.081833094688e+01   1.839844265862e+01   2.882517163705e+00 
1  2.484932189105e+01   2.343891548414e+01   8.193614982509e+01 
1 -3.144555631787e+01   2.190506619565e+01  -3.832868424373e+01 
1 -6.263194327812e+00   1.240869876921e+01   3.054804637673e+01 
1 -3.557759437287e+01  -4.056120894789e+01   1.825321905676e+01 
1 -1.791072408964e+01   1.063337430927e+01   1.373366510056e+01 
1  3.294751279354e+01  -5.319056830947e+01   6.238025456510e+00 
8
Step 11000
1 -9.251131262983e+00  -2.476212132322e+01   9.759203937453e+00 
1 -6.642190796955e+00   8.514579751513e+00   4.207052325509e+00 
1  2.829477976410e+01   2.503902547087e+01   5.576596861574e+01 
1  8.628869424195e-01   2.947502296501e+01  -3.724609034264e+01 
1  1.765924466865e+00   1.749633946339e+01   3.378615877960e+01 
1 -3.368229907941e+01  -4.021715851229e+01   2.270069793344e+01 
1 -8.037350519685e+00  -1.376656099083e+00   8.565305470525e+00 
1 -4.447196996348e-01  -4.173999196223e+01  -4.170588230393e+01 
8
Step 12000
1  1.534745842701e+01  -6.526938068337e-01  -1.203728497421e+00 
1 -1.375752608859e-01  -5.762901900665e+00   5.708950046348e+00 
1  2.311733880420e+01   1.928296733934e+01   1.998157155417e+01 
1  3.226974095047e+01   2.683713237780e+01  -2.415716409106e+01 
1  1.087264504438e+01   1.573115858222e+01   2.590605705890e+01 
1 -1.886237128400e+01  -2.732320354431e+01   2.055093215640e+01 
1  7.493576743061e+00  -9.560221516179e+00  -7.509512343385e-02 
1 -3.200845452681e+01  -6.884012733024e+00  -5.263930746092e+01 
8
Step 13000
1  3.923996138073e+01   1.853625774242e+01  -1.451177607750e+01 
1  6.505596258318e+00  -1.897673125531e+01   6.878913036109e+00 
1  1.051803696947e+01   8.144079571334e+00  -4.093161957548e+00 
1  4.854291366240e+01   1.067446636248e+01  -1.728284627821e-01 
1  1.770876271996e+01   5.385286892103e+00   8.175627597693e+00 
1  1.360600708188e+00  -4.396182342410e+00   9.618652198396e+00 
1  2.506534380785e+01  -1.447651538266e+01  -8.577796405312e+00 
1 -4.422443701013e+01   2.885381154123e+01  -4.378148837919e+01 
8
Step 14000
1  4.885092008344e+01   2.996069814363e+01  -2.591390675968e+01 
1  1.151097302193e+01  -2.624859462785e+01   7.084189330004e+00 
1 -6.401280604052e+00  -4.883128910338e+00  -1.218398813679e+01 
1  4.775867134369e+01  -1.656936039595e+01   2.767470352350e+01 
1  1.943417967626e+01  -1.286152210937e+01  -1.384614855941e+01 
1  1.864723629453e+01   2.048700330144e+01  -8.398882552219e+00 
1  3.843791977688e+01  -1.609695986407e+01  -1.322844084790e+01 
1 -3.439216208121e+01   4.566829868263e+01  -2.386181790226e+01 
8
Step 15000
1  3.795672209911e+01   3.167308899806e+01  -3.093699853535e+01 
1  1.407211079124e+01  -2.481135842427e+01   5.762251885931e+00 
1 -2.303701779817e+01  -1.607837289723e+01  -9.752314705660e+00 
1  3.335942675964e+01  -4.312926355472e+01   4.910874148605e+01 
1  1.437317468316e+01  -3.401200519992e+01  -3.148032435702e+01 
1  2.738613750642e+01   3.706058219455e+01  -2.754035461388e+01 
1  4.134991337775e+01  -1.424681861374e+01  -1.150530019118e+01 
1 -9.943019975432e+00   4.198700717651e+01  -2.615784327427e+00 
8
Step 16000
1  8.918839785879e+00   2.346642267043e+01  -2.574228859398e+01 
1  1.436250638937e+01  -1.387116298284e+01   2.415662015375e+00 
1 -3.491187340168e+01  -2.289306384199e+01  -3.238741575668e+00 
1  1.174221951128e+01  -5.595353957383e+01   5.765817441289e+01 
1  2.447252375207e+00  -4.919093559577e+01  -3.759598726081e+01 
1  2.600628952518e+01   3.964137184595e+01  -4.019549587265e+01 
1  2.939147670602e+01  -9.001394491161e+00  -2.795048762290e+00 
1  1.446701037144e+01   2.227201993684e+01   1.136598267303e+01 
8
Step 17000
1 -2.305645262558e+01   7.719586207095e+00  -7.571773867649e+00 
1  1.303688728842e+01   5.168898669458e+00  -3.513943631628e+00 
1 -3.905705334187e+01  -2.408629332592e+01   1.491399633450e+00 
1 -8.538543904072e+00  -4.967878503392e+01   5.126118075733e+01 
1 -1.407563923596e+01  -4.933236407134e+01  -2.834724570421e+01 
1  1.594444967750e+01   2.705181257188e+01  -4.079819757296e+01 
1  2.605648229438e+00  -7.389919756215e-01   1.102265214058e+01 
1  2.552170134326e+01  -4.499248616798e+00   1.469636838150e+01 
8
Step 18000
1 -3.956442997543e+01  -1.032605246697e+01   2.266347691793e+01 
1  1.042113232022e+01   2.701845864094e+01  -1.260724848816e+01 
1 -3.368445310953e+01  -1.807648471132e+01   2.928404517966e-01 
1 -2.137389548137e+01  -2.645355705157e+01   2.955184247877e+01 
1 -3.027673353788e+01  -2.727164580653e+01  -1.846406180840e+00 
1  7.310655583615e-01   1.512602781605e-01  -2.670737672054e+01 
1 -2.925028146500e+01   1.028062481177e+01   2.438107868010e+01 
1  1.971747677913e+01  -2.650080669232e+01   8.810168075767e+00 
8
Step 19000
1 -3.636687049284e+01  -2.463096899918e+01   5.457028863998e+01 
1  5.683701564335e+00   4.362352392845e+01  -2.453116230767e+01 
1 -1.814702588125e+01   2.345812429741e-01  -8.194872270630e+00 
1 -2.551813563460e+01   2.568812069126e+00  -5.029746741504e+00 
1 -4.032259901595e+01   1.412345793245e+01   3.678044459357e+01 
1 -1.540677354856e+01  -3.357849816703e+01   7.909245330332e-01 
1 -5.057814137244e+01   2.460258578172e+01   2.771314024232e+01 
1  1.153892089454e+00  -3.594805482687e+01  -1.573208306056e+00 
8
Step 20000
1 -1.941548620075e+01  -3.188346625782e+01   7.279138532777e+01 
1 -3.289054410707e+00   4.939294828553e+01  -3.614140904887e+01 
1  3.241992785083e+00   3.500052948575e+01  -2.193128139297e+01 
1 -2.290739415567e+01   2.202354303900e+01  -4.028695810873e+01 
1 -3.980266891943e+01   4.961443312042e+01   6.823708420969e+01 
1 -2.975903348091e+01  -5.791543372298e+01   3.215105579018e+01 
1 -5.379104534186e+01   4.274207948445e+01   1.187500862606e+01 
1 -2.087155373009e+01  -2.988583902015e+01  -9.965714305812e+00 
8
Step 21000
1  1.358065888173e+00  -3.266918484876e+01   6.835478236678e+01 
1 -1.859500485402e+01   4.308667696082e+01  -4.062328328781e+01 
1  2.213277784476e+01   6.925697497458e+01  -3.573372275296e+01 
1 -1.670305041560e+01   2.612556537039e+01  -6.056922798056e+01 
1 -2.691860542403e+01   6.075074139746e+01   7.588790513624e+01 
1 -4.193857008924e+01  -6.150501131551e+01   5.369309341103e+01 
1 -4.408057594412e+01   6.047827912364e+01  -1.938451845744e+01 
1 -3.544037904528e+01  -1.015523540448e+01  -1.005753583710e+01 
8
Step 22000
1  1.647141048233e+01  -2.878181213813e+01   3.608419139187e+01 
1 -3.882717420604e+01   2.676889989811e+01  -2.916265198756e+01 
1  3.496955625797e+01   8.189576812039e+01  -4.258259622038e+01 
1 -1.018752077929e+01   1.960825077299e+01  -6.547594767747e+01 
1 -4.389347414051e+00   4.923366932490e+01   5.056201808219e+01 
1 -5.208511441245e+01  -4.188221643930e+01   5.996303902007e+01 
1 -2.882805690605e+01   6.676117592394e+01  -4.451685576719e+01 
1 -3.561114693145e+01   1.404740294880e+01   4.391275308464e+00 
8
Step 23000
1  2.046908907498e+01  -2.042506049849e+01  -1.516248451490e+01 
1 -5.636077230213e+01   5.038238325583e+00   3.007978693937e+00 
1  4.275314914309e+01   6.776188286751e+01  -2.813596506104e+01 
1 -5.616767707080e+00   1.007742286091e+01  -5.940914038668e+01 
1  2.016764254053e+01   2.409019106910e+01  -1.427526466638e+01 
1 -5.560669195147e+01  -5.669986943085e+00   5.107024088211e+01 
1 -9.187726058187e+00   4.991864313203e+01  -4.634045850504e+01 
1 -1.892676343457e+01   3.000593920111e+01   3.588203727794e+01 
8
Step 24000
1  1.157467330967e+01  -9.149162732022e+00  -4.824206291007e+01 
1 -6.060640909521e+01  -1.649557588015e+01   4.209754615566e+01 
1  4.578820847103e+01   3.292022069637e+01   2.282518612448e+01 
1 -2.879630826662e+00   2.260513693594e+00  -4.348170831858e+01 
1  3.879422698475e+01  -1.060843661852e+00  -5.983737485151e+01 
1 -4.263507865964e+01   2.614146689069e+01   1.880273348381e+01 
1  1.291279057655e+01   7.993599712855e+00  -2.166463792092e+01 
1  1.211327130709e+01   2.995351092364e+01   6.740869054143e+01 
8
Step 25000
1 -7.946330185953e+00  -7.863909323088e-01  -5.335237966252e+01 
1 -4.243278501828e+01  -3.318017240156e+01   6.357887425553e+01 
1  4.189355328453e+01  -2.726649064643e+00   6.974914932914e+01 
1 -3.648666772026e-01  -2.787559188035e+00  -1.943881253154e+01 
1  4.682338866372e+01  -1.610560611793e+01  -6.298944585590e+01 
1 -1.136345661810e+01   3.776800536360e+01  -3.314909926401e+01 
1  3.255154381633e+01  -3.578769838051e+01   1.589810369779e+01 
1  4.452293492979e+01   1.320481056974e+01   7.534081183253e+01 
8
Step 26000
1 -2.978219321250e+01   3.618116625320e-01  -4.253294509593e+01 
1 -1.609824431123e+00  -4.204202124394e+01   5.938989175964e+01 
1  2.764315531918e+01  -2.304073362954e+01   8.332234753915e+01 
1  3.095070262185e+00  -5.715217516768e+00   6.788065506625e+00 
1  4.194887219956e+01  -2.009013082111e+01  -4.454633353608e+01 
1  2.390750744674e+01   3.126192994575e+01  -6.565263976049e+01 
1  4.431395044006e+01  -5.872278090081e+01   4.099149714930e+01 
1  6.166603651808e+01  -1.304131648253e+01   5.149938027233e+01 
8
Step 27000
1 -4.255924604156e+01  -4.138565284805e+00  -2.393029180583e+01 
1  3.821151982648e+01  -4.104487331511e+01   3.425236320737e+01 
1  2.063667709586e+00  -2.819501832888e+01   6.761008788102e+01 
1  7.537322384191e+00  -7.189764584100e+00   2.767291436788e+01 
1  2.320930540730e+01  -1.615992857845e+01  -1.978767019429e+01 
1  4.620487157570e+01   1.731875298532e+01  -6.868154831583e+01 
1  4.436145054407e+01  -6.113527862190e+01   4.305911974570e+01 
1  5.720956950208e+01  -3.546501413398e+01   8.141036952135e+00 
8
Step 28000
1 -3.792428061028e+01  -7.820508984260e+00  -3.693420131542e+00 
1  5.562238469362e+01  -2.823209571308e+01   2.836181268317e+00 
1 -2.796817030422e+01  -2.411906061645e+01   3.382480445596e+01 
1  1.189911305592e+01  -7.057263820809e+00   3.883273514056e+01 
1 -6.269233432366e+00  -7.782421348756e+00  -2.206062139081e-01 
1  5.167926374235e+01   6.593019569451e+00  -5.060005993503e+01 
1  3.094560514218e+01  -4.754879012332e+01   2.541986980996e+01 
1  3.317695196621e+01  -4.498128493925e+01  -2.557816119885e+01 
8
Step 29000
1 -1.367580237764e+01  -3.991395149975e+00   1.306176815724e+01 
1  5.218677736448e+01  -2.490906084606e+00  -1.830408558510e+01 
1 -5.001987512217e+01  -1.662469156502e+01   8.028518932526e-01 
1  1.428363114085e+01  -4.504733613265e+00   3.901084393921e+01 
1 -3.578995101611e+01   1.495016806023e+00   9.408191849062e+00 
1  4.339130011039e+01   3.527296817178e+00  -2.289977129701e+01 
1  5.813733608196e+00  -2.303170450747e+01  -1.237471450770e+00 
1 -3.061882045517e-04  -3.987024833613e+01  -3.800428177316e+01 
8
Step 30000
1  2.069764652938e+01   1.025358351146e+01   2.339669739535e+01 
1  3.426069293288e+01   3.161112100063e+01  -2.534197321305e+01 
1 -5.620961762709e+01  -9.695967597994e+00  -1.989263106417e+01 
1  1.243430183463e+01   1.133052999227e+00   2.841673792890e+01 
1 -5.350741213078e+01   7.955352705374e+00   1.033604163080e+01 
1  2.574651002707e+01   6.380160202842e+00   1.217675790800e+00 
1 -2.252040805083e+01   3.548840621124e+00  -2.266115119373e+01 
1 -2.491342489406e+01  -2.190779560945e+01  -3.124188587066e+01 
8
Step 31000
1  4.593972413610e+01   3.055983862353e+01   2.609181257482e+01 
1  9.688306104030e+00   6.046320588112e+01  -2.218167620303e+01 
1 -4.474995491121e+01  -4.518323979930e+00  -2.804019942243e+01 
1  4.420938303985e+00   9.707279052866e+00   9.039691606671e+00 
1 -5.494271307560e+01   8.456815080206e+00   6.883627490249e+00 
1  4.779126521595e+00   1.038592494255e+01   1.497356263647e+01 
1 -4.191998182493e+01   2.307008718930e+01  -3.082099862051e+01 
1 -3.358538195849e+01   4.894191350367e+00  -1.141392667233e+01 
8
Step 32000
1  5.164322016285e+01   4.525172236815e+01   2.095358819488e+01 
1 -1.212703018104e+01   7.141190476328e+01  -1.295303008096e+01 
1 -1.761427721207e+01   4.195940372325e-01  -2.537262740858e+01 
1 -1.049543490284e+01   1.953618209738e+01  -1.385898765526e+01 
1 -4.281712498464e+01   1.939806045458e+00   3.866517585804e+00 
1 -1.285631091617e+01   1.072978154300e+01   1.937149972913e+01 
1 -4.607740005840e+01   3.141389905630e+01  -2.506767774370e+01 
1 -3.051891392568e+01   3.248286854811e+01   1.065408614701e+01 
8
Step 33000
1  3.876729253981e+01   4.282111928295e+01   9.229433773090e+00 
1 -2.445501577660e+01   6.026363493279e+01  -1.034645552863e+00 
1  1.658559018047e+01   7.831582156622e+00  -1.368179106412e+01 
1 -3.104764879475e+01   2.648864119826e+01  -3.241421859298e+01 
1 -2.550790989731e+01  -9.720765078453e+00   4.445338305781e+00 
1 -2.284035119979e+01   4.143883858612e+00   1.816711105185e+01 
1 -3.647157308678e+01   2.862267836079e+01  -9.114446487940e+00 
1 -2.389591110186e+01   5.098953345757e+01   2.489056875329e+01 
8
Step 34000
1  1.473410339155e+01   1.835275600549e+01  -5.936282001381e+00 
1 -2.456452174299e+01   2.917304972917e+01   1.053163992416e+01 
1  4.222944258734e+01   1.967762755962e+01   3.614304237578e+00 
1 -5.348967016548e+01   2.426766519103e+01  -4.035739282514e+01 
1 -9.779295262544e+00  -2.229728918833e+01   9.184773077887e+00 
1 -2.444339589312e+01  -1.039472848197e+01   1.469880248938e+01 
1 -1.994083190716e+01   1.706506414044e+01   9.415413940321e+00 
1 -1.935488196592e+01   5.460399169210e+01   2.781352438356e+01 
8
Step 35000
1 -8.124148456292e+00  -1.840009906290e+01  -2.012171449139e+01 
1 -1.287022574206e+01  -7.223950064872e+00   1.904635448171e+01 
1  5.040253963929e+01   3.592399876776e+01   2.104779400865e+01 
1 -7.075211068297e+01   6.958219116236e+00  -3.751422983623e+01 
1  3.683367244048e+00  -3.005575347618e+01   1.611500542135e+01 
1 -1.956361722131e+01  -3.000884225322e+01   1.078699394032e+01 
1 -4.543866812996e+00   1.184416121800e+00   2.172761751157e+01 
1 -1.741397616091e+01   4.133504105729e+01   2.137044015807e+01 
8
Step 36000
1 -2.087408649570e+01  -4.453166244055e+01  -2.909068234022e+01 
1  6.071253915016e+00  -2.878958689865e+01   2.223107696801e+01 
1  4.391083184204e+01   5.213074149148e+01   3.303122382308e+01 
1 -6.893271064864e+01  -2.374312728342e+01  -2.819398867583e+01 
1  1.456855150124e+01  -2.476010761016e+01   2.040476224046e+01 
1 -1.134468286153e+01  -4.664123875725e+01   6.457708070363e+00 
1  6.044111428595e+00  -1.355120403874e+01   2.257762643295e+01 
1 -1.437892471470e+01   1.195884657858e+01   9.857362986134e+00 
8
Step 37000
1 -2.284962624893e+01  -4.756411167306e+01  -2.914839570735e+01 
1  2.337085127048e+01  -3.187325570913e+01   1.839385798300e+01 
1  2.998239883085e+01   5.745441432748e+01   3.569984574511e+01 
1 -3.071533119381e+01  -5.274313685419e+01  -1.538920046117e+01 
1  2.093074729689e+01  -1.170244902411e+00   1.371121899518e+01 
1 -3.010880074827e+00  -5.064416645116e+01  -3.784573075333e-01 
1  1.160850750888e+01  -2.315870223151e+01   1.222151848465e+01 
1 -4.459907273451e+00  -2.352348195270e+01  -2.411891148295e+00 
8
Step 38000
1 -1.760562342740e+01  -2.792778185739e+01  -1.466785930054e+01 
1  3.104854528321e+01  -2.356903886494e+01   7.031254832418e+00 
1  1.570093800553e+01   4.119970864630e+01   2.665036073707e+01 
1  2.428773235177e+01  -6.521856263730e+01   1.353481861882e-02 
1  2.049046049000e+01   2.861034809129e+01  -8.083176975865e+00 
1  3.159257872819e+00  -3.596143190410e+01  -1.633663990890e+01 
1  1.202647164634e+01  -2.684954519915e+01  -3.401272009297e+00 
1  1.740793520471e+01  -4.810062792401e+01  -1.305980263818e+01 
8
Step 39000
1 -9.703909753799e+00   3.581338308004e+00   2.069583617094e+01 
1  2.694252575552e+01  -1.218369768367e+01  -9.812833081690e+00 
1  4.935861118133e+00   5.821803419154e+00   3.752676432026e+00 
1  5.680460838702e+01  -5.687366117722e+01   1.670201666089e+01 
1  1.226184867173e+01   4.537699891823e+01  -3.482259602151e+01 
1  6.655982542681e+00  -5.810665603748e+00  -5.046918246792e+01 
1  6.954611224577e+00  -2.656421423073e+01  -1.485505868508e+01 
1  4.779433115854e+01  -5.416179635603e+01  -2.224366505292e+01 
8
Step 40000
1 -3.623058155819e+00   2.732464111200e+01   6.302019081651e+01 
1  1.357438487596e+01  -3.849953283198e+00  -2.662518161378e+01 
1 -2.707705160871e+00  -2.819729543121e+01  -3.437132526565e+01 
1  6.394031922108e+01  -3.054699314731e+01   3.126055761710e+01 
1 -1.972189269613e+00   4.085942314878e+01  -5.053233634551e+01 
1  9.263409186023e+00   2.338808898530e+01  -9.039782396972e+01 
1 -2.954995761478e+00  -2.560533994146e+01  -1.601949924528e+01 
1  7.039345834852e+01  -4.317861142147e+01  -3.077369933869e+01 
8
Step 41000
1 -2.320430380463e+00   3.216682065856e+01   8.356832883193e+01 
1 -4.303658998343e+00  -9.840856525019e-01  -3.627268457158e+01 
1 -9.787997383109e+00  -4.487339245925e+01  -7.712144215336e+01 
1  5.100266475502e+01   2.398294544414e+00   3.852137163008e+01 
1 -1.718635789081e+01   1.737411796083e+01  -4.367590969678e+01 
1  1.465719691745e+01   3.732480089010e+01  -1.094684793424e+02 
1 -1.484788537485e+01  -2.707323796154e+01  -7.554197095249e+00 
1  7.024841297208e+01  -1.953637328627e+01  -3.737812922582e+01 
8
Step 42000
1 -5.530200888324e+00   1.963681115606e+01   7.343052001932e+01 
1 -2.227246441938e+01  -2.536060924299e+00  -3.291007682554e+01 
1 -1.774714564271e+01  -4.419032911261e+01  -9.887608622137e+01 
1  2.404230872138e+01   2.679293603685e+01   3.341004813803e+01 
1 -2.659458643247e+01  -1.288645230808e+01  -1.100893633593e+01 
1  2.564845662552e+01   3.458286306929e+01  -9.692444300774e+01 
1 -2.362833598832e+01  -3.026568351379e+01   5.115692495652e+00 
1  4.208198028922e+01   8.636676972347e+00  -3.836870597816e+01 
8
Step 43000
1 -9.009693837303e+00  -1.927749685074e+00   3.897609088551e+01 
1 -3.698494213683e+01  -5.104509153134e+00  -1.383167226225e+01 
1 -2.520879498346e+01  -3.283573843626e+01  -8.306486926873e+01 
1 -5.833706784308e+00   3.618356553766e+01   1.359377032813e+01 
1 -2.379336931894e+01  -3.363670472269e+01   3.019405898377e+01 
1  4.007141664003e+01   2.098590993837e+01  -5.568554004376e+01 
1 -2.347834865182e+01  -2.736373653842e+01   1.505173652483e+01 
1 -1.022352724705e+00   3.032486868299e+01  -3.006177942921e+01 
8
Step 44000
1 -6.426585872363e+00  -2.104939000539e+01   2.491475165267e+00 
1 -4.331629197506e+01  -4.257706338123e+00   1.552006788553e+01 
1 -2.861671242969e+01  -1.859129812971e+01  -2.640556486441e+01 
1 -2.806199597903e+01   3.334918669920e+01  -1.591330995350e+01 
1 -2.931191672501e+00  -3.745931178587e+01   5.342086354533e+01 
1  5.003876842953e+01   4.587878607449e+00  -1.155059970017e+01 
1 -9.708792600196e+00  -9.406124448884e+00   1.773198473285e+01 
1 -3.045385216796e+01   3.869048092288e+01  -1.116627960760e+01 
8
Step 45000
1  7.119870119892e+00  -3.000440912127e+01  -1.756747357222e+01 
1 -3.469808247645e+01   4.373501545427e+00   3.956419388377e+01 
1 -2.410655265316e+01  -7.197513186053e+00   2.165552701588e+01 
1 -3.945217598326e+01   2.524361333615e+01  -4.122724144461e+01 
1  3.688276961725e+01  -2.615832934947e+01   5.321297845024e+01 
1  4.565830792385e+01  -8.468393000095e+00   1.508951172001e+01 
1  1.792484193645e+01   2.243074765199e+01   1.265718082204e+01 
1 -3.745380636735e+01   3.296005020060e+01   1.499229773656e+01 
8
Step 46000
1  3.145384161241e+01  -2.709620586203e+01  -2.258562224289e+01 
1 -9.180359923201e+00   2.434002517892e+01   4.569985596906e+01 
1 -9.634714352859e+00  -1.912366806967e-01   3.358074881335e+01 
1 -4.039845315216e+01   1.728175933331e+01  -5.065659307583e+01 
1  7.432347930897e+01  -6.648375917058e+00   3.379562374361e+01 
1  1.983399460526e+01  -1.598855361961e+01   3.070536424031e+01 
1  4.925419527949e+01   5.243563697385e+01   2.149937637011e+00 
1 -2.778597739332e+01   1.555097171591e+01   4.014347881838e+01 
8
Step 47000
1  5.692487035498e+01  -1.411344801577e+01  -1.799772165372e+01 
1  2.173037567395e+01   5.542196667609e+01   3.089196669698e+01 
1  1.245348104688e+01   4.037266000917e+00   2.593887869357e+01 
1 -3.126021817790e+01   1.064030201482e+01  -4.321894260550e+01 
1  8.400922572988e+01   1.146600483604e+01   4.327951819006e+00 
1 -2.108447067638e+01  -1.841885419394e+01   4.066486482020e+01 
1  6.793842252781e+01   6.538260130812e+01  -1.055015237096e+01 
1 -1.097895128151e+01  -8.055205320791e+00   5.623505531014e+01 
8
Step 48000
1  6.815098488581e+01   4.573040315900e+00  -8.159294415859e+00 
1  4.089906178974e+01   8.504715899994e+01   1.657442604797e+00 
1  3.409215390749e+01   7.636528944612e+00   1.048130150896e+01 
1 -1.318837790425e+01   4.717339074798e+00  -2.726567551962e+01 
1  6.088778440723e+01   2.091270783377e+01  -2.131397283075e+01 
1 -5.345392019456e+01  -1.642353894431e+01   4.430907930960e+01 
1  6.404829998126e+01   5.696369744601e+01  -2.258676504113e+01 
1  1.426252000227e+00  -2.945986075558e+01   5.933704162238e+01 
8
Step 49000
1  5.272180186844e+01   2.261699146242e+01   2.500691196298e+00 
1  4.121287311114e+01   9.245639197008e+01  -2.577325037640e+01 
1  4.575637074417e+01   1.229031236986e+01  -1.918782117838e+00 
1  9.765358617673e+00  -1.026772720516e+00  -1.190195538780e+01 
1  1.699076063796e+01   2.025967330345e+01  -3.397154184560e+01 
1 -6.436009030452e+01  -9.589953364113e+00   3.829130537178e+01 
1  3.635441589063e+01   3.063580564904e+01  -3.123912933381e+01 
1  1.600584102795e+00  -4.150177892122e+01   4.778700197097e+01 
8
Step 50000
1  7.131588656287e+00   3.431149438507e+01   9.702577139188e+00 
1  2.458394962076e+01   6.190479671807e+01  -3.975126896618e+01 
1  4.167195248050e+01   1.873782149546e+01  -4.516818265161e+00 
1  3.045701064343e+01  -6.571046068586e+00   2.728142894071e-01 
1 -1.321618106519e+01   1.247855185345e+01  -3.162781555505e+01 
1 -5.572550018883e+01   1.941389369556e+00   1.960071088122e+01 
1 -1.015194235178e+00  -8.224586814143e-01  -3.331635389339e+01 
1 -1.073894651946e+01  -4.062450937433e+01   2.119417296734e+01 
8
Step 51000
1 -3.843686055174e+01   3.675929164705e+01   1.062118123635e+01 
1 -4.102583296872e-01   3.691647026712e+00  -4.047258169981e+01 
1  2.076345555275e+01   2.521897748011e+01   2.472505972344e+00 
1  4.186630279693e+01  -1.105257163834e+01   8.271931577680e+00 
1 -2.146736278133e+01   2.135273226123e+00  -1.678928052087e+01 
1 -3.324413249564e+01   1.511070543853e+01  -9.034961689408e+00 
1 -2.665835056137e+01  -2.216248535371e+01  -2.457318616531e+01 
1 -2.879210247958e+01  -2.482497063896e+01  -1.433133356788e+01 
8
Step 52000
1 -5.442146034767e+01   2.972844369418e+01   4.913439607171e+00 
1 -2.117574392588e+01  -3.290174730182e+01  -3.205377026568e+01 
1 -9.908070064840e+00   2.686835265014e+01   1.312117100079e+01 
1  4.057533869444e+01  -1.289488967278e+01   1.041329076978e+01 
1 -2.000314047861e+01  -5.819456205393e+00   3.710932618798e+00 
1 -6.163518571699e+00   2.565522532439e+01  -3.626519024277e+01 
1 -3.709304471626e+01  -2.967700476598e+01  -7.193844393639e-02 
1 -4.218575567675e+01   4.302002523394e+00  -4.347695271301e+01 
8
Step 53000
1 -4.830036016040e+01   1.550437307438e+01  -5.046034864227e+00 
1 -2.955198480428e+01  -4.322764461071e+01  -1.829489762631e+01 
1 -3.483297551535e+01   1.829957154897e+01   1.869048332263e+01 
1  2.828038575352e+01  -1.049417216900e+01   6.129864614304e+00 
1 -1.475008173928e+01  -7.135367778491e+00   2.074273709410e+01 
1  1.601752037215e+01   3.062185198863e+01  -5.103756284269e+01 
1 -3.494780694816e+01  -2.835225835340e+01   3.752291105369e+01 
1 -4.203817541771e+01   3.406069577995e+01  -5.604729976308e+01 
8
Step 54000
1 -2.956453579147e+01  -5.164550437324e-01  -1.453956489520e+01 
1 -2.446653437521e+01  -3.840020000007e+01  -1.938021418136e+00 
1 -4.414774234140e+01  -2.716802394811e+00   1.159300800276e+01 
1  1.200116557930e+01  -3.018017257160e+00  -2.660464862456e+00 
1 -8.239237102326e+00  -5.904764443175e-01   2.777511103523e+01 
1  2.947730037526e+01   2.868312101441e+01  -5.030550216978e+01 
1 -2.074995878342e+01  -2.370029732154e+01   6.859140737516e+01 
1 -2.330158104486e+01   4.923918490154e+01  -5.322782416971e+01 
8
Step 55000
1 -5.975173530727e+00  -1.267665446544e+01  -1.774620012696e+01 
1 -8.793480582426e+00  -2.401652736010e+01   1.495849452530e+01 
1 -3.779553353175e+01  -3.125196893225e+01  -1.276973797650e+01 
1 -8.774923963555e-01   8.771322797877e+00  -1.158965966641e+01 
1 -1.679363901569e+00   1.022343482638e+01   2.280608838532e+01 
1  3.480622631480e+01   1.954495413262e+01  -3.688262334848e+01 
1  2.368427997563e+00  -1.871141649431e+01   7.589976587716e+01 
1  1.169881637824e+01   4.495517296242e+01  -4.015482234909e+01 
8
Step 56000
1  1.354232260321e+01  -1.905204740478e+01  -9.617082032576e+00 
1  1.260780706754e+01  -6.084217547034e+00   3.047290898026e+01 