8
Step 0
1 -3.472934504792e+01   2.985585161505e+01   4.552711624413e+01 
1 -3.872914153085e+01   5.183552870333e+01   2.841252880511e+01 
1  6.597310272429e+01   3.473535297890e+01   3.212630301548e+01 
1 -6.209027598665e+01   1.844554586020e+01  -3.110501871492e+01 
1 -4.675834713363e+01   3.854789838996e+01   6.659078998682e+01 
1 -1.328434623653e+01  -5.953552595268e+01  -6.135440417252e+01 
1  6.150941286889e+01  -3.705897999201e+01   2.680974576907e+01 
1  1.897523860070e+01  -3.176705575740e+00  -2.894581516525e+01 
8
Step 1000
1 -6.044653492896e+01   3.918019327192e+01   4.702514766613e+01 
1 -3.267667996066e+01   5.697694955833e+01  -3.995345323503e+00 
1  5.464728355476e+01   4.064346482681e+01   1.590557230409e+01 
1 -3.731490797349e+01   4.734791406964e+01   1.095627151290e+01 
1 -3.825581293225e+01   7.091652870772e+01   6.402806522355e+01 
1 -2.761108881588e+01  -6.742132979634e+01  -6.682342660158e+01 
1  3.080683642926e+01  -4.539295573430e+01   4.093631613773e+01 
1 -5.396264530029e-01  -4.892689418850e+01  -3.034929496870e+01 
8
Step 2000
1 -5.997642654896e+01   4.085947611217e+01   2.705343347918e+01 
1 -9.051026066113e+00   3.262212542830e+01  -3.514736677258e+01 
1  2.363360704758e+01   2.630167514387e+01  -2.985375955423e+00 
1  7.068453136751e+00   5.475353486071e+01   4.545927482805e+01 
1 -7.342694523048e+00   7.631191255412e+01   3.959637488125e+01 
1 -2.957187328308e+01  -4.182127982745e+01  -4.690241703207e+01 
1 -1.438608810460e+00  -4.263804338888e+01   2.947857588821e+01 
1 -2.330150834643e+01  -7.211946212112e+01  -2.723494094218e+01 
8
Step 3000
1 -3.377564184957e+01   3.380057495547e+01  -3.429884057953e+00 
1  2.173092243428e+01  -7.802778396769e+00  -5.461463732626e+01 
1 -1.703188210670e+01  -4.673194028879e-01  -2.018451401479e+01 
1  4.699133224847e+01   3.768652300247e+01   6.440568749178e+01 
1  2.702231147945e+01   5.321129703572e+01   9.283775332595e-01 
1 -1.488228054111e+01   5.791278368841e+00  -1.364997627729e+01 
1 -2.406902299210e+01  -2.595793499602e+01   3.060234752914e-01 
1 -4.056937294039e+01  -6.452675010919e+01  -1.928446980431e+01 
8
Step 4000
1  5.332098807842e+00   1.796752349674e+01  -2.852464439612e+01 
1  4.411219197723e+01  -4.090810285556e+01  -5.677728479715e+01 
1 -5.125928902025e+01  -2.628057702334e+01  -3.166554123487e+01 
1  6.255441870084e+01   4.450264442813e+00   6.720471194241e+01 
1  4.473344764925e+01   1.276988174977e+01  -3.588761685774e+01 
1  1.292998371711e+01   4.889929560149e+01   1.549297549097e+01 
1 -3.321383186979e+01   2.508947274732e+00  -2.896254621529e+01 
1 -4.475830720734e+01  -3.309191010010e+01  -5.833985463325e+00 
8
Step 5000
1  3.761662328984e+01  -5.168556461296e+00  -3.667581538750e+01 
1  4.712892166077e+01  -5.031283793882e+01  -4.222954265917e+01 
1 -6.716016063940e+01  -3.935563261101e+01  -3.469919561373e+01 
1  4.957695584259e+01  -2.804322537252e+01   5.681022523903e+01 
1  3.739317881547e+01  -2.503746517133e+01  -5.617061710425e+01 
1  4.235296737058e+01   6.678582277965e+01   2.855401209216e+01 
1 -3.150632118404e+01   3.386880722885e+01  -4.115172724369e+01 
1 -3.315328345798e+01   3.947851124804e+00   1.240080014649e+01 
8
Step 6000
1  4.982084915999e+01  -3.169312482099e+01  -2.601632772859e+01 
1  2.977841367298e+01  -3.530306057037e+01  -1.730954934374e+01 
1 -6.210434187246e+01  -3.481404808500e+01  -2.835905934245e+01 
1  1.683414190674e+01  -4.420308345608e+01   3.715005440055e+01 
1  1.037228475527e+01  -4.474099681170e+01  -5.507111157301e+01 
1  5.926455751738e+01   5.679610575881e+01   2.482119142145e+01 
1 -2.436353843824e+01   5.600944024053e+01  -2.941334267577e+01 
1 -9.319160284407e+00   2.757055855149e+01   3.187649421808e+01 
8
Step 7000
1  4.136979901151e+01  -5.508460722145e+01  -3.550363944139e+00 
1  1.047489020471e+00  -7.540824122427e+00   7.822443828184e+00 
1 -4.081066312005e+01  -1.511543062727e+01  -1.391789093298e+01 
1 -1.874017776005e+01  -3.856841897945e+01   1.253809211966e+01 
1 -2.076714638440e+01  -4.363764685838e+01  -3.700516347242e+01 
1  5.455477681859e+01   2.808411560196e+01   1.230622307874e+01 
1 -1.668975947713e+01   6.040091311585e+01   5.780781755836e-01 
1  1.752584483053e+01   2.995575879382e+01   4.672743318294e+01 
8
Step 8000
1  2.096022998277e+01  -6.782827033292e+01   1.866757881118e+01 
1 -2.417060523005e+01   1.634406721513e+01   2.410452230434e+01 
1 -1.274574768511e+01   1.149833495539e+01   4.945858987614e+00 
1 -4.164685130222e+01  -1.629165771611e+01  -1.232255999886e+01 
1 -3.966800454901e+01  -2.803752204957e+01  -1.232495405979e+01 
1  2.780591389740e+01  -4.849880327719e+00   1.794458221113e+00 
1 -1.093387840198e+01   4.563069160862e+01   3.282017293869e+01 
1  3.652725425117e+01   1.509068272292e+01   5.095685559092e+01 
8
Step 9000
1  7.835263453732e-01  -6.358653520707e+01   2.996455262599e+01 
1 -3.432005685799e+01   2.528524079414e+01   2.814031712222e+01 
1  1.183651605866e+01   3.428581847359e+01   2.278426385690e+01 
1 -4.514405986346e+01   1.012788972275e+01  -3.272523516689e+01 
1 -3.937853181482e+01  -7.723427261134e+00   7.695656631463e+00 
1 -1.095931545605e+01  -2.939277760372e+01   3.081695249198e-01 
1 -6.802489833597e+00   1.774726231844e+01   5.039714095877e+01 
1  4.073146831406e+01  -5.522093286389e+00   4.049677342303e+01 
8
Step 10000
1 -1.033463811045e+01  -3.875029859152e+01   2.625457353469e+01 
1 -2.781996517374e+01   1.870895300455e+01   2.252195449486e+01 
1  2.657438924543e+01   4.491024733994e+01   3.391229794787e+01 
1 -3.009387097048e+01   2.780604435283e+01  -4.476850517136e+01 
1 -2.371845364801e+01   8.579166590072e+00   1.670587438074e+01 
1 -4.399830730309e+01  -3.968879829641e+01   7.640827209704e+00 
1 -2.412335636712e+00  -1.144721056552e+01   4.638411279047e+01 
1  2.957491516412e+01  -1.852242937045e+01   1.447404456558e+01 
8
Step 11000
1 -1.098334480516e+01   4.477540881077e+00   1.078703992349e+01 
1 -1.236261043413e+01   3.895763784697e+00   1.296413343050e+01 
1  3.030650857360e+01   4.028403447586e+01   3.381064985770e+01 
1 -3.022395567597e+00   3.075345703997e+01  -4.610856561012e+01 
1 -2.871856958116e+00   1.620400916446e+01   1.521039912874e+01 
1 -5.770452426491e+01  -3.554500925604e+01   1.741409389818e+01 
1  4.041106036337e+00  -3.054792600820e+01   2.572767668950e+01 
1  8.455083609759e+00  -1.523128018405e+01  -2.311963949530e+01 
8
Step 12000
1 -6.254202519044e+00   5.298139541525e+01  -8.322874330278e+00 
1  7.995443577570e-01  -9.441977395549e+00   4.801628965303e+00 
1  2.543198966916e+01   2.220222727835e+01   1.978601566347e+01 
1  2.543651518789e+01   2.078583024491e+01  -3.654087656794e+01 
1  1.314081457502e+01   1.486629945813e+01   8.447240413007e+00 
1 -5.059379306971e+01  -2.036990807612e+01   2.149454585368e+01 
1  1.309819504992e+01  -3.540523583621e+01   6.867826388685e-01 
1 -1.326989742785e+01   4.470262165932e+00  -6.214795431146e+01 
8
Step 13000
1 -3.842974943703e+00   8.674941802511e+01  -2.263398098797e+01 
1  4.586308228186e+00  -1.461603988861e+01   6.090928564348e-01 
1  1.601308115873e+01  -3.809078259383e+00  -7.500868981829e+00 
1  4.478934016710e+01   3.953191964709e+00  -1.854972064138e+01 
1  1.965348046401e+01   7.475167742066e+00   3.058693324466e+00 
1 -3.044755308391e+01  -6.929186991640e-03   1.516660385745e+01 
1  2.363547803339e+01  -2.990702978169e+01  -1.740937258019e+01 
1 -2.636522412680e+01   3.121063380908e+01  -8.965347138206e+01 
8
Step 14000
1 -9.093131820304e+00   9.337060765537e+01  -2.763189839645e+01 
1 -6.615845615120e-02  -1.044658352385e+01  -1.066279637660e-01 
1  6.186401177889e+00  -2.983405287514e+01  -4.031238240093e+01 
1  4.879077914759e+01  -1.334675991918e+01   2.732164733484e+00 
1  1.749119669668e+01  -1.350436258380e+00   3.971631840682e+00 
1 -7.904029845552e+00   1.913155839641e+01  -2.274260665592e-01 
1  3.300410395573e+01  -2.133803583455e+01  -2.411946696424e+01 
1 -2.587909428291e+01   4.977803523770e+01  -9.541754644973e+01 
8
Step 15000
1 -2.141673252633e+01   7.280155394874e+01  -2.364455864221e+01 
1 -6.558853470628e+00  -3.713200902818e-01   5.685615440149e-01 
1 -1.219920847199e+00  -4.819238418084e+01  -6.411002430098e+01 
1  3.648954114596e+01  -2.654972385565e+01   2.107539954549e+01 
1  1.016935589417e+01  -6.990062120768e+00   1.184834670410e+01 
1  9.254765682348e+00   3.229596545164e+01  -1.809588602540e+01 
1  3.749814376116e+01  -1.500913847519e+01  -2.071518218827e+01 
1 -1.273188810371e+01   4.719826742383e+01  -7.329341244470e+01 
8
Step 16000
1 -3.413155241942e+01   3.485755116198e+01  -1.393509455745e+01 
1 -8.022359923547e+00   9.994227628487e+00   7.795948948776e-01 
1 -5.531140227442e+00  -5.393322759885e+01  -6.637160386325e+01 
1  1.191265087374e+01  -3.276915497717e+01   3.156224820900e+01 
1  1.426703500683e+00  -6.579897404432e+00   2.226772049444e+01 
1  1.808447009872e+01   3.739766411490e+01  -3.015050789247e+01 
1  3.316124736495e+01  -1.193222802976e+01  -1.101560871615e+01 
1  6.633669157499e+00   1.948285040995e+01  -2.346249499480e+01 
8
Step 17000
1 -3.800306595876e+01  -4.185501053723e+00  -2.194408617685e+00 
1 -1.660537370915e+00   1.561886523781e+01  -1.981482470605e-01 
1 -8.196872020457e+00  -4.527997859056e+01  -4.423317064454e+01 
1 -1.689848103241e+01  -2.970209773371e+01   3.201387697302e+01 
1 -6.109702274232e+00  -2.701283585082e-01   2.800766685641e+01 
1  1.925842967098e+01   3.441436778225e+01  -3.067232149035e+01 
1  1.715392320109e+01  -9.884965493880e+00   3.315186426963e-01 
1  2.244148576017e+01  -2.383864055046e+01   3.720340023585e+01 
8
Step 18000
1 -2.663956052909e+01  -3.125708911161e+01   9.120362408129e+00 
1  1.009247944544e+01   1.413768101684e+01  -2.044670198210e+00 
1 -1.169734223343e+01  -2.381085022439e+01  -7.195522456997e+00 
1 -4.085151819676e+01  -1.577559935628e+01   2.309332265758e+01 
1 -1.127848553543e+01   8.589191102914e+00   2.308257394211e+01 
1  1.538146405782e+01   2.410007851436e+01  -1.889456174765e+01 
1 -9.933369949695e+00  -6.233369550275e+00   9.014235228389e+00 
1  2.587534976874e+01  -6.230968422046e+01   7.935305986137e+01 
8
Step 19000
1 -9.407923593191e-01  -4.264478452173e+01   1.885246917495e+01 
1  2.104513608654e+01   6.585785631471e+00  -3.823671025180e+00 
1 -1.756548115013e+01   4.422345084405e+00   2.672831517223e+01 
1 -5.338363604947e+01   7.461363113310e+00   7.906325424758e+00 
1 -1.397163881917e+01   1.473736712941e+01   6.540676126730e+00 
1  9.497711096506e+00   7.373085014726e+00   7.625530214919e-01 
1 -4.174165462485e+01  -3.436943525471e-01   1.223282571873e+01 
1  1.303428413803e+01  -7.869152742696e+01   8.781145789587e+01 
8
Step 20000
1  2.964468621102e+01  -4.056072953220e+01   2.607452358013e+01 
1  2.455735137069e+01  -3.342051528271e+00  -4.492291623213e+00 
1 -2.457513367278e+01   3.007677971761e+01   4.355902672155e+01 
1 -5.170415700665e+01   3.328663142465e+01  -8.757400937970e+00 
1 -1.433189573826e+01   1.349307995027e+01  -1.561818743607e+01 
1  3.786616703980e+00  -1.388726938726e+01   2.036434597868e+01 
1 -6.724547622765e+01   6.218588306980e+00   9.531389938016e+00 
1 -1.267498217866e+01  -6.719370751203e+01   6.700779672656e+01 
8
Step 21000
1  5.176512417130e+01  -2.933611955470e+01   2.914369195334e+01 
1  1.722662424533e+01  -1.122211743909e+01  -3.448963480060e+00 
1 -2.841590906141e+01   4.513292929562e+01   4.075033686515e+01 
1 -3.628018652411e+01   5.186507281272e+01  -2.182639515542e+01 
1 -1.211442946484e+01   3.336791023177e+00  -3.316282545616e+01 
1 -1.105247206832e+00  -3.570849698992e+01   3.211221786897e+01 
1 -7.604942406086e+01   1.119699010207e+01   2.887542645549e+00 
1 -3.998945421459e+01  -3.276811311425e+01   3.316906903548e+01 
8
Step 22000
1  5.590033449768e+01  -1.419330902600e+01   2.573270352907e+01 
1  9.289719982523e-01  -1.405361462034e+01  -8.469185604912e-01 
1 -2.347272351536e+01   4.629850250019e+01   2.509391434771e+01 
1 -1.075636038077e+01   5.503419588353e+01  -2.754402796712e+01 
1 -6.680472072149e+00  -1.259963451566e+01  -3.780870362539e+01 
1 -5.758362026566e+00  -5.218394405269e+01   3.178715224366e+01 
1 -6.250861347110e+01   1.313588386384e+01  -4.117466832079e+00 
1 -5.427063299123e+01   9.583449130325e+00   5.082181910915e+00 
8
Step 23000
1  4.014095793168e+01  -2.621034495499e-01   1.414398704905e+01 
1 -1.764322263926e+01  -1.154972404850e+01   2.447620179275e+00 
1 -6.320623427836e+00   3.509482394451e+01   7.638460072319e+00 
1  1.786397256602e+01   3.997445906761e+01  -2.446269903675e+01 
1  2.270478301981e+00  -2.719320448564e+01  -2.737250993696e+01 
1 -1.084924264373e+01  -5.707316875014e+01   1.991055544922e+01 
1 -2.770185570189e+01   1.193830325628e+01  -7.859776844751e+00 
1 -4.495481020804e+01   4.226150952716e+01  -8.693403191478e+00 
8
Step 24000
1  1.071434783061e+01   8.894155538710e+00  -4.577342898612e+00 
1 -3.009042932685e+01  -6.047053355959e+00   5.229335016457e+00 
1  2.051486912543e+01   1.660794866621e+01  -2.531668644155e+00 
1  4.099964846641e+01   1.124486860860e+01  -1.371738707725e+01 
1  1.364900286031e+01  -3.249690989474e+01  -6.445647855867e+00 
1 -1.594809430202e+01  -4.593518752556e+01   1.133180423532e+00 
1  1.758711719590e+01   8.547329674492e+00  -6.294764748716e+00 
1 -1.066071701475e+01   5.594894549921e+01  -1.101296540558e+01 
8
Step 25000
1 -1.989513089811e+01   1.233230268338e+01  -2.541948148005e+01 
1 -3.054691134602e+01  -1.017193313042e+00   6.533392057241e+00 
1  4.748067992462e+01  -2.511397224955e+00  -2.736126529714e+00 
1  5.204912449724e+01  -1.983230901429e+01   1.256768893700e+00 
1  2.443156217605e+01  -2.375951979610e+01   1.553127417702e+01 
1 -1.911445732268e+01  -1.862042579624e+01  -1.762664198149e+01 
1  5.560056334784e+01   4.195810595292e+00   8.379511356830e-02 
1  3.590923069719e+01   5.061345271542e+01  -8.177348856441e+00 
8
Step 26000
1 -3.957119300395e+01   1.162472850540e+01  -4.085074547065e+01 
1 -1.838095232564e+01   1.110435003383e+00   6.093591582491e+00 
1  6.230359966274e+01  -1.674623318337e+01   3.077875923074e+00 
1  4.854169131171e+01  -4.102613719567e+01   1.574757265617e+01 
1  3.026444238205e+01  -2.347317489481e+00   2.901591372017e+01 
1 -1.758021818348e+01   1.799544094547e+01  -3.006806399408e+01 
1  7.378557108544e+01  -2.786592263318e-01   8.297953231387e+00 
1  7.126687946695e+01   3.187889130028e+01  -5.351768881611e+00 
8
Step 27000
1 -4.274355845809e+01   9.632998064846e+00  -4.434798597987e+01 
1  1.409334094095e+00   5.184752554484e-01   4.382246034493e+00 
1  5.640878114933e+01  -2.350355611317e+01   7.489196455085e+00 
1  3.234710536176e+01  -4.586263711638e+01   2.537918511630e+01 
1  2.709994765022e+01   2.348277575151e+01   2.912595235089e+01 
1 -9.264717722295e+00   5.082634638017e+01  -3.279216193966e+01 
1  7.039011077050e+01  -4.643833171751e+00   1.400303466560e+01 
1  7.841194286295e+01   8.488685691692e+00  -5.334611056638e+00 
8
Step 28000
1 -3.120375206614e+01   8.767628159118e+00  -3.346494327597e+01 
1  2.018571996997e+01   9.006734084933e-03   2.234303750492e+00 
1  2.891952661065e+01  -2.305690512167e+01   4.192984972624e+00 
1  9.298565171502e+00  -3.515083864690e+01   2.748244620920e+01 
1  1.323363614711e+01   4.194563279343e+01   1.726226764534e+01 
1  5.464023008638e+00   6.776558333432e+01  -2.574168525501e+01 
1  5.075990910411e+01  -8.897932069359e+00   1.331954690369e+01 
1  5.515958058762e+01  -1.105201544589e+01  -8.216706321344e+00 
8
Step 29000
1 -1.219725904069e+01   9.636221688340e+00  -1.136828085324e+01 
1  2.991050040299e+01   3.282195644944e+00   2.628323198188e-01 
1 -1.065937471494e+01  -1.749974971101e+01  -8.385100495069e+00 
1 -1.256846438035e+01  -1.524121951445e+01   2.167446725237e+01 
1 -8.871864463950e+00   4.409478678534e+01   4.993900926470e-02 
1  2.279139401884e+01   6.372680520924e+01  -1.145059246440e+01 
1  2.365046472946e+01  -1.260957716508e+01   4.637072782145e+00 
1  1.328924878570e+01  -2.197685745014e+01  -1.185339185387e+01 
8
Step 30000
1  5.071904027727e+00   1.072915324231e+01   1.359869914177e+01 
1  2.698397391464e+01   1.219999803926e+01  -1.599824005000e+00 
1 -4.504537295890e+01  -9.600287437168e+00  -2.580053347881e+01 
1 -2.663837141275e+01   4.960268472530e+00   9.733295389379e+00 
1 -3.215322275014e+01   2.805260473566e+01  -1.385021956079e+01 
1  3.629558155513e+01   4.120625016719e+01   6.073751411283e+00 
1 -2.052215758089e+00  -1.448047502873e+01  -1.019595786102e+01 
1 -2.538608362199e+01  -2.429300363234e+01  -1.325200252382e+01 
8
Step 31000
1  1.411763275769e+01   9.284219654662e+00   3.175877534253e+01 
1  1.349275136524e+01   2.448079965210e+01  -4.082707274538e+00 
1 -6.043708272507e+01  -1.833953928926e+00  -3.914651010510e+01 
1 -3.050059675462e+01   1.808813307281e+01  -5.036579991042e+00 
1 -4.742578078235e+01   1.939272211537e-01  -1.812045550493e+01 
1  3.948396220774e+01   9.425246248463e+00   2.257453741131e+01 
1 -2.075201836295e+01  -1.250587266377e+01  -2.580329518986e+01 
1 -4.438322212239e+01  -2.147553743827e+01  -1.028707534158e+01 
8
Step 32000
1  1.407539537207e+01   2.994692049349e+00   3.733913816262e+01 
1 -3.856200484686e+00   3.345703547326e+01  -7.994400599595e+00 
1 -5.353473285424e+01   4.233455542818e+00  -3.925237269221e+01 
1 -2.595645555556e+01   2.131714595987e+01  -1.875560159726e+01 
1 -4.751192357394e+01  -2.679580426813e+01  -1.166287801604e+01 
1  2.848097952871e+01  -1.903387590175e+01   3.452134822090e+01 
1 -3.084653686723e+01  -4.786650483591e+00  -3.497130771763e+01 
1 -4.217714011183e+01  -1.792750983887e+01  -2.876271825995e+00 
8
Step 33000
1  9.319676253124e+00  -8.248408096167e+00   3.057488388454e+01 
1 -1.692006874417e+01   3.083166932626e+01  -1.334937160216e+01 
1 -3.036550090118e+01   8.071275353251e+00  -2.122605836634e+01 
1 -1.722135681811e+01   1.651054702764e+01  -2.793138432549e+01 
1 -3.013238753407e+01  -4.069476241970e+01   1.228558769280e+00 
1  4.157482615301e+00  -3.525487804200e+01   3.946405174914e+01 
1 -3.286163306236e+01   9.202621386100e+00  -3.163245399185e+01 
1 -2.693388743134e+01  -1.620319932194e+01   6.921037201094e+00 
8
Step 34000
1  6.353149860912e+00  -2.149966615417e+01   1.643605007875e+01 
1 -2.025823238328e+01   1.147712801399e+01  -1.864373266590e+01 
1 -3.116681975042e+00   9.911178889711e+00   1.172633304249e+01 
1 -8.641610042351e+00   8.353292808023e+00  -3.018410915211e+01 
1  2.620974277024e-01  -3.621604214161e+01   1.295797210485e+01 
1 -2.627330622234e+01  -3.776609659926e+01   3.587126450759e+01 
1 -2.784159968575e+01   2.712634161027e+01  -1.378335399039e+01 
1 -9.170752912916e+00  -1.552949618632e+01   1.586823867264e+01 
8
Step 35000
1  9.508307960324e+00  -3.139157726811e+01   1.732186169164e+00 
1 -1.364777982476e+01  -2.142770159459e+01  -2.077166915721e+01 
1  1.605039183715e+01   1.029789223105e+01   4.663914798021e+01 
1 -2.769372808674e+00   1.821188298619e+00  -2.452109793988e+01 
1  3.228836936721e+01  -1.627354472687e+01   1.622630631684e+01 
1 -5.093035932398e+01  -3.053245436660e+01   2.303707569082e+01 
1 -1.712084126438e+01   4.274803817660e+01   1.416461170038e+01 
1  3.265184583684e+00  -1.240014660195e+01   2.103464438380e+01 
8
Step 36000
1  1.798172431544e+01  -3.209883789837e+01  -8.249169855277e+00 
1 -1.916194610961e+00  -5.460794785915e+01  -1.595203520171e+01 
1  2.176238448291e+01   9.683445345421e+00   6.710748244715e+01 
1  3.956350503702e-01  -4.118329614130e-02  -1.125242045001e+01 
1  5.275361425919e+01   9.910299061550e+00   7.303981686741e+00 
1 -5.957819073379e+01  -1.934644699510e+01   1.766710546644e+00 
1 -2.912877321716e+00   4.695474188271e+01   4.156916407028e+01 
1  7.196432350449e+00  -3.068271756304e+00   2.097679378230e+01 
8
Step 37000
1  2.576855170464e+01  -1.970641860146e+01  -1.180493615188e+01 
1  7.613565427008e+00  -7.176129909663e+01  -1.650793418933e+00 
1  1.678675971241e+01   8.227424306123e+00   6.312372854663e+01 
1  2.644602128124e+00   2.735177288181e+00   7.790503971127e+00 
1  5.376365145287e+01   3.080543643459e+01  -1.208480819559e+01 
1 -4.876893180522e+01  -8.907334752413e+00  -2.424956263909e+01 
1  1.126279138218e+01   3.185072091881e+01   5.689399030552e+01 
1  3.443137372950e+00   1.303349542465e+01   1.607301739069e+01 
8
Step 38000
1  2.474837100770e+01   5.371031495116e+00  -1.065692274565e+01 
1  8.955305768167e+00  -6.302520287784e+01   2.098833681258e+01 
1  8.691624334989e+00   5.843293040208e+00   3.482960291789e+01 
1  5.808696286077e+00   7.284954120988e+00   2.846833683615e+01 
1  3.513632218546e+01   3.753908148338e+01  -3.398892051024e+01 
1 -2.297232489706e+01  -1.198427691298e+00  -4.828412714091e+01 
1  2.104087458949e+01  -2.467454498150e+00   5.382900323084e+01 
1 -4.601800785339e+00   3.137341322589e+01   7.972563775363e+00 
8
Step 39000
1  9.541512485373e+00   3.606942050743e+01  -8.237298201672e+00 
1  4.917723758117e-01  -2.909442017703e+01   4.559436544183e+01 
1  4.882380357590e+00   2.408677805989e+00  -6.215648906010e+00 
1  1.024768201445e+01   9.234467783265e+00   4.440327304454e+01 
1  4.052345828903e+00   2.591152097618e+01  -4.618953100369e+01 
1  6.654438677688e+00   4.488695953272e+00  -6.288359867495e+01 
1  2.254498794041e+01  -4.254419615888e+01   3.335416895881e+01 
1 -1.226321432168e+01   4.384879709658e+01  -1.558987427340e+00 
8
Step 40000
1 -1.822556011469e+01   5.977211038993e+01  -7.488620659537e+00 
1 -1.392019781082e+01   1.625574007930e+01   6.214666279276e+01 
1  8.531789746681e+00  -2.017553481328e+00  -4.082928257559e+01 
1  1.456656864907e+01   4.308592723312e+00   4.919405121297e+01 
1 -2.671779171934e+01  -3.567316211519e+00  -3.765922767472e+01 
1  2.770415228856e+01   1.009403887355e+01  -6.254235612405e+01 
1  1.410744795504e+01  -6.884863786963e+01   3.335088786861e+00 
1 -1.496087250104e+01   4.285391949434e+01  -1.182773322387e+01 
8
Step 41000
1 -4.838472128423e+01   6.465546915902e+01  -9.195260400175e+00 
1 -2.612410713485e+01   5.210148046317e+01   6.128858779294e+01 
1  1.732752589561e+01  -7.104649036342e+00  -5.513947995689e+01 
1  1.661083124851e+01  -1.020925248028e+01   3.936756754199e+01 
1 -4.451721289000e+01  -4.215805986199e+01  -5.216836269636e+00 
1  3.390658792576e+01   1.676883399790e+01  -4.526637390638e+01 
1 -2.150922685675e+00  -6.977585890966e+01  -2.479619687221e+01 
1 -9.839960106019e+00   2.510464577398e+01  -2.351314352074e+01 
8
Step 42000
1 -6.656908071118e+01   4.552994197661e+01  -1.155390459657e+01 
1 -2.715912625973e+01   6.511466413734e+01   3.842262451089e+01 
1  2.507328537291e+01  -1.228827816723e+01  -4.768577275292e+01 
1  1.495941634459e+01  -3.339218690805e+01   1.665092850682e+01 
1 -4.235540291290e+01  -7.165307751532e+01   3.927860116262e+01 
1  2.725491002816e+01   2.353185496862e+01  -1.426037328878e+01 
1 -1.993197203053e+01  -4.568516932604e+01  -4.247533555531e+01 
1  2.683252498068e+00  -5.654065749297e+00  -3.727803754544e+01 
8
Step 43000
1 -6.188006114262e+01   7.677057132035e+00  -1.117104627749e+01 
1 -1.143739188008e+01   5.378909838468e+01  -2.094369438437e+00 
1  2.502458010835e+01  -1.678389640513e+01  -2.686435310748e+01 
1  9.800841918376e+00  -5.798349412816e+01  -1.120290168725e+01 
1 -1.942321784914e+01  -7.501101756589e+01   7.211949100497e+01 
1  1.479827657576e+01   2.731785899774e+01   2.114995681866e+01 
1 -3.070103928892e+01  -8.130552000366e+00  -4.742530902465e+01 
1  1.845853698880e+01  -3.790376037034e+01  -5.109000591149e+01 
8
Step 44000
1 -3.107138899344e+01  -3.202175762026e+01  -5.069335142314e+00 
1  1.924299137041e+01   2.540451462896e+01  -4.489707926289e+01 
1  1.359541314989e+01  -1.952971550941e+01  -5.523399414926e+00 
1  2.609675646347e+00  -7.101194271291e+01  -3.352954608013e+01 
1  1.819522388590e+01  -4.620452599632e+01   7.592305075304e+01 
1  4.246944972467e+00   2.445252006459e+01   4.918561005815e+01 
1 -2.730912205673e+01   2.501472253732e+01  -4.165192636878e+01 
1  3.111932022245e+01  -5.743297005461e+01  -5.840921017080e+01 
8
Step 45000
1  1.749539916852e+01  -5.548175675875e+01   7.276736554121e+00 
1  5.317014517284e+01  -6.550088015716e+00  -7.234890081851e+01 
1 -6.796844702151e+00  -1.914735002933e+01   6.509863780293e+00 
1 -4.781024328196e+00  -5.945722266524e+01  -4.247872845217e+01 
1  5.446307987744e+01   4.242948446412e+00   4.869276954928e+01 
1  2.895833354288e-01   1.307643476805e+01   6.169609267224e+01 
1 -7.779125251270e+00   4.118238363963e+01  -2.827413520512e+01 
1  3.498867462386e+01  -5.523616816568e+01  -4.963680316349e+01 
8
Step 46000
1  6.191275193819e+01  -5.547343337510e+01   2.290792516603e+01 
1  7.392001867147e+01  -2.869119628001e+01  -7.561274729300e+01 
1 -2.788625865329e+01  -1.412152746081e+01   7.730884902962e+00 
1 -1.073969011413e+01  -1.788251384322e+01  -3.606792333701e+01 
1  6.972539893066e+01   5.008523490940e+01   4.322870012236e+00 
1  2.545140029226e+00  -4.788788222866e+00   5.630397210383e+01 
1  2.174722827773e+01   3.887979815309e+01  -1.013868139759e+01 
1  2.752314711115e+01  -3.102159426645e+01  -1.787803192840e+01 
8
Step 47000
1  8.126957972570e+01  -3.628133717873e+01   3.594208675295e+01 
1  7.026835506321e+01  -3.439182114427e+01  -5.548455901603e+01 
1 -3.986296973813e+01  -3.507851940354e+00   4.062236942792e+00 
1 -1.384943022339e+01   4.062657811578e+01  -1.819942395922e+01 
1  5.282660146258e+01   7.001444294159e+01  -3.291031290030e+01 
1  6.034407640166e+00  -2.321256525131e+01   3.568280451942e+01 
1  4.810331750114e+01   2.476590200100e+01   1.003894234812e+01 
1  1.042672004505e+01   5.638612363631e+00   3.133880559685e+01 
8
Step 48000
1  6.983282247014e+01  -9.859504239873e+00   3.976508265101e+01 
1  4.080978480315e+01  -2.506502252138e+01  -2.062165008588e+01 
1 -3.665373238436e+01   1.185781247697e+01   3.283108548465e+00 
1 -1.290219908311e+01   8.663916119881e+01   2.667168562748e+00 
1  7.868553501722e+00   6.001818713466e+01  -4.644240879637e+01 
1  4.369322433424e+00  -3.515058486769e+01   6.946481180949e+00 
1  5.781837492814e+01   8.887744234864e+00   2.891177280915e+01 
1 -1.061813741930e+01   3.769073741706e+01   7.710964027197e+01 
8
Step 49000
1  3.610958911213e+01   1.053217971827e+01   2.991918499058e+01 
1 -3.672374160260e+00  -8.435845006877e+00   1.486759477219e+01 
1 -1.883600190075e+01   2.849838290081e+01   9.058033506777e+00 
1 -7.328010517854e+00   1.009343305377e+02   1.706495315939e+01 
1 -4.156217935996e+01   2.867684668809e+01  -3.616717637331e+01 
1 -5.879984980675e+00  -3.620214853592e+01  -2.040436930185e+01 
1  4.350163931713e+01  -4.565017622728e-01   4.211650151954e+01 
1 -2.819209680979e+01   5.070823884949e+01   9.915462821756e+01 
8
Step 50000
1 -1.100308688708e+00   1.771703165412e+01   6.624028151548e+00 
1 -4.316425966432e+01   5.081287801471e+00   3.885033652720e+01 
1  5.969423843369e+00   4.084568159588e+01   1.881593037539e+01 
1  2.131226327187e+00   8.253172373052e+01   1.919513698255e+01 
1 -6.788829356431e+01  -7.385538851102e+00  -1.398012676953e+01 
1 -2.219611969949e+01  -2.653725603174e+01  -3.861287905238e+01 
1  7.942642726598e+00  -6.593509318657e-01   4.503201205457e+01 
1 -3.665124750624e+01   4.051099621073e+01   8.933520685256e+01 
8
Step 51000
1 -2.366028104990e+01   1.322521282414e+01  -2.376189551720e+01 
1 -6.278615565814e+01   7.733872522895e+00   4.678644614225e+01 
1  2.644878682018e+01   4.314303693598e+01   2.597741625967e+01 
1  1.308602675931e+01   4.201487904966e+01   9.645426073548e+00 
1 -6.074867493577e+01  -3.200215145514e+01   4.250234855853e+00 
1 -3.650129928271e+01  -1.057339553816e+01  -4.432375157615e+01 
1 -3.362346301248e+01   4.740835881400e+00   3.459469119009e+01 
1 -3.418846210467e+01   1.338422109613e+01   5.068233531871e+01 
8
Step 52000
1 -2.636142066711e+01   4.874826502501e+00  -5.005787879407e+01 
1 -6.039101891157e+01  -1.465202354144e+00   4.039373677681e+01 
1  3.393642395555e+01   3.159374015782e+01   2.433124455282e+01 
1  2.185136495828e+01  -1.767057076464e+00  -4.460976149926e+00 
1 -2.718686957430e+01  -3.803985715910e+01   8.262284519442e+00 
1 -3.928498781126e+01   5.189100259530e+00  -3.816790946312e+01 
1 -6.152464593015e+01   8.671191975181e+00   1.152321039715e+01 
1 -2.263847510755e+01  -1.648731525024e+01  -8.478296980782e-01 
8
Step 53000
1 -1.630457122119e+01   1.472296354656e+00  -6.171775854761e+01 
1 -4.230195918837e+01  -1.598855279374e+01   2.476249183825e+01 
1  2.643255220683e+01   6.422587746323e+00   1.176610708339e+01 
1  2.445033572192e+01  -3.242700065001e+01  -1.228738412054e+01 
1  1.278495168994e+01  -2.741501443037e+01  -1.852385079177e+00 
1 -2.489538125976e+01   1.557565253297e+01  -2.331474821065e+01 
1 -6.416139659991e+01   4.727270819542e+00  -1.796589972108e+01 
1 -6.255182682069e+00  -3.428958645789e+01  -4.300956622597e+01 
8
Step 54000
1 -5.287446760466e+00   7.289606444717e+00  -5.383875500812e+01 
1 -1.830129940835e+01  -2.509572848824e+01   6.506434184363e+00 
1  8.809393489795e+00  -2.617203840169e+01  -8.149128313177e+00 
1  1.808686811667e+01  -4.463079415697e+01  -5.113711309096e+00 
1  3.778928034060e+01  -7.701889324379e+00  -1.718914711002e+01 
1  4.407112206905e+00   1.910070326870e+01  -4.254917529977e+00 
1 -4.103600903056e+01  -8.961382285427e+00  -4.326461747579e+01 
1  1.005005816000e+01  -3.262104033229e+01  -6.292358776359e+01 
8
Step 55000
1 -2.145419729142e+00   1.936800119096e+01  -2.866813065999e+01 
1  2.730194316645e+00  -1.989188820244e+01  -8.428243162720e+00 
1 -9.625636800703e+00  -5.482281156699e+01  -2.732935102303e+01 
1  2.879477597012e+00  -4.064962830673e+01   1.787349283541e+01 
1  3.903169025049e+01   1.138533162013e+01  -2.576693729617e+01 
1  3.715650430901e+01   1.769349269894e+01   1.421422952578e+01 
1 -2.776300257405e+00  -2.790562975051e+01  -5.427986396235e+01 
1  2.267123551232e+01  -1.359953856133e+01  -5.923446375518e+01 
8
Step 56000
1 -8.633803879667e+00   2.895494995602e+01   4.393781553597e+00 
1  1.635029050919e+01   1.453197267118e+00  -1.699067469977e+01 