8
Step 0
1 -4.335052367192e+01   6.226770353478e+01  -1.571831079641e+01 
1 -4.197517804778e+01   5.557624918835e+01   6.050689884240e+01 
1  4.062082842113e+01  -6.869837660098e+01  -6.406602060552e+00 
1  3.202042668263e+01  -9.333787405458e+00   7.585091136361e+01 
1  2.169421302650e+01  -5.304981751903e-01  -3.452327492586e+01 
1  2.479565131470e+00   3.727202342153e+01  -7.541307749490e+01 
1  3.539535683763e+01   1.835259957186e+01  -5.811004072382e+01 
1  1.040422054410e+01   7.251222155371e+01   5.312714128624e+01 
8
Step 1000
1 -5.171200489906e+01  -2.421760573311e+01   1.138128241161e+01 
1 -3.226577699491e+01   3.284402056122e+01   1.475374453211e+01 
1  6.941369583027e+01   2.301491772486e+01   4.573700442863e+00 
1 -9.304947878732e+01   9.991171267867e+00  -3.800806197515e+01 
1 -2.197065531351e+01   3.098780829504e+01   3.768614875984e+01 
1 -4.409131521481e+01  -5.660836258107e+01  -9.503689683079e+00 
1  1.752109616198e+01  -9.184395372214e+00   2.360227552705e+01 
1 -2.243236647767e+01   3.672222270112e+01  -2.253172411190e+01 
8
Step 2000
1 -8.915731837347e+00  -7.364410769440e+01   1.514486619674e+01 
1 -1.391322966361e+01   2.737316752272e+01   1.750783281941e+01 
1 -1.535884088138e+01  -3.021274516781e+01  -2.915710930459e+01 
1  2.584025784696e+01  -4.704847206480e+00   2.834575452383e+01 
1 -2.125354941278e+01  -5.010528132129e+00  -1.149776977438e+01 
1 -1.597850357146e+01   1.105699804525e+01  -1.018393069326e+01 
1 -1.843220014604e+01   2.327344150083e+01  -4.696218998357e+00 
1  5.953045792901e+00   3.138022288144e+01   5.259836051792e+01 
8
Step 3000
1 -3.398535654417e+01   2.387637272964e+01   4.269089322953e+01 
1 -1.169319812666e+01   7.602517838798e-01  -5.399631700995e+01 
1  4.062312154034e+00   1.415340872453e+00  -3.088704494692e+01 
1 -3.571553340922e+01   2.869498481142e+01  -4.330071818046e+01 
1  1.905539606019e+01   3.645819373170e+01   4.531420710146e+01 
1  3.573537357320e+01  -1.213773225946e+01  -2.431170289550e+01 
1 -3.428943463146e+01  -1.370378811251e+01   6.606464121086e+01 
1  1.959987686203e+01  -3.043893466490e+01  -3.310696928529e+01 
8
Step 4000
1 -4.774139150885e+01   2.112274227665e+01   1.294126168741e+01 
1 -1.416873284662e+01   2.347937007587e+01   1.092081516553e+00 
1 -4.693834232862e+01  -3.506775336507e+01   7.134225580756e+01 
1  2.833633400314e+01  -3.738390813702e+01   5.412315729537e+00 
1  1.905192202841e+01  -4.134780154998e+01  -1.228927671621e+01 
1 -3.006118138989e+01   3.900384678741e+01  -3.013437491523e+01 
1  3.291806607029e+01  -3.069937479629e+01  -1.696954590254e+01 
1 -1.237930887511e+01  -3.402451334396e+01   2.035753457463e+01 
8
Step 5000
1  1.374305498845e+01  -2.943829947477e+00  -4.415977169048e+01 
1  3.347082199329e+01  -1.120811021629e+01  -3.458998866065e+01 
1  6.150769651141e+01   7.780442352047e+00   1.399866972580e+01 
1 -2.558167115644e+01   4.024999172380e+01  -2.305232663035e+00 
1 -2.115949034622e+01   4.010453287443e+01   2.119132192201e+00 
1 -7.184575401588e+01   2.090049779103e+01   1.620440987285e+01 
1 -8.326086341443e+00  -3.359961072621e+01   9.173693913170e+01 
1 -2.291405975714e+01   3.818762847237e+01  -4.854648219434e+01 
8
Step 6000
1 -1.769013841332e+01  -1.016577403246e+02  -3.394730109863e+00 
1  1.766448933868e+01   4.538071364868e+01   8.305762809858e+01 
1 -2.132807982054e+01  -1.147417244439e+01   1.986999708640e+01 
1 -1.315022226364e+01  -2.640420034958e+01  -3.734489354813e+01 
1  4.446012618056e+00  -1.876561739282e+01   2.544990839568e+01 
1  4.677242888336e+01  -3.383943162271e+01  -4.021684003232e+01 
1  8.526744139652e+01  -1.334802463721e+01  -1.759730274799e+01 
1 -3.686537135569e+01   5.911206785471e+01  -2.601102060421e+01 
8
Step 7000
1  5.761732995978e+01   2.348055566669e+01  -1.520926415956e+01 
1 -2.610072910780e+01   1.889941638051e+01  -3.917308706969e+01 
1 -2.950435555468e+01  -1.056228175107e+01  -3.081162997247e+01 
1 -8.853155577752e+00   5.154057088013e+00  -4.384451725134e+00 
1  1.896285339663e+01   1.703098136639e+01  -7.610107289282e+00 
1  8.593160332641e+00   1.634652693265e+01   2.828735696050e+01 
1 -3.714341868260e+01   2.393344075145e+01   3.364200085224e+01 
1  3.029084513390e+01  -6.791526046716e+01  -1.055030015481e+01 
8
Step 8000
1 -2.300760493214e+01   2.699894482997e+01  -1.431102440687e+01 
1  1.237673824095e+01   2.528895273753e+01   2.430482952637e+00 
1  2.130203953158e+01  -3.452310137315e+01  -3.175564211915e+01 
1 -1.354798717820e+01   1.266605519613e+01   3.504322582187e+01 
1  2.412986134001e+01   2.614555236749e+01   8.704023367278e+01 
1  7.380311450052e+00  -5.534163700985e+01  -1.958432514420e+01 
1 -3.707660807028e+01   3.632677816857e+01  -2.539065225756e+01 
1 -1.586131229454e+01  -4.380784653861e+01  -1.978762927309e+01 
8
Step 9000
1  8.849908960796e+00  -1.875414640831e+01  -7.015887244866e+01 
1 -3.128937167285e+01  -9.590352004954e+00   4.307933488913e+01 
1  3.004088653222e+01   3.927243379616e+01   3.466375380892e+01 
1  1.829907954037e+01   4.923600025943e+01   6.274396886759e+01 
1  3.140819244789e+00  -2.084840641151e+01  -6.036196375501e+01 
1 -1.495448563073e+01  -1.780910309290e+01   1.890617167107e+01 
1  2.869258478574e+01  -3.036751267745e+01  -1.726793160671e+01 
1  2.284605085635e+01   3.644106354826e+01   5.814138133280e+01 
8
Step 10000
1 -2.703182461512e+01   2.037310252479e+01   1.085900498244e+01 
1  2.436645517475e+01   1.911518162025e+01   5.062648600724e+01 
1  3.149663135864e+01   6.966852176561e+01   7.750584759529e+00 
1 -6.645149780827e+01  -1.255151514213e+00   2.218497736483e+01 
1 -2.019198728380e+01  -2.433204253450e+01  -1.967416680263e+01 
1 -3.647458092916e+01   1.045344887254e+01   5.558036540451e+00 
1  3.232657076335e+01   7.430651155460e+00   2.062829675689e+01 
1 -4.891899339152e+01   3.172526346674e+01  -2.558535736212e+01 
8
Step 11000
1  1.204925852263e+00  -2.366308731320e+01  -1.333556945687e+01 
1  5.817450884160e+00   3.009686054488e+01  -4.828143513235e+00 
1 -1.444724021864e+01   6.158093555910e+01  -1.669529009984e+00 
1  2.694337959067e+01  -3.199470657082e+01  -8.040307278774e+01 
1  1.183660085225e+01  -2.517925260236e+01  -1.390530407482e+01 
1  2.191600671276e+01   2.925250839164e+01   3.364387194347e+01 
1  2.890062919334e+01  -4.889663214419e+01  -5.480337349536e+00 
1 -3.978873212033e+01   5.069749154305e+01   7.805442495906e-01 
8
Step 12000
1  2.667792279766e+01   5.173272028457e+00   6.332603830288e+00 
1  5.510914353463e+01   1.767420045082e+01   3.607903251548e+01 
1 -3.823411404860e+01  -8.711913202249e+00  -1.159058092464e+01 
1 -3.240451123405e+00  -5.913559009419e+00   2.486024795657e+01 
1  7.531146910616e+00   3.810160758362e+01   4.593206452344e+01 
1 -2.460601981978e-01   9.637729072716e+01   4.670967680135e+01 
1  1.280851669389e-01  -7.437544548658e+01  -3.131005314911e+01 
1 -2.534596171111e+01  -8.672470386095e+01  -1.280101583306e+01 
8
Step 13000
1 -1.139048319125e+01  -2.502350203907e+01   2.646778435295e+01 
1 -2.513863561123e+01  -2.532758536890e+01   3.988799670724e+01 
1  1.318419767115e+00  -3.188878584782e+01   1.221249993915e+00 
1  4.319419673804e+01  -3.772630404517e+00   3.636831719640e+00 
1  2.749314351813e+01   8.322812006716e+01   6.579239329191e+01 
1 -8.053421488389e+01  -4.165036987034e+01  -1.284208817836e+01 
1 -2.388722170347e+00  -3.072165834262e+01  -1.132451273317e+02 
1 -1.757394381797e+01   4.957824394834e+01   2.471807672848e+01 
8
Step 14000
1 -1.518500001329e+00   1.444617337746e+00  -2.673634171422e+01 
1  8.919200227594e+00   1.989202192252e+01  -9.706624997314e-01 
1  7.072740439656e+00  -1.169480913828e+01  -3.450764472632e+01 
1  3.234404126258e+01   5.821266451074e+01   1.734086551897e+01 
1 -7.252947961214e+01   2.209291480628e+01  -3.620395096495e+01 
1  2.268303167382e+01  -3.835437282063e+01  -6.912032415462e+01 
1 -1.235523862215e+01  -1.200268321322e+01   2.160443697761e+00 
1  1.128950597539e+02   3.673555651174e+01   9.257540962380e+01 
8
Step 15000
1  9.963359792414e+00   8.172021437855e+00   2.604955373244e+01 
1  1.443296405745e+01  -5.945400399856e+01  -2.662753386671e+01 
1  2.645831081065e+01   5.132277557918e+00  -2.312553467344e+01 
1 -3.457589980179e+01  -1.076734798908e+01  -3.104106011064e+01 
1 -3.106287762829e+01  -3.649696783748e+01  -1.105721762869e+01 
1  3.172264861551e+01   4.011126538425e+00   9.952325044260e+00 
1  2.725234200439e+01   6.258079620982e+01   6.821863492562e+01 
1 -4.371877104013e+01  -4.450668022128e+00  -3.382072810371e+01 
8
Step 16000
1  2.424348261686e+01  -4.682907728776e+01   1.913806848487e+01 
1 -7.576801451438e+00   3.671100603916e+01  -4.052344917935e+01 
1 -5.622857802819e+01   1.254422187711e+01   3.607150575404e+01 
1 -1.660468708129e+01   2.430887742494e+00   2.303691766277e+01 
1  2.682192160382e+01  -4.441690917582e+01   3.751533306964e-01 
1  5.033612987795e+01   4.069143562486e+01   3.482482943273e+01 
1  9.500558958866e+00   1.917500978041e+01  -6.763260294306e+00 
1 -3.925833381002e+01  -4.592548275724e+01  -3.218456945207e+01 
8
Step 17000
1 -5.616561730913e+01   2.341824453621e+01   4.554837221135e+00 
1  4.209227055373e+01  -2.061598747351e+00   3.975080069585e+01 
1  2.483870696793e+01   5.213120650712e+01   1.599152255958e+01 
1 -2.259075321955e+00   9.058509813818e+00  -1.193673186417e+01 
1  6.192810303616e-01   3.781209005727e+01   4.202089302567e+01 
1 -5.381414192254e+01   1.744380054132e+01   5.451907769046e+01 
1 -1.800954237566e+01  -1.105967064688e+02  -4.699070189882e+01 
1 -4.370481680836e+00   2.534579450830e+01  -2.245336395029e+01 
8
Step 18000
1  2.840427204817e+01  -4.082795993016e+01  -1.379436663289e+01 
1 -1.645703035597e+01   2.486978450118e+01  -3.999620738636e+01 
1 -3.531403318138e+00  -3.502086059075e+01  -1.519583417182e+01 
1  1.203298013249e+01  -5.970801185722e+01  -4.031732375770e+01 
1  1.236292239812e+01  -4.054142921888e+00  -6.809290665485e+01 
1 -2.151915143554e+01  -3.741827922342e+01  -4.207061534431e+01 
1  5.597658436933e+01  -1.693942081894e+01  -4.174262567634e+01 
1 -1.930293146477e+01   1.124865745691e+01   5.060941247057e+01 
8
Step 19000
1 -2.645810112536e+00   2.927933813782e+01   1.010056681863e+00 
1  3.760366377647e+01  -2.636468077822e+01  -1.577078145331e+00 
1  3.881427292633e+01   2.911941690277e+00  -8.366105551244e+00 
1 -2.895352759949e+01   8.258896056743e+01   2.743003513531e+01 
1 -5.308900578321e+01   5.703436128774e+01   2.888181615015e+01 
1 -1.676357618852e+00  -3.727597188676e+01  -5.331058676318e+01 
1  4.129872380015e+01   5.793059340512e+01   6.847605403927e+01 
1 -4.751337170155e+01   5.093056522949e+00   4.773239045885e+01 
8
Step 20000
1  1.411680604774e+01  -3.247921413853e+01  -2.954606714094e+01 
1 -3.988913354150e+01  -9.520780004557e+00  -1.654903702475e+01 
1 -2.957057012940e+00  -1.313347343072e+00   7.665764972659e+00 
1 -4.349173635538e+01  -2.740062294030e+00  -1.140486763290e+01 
1  2.115355105780e+01  -2.004672389910e+01  -1.511722352551e+01 
1  1.346499896272e+01   2.534162418316e+01   2.174402171692e+01 
1  6.119086308479e+00  -1.203442205097e+01   5.035122584812e+01 
1 -3.866710733206e+01  -2.247166458771e+01  -6.210305705005e+01 
8
Step 21000
1 -1.761357995969e+01   4.979755081038e+01   2.861530652344e+01 
1  3.648710818915e+01   5.462845317564e+01   1.346604811384e+01 
1 -2.127469326806e+01   7.228903038996e+01  -6.665117021909e+01 
1  6.959463016514e+01   1.510332167180e+01   3.337310208117e+01 
1  5.392623681233e+01  -6.355612066663e+01  -2.583152939172e-01 
1  4.020335661009e+01   1.059360090289e+02   2.935037930177e+00 
1 -7.246704656711e+01  -2.432093279053e+01  -4.147476249061e+01 
1  1.836268099874e+01  -8.201224530232e+00  -3.531113649063e+01 
8
Step 22000
1 -8.428419256205e+00  -4.424751812085e+01  -4.289130515006e+01 
1 -8.304232422827e+00  -3.747268086843e+01  -1.413122137796e+01 
1 -6.872518167736e+00  -1.006866686741e+02   2.083452583488e+01 
1 -5.648848103807e+01  -1.203952338067e+01  -1.755445926316e+01 
1 -2.726771528420e+01   1.588435724697e+01  -9.220602479083e+00 
1 -3.172704431386e+01   2.281104533675e+01   1.737939348626e+01 
1 -3.808824687897e+01  -9.315388769835e+01   2.612520538227e+01 
1  6.953870253754e+01   7.368166936616e+01   1.504584865002e+01 
8
Step 23000
1  1.626219849105e+01   1.690340322353e+01   4.456688707338e+00 
1  1.555399480402e+01   3.641250853362e+01  -1.613781367015e+00 
1 -1.432223852467e+01   1.043379081924e+01  -5.657097300427e+01 
1 -6.526831692786e+00   1.730712130691e+01   9.631436644036e+00 
1  2.704770205085e+01   2.123690945584e+01   2.470487214364e+01 
1 -9.556837559722e+00  -1.206325899648e+01  -3.449419844824e+01 
1  4.729767469408e+01  -8.334193303633e+00   2.560191417437e+01 
1 -3.169608265930e+00  -3.964102658760e+01   2.527532317065e+01 
8
Step 24000
1 -1.963484141385e+01  -9.260464135395e+00   2.557760937505e+01 
1 -1.565197505928e+01  -2.356602493952e+01   1.689077112299e+01 
1  6.819257364610e+00  -3.901192357065e+01   1.067511494652e+01 
1 -4.540670815323e+01   5.950355545247e+01   2.570867642962e+01 
1  3.213095908960e+01   1.906064006507e+01   2.391823381257e+00 
1 -4.920387908726e+00  -5.121946236647e+01   3.031339091343e+01 
1  2.308878243187e+01  -1.227355597417e+01   3.851870907362e+01 
1 -5.162557019288e+01   3.948878437516e+01  -1.051885994311e+02 
8
Step 25000
1  5.147951188594e+01  -2.056319758217e+01  -4.950769896243e+00 
1 -4.795212201530e-01   3.869465097982e+01  -1.804705887362e+01 
1 -2.318790328906e+01   6.802540734241e+00  -1.443595057189e+01 
1  4.476290139238e+01   2.943858528415e+01  -4.116727951746e+01 
1  4.323977622008e+01  -7.061649690149e+01   2.571526053295e+01 
1 -2.389664054395e+01  -3.950598668863e+01  -4.893161676678e+00 
1  1.547312738204e+01   7.406142697036e+01   1.341967581457e+01 
1  1.989507195599e+01  -8.687912391788e+00  -2.711893955511e+01 
8
Step 26000
1  1.982737789820e+00  -6.169224419488e+00  -6.333228753568e+01 
1  4.374132121971e+01  -1.283915988613e+01   1.282115432425e+01 
1  7.585849977809e+00  -1.679841399430e+01   2.627017529525e+01 
1 -2.271988042841e+01  -2.765275774683e+01   3.428152050870e+01 
1 -4.568175324990e+01  -1.054786609945e+01   4.956789905540e-01 
1 -2.052399076222e+01   2.668503380998e+01  -1.289447234796e+01 
1  1.586267130808e+01   6.237380155929e+01  -4.984562219533e+01 
1 -1.713913935159e+01  -8.588144209870e+00   3.471151734779e+01 
8
Step 27000
1 -1.236359358913e+01  -2.385953882128e+01   4.721163937163e+00 
1 -3.493163100285e+01   5.296864795507e+01  -1.746138109713e+01 
1 -4.937116344162e+01   1.051352028626e+01  -1.368748009817e+01 
1  6.898135571439e+00  -3.027143218428e+01  -4.942732726859e+01 
1 -2.275649419815e+01   2.983569948212e+01  -7.895298041470e+00 
1 -4.522245328687e+01   3.486675998937e+01   2.394735479988e+01 
1  5.146508749394e+01  -3.828816833688e+00  -2.962854263189e+01 
1  5.812594798260e+00  -5.040507597878e+01   2.632166219408e+01 
8
Step 28000
1  1.506221501248e+00   3.860021056342e+01   1.436459187992e+01 
1  4.256075171275e+01  -1.722384591117e+01   3.941758519778e+01 
1  1.471566466907e+01  -2.606229372233e+01   4.403764601975e+01 
1  4.395894042888e+01   2.713607271216e+01   1.552379208574e+01 
1  8.242170895358e+00   6.098864015201e+01   1.579181871762e+01 
1  4.340000822044e+01   3.039555336300e+01  -2.203562417274e+01 
1  1.032130475042e+01  -4.611999388790e+01  -3.345490211714e+01 
1 -5.930865596335e+01   1.623271298493e+01   1.539584087162e+00 
8
Step 29000
1  1.225055100973e+01  -4.182682323993e+01  -2.277588034380e+01 
1 -4.650447565612e+00   2.567515984524e+01  -4.089665683680e+01 
1 -3.620810818986e+01  -1.111145767470e+01   6.157206456700e+00 
1  3.677508315446e+01   4.884003442402e+01  -4.302501423435e+01 
1 -2.623102674494e+01  -1.894369999067e+01  -1.443166182099e+01 
1  7.692472511382e+00  -8.210926556078e+01   3.774887824659e+01 
1 -4.985991937359e+01  -5.346927259639e+01   2.186081390119e+01 
1 -7.804304582508e+01   5.371220258273e+01  -3.822452772673e+01 
8
Step 30000
1  2.511547523548e+01   3.448029964629e+01  -1.199077022040e+01 
1  3.577709794132e+01  -5.560759619506e+01   1.396581928513e+00 
1  1.360641097485e+01   2.808259596730e+01  -5.694930902756e+00 
1  4.548265972037e+01   1.947214748234e+01   2.579610639510e+00 
1  4.350084938485e+00  -3.533421302316e+01   4.724943367914e+01 
1 -2.207970163468e+01  -5.486041985097e+01  -3.555100144609e+00 
1  1.025648604937e+01  -1.121251773603e+01   1.133807538803e+00 
1 -4.934323354679e+00   5.402159804752e+01   5.588466057420e+01 
8
Step 31000
1 -6.981128295812e+01  -2.029857048272e+01   1.605796964861e+01 
1 -5.489566948072e+01   4.902332944638e+01   3.900681681513e+01 
1 -7.227876540996e+00  -3.561786572087e+01  -6.229312775901e+00 
1  2.544240060582e+01  -3.967303584909e+01  -5.654272034961e+01 
1 -9.359369215885e+01  -7.475353844034e+01   4.863525246533e+01 
1  3.157717011810e+01   1.146276901908e+01  -1.373035846608e+01 
1 -3.211188882646e+01   5.518912228439e+01   4.200732992428e+00 
1  8.264240054633e+01   1.595024925078e+01  -1.152049188209e+01 
8
Step 32000
1  1.417744679716e+00   6.666325239513e+01   3.514144578731e+01 
1  3.094239691954e+01  -2.122702739759e+01  -8.237831096167e+00 
1  4.980421831581e+01   9.286521084995e+00  -3.460008101676e+01 
1  1.785693174806e+01  -6.912390024251e+01   3.430208653225e+01 
1  3.207214629382e+01  -2.249395019286e+01  -4.102645897314e+01 
1 -1.213422259097e+01   8.202575185531e+01  -1.965920433380e+01 
1  3.506766176689e+01   4.670444340583e+00  -6.190793015373e+00 
1  1.897654613794e+01  -7.650478620750e+01   4.037342724954e+00 
8
Step 33000
1 -3.090957735755e+01  -1.971696131808e+01  -2.757817731656e+01 
1  3.156029410657e+01  -1.937061286103e+01  -1.121381175236e+01 
1  1.533117060605e+00  -1.317731045228e+01   1.576487055447e+01 
1 -7.586413448133e+01   1.012621670497e+01  -2.203513868565e+01 
1  3.025639467137e+01   4.633443659620e+01  -9.164000868704e+00 
1  1.727383386607e+01   1.334176058699e+01  -3.855200665212e+00 
1 -1.364643526679e+01  -8.434808985320e+01   4.617764339623e+01 
1 -3.031958639327e+01  -4.122963735930e+01   2.290062255205e+01 
8
Step 34000
1  4.657498308164e+01  -5.905996774438e+00   2.514485907959e+01 
1 -1.924987059563e+01   2.968626952444e+01  -3.465216270587e+00 
1  1.267272667831e+01   2.079267380306e+01  -2.426030483406e+01 
1  3.215642631111e+01  -2.157513373714e+01   7.920329191307e+00 
1  4.681230927874e+01   1.633163441166e+01  -5.563166782130e+01 
1 -6.729600378926e+01  -1.604157346096e+01   7.643737325002e+01 
1  2.226408767393e+01  -3.174616963708e+00  -8.864038844943e-01 
1 -3.006800440781e+01   3.892748014264e+01  -6.380728264463e+01 
8
Step 35000
1 -2.557974853338e+01   2.912511761383e+01  -1.243176749203e+01 
1 -1.328356563403e+01  -1.551581105487e+01   5.517459217153e+01 
1 -2.532778563868e+01  -6.343119521474e+01   1.808797321431e+01 
1  5.952676473436e+00   2.161986315190e+01   8.573702278023e+00 
1  2.192269567230e+01   2.218915344724e+01   3.463505635530e+01 
1  4.934637990881e+01   2.818179742218e+01   5.245118410843e+01 
1  2.139390328198e-02  -2.102844988575e+01  -9.590889551793e+01 
1  1.762864938196e+01   1.916330720507e+01   4.879561473558e+01 
8
Step 36000
1  2.098112799804e+01  -1.745396496104e+01  -7.586740483260e-01 
1 -5.428633366063e+01   5.864601953293e+01  -5.292628290781e+01 
1  2.361712965705e+01   2.437720340701e+01  -1.127982086033e+02 
1  1.662005766219e+00  -3.119072918894e+01  -1.336067808925e+01 
1 -3.311511161625e+01   7.777684892956e+00  -9.681860125975e+00 
1 -7.432950822349e+00  -2.433079446444e+01  -2.716249907864e+01 
1 -1.577079354073e+01   1.806984187075e+01  -2.193878930611e+01 
1  2.332319016000e+01  -4.327529273139e+01   3.658045908187e+01 
8
Step 37000
1 -1.816454372304e+00   5.112266433002e+00   2.531337708539e+01 
1  5.313999056744e+01  -3.636196386176e+01   2.861017800147e+01 
1  6.920193455762e+00   1.506687514308e+01   8.441535838181e+00 
1 -5.103209703849e-01   2.274394275257e+01   5.412395080920e+01 
1 -6.729164617408e+01   2.904553977961e+01   9.355100233153e+00 
1  4.161546459729e+01   1.682528613960e+00  -1.413832591762e+01 
1  2.874790835828e+01   1.408079470234e+01  -2.382778035893e+01 
1 -3.104523278210e+00  -7.078184573225e+01   2.817773182874e+01 
8
Step 38000
1  1.185371871990e+01  -3.884065642017e+01   1.308642782049e+01 
1 -3.571720633922e+01   2.661010227045e+01  -2.865089654124e+01 
1 -7.869817352473e+00  -6.317164089178e+00  -1.669711985910e+01 
1 -9.745101495762e+01  -5.821188975421e+01  -1.814337556243e+01 
1  4.479961323209e+01   5.214660054636e+01  -3.627338024642e-01 
1  4.584777919468e+01  -6.794863377454e+00  -2.477934624816e+00 
1 -3.665250795059e+01  -5.218036525172e+01   1.708038328731e+01 
1 -6.677889931749e+00  -4.217842027340e+01   2.022115294383e+01 
8
Step 39000
1  1.269586586139e+01   1.889219418808e+01  -5.297100666460e+01 
1  5.424539355539e+01  -3.396122903185e+01   1.591251451348e+01 
1 -2.529814457624e+00   5.040955736770e+01   1.537152048829e+01 
1  1.871262852517e+01   4.477410572676e+01   3.864662715043e+00 
1  4.945521183658e+00   5.245945353503e+01  -2.572062806893e+01 
1 -4.315838290434e+01  -2.648876884497e+01   4.053810509588e+01 
1  1.728952847521e+01   4.279947468380e+00   1.763739657037e+00 
1  3.808837642619e+01   3.406947393073e+01  -4.761558987022e+01 
8
Step 40000
1 -3.083681986265e+01  -1.194114556348e+01   1.692239227988e+01 
1 -1.715186447108e+01  -4.715557007613e-01  -2.134944710811e+01 
1 -1.648327826940e+01   5.327521082824e+00  -6.615360608722e+01 
1  2.441986368527e+01  -2.748702572865e+01  -3.646189889355e+01 
1 -4.138553812685e+00   5.727330167386e+00   4.455725358849e+01 
1 -1.864526244920e+00  -6.889431302176e+01  -1.247405699890e+01 
1 -4.519287249155e+01  -3.835433634690e+00   1.021777639749e+01 
1  8.495575772745e+00   1.211787251271e+00   1.220191855889e+01 
8
Step 41000
1  4.530164855136e+01   4.644187288007e+01   2.366310900925e+01 
1 -1.232557914615e+01   4.354414882032e+00   4.500542099319e+01 
1  4.505021761293e+01   4.427543400046e+01   1.075444703624e+01 
1  5.276149389864e+00   7.383098386010e+00   5.239410753158e+01 
1 -1.701129750883e+01  -2.041798360569e+01   6.649358561324e+00 
1 -5.523362183441e+01  -3.386496792719e+01  -1.333845329206e+01 
1  3.188393528497e+01   5.714330354059e+01  -4.514839340494e+00 
1  2.436041113776e+01   1.633453457358e+01   3.889699346894e+01 
8
Step 42000
1 -3.242609033120e+01  -8.987166093888e+00   4.250182298116e-01 
1  2.893288804535e+01  -2.856001105622e+01   1.856276887208e+01 
1 -4.990877184603e+01  -5.724820705580e+01  -1.666115000162e+01 
1 -9.113264058854e+00  -8.766355248772e+00  -1.832277966004e+01 
1 -1.885197431027e+01   1.851923193751e+00   2.549858525638e+01 
1  1.123792072485e+01   1.533949828574e+01  -2.822262710628e+01 
1  3.279916584574e+00   4.559871035828e+01  -8.783884500788e+00 
1 -6.954250115558e+01  -5.573343617153e+01   5.565448876210e+01 
8
Step 43000
1  5.343545766724e+01  -9.331161147964e-01   8.165897131343e+00 
1 -1.350146874946e+01   4.950184092990e+01   7.778422267804e+00 
1 -1.387594443251e+01   1.039325362460e+01  -4.294441351111e+01 
1  7.094912968077e+00  -1.609266311448e+01   6.902852849576e+01 
1  5.403904106348e+01   4.643842361065e+01  -5.024980554793e+01 
1  7.165566817098e+01   4.997176580950e+01  -2.459088886300e+01 
1 -3.523766367689e+01  -6.590310087968e+01   4.592615583155e+01 
1  9.524534242350e+00  -3.020771586047e+01  -3.973132940416e+01 
8
Step 44000
1 -2.737386512797e+01   1.049980582507e+01  -4.329463152947e+01 
1 -5.167773423164e+00  -6.145140395736e+01   2.670836687713e+01 
1 -9.306759244343e+00  -3.568650626390e+01  -4.161000943398e+01 
1  9.986738732965e+01   1.644965869263e+01  -2.156828156606e+01 
1  3.820497159525e+01  -1.946004987831e+01   2.514017366641e+01 
1 -4.139297379006e+01  -6.181456404814e+01   4.923772928056e+01 
1 -1.792689715843e+01  -5.359502135016e+01  -4.445669698033e+01 
1 -6.635405605541e+00   2.756191595192e+00  -7.386993168655e+01 
8
Step 45000
1  2.337022602611e+01   1.443516044093e+01   6.082144919608e+01 
1 -2.952623395899e+01   4.430646276833e+01  -3.501301503463e+01 
1  1.618698401857e+01   3.225637430091e+01  -1.422312602461e+01 
1 -9.237115964830e+00  -2.160694706684e+01   2.836586700762e+01 
1 -2.298159109107e+01   5.319820146626e+01  -3.441954588560e-01 
1 -4.280456895858e+01  -8.126478906174e+00  -1.754357141411e+01 
1 -8.583996761497e-01   4.536512143392e+00  -2.431073817626e+01 
1  2.348909570606e+01   6.041362002096e+01   7.419345530957e+01 
8
Step 46000
1  1.811249964101e+00   2.502821259303e+01  -2.468448120746e+01 
1  1.447663403797e+01  -8.847953865206e+00   2.284443104826e+01 
1  2.275240644412e+01  -3.445697796642e+01   3.100478936430e+01 
1 -2.945757790941e+01   1.486112176155e+01  -2.334055694977e-02 
1 -8.610894465234e+00  -5.118069213127e+01  -3.685846869389e+01 
1 -3.482715105392e+01   3.363335146491e+01   1.124347889913e+01 
1  3.313758120181e+01   5.279681230938e+01  -3.232311315487e+01 
1  7.652702585691e+00  -3.547115075521e+01   7.849877194793e+00 
8
Step 47000
1 -5.545319740702e+01  -2.384709882020e+01   2.160098370444e+01 
1 -2.195496082881e+01  -3.544819497406e+00  -3.354912214523e+01 
1 -4.106750673265e+01   3.526031707894e+01   3.197932774344e+01 
1 -3.102639045872e+01  -4.631782061089e+01  -8.284121285569e-02 
1  4.543063590543e+01   3.348632967099e+01  -9.727086068511e+00 
1  5.974551469697e+01  -2.072111385645e+01  -6.329881613834e+00 
1 -5.185524949685e+01   3.910302390512e+01   3.653135047183e+01 
1 -2.014119578429e+01  -5.136370801242e+01  -2.648966743203e+01 
8
Step 48000
1  5.645312743490e+00   4.899218705609e+01  -1.382990832722e+01 
1  2.136670223895e+01   4.130385221091e+01   2.709923114920e+01 
1  2.764683118079e+01  -5.201163635796e+01   1.367862897584e+01 
1  2.872488127766e+01   9.068212840861e+01  -4.993134827441e+01 
1 -1.564743266109e+01  -9.612608451692e+00   1.525600089657e+01 
1 -2.490963254929e+01   4.345774075712e+01   3.204792324689e+01 
1 -2.480576978658e+01  -4.354435432670e+01  -1.012765934692e+01 
1  3.477735265357e+01   1.595280970627e+01  -9.310449630992e+01 
8
Step 49000
1 -7.682126130615e+00  -4.372698582643e+01   2.422084431506e+01 
1 -6.924177794077e+00  -3.967205165548e+01  -1.430461917313e+01 
1 -1.684751669882e+01   1.162904431536e+00   5.962016259805e+01 
1 -3.813231242910e+01  -2.370513031991e+01   2.943722091097e+01 
1 -1.918130607507e+01  -1.910029127509e+01   7.382839861639e+01 
1  1.815675260297e+01  -7.119366059623e+01   4.763244359751e+01 
1  2.127504493541e+01  -5.237507627835e+01  -6.496862257521e+01 
1  2.680873293138e+01   3.327310824723e+01  -1.602802110265e+01 
8
Step 50000
1  5.831570716623e+01   7.611515395666e+01  -3.303782538814e+01 
1  2.628734090345e+01   2.692089391230e+01  -2.232320357713e+00 
1  3.213516000344e+01  -7.586025987940e+00  -1.227930360862e+01 
1 -1.265966092621e+01   3.303279605582e+00   4.411452845220e+01 
1 -2.404126889742e+01   4.842216839728e+01   6.134521021847e+01 
1  2.435077292605e+01   5.198654182720e+01  -7.297814312964e+01 
1  1.378764786808e+01   1.637125173464e+01   8.642434043310e+00 
1  2.464631348774e+01   3.271515949575e+01   4.325372747935e+01 
8
Step 51000
1 -5.735289570679e+01   1.052122177881e+01  -1.868973219392e+01 
1 -1.057999731860e+01  -3.126777451458e+01   2.443250453901e+01 
1 -6.462585433789e+01  -4.933633307271e+00   1.295798049113e+01 
1 -1.014508914186e+01  -9.400149947633e+00   3.990033635056e+01 
1  2.641319392729e+01  -4.219931325738e+01  -6.836147694298e+01 
1  3.711655545580e+01   2.351463777710e+00  -4.361498507893e+01 
1  7.773229099129e+01  -9.052512528092e+00   3.462920959217e+01 
1 -6.185325925439e+01   1.290264257974e+01   1.070700356272e+01 
8
Step 52000
1  7.603198692135e+00   1.597622717322e+01  -5.190198525401e+00 
1 -2.922957470276e+00   2.285163105520e+01  -1.240012096957e+01 
1  2.277744629930e+01   3.069151864677e+01  -2.862144899640e+01 
1  8.978256300477e+01  -1.455082019591e+01  -1.051792466936e-01 
1  5.173608611914e+01   4.954313933761e+01  -3.396613867632e+00 
1 -2.825613201731e+01  -2.416249044301e+01   3.537828976295e+01 
1 -4.413007032253e+01   2.504550268340e+01   4.827608792175e+01 
1  6.266645492419e+00  -3.915433341213e+01  -3.239228586199e+01 
8
Step 53000
1  5.519408772232e+01  -3.401342760667e+01  -4.117754824693e+01 
1  3.016698005046e+01  -9.352663234002e+01   3.022306500111e+01 
1 -5.024774139609e+00  -6.682742097552e+01   4.447745144970e+01 
1 -5.047970508639e+00  -2.492578255585e+01  -3.974655883064e+00 
1 -7.447830249296e+01  -2.154297181714e+00  -2.977621796594e+01 
1 -7.863161899667e+01   1.401776487858e+01   6.119315970793e+01 
1  2.275383434426e+01  -6.536232717801e-01   7.083036300326e+00 
1  4.323293820724e+01   2.753779406745e+00  -7.347351416824e+01 
8
Step 54000
1 -4.717553639493e+00   2.077270797603e+01   1.497831603700e+01 
1 -6.474495394778e+01   2.854774974356e+01  -2.662717802481e+01 
1 -2.049728813371e+01   6.686377839567e+01   2.633064872874e+01 
1  1.309526271708e+01   3.297839247833e+01   2.075384546704e+01 
1 -5.030388048578e+01   1.633481486633e+01  -1.847826617127e+01 
1  4.012354277717e+00  -5.339601786242e+01   7.277949087331e+01 
1  7.203208503167e+01  -6.244542536347e+01  -8.194716561420e+01 
1 -3.931413935945e+01   2.450838493519e+01  -1.152099642387e+01 
8
Step 55000
1  5.448852034950e+00   7.657123445438e+01  -2.691383290637e+01 
1  2.583717933617e+01  -1.988246569861e+01   2.516704035140e+01 
1  1.368026697094e+01  -2.248560829394e+01   5.900932165929e+01 
1 -1.502218126573e+01   7.005597870236e-01  -5.476457991330e+01 
1 -3.582611462661e+01  -1.207295785564e+01   1.592175007168e+01 
1  7.230709333261e+01   4.689116523579e+01   8.046811315970e+00 
1  6.926539959785e-01   7.280153582218e+01  -4.144282552619e+01 
1 -2.211146747481e+01   4.114120370115e+01   5.514952883322e+01 
8
Step 56000
1 -2.275891404414e+01   2.321346792278e+01   4.571687028047e+01 
1 -2.906334352068e+01  -2.024771018605e+01  -1.243243307682e+01 