8
Step 0
1 -4.335052367192e+01   6.226770353478e+01  -1.571831079641e+01 
1 -4.197517804778e+01   5.557624918835e+01   6.050689884240e+01 
1  4.062082842113e+01  -6.869837660098e+01  -6.406602060552e+00 
1  3.202042668263e+01  -9.333787405458e+00   7.585091136361e+01 
1  2.169421302650e+01  -5.304981751903e-01  -3.452327492586e+01 
1  2.479565131470e+00   3.727202342153e+01  -7.541307749490e+01 
1  3.539535683763e+01   1.835259957186e+01  -5.811004072382e+01 
1  1.040422054410e+01   7.251222155371e+01   5.312714128624e+01 
8
Step 1000
1 -7.838969179155e+00   4.514241925595e+01  -2.670131941928e+01 
1 -5.251511391093e+01   1.725552839665e+01   7.153639881509e+01 
1  1.255169602540e+01  -7.013003272688e+01   1.878663036125e+01 
1  1.324257506449e+01  -9.323180047042e+00   8.169249931523e+01 
1  4.319898860525e+01  -1.113772604191e+01  -1.137463220145e+01 
1  4.782931826984e+01   7.383060413955e+01  -7.942140135291e+01 
1  3.040818421697e+01  -5.201534376930e+00  -5.392405870133e+01 
1  2.507655831852e+00   3.699055214386e+01   6.996510632947e+01 
8
Step 2000
1  3.125630525742e+01   1.692596299615e+01  -3.035317979621e+01 
1 -3.617776892634e+01  -3.134323026170e+01   5.489443229316e+01 
1 -1.866491605595e+01  -4.939342777318e+01   3.403570159907e+01 
1 -5.961049155700e+00  -7.408427780699e+00   6.154153451114e+01 
1  5.445517104491e+01  -1.172322937440e+01   1.540723377804e+01 
1  7.789904711800e+01   7.763468544750e+01  -5.869194695951e+01 
1  1.523335979614e+01  -2.829103622773e+01  -3.479278571376e+01 
1 -5.370187656320e+00  -7.675809306627e+00   5.609430241058e+01 
8
Step 3000
1  5.735579128360e+01  -1.152627859702e+01  -2.253066024056e+01 
1 -1.463046495886e+00  -6.268567664359e+01   1.548699910588e+01 
1 -4.330351165597e+01  -1.371143101625e+01   3.371936356614e+01 
1 -2.202386945197e+01  -3.110048553925e+00   2.495949322587e+01 
1  4.928626835058e+01  -4.051565399763e+00   3.180962311556e+01 
1  8.195081721553e+01   5.454917993909e+01  -2.126982040786e+01 
1 -2.642299377143e+00  -4.135546292152e+01  -5.708570758904e+00 
1 -1.308078226235e+01  -4.143404830818e+01   1.811839038715e+01 
8
Step 4000
1  6.107603432418e+01  -2.976465485961e+01  -4.563144839579e+00 
1  3.205241925953e+01  -6.343522788903e+01  -2.875563073629e+01 
1 -5.443817219589e+01   2.338082372888e+01   2.013708168935e+01 
1 -3.290037562914e+01   4.030909095888e+00  -1.159007438165e+01 
1  2.767497195738e+01   3.580593701564e+00   3.088203818685e+01 
1  6.009866269098e+01   1.979342718249e+01   1.731790239691e+01 
1 -1.626132727391e+01  -3.985580365364e+01   2.456945187409e+01 
1 -2.093242979836e+01  -5.227004188987e+01  -2.400870144210e+01 
8
Step 5000
1  4.259260650290e+01  -3.354668957892e+01   1.820521926331e+01 
1  4.692481555988e+01  -3.751475863140e+01  -5.783670778056e+01 
1 -4.996185465346e+01   4.858844948708e+01   1.067732738590e+00 
1 -3.691245729319e+01   1.331189926013e+01  -3.457444779988e+01 
1 -4.824565126444e+00   4.928434127369e+00   1.524075249556e+01 
1  2.152600365524e+01  -9.155832765415e+00   4.276509833211e+01 
1 -2.253001882050e+01  -2.528800568904e+01   4.659141928643e+01 
1 -2.654426226407e+01  -4.261727888884e+01  -5.022989021499e+01 
8
Step 6000
1  1.058637076929e+01  -2.707118943816e+01   3.841772031347e+01 
1  3.845201752227e+01   3.849745737505e-01  -6.407967255696e+01 
1 -3.210031472645e+01   5.601894343803e+01  -1.390730780575e+01 
1 -3.231878276828e+01   2.201140959955e+01  -4.049417065792e+01 
1 -3.584333644542e+01  -1.609209802868e+00  -6.820677649569e+00 
1 -1.767637895807e+01  -2.247530841702e+01   5.010968334809e+01 
1 -2.192457491457e+01  -3.920546490911e+00   5.421442815121e+01 
1 -2.757497902116e+01  -2.161643435899e+01  -5.286245010385e+01 
8
Step 7000
1 -1.995394257855e+01  -1.734802633891e+01   4.653390946524e+01 
1  1.348441215849e+01   3.127876479735e+01  -5.035608026951e+01 
1 -7.006454586404e+00   4.704792962993e+01  -1.826927758550e+01 
1 -1.821006801425e+01   2.586068676554e+01  -3.367060095827e+01 
1 -5.253131592594e+01  -1.356216270154e+01  -2.442387394400e+01 
1 -4.385182791403e+01  -2.082479597445e+01   4.270588805428e+01 
1 -1.699045830108e+01   1.623100575527e+01   4.643135327565e+01 
1 -2.197244287548e+01   1.968079841939e-02  -3.613938223897e+01 
8
Step 8000
1 -3.610679111812e+01  -9.721434585312e+00   3.546832509216e+01 
1 -1.402375502742e+01   4.269355725307e+01  -2.539004050488e+01 
1  1.667155414122e+01   2.737337272016e+01  -1.183025235900e+01 
1  3.953344766951e+00   2.067502169014e+01  -2.131457446411e+01 
1 -4.963379344403e+01  -2.431146107864e+01  -2.985648363286e+01 
1 -5.220685918705e+01  -1.122019426249e+01   2.775648932389e+01 
1 -1.054337537300e+01   2.954256765795e+01   2.713493377728e+01 
1 -7.146002749360e+00   1.369025796772e+01  -1.031846814755e+01 
8
Step 9000
1 -3.382395966408e+01  -6.805487506939e+00   6.118588665740e+00 
1 -2.996917709350e+01   3.251301708566e+01   9.410275005081e-03 
1  3.130426053256e+01   4.988453116271e+00   6.054396075091e-01 
1  2.902246012507e+01   4.424680916463e+00  -9.733021496746e+00 
1 -2.989188874350e+01  -2.662749281359e+01  -2.257642719333e+01 
1 -4.396646483622e+01  -1.900211173881e+00   1.245425321458e+01 
1 -3.984470156954e+00   3.476272981208e+01   3.972945430205e+00 
1  1.653777612029e+01   1.730940488516e+01   1.290906674368e+01 
8
Step 10000
1 -1.708674480146e+01  -7.953339322061e+00  -3.080345535737e+01 
1 -2.871617345368e+01   7.211715640060e+00   1.814340829992e+01 
1  3.353502785981e+01  -1.238590299883e+01   1.221871970032e+01 
1  4.888795246272e+01  -2.065470395384e+01  -1.863247878021e+00 
1 -2.955227467230e+00  -1.548190665978e+01  -7.711539003387e+00 
1 -2.330243073996e+01   1.691992624531e+00   1.200297273956e+00 
1  3.029779599646e+00   3.365841144140e+01  -1.461607531823e+01 
1  4.365287886913e+01   1.422366548272e+01   2.550688493320e+01 
8
Step 11000
1  5.530951945942e+00  -8.709227606942e+00  -5.970806961668e+01 
1 -1.543646346665e+01  -2.068317117669e+01   2.691368765008e+01 
1  2.505247349373e+01  -2.089128075812e+01   1.701129675456e+01 
1  5.522506183374e+01  -4.676530914130e+01   3.019008088389e+00 
1  1.849630344336e+01   9.800243212686e+00   7.025124947309e+00 
1  3.177027788432e+00  -1.244896571914e+00  -5.120285828296e+00 
1  1.152534466047e+01   2.827354090250e+01  -2.343652600116e+01 
1  6.454442485075e+01   9.550102505443e+00   2.600176254873e+01 
8
Step 12000
1  2.318166972129e+01  -3.761563017812e+00  -6.758035571215e+01 
1 -9.399951488457e-01  -3.802155050942e+01   2.737137081161e+01 
1  1.143672328266e+01  -2.132580361548e+01   1.141434376997e+01 
1  4.189136013804e+01  -6.240101563268e+01   7.181514335297e+00 
1  2.684894822166e+01   4.154469111624e+01   1.494817774494e+01 
1  2.742697046968e+01  -7.319729010075e+00  -7.793553387899e+00 
1  2.176690899642e+01   1.855056458937e+01  -2.312792919817e+01 
1  6.845928240591e+01   7.418432775484e+00   1.757103120422e+01 
8
Step 13000
1  2.598004769692e+01   9.338292398655e+00  -4.797482634133e+01 
1  7.323573877639e+00  -3.691841147513e+01   2.123892663179e+01 
1 -7.763847558684e-01  -1.749907715433e+01  -5.016952873415e+00 
1  6.892832885721e+00  -5.771190588914e+01   1.196389125233e+01 
1  2.270115804048e+01   6.441742999352e+01   1.438067843903e+01 
1  4.236929454694e+01  -1.126394573206e+01  -8.487414390850e+00 
1  3.176412815763e+01   1.348814978105e+00  -1.897264105712e+01 
1  4.703430433076e+01   8.832594720902e+00   4.804306154391e+00 
8
Step 14000
1  1.027792780373e+01   2.877189716806e+01  -4.050795295663e+00 
1  8.210624661462e+00  -1.773858798953e+01   1.101484049906e+01 
1 -7.295162904572e+00  -1.368420096441e+01  -2.780644894909e+01 
1 -4.150378807950e+01  -3.016456522930e+01   1.639951983912e+01 
1  1.149090343029e+01   6.498476815273e+01   9.390299826224e+00 
1  4.418027986529e+01  -9.073493009529e+00  -8.242776921250e+00 
1  3.679859723086e+01  -2.685688056852e+01  -1.634970847402e+01 
1  2.989205371453e-01   1.068868735242e+01  -8.083419947308e+00 
8
Step 15000
1 -1.750733045662e+01   4.837286014400e+01   4.589949239530e+01 
1  4.020451401420e+00   1.044114463614e+01  -3.395640530523e-01 
1 -7.391291617247e+00  -1.223835428268e+01  -4.645829318706e+01 
1 -8.208428359664e+01   1.038224650328e+01   1.790092498100e+01 
1 -7.772979463860e-02   3.889395049586e+01   6.322005255181e+00 
1  3.289886289722e+01  -1.103467711047e-01  -7.282591906312e+00 
1  3.193533793802e+01  -6.355240687965e+01  -1.729836439416e+01 
1 -5.399251871687e+01   8.501374484435e+00  -1.746922419379e+01 
8
Step 16000
1 -4.325477202809e+01   5.873393272056e+01   7.660164283015e+01 
1 -1.654306657769e+00   3.380360179724e+01  -1.050370463875e+01 
1 -3.019184099195e+00  -1.264787078993e+01  -4.956276633790e+01 
1 -9.484603587067e+01   4.458908313219e+01   1.458212644903e+01 
1 -7.065934754889e+00  -4.145525515523e+00   1.008903811158e+01 
1  1.196125875589e+01   1.228637663466e+01  -5.608545270956e+00 
1  1.572000448034e+01  -9.583921784963e+01  -2.000168099828e+01 
1 -8.944566020583e+01  -3.566607865375e-01  -2.161176636953e+01 
8
Step 17000
1 -5.346187395974e+01   5.011554268874e+01   7.550633576967e+01 
1 -4.862022812851e+00   4.171536266782e+01  -1.774826683359e+01 
1  2.208428391305e+00  -1.221282062260e+01  -3.239427323169e+01 
1 -7.258813964266e+01   5.828603047201e+01   6.533076192823e+00 
1 -8.175710820223e+00  -4.243363867880e+01   2.101214641401e+01 
1 -1.203769722269e+01   2.236493922785e+01  -3.433031078283e+00 
1 -7.953276187128e+00  -1.058550371681e+02  -2.054198018598e+01 
1 -9.276781930804e+01  -1.511481472179e+01  -2.099815366994e+01 
8
Step 18000
1 -4.009646625047e+01   1.749749186932e+01   4.603151402911e+01 
1 -3.759624171882e+00   3.096110654093e+01  -2.063832580982e+01 
1  4.116282407914e+00  -7.752155744871e+00  -4.104488190851e-01 
1 -2.390380449283e+01   4.976565007818e+01  -4.225337954666e+00 
1 -4.799351325096e+00  -5.893858309873e+01   3.280623716894e+01 
1 -3.093862064405e+01   2.505290639114e+01  -1.139731383645e+00 
1 -3.099107389238e+01  -8.065120062904e+01  -1.608632008684e+01 
1 -6.602927156821e+01  -3.048306082565e+01  -1.677310439637e+01 
8
Step 19000
1 -5.792566628342e+00  -3.131888371224e+01   4.529857101829e+00 
1  3.806868166368e-01   6.034163472711e+00  -1.878366937957e+01 
1  5.892628693034e-02   1.938631467730e+00   3.211445296149e+01 
1  2.587085260630e+01   2.656648931592e+01  -1.411214699149e+01 
1  3.878777026679e-01  -4.996716493079e+01   3.505634850355e+01 
1 -3.866767169262e+01   1.820552717839e+01   8.751491210792e-01 
1 -4.488665372766e+01  -2.231329068824e+01  -6.681936166430e+00 
1 -2.201354246859e+01  -3.856185182715e+01  -9.392100571664e+00 
8
Step 20000
1  3.402706789384e+01  -7.476765465192e+01  -2.748443848462e+01 
1  4.933682298169e+00  -2.159118617057e+01  -1.267237472533e+01 
1 -9.675799995071e+00   1.455135436490e+01   5.042959771940e+01 
1  5.272687973781e+01   6.539108140823e-01  -1.925284494204e+01 
1  4.319802035946e+00  -2.232832488796e+01   1.971328774208e+01 
1 -3.376993622046e+01   3.150364154230e+00   2.291561098185e+00 
1 -4.462214546426e+01   4.063045316826e+01   5.334915887702e+00 
1  2.043438507727e+01  -3.324813513043e+01   1.369995175195e+00 
8
Step 21000
1  6.093467666536e+01  -9.343259530281e+01  -3.834667068746e+01 
1  7.455767902877e+00  -3.892911436221e+01  -2.861527964774e+00 
1 -2.145541646699e+01   2.523749857715e+01   4.793398245162e+01 
1  5.152582719166e+01  -1.731953922818e+01  -1.732741597008e+01 
1  4.806369217204e+00   9.315760745806e+00  -1.259953879740e+01 
1 -1.897223195229e+01  -1.528468249266e+01   3.082354684783e+00 
1 -3.031298259667e+01   7.630499838244e+01   1.659268362932e+01 
1  4.690639593586e+01  -1.386566128968e+01   1.511633275320e+01 
8
Step 22000
1  6.423495614489e+01  -8.099903112476e+01  -2.989755016049e+01 
1  6.525599334781e+00  -3.894537488971e+01   9.337527125314e+00 
1 -2.870586227242e+01   2.915305034231e+01   2.762039546784e+01 
1  3.145583029128e+01  -2.259183145373e+01  -8.629787825964e+00 
1  1.720113885305e+00   2.976458704863e+01  -4.928480478206e+01 
1 -2.777020101874e-01  -3.027357375268e+01   3.479072189424e+00 
1 -7.314172937543e+00   7.874417314121e+01   2.387447808312e+01 
1  5.348358224769e+01   1.340912264323e+01   2.946701101911e+01 
8
Step 23000
1  4.337444305844e+01  -4.329733549219e+01  -1.186034143767e+01 
1  2.424112131680e+00  -2.292945784705e+01   2.094271464863e+01 
1 -2.498352903227e+01   2.398886856032e+01  -2.027544567045e-01 
1  7.488840238976e+00  -1.661076717115e+01   3.672228162822e+00 
1 -3.167081939710e+00   3.164670624230e+01  -7.221908826876e+01 
1  1.510241447135e+01  -3.558148712567e+01   3.779919702533e+00 
1  1.537666888370e+01   5.696264613813e+01   2.497456088307e+01 
1  4.322860056566e+01   3.785648335820e+01   4.026101454342e+01 
8
Step 24000
1  8.281082128468e+00   2.275521211357e+00   4.377312370153e+00 
1 -2.920750411086e+00   1.301122120191e+00   2.843177677929e+01 
1 -8.208574558649e+00   1.119531590494e+01  -2.290215768968e+01 
1 -7.804678260734e+00  -4.812971638430e+00   1.454731338924e+01 
1 -7.166451989591e+00   1.703913622174e+01  -6.947213894153e+01 
1  2.186128053648e+01  -2.789137018743e+01   4.073419451675e+00 
1  2.915793375999e+01   2.445800691527e+01   1.914631717249e+01 
1  2.230800775912e+01   4.961449660248e+01   4.223551529694e+01 
8
Step 25000
1 -2.427516711545e+01   3.608699751252e+01   1.138150953490e+01 
1 -7.191086560143e+00   2.282958226638e+01   2.908603351256e+01 
1  1.721723980092e+01  -4.636721046726e+00  -3.212071581883e+01 
1 -9.861924316085e+00   6.083734958368e+00   1.946599269954e+01 
1 -7.907301259265e+00  -4.751038688761e+00  -4.007224400872e+01 
1  1.873431028962e+01  -8.528206420038e+00   4.073383395827e+00 
1  3.004219993600e+01  -5.165391588361e+00   7.490665689293e+00 
1 -1.798472747422e+00   4.389958959642e+01   3.066061721379e+01 
8
Step 26000
1 -4.156638261462e+01   4.990218621196e+01   7.995715881494e+00 
1 -8.789746479483e+00   3.272431901584e+01   2.125025406678e+01 
1  4.155559365247e+01  -1.782425365252e+01  -2.668858313125e+01 
1 -1.851354955645e+00   1.073585463006e+01   1.667382489155e+01 
1 -4.384298077328e+00  -2.181425274064e+01   4.109910056319e+00 
1  8.714750264756e+00   1.574638230433e+01   3.192866657105e+00 
1  2.010890943024e+01  -2.329475923156e+01  -6.937178489908e+00 
1 -2.182358012261e+01   2.271189545063e+01   4.935664021708e+00 
8
Step 27000
1 -4.029055044423e+01   4.610909177912e+01  -1.763869339962e+00 
1 -7.333145125151e+00   2.811997324635e+01   5.169891661140e+00 
1  5.438983174118e+01  -2.392008566051e+01  -1.126428164712e+01 
1  8.628895464424e+00   7.143408169859e+00   7.999416796146e+00 
1  2.542770003605e+00  -2.592344888328e+01   4.221153737077e+01 
1 -2.424124935529e+00   3.508974667054e+01   8.097181939451e-01 
1  6.129142562603e+00  -2.777175039673e+01  -1.991015577017e+01 
1 -3.281365434966e+01  -5.443086417462e+00  -2.816792976617e+01 
8
Step 28000
1 -2.484308282654e+01   3.138060134731e+01  -1.135877609337e+01 
1 -3.517726742727e+00   1.299798024093e+01  -1.550598280009e+01 
1  4.975194540880e+01  -2.202091525549e+01   6.303881309471e+00 
1  1.389814473652e+01  -2.710938088466e+00  -2.116286781537e+00 
1  1.027147187073e+01  -1.598849197681e+01   5.908356047744e+01 
1 -8.830212707800e+00   4.155324762417e+01  -3.321294696020e+00 
1 -3.695682479945e+00  -2.143024615084e+01  -2.738392991422e+01 
1 -3.301488176459e+01  -2.855229396078e+01  -5.607396738798e+01 
8
Step 29000
1 -4.677720605409e+00   1.327705942008e+01  -1.505188389480e+01 
1  1.369479333556e+00  -4.480588844399e+00  -3.433079131297e+01 
1  2.817426883007e+01  -1.468366288167e+01   1.856083596806e+01 
1  9.905593261267e+00  -1.349897105877e+01  -8.824697459057e+00 
1  1.531507618434e+01   2.916593766807e+00   5.237480372782e+01 
1 -7.213085067065e+00   3.257948523102e+01  -8.592623761038e+00 
1 -3.703680487755e+00  -1.013947842495e+01  -2.676930653866e+01 
1 -2.293774422774e+01  -3.776815486868e+01  -6.717328241879e+01 
8
Step 30000
1  1.012146113020e+01  -2.143080358958e+00  -1.056787529119e+01 
1  6.229908319099e+00  -1.650055180486e+01  -4.467934659325e+01 
1 -3.239998039265e+00  -5.656561430902e+00   2.150322294925e+01 
1 -2.116198520736e+00  -1.850108596989e+01  -9.350623343646e+00 
1  1.481575836618e+01   2.204475479170e+01   2.919508628500e+01 
1  1.862753237299e+00   1.182358909507e+01  -1.338919665327e+01 
1  6.267338871378e+00  -1.188919720952e-01  -1.781624164252e+01 
1 -5.205271122353e+00  -3.143133733465e+01  -5.587358158792e+01 
8
Step 31000
1  1.407013998420e+01  -1.200851116689e+01   1.433376603010e-01 
1  1.033043440449e+01  -1.904288888247e+01  -4.207588291287e+01 
1 -3.284915142091e+01   1.987288465954e+00   1.536842235090e+01 
1 -1.644245532784e+01  -1.266221900147e+01  -4.601734093676e+00 
1  7.778194782280e+00   3.277881698224e+01   2.043983218035e+00 
1  1.395660352103e+01  -1.180337096078e+01  -1.549830876815e+01 
1  2.013820604194e+01   4.695595784557e+00  -2.911238894226e+00 
1  1.488218311968e+01  -1.449646630142e+01  -2.438073084475e+01 
8
Step 32000
1  8.434327297031e+00  -1.635357103980e+01   1.220769681848e+01 
1  1.288463590780e+01  -1.281671691918e+01  -2.557823665159e+01 
1 -5.041795054924e+01   6.420583076234e+00   3.785431530927e+00 
1 -2.591670063409e+01   4.469160595847e+00   1.212296381863e+00 
1 -4.500301529969e+00   3.052530997124e+01  -1.743296998184e+01 
1  2.214238652633e+01  -2.815005767139e+01  -1.275338210164e+01 
1  2.771487567388e+01   3.816666777855e+00   1.337328757155e+01 
1  3.058015437200e+01   4.305594515565e+00   1.559542314159e+01 
8
Step 33000
1 -1.985332572815e-01  -1.661668740441e+01   2.028751191977e+01 
1  1.291450998936e+01  -2.432481372516e+00   8.879031147523e-01 
1 -5.218217501362e+01   8.139914965085e+00  -7.953499124729e+00 
1 -2.553890562315e+01   2.721049560402e+01   2.944783515511e+00 
1 -1.878730355553e+01   1.627715851643e+01  -2.435197820031e+01 
1  2.000868890103e+01  -3.108102892678e+01  -3.840733015515e+00 
1  1.922603329006e+01  -2.941473406577e-01   2.568403464270e+01 
1  3.678657044896e+01   1.586614989950e+01   4.734139359452e+01 
8
Step 34000
1 -3.900062638776e+00  -1.441083447501e+01   2.076721684744e+01 
1  9.323978946801e+00   6.235638771772e+00   2.860675740115e+01 
1 -4.026243020781e+01   9.350300541174e+00  -1.538675333379e+01 
1 -1.463987065477e+01   4.487054220522e+01  -2.447620958352e+00 
1 -3.038611168871e+01  -4.225059711696e+00  -2.054327017081e+01 
1  5.206842598242e+00  -2.097997170928e+01   1.073810050136e+01 
1 -9.127072302121e+00  -3.631683913439e+00   2.974557939051e+01 
1  3.120376513503e+01   1.483599762733e+01   5.986558116518e+01 
8
Step 35000
1  1.826996277734e+00  -1.095287523484e+01   1.285423762071e+01 
1  9.384429884725e-01   9.511756834851e+00   4.780442300395e+01 
1 -2.037824980057e+01   1.187027101168e+01  -1.675644912863e+01 
1  2.673404618114e+00   4.633226145005e+01  -1.359425880474e+01 
1 -3.362150142191e+01  -2.347552070407e+01  -1.133712809551e+01 
1 -1.779715841721e+01  -4.144912212169e+00   2.791599738165e+01 
1 -4.878902902076e+01  -2.730203877859e+00   2.370770007660e+01 
1  1.413798986456e+01   2.178067966739e+00   5.208630513964e+01 
8
Step 36000
1  1.525069426071e+01  -6.734817108298e+00  -8.757894851103e-01 
1 -1.232727402776e+01   7.247925209122e+00   5.214527290514e+01 
1  5.097757566183e-01   1.565681312555e+01  -1.342511564698e+01 
1  1.932028870550e+01   2.586370082361e+01  -2.443268998985e+01 
1 -2.483209930826e+01  -3.511459903272e+01  -2.855280190018e+00 
1 -3.843945260696e+01   1.028269226092e+01   4.221279952127e+01 
1 -7.939665935459e+01   3.399456874078e+00   8.727550078634e+00 
1 -1.073339129510e+01  -1.634057282522e+01   3.095746626010e+01 
8
Step 37000
1  2.875608290091e+01  -1.683007174151e+00  -1.519100263632e+01 
1 -2.761907101765e+01   1.864034488824e+00   4.044710498761e+01 
1  1.693591769208e+01   1.843831529240e+01  -8.667727760816e+00 
1  2.856796062389e+01  -1.229799290792e+01  -2.676947729737e+01 
1 -5.469430615878e+00  -3.529108864892e+01   8.583795809786e-01 
1 -4.603039461483e+01   1.518090661954e+01   4.694608476451e+01 
1 -8.249087982762e+01   1.253591469171e+01  -1.095467139209e+01 
1 -3.622074810719e+01  -3.250555028903e+01   7.641637738742e+00 
8
Step 38000
1  3.262924176363e+01   3.942087535161e+00  -2.466543182798e+01 
1 -3.893016023930e+01  -3.448531134886e+00   1.688134182431e+01 
1  2.682683222827e+01   1.664145594241e+01  -5.150007079741e+00 
1  2.669299436346e+01  -5.185858179483e+01  -1.442346686580e+01 
1  1.906826485538e+01  -2.318142462780e+01   1.794554210576e-01 
1 -3.594825331661e+01   9.063705356744e+00   3.634308946349e+01 
1 -5.236107380487e+01   2.009741319592e+01  -2.878233297913e+01 
1 -5.465705920024e+01  -3.649072426067e+01  -9.321266256323e+00 
8
Step 39000
1  2.048483472062e+01   8.995379141217e+00  -2.581392305624e+01 
1 -4.013812943406e+01  -6.271047001307e+00  -1.016311337326e+01 
1  3.137634986135e+01   7.583283484038e+00  -2.459164980258e+00 
1  1.446419488896e+01  -7.298429078477e+01   1.234498854349e+01 
1  4.325430413206e+01  -1.337429472765e+00  -6.068534534967e-01 
1 -1.203477514100e+01  -3.016938485537e+00   9.006485078850e+00 
1  7.933620172175e-02   2.112377781128e+01  -3.711212120705e+01 
1 -6.214404091149e+01  -2.006037854441e+01  -1.860704363898e+01 
8
Step 40000
1 -6.608463828403e+00   1.196557021283e+01  -1.706672507691e+01 
1 -2.739095648678e+01  -5.964700834177e+00  -3.153587671651e+01 
1  3.295827288992e+01  -8.272260273443e+00   2.134990553833e+00 
1 -2.820363806313e+00  -6.546497451667e+01   4.383739079822e+01 
1  5.923945306023e+01   2.451099658001e+01   2.293552794137e+00 
1  1.471144665921e+01  -1.182879152336e+01  -2.812087349542e+01 
1  4.875815844558e+01   1.198978376208e+01  -3.032648371643e+01 
1 -5.494795295493e+01   1.653797758878e+01  -2.188230860585e+01 
8
Step 41000
1 -3.879199654472e+01   1.205537045705e+01   1.780153126991e+00 
1 -7.407267915986e-01  -3.767142776291e+00  -4.126879512564e+01 
1  3.252690899438e+01  -2.654282898985e+01   1.077875461888e+01 
1 -1.810007854332e+01  -3.283962309629e+01   6.507670238628e+01 
1  5.760919813416e+01   4.694660516086e+01   8.155657550216e+00 
1  3.272890726760e+01  -9.258288006337e+00  -6.135553964652e+01 
1  7.223142506201e+01  -7.678081723783e+00  -9.211376726387e+00 
1 -2.749780731022e+01   5.848368773403e+01  -1.989576733062e+01 
8
Step 42000
1 -6.149779052804e+01   9.763220070074e+00   2.783710201570e+01 
1  3.168452938342e+01  -1.296640737070e+00  -3.826071199675e+01 
1  2.873996025168e+01  -4.036457588916e+01   2.248405099821e+01 
1 -2.561347922529e+01   9.244004637582e+00   6.417606792406e+01 
1  3.647760551141e+01   5.712389268205e+01   1.389024575445e+01 
1  3.628879312409e+01   7.912689203274e+00  -7.777704058480e+01 
1  6.625690962274e+01  -3.326565813150e+01   1.736312252088e+01 
1  1.711303371824e+01   8.398735465248e+01  -1.557425096115e+01 
8
Step 43000
1 -6.349211808742e+01   6.750416123915e+00   5.292293620485e+01 
1  5.575715762082e+01   5.872725902610e-01  -2.612239280926e+01 
1  1.903114368330e+01  -4.365339280980e+01   3.259077132420e+01 
1 -2.197625166165e+01   4.054337357339e+01   3.713156553323e+01 
1  2.741072400396e+00   4.815440417268e+01   1.614371671432e+01 
1  2.557618802044e+01   3.629241674859e+01  -7.083872441383e+01 
1  3.778216788592e+01  -5.538478928635e+01   3.613852377099e+01 
1  6.227036595001e+01   7.906506869137e+01  -1.275963476549e+01 
8
Step 44000
1 -4.112584917667e+01   5.129193504214e+00   6.519636361248e+01 
1  6.040916559641e+01   2.041319591306e+00  -1.072502187775e+01 
1  1.806846504200e+00  -3.389620700359e+01   3.443025165755e+01 
1 -7.847030452764e+00   4.889974027264e+01  -7.204451066484e+00 
1 -3.273736197022e+01   1.857054637701e+01   1.159211462949e+01 
1  7.533225514273e+00   6.377651528223e+01  -4.324066300432e+01 
1  6.166653207166e-01  -6.309781141087e+01   3.635316783218e+01 
1  8.835640594467e+01   4.390155943975e+01  -1.032302959318e+01 
8
Step 45000
1 -3.104067067312e-01   5.948521485036e+00   5.683278710160e+01 
1  4.301917150168e+01   3.964461660322e+00   3.013618606298e+00 
1 -2.069832531160e+01  -1.336127030539e+01   2.234493120350e+01 
1  1.145555819647e+01   3.497571824343e+01  -4.780369261624e+01 
1 -5.831927525571e+01  -2.391673424322e+01  -1.615732303001e+00 
1 -7.954180089335e+00   7.167746837283e+01  -4.402255905942e+00 
1 -2.974407023833e+01  -4.839082823029e+01   1.561080773275e+01 
1  8.639899132065e+01  -6.383694592240e+00  -6.097963056445e+00 
8
Step 46000
1  4.209052917374e+01   6.914123110644e+00   2.736710369077e+01 
1  9.869091064777e+00   6.724830354176e+00   1.192896594790e+01 
1 -4.159652710250e+01   1.133350133987e+01  -3.605297776925e+00 
1  2.911706969811e+01   1.065732721588e+01  -6.773746261757e+01 
1 -6.542833801105e+01  -6.235521354511e+01  -1.934073778407e+01 
1 -1.507008435473e+01   4.320157711122e+01   3.460588973992e+01 
1 -4.324826016931e+01  -1.074075091698e+01  -1.639355599835e+01 
1  5.921769739300e+01  -4.895601878485e+01  -9.191026189052e-01 
8
Step 47000
1  6.819906981864e+01   3.702134020360e+00  -1.529562501513e+01 
1 -2.496991755036e+01   9.337056291043e+00   1.662547268032e+01 
1 -5.243708054795e+01   3.192463881840e+01  -3.459964492099e+01 
1  3.875492172530e+01  -9.412505097502e+00  -6.232659461419e+01 
1 -5.124629011497e+01  -7.951760757588e+01  -3.317864479736e+01 
1 -1.344575936225e+01  -2.065467177847e+01   6.198088390932e+01 
1 -3.801512548839e+01   3.735645679509e+01  -4.221440981992e+01 
1  1.920046233807e+01  -6.820541985544e+01   7.372310514714e+00 
8
Step 48000
1  7.145372924762e+01  -6.130912817874e+00  -5.495464433696e+01 
1 -4.658782791847e+01   9.852178593262e+00   1.931038810098e+01 
1 -4.751938935888e+01   4.207110647037e+01  -5.694880223256e+01 
1  3.408509308534e+01  -1.696502175436e+01  -3.451850011809e+01 
1 -2.019568409582e+01  -6.848378792259e+01  -3.420245262942e+01 
1 -4.356801440326e+00  -8.187912601520e+01   6.968200805669e+01 
1 -1.905220125317e+01   7.500669383585e+01  -4.835036956410e+01 
1 -1.707125615975e+01  -6.311668900597e+01   2.095698753358e+01 
8
Step 49000
1  5.472629760431e+01  -2.166340299996e+01  -7.449989776902e+01 
1 -4.735953835601e+01   6.593618843653e+00   2.069206730288e+01 
1 -2.638779148220e+01   3.989291472496e+01  -6.006331118152e+01 
1  1.454105593468e+01  -1.036767157194e+01   2.060597016186e+00 
1  1.576158316084e+01  -3.458095785102e+01  -1.665636320760e+01 
1  6.846381907290e+00  -1.056407984070e+02   5.713256496609e+01 
1  4.315498702127e+00   8.763412993758e+01  -3.035318747410e+01 
1 -3.785931646922e+01  -4.085315899216e+01   3.444595162206e+01 
8
Step 50000
1  2.659569560032e+01  -3.808803928025e+01  -6.707591439604e+01 
1 -2.942693515989e+01  -1.098433223294e+00   1.984306601103e+01 
1  4.891437527769e+00   2.800809329054e+01  -3.995563451370e+01 
1 -1.146612601941e+01   5.552606949045e+00   2.826855001940e+01 
1  4.325462898650e+01   6.893804183968e+00   1.509769147366e+01 
1  1.406019236472e+01  -8.786250350733e+01   2.827881435980e+01 
1  2.221521651799e+01   7.167958751630e+01   5.527478277759e+00 
1 -4.253208354305e+01  -1.029863313833e+01   4.063912394674e+01 
8
Step 51000
1 -4.141788694114e-01  -4.587514823147e+01  -3.786784349900e+01 
1 -2.779499212940e+00  -1.252040093171e+01   1.467257892752e+01 
1  3.478811977863e+01   1.161277066197e+01  -2.287461929887e+00 
1 -3.155773893933e+01   2.052600553757e+01   3.405299697208e+01 
1  5.379212745573e+01   3.862425365284e+01   4.464775216266e+01 
1  1.297768485409e+01  -4.132148514561e+01  -7.372378342558e+00 
1  2.840871495257e+01   3.353023609153e+01   4.174589397034e+01 
1 -3.575049086902e+01   1.815475444777e+01   3.564096392850e+01 
8
Step 52000
1 -1.861878068919e+01  -3.575731095956e+01   8.130155765190e-01 
1  1.995761673104e+01  -2.429498528223e+01   3.921527429208e+00 
1  5.218116686595e+01  -4.368135228491e+00   3.620056010524e+01 
1 -3.728789220723e+01   2.537988368858e+01   2.176705302535e+01 
1  4.499631883795e+01   5.089375604658e+01   5.414110738819e+01 
1  2.485695436067e+00   1.022354574729e+01  -3.767851893253e+01 
1  2.199915907724e+01  -1.049737118598e+01   6.015741709140e+01 
1 -2.172637902410e+01   3.565554063731e+01   1.786953564773e+01 
8
Step 53000
1 -2.915394519094e+01  -5.497552060239e+00   3.411022807667e+01 
1  2.989627003677e+01  -2.996968451005e+01  -1.095914415252e+01 
1  5.175515460880e+01  -1.561639466489e+01   5.751335140062e+01 
1 -2.703643265333e+01   1.724889800093e+01   8.979744242355e-01 
1  2.098146745818e+01   4.368021987380e+01   3.635205005031e+01 
1 -1.442823393049e+01   4.294224403477e+01  -5.370069903124e+01 
1  7.250965958974e+00  -4.366422730096e+01   5.357674446330e+01 
1 -5.246220266367e+00   4.045008941317e+01  -9.372183682750e+00 
8
Step 54000
1 -3.514166099910e+01   3.611988466156e+01   5.052933518596e+01 
1  2.457974553674e+01  -2.453207472330e+01  -2.458107689697e+01 
1  3.530587856481e+01  -2.031017347109e+01   5.452282312194e+01 
1 -7.797008947785e+00  -5.737035026854e-01  -1.499528090593e+01 
1 -8.430835280104e+00   2.488781809231e+01  -1.906786490071e+00 
1 -3.044010883794e+01   4.855045375964e+01  -5.346097142365e+01 
1 -9.278415596433e+00  -5.728683043354e+01   2.621394108752e+01 
1  8.435674930458e+00   3.465480766238e+01  -3.596377735474e+01 
8
Step 55000
1 -3.752826429155e+01   7.046090165362e+01   4.676371071997e+01 
1  8.557597770693e+00  -7.376885075302e+00  -3.007496935356e+01 
1  1.028095631228e+01  -2.006809578110e+01   3.104807824128e+01 
1  8.401827102052e+00  -2.014410261504e+01  -1.590728946297e+01 
1 -3.244772813778e+01   4.958669380684e+00  -4.014791913797e+01 
1 -3.698663378450e+01   3.231627257485e+01  -3.972127626948e+01 
1 -2.133896587175e+01  -5.079732298558e+01  -8.547695826308e+00 
1  1.592492403732e+01   2.166302934767e+01  -5.057717859006e+01 
8
Step 56000
1 -3.582228676573e+01   8.048679351115e+01   2.756504201531e+01 
1 -9.652699967039e+00   1.687835631884e+01  -2.304807657386e+01 