8
Step 0
1  2.130326814812e+00   3.841428738278e+01  -3.900125211552e+01 
1  3.567597752465e+00  -3.504277063756e+01   3.861701022475e+01 
1  6.258847992801e+01  -7.076539324116e+01   6.450599359103e+01 
1  5.978855273526e+01  -4.628740992298e+01  -3.331699604665e+01 
1  5.663920321690e+01  -5.214564811192e+01   5.649937483509e+01 
1 -4.885508989697e+01   7.742773658779e+01   3.518899981800e+01 
1  3.981944038262e+01  -7.472662646084e+01  -5.860625198879e+01 
1 -7.332626035848e+01  -1.421247514719e+01  -1.259120980933e+01 
8
Step 1000
1  1.218065877688e+01   3.632059612042e+01  -1.454004430449e+01 
1  1.422567847944e+01  -3.918807897098e+01   3.362896014484e+01 
1  5.606735687915e+01  -4.782426761205e+01   6.738833910995e+01 
1  5.528233001220e+01  -4.879129211815e+01  -1.599042182440e+01 
1  2.875178199925e+01  -3.189163583853e+01   4.386696486529e+01 
1 -1.753288224638e+01   8.733262842634e+01   2.830308769056e+00 
1  3.861228683897e+01  -4.878664385476e+01  -6.292946311987e+01 
1 -5.265444959526e+01   3.400761483867e+00  -1.431117351250e+01 
8
Step 2000
1  1.168836866764e+01   2.715684936424e+01   1.765238277056e+01 
1  1.558961274479e+01  -2.242171913599e+01   1.855057233819e+01 
1  3.102689128523e+01  -4.042148188723e+00   5.072047797377e+01 
1  2.777389524228e+01  -3.327609318154e+01   9.657369430654e+00 
1 -1.074186497703e+01   5.681005516040e+00   2.628309523419e+01 
1  1.898517271999e+01   5.951000313127e+01  -3.289905438670e+01 
1  2.936325887080e+01  -3.631136798349e+00  -4.637016533081e+01 
1 -1.040486549507e+01   1.545231738224e+01  -1.704840046433e+01 
8
Step 3000
1  2.464062386570e+00   1.105540891768e+01   4.358455598070e+01 
1  1.064821408773e+01   5.436436512790e+00  -5.619504164791e+00 
1 -5.487315450057e+00   3.625030229548e+01   1.853306378465e+01 
1 -1.025131372018e+01  -3.563635692274e+00   3.804048521305e+01 
1 -4.326088129269e+01   4.401288415047e+01   6.955231132597e+00 
1  4.664219561978e+01   6.939570821063e+00  -5.573328900997e+01 
1  1.478327148263e+01   3.933976893322e+01  -1.398114316000e+01 
1  3.046337646553e+01   1.319777566054e+01  -1.809496283721e+01 
8
Step 4000
1 -9.761054781261e+00  -9.634699011028e+00   5.150389347051e+01 
1  6.117509316810e+00   2.855322911275e+01  -3.329097296865e+01 
1 -3.962986824462e+01   5.309230353451e+01  -1.989050986066e+01 
1 -4.064956709724e+01   2.896810546575e+01   5.910846672614e+01 
1 -5.527283372886e+01   6.520345088517e+01  -1.307259753086e+01 
1  5.647811701169e+01  -3.922150413143e+01  -5.493304769720e+01 
1 -1.634602226807e+00   6.190908596853e+01   2.119287052085e+01 
1  5.024300505064e+01  -3.634555440996e+00  -1.417342126316e+01 
8
Step 5000
1 -1.574304462291e+01  -2.921586892271e+01   3.722792035732e+01 
1  6.194474990892e+00   3.395072736701e+01  -5.419432946538e+01 
1 -5.951000751126e+01   4.334558349126e+01  -5.138278693591e+01 
1 -5.167142399878e+01   5.081918141206e+01   6.437291392164e+01 
1 -4.496213340894e+01   6.125749593120e+01  -3.231486751692e+01 
1  4.731476059321e+01  -5.769217849139e+01  -3.206092444160e+01 
1 -1.638374399210e+01   6.014673853348e+01   4.487253595019e+01 
1  4.419996955678e+01  -2.651062133332e+01  -3.005206957942e+00 
8
Step 6000
1 -9.549777024275e+00  -4.184698472618e+01   8.357328250505e+00 
1  1.067834531467e+01   1.948878379664e+01  -6.081905103832e+01 
1 -6.099633456783e+01   1.582423028452e+01  -6.632254487439e+01 
1 -4.263501349004e+01   5.365784730381e+01   5.051048581212e+01 
1 -2.026371803925e+01   3.526378912669e+01  -4.718871309002e+01 
1  2.501069284087e+01  -4.793351237597e+01   1.223460563505e+00 
1 -2.688777348409e+01   4.024574577874e+01   5.001713250803e+01 
1  1.969906770659e+01  -4.226244414037e+01   1.551349005110e+01 
8
Step 7000
1  7.087188361650e+00  -4.401275829052e+01  -1.990859482630e+01 
1  1.562054939614e+01  -6.025771551099e+00  -4.946391723775e+01 
1 -4.595048749577e+01  -1.422238447035e+01  -6.198205536513e+01 
1 -2.083071324608e+01   3.712260255135e+01   2.075935595263e+01 
1  5.587750476564e+00  -1.830774994712e-01  -5.266794278812e+01 
1 -9.837849800827e-01  -2.064264704757e+01   2.900709722462e+01 
1 -3.164142306905e+01   1.319826339044e+01   3.824265970620e+01 
1 -9.148010886912e+00  -4.045303175156e+01   3.804353710865e+01 
8
Step 8000
1  2.645263666180e+01  -3.457507252256e+01  -3.509436799626e+01 
1  1.445103899766e+01  -2.892130584897e+01  -2.005499960347e+01 
1 -2.069435404402e+01  -3.244853105588e+01  -4.118142441690e+01 
1  2.753359952052e+00   8.591546283246e+00  -1.410500048728e+01 
1  2.150000067092e+01  -2.902637616002e+01  -4.418531798469e+01 
1 -2.174141376634e+01   8.862323136902e+00   4.024241174018e+01 
1 -2.971184158778e+01  -9.953633570828e+00   1.742798617631e+01 
1 -2.877958310795e+01  -1.833015292139e+01   5.717434257408e+01 
8
Step 9000
1  3.918379441602e+01  -1.504522798729e+01  -3.339035833710e+01 
1  1.887662799680e+00  -3.863660431481e+01   1.866006537189e+01 
1  4.933399323966e+00  -3.254640681020e+01  -1.160161909262e+01 
1  1.870558787939e+01  -1.896611082591e+01  -4.026922862979e+01 
1  2.394308594298e+01  -4.175930926768e+01  -2.043092699554e+01 
1 -3.219955757592e+01   2.793491160787e+01   3.392756878645e+01 
1 -2.047675000186e+01  -2.273302307203e+01  -2.014311796641e+00 
1 -3.257214301266e+01   1.722109444845e+01   6.353273507922e+01 
8
Step 10000
1  3.750844094798e+01   9.599379789985e+00  -1.830625478484e+01 
1 -2.178658980154e+01  -3.138083935698e+01   4.903255247344e+01 
1  2.275699751824e+01  -1.653208662191e+01   1.642887883418e+01 
1  2.354612633810e+01  -3.402725048952e+01  -4.964521324749e+01 
1  1.648722507189e+01  -3.780124657022e+01   1.372768612189e+01 
1 -3.210025091689e+01   3.066646619013e+01   1.650381681204e+01 
1 -3.868666687305e+00  -2.425598613280e+01  -1.253954022522e+01 
1 -2.122243671383e+01   5.083216590977e+01   4.869248077635e+01 
8
Step 11000
1  1.695295406569e+01   3.268460240895e+01   3.025018121667e-01 
1 -4.815340782554e+01  -1.097207576195e+01   5.861330222463e+01 
1  3.044456678954e+01   7.435701029326e+00   3.484552625586e+01 
1  1.967121183133e+01  -3.304360014713e+01  -4.294331552726e+01 
1  6.236578181061e+00  -2.218388039145e+01   4.660409470412e+01 
1 -2.427688673241e+01   1.793386287834e+01  -2.523396269319e+00 
1  1.897929612123e+01  -1.746163900423e+01  -1.289299641877e+01 
1 -7.890698421786e-01   6.709366728212e+01   8.129443181799e+00 
8
Step 12000
1 -1.978938063618e+01   4.856596817821e+01   1.174931695590e+01 
1 -6.317034275218e+01   1.230852816174e+01   4.767233773962e+01 
1  2.992291982012e+01   2.860481929260e+01   4.061254674267e+01 
1  1.232537326849e+01  -2.051261477156e+01  -2.666415368487e+01 
1 -5.617966029502e-01  -2.839397988634e+00   6.480989770531e+01 
1 -1.249025123569e+01  -2.717523225898e+00  -1.493985943702e+01 
1  4.437661468796e+01  -7.069449372226e+00  -7.028321571016e+00 
1  1.972852528206e+01   5.903546675276e+01  -5.029645480647e+01 
8
Step 13000
1 -5.862142675788e+01   5.358734495418e+01   1.232104001605e+01 
1 -5.394789635996e+01   2.777230064175e+01   2.430537302596e+01 
1  2.352243929293e+01   3.792966566574e+01   3.432674706021e+01 
1  6.280440728007e+00  -4.741272487316e+00  -8.691191075010e+00 
1 -1.720397439416e+00   1.235040338677e+01   6.017819541091e+01 
1 -2.833947736540e-01  -2.014289863273e+01  -1.726643254560e+01 
1  6.488278589960e+01   2.267127840101e+00  -5.985987825314e-01 
1  3.229771035463e+01   2.943761042730e+01  -1.007897564258e+02 
8
Step 14000
1 -8.034231093401e+01   4.549876185749e+01   5.295911711676e+00 
1 -1.748741889710e+01   3.069171436322e+01  -6.311914004289e-01 
1  1.334970956673e+01   3.086105211339e+01   1.825172413143e+01 
1  3.632871814308e+00   7.140885127215e+00   5.201368130047e+00 
1  3.610250706483e-01   1.872856627437e+01   3.252286500165e+01 
1  9.346251044303e+00  -2.557426077678e+01  -1.115963857638e+01 
1  7.087947816607e+01   7.330557955634e+00   2.463529592166e+00 
1  3.278923600864e+01  -9.700917596616e+00  -1.201616844137e+02 
8
Step 15000
1 -7.372817383355e+01   2.398502899946e+01  -3.857852597510e+00 
1  3.074887304039e+01   2.247069685683e+01  -1.775668066825e+01 
1  1.798858031329e+00   9.044621167902e+00  -4.153267833000e+00 
1  3.646304985512e+00   1.164421343233e+01   1.232357016082e+01 
1  8.954446870769e-01   1.613937281779e+01  -8.450499010800e+00 
1  1.394213140093e+01  -1.563288924937e+01  -1.342428475265e+00 
1  5.554267009206e+01   7.051545201775e+00   1.473433904448e+00 
1  2.172887963974e+01  -4.205632669318e+01  -1.036544828797e+02 
8
Step 16000
1 -4.061124795080e+01  -5.754467580784e+00  -9.969221419821e+00 
1  6.506299756711e+01   8.310490921322e+00  -2.299188883168e+01 
1 -8.994788271519e+00  -1.899628593562e+01  -2.769890411297e+01 
1  3.833789459806e+00   8.581636650585e+00   1.258909932135e+01 
1 -4.086864427888e+00   7.822166328712e+00  -4.436973072754e+01 
1  1.302355904993e+01   5.785620785832e+00   7.000565075047e+00 
1  2.029487175966e+01   2.652187127503e+00  -1.873726844517e+00 
1  3.913076984264e+00  -5.783636827095e+01  -6.151641899759e+01 
8
Step 17000
1  4.204753703384e+00  -3.257818435436e+01  -9.251657294965e+00 
1  7.087070948611e+01  -5.225172235125e+00  -1.795191541187e+01 
1 -1.756354924773e+01  -4.189513482345e+01  -4.554060831943e+01 
1  1.534450978501e+00   1.788453984737e-01   8.010014282116e+00 
1 -1.473150999384e+01  -1.091675859983e+00  -5.939773307992e+01 
1  8.104051069860e+00   2.780964274977e+01   1.043747868919e+01 
1 -2.276557655104e+01  -3.190317703787e+00  -5.204591259530e+00 
1 -1.375392412329e+01  -5.740390590134e+01  -1.551811771355e+01 
8
Step 18000
1  3.981846092703e+01  -4.705821307249e+01  -2.009552400823e+00 
1  4.764597321539e+01  -1.277764619018e+01  -6.387745095309e+00 
1 -2.212091534964e+01  -5.095388874874e+01  -5.051785574911e+01 
1 -3.824688464567e+00  -9.979722197427e+00   1.603419395484e+00 
1 -2.611516136190e+01  -5.790071299835e+00  -4.903952225527e+01 
1  1.509525347010e+00   3.896466408427e+01   8.588059995696e+00 
1 -5.740272392302e+01  -7.764368097067e+00  -6.610382595341e+00 
1 -2.544178715193e+01  -4.648732074647e+01   1.697309574201e+01 
8
Step 19000
1  5.406073456630e+01  -4.633276046437e+01   7.966923277119e+00 
1  6.742910479879e+00  -1.321693567124e+01   6.807560150857e+00 
1 -2.093475161201e+01  -4.215200828331e+01  -3.832848682211e+01 
1 -1.110249911266e+01  -1.740589250626e+01  -3.251363388242e+00 
1 -3.083327117836e+01  -4.337533874919e+00  -1.994747090818e+01 
1 -4.369073540741e+00   3.315589041091e+01   3.837772095808e+00 
1 -7.301442800953e+01  -8.962213961127e+00  -5.091026400232e+00 
1 -2.833721568938e+01  -3.093919367672e+01   3.468148583565e+01 
8
Step 20000
1  4.715752338770e+01  -3.305587551058e+01   1.634959059925e+01 
1 -3.105913349865e+01  -9.404224025964e+00   1.583349981002e+01 
1 -1.383628113542e+01  -1.751036865082e+01  -1.087686099351e+01 
1 -1.832827714004e+01  -1.750747175657e+01  -4.100529959472e+00 
1 -2.376436228453e+01   1.605627650016e+00   1.285145101129e+01 
1 -7.416102530491e+00   1.130335637138e+01  -1.487516585897e-01 
1 -6.755343383555e+01  -5.692258021432e+00  -8.893051582030e-01 
1 -2.299705608185e+01  -1.392255252501e+01   4.116291945666e+01 
8
Step 21000
1  2.771802176416e+01  -1.436323162171e+01   1.913154761565e+01 
1 -4.959821703144e+01  -4.518473341321e+00   1.769397874646e+01 
1 -3.081198834549e+00   1.396576533988e+01   2.254078719996e+01 
1 -2.288714287138e+01  -7.665629631902e+00  -9.609116960273e-01 
1 -5.263935208721e+00   8.263248447654e+00   3.387191630417e+01 
1 -6.717023649573e+00  -1.814001419441e+01  -1.042832446839e+00 
1 -4.525274097683e+01   9.608693676455e-01   4.422807338277e+00 
1 -1.282385806170e+01   3.670635067447e+00   3.775529840414e+01 
8
Step 22000
1  7.046085163466e+00   2.131897181821e+00   1.488424592937e+01 
1 -4.493246570426e+01  -1.227543208190e+00   1.250583054360e+01 
1  7.527414206017e+00   4.033073227064e+01   4.890252764924e+01 
1 -2.232738181801e+01   1.076592480882e+01   3.763870340377e+00 
1  1.828971553582e+01   1.128919342197e+01   3.608175709874e+01 
1 -3.015892418359e+00  -4.269448517810e+01   4.996941733968e-01 
1 -1.443697047088e+01   7.953236396212e+00   8.596981144412e+00 
1 -2.415394426627e+00   2.098305741068e+01   2.556939592017e+01 
8
Step 23000
1 -7.013244315200e+00   1.254632448859e+01   5.679544550060e+00 
1 -2.211608265221e+01  -1.633742188173e+00   2.627721302503e+00 
1  1.477375435032e+01   5.281079112623e+01   5.842958885325e+01 
1 -1.546373970037e+01   3.168748672356e+01   6.738056125132e+00 
1  3.710006768346e+01   7.629914961456e+00   2.221240177726e+01 
1  1.479366364650e+00  -5.266155160973e+01   1.316378153172e+00 
1  1.503165245833e+01   1.181736016742e+01   9.759755948594e+00 
1  4.847590433394e+00   3.570249303255e+01   7.984948710605e+00 
8
Step 24000
1 -1.253833478451e+01   1.674207003238e+01  -4.810728822265e+00 
1  6.933435013472e+00  -4.831252435025e+00  -7.571685655660e+00 
1  1.724388899356e+01   4.815306471393e+01   4.847319637604e+01 
1 -2.358304887132e+00   4.581069258867e+01   5.290122276572e+00 
1  4.307877824264e+01  -2.828093300928e+00   1.478359025659e+00 
1  4.210001176560e+00  -4.505170739321e+01  -1.953582752810e+00 
1  3.579259045488e+01   1.029997180508e+01   7.310138641798e+00 
1  8.490149657828e+00   4.411034773532e+01  -9.417360480083e+00 
8
Step 25000
1 -1.188182556208e+01   1.612499736137e+01  -1.360328057844e+01 
1  2.826455274406e+01  -6.991974432052e+00  -1.358397334599e+01 
1  1.533415396308e+01   2.858900587010e+01   2.346026835218e+01 
1  1.525728816909e+01   4.486387700939e+01  -6.470395699640e-01 
1  3.370275874426e+01  -1.656631952756e+01  -1.533086694255e+01 
1  3.519867660287e+00  -2.315293800992e+01  -1.003940455325e+01 
1  4.499880098123e+01   3.348360684309e+00   2.206624944310e+00 
1  1.075865109494e+01   4.275872453434e+01  -2.111356460639e+01 
8
Step 26000
1 -9.558912849880e+00   1.262441127553e+01  -1.893885139657e+01 
1  3.400713426450e+01  -4.751483200611e+00  -1.316286329479e+01 
1  1.120257233871e+01   1.530538428744e+00  -6.346810644960e+00 
1  3.302694442881e+01   2.544480454264e+01  -8.375081807414e+00 
1  1.271535686469e+01  -2.716515223327e+01  -2.120898262775e+01 
1 -6.049543152387e-01   4.989055886884e+00  -1.967805623993e+01 
1  4.309723252218e+01  -6.430329292993e+00  -3.379343939472e+00 
1  1.455494398174e+01   3.055059079390e+01  -2.407229712868e+01 
8
Step 27000
1 -9.355880780763e+00   7.985131990522e+00  -2.022800396176e+01 
1  2.426377213139e+01   2.964063962200e+00  -6.694967935576e+00 
1  7.409351378945e+00  -2.308618430157e+01  -2.932429505492e+01 
1  4.535287216435e+01  -8.167871199098e+00  -1.393954114982e+01 
1 -1.136878956161e+01  -2.776611403276e+01  -1.535237162671e+01 
1 -6.411340471959e+00   2.978718158694e+01  -2.513663837454e+01 
1  3.213152802662e+01  -1.433006997532e+01  -6.985534797129e+00 
1  2.090949638949e+01   9.808289593237e+00  -1.883654575814e+01 
8
Step 28000
1 -1.169138187991e+01   3.024883899516e+00  -1.780845278487e+01 
1  5.077663158402e+00   1.448566414235e+01   2.977602449371e+00 
1  4.886523712291e+00  -3.753996851493e+01  -3.860239618611e+01 
1  4.733007941302e+01  -4.305941886864e+01  -1.317208426064e+01 
1 -2.906699645354e+01  -1.438491036551e+01  -2.354871039479e+00 
1 -1.084692442478e+01   4.417031663655e+01  -2.178530607668e+01 
1  1.525864114296e+01  -1.571350508700e+01  -7.142868710593e+00 
1  2.741566729384e+01  -1.346373412913e+01  -8.866077872649e+00 
8
Step 29000
1 -1.386135312106e+01  -1.987536575630e+00  -1.233789284306e+01 
1 -1.393015608731e+01   2.497368655822e+01   1.138423770635e+01 
1  2.235983883503e+00  -3.884941030831e+01  -3.436989288617e+01 
1  3.559892335178e+01  -6.422976537203e+01  -3.846499283858e+00 
1 -3.436238605225e+01   1.110688831246e+01   1.048733307438e+01 
1 -1.039243325659e+01   4.563274342483e+01  -7.924023699056e+00 
1 -3.232283662176e+00  -8.610878740106e+00  -4.274944667917e+00 
1  2.858902428898e+01  -3.144936466819e+01   1.108706023367e+00 
8
Step 30000
1 -1.222275447225e+01  -6.486921880592e+00  -4.291171429486e+00 
1 -2.415736920588e+01   2.839786406277e+01   1.452051555057e+01 
1 -2.853111248437e+00  -2.846345118998e+01  -2.178379955364e+01 
1  1.025563124153e+01  -6.291794832441e+01   1.193979210935e+01 
1 -2.681314890099e+01   3.933183481864e+01   1.689326731261e+01 
1 -2.847385633370e+00   3.582122886952e+01   1.364367658564e+01 
1 -1.845830394839e+01   4.888551710372e+00  -5.099433167972e-01 
1  1.882847924797e+01  -3.845634285487e+01   7.022224439087e+00 
8
Step 31000
1 -4.596809071476e+00  -9.201836773974e+00   6.128242077634e+00 
1 -2.213181156875e+01   2.129178236270e+01   1.058164057068e+01 
1 -1.144053509147e+01  -1.103662838861e+01  -7.812861527617e+00 
1 -2.236274548743e+01  -3.869368377005e+01   2.776016374155e+01 
1 -1.097864276570e+01   5.664651813890e+01   1.434909951479e+01 
1  1.086983670252e+01   1.894402171683e+01   3.499068207698e+01 
1 -2.625825103107e+01   1.881564945837e+01   1.273009322968e+00 
1 -3.094853063787e+00  -3.329154603318e+01   7.202030253085e+00 
8
Step 32000
1  8.061185121339e+00  -8.876104619670e+00   1.788744816509e+01 
1 -1.017236800168e+01   5.422460425388e+00   3.063265755444e-01 
1 -2.181475308755e+01   7.166871244522e+00   1.954206679480e+00 
1 -5.094271924377e+01   4.695878506823e-02   3.566365426382e+01 
1  5.914556028843e+00   5.248318716440e+01   4.816480075419e+00 
1  2.623891649698e+01   5.329001825157e-02   4.672253664499e+01 
1 -2.454300860537e+01   2.573460813355e+01  -1.148453129932e+00 
1 -3.063174059472e+01  -1.916831017830e+01   3.063894870418e+00 
8
Step 33000
1  2.141077054525e+01  -5.310602076484e+00   2.829414590316e+01 
1  5.433266596133e+00  -1.271716831830e+01  -1.318080507757e+01 
1 -2.950378222859e+01   2.065006636559e+01   5.731435065571e+00 
1 -6.526599816467e+01   3.790930920048e+01   2.883181110005e+01 
1  1.705948135165e+01   2.458883115465e+01  -6.538137825714e+00 
1  3.645184835323e+01  -1.620257576998e+01   4.353022679947e+01 
1 -1.418946051054e+01   2.068387698587e+01  -7.739117504354e+00 
1 -5.141240052352e+01  -2.313084229613e+00  -1.769405857270e+00 
8
Step 34000
1  2.949169527287e+01   6.485112620246e-02   3.347315156764e+01 
1  1.730872939332e+01  -2.568689402243e+01  -2.496852544661e+01 
1 -2.904582590782e+01   2.621432535352e+01   5.649331450567e+00 
1 -6.006269669277e+01   6.065353195562e+01   5.038671004023e+00 
1  1.876333947252e+01  -1.721598696713e+01  -1.413088472671e+01 
1  3.404984269436e+01  -2.622925628256e+01   2.628992329853e+01 
1  7.238541259118e-01   4.251542901900e+00  -1.530493272327e+01 
1 -5.483815161825e+01   1.071604493324e+01  -3.366311037119e+00 
8
Step 35000
1  2.779496983995e+01   4.518457537647e+00   2.985868966777e+01 
1  2.054602614447e+01  -2.922132907734e+01  -2.961967730672e+01 
1 -1.664886833393e+01   2.337794700180e+01   6.353459553349e+00 
1 -3.617935293687e+01   6.115391017374e+01  -2.929605241218e+01 
1  1.187829960381e+01  -5.304068955700e+01  -1.458999484120e+01 
1  1.206460951298e+01  -2.867596211084e+01   4.346002941633e-01 
1  1.395818812392e+01  -1.640735238414e+01  -1.789181107605e+01 
1 -3.831832052649e+01   1.603632829230e+01   6.950015305672e-01 
8
Step 36000
1  1.543915543471e+01   5.156186996307e+00   1.554459711105e+01 
1  1.475026528961e+01  -2.366666710109e+01  -2.318361942890e+01 
1  6.170891285688e+00   1.417442592781e+01   1.178463271930e+01 
1 -1.547806541989e+00   4.019722661056e+01  -5.947578890631e+01 
1  8.673032256104e-01  -6.645486043817e+01  -8.153608058085e+00 
1 -3.047368796504e+01  -2.471077374472e+01  -2.531151156848e+01 
1  1.958300618598e+01  -3.044698990372e+01  -9.132042186529e+00 
1 -9.200034676544e+00   1.371921752550e+01   1.007586628617e+01 
8
Step 37000
1 -3.522431945899e+00   6.720368745955e-01  -7.752417640700e+00 
1  3.326188938643e+00  -1.313350159308e+01  -5.025221585117e+00 
1  3.069671415199e+01   2.169610391311e+00   2.191440387728e+01 
1  3.055691963782e+01   6.473966390833e+00  -7.060076326958e+01 
1 -8.481158512492e+00  -5.286935561119e+01   1.142874328079e+00 
1 -7.891119831521e+01  -1.663287966784e+01  -4.203185497793e+01 
1  1.444069316650e+01  -2.947967012847e+01   1.352394643171e+01 
1  1.859126181433e+01   7.042426212960e+00   2.114890882374e+01 
8
Step 38000
1 -2.098376170553e+01  -7.141261391414e+00  -3.303080268327e+01 
1 -8.843861717066e+00  -3.006974122327e+00   2.061589661550e+01 
1  4.524296884537e+01  -8.728327975398e+00   3.174448106826e+01 
1  4.877367755911e+01  -2.585265626185e+01  -5.482420850654e+01 
1 -1.089134446761e+01  -1.918979106674e+01   7.443148836383e+00 
1 -1.081139469813e+02  -6.824835877388e+00  -4.515481922679e+01 
1 -4.883793236463e-01  -1.224093818734e+01   4.458390525106e+01 
1  3.314935470074e+01   5.555451752236e-01   2.757895285080e+01 
8
Step 39000
1 -2.917434762881e+01  -1.307077686488e+01  -5.026199896493e+01 
1 -1.757986533302e+01   3.502640460178e+00   4.476976859914e+01 
1  4.282245908186e+01  -1.544004154236e+01   3.348684372865e+01 
1  4.943975328808e+01  -4.455270966948e+01  -1.463097514332e+01 
1 -4.012989340589e+00   1.788990490600e+01   7.004759309876e+00 
1 -1.017876039560e+02   2.015125182563e+00  -3.580067999145e+01 
1 -1.959126665779e+01   1.341852425703e+01   7.014390694322e+01 
1  3.025545192800e+01  -1.535562799410e+00   2.228151923619e+01 
8
Step 40000
1 -2.571015594515e+01  -1.114064213815e+01  -5.164507063310e+01 
1 -2.054645615670e+01   6.619912675589e+00   5.753262577237e+01 
1  2.394310813536e+01  -1.656538977275e+01   2.121342772584e+01 
1  3.617144813220e+01  -4.481970925276e+01   3.387893174535e+01 
1  8.935097131430e+00   4.167280355180e+01   3.868256708323e-01 
1 -5.786685104604e+01   8.430720866640e+00  -1.889128379921e+01 
1 -3.418119329917e+01   3.318278225734e+01   7.420594480728e+01 
1  1.436261431033e+01   2.309426899162e+00   1.467357146961e+00 
8
Step 41000
1 -1.424709663696e+01   1.415760150616e+00  -3.507280516441e+01 
1 -1.737400224171e+01   8.672229595950e+00   5.378095488273e+01 
1 -4.661727627495e+00  -1.292802510521e+01  -6.257997168896e+00 
1  1.662715604139e+01  -2.972189101473e+01   6.901382107314e+01 
1  2.001944345119e+01   4.510875588229e+01  -8.718764253460e+00 
1  7.769880529704e+00   1.347978810482e+01  -3.720300405339e-01 
1 -3.670048559290e+01   3.553056202913e+01   4.708761432052e+01 
1 -4.961469797404e+00   9.379794913235e+00  -3.003673330059e+01 
8
Step 42000
1 -1.735995430481e+00   2.160439859244e+01  -5.363358487698e+00 
1 -9.652463077873e+00   1.238572861397e+01   3.479033604833e+01 
1 -3.003972037448e+01  -6.614071084862e+00  -4.293779558603e+01 
1 -7.342341058159e-01  -7.888553418960e+00   7.895319501287e+01 
1  2.115462800684e+01   2.905860181574e+01  -1.433726547667e+01 
1  6.055589696154e+01   1.822440706015e+01   1.507987065606e+01 
1 -2.275351744259e+01   1.851926262459e+01  -5.930114093098e+00 
1 -1.825007112657e+01   1.443383828211e+01  -5.837754914951e+01 
8
Step 43000
1  5.245646907967e+00   4.101070796529e+01   2.689233331369e+01 
1  4.879078658352e-01   1.879061612713e+01   6.374995078344e+00 
1 -3.923071478342e+01  -4.280042453369e-01  -7.386016382784e+01 
1 -1.042890588932e+01   9.863940298601e+00   6.320517947093e+01 
1  9.711416012328e+00   1.284232339683e+00  -8.799725939974e+00 
1  8.038438898186e+01   2.250939865896e+01   2.490941946714e+01 
1  7.380628877471e+00  -1.090616483762e+01  -6.093882161694e+01 
1 -1.960856758320e+01   1.262678683566e+01  -6.935249523427e+01 
8
Step 44000
1  3.392164356448e+00   4.849079155040e+01   5.014530733878e+01 
1  1.259751018450e+01   2.535528013400e+01  -2.319110839406e+01 
1 -2.717995581481e+01   3.380813534955e+00  -8.260329877175e+01 
1 -1.205040575184e+01   1.520338275139e+01   2.911194018505e+01 
1 -9.896628185871e+00  -2.562850938952e+01   1.116773159234e+01 
1  7.107011732421e+01   2.494370736575e+01   2.807263266605e+01 
1  4.268685589000e+01  -3.655054177262e+01  -9.255764588332e+01 
1 -8.035024049932e+00   5.101718989428e-01  -5.615518440642e+01 
8
Step 45000
1 -5.062028333213e+00   3.531643850243e+01   5.793852818779e+01 
1  2.758177576691e+01   2.674801175432e+01  -4.678143052914e+01 
1 -5.054771059248e-03   4.289114374784e+00  -6.050141676812e+01 
1 -9.095147082820e+00   6.519255442972e+00  -9.672197520522e+00 
1 -2.718294788934e+01  -3.999983459502e+01   3.886631141128e+01 
1  4.278092109360e+01   2.274409752576e+01   2.479326084124e+01 
1  6.689023599140e+01  -4.263910571277e+01  -9.189228515996e+01 
1  1.095186974806e+01  -2.049035240075e+01  -2.227270276718e+01 
8
Step 46000
1 -1.066440914441e+01   2.376597258415e+00   4.853179246588e+01 
1  4.290021531169e+01   1.817788215720e+01  -5.906415119620e+01 
1  2.853012971166e+01   2.942652294925e+00  -1.257783821465e+01 
1 -5.651207537007e+00  -9.968093690623e+00  -3.982982367089e+01 
1 -3.209076488791e+01  -3.694783736554e+01   6.009084043171e+01 
1  5.162921855328e+00   1.369199691715e+01   1.687988173660e+01 
1  7.083126016672e+01  -2.614452276862e+01  -6.246296624963e+01 
1  2.805037047131e+01  -4.108259946489e+01   1.762829641483e+01 
8
Step 47000
1 -4.898809578568e+00  -3.735347604347e+01   2.430241546843e+01 
1  5.403935868391e+01  -1.770081175639e+00  -5.700167471277e+01 
1  4.381589737287e+01   5.267355205685e-01   3.917720106173e+01 
1 -4.281042739074e+00  -2.284753415016e+01  -5.459348909213e+01 
1 -1.957657366009e+01  -1.780127276539e+01   6.034266649202e+01 
1 -2.981214354290e+01  -3.831204929534e+00   6.095525453249e+00 
1  5.097488250545e+01   4.944074438626e+00  -1.670328516571e+01 
1  3.542583401854e+01  -4.939642225967e+01   4.663033230793e+01 
8
Step 48000
1  1.193387625616e+01  -6.580689759820e+01  -6.353847196674e+00 
1  5.678273673647e+01  -2.788711524242e+01  -4.035162945222e+01 
1  3.725150717722e+01  -1.374919154105e+00   7.010952740845e+01 
1 -6.067129185781e+00  -2.118566645219e+01  -5.246474539902e+01 
1  7.853917994881e+00   9.533980070087e+00   2.967204974932e+01 
1 -5.091578569401e+01  -2.783061829039e+01  -7.274843651094e+00 
1  1.123009656357e+01   3.661646220175e+01   2.831478508611e+01 
1  2.907746713116e+01  -3.959211606940e+01   5.759926346173e+01 
8
Step 49000
1  3.235418871193e+01  -7.177806639212e+01  -3.045862096012e+01 
1  4.565479852633e+01  -4.965944142326e+01  -1.379779099096e+01 
1  1.026931357186e+01  -1.413326272132e+00   7.257925606833e+01 
1 -1.012825019631e+01  -6.516239859788e-01  -3.570429649517e+01 
1  3.699814792435e+01   3.341604641239e+01  -2.608665240250e+01 
1 -5.198834246493e+01  -4.953691060767e+01  -2.064196462649e+01 
1 -3.107343404029e+01   5.297066138947e+01   5.865658616502e+01 
1  7.918450606013e+00  -1.303347415965e+01   5.214428664274e+01 
8
Step 50000
1  4.705915393784e+01  -5.314575064834e+01  -4.180368195608e+01 
1  1.579156439189e+01  -5.795469543407e+01   1.693984604870e+01 
1 -2.453049303793e+01   1.269530965880e+00   5.247841292412e+01 
1 -1.285965897485e+01   3.175595239554e+01  -1.013940550592e+01 
1  5.066559135938e+01   4.404358716324e+01  -7.642086892623e+01 
1 -3.427433757835e+01  -5.897576570818e+01  -2.911307199405e+01 
1 -5.793923373602e+01   4.601068954122e+01   6.891888041021e+01 
1 -2.186962306433e+01   2.148237595290e+01   3.533818818259e+01 
8
Step 51000
1  4.646019340971e+01  -1.759905431259e+01  -4.069498497662e+01 
1 -2.734240259017e+01  -4.664477575872e+01   4.371763604714e+01 
1 -4.904928720397e+01   6.369744628450e+00   2.225637256869e+01 
1 -1.010409576503e+01   5.980098075751e+01   1.633685366185e+01 
1  3.915990168362e+01   3.753877901990e+01  -9.336026230945e+01 
1 -6.069108435016e+00  -4.994997146764e+01  -2.854479109471e+01 
1 -6.304889987871e+01   1.845820103138e+01   5.963011005706e+01 
1 -4.731150288589e+01   4.831330438523e+01   1.441776946688e+01 
8
Step 52000
1  2.594957857076e+01   1.901810997875e+01  -2.818862191269e+01 
1 -6.649291288735e+01  -1.636137259048e+01   5.675369513402e+01 
1 -5.156033619216e+01   1.207320732066e+01  -4.846284687902e+00 
1 -1.665348788865e-01   6.834982835300e+01   3.634127051129e+01 
1  5.378458025684e+00   1.687407993016e+01  -7.230840580623e+01 
1  2.049931144238e+01  -2.148715383768e+01  -1.759347550976e+01 
1 -4.829730362368e+01  -1.700067776668e+01   3.364333635631e+01 
1 -5.712177612185e+01   5.496426799395e+01  -3.445603973025e+00 
8
Step 53000
1 -8.252604152169e+00   4.239765402907e+01  -8.824393547131e+00 
1 -8.520884161391e+01   2.039462115810e+01   5.226312731911e+01 
1 -3.146590528784e+01   1.493481291176e+01  -2.138763464444e+01 
1  1.521798346148e+01   5.173260231421e+01   4.436196753767e+01 
1 -3.505863027201e+01  -8.940205766639e+00  -2.713794494077e+01 
1  3.581731032285e+01   1.819020389804e+01   2.113501208404e+00 
1 -2.160468555901e+01  -4.328517001154e+01  -2.266262314709e+00 
1 -4.627038735237e+01   4.122059594776e+01  -1.546506131968e+01 
8
Step 54000
1 -4.167951759922e+01   4.754117688902e+01   8.818370148964e+00 
1 -7.680999392476e+01   4.807442468822e+01   3.303786136218e+01 
1  1.648990587412e+00   1.126817649142e+01  -2.699922755398e+01 
1  3.107610771799e+01   1.586348481754e+01   3.897900372745e+01 
1 -6.075425044790e+01  -2.937982582170e+01   1.686785415434e+01 
1  3.586433326352e+01   5.183138614825e+01   2.341063508865e+01 
1  5.034566702846e+00  -4.907942640635e+01  -3.686513763442e+01 
1 -1.621947078647e+01   1.475169295617e+01  -2.209735606160e+01 
8
Step 55000
1 -6.024806758870e+01   3.777435403026e+01   1.841887056574e+01 
1 -4.406190625040e+01   5.735740965276e+01   5.433252954155e+00 
1  3.155388503445e+01  -2.598225203436e-01  -2.486031769533e+01 
1  3.974641750196e+01  -2.225331219906e+01   2.290943032333e+01 
1 -5.960020735276e+01  -3.758836653419e+01   4.076279019778e+01 
1  2.290496222437e+01   6.561700759866e+01   3.608124369180e+01 
1  2.231105032682e+01  -3.419016658998e+01  -5.984972060264e+01 
1  2.275798010559e+01  -1.395832573447e+01  -2.462726899043e+01 
8
Step 56000
1 -5.790018226045e+01   2.126200054966e+01   1.926421611079e+01 
1 -1.176728922706e-01   4.642173409208e+01  -2.210754822954e+01 