8
Step 0
1  2.130326814812e+00   3.841428738278e+01  -3.900125211552e+01 
1  3.567597752465e+00  -3.504277063756e+01   3.861701022475e+01 
1  6.258847992801e+01  -7.076539324116e+01   6.450599359103e+01 
1  5.978855273526e+01  -4.628740992298e+01  -3.331699604665e+01 
1  5.663920321690e+01  -5.214564811192e+01   5.649937483509e+01 
1 -4.885508989697e+01   7.742773658779e+01   3.518899981800e+01 
1  3.981944038262e+01  -7.472662646084e+01  -5.860625198879e+01 
1 -7.332626035848e+01  -1.421247514719e+01  -1.259120980933e+01 
8
Step 1000
1  1.224260192706e+01   3.629610438041e+01  -1.462114121030e+01 
1  1.428834497145e+01  -3.921097794666e+01   3.357403331428e+01 
1  5.599654924045e+01  -4.779580837984e+01   6.740778043435e+01 
1  5.523417433765e+01  -4.881681054551e+01  -1.593331939337e+01 
1  2.894153839409e+01  -3.183549344905e+01   4.377018953690e+01 
1 -1.798330335420e+01   8.728505975302e+01   3.377661120389e+00 
1  3.858765021211e+01  -4.886417565114e+01  -6.296009750399e+01 
1 -5.258304888757e+01   3.443884382020e+00  -1.433267565306e+01 
8
Step 2000
1  1.187949643149e+01   2.664300993333e+01   1.581034059088e+01 
1  1.590650970457e+01  -2.182991650012e+01   1.777165047801e+01 
1  3.012893305597e+01  -6.738695688710e+00   5.012093378594e+01 
1  2.699525042452e+01  -3.279448422715e+01   9.522024611418e+00 
1 -7.031381463998e+00   4.319405773102e+00   2.553178775869e+01 
1  1.428145957816e+01   5.922299243364e+01  -2.783482170021e+01 
1  2.864785028496e+01  -7.587609490746e+00  -4.588461372026e+01 
1 -1.243172594514e+01   1.598711538658e+01  -1.728498981589e+01 
8
Step 3000
1  1.622772740959e+00   8.570859767835e+00   3.655168363972e+01 
1  1.060292839512e+01   8.199101168135e+00  -8.403565455054e+00 
1 -5.907738888602e+00   2.275534816855e+01   1.600421845436e+01 
1 -9.696086489611e+00  -1.038492204737e+00   3.536322186011e+01 
1 -3.030123666061e+01   3.477684534133e+01   4.757342614976e+00 
1  3.358892167973e+01   1.180433796148e+01  -4.299399184808e+01 
1  1.113951367130e+01   2.241156902170e+01  -1.174406409294e+01 
1  1.805235543360e+01   1.530629583482e+01  -1.872409222287e+01 
8
Step 4000
1 -1.510390565220e+01  -1.616138178410e+01   3.953061816114e+01 
1  3.112058179419e+00   3.252622041693e+01  -3.724110076624e+01 
1 -3.239939715741e+01   3.032897427385e+01  -1.994094127761e+01 
1 -3.255979342865e+01   3.130910171131e+01   5.061628467450e+01 
1 -3.512493323456e+01   4.603979667992e+01  -1.695260986780e+01 
1  3.782289852052e+01  -1.680875247247e+01  -3.871667587164e+01 
1 -1.144292462862e+01   3.359470511154e+01   2.108978463520e+01 
1  2.694166964715e+01  -5.249456576659e-01  -1.415189862752e+01 
8
Step 5000
1 -3.136453635820e+01  -4.180858792912e+01   2.684356561966e+01 
1 -3.582435549943e+00   3.815444703642e+01  -5.504809790860e+01 
1 -4.070113515306e+01   2.143301417379e+01  -3.996095993895e+01 
1 -3.644890732262e+01   4.690922487530e+01   5.018813536776e+01 
1 -2.652924179566e+01   4.035491148397e+01  -3.631051871721e+01 
1  3.099782196458e+01  -2.348656914376e+01  -2.059311920467e+01 
1 -3.467632398283e+01   3.190398276989e+01   3.536867618982e+01 
1  1.935345387317e+01  -2.801508887038e+01   3.331426082286e+00 
8
Step 6000
1 -3.977434143032e+01  -6.247768092427e+01   9.749636511647e+00 
1 -8.652537531767e+00   2.646914312623e+01  -5.482259817305e+01 
1 -3.593672945584e+01   2.577010300194e+00  -4.309455366504e+01 
1 -2.862278978318e+01   4.338938199283e+01   3.643842611229e+01 
1 -1.127598259611e+01   2.406727645519e+01  -4.822919742832e+01 
1  1.796838066274e+01  -1.595253196950e+01   8.790533638721e-01 
1 -5.398147511320e+01   2.243093024946e+01   3.227684356990e+01 
1  1.738475296816e+00  -5.737853886985e+01   3.965470006908e+01 
8
Step 7000
1 -3.215855547067e+01  -7.466704131868e+01  -4.825171963612e-02 
1 -1.130293423363e+01   8.081343157149e+00  -3.793492066684e+01 
1 -2.462486573234e+01  -1.744425736360e+01  -3.585899893482e+01 
1 -1.681718024457e+01   2.968327433967e+01   1.768633110754e+01 
1  4.121549388905e+00   4.531278000264e+00  -4.750617898214e+01 
1  3.329066369314e+00   1.242838474368e+00   1.596564415391e+01 
1 -6.549741969993e+01   9.640039828594e+00   2.119471160969e+01 
1 -1.781130627202e+01  -7.426057441378e+01   8.030805785588e+01 
8
Step 8000
1 -5.094757040969e+00  -7.175441965136e+01  -6.291296787508e-01 
1 -1.068742052056e+01  -5.815700711494e+00  -1.216854297328e+01 
1 -1.058174417932e+01  -2.933853112261e+01  -2.068896087256e+01 
1 -6.048128951386e+00   1.460712362981e+01   1.630007456713e+00 
1  1.533278842520e+01  -1.114354247142e+01  -2.722569278889e+01 
1 -9.314579664006e+00   2.038549250639e+01   2.124662329547e+01 
1 -6.089643435141e+01  -2.210543779111e+00   8.842715864872e+00 
1 -2.973819798445e+01  -6.188227048827e+01   1.002416995954e+02 
8
Step 9000
1  2.602635605647e+01  -4.074662108346e+01   3.308250685885e+00 
1 -7.579541971103e+00  -1.147334384740e+01   1.119076387743e+01 
1  3.867992995476e+00  -2.748906044081e+01   2.132696361286e+00 
1  1.123874974920e+00   1.927260748272e+00  -1.022077225183e+01 
1  2.136582191119e+01  -1.830539919767e+01   1.561871662121e+01 
1 -1.801919412099e+01   3.166660875052e+01   1.837476281141e+01 
1 -3.078705515437e+01  -1.016490529801e+01  -1.654556164053e+00 
1 -2.631841006070e+01  -7.203200291642e+00   9.214170546073e+01 
8
Step 10000
1  4.403475521983e+01   8.592408600119e+00   7.438996307203e+00 
1 -3.787974093948e+00  -1.072679484158e+01   2.401989244567e+01 
1  1.648060381478e+01  -1.144031465271e+01   2.835343684771e+01 
1  3.892844596796e+00  -6.690110989311e+00  -1.768358712249e+01 
1  2.312090600184e+01  -1.585262439411e+01   5.777318670328e+01 
1 -2.192767895264e+01   2.796348450945e+01   1.106432225986e+01 
1  1.076228701519e+01  -1.308394609771e+01  -8.197290158664e+00 
1 -4.933988172474e+00   4.479621009913e+01   5.794926319757e+01 
8
Step 11000
1  4.345662423250e+01   4.088767090047e+01   9.464049623029e+00 
1  2.508690719157e-01  -6.360754360913e+00   2.443186278393e+01 
1  2.487233310741e+01   1.276236755560e+01   4.923922987409e+01 
1  3.529628020232e+00  -9.786271637929e+00  -1.897544313470e+01 
1  2.152506974769e+01  -5.923807968173e+00   7.418091894752e+01 
1 -2.051724879016e+01   7.166956712667e+00   3.315863090620e+00 
1  3.920467385956e+01  -1.134142255858e+01  -9.149350517033e+00 
1  2.626544254160e+01   6.000607644807e+01   1.303265871503e+01 
8
Step 12000
1  2.621668088174e+01   4.700560405593e+01   7.434736064435e+00 
1  5.666577038228e+00  -1.243136942033e+00   1.621198636363e+01 
1  2.708599152429e+01   3.363116817926e+01   5.706497233847e+01 
1  3.403890899164e+00  -6.889960283821e+00  -1.282143268626e+01 
1  1.731888697074e+01   7.078475030059e+00   6.527539470309e+01 
1 -1.368591709264e+01  -2.381700675827e+01  -2.004743879073e+00 
1  4.822824734818e+01  -6.247995302773e+00  -4.482741917715e+00 
1  4.927160138666e+01   4.948837957814e+01  -2.108652940999e+01 
8
Step 13000
1  1.549009807967e+00   3.495807384816e+01   5.127183171124e-01 
1  1.322830641412e+01   2.035235371270e+00   4.394976910515e+00 
1  2.192892485400e+01   4.145162745170e+01   4.789668220071e+01 
1  6.618634509386e+00   6.529778162881e-01  -1.012415646743e-02 
1  1.046102886842e+01   1.758934805893e+01   4.029243709973e+01 
1 -2.332346707875e+00  -4.814953127837e+01  -4.142576604815e+00 
1  4.233998551124e+01   4.324852694564e-01   3.546255221607e+00 
1  5.219172634038e+01   2.476206739679e+01  -3.956324585685e+01 
8
Step 14000
1 -1.751412045891e+01   1.483809142368e+01  -9.926997751387e+00 
1  2.226020828851e+01   2.507843646733e+00  -6.939435367018e+00 
1  9.228517333450e+00   3.212544518439e+01   2.251823426937e+01 
1  1.363526738135e+01   9.164442466494e+00   1.643396794812e+01 
1  5.300840408076e-01   2.051058093432e+01   1.249223892521e+01 
1  1.123079487928e+01  -5.301965160491e+01  -4.407840562979e+00 
1  2.788049284260e+01   6.837522352221e+00   1.093229579715e+01 
1  3.410219131378e+01  -1.211259833672e+00  -4.401451123321e+01 
8
Step 15000
1 -2.344570199473e+01  -2.954616620455e+00  -2.121183424974e+01 
1  2.979397464437e+01   9.617381734344e-01  -1.441326147135e+01 
1 -9.396764116063e+00   6.942058040696e+00  -9.257600412755e+00 
1  2.203283806325e+01   1.298362565992e+01   3.123907733813e+01 
1 -1.158949912092e+01   1.233066513406e+01  -7.949804198022e+00 
1  2.349969475839e+01  -3.699149737495e+01  -5.277715521976e+00 
1  1.127091945033e+01   1.172703169018e+01   1.312825716143e+01 
1  3.949260971598e+00  -1.914974854705e+01  -3.552688877083e+01 
8
Step 16000
1 -1.604330160078e+01  -1.185107720862e+01  -3.009590807508e+01 
1  3.062363969700e+01  -1.183691535890e+00  -1.583479334690e+01 
1 -2.978058061546e+01  -2.418764547418e+01  -3.254518137536e+01 
1  2.702631339592e+01   6.488433909841e+00   3.885919169271e+01 
1 -2.313429502435e+01  -7.809771549847e+00  -1.951118878536e+01 
1  3.061731327326e+01  -9.047304504059e+00  -9.729152241671e+00 
1 -2.775494879987e+00   1.498435619305e+01   6.296260656525e+00 
1 -2.127838337524e+01  -2.705832815008e+01  -1.664957743928e+01 
8
Step 17000
1  5.791995664137e-01  -1.104709729644e+01  -3.247156184845e+01 
1  1.958962530281e+01  -2.350008044432e+00  -1.100618701870e+01 
1 -4.610499118306e+01  -4.562306771891e+01  -4.113511533035e+01 
1  2.300318834355e+01  -1.317659036341e+01   3.536795273806e+01 
1 -3.043854595172e+01  -3.453511125076e+01  -2.407464692955e+01 
1  2.857751967337e+01   1.441549012952e+01  -2.072102927085e+01 
1 -1.268553964093e+01   1.701140750921e+01  -1.070343938334e+01 
1 -3.188659724116e+01  -2.605435234155e+01   6.257247415538e+00 
8
Step 18000
1  1.982809357583e+01  -4.019553882681e+00  -2.312980655980e+01 
1 -3.831861947110e+00  -3.759784268416e-01  -9.045225243732e-01 
1 -5.291817676571e+01  -4.891278564995e+01  -3.739588741118e+01 
1  6.520980270288e+00  -4.063899789037e+01   1.756480820125e+01 
1 -3.051341113452e+01  -5.505557748670e+01  -2.302901410038e+01 
1  1.234404012269e+01   2.510573262470e+01  -3.624343846719e+01 
1 -1.951370397466e+01   1.776095591289e+01  -3.223909937888e+01 
1 -2.900439341365e+01  -1.797384745246e+01   2.468688429291e+01 
8
Step 19000
1  3.456069097124e+01   3.673107069026e+00   2.778223181181e+00 
1 -3.088452755136e+01   7.067462672790e+00   1.365469843750e+01 
1 -4.529689215689e+01  -3.424309236756e+01  -2.620460210288e+01 
1 -1.900515690967e+01  -6.020653642458e+01  -1.608871760103e+01 
1 -2.254319106944e+01  -5.735964135769e+01  -1.656281976343e+01 
1 -2.037704891005e+01   2.353127377234e+01  -4.509172822184e+01 
1 -2.519174595560e+01   1.622717667952e+01  -4.567928219120e+01 
1 -1.742702379188e+01  -5.411254556987e+00   3.302916266961e+01 
8
Step 20000
1  3.704945317440e+01   7.107939785320e+00   3.989438025304e+01 
1 -4.867204891855e+01   1.894621424042e+01   3.131657266221e+01 
1 -1.672394039394e+01  -7.173593610412e+00  -1.257420480591e+01 
1 -4.232696514165e+01  -5.764565277045e+01  -5.510625752954e+01 
1 -8.490049368061e+00  -3.534611555408e+01  -4.137479152530e+00 
1 -5.531286078083e+01   1.118418041933e+01  -3.425194100273e+01 
1 -3.057715662918e+01   1.079379585542e+01  -3.944770176682e+01 
1 -3.326380493903e+00   8.054049278379e+00   3.008884172489e+01 
8
Step 21000
1  1.914051118365e+01   2.072121010603e+00   6.890388165439e+01 
1 -5.016107335974e+01   2.964541375114e+01   4.513012570328e+01 
1  3.164624833344e+01   2.116232762252e+01  -3.901231714704e-01 
1 -5.321480578621e+01  -2.576003851168e+01  -7.920376416901e+01 
1  7.437541216391e+00   3.480027746050e+00   1.354711106512e+01 
1 -7.123121367092e+01  -8.186383953086e+00   9.892069450903e-01 
1 -3.378756655838e+01   7.828515839343e-01  -1.087469829534e+01 
1  7.508389006227e+00   1.876194295802e+01   1.763017913466e+01 
8
Step 22000
1 -1.579249738618e+01  -1.566846880020e+01   7.679155342650e+01 
1 -3.430508529245e+01   3.202759630018e+01   4.309041487590e+01 
1  7.007915487259e+01   4.000443711471e+01   7.419152614178e+00 
1 -4.842076005439e+01   2.133848099425e+01  -7.911484292177e+01 
1  2.065418169220e+01   3.504597751013e+01   3.149051947231e+01 
1 -6.098346153731e+01  -2.686044072574e+01   4.255654434806e+01 
1 -2.874620588975e+01  -1.153223368164e+01   2.480843930280e+01 
1  1.221508238228e+01   2.474988054214e+01  -5.110292458876e-01 
8
Step 23000
1 -4.571458696379e+01  -4.744066241332e+01   5.939401532330e+01 
1 -6.298245492510e+00   2.045564383367e+01   1.759103756370e+01 
1  7.953147486724e+01   4.584827890739e+01   9.946425392876e+00 
1 -2.988360361063e+01   4.951742194495e+01  -5.584340565550e+01 
1  2.785493252958e+01   4.562324325376e+01   4.131101507182e+01 
1 -2.944168044951e+01  -3.620961904926e+01   6.422004994142e+01 
1 -8.787072460011e+00  -2.110367718532e+01   4.619903664990e+01 
1  1.178637441157e+01   2.530423450020e+01  -1.863654321487e+01 
8
Step 24000
1 -5.550633239310e+01  -7.912990599104e+01   1.989079392127e+01 
1  1.975416851108e+01  -5.599167713539e+00  -2.179426509597e+01 
1  6.708305948716e+01   4.115573939830e+01   1.011489548534e+01 
1 -3.437364079866e+00   5.129805913945e+01  -2.101041740433e+01 
1  2.762572583366e+01   3.670801179607e+01   3.524978244791e+01 
1  4.940482685396e+00  -3.120544675927e+01   6.148361388448e+01 
1  2.305343422961e+01  -2.324387460516e+01   4.622304985358e+01 
1  1.026303166111e+01   1.830650261882e+01  -2.998047931963e+01 
8
Step 25000
1 -4.436515294107e+01  -8.783660240802e+01  -2.078233688211e+01 
1  3.173940040975e+01  -3.536490684951e+01  -4.916668021979e+01 
1  4.474570900692e+01   2.926756878835e+01   1.135267027237e+01 
1  2.155033936496e+01   3.527011360774e+01   5.829254458772e+00 
1  1.971724894640e+01   1.427946805243e+01   1.104168225955e+01 
1  2.391604803667e+01  -1.219145507410e+01   3.906471643971e+01 
1  5.159488696415e+01  -1.678444653417e+01   2.774379089827e+01 
1  1.262317660280e+01  -1.309264147740e+00  -2.747936934467e+01 
8
Step 26000
1 -1.738673731685e+01  -6.067426981700e+01  -4.487975752409e+01 
1  2.783926238331e+01  -5.325150108611e+01  -5.150120772773e+01 
1  2.321162102934e+01   1.330122522775e+01   1.441507897713e+01 
1  3.750941539037e+01   9.875025207750e+00   1.844293476860e+01 
1  4.731219756845e+00  -1.060586763815e+01  -2.079113986146e+01 
1  2.596235792958e+01   1.287883192119e+01   5.999150837624e+00 
1  6.346706273260e+01  -4.566006884595e+00   1.375876368455e+00 
1  2.176980490293e+01  -3.254627908287e+01  -4.934903392193e+00 
8
Step 27000
1  1.153131954731e+01  -7.131357249977e+00  -5.076889880925e+01 
1  1.376664422474e+01  -5.234618288301e+01  -3.147741080273e+01 
1  7.034769711352e+00  -3.182424240260e+00   1.783507902633e+01 
1  4.182775342321e+01  -1.502664091861e+01   2.155019483041e+01 
1 -1.493844794765e+01  -2.761273303741e+01  -4.355090643770e+01 
1  2.011733245519e+01   3.088386170440e+01  -2.220904524134e+01 
1  5.415020687658e+01   8.010453523295e+00  -1.883539292252e+01 
1  3.577537990820e+01  -6.113854852422e+01   3.153156951365e+01 
8
Step 28000
1  2.793394785013e+01   2.933896126453e+01  -4.015624022674e+01 
1 -2.252141943695e+00  -3.165099853491e+01  -1.724068521322e+00 
1 -4.655779440222e+00  -1.635748787372e+01   1.895971281008e+01 
1  3.468538826319e+01  -3.090453797394e+01   1.966544910855e+01 
1 -3.432740632990e+01  -3.247943389097e+01  -4.889874546586e+01 
1  1.432648077928e+01   3.392610241594e+01  -3.726018808003e+01 
1  2.552187619849e+01   1.558352641032e+01  -2.542819404398e+01 
1  4.682229774284e+01  -7.424660057320e+01   5.765984126502e+01 
8
Step 29000
1  2.870913833189e+01   3.934812187857e+01  -1.673089160607e+01 
1 -1.319113651584e+01   3.521461861921e+00   2.123464229526e+01 
1 -1.350209750617e+01  -2.322345784412e+01   1.444436233590e+01 
1  1.740513434577e+01  -3.345637083100e+01   1.525024768772e+01 
1 -4.760993029999e+01  -2.513477456260e+01  -3.598677696628e+01 
1  1.111800554855e+01   2.246897685478e+01  -3.867232005387e+01 
1 -9.270871611313e+00   1.557777978678e+01  -1.930345103797e+01 
1  4.250920677922e+01  -6.772213361051e+01   5.763274645179e+01 
8
Step 30000
1  1.874631492660e+01   3.283055196686e+01   1.048633865090e+01 
1 -1.499248599742e+01   3.630279629918e+01   3.037291805567e+01 
1 -2.017487407166e+01  -2.293090291057e+01   2.608506651189e+00 
1 -6.122410853200e+00  -2.187475244403e+01   9.267962221662e+00 
1 -5.022167470637e+01  -8.484641145522e+00  -1.016036857275e+01 
1  1.031389163018e+01   3.469312901408e+00  -2.699758368838e+01 
1 -3.176760314207e+01   9.119712239202e+00  -6.713578873383e+00 
1  1.210368654729e+01  -4.189223284062e+01   3.125817243037e+01 
8
Step 31000
1  6.070649569635e+00   1.691342166566e+01   3.135286396598e+01 
1 -5.805031212406e+00   5.225217574887e+01   2.702479325630e+01 
1 -2.389159144600e+01  -1.677166112681e+01  -1.405034939808e+01 
1 -2.851713487198e+01   3.538885470696e-01   2.197541419586e+00 
1 -3.863733304693e+01   1.125768667195e+01   1.638526093660e+01 
1  1.030776408989e+01  -1.224910493617e+01  -5.539555946241e+00 
1 -3.640958912445e+01   2.853195264206e-01   4.062501952027e+00 
1 -3.303878056452e+01  -4.936413509801e+00  -6.821340297614e+00 
8
Step 32000
1 -2.030320663755e+00  -4.683142569649e-01   4.080476371527e+01 
1  1.529221973961e+01   5.173876518729e+01   1.531733428756e+01 
1 -2.262325347063e+01  -7.223423985221e+00  -2.941624237962e+01 
1 -4.263357155009e+01   2.349580238583e+01  -5.698915723028e+00 
1 -1.173114288826e+01   2.667171292133e+01   3.261055314295e+01 
1  8.448876677844e+00  -1.710349090699e+01   1.765157375618e+01 
1 -2.736716052422e+01  -5.886321145147e+00   6.873911513601e+00 
1 -6.210694966255e+01   2.632396685512e+01  -3.176409524697e+01 
8
Step 33000
1 -2.852286025979e+00  -1.188989368325e+01   3.744209487690e+01 
1  4.450575645091e+01   4.179374499640e+01   9.008503078179e-01 
1 -1.406663080142e+01   2.781425395398e+00  -3.648422931132e+01 
1 -4.460597146793e+01   3.684782660313e+01  -1.417960743885e+01 
1  2.235387632520e+01   3.272061092148e+01   3.499882576948e+01 
1  2.197239522907e+00  -1.020977948802e+01   3.389420667858e+01 
1 -1.123833198055e+01  -6.422589215238e+00  -7.185143785416e-01 
1 -6.488593971117e+01   4.315129631529e+01  -3.515623075190e+01 
8
Step 34000
1  1.455544507258e+00  -1.418630051284e+01   2.268301805485e+01 
1  6.740580182204e+01   2.841560277843e+01  -1.201444059836e+01 
1  2.676694908891e+00   1.099947981794e+01  -2.875861060293e+01 
1 -3.291711555268e+01   3.554809544798e+01  -2.225474106607e+01 
1  4.734104123104e+01   2.675386728493e+01   2.496591905875e+01 
1 -9.323260726754e+00   3.974067098358e+00   3.827369082705e+01 
1  4.419728738498e+00  -3.186562329504e+00  -1.669809225510e+01 
1 -4.457583309118e+01   4.753155013524e+01  -2.318711079298e+01 
8
Step 35000
1  6.296419183840e+00  -9.010610824125e+00   1.526353022132e+00 
1  6.708828373814e+01   1.439733501659e+01  -2.067694382115e+01 
1  2.417076114162e+01   1.690802057198e+01  -1.723466107874e+00 
1 -9.014544224862e+00   1.935120718308e+01  -2.788143480835e+01 
1  5.420456159554e+01   6.617406065803e+00   6.591164337787e+00 
1 -2.402766289401e+01   1.770077773816e+01   2.959537242241e+01 
1  1.323792007658e+01  -2.010539731587e+00  -3.284691555915e+01 
1 -1.175851697589e+01   4.254371445200e+01  -5.396624513467e+00 
8
Step 36000
1  6.407924559663e+00  -5.779847967288e-01  -1.843750400732e+01 
1  3.406953997958e+01   7.731361057256e-01  -2.226015834895e+01 
1  4.220459098940e+01   2.084192680247e+01   3.686965524971e+01 
1  1.917034180041e+01  -8.169322875649e+00  -2.685564195354e+01 
1  4.328656141441e+01  -2.581037051591e+01  -1.298875802009e+01 
1 -3.679188433583e+01   2.281372333351e+01   9.784455385454e+00 
1  1.260077328032e+01  -8.104523598344e+00  -3.741716270823e+01 
1  1.648222089850e+01   2.994015726896e+01   9.448129577408e+00 
8
Step 37000
1 -2.722891064612e+00   7.228585346154e+00  -2.972720944656e+01 
1 -1.517510607029e+01  -1.078278613311e+01  -1.644982458532e+01 
1  4.926184546710e+01   2.344478156138e+01   6.453013293482e+01 
1  3.967467927685e+01  -3.901737931781e+01  -1.275265028133e+01 
1  1.882890638192e+01  -5.750991760210e+01  -2.648296795160e+01 
1 -4.094484181115e+01   1.274339844254e+01  -1.488537832013e+01 
1  3.998706225184e+00  -2.232936064306e+01  -2.175002708631e+01 
1  3.034571874693e+01   1.163684690470e+01   1.637648554641e+01 
8
Step 38000
1 -2.197130718335e+01   1.179238654758e+01  -3.099556860494e+01 
1 -4.527740560169e+01  -1.831316638019e+01  -5.960969086103e+00 
1  4.147595955341e+01   2.502576098507e+01   6.806320793819e+01 
1  4.630534410566e+01  -6.362835339786e+01   1.317390406382e+01 
1 -9.444357921573e+00  -7.133518007499e+01  -3.035282960364e+01 
1 -3.013517153157e+01  -1.533619702353e+01  -3.530146791451e+01 
1 -8.017410183432e+00  -3.976035243628e+01   1.189994922146e+01 
1  2.886279366041e+01  -8.871816502927e+00   1.437958095454e+01 
8
Step 39000
1 -4.517857443185e+01   1.097873729461e+01  -2.520614296756e+01 
1 -5.008366471860e+01  -2.035717084147e+01   5.634092953159e+00 
1  1.762706191361e+01   2.243588529126e+01   4.707187365971e+01 
1  3.891740007728e+01  -7.220181382890e+01   3.793748391668e+01 
1 -2.931277579698e+01  -5.849716543270e+01  -2.208684411770e+01 
1 -1.965853625152e+00  -5.075151271689e+01  -4.560549865708e+01 
1 -1.766237693511e+01  -5.140938433806e+01   4.379210929283e+01 
1  1.558512839458e+01  -2.633013576619e+01   5.069896523918e+00 
8
Step 40000
1 -5.911223595529e+01   3.549238025854e+00  -1.284419751821e+01 
1 -3.483211937080e+01  -1.627629303687e+01   1.413189820719e+01 
1 -1.559205376849e+01   7.979943248162e+00   1.572918654808e+01 
1  1.842876180916e+01  -5.492896263586e+01   4.927656295562e+01 
1 -3.643547113277e+01  -1.970091285214e+01   6.573010535682e+00 
1  3.362768474892e+01  -7.020501874324e+01  -4.545043906209e+01 
1 -2.054629935642e+01  -4.818573239463e+01   5.504504474277e+01 
1 -9.064867334694e-01  -3.564811399427e+01  -8.081327908866e+00 
8
Step 41000
1 -5.061198309641e+01  -8.694904494114e+00   5.853336131398e+00 
1 -6.835133728682e+00  -7.030816900671e+00   1.609635184481e+01 
1 -4.202823243948e+01  -2.546095293089e+01  -3.687294351740e+00 
1 -1.123597137080e+01  -8.619365752743e+00   4.178409953029e+01 
1 -3.265618406976e+01   2.222342906081e+01   4.774288716394e+01 
1  5.906622575713e+01  -6.024646967999e+01  -3.701925374220e+01 
1 -1.462773904848e+01  -2.387781683020e+01   4.172469031972e+01 
1 -1.020242274810e+01  -3.557286211722e+01  -2.043952621592e+01 
8
Step 42000
1 -1.471982073226e+01  -2.098438411575e+01   2.684268809386e+01 
1  2.070499496721e+01   5.094540853150e+00   9.129919321839e+00 
1 -5.043105553796e+01  -6.693015085859e+01  -1.440570767550e+01 
1 -3.816333583732e+01   3.722025266033e+01   1.621330105940e+01 
1 -2.107252521096e+01   4.064806373890e+01   7.210460588641e+01 
1  6.606833339930e+01  -2.214159164078e+01  -2.193036228172e+01 
1  8.762738911601e-01   1.560583073548e+01   1.067961521511e+01 
1 -6.160563152480e+00  -2.967806584176e+01  -2.710194517048e+01 
8
Step 43000
1  2.907073090585e+01  -2.874369879827e+01   4.234672449962e+01 
1  3.587380016733e+01   2.026158642671e+01  -8.750039709774e+00 
1 -3.944805733738e+01  -9.007202016191e+01  -2.206694976569e+01 
1 -5.093664658253e+01   5.503278770600e+01  -1.632122146787e+01 
1 -5.497643261480e+00   3.769126164199e+01   6.921351489049e+01 
1  5.368228902195e+01   1.839942449631e+01  -2.710932033145e-02 
1  2.552860463640e+01   4.671218676266e+01  -1.969770520716e+01 
1  1.046943512432e+01  -2.035249936234e+01  -2.478206213723e+01 
8
Step 44000
1  5.226635410725e+01  -2.940109843974e+01   4.541534217030e+01 
1  3.388513062725e+01   4.315149666064e+01  -3.466719633227e+01 
1 -1.345020628432e+01  -8.413801580155e+01  -2.543874053593e+01 
1 -4.606045901137e+01   4.989912797589e+01  -3.864077238760e+01 
1  1.058240588718e+01   2.306056798462e+01   4.375996185681e+01 
1  2.566912521787e+01   3.517374063892e+01   2.846859904836e+01 
1  5.336699460136e+01   5.530896375206e+01  -3.445483922742e+01 
1  3.113107658961e+01  -7.742296798518e+00  -1.304272010207e+01 
8
Step 45000
1  5.101511672557e+01  -2.174853105976e+01   3.324024442974e+01 
1  1.564303066143e+01   6.537309659311e+01  -5.586129425941e+01 
1  1.681501343057e+01  -5.165570521353e+01  -2.075334314360e+01 
1 -2.563852443034e+01   3.105806310873e+01  -4.267295561844e+01 
1  2.525053070783e+01   4.412336292792e+00   9.856232742042e+00 
1 -5.931761635005e+00   3.184316294554e+01   5.679235531290e+01 
1  7.118736526986e+01   4.419030934923e+01  -3.254568403791e+01 
1  4.280645127475e+01   7.377822942008e+00   6.644102202831e+00 
8
Step 46000
1  3.209154288179e+01  -5.335313333506e+00   8.000901861207e+00 
1 -1.137900708769e+01   6.925344894915e+01  -5.824183602791e+01 
1  3.765895456112e+01  -1.208463349522e+01  -6.151649273893e+00 
1  1.773218349730e+00   8.017443672069e+00  -3.107716903232e+01 
1  3.846668902995e+01  -1.141072016168e+01  -1.449881680923e+01 
1 -2.838456579135e+01   1.731351448400e+01   7.362720936019e+01 
1  6.695407631904e+01   2.333135732354e+01  -1.885581501416e+01 
1  3.467878968432e+01   2.206463939443e+01   3.217749145515e+01 
8
Step 47000
1  6.455454642834e+00   1.854288466240e+01  -2.062622356937e+01 
1 -3.324398570665e+01   5.038050538276e+01  -3.439615323015e+01 
1  4.169589092441e+01   1.182706516286e+01   1.442664200705e+01 
1  2.358486733370e+01  -1.052379164942e+01  -1.160169883074e+01 
1  4.979906996674e+01  -1.981985491738e+01  -2.375777531022e+01 
1 -3.811184887770e+01  -8.085577851440e-01   7.129453427295e+01 
1  3.545697452464e+01   4.898665742833e+00  -2.919242939749e-01 
1  2.007294369394e+00   3.183752126490e+01   5.561420528419e+01 
8
Step 48000
1 -1.348404569112e+01   4.398712256107e+01  -3.923604783837e+01 
1 -3.902371577548e+01   1.758443434237e+01   7.174171901843e+00 
1  2.748176992692e+01   2.262865992394e+01   3.195796512716e+01 
1  3.252048561694e+01  -2.037126953245e+01   5.763548389536e+00 
1  5.490397272119e+01  -1.908226022999e+01  -2.290699936957e+01 
1 -3.734957546905e+01  -1.499123752420e+01   4.545153090927e+01 
1 -8.650462715313e+00  -4.491823496178e+00   1.563673745625e+01 
1 -4.114686086683e+01   3.341837191960e+01   6.527858306520e+01 
8
Step 49000
1 -2.062796946618e+01   6.157525320882e+01  -4.197485379597e+01 
1 -2.727436959674e+01  -1.067984790643e+01   3.918752406874e+01 
1 -2.452479246467e+00   2.704044682907e+01   3.799295720459e+01 
1  2.854366770585e+01  -2.025078516380e+01   1.385310133426e+01 
1  4.326421641230e+01  -9.662783829897e+00  -1.875846373677e+01 
1 -2.910790258126e+01  -2.107926187602e+01   2.091479815651e+00 
1 -3.755425088708e+01  -6.301389268511e+00   2.373732850484e+01 
1 -6.526501467178e+01   2.398372408397e+01   5.437278773842e+01 
8
Step 50000
1 -1.463333159476e+01   6.316675436271e+01  -3.066776378076e+01 
1 -4.993221729841e+00  -2.222392386719e+01   4.825742059484e+01 
1 -3.558541297938e+01   2.548587521998e+01   2.874743992713e+01 
1  1.580419416725e+01  -1.176317791949e+01   1.213239427796e+01 
1  6.668703360713e+00   5.058698293462e+00  -1.556854648081e+01 
1 -1.585951585202e+01  -1.674101608901e+01  -3.302753023741e+01 
1 -4.556797562884e+01  -6.226542663974e+00   2.234343404266e+01 
1 -6.264259001850e+01   2.345136594749e+00   2.315655983039e+01 
8
Step 51000
1 -1.136798428445e+00   4.296649239721e+01  -1.143516395219e+01 
1  1.340976042897e+01  -1.781485170140e+01   3.742225833202e+01 
1 -5.428736368459e+01   1.744870110675e+01   4.530283488892e+00 
1  1.390823816130e-01   3.088847376474e-01   5.056380455957e+00 
1 -3.692162340397e+01   1.907842603166e+01  -1.370821376339e+01 
1  7.173561362252e-01  -1.971312473072e+00  -4.633430405055e+01 
1 -3.911027394098e+01  -8.717923218324e+00   1.255332979434e+01 
1 -4.304330490844e+01  -2.631296765477e+01  -1.437510327254e+01 
8
Step 52000
1  1.119033687224e+01   2.541487968896e+00   7.237673886735e+00 
1  1.799434477928e+01  -5.791506690662e+00   1.373807512207e+01 
1 -4.980624959176e+01   4.649947842324e+00  -2.787663773646e+01 
1 -1.294604158104e+01   1.011677949198e+01  -1.806487655430e+00 
1 -6.018709043281e+01   2.649869076410e+01  -1.080836758877e+01 
1  1.869428701807e+01   1.886238561883e+01  -4.474749196533e+01 
1 -2.450095121226e+01  -1.367530731376e+01  -1.599573428345e+00 
1 -2.103519070894e+01  -4.939798112092e+01  -4.055341965961e+01 
8
Step 53000
1  1.491238310500e+01  -3.659252597261e+01   1.928273599433e+01 
1  1.346008388143e+01   5.595214486471e+00  -1.262020159411e+01 
1 -2.094980128560e+01  -9.788510888426e+00  -5.358954434112e+01 
1 -1.962126383781e+01   1.343102584315e+01  -4.880505426774e+00 
1 -5.824787291541e+01   2.403011756903e+01  -4.594861538305e+00 
1  3.535939080674e+01   3.826220495021e+01  -3.543124621571e+01 
1 -7.267603147218e+00  -1.800579722712e+01  -1.295257262982e+01 
1 -6.176193139643e+00  -5.529823367261e+01  -5.073648220799e+01 
8
Step 54000
1  6.070549426054e+00  -5.267246920429e+01   2.227699242881e+01 
1  3.843802434747e+00   1.144204840816e+01  -3.163330067685e+01 
1  2.108445387497e+01  -2.218975158830e+01  -6.051910290823e+01 
1 -1.686721156525e+01   7.609375601026e+00  -3.425845165075e+00 
1 -3.647067221276e+01   1.259109576048e+01   4.680800654614e+00 
1  4.753303395789e+01   4.852919584877e+01  -2.213693798249e+01 
1  8.402710719547e+00  -1.912718089938e+01  -1.596210150394e+01 
1  1.115051812345e+00  -3.698802621764e+01  -4.696857880269e+01 
8
Step 55000
1 -1.370709876390e+01  -4.782834531459e+01   1.610768844361e+01 
1 -7.886708349180e+00   8.961443629361e+00  -3.790743852648e+01 
1  4.918315046087e+01  -2.985657498738e+01  -4.344417709931e+01 
1 -2.204442665726e+00  -7.860580357426e+00   1.025518790647e+00 
1 -6.686298142852e+00  -1.581453010822e+00   1.399082519493e+01 
1  4.954822316547e+01   4.345202887018e+01  -7.818700081269e+00 
1  2.066341982444e+01  -1.613396182366e+01  -1.121215163788e+01 
1  4.103730809151e+00   9.202571396726e+00  -3.227050125097e+01 
8
Step 56000
1 -3.587962663825e+01  -3.357426497020e+01   3.393741605765e+00 
1 -1.729227928763e+01  -4.507536147464e+00  -2.948306410090e+01 