8
Step 0
1  2.086108577697e+01   4.693432203065e+01  -2.284201364120e+01 
1  9.091580979047e+00   6.922598102697e+01   4.061902542366e+01 
1 -3.244458265140e+01   6.111061475566e+01   4.971198066405e+00 
1  1.212382219856e+01  -1.902742052781e+01   7.102886472015e+00 
1 -5.665730473373e+01   6.058214040052e+01   2.055098169242e+01 
1 -6.201009357882e+01   6.982676963481e+01  -4.984931700386e+01 
1 -3.197718126494e+01  -5.533441737496e+00   2.967724491637e+01 
1 -8.215372080555e-01   3.172605093898e+01   4.379452421306e+00 
8
Step 1000
1 -1.467456826597e+01  -2.241181022804e+01  -1.351036016428e+01 
1 -2.479157645032e+01   2.633251827201e-01   8.134131229151e+00 
1 -2.582441983995e+01   3.128138451586e+01  -1.077305049266e+01 
1 -5.204416087994e+01   2.628405934902e+01   5.305178208238e+01 
1 -1.120164951239e+01   5.929436237675e+01   5.634128721633e-01 
1 -1.886445488640e+00  -1.383288145864e+01   1.686831719735e+01 
1 -7.543860829123e+00   1.834211841170e+01   2.000720416108e+01 
1 -6.226358890024e+00  -2.753251010517e+01  -6.679518515372e+00 
8
Step 2000
1  2.190957952792e+01  -1.346705512813e+01  -9.489312603330e+00 
1 -6.954829626427e+00  -1.070461792702e+01  -7.897397973468e+00 
1 -3.797527982347e+01   3.291442341162e+01   3.860030938999e+01 
1 -1.492051181525e+01  -2.183164477384e+01   1.047361328412e+01 
1 -1.487276387021e+01   1.554709142313e+01  -1.630859442038e+01 
1 -1.563278827461e+00  -3.375497689676e+01   1.463948709196e+01 
1 -5.472909365129e+01   3.069705197451e+01   4.196459432661e+01 
1  4.806370465307e+00   8.115749705069e+00   3.847298605428e+01 
8
Step 3000
1 -3.923187522134e+01   4.891019319166e+01   2.666632933646e+01 
1  5.029883978604e+01  -3.763425146925e+01  -5.925850404956e+01 
1 -3.074679783450e+01   2.515212902159e+01   7.643058527133e+01 
1 -2.947750228992e+01   1.701027896294e+01   4.305465999587e+01 
1 -2.598021205158e+01  -2.260753733530e+01  -7.903688970352e+01 
1  9.373558298207e+01   2.472389819274e+01  -6.180734502277e+01 
1  3.210973609620e+01  -7.438265428361e+01  -5.618001285231e+01 
1 -2.136591143600e+01   1.483775943985e+01   2.571812864454e+01 
8
Step 4000
1  7.548018910567e+00  -2.920883670649e+01   2.426806773648e+01 
1  1.363806343669e+01  -3.471300054829e+01  -6.485870825777e+00 
1 -3.098473083119e+01  -4.454743838052e+01   3.447326164588e+01 
1 -1.486574245306e+01  -2.833535080244e+01   6.685820923250e+01 
1  2.290767543016e+01   1.513497150470e+01  -1.537414177620e+01 
1 -9.391810880718e+00   1.039875571859e+01  -2.477640256365e+00 
1  4.548312493345e+01   2.312162873292e+01   3.620152416432e+01 
1 -1.591491346861e+01   6.648761684320e+01   4.694509550224e+01 
8
Step 5000
1  1.617663444864e+01  -3.004356750486e+01  -4.458411911259e+01 
1 -3.847433719995e+01  -1.434124993107e+00  -2.057151938912e+00 
1  2.041263363262e+01  -4.887582096440e+00   2.961543860106e+01 
1  4.164163379511e+01  -6.060778618215e+00   7.053295555181e+00 
1  6.043422378586e+01   1.904702743285e+01  -3.589556610439e+01 
1 -1.368734654257e+02  -3.113634772787e+00  -2.801026883254e+00 
1  7.348996811800e+00   2.412433709758e+01   2.831736244959e+01 
1 -2.031937300003e+01   2.481961524279e+00   2.888299157709e+01 
8
Step 6000
1  7.468595373147e+01   2.686303689060e+01  -4.287645535014e+01 
1  1.833639165396e+01  -6.388936781228e+01   2.752671611775e+01 
1  3.824888669631e+01  -5.493780008458e+01  -2.193677804765e+01 
1 -1.468760175911e+01  -3.537497713412e+00   6.788341788391e+01 
1 -4.883460478190e+01  -2.893467454203e+01   6.347017963205e+00 
1  3.335340435353e+01  -4.877763070391e+00   6.475418639759e+00 
1  3.987136615998e+00   5.407572822872e+01  -4.101959653830e+01 
1  7.976467748129e+00  -6.711325913732e+00   1.369261340210e+01 
8
Step 7000
1  1.700457063112e+01   2.681363619929e+01  -2.196805989508e+01 
1 -2.426299801743e+01  -3.870718039972e+01   3.483369139628e+01 
1  5.308723291947e+00  -3.928253794677e+01  -2.611762435128e+00 
1  3.364218928903e+01   3.315526612198e+01   7.189490138693e+00 
1 -1.672051345913e+01   2.275461645240e+00  -4.928729572364e+01 
1  1.950529998329e+01   7.095294609690e+01  -2.582420558858e+01 
1 -1.430225310103e+01   3.466407050469e+00  -9.531001467214e+00 
1  1.047298089844e+01  -6.167317084938e+00  -3.023615776287e+00 
8
Step 8000
1 -8.659330047115e+00   2.790867543519e+01   2.506273451396e+01 
1 -5.623074912456e+01   3.146930812860e+01   5.829933989997e+01 
1  9.787041118400e-01  -4.523426062180e+01   1.404573896304e+00 
1  7.564493237106e+00  -2.392690487980e+01  -7.396013049936e+01 
1  8.067992774518e+00   3.229710816280e+01   4.183082547412e+01 
1 -1.033169525183e-01   7.580026258964e+01  -2.682441513353e+01 
1  2.565279560651e+01   3.685173814914e+01   3.230011352075e+01 
1  5.271439445433e+01   2.415180470715e+01  -2.035225109906e+01 
8
Step 9000
1 -1.300484716281e+01  -1.403564938175e+01   4.080190386991e+00 
1  8.209953043172e+01   3.724294347831e+01   1.816040098413e+01 
1  6.190840365222e+00  -3.625996922229e+01  -1.356014556237e+01 
1  4.090087164343e+00   2.982020795165e+01  -3.804077450861e+01 
1  4.382120790964e+01   1.817379661236e+01   1.446473014896e+01 
1 -3.058680253358e+01  -5.676089225745e+01  -2.296476089121e+01 
1  2.042877483757e+01   1.955045805193e+00   9.585880676437e+00 
1  5.121850430354e+00   2.325558104207e+01   7.535391179255e+00 
8
Step 10000
1 -2.000567480856e+00   5.345114622472e+01  -2.159202372583e+01 
1  1.950332416943e+01   4.369737974208e+01   8.055879753867e+01 
1 -6.021883558141e+00  -2.102173798392e+01   1.293922211607e+01 
1 -2.818337236938e+01   1.681293782505e+01   1.652309139514e+00 
1  9.391421224463e+00   4.105320299341e+01  -5.735667208463e+01 
1 -5.573299124288e+00  -4.703406925405e+01   3.763880465417e+00 
1  8.622296145526e+00   6.434488489063e+00  -3.855065855859e+01 
1  3.997117301809e+01  -6.059578035886e+01   8.951602825206e+00 
8
Step 11000
1  3.425585258575e-01  -1.654897236745e+01   1.663788323750e+01 
1 -1.482748826628e+01   2.370836340165e+01   3.588205415105e+01 
1 -5.100883253604e+01   3.795209138308e+01  -1.862756556378e+01 
1 -3.305687396840e+01  -6.832381586969e+00   9.036836732849e-01 
1  7.381378360950e+01   1.349465796890e+01  -3.240064477232e+01 
1  3.245743699690e+01  -1.363375276313e+01  -4.432306525879e+00 
1  9.324636002528e+00   3.467203418145e+01   4.012203826849e+01 
1  4.657815660280e+01   3.081594286591e+01   2.626292355285e+01 
8
Step 12000
1  1.158081748621e+01   3.485757809027e+01   3.054818410367e+01 
1 -7.924635917616e+00  -3.252004459559e+00  -5.935708176498e+00 
1 -4.064041986224e+01   8.153897410401e+01   7.699723045758e+00 
1 -2.587543467999e+01  -2.199003367646e+01   4.108571491330e+01 
1  2.110350407635e+01  -4.894065634879e+01  -2.559822682118e+01 
1  1.436771413933e+01   4.840576269538e+01  -5.745968078965e+00 
1  1.741439337464e+01   1.602004500635e+01   4.084144669881e+01 
1  1.177671436448e+00   1.225074638166e+01  -6.703527874323e+01 
8
Step 13000
1  5.635184496893e+01   1.293922598922e+00   5.110783611950e+00 
1 -5.665944979040e+01   3.489760333072e+01  -2.329680310831e+01 
1  1.634922681318e+01   1.976951820316e+01  -1.336067701263e+01 
1  4.610505622552e+01  -4.348374871618e+01   2.897383060380e+01 
1 -3.840925382176e+00  -2.593382551314e+00  -3.387721876980e+01 
1  4.487967170363e+01   1.300236394599e+01   2.317731227884e+01 
1  8.627832884900e+00  -2.398381043039e+01  -5.112078460303e+01 
1  3.996723769242e+01  -4.649593064627e+01  -3.381104925333e+00 
8
Step 14000
1  3.950708834854e+01  -1.346821392135e+01  -2.691378964722e+01 
1 -4.628047346082e+01   1.805253618034e+01  -2.475685440133e+01 
1  4.043348354177e+01   1.298054718720e+00   5.709781963745e+01 
1 -4.641970755051e+01  -7.239416182718e+00  -3.928437799043e+01 
1 -3.063987468537e+01   2.622869435986e+01   1.075841501704e+01 
1  5.773689424393e+01   1.607414854557e+01   2.687649728612e+01 
1  2.623098743922e+00   1.064797617205e+01  -2.665170201389e+01 
1  2.023869530106e+01   2.169936661472e+01   2.093092652661e+00 
8
Step 15000
1 -1.304067887350e+01   9.032257721943e+00  -2.190339440574e+01 
1  3.219481003250e+01  -3.074400863820e+01  -6.587428166783e+01 
1 -2.792190745104e+00   1.519803833503e+01  -2.384131380434e+00 
1 -2.866288187501e+01   2.528309376049e+00  -2.618115880378e+01 
1 -5.647504423675e+01   3.605751540848e+01   7.701976368918e+00 
1 -2.870875968372e+01   5.248594808541e+01   4.255415983842e+01 
1 -8.473768873942e+01   6.141037187082e+00  -5.761828726092e+01 
1  7.193932083062e+01   2.136247093949e+00   2.965999690704e+01 
8
Step 16000
1  4.374303019245e-01  -9.444507370604e+00  -4.586057382098e+00 
1  1.884742129734e+01  -2.525746319871e+00  -8.201205585244e+00 
1 -2.106787019395e+01   5.092076663617e+01  -2.918262181695e+01 
1 -3.743606280437e+01  -5.165294597430e+01   1.277464574599e+01 
1 -9.232678487446e+00  -4.117973840037e+01   6.253847376072e+00 
1 -4.753274146655e+01   3.423134789692e+01   9.703833236197e+00 
1  3.388621073733e+01  -3.781566831195e+01  -7.325265509481e+01 
1  2.425456668619e+00  -3.331358037220e+01  -6.063305717334e+01 
8
Step 17000
1  4.591809893138e+01   2.080559414370e+01   1.593921260737e+01 
1  2.308397106748e+01  -2.562142192228e+01   1.180902088441e+01 
1  1.104092748397e+00  -7.242356540264e+00   1.340466796483e+01 
1 -5.529971008952e+01  -6.218924181646e+00   1.497286586916e+01 
1 -2.026114948876e+01   3.528708479662e+00   2.261547419464e+01 
1 -6.284058834752e+01  -7.477545726846e+00  -3.228974753807e+01 
1  7.630877523234e+01  -1.698309757071e+01   9.430489254254e+00 
1  6.894185688126e+01  -8.987804049710e+00  -4.881051836874e+01 
8
Step 18000
1  1.247601717191e+01  -3.359035802678e+01  -3.744449781342e+00 
1  4.426959404740e+01  -7.917577438106e+00  -8.332525108157e+00 
1 -3.596495454056e+01  -3.040872460768e+01   3.704076463743e+01 
1 -3.462614778822e+00   3.161283088987e+01   5.100599728101e+00 
1 -9.717253769812e+01  -2.288539145114e-01   1.970263227519e+01 
1 -1.724614951297e+00   9.174224341787e+00  -6.102784569125e+01 
1  5.041134151448e+01   6.076303057778e+01   1.674425476370e+00 
1  3.068386647185e+01   3.176859285514e+01  -1.150264845575e+01 
8
Step 19000
1  7.753059079306e+01  -3.854395891452e+01  -3.045553979307e+01 
1  1.794697104949e+01   4.908721077859e+01  -3.517178123956e+01 
1 -6.260588524627e+01  -3.388821182874e+01  -4.678525162364e+01 
1  7.314260481500e-01   5.085003796336e+01  -1.308222007937e+01 
1 -6.099151959789e+01  -2.216799781436e+01   2.260851429064e+01 
1 -2.439884780831e+01   7.459461013470e+00  -4.729172185261e+01 
1  4.345285891175e+01   3.451155021794e+01  -5.300325245472e+01 
1  4.028447758394e+00  -1.133152748156e+01  -1.595940246939e+00 
8
Step 20000
1 -4.280855956175e+00   5.654527448382e+01   5.132036709817e+00 
1 -4.640460182327e-01   1.289665101057e+01   1.569413194986e+01 
1  3.061428329346e+01  -6.741144428575e+00   4.592165051942e+01 
1  2.003624564264e+01  -4.923637993636e+01  -3.050411309055e+01 
1  1.570329169421e+01  -3.179998616690e+01   1.293740428941e+01 
1 -1.586503779269e+01  -3.920896459829e+01  -2.224528985330e+01 
1  3.551673635536e+01  -6.725756690175e+00  -4.053751639920e+01 
1  1.517801315275e+01  -6.286168239397e+00   1.913669313277e+01 
8
Step 21000
1  4.035193600700e+01  -3.513940956981e+00  -4.329193294441e+00 
1  1.575203223502e+01  -1.018311409781e+02  -6.583251819754e+00 
1  6.282804529482e+01   3.716879303541e+01  -1.756063298943e+01 
1 -6.713651400752e+01  -3.527614625535e+01  -2.631243564718e+00 
1 -7.534024452673e+00  -9.040768988746e+00  -1.455621480165e+00 
1  1.653625314090e+01  -5.964689609364e+01   2.193323494830e+01 
1 -4.774353239891e+01  -2.514546320970e+01   3.965128656465e+01 
1  2.234072267152e+01   6.342430171936e+00   5.807162296182e+01 
8
Step 22000
1  3.689854197261e+01  -6.858362467793e+00  -3.776686139822e+01 
1  1.620379631412e+01  -4.602145442128e+01  -8.433485275653e-01 
1  4.249743325367e+01  -1.369548912143e+01  -3.771781878316e+01 
1 -2.749628348679e+01  -5.381595645825e+01  -2.670125103653e+01 
1  6.142144729614e+01   1.181547129736e+01  -6.607938311950e+01 
1 -1.251611143500e-01   5.662897071717e+00   6.693547088554e+01 
1 -1.578112785791e+01   3.926881773194e+01   1.000205874249e+01 
1  8.057825766875e+00   5.833312809001e+00  -5.750288840766e+01 
8
Step 23000
1  6.847412622394e+00   1.557160888289e+01  -2.103058505958e+01 
1 -3.544847182444e+01   1.183467050984e+01   6.057468245509e+00 
1  1.177006734411e+01  -6.561373397410e+01   2.120011787714e+00 
1  2.800725793903e+00  -1.517966748193e+00  -1.803422912509e+01 
1  4.466851809267e+01  -4.258025153237e+01  -4.722832600461e+01 
1 -8.394650834404e+01   4.189223906244e+01   2.698527538792e+01 
1 -1.196898541104e+01  -2.962766544949e+01  -1.037567930450e+00 
1  6.815417516461e+01  -4.990571321289e+01  -2.395788779170e+01 
8
Step 24000
1 -3.400061695192e+01   1.665848385278e+01   4.494923783404e+01 
1  2.154302805724e+01  -9.731153360408e+00   4.457328419985e+01 
1 -4.568900214079e+01  -3.315502720907e+01   2.499509391994e+01 
1  6.214982927919e+01  -4.315061219407e+01  -3.397582564256e+01 
1  3.725955699488e+01  -4.223407234284e+01   1.059885189766e+01 
1  7.454952415827e+00  -4.852821623076e+01   3.069308470428e+01 
1 -9.075911146266e+00  -2.541865477820e+01   2.234111293677e+01 
1  1.715444576957e+01   2.350559830380e+01   5.690988012845e+00 
8
Step 25000
1  3.875497407866e+00  -9.705633590789e+01  -3.436547061045e+01 
1  7.439413112700e+01  -1.256855297652e+01   7.463067268257e+00 
1 -3.137483732899e+01  -3.248069715857e+01   1.153571124231e+01 
1  1.587357692457e+01   2.219766659616e+01  -1.261199891520e+01 
1 -1.459432427279e+01  -6.555378136806e+00  -3.165195868797e-01 
1  6.219082201790e+00  -1.752421723098e+01  -4.938421165854e+01 
1 -2.703866796996e+01  -9.026401211237e+00   2.903698736046e+01 
1 -2.914588303630e+01  -3.471469753379e+01  -7.593792452330e+01 
8
Step 26000
1  9.041555982598e+01   1.374700695063e+01  -4.091889598040e+01 
1  8.373392707454e+00  -1.443880953095e+01  -1.010705514337e+01 
1  4.461854963794e+01  -2.922722029906e+01   1.097321929731e+01 
1 -3.614182631522e+01   5.051599676554e+00   4.160013590807e+01 
1  1.060695942005e+01  -3.768718838786e+00   1.412211006227e+01 
1 -8.978333738514e+00   2.349542496671e+01  -3.901572656570e+01 
1 -1.061517716911e+01   6.201662261941e+00   1.072828214730e+01 
1  3.085573768422e+01  -4.114327044694e+01   4.264686497413e-01 
8
Step 27000
1  1.695642927727e+01   2.545148678210e+01   3.030880138697e+01 
1 -2.979109992472e+01  -1.255575795767e+00  -3.033296326861e+01 
1  3.438330456115e+01   4.989337561856e+00   6.025350473289e+01 
1 -1.624585277415e+01  -2.241043175410e+01   1.521662037679e+00 
1  1.053575655089e+01  -2.333441579225e+01  -2.908906321422e+01 
1 -5.913408213787e+01  -3.959924285216e+01   2.291166802341e+00 
1  1.258158809205e+00  -7.374504393592e+00  -4.609179634863e+01 
1  2.884841458822e+01  -4.121872974147e+00  -2.429912113760e+01 
8
Step 28000
1 -1.280826714959e+01  -1.063156041798e+01   4.464724331517e+00 
1 -2.184225972634e+01   3.197485385666e+01   1.106418571633e+01 
1  1.940732100462e+01   5.014665785060e+01   2.243841126085e+01 
1  4.345073999235e+01  -2.230811855389e+01  -2.777087177228e+01 
1 -7.155567346071e+00   3.204186399947e+00   1.288355131414e+01 
1 -6.882287074901e+00  -4.298830213712e+01   4.183967530198e+01 
1  5.146135224474e+01  -4.780434597778e+01  -4.700814786731e+01 
1  3.304096521965e+01  -5.424652505169e+01  -7.872867005895e+00 
8
Step 29000
1  5.645959771940e+01  -3.424559247703e+01   4.147199202873e+01 
1 -8.536269921887e+00   5.071933939481e+01  -3.775922171967e+01 
1 -1.630509532715e+00   2.237832635144e+01  -5.004663655291e+01 
1 -4.942851943763e+00   8.137621297252e+01  -1.058684841882e+02 
1 -2.919650754314e+01   5.549147291733e+01  -1.864721371617e+01 
1  1.213493131190e+01  -8.409033945030e+00  -1.296061389921e+01 
1  3.587151894513e+01  -6.689699494765e+01  -1.492780590737e+01 
1  6.466939597501e+01  -2.731605986287e+01  -3.780195534942e+01 
8
Step 30000
1  4.601749230852e+01   2.788646924975e+01   3.401431839734e+01 
1  4.448329985816e+01  -6.753600735201e+01  -4.090897725282e+01 
1 -7.441984462928e+01   1.584876932172e+01  -3.007194357506e+00 
1 -2.459011184236e+01   3.809321853085e+01   1.578165669585e+01 
1  1.534726259020e+01   4.305203242374e+01   7.638552435034e+00 
1 -2.668341442879e+01   3.390789250975e+01   2.194994612556e+00 
1  1.271671619020e+01   7.174671396583e+00   1.156104178723e+01 
1  1.305907797116e+01  -2.085726247154e+01  -4.916707343676e+00 
8
Step 31000
1  3.074198829529e+01  -1.561974325940e+01   1.050044760197e+01 
1  1.112362767505e+01   1.234195488182e+01  -2.814713238461e+01 
1 -1.839391948105e+01   1.310974814393e+01   1.239562628269e+00 
1 -2.693075582461e+00  -4.227369630054e+01   1.842786502520e+01 
1 -2.606221183053e+01   9.817024696273e+00  -1.043225684751e+00 
1  4.441814783651e+00  -5.877531394671e+00   3.748323385837e+01 
1  2.838318645598e+01  -1.776909646182e+01   3.534510258822e+01 
1 -1.019855276554e+01  -9.153655679470e+01   5.612242747901e+01 
8
Step 32000
1 -1.150192850397e+01   6.089564112883e+01   1.170732478859e+01 
1  3.608057605377e+01  -3.307835276075e+01   5.534328216319e+00 
1 -1.424376823164e+01   9.204458479028e-01  -5.675476704167e+01 
1 -4.369189002499e+01  -5.764113398483e+00   1.576548720297e+01 
1 -2.285505069437e+01   1.134372750150e+00   2.452877508276e+01 
1  2.935545466443e+01  -1.635135939366e+00   6.378903764878e+01 
1 -3.545029293649e+01  -1.399983385552e+01   2.000750858241e+01 
1  6.767363803542e+01   1.415354403807e+01  -2.469822262994e+01 
8
Step 33000
1  4.704522890762e-01  -2.231897919235e+01   1.605184999056e+01 
1  8.266520104372e+01   1.528579446427e+01   1.157208621773e+01 
1 -2.917685496740e+01  -3.982036658388e-01  -1.956139240245e+00 
1 -7.755523795415e+01  -2.803295185390e+01   9.131143389217e+00 
1  2.530054698773e+01   2.569826149484e+01  -1.290344382400e+00 
1  1.342678167826e+01   4.106750362192e+01   5.130346428248e+00 
1  2.131095947098e+00  -1.329693220557e+01   1.874733209221e+01 
1 -1.659162095124e+01   2.918257901831e+01  -5.106774267499e+01 
8
Step 34000
1  4.210536848458e+01   3.716464620413e+01   3.966342234002e+01 
1 -6.550831203764e+00   1.988858390217e+01  -3.609381302594e+01 
1  2.666738327148e+01  -7.002243992053e+01   5.614484718038e+01 
1 -8.012142193144e+00   4.022191488528e+01  -1.042157757796e-01 
1 -8.955047021611e+00   1.156469575591e+01   3.323272438671e+01 
1 -2.329436154922e+01   3.813971229825e+01  -1.000467298991e+01 
1 -4.613443482812e+00   6.584497101160e+00  -1.123054005082e+01 
1 -1.529212977853e+00   3.867250019441e+01   5.110924046478e+01 
8
Step 35000
1 -1.371871602461e+01   6.888087063455e+01   4.806439330594e+01 
1 -4.472499908644e+01  -2.731037904833e+00   4.487168113991e+01 
1  2.710415511159e+01  -2.747603279285e+01   3.517267828674e+01 
1  1.440237246510e+01  -4.316773667983e+01  -5.316410777422e+01 
1  4.366621348032e+01  -6.960555203146e+01   4.051264503010e+01 
1  1.881057193666e+00   3.009451874442e+01   3.952290764077e+01 
1  1.287129753754e+00  -4.822771161261e+00  -8.828476420672e+01 
1  7.528659678343e+01   1.380790382079e+01   6.181886276650e+01 
8
Step 36000
1 -3.192821140389e+01   3.149381695116e+01  -4.284911933297e+01 
1  3.518139508097e+01   4.771334873568e+01   5.349559509404e+01 
1 -1.973654707618e+01   5.620366671392e+01   4.397399489610e+01 
1  2.502994392344e+01  -6.320511978344e+01   1.212656751258e+01 
1  5.066707205602e+01   2.681314588877e+00  -1.892894553720e-02 
1 -3.609201099492e+01  -1.693354448849e+01   1.201229773083e+01 
1 -1.870026635050e+01  -1.993311995152e+00  -6.457965746288e+01 
1 -2.577337756110e+01  -1.866179301423e+01   7.306855884566e+00 
8
Step 37000
1  2.841417918933e+01  -1.857895929552e+01  -4.203108160782e+00 
1  4.365411304998e+01  -5.261244592121e+00   7.012420792729e+01 
1  1.125408076350e+01   2.585873859951e+01   2.381404114461e+01 
1 -1.807279554619e+01  -4.042961722008e+01   1.164326713074e+01 
1 -2.858906836043e+01   8.258793978899e+01   7.632343266874e+01 
1 -2.220513730771e+01  -3.556408834880e+01   4.505288197856e+01 
1  1.513893662488e+01   7.727522835787e+01  -2.306049989622e+01 
1 -1.671909731660e+01   1.445781601359e+01   3.718162696116e+01 
8
Step 38000
1  2.840189863373e+01   6.333948724868e+01  -2.173154533468e+01 
1  3.275785061865e+01   2.539624365349e+01   1.164997100913e+01 
1 -1.495511609997e+01   3.283758818875e+00   2.656865899304e+00 
1 -2.077516587018e+01  -6.594426393560e+01   1.247585526171e+01 
1  6.174406460099e+01  -2.219615927955e+01   4.415444833354e+01 
1  1.047345467120e+01  -4.856586940727e+01   6.046642303736e+01 
1  1.331959957885e+01   5.585169342824e-01   9.524030140102e+00 
1 -3.364990961649e+00   1.393926944867e+01   3.336721283286e+01 
8
Step 39000
1 -3.166729689705e+01   6.897861197580e+00   2.739956658030e+01 
1 -8.606816291134e+00   1.520053360935e+01   3.597763010132e+01 
1  1.196141998391e+01  -2.121130901445e+01   2.109336430094e+01 
1 -3.560614393268e+01   2.708931810214e+01   7.230178132347e+00 
1  1.493287330039e+01  -6.620793699113e+01   2.985369683882e+01 
1 -1.576802998816e+01   3.744419216111e+01   1.845083929219e+01 
1  2.489854474342e+01  -3.429228677655e+01  -1.782264829560e+01 
1 -4.417598224527e+01   7.551261521170e+01  -1.947927203075e+01 
8
Step 40000
1 -2.274787325055e+00  -1.701939690537e+01   2.194133530610e+00 
1 -1.711121207951e+01   1.569430873807e+01  -3.633147626169e+01 
1  1.200786284608e+01   3.856757463407e+00   2.223211934743e+01 
1 -1.293460252617e+01   1.340499052530e+01  -2.359246974732e+01 
1 -4.042048243151e+00  -5.744104277576e+01   1.077059981166e+02 
1  4.662425873789e+01  -5.602673724395e+00   2.330802580382e+01 
1  2.834321992465e+01  -2.641732476642e+01  -7.044599800573e+01 
1 -1.298763696179e-01   1.161584533174e+01  -2.710629345045e+01 
8
Step 41000
1  4.314850439234e+01  -2.812370903847e+01  -2.801536654893e+00 
1  6.168057220659e+01  -1.930393687034e+01  -3.462005913787e+01 
1 -6.486645476922e+00   5.480339573014e+00   7.795103049335e+00 
1  3.687080256119e+01  -1.343712451796e-01   7.738650003077e+00 
1 -1.530708212105e+01   7.282593074012e+01   1.953146629398e+01 
1 -8.112114226835e+00  -3.714149117492e+01  -4.921450970350e+01 
1  8.084033706107e+00  -7.060831634739e+00   2.130145053968e+01 
1 -4.501107071795e+01   1.406262608668e+01   5.388414810005e+01 
8
Step 42000
1 -4.809077489900e+00  -1.527665729332e+01  -5.688974836165e+01 
1  1.749799064745e+01  -3.804556070926e+01   2.037217116141e+01 
1 -1.814655659115e+01   2.915623876389e+01   1.506436712507e+01 
1 -4.948344721638e+00   2.058499799899e+01   6.692282626261e+01 
1 -4.680049027252e+01   3.042767159891e+01  -2.649544880234e+01 
1  6.647979282440e+01  -2.640842759715e+01   3.450894598728e+01 
1 -3.795529652256e+01   2.268346921407e+01  -2.307389656895e-01 
1  3.469928589755e-01  -1.893305389113e+01   5.173256593308e+01 
8
Step 43000
1  1.376084364848e+01  -2.679655150143e+01  -2.082427543067e+01 
1 -5.946815848188e+01  -4.226615957179e+01  -4.347788503374e+01 
1  6.649007202842e+01   4.565274125852e+01  -1.139942707651e+01 
1 -8.077196761133e+00   1.092520667107e+02   2.227684150076e+01 
1  4.002188306640e+01   2.048799989135e+01  -3.866360514073e+01 
1  2.303582469420e+01   4.419878305662e+01  -5.787045850171e+00 
1 -3.806469473710e+01   1.698083929707e+01  -3.525022761611e+01 
1  1.297477697488e+01  -5.169894963874e+00   2.074279280727e+01 
8
Step 44000
1  2.544601910028e+01  -1.022050354863e+01  -2.048469477787e+01 
1 -1.786934097884e+01  -9.764129749877e-01   1.553149705906e+01 
1  3.266436547628e+01  -4.385950336261e-01   4.146261559262e+01 
1  8.678096894943e+00  -1.258545751645e+01  -2.804693693358e+01 
1  3.199450991554e+01   4.203062021740e+01  -2.360769040425e+01 
1  2.507863391087e+01   1.080633028690e+01  -7.765050930923e+01 
1 -7.429869356438e+00   6.556877516976e+01  -2.341966246187e+01 
1  2.733091223279e+01   4.179242018471e+01  -4.051554378928e+01 
8
Step 45000
1  2.079927936888e+01   2.477645078494e+01  -1.812944180040e+01 
1  4.243104445291e+01   2.048803194117e+00   3.173112782850e+01 
1 -9.539497287299e-01  -4.194135685775e+01   4.828633587679e+01 
1 -2.243909130595e+01   2.155320226406e+01   2.913201468151e+01 
1 -3.091745818277e+01   3.423656897534e+00  -1.908031281188e+01 
1  2.196259433509e+01  -2.349523332085e+01  -3.067984888651e+01 
1  2.586331265708e+01   6.055621888165e+01   1.146147784777e+01 
1 -3.146137072153e+01   8.089063322101e+01   2.506531575902e+01 
8
Step 46000
1 -1.623610556485e+01  -4.229234140193e+01  -3.846498202900e+01 
1  3.083568828459e+01   4.657481252076e+01   2.372456169422e+01 
1  7.392007477050e+01  -2.613261734767e+01   3.751280292629e+01 
1  2.591959923560e+01   1.478141848575e+01  -4.524558217631e+01 
1  2.299478809062e+00   1.164759863629e+01   5.601675933445e+01 
1  1.437275188911e+01  -1.947379934017e+01   3.447477592756e+01 
1  5.593559346322e+01  -1.074513212887e+01  -2.219627216082e+01 
1  4.916050067925e+00   4.270511185585e+01   7.370935400965e+00 
8
Step 47000
1  1.464563852400e+01   7.102161055894e+00  -6.584189443080e+00 
1  7.724257964395e+01   7.938443371526e+00  -1.201811335422e+01 
1  2.518700443933e+01  -3.034316702157e+01  -5.860738518937e+00 
1  1.995907412984e+01   4.842495017464e+01   3.712948706939e+00 
1  3.004280975961e+01   4.603070140306e+01   1.273519106397e+00 
1 -5.550273265289e+01  -4.751155041127e+00   8.283668741689e+00 
1  3.482180944453e+01   4.278306575593e+01  -1.318354830568e+01 
1  2.418337945794e+01  -1.060426062638e+01   5.280661478931e+00 
8
Step 48000
1  1.303092183841e+01  -1.392406887841e+01   3.753715972028e+01 
1  3.802045521311e+01   1.219842113949e+01   1.488696414928e+01 
1 -4.531365819976e+01  -2.330304038503e+01  -4.095654048906e+00 
1  5.309280686359e+01   1.052001844807e+01   5.601116190770e+01 
1  5.780060085819e+01  -1.004113412422e-01   1.674413945687e+01 
1 -8.435058780638e+00  -4.592139231057e+01  -5.903481136520e+01 
1 -4.480896806710e+00   7.953522907590e+00  -2.956145526323e+01 
1  3.503464796514e+01   4.806991844006e+01  -2.497108899387e+01 
8
Step 49000
1  4.158817697428e+01  -2.235886256656e+01  -5.003281954922e+01 
1  3.080560921925e+01  -6.222899012054e+01   7.137608508374e+00 
1 -9.134132557753e+01  -2.131378163432e+00   1.010884187686e+01 
1  7.664465388294e+00  -1.223828596151e+01  -2.801937117246e+00 
1 -4.868887900516e+00   6.408363728262e+01   4.829284054293e+01 
1 -4.840079315619e+01   2.602540532513e+01  -2.027756831450e+01 
1 -1.405941407313e+01  -3.518703167373e+01   2.216764023503e+01 
1  7.606571362261e+00  -9.493988869348e+00   2.279160651545e+01 
8
Step 50000
1 -4.821297038732e-01  -1.083446661613e+01  -5.725828764644e+01 
1 -3.384976680069e+01  -3.877173196321e+01   2.519139144501e+01 
1  3.915202662515e+01   3.811277014230e+01   1.684260125919e+00 
1  8.961878418266e+01   3.494625272996e+01  -2.963966391158e+01 
1  3.370892123603e+01   6.123232889907e+01   2.896824349606e+01 
1  3.427403702649e+00  -2.476090423020e+01   1.421647545336e+00 
1  5.236782993550e+00  -3.661408674693e+01   3.686793885709e-01 
1  4.609152288108e+01  -2.337987064944e+01  -2.067004358166e+01 
8
Step 51000
1 -1.942407669738e+01  -5.161069672506e+00  -1.129500596837e+01 
1  1.162319112711e+01   2.739071851511e+01  -5.960585645536e+00 
1  5.684640389792e+01  -2.092180607011e+01  -1.518448374030e+01 
1  2.486945962522e+01   1.765194785815e+01  -2.827984997119e+01 
1  5.199802413398e+01   5.068092726964e+01  -2.457354615143e+00 
1  6.837186601893e+01   4.059859026718e+01  -2.060923933926e+01 
1 -7.335350382005e+00  -3.234562973595e+01   4.769523669964e+01 
1  4.198578874096e+01  -2.363101032359e+01   1.915547081284e+01 
8
Step 52000
1  4.818259119802e+01   3.718087709074e+01  -1.014576548689e+01 
1 -4.631921470351e+01  -1.451763230552e+01  -4.628055142532e+01 
1  2.820451969889e+01  -1.072044709665e+00   2.350176060444e+01 
1 -1.590258258618e+01   7.906414654826e+01   2.168177787127e+01 
1 -3.028394309596e+01  -1.345499613160e+01   7.587480257740e+00 
1  2.685551051756e+01   1.980040467786e+01   2.596988797223e+01 
1 -2.180305810651e+01  -3.199226617445e+01   3.658831803184e+01 
1  1.706618615217e+01   1.714378657666e+01  -5.769543521450e+01 
8
Step 53000
1  4.506330178179e+01  -7.920625144666e+00   3.171525967304e+01 
1 -1.403719020259e+01  -4.247337424434e+01  -3.323869626335e+00 
1  4.674822953829e-01  -4.007966426350e+01   9.754658269013e+00 
1  1.582762473286e+01   1.105199519525e+01   1.683961411293e+01 
1  9.394749244832e+00   1.601699269346e+01  -9.351443509482e+00 
1  1.445278382292e+01  -4.450273626693e+01   2.775935341387e+01 
1  2.261513524569e+01   1.675619152357e+01   7.799114438800e+01 
1 -2.531872945068e+01   1.968591177732e+01   2.199078894561e+01 
8
Step 54000
1 -3.601463238642e+01   4.694327845453e-01  -4.270368251824e+01 
1 -9.517739861766e+00   1.782400878619e+01  -4.677576790483e+01 
1  9.417472849168e+00  -1.773465901986e+01  -9.311178721080e+01 
1  5.271044676345e+01   5.380354828225e+01  -1.536104921988e+01 
1 -7.092061270809e+00   9.354013234564e-01  -3.231577362231e+00 
1  1.245291926720e+01   5.140132855961e+01   3.519252178026e+01 
1  3.234757368347e+01   1.325609060504e+01  -2.922552887972e+01 
1  2.066690700258e+01   3.020010703156e+01  -1.938162466693e+01 
8
Step 55000
1  4.836026657087e+01   1.660880304688e+01  -1.143039583163e+01 
1  1.411192523825e+01  -6.953966175356e+00  -4.434377077816e+01 
1  5.567790002373e+00  -4.192853829753e+01   3.747337736598e+00 
1 -1.827923325956e+01  -8.396510459285e+00   3.108006646115e+01 
1 -3.011086302439e+01   1.627424340900e-01  -2.584637461599e+01 
1  8.456362844394e+00   1.518118905805e+01  -3.893995115329e+01 
1  3.353418557718e+01  -8.195751022492e+00   4.347661205137e+01 
1 -3.077586255496e+01   3.699922275640e+00  -6.034932620258e+01 
8
Step 56000
1 -1.095948664817e+00  -4.626132622927e+01   3.707147561278e+01 
1  1.329666110377e+01  -3.362979690218e+00  -4.643206189280e+01 