8
Step 0
1 -4.335052367192e+01   6.226770353478e+01  -1.571831079641e+01 
1 -4.197517804778e+01   5.557624918835e+01   6.050689884240e+01 
1  4.062082842113e+01  -6.869837660098e+01  -6.406602060552e+00 
1  3.202042668263e+01  -9.333787405458e+00   7.585091136361e+01 
1  2.169421302650e+01  -5.304981751903e-01  -3.452327492586e+01 
1  2.479565131470e+00   3.727202342153e+01  -7.541307749490e+01 
1  3.539535683763e+01   1.835259957186e+01  -5.811004072382e+01 
1  1.040422054410e+01   7.251222155371e+01   5.312714128624e+01 
8
Step 1000
1 -5.695661197561e+01  -3.266829904706e+01   3.885426757074e-01 
1 -1.379836840843e+00   2.011741488402e+01   1.364758918706e+01 
1  3.582332230105e+01  -3.266532962013e+01   4.094786701861e+00 
1 -3.604175616034e+01  -6.586735418157e+00  -1.022164554608e+01 
1  2.170451829917e+01   3.690592333002e+01  -1.854427491294e+01 
1  3.990899789479e+00  -6.354840771981e+01  -1.364673848286e+01 
1  5.095267211319e+00   7.095992143108e+00   4.276305647601e+00 
1  1.612517867180e+01   1.036949304858e+01  -1.854979901747e+01 
8
Step 2000
1  1.604099002059e+01  -2.564036108374e+01   7.187821989999e+00 
1 -1.196344060765e+01   9.951076447837e+00   1.532487415422e+01 
1  1.404616209642e+01   2.936487820582e+01   4.287329843706e+01 
1  2.077483450664e+01  -2.702390641043e+01  -3.268840914949e+01 
1  1.871614532194e+01  -1.000414899204e+01  -2.640198700843e+01 
1 -3.122374942845e+01  -5.103711563872e+01  -1.620343413076e+01 
1 -6.526102271423e+01   1.604971104643e+01   1.272647684530e+01 
1  3.936925554528e+01  -1.238999962616e+00   1.963266267182e+01 
8
Step 3000
1  1.269681717467e+01   6.190927968867e+01   2.760497224303e+01 
1 -4.677256737776e+01  -8.196409657507e+00  -5.175073153680e+00 
1 -4.387080575644e+00   1.705799544295e+01  -2.402757936320e+01 
1  8.692841642817e+01   3.325276492247e+01   3.398626671580e+01 
1 -9.706777016954e+00  -2.814688795370e+01  -5.366993803492e+01 
1 -6.983154621472e+00   5.316309280413e+01  -3.712800649501e+01 
1  1.451523546311e+01  -9.032425591300e+01  -6.000756792688e+01 
1  4.443829599484e+01  -5.543884011773e+01  -5.135510785857e+01 
8
Step 4000
1 -3.255311620027e+01   3.478924088103e+01   2.393400687861e+01 
1  1.026167868678e+01  -3.251863620737e+01   6.919310371813e+01 
1 -8.893470882892e+00   8.712290524656e+00  -4.375269120244e+01 
1  3.802631581124e+01   1.066818916987e+01  -5.490284329928e+00 
1  2.288071131609e+01   1.288936018088e+01   1.632481374160e+01 
1  2.833416439907e+00   2.983632356194e+01   1.845544933892e+01 
1 -4.799982255743e+00  -1.293979622961e+01   2.706881218743e+01 
1  7.969126019297e+00   1.997654063550e+01   2.010556107112e+01 
8
Step 5000
1 -4.605257534991e+01  -1.818959506020e+01  -1.910478922113e+01 
1 -5.391327679915e+01   6.157150367484e+01  -3.891330343481e+00 
1  3.483413188223e+01   1.676079321315e+01  -3.243554589195e+00 
1 -9.984119314135e+00   7.927374933292e+01  -9.128071363861e+01 
1  6.400646554311e+01  -5.059691910728e+00   4.200670037546e+00 
1  2.344258172789e+01  -4.817379918656e+00   1.073827555890e+01 
1 -7.971264115233e+01  -1.711947937541e+01  -7.465686254605e-01 
1 -3.234605215614e+01  -2.567618928912e+01  -2.814548355422e+00 
8
Step 6000
1  2.440693307385e+01   8.654140388602e+00  -8.976158372359e+00 
1  4.558648516654e+01   2.291722506422e+01  -1.972042042024e+01 
1  7.157133863334e+00  -1.417152046763e+01   1.276948542604e+00 
1 -8.042174863092e+01   1.158595659470e+01  -2.357488940417e+01 
1 -2.685944278961e+01   1.177349495811e+00   9.108028152404e+00 
1  4.287960263792e+01  -7.387080609259e+01   2.411948587292e+01 
1  3.072198822502e+01  -2.703015796303e+01  -1.627278939554e+00 
1 -5.041338468258e+01  -3.633444841453e+01  -7.140639519228e+01 
8
Step 7000
1  1.769974123429e+01   2.900437728019e+01   4.424057795610e+00 
1  3.666645920753e+01  -5.508309061901e+01  -1.908891538443e+01 
1 -5.316041583760e+01   2.219805371621e+01  -2.090104293755e+01 
1  1.517016291295e+01  -1.528387065006e+01   4.910296557425e+01 
1 -4.071326261174e+01   2.656523291076e+00  -2.938838503799e+01 
1  7.299990744792e+00  -6.000417236974e+01  -6.126716787536e+00 
1  5.779815764190e+01  -5.943255155736e+01   1.389642151777e+01 
1 -3.413926556306e+01  -2.708720267019e+01  -9.703159129834e+00 
8
Step 8000
1 -3.746271083001e+00   3.627150790909e+01  -2.115121970288e+01 
1  2.141198242822e+01  -4.457344536315e+01   5.490292808863e-01 
1 -2.168116343348e+00   1.758051375823e+01  -7.856797858213e+01 
1 -6.571214475760e+01  -9.359718371568e+01   9.568581269080e+01 
1 -2.958974393656e+01   4.394949816480e+00   1.065672314785e+01 
1 -5.357905718308e+01   2.362247660110e+01   5.186185054206e+01 
1  4.985344173833e+01  -2.380798926662e+01   2.693243422376e+00 
1  3.189710503824e+01   2.160439538088e+01   1.468365570219e+01 
8
Step 9000
1  3.398675889431e+01  -3.478219184937e+01  -5.231902626613e+01 
1  3.659173437266e+01  -2.930501981835e+01  -3.764833274520e+01 
1  3.603945951681e+01   9.970824476251e+00  -1.447348285142e+01 
1 -3.346623104262e+01  -8.241249394162e+00   3.768025218981e+01 
1  6.776232370262e+00  -1.514598473505e+01   4.432228616756e+01 
1 -4.931601109823e+01  -3.423047696402e+01   2.323739759654e+01 
1  3.450768444927e+00  -6.134859345313e+01  -2.176566694871e+01 
1 -7.791398562060e+01   6.544127096923e+01   6.504056904275e+00 
8
Step 10000
1  6.099877922383e+01  -3.444678891121e+01  -2.114476295231e+01 
1 -2.014543521757e+01   2.613280353134e+01  -6.748576941054e+01 
1  5.253366275972e+00  -6.652665250458e+01   6.553719921670e+01 
1 -3.216366350705e+01   9.068517438570e+00   3.741073029860e-01 
1 -8.649777324052e+01  -2.282926929381e+01   1.464356972981e+01 
1 -4.981093309571e+01   4.535126837564e+01   1.577975750455e+01 
1 -9.065084712995e+00  -3.868162116873e+01  -5.852121794178e+01 
1 -1.828505043926e+01  -1.183409870469e+01  -4.312737879691e+01 
8
Step 11000
1 -1.070765324605e+01  -7.909948052490e+01  -1.609931197664e+01 
1 -2.583678693395e+01   6.141487876568e+00   2.138287555964e+00 
1 -2.034665346632e+01  -3.142756492124e+01   2.314136123772e+01 
1  2.066733221237e+01   1.196904201714e+01  -4.534549071727e+01 
1 -2.154786410133e+01  -2.557395926324e+00   2.305464957632e+01 
1 -2.922862612423e+00   6.094982661180e+01   4.775246325888e+01 
1 -1.886390263700e+01   2.743992222766e+01   1.704249325111e+01 
1  5.877694394530e+01  -1.688862149539e+00  -2.765968445752e+01 
8
Step 12000
1 -4.912835312076e+01   1.590391192046e+01  -2.836967571543e+00 
1  2.393797557016e+01  -3.676000695348e+01   1.556761787458e+01 
1  4.155002152733e+01  -5.519666132403e+00   2.449488446923e+01 
1  4.578994760572e+01   1.032424410793e+01  -1.454992792652e+01 
1 -7.548898161503e+01   3.657925345015e+01  -1.520530772583e+01 
1 -5.910330325122e+00  -4.339983946390e+00   5.566409183919e+01 
1 -4.953536081867e+01   4.598481469648e+01  -5.528261398176e+00 
1  4.359168056596e+01  -1.461551515927e+01  -6.290383940419e+01 
8
Step 13000
1  1.875121454633e+01  -1.400630012257e+01   2.023746413699e+01 
1  4.018249772962e+01   5.660184230846e+00   2.298196255017e+00 
1  6.739403790207e+01  -5.147292452915e+01  -2.940637595552e+01 
1  1.372534169672e+01  -3.037062980100e+01  -4.164105363756e+01 
1  2.324081215480e+01  -1.289711049942e+01   2.200097840684e+01 
1  6.594127000378e+01   1.692894180600e+00  -2.312576606360e+00 
1 -6.449280139244e+01  -4.181715684249e+01  -3.536393991966e+01 
1 -1.118702630288e+01  -3.337650014140e+01  -1.676424566220e+00 
8
Step 14000
1  4.853726187298e+01  -5.156292652069e+01   1.238304637473e+01 
1 -3.338805101071e+01  -3.912162247392e+00   1.598061746250e+01 
1  1.419327761891e+01  -1.732978285412e+01   2.842313555695e-01 
1 -1.359042523340e+01   1.924655614573e+01   2.899235248800e+01 
1  4.882716020708e+01   2.895845083981e+00   1.902417903170e+01 
1  2.445796017162e+00   2.944650736359e+01  -8.917765794204e+01 
1  5.055401518690e+01  -5.944359712806e+01   3.286799086639e+01 
1 -3.492662031782e+01   4.828234157738e+01   4.480985311518e+01 
8
Step 15000
1 -1.455967674304e+01   1.408800930226e+01   2.952576246077e+01 
1 -2.148040718380e+01  -6.851827034746e+00  -1.779906296431e+01 
1 -6.208379503050e+00   9.616139588570e+00  -4.740625360636e+00 
1  3.367373252044e+01   3.048831771241e+01   5.052156802176e+01 
1  5.485501110489e+01   1.835394968689e+01  -3.029137506538e+01 
1 -1.152333912591e+02   2.030690256843e+01  -4.231053388547e+01 
1 -6.186796956274e+00   6.847321669918e+00   3.918433470601e+01 
1 -4.385613611131e+01   5.120705068403e+01   6.137601240468e+01 
8
Step 16000
1 -6.269037343631e+01  -2.003865978487e+01   2.314457024818e+01 
1 -2.093949469245e+00   6.459761272658e+00  -1.561115224650e+01 
1 -6.126993246694e+01   2.617384404827e+01   4.168096999930e+01 
1  3.522441122164e+01  -4.176760091629e+00  -1.025368837553e+01 
1  1.794542898765e+01  -6.370620012755e+01   6.795063676968e+00 
1  1.839578306287e+01  -4.732149529750e+00  -6.478768482898e+00 
1 -2.232080920123e+00   4.008268774953e+01   9.017233152562e+00 
1 -2.734646380742e+01  -3.854781551845e+01  -5.300463707734e+00 
8
Step 17000
1  1.046259348972e+01   5.366858003146e+01   8.339555750504e+00 
1 -4.267595876261e+01   1.851487603280e+01   7.961453539487e+00 
1  4.799661544001e+01  -2.944126688618e+01   6.596773290127e+01 
1  1.596926292478e+01  -1.384120408032e+01  -1.799863797842e+01 
1  5.772426635780e+01   1.623058886601e+01   3.444854376988e+01 
1  1.025499974565e+02   1.725295281404e+00  -3.949705645325e-01 
1 -4.263510896176e+01   1.958581341673e+00   4.175818507942e+01 
1 -1.917226004097e+01  -5.236365425287e+01   4.678963556233e+00 
8
Step 18000
1 -2.201960549997e+01   3.742710286014e+01   1.271128475966e+01 
1 -8.331103300316e+01  -2.525771557175e+00   2.003887043903e+00 
1  1.178216548825e+01  -5.141844205756e+01  -8.021435360957e+00 
1 -3.350170183813e+01   3.293663899123e+01  -3.487978627897e+00 
1  4.079195137246e+01   4.356030826087e+01  -1.764441453391e+01 
1  5.169381244806e+01   3.487744827847e+01   2.439203200035e+01 
1 -8.136539249004e+01  -4.075464788687e+00   5.162205061510e+01 
1 -7.487671811151e+01   4.438557216188e+01   1.311177834313e+01 
8
Step 19000
1  3.374222642365e+01  -1.993723059996e+00  -1.184820522293e+01 
1 -1.428425314196e+01   1.196892673263e+01  -1.837323358570e+01 
1 -5.506614898471e+01   1.533670084144e+01  -7.311082197527e+01 
1 -3.965839510104e+01   5.126411853565e+01  -2.113383004884e+01 
1 -1.143559771336e+00  -1.790984032483e+01  -4.652319214925e+01 
1  1.754114229981e+01   5.068206209030e+01   1.303651464340e+01 
1 -3.009902017097e+01  -5.032468212594e+01   3.883931752979e+01 
1 -4.047816490848e+01   1.801946300997e+01  -2.321312220359e+01 
8
Step 20000
1 -3.404988974816e+01   2.735266672836e+01   6.324101589908e+01 
1 -6.104253559102e+01   3.947261950082e+01  -1.778954359481e+00 
1 -9.150253632615e+00   5.734063509951e+01   4.315098605383e+01 
1  3.065142844821e+00   3.081860048284e+00   1.039757717701e+01 
1  3.001774162507e+01  -1.950754618019e+01  -9.941189360288e+00 
1  2.603012527018e+01  -2.031550518343e+00  -3.388578301372e+01 
1  5.777586855815e+01  -2.915654232327e+01   1.582465629675e+01 
1 -1.886946846911e-02  -1.155097781665e+01  -3.004341523310e+01 
8
Step 21000
1 -4.164970745276e+01  -2.600015365425e+01   3.193112830374e+01 
1  2.860736516619e+01   9.958254695756e+00  -4.015493655027e+01 
1 -2.571697663192e+01   1.840706101908e+01   4.641095780445e+01 
1  2.474274356018e+01   4.268345497927e+01  -2.131638944784e+00 
1 -4.669801371961e+01  -5.793035831066e+00   1.153731633508e+01 
1  2.925391887850e+00  -2.044578835706e+00  -9.804302940914e+00 
1  4.145599307730e+01  -1.797370110885e+01   6.360926948247e+00 
1 -5.826491496253e+01  -2.041516546263e+01   5.306286050051e+01 
8
Step 22000
1 -1.684387544754e+01  -2.940157857292e+01  -4.163292182110e+01 
1  8.696993285569e+01   2.096896047770e+01  -1.663205954401e-01 
1 -3.575235302607e+01  -1.489573999341e+01  -1.068081368740e+01 
1 -2.194567888101e+01  -2.745510665848e+00  -1.615199453941e+01 
1  1.754879806482e+01   7.860209643846e+01  -1.043207769020e+01 
1 -1.304586179785e+01   3.789349528471e+01   1.588125091263e+01 
1  2.426199206860e+01   3.275898349140e+01  -3.851562566971e+01 
1 -2.458327643622e+01   9.546198953952e+01  -9.694058613107e+00 
8
Step 23000
1 -2.729335343529e+01   2.174441306638e+01  -1.845724042752e+01 
1 -3.157946748253e+00   4.353525607372e+01   7.144194017329e-01 
1  2.144769991247e+01  -1.214059719387e+01  -5.453884176639e+01 
1 -4.684290762308e+01   2.172495312951e+01   2.085780021600e+01 
1 -4.625829931980e+01   1.521003966544e+01  -7.034242102319e+00 
1 -2.509332478376e+01  -1.526951997698e+01   1.799487696619e+01 
1 -3.151672501707e+01   6.465274364495e+01  -1.989325637629e+01 
1  6.259748393590e+01  -1.718948606861e+01  -2.272701892441e+01 
8
Step 24000
1 -4.616289077862e+01   4.400097325684e+01   7.757338212985e+01 
1 -2.729903894788e+01   1.107607901558e+01   4.160454246235e+01 
1  8.149691610029e-01   2.846026612389e+01  -9.737918783773e+00 
1  8.102831601179e-01   5.893246971409e+01  -1.129751202162e+01 
1 -3.080085069011e+01  -8.066618273214e+01   4.266216807093e+00 
1  1.453939556275e+01  -1.999115193257e+01   5.918724267796e+01 
1  3.313715912773e+01   6.251481607342e+00   2.671164671870e+01 
1  1.465582702745e+01  -1.818342780635e+00   9.530658316376e+00 
8
Step 25000
1 -3.183504245439e+01  -4.301323254695e+01  -1.808422354687e+01 
1  1.231256725127e+01  -2.016840770414e+01   1.607542679360e+01 
1 -3.898045235864e+01   2.850711597459e+01   1.213008161237e+01 
1 -8.307033049041e+00   1.916753694153e+01  -5.898427665727e+01 
1 -6.739227864392e+01   8.599893265840e+00   7.725723298441e+00 
1 -1.410188233145e+01   6.532537010181e+01   2.667050672306e+00 
1  5.990730758671e+01  -8.907234898277e+00  -6.786178216229e+00 
1 -3.389369920270e+01  -4.322345407368e+01   4.792845014761e+01 
8
Step 26000
1  2.462200624894e+01   1.087086463934e+01  -5.730089331392e+01 
1  2.427351159031e+01   1.706403591691e+01   4.062665996796e+01 
1 -2.684468610715e+01  -1.225877357772e+01   1.111450481811e+01 
1  4.468325288069e-01  -4.225841181478e+01  -2.523513519106e+01 
1 -3.776990642132e+01   2.199115415426e+01   5.319384304968e+01 
1 -2.939655142150e+01   2.967572913328e+01   6.315237561586e+00 
1 -4.227937859376e+00   2.141002090288e+01  -3.208753243610e+00 
1 -2.029059863809e+01   8.772104539400e+00   5.622393776550e+01 
8
Step 27000
1 -9.744919559704e+00   7.255315994066e+01   2.073423993750e+01 
1 -6.596977554305e+00   1.039088481631e+01   7.481086158408e+00 
1 -2.684511969681e+01  -2.757214956763e+01   1.149353813158e+01 
1 -4.875404650578e+01  -2.125997073901e+01   1.898519817949e+01 
1  1.956826861949e+01   1.411990287770e+01  -1.427283928471e+01 
1 -4.451826725485e+01  -4.047255394909e+00   3.441648460380e+01 
1 -6.379199128390e+01   2.296429147121e+01   1.694161001410e+01 
1 -9.624313832224e+00   5.658996118379e+01  -2.207508939779e+01 
8
Step 28000
1 -8.098321761334e+01   2.492917811291e+01  -2.317501458914e+00 
1 -6.570822034882e+00   8.186141786889e+00   3.380373361345e+01 
1 -2.234095892721e+01  -4.797918071098e+00   1.945620140658e+01 
1 -1.566814846236e+01  -1.245833395182e+01   1.839406542164e+01 
1  5.288442721641e+00  -3.733610310564e+01   5.320287576362e-01 
1 -1.716297364310e+00  -3.916950701538e+01   3.042584466915e+01 
1 -1.928445327379e+01   1.327746823249e+01   3.836725900769e+01 
1 -1.312415620449e+01   1.685625787522e+01   9.406279679436e+00 
8
Step 29000
1 -1.486255346775e+01  -3.311327621677e+01  -2.520564477207e+01 
1  2.410545220476e+01   4.174676138520e+01   5.618399886877e+00 
1 -1.826473037815e+01   3.986452746567e+00  -1.492501116923e+01 
1 -2.567200159389e+01   2.669909637626e+01  -5.626811746403e+00 
1 -2.915209832310e+01  -4.361378766297e+00  -1.026341460208e+01 
1  2.105429086488e+01   2.500043112038e+01  -5.084866740205e+01 
1  2.943128238524e+01   3.895908336572e+01   2.481025917878e+00 
1 -9.393065714693e+01   3.120739428741e+01   2.064649481462e+01 
8
Step 30000
1  3.634107973349e+01   2.489604241553e+01  -3.412970061766e+01 
1 -5.721789432158e+00  -1.132146624141e+01  -2.398863923554e+01 
1 -1.250083651497e+01  -1.516285868522e+01   2.011304704885e+01 
1  2.976888912139e+01   1.161464905627e+01   2.964289216475e+01 
1 -1.943034840897e+00   2.085196269550e+01   5.925974135220e+01 
1 -8.450904034844e+00   1.425892362207e-01  -1.386627847006e+01 
1 -1.956362275467e+01   1.130301700728e+02  -2.753291409066e+01 
1 -6.650285901512e+01   4.002441858546e+01  -5.692738302578e+00 
8
Step 31000
1  4.681757819776e+01   1.531323359976e+01  -2.943548029028e+01 
1 -9.938424249183e+01   6.884867067782e+00   2.926253359189e+01 
1 -9.974925945201e+00   1.622318775274e+01   4.415153761985e+01 
1  6.411821534442e+01   1.894810302345e+01   2.124048613800e+01 
1  4.042771992512e+01  -2.179780994720e+01   1.505833018052e+01 
1 -7.680278471957e+01  -5.046545717307e+01   2.673501666638e+01 
1 -2.477711795412e+01  -1.532191502619e+01  -4.459582800325e+01 
1 -7.880752310920e+00  -2.859274213314e+01  -1.806697173911e+01 
8
Step 32000
1 -8.777168253030e+00   3.046119329104e+01  -3.121652894511e+01 
1 -6.189264690149e+01   1.085688970822e+01   2.459316612690e+01 
1 -1.273477146391e+01   3.402555800690e+00  -2.769168301593e+01 
1  2.117416354375e+01   5.176107534989e+01   9.405064275535e+00 
1  4.874587014672e+01  -1.115348273778e+01  -3.197848076255e+01 
1  2.327833108032e+01  -2.863923907440e+01   5.850179662143e+01 
1 -9.018319744158e+01  -6.263559061043e+01  -6.132247269392e+01 
1  3.507856774405e+01   1.666902326830e+01  -3.681616661057e+01 
8
Step 33000
1 -2.430365904906e+01  -5.892986622306e+01  -2.983073474271e+01 
1 -4.394220308559e+00  -4.011823377161e+00   1.212010635676e+01 
1 -4.548511123742e+01   4.566272603133e+01  -6.841339800234e+01 
1 -3.049745099058e+01  -4.541467550305e+00  -4.185976375973e+01 
1 -6.205067121030e+00  -1.094062957248e+01  -7.248026138270e+00 
1  5.102258602116e+01   1.650613799972e+01   4.861604416048e+01 
1 -4.781954935129e+01  -3.610595500025e+01  -4.469200267829e+01 
1 -3.981240856699e+00   2.844571486263e+01   3.787518479221e+01 
8
Step 34000
1  2.142851630201e+01  -5.427331726951e+01   6.323818618283e+00 
1  4.184653716593e+00  -3.595439995390e-01  -7.633122749874e+01 
1  4.383609213368e+00  -3.798372481774e+01  -1.470844846189e+01 
1 -2.549131022758e+00   5.104357742752e+01  -5.726279654599e+00 
1 -4.439496697615e+01   3.729399763405e+01   5.159410672957e+01 
1 -7.824929370601e+00  -1.916114935716e+01  -3.077617518332e+01 
1  3.459876058474e+01   1.028138734484e+00   9.439131796048e+00 
1 -3.030113692687e+01   6.261149329480e+00   4.057477726842e+01 
8
Step 35000
1 -3.728301170656e+00  -2.290078560625e+01   5.917184586949e+00 
1 -1.615179848941e+01  -2.666104067590e+01  -1.079100034327e+01 
1 -1.347291192969e+01  -6.371252464147e+01   4.533144169617e+01 
1  1.783084709983e+01   4.320471551504e+01  -2.594577995840e+01 
1 -1.117344461821e+01  -6.704791383993e+00  -2.003887039506e+01 
1  1.473688889499e+01  -1.647412732542e+01  -5.229511535118e+01 
1  6.222692088340e+01  -1.182972494489e+01   4.263131849855e+01 
1  1.543712019314e+01  -2.073830180172e+01  -2.804928558149e+01 
8
Step 36000
1 -4.015220531498e+01  -1.206528333503e+01  -6.066133343210e+01 
1  1.507162078092e+01  -1.809824054829e+01  -3.304510375569e+01 
1 -1.689346202164e+01   4.116911882804e+01   7.846864429739e+00 
1  2.751805431706e+01  -9.714553995605e+00  -6.380215085709e+01 
1  6.684986392313e+01  -5.205688000710e+00  -4.274512058114e+01 
1  5.377858475954e+01  -1.086208015660e+01  -1.878751825017e+01 
1  2.994038265095e+01  -4.474540987644e+01  -7.693024960782e+00 
1  3.011486523637e+00  -4.890227268023e+01  -7.334847313888e+01 
8
Step 37000
1 -2.589265853064e+01  -6.614699319600e+01   5.076638597580e+00 
1 -2.560323825143e+00  -7.422210910895e+01  -4.937683197228e+01 
1  2.547659708347e+01  -2.283885955331e+01  -2.817578463820e+01 
1  4.832286357264e+01  -3.147217967655e+01  -1.589681908145e+01 
1 -7.004057130697e+01   7.080547935415e+01  -6.064493775887e+01 
1  2.367956611809e+01   3.500176908898e+01   2.577884554219e+01 
1  3.925919873964e+01   3.560636912109e+01  -3.084025929621e+01 
1  4.216104077449e+01   1.882333008066e+01   3.132918332813e+01 
8
Step 38000
1  2.965639813177e-01   1.550313720262e+01  -1.145712222409e+01 
1 -2.580130391198e+01  -2.597168696889e+01  -4.122139183434e+01 
1  7.927184878547e+01  -3.143709822023e+01  -1.050359272863e+02 
1  6.400813760139e+00  -2.560120678718e+01  -3.199715657222e+01 
1 -3.061198354559e+01  -1.123155892488e+01  -3.362094262453e+01 
1  4.778614535793e+01  -1.584292138784e+00  -4.231382996687e+01 
1  2.034381718351e+01  -5.647915879463e+00   2.162721589686e+00 
1  6.211470327289e+01  -5.653435969279e+01   1.091612977831e+02 
8
Step 39000
1 -4.780150447821e+01  -3.574908533682e+01   3.361355840287e+01 
1 -5.455235027654e+01  -2.826939829072e+01   1.259021237061e+00 
1  3.709938249954e+00  -1.305759523423e+01   5.052612804324e+00 
1  2.087945353910e+01  -7.940589363207e+00  -2.957595882004e+01 
1 -6.238780609774e+00  -2.170064330431e+01  -3.437619852866e+01 
1 -1.421907063907e+01   4.333073453681e+01  -5.810604015329e+01 
1 -3.005988077574e+00  -8.465397874608e+00   3.447308844203e+01 
1  1.967488592015e+00  -2.273057020062e+01  -1.470517368771e+01 
8
Step 40000
1  5.392415954895e+00  -2.033437189607e+01   2.469580464477e+01 
1 -2.180666300195e+01  -4.226917079936e+01  -2.653717818595e+01 
1 -2.391588374981e+01   1.062584261039e+02   4.069090067981e+01 
1  3.371135757513e+01  -6.149527684332e+01  -3.592149801362e+01 
1  3.970877677461e+01  -2.460467175366e+01  -9.333043201529e+00 
1 -3.471005824472e+01   5.088635116824e+00  -6.860241454718e+00 
1  1.117590555230e+00  -4.248049293189e+01  -2.279691462499e+00 
1  2.227117512034e+01  -1.414237902529e+01  -9.792306554531e+01 
8
Step 41000
1  2.588526671455e+01   5.955232479010e+00   6.184075620333e+00 
1  4.733995151768e+01  -1.676306066525e+01   3.672048904578e+01 
1  1.928899628488e+00   3.315046024333e+01   3.900491771836e+01 
1 -4.363426162914e+00  -4.110139956399e+01  -3.787630853672e+01 
1  1.823206120746e+01  -2.932989005644e+01  -1.937701239595e+01 
1 -5.357837509763e+01   3.018183842004e+01  -1.416953142306e+01 
1 -4.396386317959e+01  -1.929433175121e+01   1.724279251681e+01 
1  2.738192106733e+01   1.832108990304e+01   1.207144050464e+01 
8
Step 42000
1 -2.960765010310e+01  -2.401241426936e+00  -2.628307924653e-01 
1  4.574754801947e+01   5.543570192897e+01   7.691710450237e+01 
1 -4.957194143264e+00  -2.767213021806e+01   3.019741984833e+01 
1 -2.427698211312e+01  -1.672119169036e+01  -1.261477684508e+01 
1 -6.719570736850e+01  -1.455949184469e+01  -5.717269267601e+01 
1  4.407696936998e+00  -3.655421298118e+01   3.075486852408e+01 
1 -2.304298279074e+01   3.117325982797e+01   3.570081182083e+01 
1  5.525145245935e+01  -2.561383404263e+00  -3.354769344606e+00 
8
Step 43000
1 -1.779072364773e+01  -2.973805172247e+01   5.022849210400e+01 
1  3.207020353205e+01   5.255530021260e+01  -2.040313401214e+01 
1  1.927508633994e+01  -6.245008107991e+01  -1.335355761112e+01 
1 -1.850476233843e+01   5.061245815770e+01  -7.625896306623e+00 
1 -8.189769036210e+00  -6.567347984705e+00  -3.209659539274e+01 
1 -8.364144395767e+00  -3.581704687862e+01   8.427569242652e+01 
1 -5.616973450939e+01  -1.417861822112e+01  -2.724106517610e+01 
1 -1.270370942005e+01  -5.232170216670e+01  -4.074086026765e+01 
8
Step 44000
1  3.782488631926e+01   1.305204834247e-01   4.255427388738e+01 
1  1.433472610183e+00   3.727819826629e+01  -4.140900246903e+01 
1  5.445007423332e+01   6.917201764921e+00  -2.634628497356e+01 
1 -3.531512478258e+01  -7.917747605762e+01  -1.244853617039e+01 
1  3.407913821614e+01  -5.079992169814e+01  -4.399744530527e+01 
1 -3.681180707904e+01   2.378374832263e+00   9.190792313954e-01 
1 -2.529101244607e+01  -7.013402905437e+01  -1.537024095759e+01 
1 -1.071108519743e+02  -3.231892703867e+01  -6.585007571252e-03 
8
Step 45000
1  2.999740626953e+01   6.589457193227e+01   1.978912457702e+01 
1  1.608497391687e+01  -4.122232844134e+01   4.073069450079e+01 
1 -1.781102226084e+01  -1.020060308442e+01  -1.301374140432e+01 
1 -9.818206266316e+01  -3.431827802305e+01   3.532790919724e+01 
1  5.508560460556e+00  -2.377395527850e+01   1.763522187700e+01 
1 -1.427358862261e+01  -1.710273532544e+01  -3.462305062614e+01 
1 -2.551478178493e+01  -3.993340027885e+01   5.169585899183e+01 
1 -3.216396040005e+01  -1.943962467634e+00   5.629432903251e+01 
8
Step 46000
1 -4.251838247703e+01  -3.751031867082e+00  -1.253085888262e+01 
1 -3.457412133538e+01  -2.699003452866e+01   1.512558112622e+01 
1 -5.505056475303e+01  -2.103494944827e+01  -1.841221707513e+01 
1  1.632999918528e+00   3.353946719766e+01  -2.192988692487e+01 
1 -5.929901111507e+00  -1.257033407518e+01   6.038917114104e+01 
1  4.724692182155e+01  -1.064659654451e+01  -1.177051313683e+01 
1 -5.784798374358e+01  -4.435031496058e+01   2.399413535214e+01 
1  4.678723587897e+01  -4.268455207453e+01   9.110279867946e+00 
8
Step 47000
1 -3.327623621138e+01   9.413207262097e+00  -1.181959952199e+01 
1 -4.667513987126e+01   1.847361869471e+01  -4.834467449636e+01 
1  5.936532953269e+00   5.154674296093e+00  -2.021046920206e+01 
1 -1.287980456817e+01   2.588045876535e+01   2.891237571480e+00 
1 -9.125099829389e+00  -1.017628383103e+01  -3.071609122920e+01 
1  5.691794267229e+00  -1.974364788169e+01   1.519235423927e+01 
1  3.701773132495e+00   1.304992617662e+01  -1.871391922790e+01 
1 -2.094998615917e+01  -9.765605524816e+00   2.942482091639e+01 
8
Step 48000
1 -2.327414628629e+01   3.300201882497e+01   7.645016611675e+01 
1 -6.176353085375e+01   5.978559100428e+01  -1.689243054483e+00 
1  2.708044450386e+01   1.653331189248e+01  -3.635234763884e-01 
1  8.490908481832e+00  -4.674324528474e+00   4.221180658183e+01 
1  2.205818988908e+01  -5.840647902774e+01  -7.117364705136e+01 
1  2.042135212149e+01  -4.426853428694e+01   5.459069914058e+01 
1  1.771504900152e+01  -2.231816290987e+01  -4.636815996775e+01 
1 -4.496503277159e+01   4.876014476457e+01   5.534518568443e+00 
8
Step 49000
1 -1.310360286194e+01   2.885601257194e+01   3.281178594226e+01 
1 -3.834308470681e+01   2.837704253653e+01   1.556404380764e+01 
1  7.558535316201e-01   8.145159877436e+00  -2.668896892871e+01 
1 -2.417336019274e+01  -4.207099221113e+01   1.408271739499e+01 
1 -8.979027170368e+01  -7.030882655823e+01  -5.101802297649e+01 
1 -6.872837729530e+01  -1.616354948201e+01   5.609341713915e+01 
1  4.497978608627e+01   2.994191845759e+01   1.595941569501e+01 
1 -6.903379336774e+01   7.191208934313e+00   3.219237343905e+01 
8
Step 50000
1 -6.616414041982e+01   2.088860209820e+00  -6.327175272326e+00 
1 -4.193646854303e+01  -2.580416681416e+01   2.128799727435e+01 
1  6.733840915104e+00   1.339046571256e+01  -1.070931618492e+01 
1  4.802552653504e+01  -1.213618593796e+01  -5.097005357062e+01 
1 -7.017905469727e+00  -3.125426546966e+01  -1.928719289686e+01 
1 -6.555283268801e+01  -5.264099620971e+01  -2.059607887846e+00 
1  3.775002893816e+01   2.350118078744e+01   3.685889776588e+01 
1  1.555629672892e+01   2.322879956049e+01  -5.931943013442e+01 
8
Step 51000
1 -4.620347074825e+01  -3.840302067165e+01   2.300519727744e+01 
1  5.332484999947e+01   7.426917379462e+00   2.729586442338e+01 
1  8.746705630565e+00   1.837244445264e+01  -1.361682705051e+01 
1 -2.606637251287e+00  -3.039889670778e+01  -3.398525651980e+01 
1 -1.026486657088e+01  -6.336849579963e+01   1.882962430274e+01 
1  5.547284393315e+00  -2.623990324612e+01  -7.395099936283e+01 
1 -2.503482203513e+01   5.003509179408e+01  -1.680437099719e+01 
1  3.638452291402e+01   1.616471752116e+01  -2.242872962441e+01 
8
Step 52000
1 -4.206085806865e+01   3.422258864243e+00   2.693756134747e+01 
1  2.767775144048e+01  -6.181728899328e+00   1.970462426069e+01 
1 -2.624229728713e+01   2.852626453315e+01  -7.176909795893e+00 
1 -4.130049317704e+01   1.871206120395e+00   2.457338627635e+01 
1 -2.277238904284e+01  -3.754342848761e+01   1.519538694810e+01 
1 -4.778016348216e+01  -1.320409755102e+01  -3.204113654994e+01 
1 -3.494654878697e+01  -8.769909721890e-01  -6.270067854402e+01 
1  2.110668104249e+00   5.655840358717e+01   4.375210523302e+00 
8
Step 53000
1  1.973561957734e+01  -7.322007048276e+01   3.128026369227e+01 
1 -8.986687150082e+00  -2.522749968429e+01   2.693974068016e+01 
1 -1.723737824610e+01   3.064579259643e+01   5.752644848448e+01 
1 -3.541345830276e+01  -4.954692519638e+01   2.587908805334e+01 
1 -2.915477404888e+01  -1.468262152143e+01  -5.697700940799e+01 
1 -5.980683880800e+00  -5.402764093920e+00   1.950800911853e+01 
1  7.830008189650e+00  -2.623556460218e+01  -2.274674341470e+01 
1 -2.272001822756e+01   9.091239139855e+00   3.869615860925e+01 
8
Step 54000
1 -4.220937696552e+01  -2.414662259427e+01  -3.672017984789e+01 
1 -7.812474301983e+01   5.718084219229e+00  -1.570171213639e+01 
1  2.898719635621e+01   5.360262613757e+01   2.287649026901e+01 
1  4.275414991548e+01   5.546706273627e+00  -3.308140921289e+01 
1  8.334930291081e+00   6.311783870098e+00  -2.723602561054e+01 
1  9.256147573588e+00   5.759402987821e+01   5.132941975575e+01 
1  2.559862227348e+01  -3.294237685871e+00  -9.496570078909e+00 
1 -1.272542412354e+01  -4.845901340019e+01  -2.862774712969e+01 
8
Step 55000
1  1.831904523177e+01   3.041298535484e+01  -5.563815414490e+00 
1  3.390752731630e+01   1.845405120446e+00   1.210918526338e+01 
1  9.795335651012e+00   1.194916546779e+01   2.880316160296e+01 
1  1.047438709969e+01  -1.582163106367e+01   4.215583758854e+00 
1 -5.764657506369e+01   1.020237859678e+01   6.860507735331e+01 
1 -1.874064262618e+00  -1.952234521730e+00  -4.332161377996e+01 
1  8.731813384671e-01  -2.710378786022e+01   1.242654702054e+01 
1 -4.940585238818e+01  -4.623341799011e+01  -6.321183147011e+01 
8
Step 56000
1  9.527157329657e+00  -3.921519861142e+00   4.590175137321e+01 
1  1.554879470897e-02  -1.558596190768e+01   2.084033805590e+01 