8
Step 0
1  6.673994264557e+01  -6.348222162079e+01   4.533458352829e+01 
1 -4.190978114971e+01   6.511705803867e+01   6.576511494826e+01 
1  6.160288589397e+01  -4.968557995687e+01  -7.759770453232e+01 
1 -5.275475819101e+01   5.263914256172e+01  -6.287078783062e+01 
1  3.368236176707e+01  -5.535420352454e+01   6.567221809806e+01 
1 -2.932215654258e+01   5.697053922066e+01   5.504311202953e+01 
1  7.435867778535e+01  -5.503844031689e+01   6.929554136757e+01 
1  4.256782595794e+01   4.207458288030e+01   4.780089100214e+01 
8
Step 1000
1  1.166707640981e+00  -1.500213473644e+01   4.532037956649e+01 
1 -1.332114723914e+01  -7.095597707642e+00   5.491958939968e-01 
1  4.171308360060e+01  -2.231369550809e+01  -1.167551601759e+01 
1 -2.424887808892e+00  -6.833282880982e+00  -3.043184837048e+01 
1 -1.381829388519e+01   1.636305718283e+01   3.942754823983e+01 
1  1.601606252988e+00  -2.200603675740e+01   1.127659641435e+01 
1 -1.732538847715e+01   3.488362895392e+01   7.841594954207e+01 
1 -2.019266040708e+01   6.930919432723e+01   3.495918285762e+01 
8
Step 2000
1  1.068077747883e+01  -5.938651540459e+01   4.984664287805e+01 
1  2.441465166639e+01   9.168108066573e+00  -3.295892777712e+01 
1 -3.918370109594e+01   2.056434836795e+01   1.594584531551e+01 
1 -2.768194921174e+01  -1.921138636807e+01  -2.112373486884e+01 
1 -5.236158847656e+01  -5.507127902385e-01   1.182777505603e+01 
1  5.478943098238e+01  -1.541552394619e+01   4.693099915554e+01 
1 -4.512884975559e+01   3.309545677119e+01   2.757074194921e+01 
1  1.681389106716e+01   9.376928173844e-02  -1.466308408256e+01 
8
Step 3000
1  3.386607924794e+01   5.394464371529e+01   5.846548871990e+01 
1  3.550082516430e+01   7.883907255299e+00  -2.653704174268e+01 
1 -2.172965083279e+00  -2.406335187352e+01   5.354934361722e+01 
1 -3.851221459370e+01   1.436989864696e+01   3.422752201404e+01 
1 -8.082623408145e+00   1.094376416818e+01   2.975245827836e+00 
1  3.770301439463e+01   2.397923225397e+01  -2.014703992808e+01 
1 -1.489919743695e+01   1.425259229027e+01  -2.675669630724e+01 
1 -5.704736387915e+01   5.306277638418e+01  -1.637907660604e+01 
8
Step 4000
1  4.518889996518e+00   4.733860810871e+00   2.498841039988e+01 
1  1.138334918343e+01  -6.293814773885e-01   8.507167171881e+00 
1  1.794623941917e+01  -6.341367000560e+01  -3.386287802541e+00 
1 -4.180045918515e+01   1.593689621043e+01   4.767703095122e+00 
1  2.866608839724e+00   2.410908046052e+01   1.814080202112e+01 
1 -1.869318486579e+01   5.297912409573e+01  -4.819492629401e+01 
1  4.984973401357e+01   2.558437869467e+01  -6.260981983502e+00 
1 -4.342784741980e+01   3.875701180746e+01   2.208048417617e+01 
8
Step 5000
1 -2.142701298435e+01  -5.833524602580e+01  -1.689068187620e+01 
1  2.838393930592e+00   7.696967367013e+00   3.722226127843e+01 
1 -8.692731001023e+00  -2.147362540885e-01   1.207449670303e+01 
1 -3.474534339491e+00  -9.492989767325e-01  -1.896259817231e+01 
1  7.279778240247e+01   4.123838656459e+01   3.213926307627e+01 
1 -9.505281772979e+01  -3.076149092094e+01  -3.219683437906e+01 
1 -2.318500904100e+01   4.680686246196e+01  -1.101649067096e+00 
1 -7.435433055083e+01   3.047412129013e+01   2.767781891005e+01 
8
Step 6000
1  4.012613172286e+01   3.288761404408e+01  -2.728410161408e+01 
1  1.964176064383e+01  -3.087955620555e+01   9.186329900649e-01 
1  3.551825252095e+01   2.543586952832e+01   1.472736667970e+01 
1  6.738929785995e+00  -3.533217889004e+01  -2.206690828802e+01 
1  9.910675925467e+00   4.288829157710e+01  -1.293360652299e+01 
1 -8.908473313751e+00  -2.878534472902e+01  -5.096997081494e+00 
1 -2.236814374865e+01   4.973351483774e+01  -2.678410432976e+01 
1  1.537546102073e+01  -2.884755962453e+01   3.116153052915e+00 
8
Step 7000
1 -7.351689780521e+00   1.023439286696e+01   2.456947729785e+01 
1 -3.515632397304e+01  -3.702524411491e+01   1.816542694771e+01 
1  5.116060476900e+01   1.635580593468e+01   1.184162620138e+01 
1 -2.298805917293e+01  -4.478050897981e+01   1.561582370276e+01 
1 -3.098723442964e+00  -3.776938269115e+01  -4.110033766626e+01 
1  9.569885906683e+00   8.749319036307e+01   9.130975747606e+00 
1  1.295613033350e+01   2.944142796780e+01  -2.261596450713e+01 
1  1.743130875741e+01  -3.543794372565e+01   1.886227428328e+00 
8
Step 8000
1 -2.740651834106e+01   9.031541454051e+00   9.397459211142e+01 
1 -7.066618221450e+01   5.139958592617e+01  -4.119829314350e+00 
1  1.306408032261e+00   3.888429708583e+01  -8.511832892429e+01 
1  8.937710733801e+01   2.526626950479e+01   8.777639060433e+00 
1  3.357232216192e+01  -1.333641692814e+01   2.561336557656e+01 
1  3.633393929055e+00   6.072184478378e+01   3.962743063674e+01 
1  3.323927114849e+01   3.656991932304e+01   5.863622397469e+01 
1  5.337024151319e+01   6.115352862909e+01   1.087333303470e+01 
8
Step 9000
1  5.527323825151e+01  -1.105886974158e+01   3.060301246914e+01 
1  1.997868361705e+00   5.813230837590e+01  -2.395245449947e+00 
1 -3.864836687723e+01   1.422187015547e+01  -8.978271871575e+00 
1  1.685841429864e+01  -4.722560274285e+00  -7.995954208189e+00 
1  1.600296147801e+01   2.756299513906e-01   3.020353155335e+01 
1  1.165411173807e+01  -4.737982511244e+01  -3.043163166108e+00 
1 -3.267218002026e+01  -2.426512307407e+01  -1.354310963381e+01 
1  4.529137966745e+01   1.236049459041e+01  -3.482038523514e+01 
8
Step 10000
1  1.384180976406e+01  -2.090380433243e+01   5.838729256206e+01 
1  5.181412566848e+00   2.432990905091e+01   1.193554455136e+01 
1 -3.006977682968e+01   1.304553671746e+01  -6.165360950684e+00 
1 -4.173090771273e+01   2.607723745636e+01  -1.071186105363e-01 
1  6.319936130825e+01  -2.714818059000e+01   8.187384906040e+00 
1  1.943561787958e+01  -5.326714130205e+01  -6.566306789144e+00 
1  1.617370407433e+00   1.766396367274e+01   4.498183033018e+00 
1  1.539624304086e+01   1.383264882173e+01  -2.974349752294e+01 
8
Step 11000
1 -4.715905497096e+00   4.584514071323e+01   6.412386192137e+01 
1  1.999587314867e+00  -1.654248052826e+01  -1.735316752054e+01 
1 -2.575330518796e+01   5.995154102409e+00  -6.692835114328e+00 
1  2.372133412291e+00   3.776698888700e+01   5.791537074756e+01 
1 -1.034841239091e+00  -4.869546078676e+00  -1.763880286383e+01 
1 -3.244366475076e+01  -3.838754519044e+01   1.947608986435e+01 
1  3.435093261095e+01   5.730054447102e+01   3.795634524920e+01 
1 -1.011199146039e+01   2.253751433016e+01  -1.733447534136e+01 
8
Step 12000
1 -2.382675471207e+01   2.744878413585e+01   9.655801949846e+01 
1 -1.326206151835e+01  -4.656305396430e+01  -4.515870824463e+01 
1 -3.332099176034e+01   2.540262088590e+01   2.228053393772e-01 
1  2.545949369840e+01   7.673434976851e+00   5.251867565547e+01 
1 -1.598938698920e+01  -4.811781922777e+01   2.301679275718e+01 
1  2.721326646333e+01   1.416875486114e+01   7.718306825822e+01 
1  1.579131346370e+01   1.066018452728e+01   2.350318228615e+01 
1  1.703458307063e+01   1.665165814835e+01  -3.667934754777e+01 
8
Step 13000
1  5.178015206226e+01   1.756297743176e+01   2.087681255961e+01 
1  1.690069120701e+01  -1.911238808809e+01  -2.988428384172e+01 
1 -2.793378526670e+01  -5.761913165837e+01   1.254797279506e+01 
1 -9.937515363098e+00  -1.154525503945e+01   4.187930455307e+01 
1 -1.722012126351e+01   7.545755226702e+00   1.293968206184e+01 
1  4.235692256899e+01   5.155480028992e-01   6.131385406149e+00 
1 -3.425414300057e+01  -4.250455811711e+01  -3.212630181228e+01 
1  4.346268099571e+01  -1.863405592256e+01  -2.122286408058e+01 
8
Step 14000
1  4.183012085640e+01   1.163982834472e+01   4.275563465161e+01 
1 -4.011595585829e+01  -1.352100857958e+00  -2.660514061394e+01 
1  2.238733123642e+01  -2.172079229457e+01   5.558367661063e+01 
1 -2.720241725741e+01   4.290560181591e+01   2.037469368172e+01 
1  9.434159861745e+00   7.084012960661e+01   1.016290127017e+01 
1  4.650717821131e+01  -2.471956502563e+00   6.490879633910e+01 
1 -9.637712809699e+00  -4.296383714141e+01  -2.229322901374e+01 
1 -1.556630486704e+01   1.374535805354e+01   2.875395913815e+01 
8
Step 15000
1 -2.980262629041e+01  -1.927378680082e+01   1.140154574959e+01 
1  1.101611656840e+01   1.628809973381e+00  -2.961376115254e+01 
1 -4.957039822919e+01   4.022537509273e+01   4.143836696567e+01 
1 -4.502365815913e+01   2.361381001574e+01  -1.688796662993e+01 
1 -4.849308791742e+01   4.281462661286e+01  -1.663389772191e+01 
1 -7.576386578358e+01   1.008462729983e+01   8.420872819807e+00 
1 -6.652384573294e+01   2.484900437072e+01  -6.106149250214e+01 
1  3.049402038167e+01   7.879832291921e+01   3.495896873659e+01 
8
Step 16000
1  1.336760055361e+00   6.852357171638e+00   5.979397402437e+01 
1  5.163425536849e+00  -1.235625986820e+01   3.618548562542e+01 
1 -1.883342458454e+01   4.381993285196e+01   9.056081259610e+01 
1 -1.573198423556e+01   3.620561464574e+00   6.318880002915e+00 
1 -4.685671387401e+01   1.404220022800e+01   3.763513645483e+01 
1 -4.579867812473e+01   4.583448539775e+00  -2.202522076499e+01 
1  5.915939428213e-01  -3.562622922071e+01  -5.058965499916e+01 
1  1.617503171758e+01  -4.859375900542e+01   4.438618774767e+00 
8
Step 17000
1 -1.051927955041e+01   1.853403018584e+01  -5.720019681718e+01 
1  9.240713711188e-02   9.673161094629e+00   4.828690757064e+01 
1 -4.170768864795e+01  -5.625118912385e+01   3.578592804638e+00 
1  1.793365644070e+01   4.469266554166e+01   3.085298637535e+01 
1 -2.773417534580e+01  -1.790847111342e+01   1.319754958040e+01 
1 -3.355576573574e+01  -3.010438056080e+01  -3.322449340987e+01 
1  5.821653108550e+01  -1.966056205849e+01   2.057619714724e+00 
1  4.348192542552e+01  -1.191164471878e+01   7.788086134977e+00 
8
Step 18000
1 -2.148894405292e-02  -1.039925584846e+00  -1.212105977413e+01 
1  8.336748241899e+00   6.668118613660e+00   3.006380019334e+01 
1 -3.589981918090e+01  -3.622499761132e+01   2.927614442305e+01 
1 -3.034656716936e+01   4.462959865288e+01   3.161037320019e+01 
1 -6.105622077488e+01   1.155796874718e+01  -6.047605802901e+00 
1 -1.599122868783e+01  -3.168951218367e+01   1.682756682835e+01 
1 -1.932273356097e+01   3.500239771400e+01   3.544106498579e+01 
1 -1.951594540828e+00   1.897561187326e+01  -9.917780380123e+00 
8
Step 19000
1  2.237346239696e+01   2.093211197544e+01  -3.381957286525e+01 
1  3.603193240607e+00   4.359566983579e+01  -1.470158962748e+01 
1 -1.015502772145e+00  -5.759874435401e+01  -2.378046341976e+00 
1 -2.029254489968e+01   5.276194207949e+01  -3.932439878852e+00 
1 -5.613681024266e+01   1.866862972180e+01  -4.896011038769e+01 
1  7.254479967278e+00   1.051115384957e+01   1.210797657619e+01 
1  5.179069522386e+00   2.978909383188e+01  -4.461821111266e+01 
1  4.507948284321e+01   4.146196560155e+01  -4.477670506391e+01 
8
Step 20000
1  6.775131588785e+00   1.887385614812e+01   2.013494850259e+01 
1  2.907499555220e+00   8.052425447402e+00   4.781257246843e+01 
1  1.602935278504e+01   1.899975384511e+01   2.815113624482e+01 
1 -2.624547331832e+00  -3.631206434961e+01   4.180464307571e+01 
1 -1.281947690900e+01  -4.280568919706e+01   6.300159912032e+00 
1  3.166188345845e+01  -3.923349746038e+00   1.996125358635e+01 
1  1.899600682994e+01  -3.427776520374e+01  -1.458282162204e+01 
1 -1.267813750040e+01  -5.557478299764e+00   4.622815523788e+01 
8
Step 21000
1  5.405382160170e+00  -7.174693241570e+00   1.037334901480e+01 
1 -1.011468373983e+01  -4.837605747444e+01   3.374662185424e+01 
1  5.904764799683e+01   3.389138624161e+01  -1.140366588237e+01 
1 -6.650188886685e+01  -6.639596271415e+00   4.508982375024e+01 
1  2.651232193744e+01   4.547345515528e+00  -3.066704472447e+01 
1  3.662390460165e+00  -4.863896622191e+01  -2.092859257398e+01 
1 -3.865460674530e+01  -5.362592256136e+01  -1.278728747197e+00 
1  1.245674981177e+01   9.462684490792e+00   7.797208395039e+01 
8
Step 22000
1  2.663681175864e+01   2.789879652164e+01  -5.517622356833e+01 
1 -2.721888218126e+01  -8.227005180099e+01   1.475490691847e+01 
1  6.604064136188e+01   6.119429860010e+00  -1.369450665275e+01 
1 -2.537593647242e+01   1.426871407039e+01  -1.615397260464e+00 
1  2.918601873151e+01   2.511301376433e+01  -3.419496498625e+01 
1 -2.268302736743e+01   9.336587243080e-03  -3.327138197479e+01 
1 -1.451756426092e+01   3.398950709073e+01   1.996685114212e+01 
1  6.781721284839e+01   5.926117733968e+00  -1.082674051368e+01 
8
Step 23000
1  3.313068647348e+01   4.082398117135e+01  -3.610362309074e+01 
1 -6.704561291071e+01  -4.462032100729e+01   1.840612254499e+01 
1 -3.997385304294e+00  -3.013016985846e+01  -2.715348018496e+01 
1  1.734649154408e+01  -2.981330602224e+01  -4.178705450132e+01 
1  1.219932605396e+01  -6.961223094977e+00  -3.428963963080e+01 
1 -5.559815997361e+01  -3.580740048907e+01   3.902444835722e-01 
1  2.680581795079e+01  -1.011230933765e+01  -1.852008662668e+00 
1  4.134578994325e+01   1.104106623874e+01  -3.996166787286e+01 
8
Step 24000
1 -7.899545951732e+01   1.447136235079e+01  -1.915208889683e+01 
1 -2.597672801784e-01   2.570768492873e+01  -3.091934555115e+00 
1  2.018496095036e+01  -1.847077270506e+01   1.796060709457e+01 
1  2.743151256194e+01   3.882239981658e+01  -8.868827763604e+01 
1  2.615963459455e+01  -3.626956394340e+01  -1.864623768288e+01 
1  6.752659493197e+01  -5.119854712615e+01   8.415025785769e+00 
1  7.188983090698e+00  -5.425140604414e+01  -4.627101231137e+00 
1  2.598238655451e+01   2.145238897954e+01   2.647153911470e-01 
8
Step 25000
1 -1.876008421374e+01  -5.609048561800e+01  -1.029308981244e+01 
1  6.736446255236e+01   4.375473964118e+01  -1.262590121034e+01 
1 -8.036756442475e+00  -2.265640629036e+01   3.896592906037e+00 
1  1.407310874452e+01   2.575226630130e+01  -5.277605836485e+01 
1 -5.970599970534e+01  -1.920638924014e+01  -2.634857740594e+01 
1  5.542111085995e+01   6.254850673785e+00  -2.118603918545e+01 
1  1.006533426723e+01  -3.193576300610e+01   2.215378646741e+01 
1 -9.408017807938e+00  -2.514148781039e+00  -3.564954813910e+01 
8
Step 26000
1  4.449515434347e+01  -1.637979152822e+01  -6.642010121669e+00 
1 -2.419436584991e+01   4.481709561505e+01  -4.031264493871e+01 
1  4.400536322882e+00  -3.345591492318e+01  -5.223314729354e+01 
1 -2.426629415741e+01  -2.327255386631e+01  -1.947595218593e+01 
1 -3.936986469153e+00   2.087985367579e+01  -1.813168001798e-01 
1  2.616250522297e+01   1.452573866089e+01  -6.169498360059e+01 
1  1.114583317846e+01  -5.424285553388e+01   4.146672329818e-01 
1 -3.405300034945e+01   1.771399735192e+01  -1.141507639007e+01 
8
Step 27000
1  1.003554081284e+01   3.222164317879e+01   9.993679945454e+00 
1 -6.383184769509e+01  -4.456939752641e+00  -3.521994541551e+01 
1  7.993411174539e+00  -4.565217169845e+01   8.399129749351e+00 
1 -4.876236808773e+01  -3.166212965954e+01  -1.879090687320e+01 
1 -2.687932363988e+00   1.131003794091e+00   2.871630010556e+00 
1 -3.682216673843e+01  -3.333555034141e+01   2.141817760380e+01 
1 -1.729618369090e+00  -4.786387406051e+00  -3.731640686372e+01 
1  3.504910104728e+01  -1.481667476683e+01   5.198432574117e+01 
8
Step 28000
1 -2.390323205528e+01  -3.168118638826e+01   1.903718601699e+01 
1 -3.533344586839e+01   2.366311339485e+01  -5.546692463069e+00 
1 -4.009770578101e+01  -4.181534348449e+01  -1.102015192869e+00 
1 -1.547996362179e+01   1.856196358069e+00  -7.662778063134e+00 
1  1.572516359957e+00  -3.754899495624e+01  -2.358197626235e+01 
1  5.366609533064e+01  -2.814241988624e+01   8.864024771078e+01 
1  7.958337578145e+01  -1.880575685872e+01  -3.344249058407e+01 
1  4.968672704749e+01  -5.584590767171e+01   3.117296790051e+01 
8
Step 29000
1  3.734437504376e+01  -4.260503173065e+01   2.226148701420e+01 
1  5.075784408297e+00   3.077766077243e+01  -8.030638007359e+01 
1  1.334830002428e+01  -7.102551034926e+00  -6.784821915805e+01 
1 -3.516529955117e+01   6.340282163937e+01  -7.601673295002e+01 
1 -5.398657951957e+01   1.307585664708e+01   2.929005380540e+01 
1  3.761904356220e+01  -7.430515665762e+00  -9.881601683617e+00 
1  7.134107749200e+01  -1.288475785823e+01   5.630349910956e+00 
1 -1.956832211977e+01  -1.511756827348e+01  -7.205479996964e+00 
8
Step 30000
1  1.003840544958e+02  -4.033509420851e+01   4.186798205245e+01 
1 -8.873417877014e+00  -1.544957954011e+01  -2.944598732407e+01 
1 -7.452535484405e+01   1.225041912426e+01   2.602287882137e+01 
1 -4.456952683145e+01  -6.148800100106e+00   3.982556793802e+00 
1 -1.179075540556e+01   1.349883043695e+01   5.614009042309e+01 
1  1.579277220081e+01   1.300143351129e+01  -3.748955073356e+01 
1  5.220947274258e+01   6.640109363362e+01   2.144760940038e+01 
1 -3.850055073129e+01   2.403962199816e+00   1.190064124063e+01 
8
Step 31000
1  4.007043872577e+01   2.002557966330e+01   2.849008133964e+01 
1  6.253498592350e+00  -2.609346174821e+00  -3.556906189352e+01 
1 -8.479608401524e+00   1.681582707944e+01   1.424068288936e+01 
1  1.069046598304e+01  -2.696981724843e+01   6.784706693395e+01 
1 -2.374901755566e+01  -3.722126929385e+01   9.913414765565e+00 
1 -3.161503697280e+01  -9.213468521001e+00   2.868231223629e+01 
1 -1.354086198919e+01   1.990579724566e+01   2.603039684705e+01 
1  2.610068348700e+01  -5.151092810137e+01  -3.648654103971e+01 
8
Step 32000
1  7.942637063647e+00   4.091369876972e+01   1.916675243215e+01 
1  3.268634006896e+01   4.954693810806e+01   1.621412627096e+01 
1 -1.695648324355e+01   5.856454301726e+01  -2.481560067282e+01 
1 -1.868139443087e+01   3.732860467983e+00   1.120893698460e+01 
1  2.610916238002e+01  -9.700317410336e+00  -8.551161783236e+00 
1 -1.385891804781e+01   2.587410503070e+01   3.436862964449e+01 
1 -5.159649636317e+00  -6.805144065469e+00   6.055997745293e+00 
1  1.543276102239e+01   1.213099456326e+01  -2.899865646571e+01 
8
Step 33000
1  3.001206418348e+01  -1.278111256728e+01   5.938152566420e+00 
1  4.458000060865e+01   2.744865928330e+01   2.994959072299e+00 
1  2.732384362770e+01  -1.174500579522e+01  -3.300891434705e+01 
1 -7.977965789081e+01  -5.572347624107e+01   4.837274491419e+01 
1 -3.098850263198e+01   3.519139566638e+01  -2.141280471582e+01 
1 -1.038612344988e-01   5.490714112868e+01  -8.552879065577e+00 
1 -1.110918990425e+01  -3.955557449212e+01  -2.885178281563e+01 
1 -7.429043960904e+01   7.346341748733e+01  -3.453460839742e+01 
8
Step 34000
1  1.196362359970e+01   7.121044793581e+01  -1.276628569929e+01 
1  1.533758359674e+01   2.647069717053e+01   2.069017870061e+01 
1  2.619074928321e+01  -4.212553562912e+01   3.633667910211e+01 
1 -1.211289275724e+01  -1.613405202096e+00   3.247836513992e+01 
1 -3.680946168673e+01   1.898194106774e+01  -1.976697247677e+00 
1 -5.372791374481e+01   5.541414037015e+01  -6.566517384030e+00 
1 -1.404732517061e+00   7.801401663659e+01   2.577565196557e+00 
1 -5.890064119508e+01   4.354741465733e+01   2.295880007210e+01 
8
Step 35000
1  3.826088482835e+00   6.211502643837e+01   2.697812411765e+00 
1 -2.487511791075e+01  -7.453078500748e+00   4.703216283050e+01 
1 -5.567732213427e+01  -5.933737795764e+01   1.215271379312e+01 
1 -9.707490600987e+00  -1.385053461736e+00   1.520979058213e+01 
1 -1.471247496380e+01  -7.119842630202e+01   1.124050709596e+01 
1 -5.800629671434e+01  -2.171756450674e+01  -2.407547467698e+01 
1  8.239215091764e+00   3.973395544635e+01   2.007617469746e+01 
1 -2.207232184783e+01  -8.508757642022e+00   5.432163900889e+01 
8
Step 36000
1 -1.526930311798e+01   3.855587832268e+01  -9.259636997547e+00 
1 -1.865638445936e+01  -1.519263170206e+01   3.741040473497e+01 
1 -3.211686415446e+01  -1.128786831610e+01   7.184117606853e+01 
1  1.780372558722e+01  -5.655324658111e+00   2.892322191552e+01 
1 -1.242396753460e+01   2.025043890766e+01  -1.391724862401e+01 
1 -3.690118956989e+01   1.105094267904e+01   2.654577297667e+00 
1 -6.492622295149e+00   5.259637922174e+01  -2.847191369659e+01 
1  8.866829901974e+00   5.429329579926e+01  -4.455422090833e+00 
8
Step 37000
1 -2.567782169742e+01   1.219364590734e+01  -4.298743167664e+01 
1  4.886001080039e+01  -1.339134462177e+01   6.199187639658e+01 
1 -4.797043114573e+01   4.327201301259e+01  -1.785511242231e+01 
1 -4.169628602166e+01  -2.454170616931e+01   3.415895027766e+01 
1 -1.819124294835e+01   7.665908008514e+01   4.361810619100e+01 
1 -3.329565313499e+01  -2.579629863235e+01   7.445555271192e+01 
1 -7.208248271528e+01   6.415107297438e+01   1.860958687405e+01 
1 -1.024054342978e+01  -5.158976563710e+00   5.253044264289e+01 
8
Step 38000
1 -1.337162843884e+01  -3.184689568142e+01   1.130504116501e+01 
1  7.248832793463e+01   6.223797618212e+01   2.345734949864e+01 
1  2.581618015332e+01  -4.704214720112e+01   3.049813286898e+00 
1 -2.454284377111e+01  -1.820668969959e+01   5.982015129817e+01 
1 -4.076530479702e+01   7.628288125215e+00  -1.598131366723e+01 
1 -2.697979652940e+01  -3.770596585799e+01   2.077002133794e+01 
1  1.156253606863e+01   3.933920680982e+01   5.703264033568e+01 
1  2.941785260640e+01  -1.596647474821e+01   3.301401402039e+01 
8
Step 39000
1 -2.152066638636e+01  -7.571710375733e+00   7.810030426383e+01 
1 -6.986000843437e+01   3.706260035959e+01  -7.513105245114e+00 
1  1.353266744422e+01  -4.495623376913e+01   3.191663344748e+01 
1 -4.304083640038e+01   6.213417294073e+01   4.679567996395e+01 
1 -8.045951500967e+00  -5.850461701760e+01   1.373906583837e+01 
1 -1.036137445629e+01  -2.963316109475e+01   4.846895808906e+01 
1 -7.947049838793e+00  -4.814029166366e+01   1.096364558715e+01 
1 -1.446691428640e+01   1.829528754771e+01  -4.181196397193e+01 
8
Step 40000
1 -3.570630885138e+01  -3.453402589893e+00  -2.411740748935e+00 
1 -2.621624777406e+01   2.233752648883e+00  -3.657014550456e+01 
1 -1.068815816977e+01   1.378440578574e+01   4.109675509428e+01 
1  1.235811453317e+01   2.873370725453e+01  -4.054058306969e+01 
1 -3.659259951970e+01  -6.188147086314e+01   4.866608758373e+01 
1  2.556928065684e+01   8.770047449464e+00   4.437513473364e+01 
1  5.395601627185e-01  -4.496195582570e+01   1.070336916275e+00 
1  2.828199526127e+00   5.673232138475e+01  -3.215107469640e+01 
8
Step 41000
1  2.128570333725e+01  -3.312242792170e+01  -2.206023774435e+01 
1  3.868495927155e+01  -7.155872164463e+00   5.450992471064e+01 
1 -6.010218426043e+01  -1.240149895498e+01   8.244851350700e+00 
1  5.881353295785e+01  -7.139810767566e+01   3.503963724105e+01 
1 -2.375893485089e+01   2.571774830811e+01   2.205515064262e+01 
1  2.255980183079e+01   2.886425805380e+01  -1.609418759432e+01 
1  1.973403566150e+01   1.028952754460e+01   4.009994065015e+01 
1 -2.104801190868e+01   3.448618567297e+01   8.039519390469e+00 
8
Step 42000
1 -2.377827363610e+01  -1.147004114851e+00  -3.366510553528e+01 
1  2.591648068269e+01  -2.500669333352e+01   3.912814362109e+01 
1 -3.917300317283e+01  -1.685184356269e+00  -5.199662259868e+01 
1 -1.175963284602e+01   1.279813389264e+01   5.242616588024e+01 
1 -5.210475164474e+01   9.277596821714e+00   2.232876942595e+00 
1  8.552825997028e+01   1.981942509033e+01   4.265690302145e+01 
1 -1.764846982000e+01   4.797504435374e+01   2.165196326929e+01 
1  3.621896016633e+00  -5.824873788042e+01   2.414941648255e+01 
8
Step 43000
1  2.941883438007e+01  -3.763437938351e+01  -3.139954864487e+01 
1 -4.061094895322e+01  -6.140880610862e+01  -3.770162649098e+01 
1  6.037758067246e+01   3.086733531729e+01   1.950691167868e+01 
1  7.098133376828e+00   6.621285114126e+01  -2.392792601774e+01 
1 -4.179288891951e+00  -1.434406732853e+01  -5.098987869774e+01 
1  4.733402576887e+01   8.107936964539e+01   1.971781760023e+01 
1 -4.031031939820e+01   9.650671156115e+01  -1.677403606863e+01 
1  4.470391204397e+01  -4.401752238760e+01  -5.625026887597e+01 
8
Step 44000
1  4.381800433217e+01   4.006252820632e+00  -1.915099860750e+01 
1 -1.985297228734e+01  -1.178160875396e-01   1.025794468071e+00 
1  3.805561975682e+01   1.379566712728e+01   3.975605332674e+01 
1  6.473057108759e+01  -3.708336484800e+01  -5.350634692967e+00 
1  2.383703715101e+01   9.643070340189e+00  -1.425911383683e+01 
1 -1.825485595501e+01   1.818987572118e+01  -5.092912027391e+01 
1 -5.619897229268e+01   3.080504126090e+01   1.307369640740e+00 
1  7.056990354977e+00   4.359831880346e+01  -5.130445876898e+01 
8
Step 45000
1  4.907692718167e+01  -1.636095350336e+01  -5.369491601872e+01 
1  4.722080993518e+01  -4.734670857058e+00   3.688839977396e+01 
1  1.802183531817e+01  -1.193963829836e+01   2.132054987083e+01 
1  1.622967983074e+01  -2.693281922634e+01   4.400448856188e-01 
1 -2.979851039404e+01  -1.818158469427e+01  -1.057099351543e+01 
1 -3.215852477252e+01   4.219931437249e+01  -6.576784192515e+00 
1  2.128758188374e+01   1.008618339095e+01   8.187681008592e-02 
1 -5.914467146800e+00   4.219903126127e+01  -1.144696775455e+01 
8
Step 46000
1  1.220649359333e+00  -4.809958362971e+01  -5.136880576706e+01 
1  1.541342752460e+01   4.645866899378e+01  -4.082713442552e+00 
1  1.249148343184e+01   2.966894557657e-01   2.498108418493e+01 
1  3.841738161600e+01   2.357082235961e+01   1.620922320163e+00 
1  1.175387605962e+01   4.829948324475e+01   5.654898434124e+01 
1 -1.059953582516e-01   3.191099855406e+01   1.664912577812e+01 
1  5.334473369140e+01  -4.692931702825e+00   2.376204478605e+01 
1  5.550836607414e+01   1.168794766570e+01   3.652698807857e+01 
8
Step 47000
1 -5.872647320816e+00  -2.574330074191e+01  -4.715946100427e+01 
1  3.945305402396e+01   5.464817505386e+01  -4.004091736836e+01 
1 -5.755478231276e+00   1.315409560909e+01  -1.581053615708e+01 
1  4.652699681385e+01   2.919300060596e+01  -3.143048223035e+01 
1  1.301140979009e+01   1.409395683873e+01  -2.840477308602e+01 
1  1.386574639047e+01   6.178398769120e+00   2.574214236242e+01 
1  2.716544148545e+01  -2.625817458424e+01  -1.453197234999e+01 
1  2.452098090678e+01   7.657029603430e-01  -1.495657189378e+01 
8
Step 48000
1  1.573352395824e+01  -1.737301024216e+01  -6.020029801001e+00 
1  3.185446079515e+01   7.674018052953e+01  -1.254848906298e+01 
1 -1.014347759228e+01   4.466992094413e+01   2.048762546221e+01 
1  4.888063479538e+01  -2.183120321215e+00   1.625371446158e+01 
1  3.154357972334e+01   1.416555067327e+01  -3.173297571217e+01 
1 -9.987457241831e+00  -1.753546208630e+01   1.161760124154e+01 
1  3.445304238471e+01  -7.487981813534e+00  -3.228778795692e+01 
1 -4.186128062368e+01  -1.775276219144e+01   1.435275139328e+01 
8
Step 49000
1  5.244996393288e+01  -4.499486664075e+00  -1.307948846933e+01 
1 -7.450952619219e+00  -3.042201565602e+00   1.320931764710e+01 
1 -1.971902985493e+01  -1.367393812795e+01  -3.577647002061e+01 
1  2.580463107824e+01  -6.434055575620e+01   3.026748375616e+01 
1  3.614868143760e+01   5.786547718146e+01  -1.900011327143e+01 
1 -3.335145337098e+01  -4.075902616664e+01   3.128854476162e+01 
1 -2.493883973344e+01  -1.050225822233e+02   3.768550775938e+01 
1 -9.171179032952e+00  -1.392124331442e+01   4.304299074197e+01 
8
Step 50000
1 -5.627153144343e+01  -3.312355695483e+01  -2.974350014069e+01 
1  1.240638457196e+01  -7.823878425347e+00   4.793954124101e+01 
1  6.169090527154e+01   5.816121223172e+00  -9.219020901774e+01 
1  3.963825050321e+01  -1.374477382946e+01   1.033931276852e+01 
1  2.313821530372e+01   6.037280683091e+01   6.464551463471e+00 
1 -1.018315967003e+01  -7.404681966832e+00   4.138467597395e+01 
1 -8.983711592216e+01  -2.705057482979e+01  -1.443823298202e+01 
1  8.750212382038e+01  -5.382455136247e+01   1.599092648223e+01 
8
Step 51000
1 -2.561010482310e+01  -1.609705819382e+01   3.598223504632e+01 
1  1.549926136343e+01  -3.257571075910e+00  -2.999034775475e+01 
1  9.608351192081e+01   1.484697072150e+01  -2.692212686427e+01 
1  9.121341053234e+00   3.587052496706e+01  -1.516880682371e+01 
1  3.570915905820e+01   6.196365002777e+01   4.490486830481e+01 
1 -1.248074026961e+01  -1.084516320717e+01  -1.230934209397e+01 
1 -4.600360797227e+01  -2.648193669145e+01  -6.555602756735e+00 
1  4.774357366823e+01  -5.146410482240e+01   8.946195287731e+00 
8
Step 52000
1  3.357134639095e+01  -1.268837924497e+01   6.001706711494e+01 
1 -9.741267514917e+00   4.525125747421e+01  -3.340354189022e+01 
1  2.180312205803e+01  -1.102589255011e+01   6.407882525215e+01 
1 -5.822401929740e+01   7.061685957853e+00   8.822905820600e+01 
1  1.192319402302e+01  -9.434620546125e+00   2.015520907034e+01 
1  2.274705219841e+01   1.421946541089e+01   1.752971787864e+00 
1 -6.176532173180e+01  -1.832953010229e+00   9.915016288803e+00 
1  4.447401329246e+01   3.096167012814e+00  -3.987492702270e+00 
8
Step 53000
1  4.050010119678e+00  -5.621056375003e+01   1.063759597958e+01 
1 -1.570982208309e+01  -3.756559641243e+01   2.194260431801e+01 
1 -6.730185928732e+01  -1.203147956507e+01  -2.939483349008e+01 
1 -3.603901233618e+01   3.101079140154e+01   4.123431321915e+01 
1  2.832040921803e+01  -3.928940678116e+01   4.763649902999e+00 
1 -1.175920758655e+01   1.387295654886e+01   8.154597473032e+01 
1 -8.798112776981e+00   5.678074735206e+00   3.782791485323e+01 
1 -1.899052108976e+01  -2.631484086132e+01   1.109471834870e+01 
8
Step 54000
1 -3.950686172999e+01  -3.712095372873e+01  -8.946556609684e+00 
1 -6.845756331233e+01   1.629605820002e+01  -6.854008723693e-02 
1  2.427485354942e+01   2.787306933514e+01  -2.825887323060e+01 
1  1.771983131516e+01  -6.265199752734e+00   1.743328525835e-02 
1  5.516887954611e+01   3.483463426755e-01   3.547045610385e+01 
1  1.106050178091e+01   2.116271954998e+00   4.960964634122e+01 
1  6.043319983146e+01   4.426707920131e+00  -1.745249213805e+01 
1 -2.207078381538e+01  -1.128197865795e+01  -1.871625721675e+01 
8
Step 55000
1 -5.238574860381e+00   1.138126525945e+01   7.197624867252e+00 
1 -9.524025409953e+00   8.504198702402e+01   4.842440191072e+00 
1  1.847648846103e+01  -3.362744263907e+00   1.428001554054e+01 
1 -5.668968588544e+01  -4.133536051762e+00  -7.491204588307e+00 
1  1.450129666220e+01  -1.981557185244e+01   3.070957626836e+01 
1 -4.319898564981e+01  -1.308221123011e+01   1.923572727393e+01 
1 -1.178954612083e+01   1.437947681883e+01   3.473833204180e+01 
1 -4.540842363667e+01  -2.191575817663e+01  -3.899460081140e+01 
8
Step 56000
1 -1.401650196296e+01   8.064159268369e+00   1.695346567427e+01 
1  1.659213595474e+01  -4.276024443723e+00   4.559669729044e+01 