8
Step 0
1 4.02573418348032419e+00 7.25924814801329035e+01 -7.37016840553729082e+01
1 6.74178258713448031e+00 -6.62212382901105627e+01 7.29755721256853462e+01
1 1.18275084079295254e+02 -1.33727210584591177e+02 1.21898659695395679e+02
1 1.12983988585053169e+02 -8.74705266328554671e+01 -6.29599970029564844e+01
1 1.07032580602187579e+02 -9.85409922385121604e+01 1.06768343259554399e+02
1 -9.23227384961577116e+01 1.46317214693880771e+02 6.64975713889727160e+01
1 7.52478357784244452e+01 -1.41212856387992275e+02 -1.10749764006389398e+02
1 -1.38566548014815197e+02 -2.68576852312545071e+01 -2.37939378072723002e+01
8
Step 1000
1 2.30181088058729451e+01 6.86359784563225332e+01 -2.74767012173583396e+01
1 2.68826359128076398e+01 -7.40547356403207715e+01 6.35495237015678498e+01
1 1.05951947652535935e+02 -9.03747667198837803e+01 1.27345503251726427e+02
1 1.04468461892868532e+02 -9.22021781683913417e+01 -3.02175174715716537e+01
1 5.43329928655014243e+01 -6.02664566157577681e+01 8.28965484337292082e+01
1 -3.31323451892034413e+01 1.65034747318865811e+02 5.34850835194468388e+00
1 7.29666462202898174e+01 -9.21933942237427146e+01 -1.18919448916606910e+02
1 -9.95024876812886987e+01 6.42650773593860603e+00 -2.70441981081932958e+01
8
Step 2000
1 2.20878153376536552e+01 5.13190070373758829e+01 3.33581684487136130e+01
1 2.94600980927213953e+01 -4.23709078581513268e+01 3.50555007174089752e+01
1 5.86323262635597260e+01 -7.63855293229807408e+00 9.58478110315105170e+01
1 5.24850547380066814e+01 -6.28827017911946555e+01 1.82497830704485011e+01
1 -2.02991826097678825e+01 1.07355443979055938e+01 4.96678510528363759e+01
1 3.58767764019811750e+01 1.12457606128248770e+02 -6.21702017398637921e+01
1 5.54885166691998748e+01 -6.86185398051025697e+00 -8.76269116869556228e+01
1 -1.96623458930205466e+01 2.92006474627016601e+01 -3.22168073207057901e+01
8
Step 3000
1 4.65640300392874540e+00 2.08916947779165660e+01 8.23628729936386605e+01
1 2.01222080799751879e+01 1.02733759692114504e+01 -1.06193236892649221e+01
1 -1.03695232249061284e+01 6.85031423806656932e+01 3.50224143468101019e+01
1 -1.93721750963079167e+01 -6.73429537858262250e+00 7.18860977637735061e+01
1 -8.17512164877941387e+01 8.31722959154188288e+01 1.31434818028004603e+01
1 8.81409744240020530e+01 1.31138881033620667e+01 -1.05320650880982285e+02
1 2.79363339641151107e+01 7.43413881210808398e+01 -2.64205311372946525e+01
1 5.75674376010382929e+01 2.49401811276742400e+01 -3.41945235520011721e+01
8
Step 4000
1 -1.84457199836779715e+01 -1.82069421867835075e+01 9.73282517428348939e+01
1 1.15604170229693786e+01 5.39577822936364626e+01 -6.29108205132574838e+01
1 -7.48895963614185263e+01 1.00329911698276916e+02 -3.75876156259943031e+01
1 -7.68165478973473910e+01 5.47417849661739808e+01 1.11698812303366466e+02
1 -1.04450516518391851e+02 1.23216662947765883e+02 -2.47036287488536921e+01
1 1.06728171795838946e+02 -7.41179000384221638e+01 -1.03808413985940632e+02
1 -3.08895049111451536e+00 1.16991215581875807e+02 4.00487205571656730e+01
1 9.49455179866226615e+01 -6.86831427874623923e+00 -2.67838840872812654e+01
8
Step 5000
1 -2.97500423173761739e+01 -5.52099900374214272e+01 7.03505727479548568e+01
1 1.17058610660853226e+01 6.41575756194169031e+01 -1.02412438862730880e+02
1 -1.12457614405223296e+02 8.19112804431584465e+01 -9.70993935635247283e+01
1 -9.76448385546603959e+01 9.60343334950043044e+01 1.21647175570767288e+02
1 -8.49661170145496669e+01 1.15759888881829184e+02 -6.10662485647711719e+01
1 8.94119380082339319e+01 -1.09022415461035592e+02 -6.05863657074232549e+01
1 -3.09607886375809684e+01 1.13660861636599805e+02 8.47968023582531742e+01
1 8.35258360906502304e+01 -5.00978130607972787e+01 -5.67901802432508873e+00
8
Step 6000
1 -1.80464628919525047e+01 -7.90793392433693754e+01 1.57930613212468405e+01
1 2.01791478459450069e+01 3.68284633977632510e+01 -1.14931348124351118e+02
1 -1.15266365437164808e+02 2.99034609810707082e+01 -1.25331444067551729e+02
1 -8.05684977659716282e+01 1.01398634519827681e+02 9.54509833628498399e+01
1 -3.82928768618117772e+01 6.66389026976034842e+01 -8.91737427516312948e+01
1 4.72633590404820367e+01 -9.05812094015411873e+01 2.31200535917661698e+00
1 -5.08105273237703656e+01 7.60534362120460372e+01 9.45186807475886610e+01
1 3.72258423908133480e+01 -7.98644437418446387e+01 2.93162470516477036e+01
8
Step 7000
1 1.33928448226271470e+01 -8.31720580745819547e+01 -3.76217912575874678e+01
1 2.95185598902341191e+01 -1.13870577727500049e+01 -9.34732554124179700e+01
1 -8.68338355284769250e+01 -2.68764111378460342e+01 -1.17129107755127208e+02
1 -3.93643425027270411e+01 7.01515509412140688e+01 3.92294967628745255e+01
1 1.05593179158511727e+01 -3.45966329073444434e-01 -9.95279861200244369e+01
1 -1.85908415365017943e+00 -3.90089488988745003e+01 5.48154687105993403e+01
1 -5.97936230147321268e+01 2.49411028035911997e+01 7.22681521802206674e+01
1 -1.72872349360814219e+01 -7.64451499250473319e+01 7.18918650105344170e+01
8
Step 8000
1 4.99882379136279624e+01 -6.53374169552766517e+01 -6.63187431655368584e+01
1 2.73085055659929345e+01 -5.46533465088820662e+01 -3.78984561861712237e+01
1 -3.91066609596229000e+01 -6.13188360429549419e+01 -7.78216125557846965e+01
1 5.20309616408715581e+00 1.62356692508071845e+01 -2.66545875613329564e+01
1 4.06291124178487166e+01 -5.48519006179983961e+01 -8.34981486324766564e+01
1 -4.10853170451444498e+01 1.67473633384380136e+01 7.60471357923607627e+01
1 -5.61472425274870091e+01 -1.88096411486294066e+01 3.29341203478113584e+01
1 -5.43855293462131826e+01 -3.46389683925447258e+01 1.08043847412579694e+02
8
Step 9000
1 7.40466390049824810e+01 -2.84313600080329856e+01 -6.30986316379765881e+01
1 3.56716566055480078e+00 -7.30125995890610966e+01 3.52624125609577348e+01
1 9.32277346422014119e+00 -6.15037944104557326e+01 -2.19238824015804994e+01
1 3.53484376315255489e+01 -3.58407546432129607e+01 -7.60978123685820407e+01
1 4.52458744209917114e+01 -7.89136566411004594e+01 -3.86088559906671378e+01
1 -6.08483443596620575e+01 5.27893315665762586e+01 6.41138122452969270e+01
1 -3.86954489216875288e+01 -4.29591870311094013e+01 -3.80649757565035607e+00
1 -6.15524287839532036e+01 3.25431516498073066e+01 1.20059467683586860e+02
8
Step 10000
1 7.08806798297085550e+01 1.81401985329467905e+01 -3.45938074601670706e+01
1 -4.11706873779556659e+01 -5.93011911727952494e+01 9.26580941586735349e+01
1 4.30044921678467205e+01 -3.12411155768934456e+01 3.10460811266854257e+01
1 4.44957294949985425e+01 -6.43021833612890958e+01 -9.38158552138411608e+01
1 3.11563395349299412e+01 -7.14340022562854244e+01 2.59415667571489550e+01
1 -6.06606819741876180e+01 5.79512215542491447e+01 3.11876933793226954e+01
1 -7.31072041120067606e+00 -4.58371700763928800e+01 -2.36962964456023677e+01
1 -4.01045925637206366e+01 9.60588706392287577e+01 9.20154517968139629e+01
8
Step 11000
1 3.20364397700382071e+01 6.17649462403250382e+01 5.71645569748763349e-01
1 -9.09967515718667102e+01 -2.07342179385318843e+01 1.10763087021063981e+02
1 5.75318924653920689e+01 1.40514383069141289e+01 6.58485004339383551e+01
1 3.71732024162946288e+01 -6.24433536359938230e+01 -8.11511041723950797e+01
1 1.17854245634422057e+01 -4.19214577750072124e+01 8.80689741292559489e+01
1 -4.58766664849795376e+01 3.38900887550136076e+01 -4.76852779077387012e+00
1 3.58656712399087283e+01 -3.29977149750785088e+01 -2.43642318397487578e+01
1 -1.49112587548775477e+00 1.26788654207745878e+02 1.53624209591128871e+01
8
Step 12000
1 -3.73965090910167532e+01 9.17763776381367649e+01 2.22029909087299195e+01
1 -1.19374645444745553e+02 2.32597469198166280e+01 9.00876608745794556e+01
1 5.65461225722870608e+01 5.40552736030135321e+01 7.67465895670980984e+01
1 2.32915795577111098e+01 -3.87632235130673592e+01 -5.03879471527150997e+01
1 -1.06164170348632236e+00 -5.36568448740916004e+00 1.22472955232049571e+02
1 -2.36031537556367859e+01 -5.13537456733485076e+00 -2.82322423084717222e+01
1 8.38596470054877159e+01 -1.33593229913239497e+01 -1.32816027119422593e+01
1 3.72815091400162473e+01 1.11560862348377810e+02 -9.50465233852555826e+01
8
Step 13000
1 -1.10778440163611137e+02 1.01265404389616364e+02 2.32833908974719641e+01
1 -1.01946747791508756e+02 5.24820413797695835e+01 4.59304977773965959e+01
1 4.44509674675217923e+01 7.16766791728265673e+01 6.48681498477711642e+01
1 1.18683127632174017e+01 -8.95970636649241037e+00 -1.64239706145325677e+01
1 -3.25107994363806219e+00 2.33388796255028446e+01 1.13720306518898084e+02
1 -5.35538500377569560e-01 -3.80645612759174199e+01 -3.26288282353010715e+01
1 1.22610693955188921e+02 4.28425065147543194e+00 -1.13118774277776701e+00
1 6.10338262273916428e+01 5.56290207460962804e+01 -1.90465033330547982e+02
8
Step 14000
1 -1.51824961906310676e+02 8.59801977997757660e+01 1.00078225848500377e+01
1 -3.30464319114826068e+01 5.79989336859275681e+01 -1.19277886348597706e+00
1 2.52272945956687025e+01 5.83189356521376681e+01 3.44907594611551360e+01
1 6.86513268545168209e+00 1.34943170020002032e+01 9.82916111105804546e+00
1 6.82238498758451106e-01 3.53918605042554617e+01 6.14593068403933955e+01
1 1.76618545355714822e+01 -4.83283480780840122e+01 -2.10886602843454334e+01
1 1.33942799844796696e+02 1.38527466963248695e+01 4.65539616843915116e+00
1 6.19626750845894705e+01 -1.83320771762751491e+01 -2.27072671256442817e+02
8
Step 15000
1 -1.39326054398599666e+02 4.53251353095423255e+01 -7.29028474346758149e+00
1 5.81069479300069389e+01 4.24634623355362066e+01 -3.35552629081627458e+01
1 3.39934897199774211e+00 1.70918566855969800e+01 -7.84853862431143146e+00
1 6.89051769968207317e+00 2.20043740370528802e+01 2.32881721780797122e+01
1 1.69214519627564308e+00 3.04989940514122964e+01 -1.59691285387320914e+01
1 2.63468095979739410e+01 -2.95418788329350299e+01 -2.53682212709156163e+00
1 1.04960433336647498e+02 1.33254890131240362e+01 2.78438650586111081e+00
1 4.10616309789732910e+01 -7.94749382222251626e+01 -1.95878581679783792e+02
8
Step 16000
1 -7.67441352061977540e+01 -1.08743675790117411e+01 -1.88390979137154133e+01
1 1.22951244646812540e+02 1.57045515978351151e+01 -4.34483724135194294e+01
1 -1.69976861606636618e+01 -3.58977773356043883e+01 -5.23433420436726848e+01
1 7.24481200410094495e+00 1.62169427593273596e+01 2.37899495630425584e+01
1 -7.72305437654199878e+00 1.47817518699077848e+01 -8.38466382058100521e+01
1 2.46109594515426764e+01 1.09332386036885261e+01 1.32291505370650917e+01
1 3.83517488603900105e+01 5.01190723692697837e+00 -3.54083052235366624e+00
1 7.39464370847374042e+00 -1.09294894650825995e+02 -1.16249182558274597e+02
8
Step 17000
1 7.94583281735663061e+00 -6.15638452650405483e+01 -1.74830982585498802e+01
1 1.33926229441423743e+02 -9.87414434971057631e+00 -3.39242030987980456e+01
1 -3.31902974220694205e+01 -7.91703297388877303e+01 -8.60592761511082500e+01
1 2.89969206324456596e+00 3.37968817360562779e-01 1.51367330502867397e+01
1 -2.78385189277773577e+01 -2.06296836534978656e+00 -1.12245446481954303e+02
1 1.53144368224470515e+01 5.25526077359070598e+01 1.97239758971646175e+01
1 -4.30207041900437801e+01 -6.02882663213758274e+00 -9.83525194296552918e+00
1 -2.59911493931923303e+01 -1.08477659223708017e+02 -2.93249920661724772e+01
8
Step 18000
1 7.52459848756449219e+01 -8.89271334624498451e+01 -3.79750362115352713e+00
1 9.00378391450271778e+01 -2.41462515021467148e+01 -1.20710886267521769e+01
1 -4.18024710921105935e+01 -9.62888934649919577e+01 -9.54649105251267969e+01
1 -7.22761361586065920e+00 -1.88589415072270370e+01 3.03002348089190354e+00
1 -4.93505020312930540e+01 -1.09416488561599348e+01 -9.26712651373174339e+01
1 2.85258944685656646e+00 7.36325426977811475e+01 1.62290811222320812e+01
1 -1.08475425608420650e+02 -1.46725290430348707e+01 -1.24918125214013873e+01
1 -4.80780092116490323e+01 -8.78483033336843988e+01 3.20745020214774144e+01
8
Step 19000
1 1.02159981095104413e+02 -8.75562267345723484e+01 1.50553028534691151e+01
1 1.27422539237913401e+01 -2.49763882999567279e+01 1.28644240943948756e+01
1 -3.95609465182288176e+01 -7.96557502203875458e+01 -7.24303419212399291e+01
1 -2.09806823484280116e+01 -3.28923693628807499e+01 -6.14418625534577778e+00
1 -5.82664372941231719e+01 -8.19675097306881995e+00 -3.76952564041864022e+01
1 -8.25635230275744192e+00 6.26555514782369372e+01 7.25233809529921736e+00
1 -1.37977270286178396e+02 -1.69361296361251412e+01 -9.62064546430806722e+00
1 -5.35495760895472586e+01 -5.84666018038441635e+01 6.55385089704142985e+01
8
Step 20000
1 8.91148027571065029e+01 -6.24665507106912230e+01 3.08962480797234171e+01
1 -5.86932552157765528e+01 -1.77714075921120838e+01 2.99209778453447974e+01
1 -2.61467815885409145e+01 -3.30898006600771737e+01 -2.05542881055012394e+01
1 -3.46354236795754673e+01 -3.30843263234056906e+01 -7.74887848824677228e+00
1 -4.49081356589304264e+01 3.03419647711624085e+00 2.42857223989040101e+01
1 -1.40144025121443860e+01 2.13602475525946609e+01 -2.81099891655256728e-01
1 -1.27657487063663027e+02 -1.07568085510337799e+01 -1.68054316832092954e+00
1 -4.34581371010351916e+01 -2.63098108851254722e+01 7.77866432494424771e+01
8
Step 21000
1 5.23794691680963140e+01 -2.71425736758850320e+01 3.61533848626875027e+01
1 -9.37270452377804446e+01 -8.53867700524811823e+00 3.34367734500371157e+01
1 -5.82262185693674894e+00 2.63914712692449136e+01 4.25959138863186624e+01
1 -4.32504312384823493e+01 -1.44859403883380526e+01 -1.81585991177796635e+00
1 -9.94739575262975428e+00 1.56152762623153176e+01 6.40086442970102070e+01
1 -1.26933349049148507e+01 -3.42796582775379335e+01 -1.97066769271929254e+00
1 -8.55152857204535621e+01 1.81577992273014099e+00 8.35789446241298428e+00
1 -2.42335792818985922e+01 6.93649489053044999e+00 7.13471728075833198e+01
8
Step 22000
1 1.33151710362240099e+01 4.02870174700379913e+00 2.81271480115475221e+01
1 -8.49100531787032793e+01 -2.31972043939365014e+00 2.36325943804244751e+01
1 1.42247510906212451e+01 7.62140374039448574e+01 9.24123828547455872e+01
1 -4.21926361661507059e+01 2.03446491018650590e+01 7.11268401922652771e+00
1 3.45625528096143881e+01 2.13334834574480148e+01 6.81846381233535226e+01
1 -5.69921061776565541e+00 -8.06808829671155507e+01 9.44285121485825441e-01
1 -2.72819199037422493e+01 1.50294383973915995e+01 1.62459396498023025e+01
1 -4.56443388979084652e+00 3.96522312467582054e+01 4.83191548315714883e+01
8
Step 23000
1 -1.32531108281107581e+01 2.37091168451569061e+01 1.07327835723619884e+01
1 -4.17933386176462776e+01 -3.08732525366071453e+00 4.96567352886595081e+00
1 2.79183491907812815e+01 9.97979303528901198e+01 1.10415919068249295e+02
1 -2.92222325154041478e+01 5.98806707049081410e+01 1.27330805229267234e+01
1 7.01089662132064859e+01 1.44184494434440484e+01 4.19753553821761187e+01
1 2.79559723074140010e+00 -9.95159085434034409e+01 2.48759415351862367e+00
1 2.84057059766338895e+01 2.23315739414792951e+01 1.84432655456879822e+01
1 9.16061816409457741e+00 6.74679329186763397e+01 1.50893659855919502e+01
8
Step 24000
1 -2.36940184928196516e+01 3.16379267082195774e+01 -9.09095981545735654e+00
1 1.31022931076128195e+01 -9.12974382215447910e+00 -1.43084120044967520e+01
1 3.25862270966333369e+01 9.09961031848995532e+01 9.16010643422279145e+01
1 -4.45655029697176985e+00 8.65696614438909648e+01 9.99688213823001703e+00
1 8.14070916012318264e+01 -5.34432172399868133e+00 2.79369363595893860e+00
1 7.95574910437668770e+00 -8.51353873105174301e+01 -3.69173631649521905e+00
1 6.76381923691983076e+01 1.94641255493313778e+01 1.38141597860247938e+01
1 1.60440574013028687e+01 8.33564753955102162e+01 -1.77962318923218454e+01
8
Step 25000
1 -2.24533958803100084e+01 3.04718283762162727e+01 -2.57064743546926096e+01
1 5.34122630252862081e+01 -1.32129165747820654e+01 -2.56699889736277704e+01
1 2.89773509654531303e+01 5.40253905657804694e+01 4.43334814181255936e+01
1 2.88320956683489129e+01 8.47804393318433114e+01 -1.22272756309378638e+00
1 6.36889828410233747e+01 -3.13058063921781233e+01 -2.89711393969596607e+01
1 6.65158578619111651e+00 -4.37527112490201446e+01 -1.89717248127345108e+01
1 8.50354086829381401e+01 6.32748457735238912e+00 4.16991675017352215e+00
1 2.03309037748987826e+01 8.08022777552432245e+01 -3.98988541007240869e+01
8
Step 26000
1 -1.80637271000443924e+01 2.38566794845065218e+01 -3.57892417881287912e+01
1 6.42641692058275282e+01 -8.97900181790602581e+00 -2.48742063188954852e+01
1 2.11697933356075509e+01 2.89229841585033043e+00 -1.19937337275381566e+01
1 6.24118788903665944e+01 4.80837112536163147e+01 -1.58266106811046097e+01
1 2.40285417380153703e+01 -5.13346971856915246e+01 -4.00791680261136776e+01
1 -1.14319795881413500e+00 9.42794912380353622e+00 -3.71861364738601523e+01
1 8.14419651349354865e+01 -1.21515610965642491e+01 -6.38603444329733350e+00
1 2.75048575263252033e+01 5.77322487936539019e+01 -4.54900481710255633e+01
8
Step 27000
1 -1.76800520998953665e+01 1.50897123344341768e+01 -3.82253870374435039e+01
1 4.58518834811361558e+01 5.60126903143820343e+00 -1.26516556465213661e+01
1 1.40016446848629776e+01 -4.36265650240855862e+01 -5.54148857293922035e+01
1 8.57045062389448731e+01 -1.54350393863737896e+01 -2.63419147328458259e+01
1 -2.14838983599750151e+01 -5.24703503832847957e+01 -2.90117773599013482e+01
1 -1.21156774258476450e+01 5.62896144902728324e+01 -4.75013616026364645e+01
1 6.07197871447831830e+01 -2.70799072471834883e+01 -1.32007474285925372e+01
1 3.95132210650662685e+01 1.85349808406974788e+01 -3.55959121530074256e+01
8
Step 28000
1 -2.20935094835364261e+01 5.71620205438579809e+00 -3.36530980281897953e+01
1 9.59539259744022566e+00 2.73739376056388579e+01 5.62685306400027585e+00
1 9.23419139738564887e+00 -7.09402582958483521e+01 -7.29479555954293346e+01
1 8.94408863818624411e+01 -8.13705076868974828e+01 -2.48916314187354537e+01
1 -5.49286618468590220e+01 -2.71835405638713219e+01 -4.45006126543806690e+00
1 -2.04977161902410607e+01 8.34698001933464582e+01 -4.11682614895999492e+01
1 2.88346524183846356e+01 -2.96942206853807456e+01 -1.34980654312817379e+01
1 5.18081020340813296e+01 -2.54427697872837051e+01 -1.67544587605779114e+01
8
Step 29000
1 -2.61941607741814906e+01 -3.75589974167292739e+00 -2.33152381245356359e+01
1 -2.63241795352722328e+01 4.71934273022879580e+01 2.15130911222934174e+01
1 4.22539710383591238e+00 -7.34147446292268597e+01 -6.49496836412070877e+01
1 6.72722145897564445e+01 -1.21376664020405798e+02 -7.26883009033818617e+00
1 -6.49354977812080847e+01 2.09889767338493662e+01 1.98181870300421110e+01
1 -1.96388523674898217e+01 8.62333862645041904e+01 -1.49742344011239812e+01
1 -6.10813079901701173e+00 -1.62722022991126991e+01 -8.07847451501920411e+00
1 5.40254253724176294e+01 -5.94306852418940181e+01 2.09515070958359306e+00
8
Step 30000
1 -2.30976581401030998e+01 -1.22585055864159145e+01 -8.10913864987424127e+00
1 -4.56508110956961488e+01 5.36641849036683141e+01 2.74397972213631149e+01
1 -5.39159879237415218e+00 -5.37881266097729664e+01 -4.11654145736755908e+01
1 1.93803340291022188e+01 -1.18897689107089960e+02 2.25629367776110392e+01
1 -5.06695073013924429e+01 7.43263948176677616e+01 3.19236481549155968e+01
1 -5.38077894814348934e+00 6.76923111288001706e+01 2.57828117438505942e+01
1 -3.48811387329971794e+01 9.23802375828927147e+00 -9.63653195272209606e-01
1 3.55806686582002527e+01 -7.26719548033951241e+01 1.32700808026003916e+01
8
Step 31000
1 -8.68671007908474913e+00 -1.73889511197181044e+01 1.15806990012230493e+01
1 -4.18230619617422832e+01 4.02356368463134686e+01 1.99964023672261142e+01
1 -2.16194777603117707e+01 -2.08562047219522881e+01 -1.47641683444243181e+01
1 -4.22594638152578526e+01 -7.31204641254024494e+01 5.24591059626823792e+01
1 -2.07466277769288965e+01 1.07046403801200995e+02 2.71158678645952094e+01
1 2.05410141194858653e+01 3.57990122772575674e+01 6.61228051776656542e+01
1 -4.96209023137733567e+01 3.55564238699236626e+01 2.40563894315524207e+00
1 -5.84842461030352379e+00 -6.29119034482597357e+01 1.36098645422435975e+01
8
Step 32000
1 1.52334319207256801e+01 -1.67734065661213769e+01 3.38023776599661971e+01
1 -1.92229893115859340e+01 1.02469649920735097e+01 5.78873324929929600e-01
1 -4.12239082746042840e+01 1.35434236461132560e+01 3.69291536700811163e+00
1 -9.62677861599255209e+01 8.87392417677338730e-02 6.73945382837107729e+01
1 1.11768908976175521e+01 9.91788485957535784e+01 9.10182810864912462e+00
1 4.95843653400723099e+01 1.00703538359474071e-01 8.82927969562416877e+01
1 -4.63795639340995152e+01 4.86313606632402724e+01 -2.17026185425921092e+00
1 -5.78855996902695509e+01 -3.62228560368349193e+01 5.78992210428524334e+00
8
Step 33000
1 4.04604919204745102e+01 -1.00355833506463039e+01 5.34681859904184407e+01
1 1.02673856949711766e+01 -2.40319648891921851e+01 -2.49081113740887972e+01
1 -5.57540673260832236e+01 3.90229693777840012e+01 1.08308424338638769e+01
1 -1.23334860174321690e+02 7.16382110291080068e+01 5.44842259460353091e+01
1 3.22377471626713259e+01 4.64661560014424850e+01 -1.23552896946482349e+01
1 6.88840092263436929e+01 -3.06184303197575183e+01 8.22602057218740725e+01
1 -2.68141938716910815e+01 3.90868621893810513e+01 -1.46248123389445563e+01
1 -9.71553551329427307e+01 -4.37109564019809671e+00 -3.34369242997664351e+00
8
Step 34000
1 5.57312262903834394e+01 1.22550865799182590e-01 6.32550881666199913e+01
1 3.27087576923975476e+01 -4.85411940621276230e+01 -4.71836742149798383e+01
1 -5.48886553140665185e+01 4.95378948144439875e+01 1.06756890896873404e+01
1 -1.13502045576714551e+02 1.14618562393715891e+02 9.52170810561599801e+00
1 3.54575723243780061e+01 -3.25334999090478760e+01 -2.67035016841639745e+01
1 6.43448764404347884e+01 -4.95661101807351656e+01 4.96807542242273357e+01
1 1.36788603432812494e+00 8.03425158698938446e+00 -2.89221308259112639e+01
1 -1.03629086388767632e+02 2.02503897991224342e+01 -6.36140582756263662e+00
8
Step 35000
1 5.25248799552616603e+01 8.53864714063329266e+00 5.64247451769856880e+01
1 3.88263618564789112e+01 -5.52203082341405960e+01 -5.59730772800812417e+01
1 -3.14618010260922993e+01 4.41779166137113322e+01 1.20062983432584467e+01
1 -6.83690675259100971e+01 1.15564140172369392e+02 -5.53615148702596755e+01
1 2.24467327849475531e+01 -1.00232375417861562e+02 -2.75710940502859643e+01
1 2.27988074829771890e+01 -5.41897140434562417e+01 8.21275518948023975e-01
1 2.63771524064774141e+01 -3.10054020321992141e+01 -3.38106223666857346e+01
1 -7.24111304070795825e+01 3.03042681221247463e+01 1.31336253185274643e+00
8
Step 36000
1 2.91757749869377641e+01 9.74378114340114543e+00 2.93750308747345521e+01
1 2.78739612996926454e+01 -4.47235185209328208e+01 -4.38106907272642090e+01
1 1.16612943228270716e+01 2.67857826282945695e+01 2.22697280285664654e+01
1 -2.92493042014755433e+00 7.59617482735878582e+01 -1.12392950614345295e+02
1 1.63896554205015699e+00 -1.25581484241876225e+02 -1.54080859565327888e+01
1 -5.75869235107885444e+01 -4.66965940966001014e+01 -4.78318240414147908e+01
1 3.70065179061098419e+01 -5.75364714875036682e+01 -1.72570584661846986e+01
1 -1.73855456491710392e+01 2.59255634295194106e+01 1.90406275010779602e+01
8
Step 37000
1 -6.65643158363945897e+00 1.26996562208549379e+00 -1.46499459537320895e+01
1 6.28558605088428379e+00 -2.48187207448286919e+01 -9.49629238767931128e+00
1 5.80083819172549653e+01 4.09996938329094363e+00 4.14122209728436488e+01
1 5.77442085751831513e+01 1.22340232592803204e+01 -1.33416105030443589e+02
1 -1.60270665992938568e+01 -9.99086011886533782e+01 2.15971944679004935e+00
1 -1.49120551038530323e+02 -3.14315868264695908e+01 -7.94286933832142239e+01
1 2.72889547788254134e+01 -5.57085020611628252e+01 2.55565545469965905e+01
1 3.51323926824691313e+01 1.33082566219549037e+01 3.99656449907340701e+01
8
Step 38000
1 -3.96535621711140962e+01 -1.34950280382778978e+01 -6.24191699345315811e+01
1 -1.67124763115298727e+01 -5.68235748098653559e+00 3.89583979092032564e+01
1 8.54968190685813312e+01 -1.64941491844692756e+01 5.99883744056535804e+01
1 9.21688914764396685e+01 -4.88544392923517563e+01 -1.03602737726653373e+02
1 -2.05816579045357422e+01 -3.62634490323706444e+01 1.40655126222974971e+01
1 -2.04305747384516735e+02 -1.28970704857161209e+01 -8.53302404336397586e+01
1 -9.22903154594756692e-01 -2.31320203811101486e+01 8.42513693928629408e+01
1 6.26432007761529874e+01 1.04982821734915022e+00 5.21166670128324299e+01
8
Step 39000
1 -5.51315261646432191e+01 -2.47001881888352628e+01 -9.49814112822071053e+01
1 -3.32211303542855561e+01 6.61903109651445298e+00 8.46026002127594126e+01
1 8.09227185931696482e+01 -2.91774494876901223e+01 6.32809626006582988e+01
1 9.34275921660441355e+01 -8.41924182881351300e+01 -2.76485355967896780e+01
1 -7.58345069593340515e+00 3.38070202273938563e+01 1.32370764920902193e+01
1 -1.92350691852028632e+02 3.80803465225568827e+00 -6.76534793775990977e+01
1 -3.70221279352784904e+01 2.53573355119918418e+01 1.32552771706575015e+02
1 5.71745171756395365e+01 -2.90179310023462467e+00 4.21059684482766414e+01
8
Step 40000
1 -4.85851527246204213e+01 -2.10527622192183941e+01 -9.75950379117084594e+01
1 -3.88271744618228993e+01 1.25098217627810442e+01 1.08720904523572187e+02
1 4.52459163585095681e+01 -3.13040494102474902e+01 4.00875680439887248e+01
1 6.83541296102079201e+01 -8.46969743693461794e+01 6.40219015593141734e+01
1 1.68848862552979497e+01 7.87501845320166609e+01 7.30994566321787276e-01
1 -1.09352498746521732e+02 1.59317532635038734e+01 -3.56993520578752026e+01
1 -6.45930931065829981e+01 6.27063697023085069e+01 1.40228910677480116e+02
1 2.71414071264653955e+01 4.36418428738878728e+00 2.77290309863290929e+00
8
Step 41000
1 -2.69231103640775160e+01 2.67539890795837021e+00 -6.62779953193914508e+01
1 -3.28321054976117281e+01 1.63881386126594393e+01 1.01631274124818077e+02
1 -8.80938836876837250e+00 -2.44304264627760119e+01 -1.18259005837879521e+01
1 3.14207707401824159e+01 -5.61662331918847713e+01 1.30417218942640858e+02
1 3.78312647971816673e+01 8.52431933292869246e+01 -1.64760763695098262e+01
1 1.46829460308630413e+01 2.54731074041536267e+01 -7.03034877580987150e-01
1 -6.93538655075730190e+01 6.71430304141079404e+01 8.89826937682152703e+01
1 -9.37581897051577684e+00 1.77252432601868897e+01 -5.67611988768644835e+01
8
Step 42000
1 -3.28055587446086161e+00 4.08263958949384858e+01 -1.01352785178589784e+01
1 -1.82405114075423960e+01 2.34056346293430728e+01 6.57442060583093451e+01
1 -5.67668436283512179e+01 -1.24987827563188407e+01 -8.11406729953844064e+01
1 -1.38750135327049051e+00 -1.49072052870527827e+01 1.49199913294208159e+02
1 3.99764526803227795e+01 5.49127982807194215e+01 -2.70935047738835486e+01
1 1.14434058997127195e+02 3.44391376785850269e+01 2.84968251633719341e+01
1 -4.29979157780658952e+01 3.49963339344347162e+01 -1.12062913777042628e+01
1 -3.44876357347305245e+01 2.72760009248905995e+01 -1.10317578281860477e+02
8
Step 43000
1 9.91283587336871008e+00 7.74990052214795782e+01 5.08191441527825489e+01
1 9.22012228464072381e-01 3.55091177305260857e+01 1.20469945869173962e+01
1 -7.41353056478937162e+01 -8.08810793323978428e-01 -1.39575479335750572e+02
1 -1.97077756534848625e+01 1.86401454311087811e+01 1.19440477301397991e+02
1 1.83519163064533082e+01 2.42684737076214185e+00 -1.66290717816156892e+01
1 1.51904477891569684e+02 4.25365981411483887e+01 4.70719801029052576e+01
1 1.39473670241703669e+01 -2.06096643445568546e+01 -1.15157681712775457e+02
1 -3.70548219455887278e+01 2.38611686424862341e+01 -1.31057220344328869e+02
8
Step 44000
1 6.41026151986968973e+00 9.16343144024518068e+01 9.47608960706135264e+01
1 2.38058437906687921e+01 4.79145346420374523e+01 -4.38248428201814306e+01
1 -5.13626719000997838e+01 6.38881157623809859e+00 -1.56097609635075003e+02
1 -2.27719662648472969e+01 2.87302291935929510e+01 5.50135931893266417e+01
1 -1.87019165848366775e+01 -4.84308630974800209e+01 2.11039538678464744e+01
1 1.34303055637628603e+02 4.71367748398116859e+01 5.30495866447404794e+01
1 8.06664657022667484e+01 -6.90705127568652983e+01 -1.74908599180269817e+02
1 -1.51839946612833039e+01 9.64085152918687571e-01 -1.06117917623129827e+02
8
Step 45000
1 -9.56584706021150843e+00 6.67383955970820466e+01 1.09487948912057860e+02
1 5.21220015510682444e+01 5.05464159352498825e+01 -8.84040902662476640e+01
1 -9.55213280018636646e-03 8.10525137991426270e+00 -1.14331106353686906e+02
1 -1.71873368257444561e+01 1.23196071631521118e+01 -1.82778040988853014e+01
1 -5.13683261014309238e+01 -7.55887314298982318e+01 7.34466830846276366e+01
1 8.08442231726136953e+01 4.29801147153810348e+01 4.68524721157905901e+01
1 1.26404224788099711e+02 -8.05762309460829584e+01 -1.73651249655410936e+02
1 2.06960341067042144e+01 -3.87211537298975017e+01 -4.20893077366888591e+01
8
Step 46000
1 -2.01528123012647420e+01 4.49111786841445237e+00 9.17117949025650745e+01
1 8.10696565701228735e+01 3.43512183551805705e+01 -1.11615068089813619e+02
1 5.39141307525030626e+01 5.56080684494387256e+00 -2.37686691558083183e+01
1 -1.06792343791997162e+01 -1.88369668144164493e+01 -7.52674573492861470e+01
1 -6.06427559776440503e+01 -6.98212926082225351e+01 1.13555229534733073e+02
1 9.75650818227371985e+00 2.58741239354665211e+01 3.18983530825589447e+01
1 1.33851681032941087e+02 -4.94059870478973835e+01 -1.18037897605346402e+02
1 5.30075171943014141e+01 -7.76348604646408234e+01 3.33126518336499018e+01
8
Step 47000
1 -9.25740831955030430e+00 -7.05878386050770530e+01 4.59249088037360593e+01
1 1.02119586532246061e+02 -3.34496859672409386e+00 -1.07717552448425636e+02
1 8.28000448604411616e+01 9.95385861015368745e-01 7.40341793712922112e+01
1 -8.08999819924400931e+00 -4.31755816041981930e+01 -1.03166741227465721e+02
1 -3.69943621940421679e+01 -3.36395297579685248e+01 1.14031111813563570e+02
1 -5.63367857499619262e+01 -7.23992794978874787e+00 1.15188735422198203e+01
1 9.63285659149793503e+01 9.34294650701454366e+00 -3.15646339333901480e+01
1 6.69451231590975055e+01 -9.33457083907141651e+01 8.81185560139666251e+01
8
Step 48000
1 2.25517574354347303e+01 -1.24357011951351055e+02 -1.20070308829664913e+01
1 1.07303819640344315e+02 -5.26990095273144519e+01 -7.62535273533805764e+01
1 7.03951453771230291e+01 -2.59822061090206224e+00 1.32487803802409218e+02
1 -1.14652123744430305e+01 -4.00351068406011237e+01 -9.91439987103829310e+01
1 1.48417538221863374e+01 1.80166109753230188e+01 5.60720468517806410e+01