8
Step 0
1  7.395189469585e+00   2.868572838882e+01  -2.182869978595e+01 
1  3.581768520100e+01  -5.040078629445e+01  -1.872152468762e+01 
1 -8.956057854562e+00   4.753479582038e+00   1.574679953468e+00 
1  1.977878075509e+01   3.607585693886e+01  -2.422827477529e+01 
1  7.002853144553e+01   7.647335132185e+01   2.165794942044e+00 
1  2.570063494682e+01  -1.914862205628e+01   1.732125061436e+00 
1  5.826318678326e+01  -1.353795077675e+01  -5.974027404880e+01 
1  5.370653369435e+01  -9.140397982714e+00  -5.549262301199e+01 
8
Step 1000
1  2.320375092538e+01   4.527712328428e+01  -2.517337191290e+01 
1  4.371318787034e+01  -5.098471375810e+01  -5.430364174563e+01 
1 -4.325568363715e+01  -6.363037552425e+00  -2.823766293913e+01 
1  2.260206105135e+01   1.374116157543e+01   1.465074873511e+01 
1  6.088008817125e+01   3.904873141316e+01  -1.420947380291e+01 
1  3.991093687532e+01   2.850917849941e+00  -3.205696983133e+00 
1  6.306478792140e+01  -2.185420159845e+01  -5.216681361652e+01 
1  1.136014866582e+01   3.016107194556e+00  -6.693952272971e+01 
8
Step 2000
1  2.435263428468e+01   5.211825262894e+01  -1.716065445733e+01 
1  2.761658506338e+01  -2.567750363540e+01  -6.229403141541e+01 
1 -5.424113463603e+01  -1.785542806419e+01  -4.363225422015e+01 
1  1.474877303151e+01  -1.031710264263e+01   5.301322626916e+01 
1  2.902791864352e+01  -4.835753926370e+00  -2.068019103003e+01 
1  4.078286135051e+01   2.416184393186e+01  -1.983959233847e+01 
1  4.915932441681e+01  -2.640887543133e+01  -2.580162595750e+01 
1 -3.106364889553e+01   1.322357612824e+01  -4.953459354344e+01 
8
Step 3000
1  1.360311202123e+01   4.420244218999e+01  -2.435902558183e+00 
1 -3.145040560451e+00   9.251025421804e+00  -4.516658386120e+01 
1 -4.415826853918e+01  -2.488522971593e+01  -3.957342214847e+01 
1  9.134522726900e-01  -2.593551719915e+01   7.610831693822e+01 
1 -8.472682862538e+00  -3.506702261435e+01  -1.453325898530e+01 
1  3.021708369176e+01   3.919947598438e+01  -3.860479218738e+01 
1  1.736157805118e+01  -2.717967618486e+01   9.453810818857e+00 
1 -5.790350308267e+01   1.171054277204e+01  -1.094768226545e+01 
8
Step 4000
1 -8.717164504752e-01   2.084994568518e+01   1.178824001512e+01 
1 -3.045982963014e+01   3.301956851386e+01  -1.566211089852e+01 
1 -2.311659048593e+01  -2.384337979570e+01  -1.949728080344e+01 
1 -1.193347699914e+01  -2.851566870728e+01   7.619312453672e+01 
1 -3.315680896975e+01  -4.367699360216e+01   4.625100242047e-01 
1  1.338775045957e+01   4.451431353211e+01  -4.623800331667e+01 
1 -2.252869941115e+01  -2.332396940787e+01   3.858737470813e+01 
1 -6.395397976037e+01  -3.846352398342e+00   2.894990461922e+01 
8
Step 5000
1 -1.001959868084e+01  -1.222906758242e+01   1.947795337753e+01 
1 -3.890104222118e+01   3.431264328742e+01   9.888812872404e+00 
1 -3.361967702749e+00  -1.351445737884e+01   6.495498729385e+00 
1 -1.845485773749e+01  -1.944807235472e+01   5.407387257634e+01 
1 -3.725513824451e+01  -3.439046102658e+01   1.578498369483e+01 
1 -3.097927549104e+00   3.886768408383e+01  -3.343222050689e+01 
1 -5.469010079121e+01  -1.315572561751e+01   5.065590676014e+01 
1 -5.203567051706e+01  -2.662407815424e+01   5.079415074889e+01 
8
Step 6000
1 -8.745113702290e+00  -4.365012372432e+01   1.851286110549e+01 
1 -2.458350791627e+01   1.567914012769e+01   2.085034674111e+01 
1  6.730726194378e+00   4.264387625794e+00   2.618353108000e+01 
1 -1.713472242441e+01  -3.954867495555e+00   1.867290505928e+01 
1 -2.500783941600e+01  -1.634760105373e+01   2.240341252432e+01 
1 -1.375832487834e+01   2.312843498815e+01  -5.124380034440e-01 
1 -6.742493599609e+01   4.435175759926e+00   4.377867864000e+01 
1 -2.880680057226e+01  -4.407078799817e+01   4.846555022720e+01 
8
Step 7000
1  1.901162468995e+00  -6.230218096098e+01   1.098911840520e+01 
1  3.997668756924e+00  -9.983282495247e+00   1.641057587602e+01 
1  5.827465535560e+00   2.467334537212e+01   3.164489236532e+01 
1 -9.981955139918e+00   1.164927879690e+01  -1.584211277579e+01 
1 -7.433107356250e+00   7.671962936817e-01   1.504384002153e+01 
1 -1.613118141217e+01   7.552611169433e-01   3.971434778038e+01 
1 -5.838744306647e+01   2.771067276048e+01   2.397621447300e+01 
1 -2.461532696324e+00  -4.507292651387e+01   2.817349979930e+01 
8
Step 8000
1  1.580463529590e+01  -6.299448524510e+01   1.417378456187e+00 
1  3.016833950592e+01  -2.730996137012e+01   3.112624743921e+00 
1 -1.416153314728e+00   4.115294552000e+01   2.239761106315e+01 
1 -6.094762663188e-01   2.232155999407e+01  -3.828217943350e+01 
1  4.568212847270e+00   1.042249846091e+01  -5.495587999367e+00 
1 -1.118845139226e+01  -2.230454382275e+01   6.776436043907e+01 
1 -3.339257094147e+01   5.060916151620e+01   1.872447636441e+00 
1  1.981016352150e+01  -2.535325173064e+01   2.919679755765e+00 
8
Step 9000
1  2.490816745241e+01  -4.718906855021e+01  -6.033488768273e+00 
1  3.954431225961e+01  -2.799947651085e+01  -9.771907267179e+00 
1 -7.786771038398e+00   4.738834944140e+01   4.596532510813e+00 
1  7.913967392055e+00   2.530915712926e+01  -4.519000887187e+01 
1  6.146923667301e+00   1.083989853066e+01  -3.181507014104e+01 
1 -2.740441085905e+00  -3.923676200224e+01   7.110777765514e+01 
1 -3.904423964759e+00   6.389911516688e+01  -1.282984759934e+01 
1  3.387837942985e+01   1.002215131985e+01  -1.479526437222e+01 
8
Step 10000
1  2.265882017480e+01  -2.162485846935e+01  -9.693242520200e+00 
1  2.864396695028e+01  -1.433273946145e+01  -1.517335023877e+01 
1 -7.521100899213e+00   3.869430316090e+01  -1.211108735495e+01 
1  1.423550033593e+01   1.960464875891e+01  -3.858704880417e+01 
1 -1.739377926087e-01   4.443201458297e+00  -5.203455939826e+01 
1  4.039076967741e+00  -4.471302399981e+01   5.005521231743e+01 
1  1.864351170936e+01   5.831170118103e+01  -1.630560535346e+01 
1  3.868704296844e+01   4.646772471742e+01  -1.952659944412e+01 
8
Step 11000
1  6.269043831197e+00   4.340174976474e+00  -1.084445931933e+01 
1  5.331365563988e+00   3.655386544794e+00  -1.121023011822e+01 
1  1.016305592429e+00   1.290616502151e+01  -1.955051719638e+01 
1  1.862112408400e+01   4.990751909423e+00  -2.311721390368e+01 
1 -7.546427964739e+00  -3.659195569372e+00  -5.444442253297e+01 
1  4.722191505672e+00  -3.625221025146e+01   1.641322173810e+01 
1  2.894500542684e+01   2.764602664253e+01  -1.111329281124e+01 
1  3.511298336238e+01   6.708943677006e+01  -1.366726000525e+01 
8
Step 12000
1 -2.119648427024e+01   2.354026614875e+01  -1.255510034713e+01 
1 -1.669343207267e+01   1.504871258326e+01  -1.001591722042e+00 
1  1.488665027468e+01  -2.674030055860e+01  -1.512502671375e+01 
1  2.185516755251e+01  -1.779289393034e+01  -4.531438394010e+00 
1 -9.808431226303e+00  -7.735791226960e+00  -3.090038270066e+01 
1 -2.434500363542e+00  -1.450777953068e+01  -1.281646364387e+01 
1  2.822391305759e+01  -2.489473659198e+01  -3.200261346404e+00 
1  2.500603047903e+01   6.238516591768e+01  -4.252495162826e+00 
8
Step 13000
1 -4.889041631856e+01   3.413327882603e+01  -1.712898368671e+01 
1 -2.737958494669e+01   1.505524399424e+01   9.780898737492e+00 
1  2.793814925226e+01  -6.757048607013e+01  -2.841755459771e+00 
1  2.348106030695e+01  -4.506221669438e+01   1.181685333242e+01 
1 -5.276640958348e+00  -3.910225280064e+00   1.851093442675e+01 
1 -1.473498870072e+01   1.605989863416e+01  -2.752631038066e+01 
1  2.105349040331e+01  -7.823168216590e+01   2.070752502909e+00 
1  1.064630165177e+01   3.282912883012e+01   1.258441704051e+00 
8
Step 14000
1 -6.232050081523e+01   3.804463899344e+01  -2.289018132643e+01 
1 -2.534392717781e+01   6.518479453021e+00   1.623200144802e+01 
1  3.324580932585e+01  -9.178686791671e+01   8.606976442949e+00 
1  2.054714749047e+01  -6.794067299126e+01   2.238449770870e+01 
1  2.997624823749e+00   7.651354826430e+00   7.470521863736e+01 
1 -2.455329934610e+01   4.650337387870e+01  -2.823762194262e+01 
1  1.256816920655e+01  -1.059632386320e+02   2.496022857953e+00 
1 -5.696726678756e+00  -1.023941415596e+01  -1.432667140153e+00 
8
Step 15000
1 -5.280839959176e+01   3.770473943323e+01  -2.358387777043e+01 
1 -1.511935981832e+01  -3.624930347628e+00   1.642575370151e+01 
1  2.560534986341e+01  -8.690354123555e+01   1.041250710851e+01 
1  9.021677261044e+00  -7.351483832365e+01   2.590783208490e+01 
1  1.007575780709e+01   2.197201165879e+01   1.074939264664e+02 
1 -2.337308792723e+01   6.572107507588e+01  -2.030639278627e+01 
1  6.630377725552e+00  -9.768844165781e+01  -1.035408791215e+00 
1 -2.195425611667e+01  -4.675578826381e+01  -1.172153264398e+01 
8
Step 16000
1 -2.354774360781e+01   3.419375670203e+01  -1.280465322551e+01 
1 -2.736241409155e+00  -9.003701660980e+00   1.128190387542e+01 
1  3.763507629199e+00  -5.027587593943e+01  -1.161488960745e+00 
1 -1.218592426358e+01  -5.019173441360e+01   2.295282513732e+01 
1  1.253873642494e+01   3.095166164337e+01   1.013464562556e+02 
1 -8.325892806363e+00   6.495963146473e+01  -9.496391275625e+00 
1  4.656830916470e+00  -5.999574273494e+01  -6.130502788891e+00 
1 -3.559348397978e+01  -6.100601927446e+01  -2.414695531157e+01 
8
Step 17000
1  1.079477121871e+01   2.714020826044e+01   1.006389719564e+01 
1  7.103287385748e+00  -6.719511669096e+00   3.124662724968e+00 
1 -2.701606537460e+01   5.228895973556e+00  -2.175747839718e+01 
1 -3.810098040670e+01   2.177420748141e+00   1.517280103114e+01 
1  9.828893931873e+00   2.737449908412e+01   5.954131978468e+01 
1  1.489933130169e+01   4.077520098825e+01  -2.988432264243e-01 
1  5.178444575494e+00  -1.395973913277e+01  -1.030996369967e+01 
1 -4.296194442728e+01  -5.048684447711e+01  -3.045065286850e+01 
8
Step 18000
1  3.388011314444e+01   1.563390861829e+01   3.730052539788e+01 
1  1.222034170048e+01   1.966363081464e+00  -5.491230330923e+00 
1 -5.468781354977e+01   5.218703792006e+01  -3.990536258146e+01 
1 -5.855254937175e+01   6.059100783015e+01   4.664968259309e+00 
1  3.518401564500e+00   9.247561772151e+00   4.272771578621e+00 
1  3.493726654952e+01  -1.320437000694e+00   4.922999628905e+00 
1  4.462876909976e+00   1.673811892327e+01  -1.169627037185e+01 
1 -4.019347313734e+01  -2.395044148518e+01  -2.379362288674e+01 
8
Step 19000
1  3.845609120770e+01  -6.612282654131e-01   5.617128795103e+01 
1  1.282796352509e+01   1.235012497561e+01  -1.229956824505e+01 
1 -6.618482109841e+01   7.179623594089e+01  -4.310251015282e+01 
1 -6.295141280636e+01   9.474112793319e+01  -6.462321371462e+00 
1 -3.874771027065e+00  -1.765455840777e+01  -3.422519759444e+01 
1  4.124309859312e+01  -4.441742765029e+01   6.172135833471e+00 
1 -1.600382403948e+00   2.588207443482e+01  -9.311060701657e+00 
1 -2.539716071112e+01   3.516479986896e+00  -3.199683600134e+00 
8
Step 20000
1  2.780358524677e+01  -2.036039164206e+01   5.616084211971e+01 
1  1.052231522380e+01   1.825300772219e+01  -1.555739042062e+01 
1 -5.412956817081e+01   6.377694223925e+01  -2.509557303685e+01 
1 -4.563806807333e+01   9.339332117856e+01  -1.625354311503e+01 
1 -9.799001514208e+00  -4.139314763099e+01  -4.551678427420e+01 
1  2.915481079946e+01  -7.003249860155e+01   5.211027655956e+00 
1 -1.484537802566e+01   2.236212982367e+01  -3.318067143621e+00 
1 -1.129347727448e+00   1.889821385541e+01   2.449317099750e+01 
8
Step 21000
1  1.170926215415e+01  -3.946376457887e+01   3.430666206943e+01 
1  7.006078744375e+00   1.494622694634e+01  -1.425040517704e+01 
1 -2.038856994345e+01   3.824211744168e+01   9.431285584105e+00 
1 -1.001234850970e+01   6.207441193034e+01  -2.286297245131e+01 
1 -1.236640796164e+01  -5.031848467556e+01  -3.861184195864e+01 
1  2.006733913326e+00  -7.019340771291e+01   4.286779569218e+00 
1 -3.263218843866e+01   1.635275900977e+01   4.836855713402e+00 
1  2.464788187854e+01   1.818539953610e+01   4.747991362376e+01 
8
Step 22000
1  4.600769515018e-01  -5.199987646880e+01  -2.126318301953e+00 
1  3.157156947367e+00   1.829158836495e+00  -8.293276040706e+00 
1  2.149973995394e+01   9.301250660239e+00   4.461753978279e+01 
1  3.000750798391e+01   1.752179512928e+01  -2.453484649735e+01 
1 -1.082880984795e+01  -3.906266020682e+01  -2.536605339881e+01 
1 -2.896873868229e+01  -4.784572969735e+01   4.795493720446e+00 
1 -4.773678529628e+01   1.315416717933e+01   1.266647969937e+01 
1  4.169277635733e+01   6.561955665296e+00   5.579793207965e+01 
8
Step 23000
1 -8.205928990913e-01  -5.223572670925e+01  -3.713730795840e+01 
1 -1.119571245191e+00  -1.640520427695e+01   1.282453889273e+00 
1  5.233582244084e+01  -1.148297484368e+01   6.309235733022e+01 
1  5.750897866420e+01  -1.978840123670e+01  -1.984972941110e+01 
1 -5.702775739617e+00  -1.111416121589e+01  -1.370802285572e+01 
1 -4.979027260051e+01  -1.415717906084e+01   6.541862668670e+00 
1 -5.107647451770e+01   1.331153450138e+01   1.741391270490e+01 
1  4.289403891688e+01  -5.648689187062e+00   4.606551283833e+01 
8
Step 24000
1  5.670085498452e+00  -3.718616378090e+01  -5.581325629096e+01 
1 -6.221278004799e+00  -3.131996224143e+01   1.225590724084e+01 
1  6.067726250451e+01  -1.977509615612e+01   5.718326354995e+01 
1  6.348806456610e+01  -3.890182334329e+01  -8.372825862737e+00 
1  1.498963121606e+00   2.127665650756e+01  -7.130182143743e+00 
1 -5.137655958550e+01   1.587675808802e+01   7.894683428117e+00 
1 -3.580514616796e+01   1.434162661766e+01   1.709205442007e+01 
1  2.756205423569e+01  -8.930303236006e+00   2.218286840227e+01 
8
Step 25000
1  1.230724758273e+01  -9.230991540543e+00  -5.269156607499e+01 
1 -1.183565739071e+01  -3.480400684445e+01   2.151560365036e+01 
1  4.705814769248e+01  -1.757004057762e+01   3.086851313192e+01 
1  4.877213908608e+01  -3.989002127118e+01   8.408306100791e+00 
1  8.819472308019e+00   4.312737179397e+01  -4.868705095232e+00 
1 -3.278605195934e+01   3.195658406686e+01   6.712716388277e+00 
1 -1.865833496109e+00   1.287189873773e+01   1.130363588555e+01 
1  2.323578924397e+00   5.206624085626e-01  -6.269435834333e+00 
8
Step 26000
1  1.081546760092e+01   2.265051195604e+01  -3.176003069959e+01 
1 -1.633975858793e+01  -2.311744922889e+01   2.580516655403e+01 
1  2.095599656402e+01  -1.001028857034e+01  -2.678904059777e+00 
1  2.148608824077e+01  -2.806975595066e+01   2.645254182376e+01 
1  1.443614315656e+01   4.551718792456e+01  -2.991602330434e+00 
1 -1.447272019186e+00   3.296870254636e+01   1.595222583807e+00 
1  3.984625461683e+01   6.795682644282e+00   1.515633313699e+00 
1 -2.110234970630e+01   1.900525894531e+01  -2.873245521604e+01 
8
Step 27000
1 -2.713976043240e+00   4.673362297684e+01  -3.797685267751e+00 
1 -1.710835837453e+01   7.064777111736e-01   2.266835203260e+01 
1 -3.994084786974e+00  -2.527175493538e+00  -2.840338019779e+01 
1 -6.290790214199e+00  -1.073745651647e+01   3.974529792493e+01 
1  1.700721310991e+01   2.882849737704e+01   2.768685738420e+00 
1  2.901235547476e+01   2.464299302220e+01  -7.118136152884e+00 
1  7.142824027991e+01  -3.407333651225e+00  -9.333622827715e+00 
1 -3.225670582228e+01   3.662429420682e+01  -3.913405413538e+01 
8
Step 28000
1 -2.488508262220e+01   5.507024721109e+01   1.867334179396e+01 
1 -1.170905627229e+01   2.701605479004e+01   1.140441324576e+01 
1 -1.745554897414e+01   1.271492091398e+00  -3.820504116088e+01 
1 -2.451296446603e+01   4.908366213027e+00   4.220041372453e+01 
1  1.572120503697e+01   1.857597000625e+00   1.360868366666e+01 
1  4.610076597333e+01   1.487587352065e+01  -1.704324782168e+01 
1  7.998791786898e+01  -1.470704201656e+01  -1.783122544814e+01 
1 -2.722323166647e+01   4.187391874439e+01  -3.735086244260e+01 
8
Step 29000
1 -4.543326934480e+01   4.608133766364e+01   2.804607863153e+01 
1  4.881406484266e-01   4.407558992578e+01  -6.049796682358e+00 
1 -1.736371477143e+01   5.302808136088e-01  -3.210862861433e+01 
1 -2.954628907329e+01   1.388910999602e+01   2.994646307144e+01 
1  1.021695141523e+01  -2.200530535694e+01   2.605808222833e+01 
1  4.491386559574e+01   9.256117293250e+00  -2.431387468789e+01 
1  6.289243789461e+01  -2.285021390548e+01  -2.129630488489e+01 
1 -9.531696170638e+00   2.709602210840e+01  -2.726857377528e+01 
8
Step 30000
1 -5.216383106210e+01   2.399182540365e+01   2.415248802778e+01 
1  1.701396188917e+01   4.428679065053e+01  -2.491057494907e+01 
1 -9.086635764802e+00  -3.182194987673e+00  -1.544375211346e+01 
1 -2.368231415499e+01   1.460769918252e+01   3.757069249733e+00 
1  6.597619347673e-01  -3.209065030585e+01   3.346312628791e+01 
1  2.860582166828e+01   8.575699436929e+00  -2.480768794497e+01 
1  2.742054193899e+01  -2.429799315094e+01  -1.865698057829e+01 
1  1.180012861121e+01  -7.388062735488e+00  -1.408029772686e+01 
8
Step 31000
1 -3.723639416583e+01  -2.583828174725e+00   1.238523313881e+01 
1  3.224196056893e+01   2.725102300275e+01  -3.884444242764e+01 
1 -1.264117166883e+00  -7.008263622429e+00   3.540964798313e+00 
1 -1.250376980924e+01   8.741163950312e+00  -2.873610730139e+01 
1 -1.186219757726e+01  -2.552247340250e+01   2.963442988199e+01 
1  6.046693267875e+00   9.285793383072e+00  -1.558716676500e+01 
1 -1.079353437109e+01  -1.776310364695e+01  -1.072981083904e+01 
1  2.686904572333e+01  -4.949021759903e+01  -1.824248287497e+00 
8
Step 32000
1 -1.883751851084e+00  -2.421752830264e+01   2.219660901723e-01 
1  3.912718210788e+01   9.744661158334e-02  -4.229508830371e+01 
1 -8.189022311783e-01  -8.210681539317e+00   1.679769447516e+01 
1 -2.030071682227e+00   3.283044116121e-01  -5.480097932528e+01 
1 -2.486286826231e+01  -7.361930372930e+00   1.258211132274e+01 
1 -1.245022164650e+01   6.308895878512e+00   3.579620305382e+00 
1 -3.667108669406e+01  -4.793747233346e+00   9.804025736600e-02 
1  2.972495255347e+01  -7.896664947198e+01   7.991678689588e+00 
8
Step 33000
1  4.020227373551e+01  -3.498174694779e+01  -6.501895391630e+00 
1  3.193301564247e+01  -2.510934729403e+01  -3.250852290653e+01 
1 -9.579366220438e+00  -5.342336704410e+00   1.973594497784e+01 
1  3.753559250619e+00  -5.772035851460e+00  -6.332119970724e+01 
1 -3.444116195729e+01   1.222833211035e+01  -1.310893305365e+01 
1 -2.055767627382e+01  -3.423873952414e+00   2.867937234820e+01 
1 -4.440247873249e+01   1.069494254705e+01   1.070142649801e+01 
1  1.974768900974e+01  -8.051912218848e+01   1.588764867362e+01 
8
Step 34000
1  6.890890540245e+01  -3.389464083544e+01  -5.945437957079e+00 
1  8.991952753636e+00  -3.791402276045e+01  -1.099939799399e+01 
1 -2.371595496845e+01   1.256233623233e+00   1.281665672019e+01 
1  4.064612814058e+00  -5.820533039019e+00  -4.972455949256e+01 
1 -3.603073368111e+01   2.335712358947e+01  -3.707668678055e+01 
1 -1.856076087600e+01  -1.862903669757e+01   5.139945592292e+01 
1 -3.657608270408e+01   2.390438559587e+01   1.831163493122e+01 
1  1.690107452987e-01  -5.062069956233e+01   2.261935177574e+01 
8
Step 35000
1  7.163573463026e+01  -2.383886101893e+01  -2.952845575573e-01 
1 -2.430460812539e+01  -3.475933376555e+01   1.589315298355e+01 
1 -3.543357969856e+01   9.694995662346e+00   1.130600379042e+00 
1  9.150364609759e-01   1.091429103710e+00  -1.779171654831e+01 
1 -2.583146042499e+01   2.155597771469e+01  -4.836452074074e+01 
1 -1.193516121848e+01  -3.359861684554e+01   6.216470878220e+01 
1 -2.044055955014e+01   3.100175889147e+01   2.138229472551e+01 
1 -2.389815628404e+01  -5.624027465537e-01   2.765957069076e+01 
8
Step 36000
1  4.824068408289e+01  -9.783910675668e+00   5.968155086138e+00 
1 -5.508938818127e+01  -1.947863685840e+01   3.892810604352e+01 
1 -3.584594104679e+01   1.726493947730e+01  -8.162793149165e+00 
1 -2.360987872366e+00   1.217946700063e+01   1.963874276813e+01 
1 -2.943953829586e+00   9.262319021761e+00  -4.098942900878e+01 
1 -7.431913099845e+00  -4.049477388457e+01   5.412037495050e+01 
1 -4.665655619066e+00   3.017517668043e+01   1.977206422870e+01 
1 -4.626266155405e+01   4.411459135158e+01   2.887724863684e+01 
8
Step 37000
1  1.020277031384e+01   3.313876968605e+00   8.585068767651e+00 
1 -6.941298687611e+01  -7.697180304053e-01   5.007194213005e+01 
1 -1.785426111484e+01   2.129636784842e+01  -9.703037637292e+00 
1 -2.907737414400e+00   2.150896221713e+01   4.655844587978e+01 
1  2.801497676034e+01  -6.189330582897e+00  -1.657781536669e+01 
1 -8.795805461418e+00  -3.279207123641e+01   2.607268037708e+01 
1  4.405809666478e+00   2.146182181451e+01   1.422421788998e+01 
1 -5.925050610930e+01   6.335592240221e+01   2.334974949456e+01 
8
Step 38000
1 -2.357801140733e+01   1.244813518431e+01   5.631066485337e+00 
1 -5.946522369559e+01   1.237809683161e+01   4.557717454375e+01 
1  1.937913111885e+01   1.977607931294e+01  -2.812072250597e+00 
1  2.955167237597e-01   2.224983209929e+01   5.375759797755e+01 
1  5.648423670110e+01  -1.687823074845e+01   1.488657838165e+01 
1 -1.459737956638e+01  -8.567551968116e+00  -1.443799673846e+01 
1  5.316058573737e+00   5.973961323820e+00   5.681290194615e+00 
1 -5.480617682803e+01   5.555490351091e+01   8.827889971036e+00 
8
Step 39000
1 -3.929783886039e+01   1.730090353570e+01  -1.740488720251e+00 
1 -2.649466298307e+01   1.527002480326e+01   2.695940407534e+01 
1  6.357204900878e+01   1.162004156516e+01   8.036787994570e+00 
1  6.023663271616e+00   9.964599629234e+00   4.185966969004e+01 
1  7.048112678539e+01  -1.848862837131e+01   3.877318079022e+01 
1 -1.932868219627e+01   2.609178161244e+01  -5.234415282434e+01 
1  1.544276720827e+00  -1.446422349322e+01  -4.931600389747e+00 
1 -2.932830379289e+01   3.111819870453e+01  -1.442864087822e+01 
8
Step 40000
1 -3.641015677403e+01   1.940491089301e+01  -1.009305256864e+01 
1  1.679384785009e+01   9.177219242196e+00   9.655045538568e-01 
1  9.312550824640e+01  -3.078599289670e+00   1.560130932166e+01 
1  1.143335248581e+01  -1.431192670395e+01   1.918639396834e+01 
1  6.215244575121e+01  -1.168715814452e+01   4.428948363004e+01 
1 -1.706284687255e+01   5.691753550140e+01  -7.451405454886e+01 
1 -8.981263423801e-01  -3.665186993076e+01  -1.623427162572e+01 
1  9.913490176761e+00   4.783379023518e+00  -4.165892945060e+01 
8
Step 41000
1 -2.440057751835e+01   2.035522433735e+01  -1.546289249227e+01 
1  5.069655793495e+01  -2.298278229378e-01  -2.258418381937e+01 
1  9.273135925102e+01  -2.240165669566e+01   1.416898211877e+01 
1  1.345242369202e+01  -4.250256429379e+01  -2.325069600772e+00 
1  3.078378370784e+01  -9.162524132930e-01   2.972842448180e+01 
1 -5.464148783314e+00   6.922494432435e+01  -7.589583033854e+01 
1  2.377686334718e+00  -5.520390475514e+01  -2.566000310186e+01 
1  4.576248675496e+01  -1.168162575205e+01  -6.333633832950e+01 
8
Step 42000
1 -1.458161899458e+01   2.022432410122e+01  -1.506814605969e+01 
1  6.218336701316e+01  -6.331727680236e+00  -3.552179492542e+01 
1  5.983233764923e+01  -4.180609472514e+01   2.996526050377e+00 
1  1.024615768600e+01  -6.200450136042e+01  -1.350946543038e+01 
1 -1.387212656946e+01   8.177602429969e+00   2.836306083071e+00 
1  1.226251427481e+01   5.590734097809e+01  -5.780289298606e+01 
1  1.099466990827e+01  -6.315111176099e+01  -2.946244262344e+01 
1  6.357861156262e+01  -1.395136738251e+01  -6.875909118395e+01 
8
Step 43000
1 -1.249931607040e+01   1.714693789611e+01  -8.242240773423e+00 
1  5.049789846542e+01  -4.854408728241e+00  -3.493191862098e+01 
1  7.254735036129e+00  -5.443345077190e+01  -1.290690130653e+01 
1  2.136344637199e+00  -6.182687750332e+01  -1.248308848635e+01 
1 -5.292178320031e+01   1.151745528917e+01  -2.211506117554e+01 
1  2.867593456410e+01   2.061612146407e+01  -2.614034952993e+01 
1  1.987135217003e+01  -5.398863644277e+01  -2.421903644248e+01 
1  5.951276791119e+01  -4.846601941473e+00  -5.132956747174e+01 
8
Step 44000
1 -1.610072572989e+01   8.508314631414e+00   3.374259303987e+00 
1  2.436605243856e+01   4.423896838202e+00  -2.348270743865e+01 
1 -3.951042294704e+01  -5.327582988532e+01  -2.507907354038e+01 
1 -8.223985985926e+00  -3.681445898516e+01  -4.438401486162e+00 
1 -7.060101941042e+01   8.154164628112e+00  -3.209587984073e+01 
1  3.612740867371e+01  -2.052834369547e+01   9.451875792878e+00 
1  2.220383399849e+01  -2.524373893810e+01  -9.400614145988e+00 
1  3.879828750664e+01   7.871096068675e+00  -1.379475599759e+01 
8
Step 45000
1 -1.862675079940e+01  -6.588596140725e+00   1.623225279406e+01 
1 -2.134911747938e+00   1.749728355528e+01  -7.578021820085e+00 
1 -6.293435650559e+01  -3.443855482022e+01  -2.618362606864e+01 
1 -1.656696338722e+01   9.128158009518e+00   2.008252147540e+00 
1 -6.216866652402e+01   2.126291756553e-01  -2.224851116362e+01 
1  3.081976113318e+01  -4.695234418418e+01   3.904421104957e+01 
1  1.366300259485e+01   1.611538768615e+01   1.060039996074e+01 
1  1.194305916065e+01   1.513794081693e+01   2.866533489729e+01 
8
Step 46000
1 -1.273950435138e+01  -2.516763976184e+01   2.598565671595e+01 
1 -1.703903548409e+01   2.732719666619e+01   5.743435231284e+00 
1 -6.242091913335e+01  -9.086995859297e-01  -1.402676200714e+01 
1 -1.855237085762e+01   5.872788830649e+01   8.465867864437e-03 
1 -3.278861493209e+01  -8.430347077924e+00   2.394117952182e+00 
1  1.460227064495e+01  -4.815439025635e+01   5.638173524575e+01 
1 -4.339556826580e+00   5.387481570095e+01   2.727091282013e+01 
1 -1.019225505917e+01   1.115911965787e+01   5.716701671453e+01 
8
Step 47000
1  5.043881091565e+00  -4.052896906824e+01   2.886924528492e+01 
1 -1.711502977854e+01   2.651156786321e+01   1.188485182801e+01 
1 -4.596882330988e+01   3.598077343675e+01   6.838992162127e+00 
1 -1.148290795348e+01   8.961741747909e+01  -1.178128842225e+01 
1  3.752348023514e+00  -1.417901025627e+01   2.852757288316e+01 
1 -5.769432525465e+00  -2.786268024832e+01   5.933383078297e+01 
1 -2.410509324552e+01   7.384381172718e+01   3.224803361192e+01 
1 -2.159602521571e+01  -3.372590269300e+00   6.257541547082e+01 
8
Step 48000
1  3.095735816369e+01  -4.494307769015e+01   2.283014541102e+01 
1 -7.883477385946e+00   1.100665646501e+01   1.028318264100e+01 
1 -2.358918273701e+01   6.237618379731e+01   2.655858363945e+01 
1  4.207585838286e+00   9.024184101988e+01  -2.831279504073e+01 
1  3.109216073111e+01  -1.509145052625e+01   4.107397441583e+01 
1 -2.193492380867e+01  -9.012587963640e-01   4.838661153372e+01 
1 -3.512996980259e+01   7.112302817214e+01   2.200708059688e+01 
1 -2.244212044110e+01  -2.124789924290e+01   4.754335044931e+01 
8
Step 49000
1  5.448611485317e+01  -3.291750404384e+01   8.491970234715e+00 
1  1.351163333796e+00  -1.587906208468e+01   4.055052724325e+00 
1 -3.266119199885e+00   6.970877149779e+01   3.468469390045e+01 
1  2.379856503272e+01   6.096364455955e+01  -3.975684518636e+01 
1  4.021093534157e+01  -1.109971826777e+01   3.129679654946e+01 
1 -2.814216031861e+01   1.583288031975e+01   2.619705194574e+01 
1 -2.974558985905e+01   4.862342350147e+01   4.059242851024e-01 
1 -1.684356322867e+01  -3.267794633024e+01   2.256206182881e+01 
8
Step 50000
1  6.363323056940e+01  -4.094933547513e+00  -1.036384607441e+01 
1  3.901682712199e+00  -4.264368511099e+01  -1.812166943173e+00 
1  1.149404389258e+01   5.649509312365e+01   2.500760166844e+01 
1  3.882195785997e+01   1.230833324869e+01  -3.549893873158e+01 
1  3.182320089914e+01  -3.633178201790e+00   1.021050086167e+00 
1 -2.354202962577e+01   1.406499381625e+01  -1.937951995022e+00 
1 -7.413655091693e+00   1.550016312659e+01  -2.185034941420e+01 
1 -9.854243381177e+00  -3.074387856088e+01   4.386730693184e-01 
8
Step 51000
1  5.098730992628e+01   3.329175721385e+01  -2.779867074463e+01 
1 -8.788938751228e-01  -5.606598691508e+01  -2.733695200503e+00 
1  2.103458707030e+01   2.765988719513e+01  -1.528471233077e+00 
1  4.030311355813e+01  -3.401649181760e+01  -9.137708390556e+00 
1  1.306034559172e+01   4.990412719074e+00  -3.566038885878e+01 
1 -1.184995462477e+01  -2.935244473484e+00  -2.887504376993e+01 
1  2.307581897846e+01  -1.589047937217e+01  -3.238616377744e+01 
1 -5.248414225102e+00  -1.464462670344e+01  -1.054775075779e+01 
8
Step 52000
1  1.812446703823e+01   6.300094178796e+01  -3.803652877804e+01 
1 -8.968487466961e+00  -4.917043618207e+01   3.555889258906e+00 
1  2.690412748661e+01  -6.260605564913e+00  -3.437884948006e+01 
1  2.301958263794e+01  -5.833183899565e+01   3.465297296896e+01 
1 -6.418110467550e+00   1.224714969530e+01  -5.871848655383e+01 
1  7.417833850531e-01  -2.330738379991e+01  -4.793615232244e+01 
1  4.644349175113e+01  -3.612906715018e+01  -2.407949681010e+01 
1 -4.345752784865e+00   9.592881121693e+00  -1.004110164953e+01 
8
Step 53000
1 -2.235083351912e+01   7.004715414657e+01  -3.748859650707e+01 
1 -1.516402732766e+01  -2.416142544736e+01   1.549370749140e+01 
1  2.955361542821e+01  -3.355751476537e+01  -5.614261380153e+01 
1 -1.017534775189e+01  -5.664136068494e+01   7.553575219138e+01 
1 -1.852735153215e+01   1.604070988797e+01  -5.535225187058e+01 
1  8.628690238120e+00  -3.349809992826e+01  -5.467810736462e+01 
1  4.963440569221e+01  -4.195138017081e+01   8.240675816730e-01 
1 -5.811573066033e+00   3.144701056304e+01  -4.041525582046e+00 
8
Step 54000
1 -5.324578171996e+01   4.867604295247e+01  -2.577248308743e+01 
1 -1.589589759914e+01   8.196116178143e+00   2.689929352327e+01 
1  2.770384190303e+01  -4.727016451439e+01  -5.289246570127e+01 
1 -4.581183046881e+01  -3.691469964270e+01   9.035617090243e+01 
1 -1.961470207746e+01   1.521302905416e+01  -2.585730350271e+01 
1  9.380106739897e+00  -2.594927795727e+01  -4.732992022700e+01 
1  2.826595340212e+01  -3.522029967907e+01   3.009489879553e+01 
1 -6.429918455668e+00   4.152535777053e+01  -7.094373062909e-01 
8
Step 55000
1 -6.406697584149e+01   6.192614908732e+00  -6.080270064142e+00 
1 -1.053475830174e+01   3.406194457335e+01   2.890789480599e+01 
1  1.945575154749e+01  -4.662616098495e+01  -2.207174483207e+01 
1 -6.644340238700e+01  -1.195272452619e+01   6.893823131588e+01 
1 -1.108664807693e+01   9.873800824631e+00   1.540079137061e+01 
1  4.540158595855e+00  -2.362602199437e+00  -2.718724121811e+01 
1 -1.037600598154e+01  -2.106467977961e+01   4.724888153232e+01 
1 -2.671242593858e+00   3.601107094486e+01  -5.763291599177e+00 
8
Step 56000
1 -5.403199264243e+01  -3.595678300632e+01   1.544159617841e+01 
1 -1.308703702832e+00   4.484335672401e+01   1.528127368062e+01 