8
Step 0
1  7.395189469585e+00   2.868572838882e+01  -2.182869978595e+01 
1  3.581768520100e+01  -5.040078629445e+01  -1.872152468762e+01 
1 -8.956057854562e+00   4.753479582038e+00   1.574679953468e+00 
1  1.977878075509e+01   3.607585693886e+01  -2.422827477529e+01 
1  7.002853144553e+01   7.647335132185e+01   2.165794942044e+00 
1  2.570063494682e+01  -1.914862205628e+01   1.732125061436e+00 
1  5.826318678326e+01  -1.353795077675e+01  -5.974027404880e+01 
1  5.370653369435e+01  -9.140397982714e+00  -5.549262301199e+01 
8
Step 1000
1 -2.997831216185e+01   8.572909039293e+00  -6.277008944707e+01 
1 -3.373093804861e+00  -2.640248695951e+01   5.203051673749e+00 
1  4.284827166144e+01  -2.439886369244e+01   4.502159551847e+00 
1  5.736946273458e+01  -5.463957774901e+00  -3.676686547772e+01 
1  2.735963840776e+01   2.588471119694e+01   1.127311029793e+01 
1  5.924362486950e+00  -4.237336626642e+01   9.388977300066e+00 
1  4.827659774115e-01  -4.179428784311e+00  -3.321448434433e+01 
1 -3.623486893801e+01   2.557634900863e+01  -3.458787178676e+01 
8
Step 2000
1  1.837372627753e+00  -1.028309407449e+01  -4.349168934067e+01 
1  2.525207698571e+01  -1.243451638436e+00  -5.100331099541e+01 
1 -3.170789437996e+01   1.431811183130e+01   5.161544797179e+00 
1  2.607036132433e+00   6.912493045445e+00  -3.052915167719e+01 
1 -1.982976690404e+01  -4.763433236565e+01  -5.178554609230e+01 
1 -8.449146885520e+00  -1.992223535619e+01   2.746824754657e+01 
1  9.608543509850e+00  -3.794145683900e+00  -1.049562959711e+01 
1 -6.897850499689e-01  -5.135038084968e+01  -8.298814127450e+00 
8
Step 3000
1  1.131365364786e+01   3.511786189413e+01  -2.386305782981e+01 
1 -1.042863598094e+01  -4.217965874942e+01   1.972913285993e+01 
1 -4.677433603651e+01   3.815210256420e+01  -5.155558265469e+01 
1  4.473737141696e+01   1.442060103709e+01   5.536855532871e+00 
1  1.044629669019e+01  -5.056854012665e+01  -3.089760771377e+01 
1 -1.854777305262e+01   2.025022863382e+01   2.476298320216e+01 
1 -1.732374330835e+01  -2.172470809519e+01  -2.196904955565e+01 
1  3.231502829396e+01  -1.779895667802e+01  -9.659914301788e+00 
8
Step 4000
1 -4.733416278618e+01  -3.683946444992e+00   2.757903948295e+01 
1 -1.517094782102e+01   6.973096939258e+00  -9.758978395979e+00 
1  5.747015016548e+00   2.762356387200e+01  -7.894813885367e+01 
1  1.386737231825e+01  -1.436565416539e+01  -1.806163450565e+01 
1 -1.449446560948e+01  -7.508298465718e+00   1.865055895152e+01 
1  3.264483647501e+01   6.788170683940e+00   4.218054467003e+01 
1  1.853666294007e+00   2.626065837016e+01   1.591054010990e+01 
1  3.702212035173e+01  -1.860808914376e+01  -9.743665765311e-01 
8
Step 5000
1 -9.134926404215e+01  -8.293260023560e+01  -2.877841608743e+01 
1 -6.675253786772e+01   9.125296866105e+01  -5.437300749484e+00 
1 -6.150155378677e+00   3.216843042964e+01   3.001022725238e+01 
1  6.991717925587e+00   3.393515355543e+01  -1.601650957130e+01 
1  1.827403008980e+01   4.692311257337e+00   2.542324467389e+00 
1  1.991876874115e+01  -9.087495035069e+00   4.645339846187e+01 
1 -8.345458293286e+01   8.102553372812e+00   4.503024538447e+01 
1 -3.800772256717e+01   1.213646949951e+01  -1.936544414833e+01 
8
Step 6000
1  5.627475572711e+00   9.327222417984e+00  -5.261557311419e+01 
1  3.969613534846e+01   5.449541205813e+01  -9.223203069821e+00 
1 -3.543950802382e+01  -5.361440200978e+00   9.459863693808e+00 
1 -1.453166661483e+01   1.816160146926e+01   6.154534314393e+00 
1 -2.560034686588e+01   6.950592592482e+01   1.201114273265e+01 
1  2.680825148133e+01  -3.958492874074e+01   2.426477717149e+01 
1 -2.843055116689e+01  -1.584012066729e+00  -9.988337172393e+00 
1 -1.757677886795e+01  -3.812173071149e+01  -5.701616796724e+01 
8
Step 7000
1 -3.947063577586e+01  -2.531039249169e+01   2.825515150701e+01 
1  1.359218252462e+01  -2.479446113431e+01  -3.197338640430e+01 
1 -4.583894138795e+01  -2.522175888259e+01   1.747894172458e+00 
1  1.114454780782e+01  -1.626259438276e+01   7.260418313101e+01 
1 -4.503789264381e+01   3.424364760977e+01  -1.870095115725e+01 
1 -1.402082403943e+01  -2.002355632243e+01  -3.620210665041e+01 
1 -8.164360592944e+00   6.099904165285e+00  -5.047521033861e+00 
1 -1.013868531908e+01  -5.357611782577e+01  -1.979683484070e+01 
8
Step 8000
1 -2.451029710778e+01   3.776647341546e+01  -4.362668409715e+01 
1 -2.894427965408e+01  -4.263385190099e+01   3.386288948480e+01 
1  3.374146348479e+01   1.968130187741e+01  -5.216593578443e+01 
1  1.377162782995e+01   1.213674358623e+01   2.261163777278e+01 
1  1.791010797602e+01   4.864858860476e+01   2.556251652151e+01 
1 -3.264732935704e+01   2.882991799713e+01  -9.547616236891e+00 
1  5.050637343297e+01  -1.770865071868e+01   4.518295719478e+01 
1 -2.267083665312e+01   3.575343469249e+01   3.663821700357e+01 
8
Step 9000
1  2.255311145474e+01  -4.080633990722e+00  -3.974414208303e+01 
1  2.065669468825e+01  -3.477615332499e+01  -1.862751511550e+01 
1  2.892356868246e+01   2.646477336867e+01   4.580865967034e+00 
1  4.760831118949e+00   2.313646673431e+00   1.800725316715e+01 
1 -8.974958521127e+00  -1.585053542002e+01   1.302481972591e+01 
1 -6.828272655263e+01   1.223538762107e+01  -1.536707047605e+01 
1 -1.184734960779e+01  -5.468078232560e+01  -1.651929451070e+01 
1 -6.566413290236e+01  -2.289522857033e+01   1.452141072820e+01 
8
Step 10000
1 -1.333977529236e+01  -4.019487051635e+01  -3.334774101446e+01 
1 -3.027054306260e+01   3.258817045668e+01  -2.959143261776e+01 
1  1.723134503724e+01  -3.512410961569e+01   2.739426123341e+01 
1 -1.967705847399e+01   3.626358064176e+01  -8.925694343121e+00 
1  5.037186641139e+00  -3.070633318627e+01  -1.899135533572e+01 
1  1.846951318673e+01   3.701203449721e+01  -8.666944596669e+00 
1 -5.906181456071e+01  -1.379361350434e+01  -2.297087275005e+00 
1 -4.379741114873e+00  -5.192007023649e+01   6.111076412170e+01 
8
Step 11000
1 -4.577626007525e+00   3.563761475408e+00  -1.126901892341e+02 
1  1.711248974388e+00  -1.829093391985e+01   3.068672219521e+01 
1 -2.917506895893e+01  -1.965626383610e+01   1.592177825115e+01 
1  5.270349689506e+01   7.387773421688e+00  -4.973125296386e+01 
1  3.376608596022e+00  -1.344822484875e-01  -1.264281493020e+01 
1 -2.629201763470e+01   2.664005669127e+01  -3.235704865590e+01 
1 -4.256224038171e+01   3.156655453528e+01   5.147874034513e+01 
1  2.322633507617e+00  -2.183597617765e+01  -5.012645629271e+00 
8
Step 12000
1 -5.414912582749e+01   1.305272547665e+01  -2.098256848969e+00 
1 -2.669075989843e+01  -1.452650080668e+01   8.972868996801e+00 
1 -4.953099103395e+01   3.060134407988e+01  -1.129678174695e+01 
1  9.076548006682e+01   1.873417900697e+01  -3.965550914224e+01 
1  4.941263733607e+00  -4.474892905029e+01  -7.536521311661e+00 
1  7.715871979115e+00  -1.244848339731e+01   3.443802745366e+01 
1 -1.307938882029e+01   1.519594203977e+01  -1.724785297511e+00 
1 -2.511830870050e+01   6.129884552262e+00  -1.245212688663e+01 
8
Step 13000
1  1.238482094469e+01  -6.531817649204e+00  -6.118131665410e+01 
1  4.777644754453e+01   1.961404168291e+01   3.071237329255e+01 
1  1.163541259172e+01  -2.732252309186e+01  -1.141010393697e+01 
1  4.782071329480e+01  -6.800714909119e+01  -1.051286890397e+02 
1  4.619115493001e+00  -1.891749676041e+01   1.342445906980e+01 
1  3.553365619069e+00  -4.503044630090e+01  -4.027307930599e+01 
1 -1.963960294192e+01  -1.237932890400e+01  -5.610947819147e+01 
1 -4.924781714384e+01  -2.555888770516e+01  -1.667339312202e+01 
8
Step 14000
1  5.168018030316e+01   4.792027006926e+00  -3.125773434581e+01 
1 -4.086322281075e+01   9.670073753813e+00   2.848425335199e+01 
1  1.313669228072e+01  -1.689260990962e+01  -3.203883094217e+01 
1  9.749815427837e+00   8.626744804843e+00  -3.730255607817e+01 
1  4.408468071521e+01  -3.729939846997e+00   2.383875832298e+00 
1 -3.024635774871e+01  -2.553118576601e+01  -5.792386970615e+01 
1  8.208080268995e+01  -3.589255206228e+01  -1.550255022311e+01 
1 -5.533990289300e+01  -1.352846161718e+01   5.046874091686e+01 
8
Step 15000
1 -2.185241872212e+01   3.239374230913e+01  -3.880165229977e+01 
1 -1.803723843555e+01   1.000657225487e+01  -1.457301556950e+01 
1 -5.036554618364e+00  -1.674599788329e+01  -2.339489231033e+01 
1 -1.002242595245e+01   5.662838066674e+00  -5.028273912101e+01 
1  2.554391171537e+01  -4.712088166642e+00  -8.538300878696e+01 
1 -1.033639961545e+02   1.867496906829e+01  -5.297138444905e+01 
1  2.933655725746e+01  -1.845531494453e+01   8.854080354704e-01 
1  7.763086186650e+00   4.459509345766e+01   6.036502014597e+01 
8
Step 16000
1  3.428034926595e+00  -1.207800285297e+01   3.275846873188e+01 
1  1.429695995865e+01   1.252148317601e+01   8.332509870736e+00 
1  8.542174203184e+00   4.112703571781e+01  -5.007663438778e+01 
1  6.212491257550e+01  -3.400491336542e+01  -3.943972345320e+01 
1 -1.727438863503e+01  -1.844667966543e+01  -2.518371762159e+00 
1  3.715899513059e+01   1.618083391121e+01   5.839564039951e+00 
1  1.671444348009e+01  -3.824674084538e+01   2.485460610264e+01 
1  2.774339127496e+01  -2.668221985631e+01  -3.270225481452e+01 
8
Step 17000
1 -2.051294411323e+01   2.314573851466e+00  -9.199005458356e+01 
1 -9.472668009510e+00  -7.136661588352e+00   4.954905536311e+01 
1  7.873433851203e+01   2.168799400646e+01  -4.240386728549e+01 
1  3.616424262692e+01  -4.673172057897e+01   3.073386781759e+00 
1  3.327360547747e+01   6.378147836148e+00  -3.659776383886e+01 
1  1.383568730393e+02  -1.451943839801e+01   8.097981817102e-01 
1  2.388425267466e+01  -1.599467535133e+01   6.354672530223e+01 
1  2.000700267010e+00  -4.328746514441e+01  -6.290450890866e+00 
8
Step 18000
1 -5.621693406078e+01   3.008253999309e+00  -1.525177738864e+00 
1 -1.672694470002e+01  -4.572955032051e+01   3.421868967616e+01 
1  5.575552252772e+01  -2.350155751259e+01  -1.365814801117e+01 
1 -5.071034610033e+01   1.278722924767e+01  -1.699874743724e+01 
1  5.150933691252e+01   5.075102759802e+00  -4.891574085593e+01 
1  2.910793014757e+01   6.774075568222e+01   5.481413315721e+01 
1 -4.258397748084e+01  -5.938280453998e+00   5.371766170601e+01 
1 -4.410872299798e+01  -5.363025736791e+00   2.030825532243e+01 
8
Step 19000
1 -9.526641425956e+00   8.053677913015e+00  -2.620616934165e+01 
1 -1.275025675845e+00  -4.112531292363e+00  -3.331268889812e+01 
1  1.347697858058e+01  -4.780399353030e+00  -6.025709419815e+01 
1  2.866132699603e+01   1.491522301568e+01  -4.281695955450e+01 
1  3.371825686613e+01   1.841059115492e+01  -4.985915829363e+01 
1 -1.796027115914e-01   5.292976322364e+01   1.682400386204e+01 
1 -4.402399544901e+01  -6.438583694292e+00  -6.687921184198e+00 
1 -1.275910338644e+01   2.987506713821e+01  -2.077246540760e+01 
8
Step 20000
1 -5.940000000597e+00   2.023595488238e+00   2.990743312547e+01 
1  1.100273870166e+00   8.343333185181e+00   3.927122883340e+01 
1 -3.766553293681e+01   4.993151548887e+01   6.025021252048e+00 
1  2.936500469091e+01  -9.206891670007e+01  -4.797914785828e+00 
1  5.651383193937e+01  -1.577212347059e+01   3.215042842549e+01 
1 -2.416860612975e+01  -3.786124186599e+01   2.654768009855e+01 
1  4.915762308246e+01  -7.468902559237e+00   2.262027917906e+01 
1  9.224941231546e+00  -2.288951888643e+01   3.456527196779e+01 
8
Step 21000
1 -1.744228791328e+01  -3.628302306171e+01   2.478464586775e+01 
1  2.811653366773e+01   1.530634327975e+01  -1.791630865385e+01 
1 -4.957942767916e+01   6.643701734588e+00   2.586210078848e+01 
1  7.327383445850e+01   1.571158729020e+00   1.521691150974e+01 
1 -1.566583010276e+01  -3.310343149935e+01   4.966640557475e+00 
1 -2.884924553996e+01   2.709340660565e+00   7.126280021427e+00 
1  9.372028778095e+00  -1.203093160410e+01   4.554266302146e+01 
1 -7.599010641604e+01  -2.288898141032e+01   2.305628113243e+01 
8
Step 22000
1  2.066987042092e+01  -2.453239158029e+01  -4.598648957928e+01 
1  3.522966610635e+01  -9.797908130513e-01  -2.059341822034e+01 
1 -3.340424877984e+01  -1.085790449208e+01  -9.357452358178e+00 
1  1.762915962053e+01  -2.366134422646e+00   1.198257339734e+01 
1 -1.600146201266e+01   1.310958924993e+01   4.595488792221e+01 
1 -7.703505830029e+00   3.778661331697e+01   2.308722665871e+01 
1 -4.925915375488e+00   5.380305412067e+01   2.832602348827e+01 
1 -2.888398088535e+01   3.096975943300e+01  -4.989299380298e+01 
8
Step 23000
1  2.319762403594e+01  -4.491214093179e+00  -6.294548755875e+00 
1 -1.589803288418e+01   4.248182883470e+00  -7.841296083369e+00 
1 -6.700572512283e+00   3.076553162697e+01  -3.519994621723e+01 
1 -2.869244346256e+01  -4.545948679292e+01   8.114479794833e+01 
1  3.529962480213e+00   2.502559989623e+01   3.629717990824e+01 
1 -5.728454564776e+01  -1.710000583648e+01   4.222592856614e+01 
1 -2.957206923992e+01   8.100413833525e+01  -1.152780397048e+01 
1  6.363800523012e+00   1.202122985621e+01  -5.718049927466e+01 
8
Step 24000
1 -3.739298829958e+01   4.952092688416e+01   5.387449744905e+01 
1 -4.347825300386e+01  -1.385773168980e+01  -6.529085595721e+00 
1 -4.149499865041e+00   5.638392703482e+01  -2.464119736909e+01 
1  2.878009001271e+01   2.884694466053e+01   5.926224618038e+01 
1 -1.926910248886e+01   5.186156895417e+01   2.580922026961e+01 
1  3.180182280686e+01  -9.233684569562e+00   2.970524743090e+01 
1  7.775079656212e+00   1.706872124724e+01  -1.485956914639e-01 
1 -1.243545376807e+01  -1.803695574579e+00   1.378498234178e+00 
8
Step 25000
1  5.070327642100e+01  -2.109071785356e+01   2.902473131346e+01 
1  4.135614707015e+01  -7.607278937311e+01  -6.285126100946e+01 
1 -3.080444209587e+01   2.818348120901e+00   4.609661084780e+01 
1 -3.361978471293e-01   6.792840820666e+01  -3.042360697098e+01 
1 -3.041762164545e+01  -3.294408215474e+00   3.352151015432e+01 
1 -8.452873081508e+00   6.577538225386e+01  -3.509478837369e+01 
1  2.028490814411e+01   2.865519218096e+01   1.208326542808e+01 
1 -1.715884105891e+01   6.053914349593e+00   6.622096463767e+00 
8
Step 26000
1  3.045910228932e+01   3.053394322883e+01  -3.355614274913e+01 
1  1.575642680067e+01  -3.291318736874e+01  -5.463180622214e+01 
1 -3.540669267945e+01   4.498539221365e+01   8.476741895082e+00 
1  2.411005068008e+01   6.151475174200e+00  -3.666655950993e+01 
1  2.669565057137e+01   6.567898531986e+01   3.554294610108e+01 
1 -7.579160093341e-01   4.046109937497e+01  -2.780045595753e+01 
1  1.799861357228e+01   2.831529665906e+01   6.730604271374e+00 
1 -2.525528980852e+01   1.926182147025e+01   2.873103582170e+00 
8
Step 27000
1 -1.140281640182e+01   8.792511438386e+01  -7.874997381983e+00 
1 -2.047957697348e+01  -1.338643687184e+01   2.572384545172e+00 
1  3.449678769103e+01  -1.849534306238e+00  -9.314274328035e+00 
1  8.259136154007e+00   3.227996301468e+01   4.683033379037e+01 
1  1.799258874988e+01   2.145167834497e+01  -3.061508199926e+01 
1 -1.297346404463e+01  -6.221182451137e+00   2.638275348391e+01 
1 -7.104659475292e+01   8.148174593999e+00   4.137517371811e+01 
1 -2.419880153458e+01   4.640465120150e+01   7.182664813089e-01 
8
Step 28000
1 -1.278858493140e+02   6.867911238088e+00   2.293235735974e+01 
1 -1.795936275697e+01  -2.272923026411e+01   1.234400378583e+01 
1  1.666071887572e+01  -2.703372420041e+00   1.033341524838e+01 
1  3.006566269781e+01   2.577073116142e+01   4.320052290227e+01 
1  3.400975003603e+01  -4.964869098608e+01  -6.385370694427e+01 
1  6.218277447796e+01  -2.670713338924e+01   8.521305781179e+00 
1 -1.199583223966e+00   1.041316725048e+01   5.001408449721e+01 
1  4.538792917215e+01   2.062413236824e+00  -4.373950671269e+01 
8
Step 29000
1 -4.173291449614e+01  -1.332449500201e+01  -4.312218349321e+01 
1  4.567804723051e+01   1.577075406460e+01   1.696099715442e+01 
1  4.840392965009e+01   1.977936247834e+01   6.706005368122e+00 
1  4.472999689729e+01  -1.946440678596e+01  -3.292263908620e+01 
1  1.944906549829e+00   1.798861064486e+01  -1.085511010522e+01 
1  3.102974153560e+01   1.221090659610e+01  -5.097473350264e+01 
1 -8.115213528303e+00   2.402376088572e+01  -2.268140065282e+01 
1 -3.437468088923e+01   2.723547538147e+01   3.535311169679e+01 
8
Step 30000
1  1.005970428923e+01  -1.580319944857e+01  -3.830853423438e+01 
1 -7.951373408478e-01  -1.066481967543e+01   4.403365275269e+01 
1  1.559708043468e+01   2.654549048618e+01   3.726271473373e+01 
1  1.285016974224e+01  -3.637436938274e+01   1.254749178655e+01 
1  3.392138104348e+01  -3.525487358392e+01   3.633382289701e+01 
1  9.028967947587e+00   1.792170192583e+01  -2.645493825820e+01 
1  2.588621064818e+00   3.011242642306e+01  -2.168759716738e+01 
1 -6.926534980942e+01   4.117125095039e+01   2.330889593014e+01 
8
Step 31000
1 -1.726054396726e+01   2.952062428681e+01  -1.429752508433e+01 
1 -7.397505791369e+01  -5.234191826866e+00   2.984870757490e+01 
1  3.846023471721e+01  -2.211264679024e+01   5.056775237912e+01 
1  4.482533804769e+01  -5.532723068145e+01  -3.604853144342e+00 
1  6.206493626759e+01  -1.383642498200e+01   6.327436492407e+00 
1 -7.153286341693e+00  -5.722648258195e+01  -1.629118785400e+01 
1 -2.261314051103e+01  -6.819622441334e+00   3.516191524167e+01 
1 -3.545161490035e+01  -1.744043063314e+01   4.260581821480e-01 
8
Step 32000
1 -4.566847031320e+01   1.722938494131e+01  -2.539912052310e+01 
1 -1.152455963313e+01  -1.013717466426e+01   7.172101675853e+01 
1  7.272812532819e+00  -2.064073049420e+01   4.796179735313e+01 
1  2.311305898809e+01  -2.466162175092e+00  -4.973811684550e+01 
1  9.744760011971e+01  -5.601780691389e+00  -3.480992709268e+01 
1  6.319235377227e+01  -4.078601687881e+01   2.234619499862e+01 
1 -4.466831662481e+01  -5.651439862947e+01  -2.293018509203e+01 
1  5.512346079095e+01   1.438732984118e+01  -4.463274263099e+00 
8
Step 33000
1 -1.615878196729e+00  -6.596920516354e+01   9.173674586535e-01 
1 -2.705412157547e+01  -4.691730811178e+01   5.313779546953e+01 
1  2.535497494528e+01  -2.651621936625e+00  -5.883034600168e+01 
1 -2.567126017009e+01  -4.173322989892e+01   1.357461755415e+01 
1  2.194229796124e+01  -1.635912839317e+01  -3.691586402655e+01 
1  2.349042409787e+01   3.897978628596e+01   1.300567003117e+01 
1 -3.059845145496e+00  -5.449603888910e+01  -4.591353099116e+01 
1 -1.821634249254e+00   4.150393460166e+01  -3.234381683232e+00 
8
Step 34000
1  1.878804278730e+01  -1.763690180318e+01   9.428233822831e+00 
1  2.383248429853e+00  -2.013816704445e+01   5.521860763143e+00 
1  2.521442340672e+01  -3.171390628738e+01  -1.665934603283e+01 
1  1.593203017724e+01   2.857354810468e+01  -2.536656711945e+00 
1 -1.472486114487e+01   3.802167042972e+01   2.262962764352e+01 
1  3.265772031255e+00  -2.960580600237e+01  -2.037453282277e+01 
1  1.393871709487e+01   2.187704289043e+01  -8.601253065479e-01 
1  2.975731794442e+01   2.163639967904e+01   1.179192338910e+01 
8
Step 35000
1  2.207361404783e+01   2.038570446520e+01   2.663545223709e+01 
1 -3.411486289288e+00   8.095817959514e+00   2.382136220364e+01 
1 -3.088596908317e+01  -4.457704104248e+01   4.075184404682e+01 
1 -1.060763740565e+01   2.406672602057e+01  -6.836899396378e+01 
1  2.056790488106e+00   1.931057067908e+01   3.063656635330e+01 
1 -3.727225328179e+00  -4.612269176690e+01  -7.987766984595e+01 
1  9.571986544024e-01  -2.509092651047e+01   2.308359275480e+01 
1  1.924786903808e+01  -6.022210779200e+01  -7.264078222610e+00 
8
Step 36000
1  1.315609043771e+01  -7.753235268922e+00   1.294680110047e+00 
1  8.460480807089e+00   9.829462342942e+00  -1.952608994986e+01 
1  4.580728881076e+01   3.727474014887e+01   3.465651270369e+01 
1  1.620367780784e+01  -1.095072406857e+01   1.515004688468e+01 
1  5.930993828523e+01   1.828621099632e+01  -2.178306428521e+01 
1 -1.747871592368e+01   3.707136286291e+01  -1.309293395897e+01 
1  4.540442162583e+01  -3.907052783714e+01  -5.034239821179e+01 
1 -5.289532833714e+00  -2.551579248654e+01  -5.557980573796e+01 
8
Step 37000
1  2.516672066608e+01  -3.857272785061e+00  -2.331358796159e+01 
1  2.934524961973e+01  -1.267848471319e+01  -3.351260079932e+01 
1  2.343521458794e+01   1.029365162275e+01  -4.060215150235e+01 
1 -4.013552834203e+01   2.752861798685e+01  -4.649946130931e+00 
1  1.738422251516e+01   2.120949297116e+01  -1.635043106403e+01 
1  1.631077884922e+01  -3.212476795478e+01   5.283520052897e+01 
1 -9.273704559981e+00   1.875218201495e+01  -3.213263906118e+01 
1 -6.079567770678e+01  -1.262278960968e+01   7.748793020469e+00 
8
Step 38000
1  4.897177119357e+01   1.494760080801e+01  -3.052912567313e+01 
1 -1.163190804258e+01   3.757936213963e+00  -2.494418640291e+01 
1  2.415607501613e+01  -2.934022301359e+01  -5.433563565346e+01 
1  2.421867694429e+01  -9.325446789302e+00   7.151463236727e+00 
1 -1.018775748379e+01  -3.812841857517e+00  -4.133865741803e+01 
1  1.722597050087e+01  -1.097871518026e+01  -3.994982956004e+01 
1  1.261712096803e+01   1.217999448126e+01   1.713525561542e+01 
1  3.738661277280e+01   5.508846889440e+00   4.014108863074e+01 
8
Step 39000
1  1.826664562235e+01   1.860954066186e+01   2.171201693656e+01 
1 -7.372827797591e+01   1.103394542923e+01  -1.017875733690e+01 
1  2.199966711601e+01  -1.104144810081e+01  -5.302798525431e+01 
1  1.434109813982e+01  -1.162351893528e+01   2.629200735797e+01 
1  4.018872660486e+01   3.712064285677e+01  -1.943523678742e+01 
1  5.202036554063e+01   3.630407272042e+01  -2.437748638294e+01 
1 -2.927419673967e+01   2.456751304567e+01  -2.219068227340e+01 
1  6.401087878317e+00  -5.880929127094e+01  -3.076700487151e+01 
8
Step 40000
1 -2.283205625498e+01   5.189806220881e+01   1.253435740065e+00 
1 -1.864019840876e+01  -2.974544208645e+01  -6.936419488951e+01 
1  3.860154882344e+01   6.496793284600e+01   6.527727272324e+00 
1  1.762267289302e+01   1.692696477834e+01  -5.620012345622e+01 
1  6.178295212232e+01  -1.216607515121e+01  -1.373331597691e+01 
1 -5.673681116748e+00   2.921543808647e+01  -3.341411144720e+01 
1 -4.787037499248e+01  -1.051858024169e+01   1.027008173276e+01 
1  9.710075070385e+00  -4.599855685057e+01  -9.109726820629e+01 
8
Step 41000
1  2.772039337582e+01   4.233962498567e+00  -1.017526375446e+01 
1 -2.806908163878e+00  -6.721250071990e+00   3.907907532224e+01 
1 -1.540056940315e+01   2.828358993224e+01   4.147329374305e+01 
1 -8.834944092359e+00  -4.900250095684e+01  -2.211906502074e+01 
1  6.697477252211e+01  -1.646779585419e+01   1.462119270971e+01 
1 -3.793076257615e+01   9.550414776512e+00  -8.875644846504e+01 
1 -2.036786426419e+00   1.238456878957e+01  -1.931681756513e+01 
1  3.723005056495e+00   7.650842867235e+00   2.116335956994e+00 
8
Step 42000
1 -7.901936952374e+01   3.036994272707e+01  -1.564418564285e+01 
1  6.255358040394e+00   6.306207327485e+01   7.173916730404e+01 
1 -1.556200082027e+01  -1.464803154678e+01  -3.998168024775e+01 
1 -2.417063798818e+01  -2.530607758377e+01   9.941484890365e+00 
1 -3.213911039101e+01   1.670502105866e+01  -4.721271025150e+00 
1 -3.754410706244e+01  -8.215977840107e+01   3.761912475074e+01 
1  5.821177817456e+01   3.663347331342e+01   3.747821232009e+00 
1  1.101620766943e+01  -3.577846015392e+01   1.448031943285e+01 
8
Step 43000
1 -2.281868037435e+01  -3.571452753146e+01   5.653957183530e+01 
1 -3.146238036215e+01   3.201010087862e+01  -3.006686203805e+01 
1  1.241520937060e+01  -1.430556435871e+01  -3.038376370959e+01 
1  3.900941260927e+00   5.182298397333e+01  -1.628984524329e+01 
1 -6.942092385915e+00  -2.265920235160e+01  -1.966021898773e+01 
1  3.881394223557e+01  -2.573276179068e+01   3.210250389596e+01 
1  2.071668321881e-02   1.672425651521e+01  -1.722521221450e+01 
1  2.962937553388e+01  -4.812496994909e+01  -4.211097837052e+01 
8
Step 44000
1  3.504705926356e+00   2.731675796353e+01   6.965228126261e+01 
1 -5.146243617638e+01   4.799821884727e+01   1.440106452231e+00 
1 -1.820491156420e+01   2.460235910529e+01  -6.511446183588e+00 
1 -1.935217414267e+01  -3.852020702713e+01  -3.340548777324e+01 
1  1.687051221040e+01  -2.787202672044e+01   5.017158584352e+01 
1  3.448519914516e+01  -2.114330346135e+01  -4.117404300595e+01 
1  2.382597036800e+01  -7.147022230454e+01  -1.696344898391e+01 
1 -3.567646662038e+01  -1.228842744929e+01   1.304459085743e+01 
8
Step 45000
1  1.410742102072e+01   4.914911451578e+01  -1.044121506774e+01 
1  8.952442534304e+00  -6.632649163877e+01   4.395913854386e+01 
1 -1.567505739188e+01  -3.685206981152e+01  -7.367264872918e+00 
1 -5.733150631480e+01   1.794922158715e+01  -1.857014560243e+01 
1 -2.887565567701e+01  -2.276065523233e+01   1.928391815301e+01 
1 -2.229272051716e+01  -3.961521132160e+01  -2.398858644175e+01 
1  3.460076745506e+01  -3.187553665268e+01   4.864813477936e+01 
1 -3.950343201117e+00  -1.579309277733e+01  -3.439234709107e+01 
8
Step 46000
1 -1.624437105480e+01  -4.010501566362e+00   8.675052601871e-01 
1 -5.764015030137e+01  -3.145498339123e+01  -9.635593234325e+00 
1 -2.726395469066e+01   2.221192678758e+01   2.463839985977e+01 
1 -4.270478411246e+00   2.300222947951e+01  -8.223385180400e+00 
1 -3.708456672666e+01   4.197137455378e+01   1.023070900833e+02 
1  3.426300396815e+01  -1.816068112146e+01  -1.783415485756e+01 
1 -3.534387591136e+01  -1.292613981012e+01   2.351881901926e+01 
1  3.515279492369e+01  -4.961826158276e+01  -4.360244504411e+00 
8
Step 47000
1 -2.209545939244e+01   3.108409396423e+01   1.118564968909e+01 
1  3.869692398787e+00  -5.893262251033e+01  -2.967406550360e+01 
1 -3.520371621954e+01   1.342193308671e+01   2.636096692563e-01 
1 -1.355878776939e+01  -1.519737965386e+01  -1.337403903112e+01 
1 -8.163165570459e+01   2.557859676790e+01  -1.103413838046e+01 
1  2.756195497409e+01   7.161069195302e+00   6.829576036577e+00 
1 -5.785254319757e+01  -6.829971838605e+00  -2.413748921083e+01 
1  6.817369736961e+00  -2.281070107610e+01  -5.162428307218e+01 
8
Step 48000
1  4.599077491258e+00  -2.270832154035e+01   2.892358594442e+01 
1 -2.976022183337e+01   1.064503162677e+01  -1.015144121784e+01 
1 -1.942792724928e+01   2.141998999897e-01   2.245064117264e+01 
1 -6.534837590843e+01   7.591771651611e+01   5.758075403674e+01 
1 -2.609655302386e+01  -2.688036516719e+01  -5.486846599729e-01 
1  4.552399276978e+01   1.717291325581e+01  -5.789730431607e+00 
1 -1.630979418236e+01   1.693916478648e+01  -6.047026389202e+01 
1 -3.068379286850e+01   2.569399983526e+01  -7.495593947514e-01 
8
Step 49000
1  6.265448080180e+01   3.383471557935e+01   7.014650065303e+00 
1 -2.382344950874e+01  -6.995659269774e+01  -4.693909967496e+00 
1 -6.686450553990e+01  -4.031033318698e+01   2.064418864715e+01 
1 -8.894409743192e+01   6.503245133587e+00   5.396692069310e+01 
1 -9.267221592491e+01  -8.998207638207e+01  -6.475095027808e+00 
1 -2.807541311448e+01   1.921529607864e+00  -3.429767787874e+01 
1 -2.985010178032e+00   7.275574144025e+00   4.295282453250e+01 
1 -6.398477627957e+01   2.708711888583e+01   4.267367264939e+01 
8
Step 50000
1 -3.486625376465e+01   2.821487910092e+00  -4.504663706911e+01 
1 -1.651575052673e+01  -1.847302052906e+01   4.649506428752e+01 
1 -3.095573589731e+01  -6.049805030696e+00   5.439835777863e+00 
1  1.685831994655e+01  -4.310644255917e+00  -8.633624175525e+00 
1 -4.465889284720e+01  -1.201664682731e+01  -2.493253092782e+01 
1 -2.546353329315e+01  -2.470211367659e+01  -1.172872550379e+01 
1  1.644962324113e+01   1.027617693916e+02   6.144184025029e+01 
1  1.320225926220e+01   3.049817410253e+01  -2.309490548383e+01 
8
Step 51000
1 -1.015633796389e+01   3.711453806931e+01  -1.563406870158e+01 
1  3.033069044142e+01   1.435884095991e+00  -3.609405164887e+00 
1 -3.699211767757e+01   8.917677227794e+00  -2.554778405472e+01 
1 -1.343425595699e+01   2.386738645899e+01   6.946651483289e+00 
1 -2.325510431101e+01   2.918094121471e+00   6.255657688052e+00 
1  1.143962467170e+01  -3.386430756370e+01  -7.044217500818e+01 
1 -1.557498275702e+01   3.792155202474e+01  -1.298595949472e+01 
1 -8.974833952364e+00   2.561931963049e+01  -2.139816967855e+01 
8
Step 52000
1  2.424992628115e+01   1.021126620823e+01   2.159722908637e+01 
1  3.919575849074e+01   4.061805614592e+01  -2.908163271092e+01 
1 -3.079870220649e+01   2.789053691234e+00   3.550269492808e+01 
1 -4.268595570177e+01  -5.410244246860e+01   3.723845493596e+01 
1 -2.486246281048e+01  -3.440497420731e+01   2.037465871151e+01 
1  2.869070716362e+01  -1.659125259213e+01  -8.233342300098e+01 
1  1.410723469640e+01   2.788913846892e+00  -4.037038644937e+01 
1 -3.481493284110e+01   9.888268180590e+01  -1.842265848967e+01 
8
Step 53000
1  5.789689426192e+01  -1.765597913727e+01  -7.282583392614e-01 
1 -3.637785154950e+00  -4.030256234021e+01   9.198405522861e+00 
1 -1.890226559779e+01  -3.447490902938e+00  -1.837142307263e+01 
1 -6.001659937143e+01  -4.272422602792e+01  -2.005354860230e+00 
1  5.663602726142e-01   4.689178868495e+00  -7.361060754405e+01 
1 -1.744008091240e+01  -2.449154904069e+01   1.001524502781e+01 
1 -2.352972441692e+01   8.824405718936e+00  -9.548671633811e+00 
1  1.645126271643e+00   3.744893697058e+00   3.729254481797e+01 
8
Step 54000
1 -2.600204786902e+01   2.923262857588e+01  -4.570144818932e+01 
1 -9.698367162319e+00  -3.967351808315e+01  -8.712777982313e+00 
1  8.815750897617e+00   2.420499287209e+00  -8.607369482324e+00 
1  6.542734263950e+01  -3.514868812578e+01  -6.241568011765e+01 
1  5.922947515655e+01  -2.544516385511e-01  -4.145963896267e+01 
1 -4.166174241778e+01  -8.393519974743e+00  -4.433673985484e+01 
1  2.551422025160e+01   9.733458785709e+00  -3.982319449820e+01 
1  4.390094123587e+01  -5.425590519401e+01  -7.710621078900e+00 
8
Step 55000
1  1.661797675206e+01   2.259993968076e+01   5.379056997999e+00 
1  3.720339725205e+01   9.793052461356e+00  -2.970769448761e+01 
1 -1.446891323783e+01  -6.784563755176e+01  -7.483102676756e+00 
1  1.873931106365e+01   2.248675218867e+00  -7.357425327473e+01 
1  8.948152962290e+00   2.563954652041e+01  -2.016944277861e+00 
1 -7.817444361398e+00  -2.659062827502e+01  -4.808823296063e+01 
1 -4.380481717253e+01  -1.188223672589e+01  -3.828341535946e+00 
1 -1.990613549781e+01  -4.236817584054e+01  -3.516120693345e+01 
8
Step 56000
1  2.159251613713e+01   1.604058150574e+00   2.477142869470e+01 
1  3.888315557525e+01  -6.407373664946e+00   3.546825850718e+01 