8
Step 0
1 -2.085286265275e+01   6.292774221803e+01   4.528091614985e+01 
1  7.223371578599e+01  -7.160191957723e+00  -4.811401682497e+01 
1  3.521294812006e+01  -5.574803034824e+01   6.932730076890e+01 
1  5.834431226767e+01   3.413925235964e+01  -3.833126681060e+01 
1 -5.863304183448e+01  -3.561420874390e+01   7.616396741191e+01 
1  7.540330238677e+01  -3.575458675880e+01  -1.940912708350e+01 
1 -7.609144493216e+01   6.472004551485e+01  -6.113465809600e+01 
1 -1.136950171554e+01   5.790460616002e+01  -3.822221383630e+01 
8
Step 1000
1 -7.944457155359e+00  -2.202955463479e+01  -9.592885999730e+00 
1  2.227257166735e+01   2.417217371385e+01  -2.294655807638e+01 
1  1.641167579327e+01  -3.100312096933e+01  -5.625621470402e+00 
1  1.711974296267e+01   3.560464526235e+01  -4.840537275917e+01 
1  5.860059938582e+00  -4.396585128532e+01  -7.806073919119e+00 
1  9.755671570743e-01  -3.521110789475e+01   2.949378510551e+01 
1 -1.146146936867e+01   6.656275988707e+01   1.895811706170e+01 
1  2.130684408455e+01   2.075557228647e+01   1.212475171767e+01 
8
Step 2000
1  1.105109693369e+01  -4.378317586098e+00  -2.533316807246e+01 
1 -2.730153360447e+00  -2.624030609075e+01  -2.544074641656e+01 
1  3.547848544615e+01  -1.010416518998e+01  -2.266583556951e+01 
1  5.284174310697e+00  -1.154359666373e+01  -2.764717705023e+01 
1  4.800363945435e+01  -1.010270404912e+01   2.883242872086e+01 
1 -1.278476012674e+01  -2.940228473723e+01  -8.638461322681e+00 
1 -4.110532483311e+01   3.152672039559e+01   2.995249968929e+01 
1 -7.474465866968e+00   3.247745711120e+01   8.578589569233e+00 
8
Step 3000
1  6.647771701996e+01   4.582348905285e+01   1.586650960127e+01 
1  3.988293987759e+01  -5.065531917465e+01  -6.421432288085e+01 
1 -2.406985255299e+01  -1.059165717353e+01  -3.520781164801e+01 
1  4.879578686937e+00  -6.496944470976e+01   1.907014960315e+01 
1 -1.109003680428e+01  -1.244054771724e+01   3.371205678529e+00 
1  1.968632617899e+00   7.526908024969e+01  -3.133798294064e+01 
1  1.691238659044e+01  -2.051768442053e+01  -1.693483563183e+01 
1 -3.114638464886e+01  -1.081230416015e+01  -4.092650904739e+01 
8
Step 4000
1 -2.851113188337e+01  -1.279628648435e+00   2.336708086495e+01 
1 -3.027742694609e+01  -2.990941432124e+01   1.984715286908e+01 
1  1.127981818021e+01   1.594348051189e+01   1.217302619800e+00 
1  1.694877685857e+01  -1.697189530912e+00   7.501061615464e+00 
1  3.711240894054e+01  -2.765408882868e+01   1.914440495925e+01 
1  8.787811547922e+00   7.572642064406e+01   7.294471729306e+00 
1 -6.559636401810e+00   6.429765159753e+01  -6.887748285820e+00 
1 -3.368626875095e+01   9.393352525039e+01   3.056778063880e-01 
8
Step 5000
1 -7.438440991480e+01  -8.879672209118e+00   1.849444129864e+01 
1  1.614320762097e+01   1.038985084140e+02  -6.691010543865e+00 
1  3.658398056334e+01  -1.907095306657e+01  -7.896857703455e+01 
1 -2.484926264068e+01   1.011660590700e+01  -4.276977002924e+01 
1  7.707939472347e+01   2.276167969616e+01   3.040216900510e+01 
1 -1.166269033164e+01  -6.272251068741e+00   3.710985371199e+01 
1 -5.837700149140e+01   1.107592429545e+01  -2.950909606705e+01 
1  6.984517680026e+01   3.712971139051e-01   7.796060358320e-01 
8
Step 6000
1  1.120905128988e+01  -5.347525674186e+00   2.080493956193e+01 
1 -1.369929628409e+01   2.554434866890e+01  -1.114799181615e+01 
1 -3.191741000407e+00   4.875400596864e+00   1.914721021833e+01 
1 -4.288044970643e+01  -2.431668545603e+00  -2.800491901911e+00 
1 -9.093176815510e-01   5.984965603120e+01   3.227303773035e+01 
1  1.328876524763e+01   1.373464154747e+01  -6.286466181700e+01 
1 -1.450890780595e+01   2.840771346192e-01  -2.536891876198e+01 
1 -1.470651822539e+01   7.605938611377e+00  -1.456624080575e+02 
8
Step 7000
1  1.099941257109e+01   3.901112185704e+01   3.798828108248e+01 
1 -2.233996740993e+01  -3.949416597162e+01   8.077100621317e+00 
1 -5.544616467558e+01   8.565267818317e+01  -5.144255551806e+01 
1  3.545069183839e+01   4.757030223881e+01   9.749945969829e+00 
1 -5.107840140298e+01   1.611743549731e+01  -5.513859196910e+00 
1  6.716991667870e+01   1.855894550484e+01  -6.071908368543e+01 
1  4.381228133389e+01  -5.134627951242e+00   2.388800674707e+00 
1  2.571739916832e+01  -6.559602202891e+00  -6.294844103181e+00 
8
Step 8000
1 -5.828675665912e+01  -6.181403394441e+01   7.074328080597e+01 
1 -6.874176928712e+01  -1.253062078726e+01  -8.566273023626e+00 
1 -5.341893402395e+01   6.563441473466e+01  -3.912163404565e+01 
1  1.638102833109e+01  -1.522398549670e+01   5.436759697524e+01 
1 -3.345019597508e+01   1.471746974039e+01  -9.435615437785e+01 
1 -5.183251552496e+01   3.653055234241e+01  -1.309255764212e+01 
1  1.642106874169e+01   3.835496899382e+01  -1.412716439285e+01 
1  7.124271070667e+01  -1.446197482879e+01   3.342380872634e+01 
8
Step 9000
1  2.510459119179e+01  -7.636556665901e+00  -2.639319073620e+01 
1  1.544830756501e+01   2.431431559588e+01  -2.683668021990e+01 
1  1.205342823915e+01   4.946398156720e+01   3.179204701107e+01 
1 -5.813331712077e+00   2.161644059331e+01  -1.297062158334e+01 
1  3.794340568413e+01   1.054012732565e+01  -1.619376615867e+01 
1  5.924851047399e+00  -1.702345030760e+01   1.871383703345e+01 
1  1.578983825542e+00  -1.756431724789e+01   4.800703621148e+00 
1 -1.803874426114e+01  -5.295887099853e+00   2.105471139440e+01 
8
Step 10000
1  6.219078421286e+01  -2.922922602526e+01   2.546591979541e+00 
1  6.248555942583e+00  -3.728044363279e+01  -4.300186623215e+01 
1 -4.661291554525e-01  -5.148793182590e+01   5.758466304793e+01 
1  1.994660000770e+01   7.270952833667e+01  -8.428382458929e+00 
1 -8.554030224042e+00  -2.124841054805e+01  -3.184510720218e+01 
1  2.005650242964e+01  -1.972103277767e+01  -1.497607232757e+01 
1  2.031360428453e+01  -4.787052042257e+01  -3.072689635127e+01 
1 -1.581182937987e+01  -5.330221805343e+01  -1.206776051820e+01 
8
Step 11000
1 -9.217945085436e+00  -1.566518858968e+01   2.391560592778e+01 
1 -5.402188743830e+01   1.579416367412e+01  -4.669080826700e+01 
1 -3.327319212057e+01  -4.950115481610e+01  -1.608884435246e+01 
1  1.933547009514e+01   5.621683803175e+01   4.793782538166e+01 
1 -4.043642253384e+00  -4.642400971159e+01   6.404834767615e+00 
1  4.762273518999e+01   6.182817621649e+00   2.525551610458e+01 
1 -1.004402791740e+01   7.147564843385e+01  -1.302706112557e+01 
1  5.421634014736e+01   2.329181021547e+01  -1.620287023994e+01 
8
Step 12000
1  1.768315177752e+01  -3.675488104845e+00   5.745362258383e+00 
1  3.003594111498e+01  -8.458914124038e+00   4.734759560707e+00 
1  8.353546237483e+00   1.529738375581e+01  -6.330855565641e+01 
1  4.569659681179e+01  -2.127451690848e+01   2.057833438553e+01 
1  1.730272355373e+01  -2.983349472171e+00   2.715199626383e+01 
1 -1.063558505516e+01  -3.030643762554e+01   9.547296015896e+00 
1 -7.174972904154e+01   7.670891311316e+01   1.049277234501e+01 
1  3.315548264756e+01   2.160833699238e+01  -9.843883754622e+01 
8
Step 13000
1  4.461506658541e+01  -3.256127261263e+00   1.582171306650e+01 
1 -4.863638848119e+00   2.370851427334e+01  -2.779961760527e+01 
1  5.636114236345e+01  -6.043708639334e+01  -3.124914615249e+01 
1 -1.065360378144e+01  -4.840386240411e+01  -3.544721911634e+01 
1  4.917011162122e+01  -1.109825776220e+01   7.764345303034e+01 
1  8.460516678413e+01  -1.781822590071e+01  -3.623894264418e+01 
1 -1.684123958567e+01  -1.387379977862e+01  -2.251909279068e+01 
1 -9.723243160335e+00   3.056106109509e+01  -1.023985387121e+01 
8
Step 14000
1  7.236984663019e+01   4.225370593769e+01  -1.777966406096e+01 
1  3.923636247896e+01  -5.190239878074e+00  -5.771336543622e+00 
1 -3.252637246227e+01  -4.313439050616e+01   5.469065183397e+01 
1 -8.991848558046e+00  -1.015525378103e+01  -1.370713662833e+01 
1  3.108460382764e+01   3.883122931362e+01  -1.305908132441e+01 
1  1.899074226702e+01   4.103568577896e+01  -3.670820819377e+01 
1 -4.201401117822e+00  -5.699433412140e+01  -7.268886635653e+01 
1 -5.088466014941e+01   5.440465290545e+01   3.026306420859e+01 
8
Step 15000
1 -2.350687528726e+00   7.239067416511e+00   5.078292905683e+01 
1 -2.256328611252e+01  -4.777803238233e+01  -2.746384431031e+01 
1 -7.083083839864e+01   1.460614809829e+01   2.953411987451e+01 
1  4.502531995811e+01   2.020227807274e+01   2.467321165394e+01 
1  5.134650884927e+00   3.983512473723e+01  -7.429845468582e+01 
1 -6.385847635871e+01   4.556837312633e+01   8.182163558854e+00 
1  2.186885416590e+01   2.019702688841e+01  -5.243032666589e+00 
1 -3.437207463543e+01   5.224210659065e+01   4.758904434405e+01 
8
Step 16000
1 -6.966518899061e+01   2.796234251160e+01   1.549833136537e+01 
1  4.639758599057e+01  -2.619328997013e+01   8.772664221269e+00 
1 -8.895966589524e+00   3.640307919493e+01   3.071303325514e+01 
1  5.032753727863e+01  -1.076237618947e+00  -1.022594669197e+01 
1  2.165465055618e+01  -1.974424874823e+01  -1.720717390089e+01 
1  2.074013988761e+00  -2.388347036214e+01  -1.692469140684e+00 
1  4.908461335204e+00   5.019540872346e+01  -3.486681978186e+01 
1  1.003936366675e+01   7.968208028029e+00   1.085108888068e+01 
8
Step 17000
1 -2.886843525116e+00   1.282213054201e+00  -3.201895022391e+00 
1  1.650457457562e+00   2.417114218457e+01   5.431341449222e+01 
1  5.419728614419e+01   1.191121745940e+01   3.673444380261e+01 
1  1.390012740084e+01  -2.908192682178e+01   1.254286486835e+01 
1 -5.804006150488e+00   2.095864592381e+01   4.501747860347e+01 
1  7.302668450930e+01  -3.142748168451e+01  -1.190048687306e+01 
1 -2.202948191653e+00   3.160302142879e+00   2.392944120156e+01 
1  2.015066862761e+01  -1.758817252300e+01   1.761450786535e+01 
8
Step 18000
1 -1.700698815662e+01  -3.514467568692e+01  -1.758303387304e+01 
1 -1.794441048947e+01   3.519900597636e+01   1.394839207786e+01 
1  4.309506267326e+01   4.725204734600e+00  -1.611685068494e+01 
1  7.119209552156e-01   4.967988057731e+01   5.101016161393e+01 
1 -8.226020383373e+00   7.637497834671e+01  -2.675997934078e+01 
1  7.870035000088e+00  -5.248705882927e+01   1.294178279097e+01 
1 -2.174768785652e+01   6.667169469774e+01   6.800427919970e+01 
1  6.009007203642e+00   5.222143885719e+01   6.386688152597e+01 
8
Step 19000
1 -2.402485573856e+01   2.359014836956e+01  -3.234261633415e+01 
1  3.035268500690e+00   8.815493189541e+00   3.501800721536e+01 
1 -6.658599992605e+01   1.044554405338e+01  -3.298464238566e+01 
1 -2.211645899285e+01   3.101640711861e+01   3.485716669610e+01 
1 -4.023694719350e+01  -2.220409778495e+00  -6.716885546241e+01 
1 -4.557746514135e+00   1.739979452761e+01   5.626632928227e+01 
1  1.216863319011e+01  -9.244868610604e+00   3.794316262565e+01 
1 -1.920004789446e+01   1.784367438768e+01  -2.708037528725e+00 
8
Step 20000
1 -7.737935954129e+00   6.476764739775e+01   5.141713202046e+00 
1 -1.005576875988e+02   1.435923052661e+01   4.002550822369e+01 
1  1.078894771166e+01   2.099498240658e+01   4.444427370832e+01 
1  2.206760417687e+00   8.786587548097e+00   3.530432619902e+01 
1 -2.233969688335e+01  -6.359058515657e+01  -9.489761610273e+00 
1 -4.772164743219e+00   7.768124370532e+01  -1.958465408212e+00 
1  4.250955411468e+01  -4.917254934875e+01   1.944629919644e+01 
1 -6.652213292600e+00  -1.566154016883e+01  -1.142322329549e+00 
8
Step 21000
1 -1.137882113904e+01   2.177971750496e+01  -5.181872630475e+00 
1  9.668675804549e+00   8.077894664787e+00   4.418454322753e+01 
1  1.257571938823e+01  -1.798000545229e+01   3.604202876593e+01 
1 -1.782287563169e+01   1.062948783119e+01   3.596786550472e+00 
1  1.307001278767e+01  -1.710546089554e+01   5.048154200000e+01 
1 -6.028658831701e+00   1.333237911229e+00   2.778896356723e+01 
1  3.614158837520e+01  -3.766134377537e+01   4.324024177038e+01 
1 -5.646831692631e+01  -1.598500156749e+01   5.138783730685e+01 
8
Step 22000
1 -3.138021601992e+00  -2.748918022036e+01  -8.031684765506e+01 
1  1.797312216827e+01   1.127770745393e+00  -3.780722039748e+01 
1 -5.827538690460e+01  -8.395087640857e+00  -3.685971539211e+01 
1 -2.676698541682e+01  -4.248882319792e+01  -5.057543892967e+00 
1  4.471018660764e+01   7.335203881944e+01   2.803598299181e+01 
1 -4.253482754558e+01  -9.848721178770e+00   1.761983545664e+01 
1 -2.506471790188e+01   2.046012131526e+01  -1.414677467244e+01 
1 -2.062957214041e+01   5.613674407872e+01  -1.360331129121e+01 
8
Step 23000
1 -7.306473304269e+00   1.882308936002e+01  -1.205595085826e+01 
1 -5.874423536634e+01   6.553898045358e+01   2.037131889767e+00 
1 -3.248092347550e+01   1.876698002493e+01  -5.926990879574e+01 
1  2.303094556932e+01  -3.305436505801e+00   4.890445415435e+01 
1  4.658440934941e+01  -4.757887672714e+00   1.010707141116e+01 
1 -2.097301943355e+01   1.905485374077e+01   1.858009880096e+01 
1 -4.384038457279e+01   3.081324285659e+01   2.247722385178e+01 
1  5.030826447057e+01   1.605569963554e+01  -7.414839552894e+01 
8
Step 24000
1 -2.244911799864e+01  -4.471690717875e-01   4.069826215376e+01 
1 -6.622351028553e+01   2.477425585417e+01  -5.953298135408e+00 
1 -7.064440066847e+01   3.922513763641e+01   1.830402530228e+01 
1  8.970276739981e+00   2.072345892662e+01  -1.838475554848e+01 
1  1.067706129210e+01  -1.188469763167e+02   3.481450592075e+00 
1  7.369756077315e+00  -1.617338092059e+01   1.445578295781e+01 
1  3.176544918430e+00  -1.597959209781e+01   1.536326560407e+01 
1  2.157726886482e+01   3.763182046234e+01   1.201386208921e+01 
8
Step 25000
1 -3.704938407710e+01  -5.405726669899e-01   3.798378072758e+01 
1 -2.960721179519e+01  -1.785587791992e+01  -3.870506319900e+01 
1 -1.739075117199e+01   5.538450376651e+01  -4.553808041758e+01 
1  1.906733751301e+01   2.145785940681e+00  -4.012525094002e+01 
1 -2.350794859793e+01   8.213036095100e+00   1.883080565692e+01 
1  4.770659212148e+01   3.926100911190e+01  -1.754194521081e+01 
1  6.720036576289e+01  -5.336689639781e+00  -1.436745979439e+01 
1 -7.662485953620e+00   3.771355420584e+01   6.109411633808e+01 
8
Step 26000
1  5.225449877970e+01   7.842519494366e+01  -1.448297719791e+01 
1 -1.644913225228e+01   2.081987932879e+01  -1.840206749644e+01 
1 -5.431745930870e+01  -2.083793300770e+01  -5.059481531340e+01 
1  2.366621190450e+00   7.470441272429e+00  -2.747597277492e+01 
1 -3.985305422800e+01   4.370765544922e+01  -2.350692005002e+01 
1  1.527949078913e+01   3.666895724201e+01  -2.539856351439e+01 
1  1.910018178872e+01   3.599610227024e+01  -7.382287322918e+00 
1  7.402914404596e+00   5.029800785033e+00   1.852891266323e+01 
8
Step 27000
1 -1.248993914989e+01   4.248821999895e+01   2.825647082897e+01 
1 -5.347249309800e+01   2.167246378529e+01  -2.785557210622e+01 
1 -3.705882442871e+01  -7.070985152926e+01   1.422117159459e+01 
1  2.089906210118e+01  -5.119840399789e+01   2.082498857113e-01 
1  6.595705364660e+01   7.373281658109e+00  -2.165945741098e+01 
1  1.454024882361e+01  -1.366540937039e+01   2.989023872615e+00 
1  1.026558440539e+00  -1.708632538887e+01   4.259948891150e+01 
1  8.406912923482e+01   1.203903213175e+01  -1.074825441131e+01 
8
Step 28000
1 -4.698275083110e+01   1.596915764964e+01   2.615476550953e+01 
1 -7.393252629034e+01   3.583792332415e+01  -4.725416773994e+01 
1  3.725237763683e+01  -1.102357153220e+01   4.049734474687e+01 
1 -9.602387984307e+00  -4.256876274778e+01  -3.575545581998e+01 
1  2.648360275706e+01  -5.503668881199e+00  -1.945113983641e+01 
1  1.823910373045e+01  -5.282361699107e+01  -6.535822613037e-01 
1 -2.157974607952e+01  -4.081682319598e+01  -1.190308474543e+00 
1  1.575375696902e+01   4.368010472422e+01   9.029953079125e+00 
8
Step 29000
1 -1.532362719050e+01  -7.858138346348e+01   1.048440553248e+01 
1  4.470117712547e+00  -1.831101207205e+01  -5.680742082103e+01 
1 -1.405144071414e+01   7.128372512779e+00   1.394932189487e+01 
1 -4.287038059408e+01  -1.715524008988e+01  -5.772314045170e-01 
1  5.527879383399e+01  -2.308345623306e+01  -3.424300157621e+01 
1  5.658857014812e+01   3.277541318276e+01  -4.568048153327e+01 
1  8.175413651225e+01   3.805724862757e+00  -6.079284499166e+00 
1 -8.964798119786e+00  -1.957092175317e+01   6.624611562731e+00 
8
Step 30000
1  6.341412222568e+00   5.946431152555e+00  -2.188787812502e+01 
1 -1.736299584625e+01   5.459346139056e+00  -7.194663015133e+01 
1  7.906309041741e+00  -6.604064778879e+01   3.330914727386e+01 
1  6.640126337774e+01   5.500223342785e+00   5.239529772897e+01 
1 -7.912774770768e+00  -3.311169384165e+01   5.403442796675e+01 
1  3.497016943095e+01   1.041137986040e+01  -2.068127636295e+01 
1  4.964947563078e+00   9.761660469685e+01   3.047217081327e+01 
1 -8.435870059015e+01  -1.226425473231e+01  -9.668244788110e+00 
8
Step 31000
1  3.790166047872e+01  -1.040570057486e+01  -1.132232828094e+01 
1 -4.829711346583e+01  -6.360243276447e+00   2.309818487027e+01 
1  2.753076660206e+00  -1.121447786185e+01   3.365497038077e+01 
1  2.973984131526e+01  -1.810390875125e+01   5.971643602714e+01 
1  7.521304984695e+00  -4.253201257062e+01   1.869438255075e+01 
1  2.622738069460e+01  -4.752891530008e+01   3.401453095981e+01 
1  8.707872065415e+00   7.534530610370e-01   5.416998833628e+00 
1 -1.853032741595e+01  -7.204532202241e+00  -1.016549899714e+01 
8
Step 32000
1 -1.527653596259e+01  -5.665738565237e+01  -3.412494108659e+01 
1 -2.366158864967e+01  -6.465168980882e+01   9.647160795561e+00 
1  2.794166091619e+01   2.110230997054e+01  -4.334903781827e+01 
1 -3.638057179483e+01  -4.137299047051e+01   7.355444709747e+00 
1  5.281728259291e+01  -2.498060945258e+01  -1.737375526202e+01 
1 -4.350698522433e+00   4.579376407566e+00   6.550969337177e+01 
1 -5.631912727840e+00  -6.981277149236e+01  -2.510538368911e+01 
1 -1.685907239174e+01  -4.887157090858e+00  -3.141184743213e+01 
8
Step 33000
1 -5.527469772154e+01  -2.930900054027e+01  -9.607882854816e+01 
1  4.640595762274e+01  -3.210892390172e+01   1.466485553759e+01 
1  4.291730033682e+01   4.493282439568e+01  -2.646320405769e+01 
1 -6.068304379966e+01   3.365707976561e+01  -3.167001415842e+01 
1  2.728490545807e+00   3.071942993584e+01   4.139754566059e+01 
1  4.717092062686e+01   2.150889575717e+01   4.862917907375e+01 
1 -4.123693795247e+01  -3.122280179043e+01  -8.927588655226e+00 
1  1.004253258080e+01   5.700500379672e+01  -5.047756012444e+00 
8
Step 34000
1 -2.130919447855e+01  -6.990184046760e+01  -3.908660360431e+00 
1  9.114417267141e-01  -4.055830295141e+01  -2.060088506399e+01 
1 -7.147708180527e+00  -2.987520331132e+01  -1.685152944092e+01 
1 -2.839123229377e+01   2.416748836411e+01   1.935307431744e+00 
1 -2.493264346511e+01  -1.888602947595e+01   6.080723736286e+01 
1 -2.598544706326e+01   1.582574756185e+01  -2.118617570146e+01 
1 -1.147453958326e+00  -5.845836769799e+01   2.467526715806e+01 
1 -1.752982052693e+01  -1.965031086100e+01   5.729023570709e+01 
8
Step 35000
1 -3.477350215653e+01   3.691729630850e+01   6.179835744295e+01 
1 -6.726970438220e+00   2.612946801023e+01  -6.279611359422e+00 
1  7.313762595839e+00  -4.734742704326e+01   2.675181995559e+01 
1  2.538946349409e+01   2.421372953555e+01   3.268144269023e+01 
1  2.324555268187e+01  -1.679193484177e+01   4.410937663591e+00 
1 -2.922253146585e+01   5.341545335837e+00  -4.677907446419e+00 
1  5.929039313834e+01   6.459157730820e+01   1.016599351171e+00 
1 -2.622500950638e+01   3.289619398674e+00   3.671424132151e+00 
8
Step 36000
1 -3.295183024543e+01   7.515024923937e+00  -4.930687465405e+00 
1 -6.458304471239e+00  -3.492804470211e+00   1.236419511820e+01 
1 -8.706836491780e+00   7.227497672251e+00   2.172183493632e+01 
1 -1.068218949500e+01  -7.471477267757e-01  -1.059319398124e+02 
1  1.727986090265e+01   9.042202725325e+00  -2.098679355205e+01 
1 -5.379012269754e+00  -1.789324063481e+01   9.429391521894e+00 
1 -1.461626046400e+01   1.094426541676e+01   4.744726216213e+00 
1 -1.992923282366e+01  -7.460350942583e+01  -5.318747197531e+01 
8
Step 37000
1 -2.459375768462e+01  -2.943050285398e+01  -4.243401321478e+01 
1  8.031078133471e+00  -5.672286202004e+00  -1.488167698000e+01 
1  1.716190161616e+01   7.166817077630e+00  -2.457714910302e+01 
1 -3.126190353901e+00  -4.597902619658e+01  -2.019574621567e+00 
1 -6.189430296110e+01   5.733821520028e+01  -3.999665540680e+01 
1 -1.806129714413e+01   5.427232110588e+01  -5.609373206766e+00 
1 -1.989587648519e+01  -5.112184251057e+00   5.064523462354e+01 
1  6.179932510409e+01  -3.983888718319e+01   1.110258314886e+01 
8
Step 38000
1  8.850474709211e-01   1.136960664622e+01  -6.906275726191e+00 
1 -6.144443025246e+00   4.543175060648e+01  -1.361582493653e+00 
1  5.568732145543e+01  -9.445632661656e+01  -1.054400096317e+02 
1 -3.222664062227e+01   1.051893145380e+01   6.426334989886e+01 
1  1.076424982826e+01   1.778051931848e+01  -8.367891180570e+00 
1  6.848198781858e+00  -4.156406527251e+00   1.594359685054e+01 
1 -3.151297216259e+00  -6.642587978546e+00   2.050164279938e+01 
1  1.228416773154e+01  -8.850945213643e+01   5.130754601978e+01 
8
Step 39000
1 -2.983496448219e+01   1.191740109821e+00  -2.342071202107e+01 
1 -6.881707358191e+01  -2.240246608720e+01  -3.762689300859e+01 
1 -8.574824966282e+00  -5.466047975391e+01   3.346546904651e+01 
1  2.043715191627e+01   2.218073789180e+01  -2.582311493736e+01 
1  7.262935857224e+01  -4.382220854503e+01  -2.891702419405e+01 
1  2.679146928079e+00  -3.828853895500e+00  -3.217858530938e+01 
1  3.898626906548e+01  -3.090521216611e+01   2.364022420363e+01 
1  6.417062881982e+00  -1.429243513420e+01  -3.031934594051e+01 
8
Step 40000
1 -1.100645793513e+01  -2.482716062769e+01  -7.955540983186e+00 
1 -1.911879360458e+01  -2.761701073978e+01   1.858913086351e+01 
1  1.678376685670e+01   6.567395855771e+01   7.222894268735e+00 
1  4.257993606759e+01  -4.308755784398e+01  -5.885754353829e+00 
1  1.946847287557e+01   3.400200047455e+00   4.927382364919e+01 
1  8.013739418468e-01   1.277434552455e+01  -3.459351837501e+01 
1 -6.997550697861e+00  -3.640609287956e+01  -3.106019561877e+01 
1 -2.514765362609e+01  -2.744743539921e+01  -8.400485356968e+01 
8
Step 41000
1 -1.493667007021e+01   4.432943853820e+01  -5.904930561871e+01 
1  5.158637127467e+01  -1.973921790221e+01   2.870738747907e+01 
1  1.155003070343e+01   2.070051881381e+01   1.292782146294e+01 
1 -1.572230876573e+01  -5.864197802449e+01  -2.584936308429e+01 
1 -4.554855686499e+00  -3.142258330211e+01  -1.052298421636e+00 
1  5.209073881377e+01  -1.063205291985e+01  -2.610003707479e+01 
1 -2.194543760652e+01   2.296692142897e+01   5.725429261782e+01 
1  4.751013929449e+01  -1.022899925489e+01  -8.907721504244e+00 
8
Step 42000
1 -1.403878144626e+01  -4.838083959419e+01  -2.913768597418e+01 
1  3.000177665840e+01  -1.348320973706e+01   4.554792249858e+01 
1  1.427699675544e+01   9.535186049474e-01   4.211932248385e+01 
1 -2.032472968033e+01  -9.240574105992e+00  -1.838344249052e+01 
1 -6.402209814703e+00  -1.339245970162e+01  -6.029232116043e+01 
1  3.076866041009e+01  -1.999554898857e+01   2.694143645723e+00 
1 -2.446337638746e+01   6.678100117407e+01   2.648856001917e+01 
1  5.832028323963e+01  -2.751062992466e+01   2.609913231279e+01 
8
Step 43000
1 -3.410413219677e+01  -1.437861961497e+01  -4.963530654184e-01 
1 -6.953009386304e+00   2.989378574809e+01   2.861025934178e+00 
1  2.368659852978e+01  -3.735751741084e+01  -2.885118913698e+01 
1  1.311129392169e+01  -7.664843934977e+00   1.814934178944e+01 
1  3.725595614709e+01  -1.526886032178e+01  -2.686511759219e+01 
1  4.812642757923e-01  -4.058786253296e+01   4.961204569112e+01 
1 -1.395548166801e+01   2.483184199408e+01  -8.136613345935e+01 
1 -1.385004627172e+01  -4.190779180221e+01  -7.762496445883e+00 
8
Step 44000
1  3.954270895993e+01  -1.949346668974e+01   1.279852113321e+01 
1 -1.194827357132e+01  -4.264143226396e+01  -2.939331885652e+01 
1  6.868226148349e+01  -5.280405298136e+00   3.251845660826e+01 
1  3.718467015679e+01  -9.904133138613e+00  -2.728670400145e+00 
1  2.940699241263e+01  -7.567285092258e+01  -7.118131079921e+01 
1 -2.020832301206e+01   9.026543382336e+00   4.115311413469e+01 
1  1.830522403061e+01  -2.249915050105e+01  -5.942057148115e+01 
1 -5.274732869759e+01  -5.065961235249e+01  -4.884482777141e+01 
8
Step 45000
1  2.451868202848e+01  -2.465531994239e+01  -4.793412426244e+00 
1 -1.708770028690e+01  -5.594655529178e+01   4.154408109220e+01 
1 -5.916196530156e+00   2.745806024046e+01   3.695134865686e+01 
1  2.246215156290e+01  -5.454799682619e+01  -3.618881478456e+01 
1 -1.221772932553e+01  -3.215602766123e+01   5.732592523935e+01 
1 -2.741219203625e+00   9.004515453342e+00  -2.080725124518e+01 
1 -2.624938064829e+01  -3.164311143656e+01   8.043178804692e+01 
1  1.109456435519e+01  -1.386343868041e+01  -1.229452897597e+01 
8
Step 46000
1 -1.670488920723e+01  -1.586076756514e+01  -7.138622849475e+01 
1  3.829431081283e+01  -5.756440848994e+01   1.356612745021e+01 
1 -6.312739368733e+01   2.774683906059e+00  -8.580583178193e+00 
1  1.044160027058e+01   3.024140057260e+01  -5.759228556523e+01 
1 -5.851187276932e+01  -1.109472731641e+01   6.627390932358e+01 
1  8.360060275321e+00  -1.546420768788e+01  -5.200471441793e+00 
1 -5.009340551338e+01  -4.244560858701e+01   5.753392124996e+01 
1  6.350621114431e+01  -4.774498380402e+01  -3.338468954710e+01 
8
Step 47000
1 -6.159783897728e+01  -7.859837036522e+01   3.218005651703e+00 
1 -3.438467266604e+01   4.197057902363e+01  -5.619321369377e+01 
1  3.167125705211e+01  -2.369559534488e+01  -1.440485661721e+01 
1  1.626045826037e+01   6.224772792128e+00   2.037310655783e+01 
1  3.091630636510e+00   5.443214517623e+00  -9.776875143532e+00 
1  7.878198763452e+00  -2.371664676023e+01  -1.504730238492e+01 
1 -5.267595220043e+00  -3.578928050597e+00  -2.899062504203e+01 
1  2.342760454755e+01  -1.207959024848e+01   5.144234515921e+00 
8
Step 48000
1 -1.026160883367e+01  -2.613007350314e+01   5.854918718796e+01 
1 -4.770698286467e+00   3.295099866619e+01  -3.822392722227e+01 
1 -8.261498997297e+00  -1.096718168895e+01  -4.252087361233e+01 
1  9.556558650329e+00  -3.864607903716e+01   2.962904594553e+01 
1  3.425343507988e+00  -1.810719369256e+01  -6.969827821846e+01 
1 -3.505295719103e-01   1.890114690648e+01   6.240782793262e+00 
1  2.820571735562e+01  -1.135132631387e+01  -3.125407314205e+01 
1 -3.196475500377e+01   1.022107094643e+01   4.235321923886e+01 
8
Step 49000
1 -2.036087716605e+01  -3.623838954289e+01   5.695089067354e+01 
1 -5.523307082039e+00   7.622363040027e+00   2.609604651547e+01 
1 -1.019460947138e+01   2.397706030165e+00  -3.092309418241e+00 
1 -1.367438326154e+01  -3.929773655903e+01  -1.054137879777e+01 
1 -4.668017915432e+01  -9.010170010184e+00  -7.470424754588e+00 
1 -1.731120557653e+01  -1.630786018644e+01   3.824285108771e+01 
1  7.237994014014e+00   3.159303716089e+01  -2.098031911050e+01 
1 -2.171591014058e+01  -1.806009714623e+01   5.228599876391e+01 
8
Step 50000
1 -7.682661163705e+01  -2.997602879322e+01  -2.781150540259e+00 
1 -1.221149239892e+01  -6.689136232713e+00   2.541020919242e+01 
1  2.525012786507e+01  -3.935208124924e+01  -5.485045256455e+01 
1  6.720441896885e+01   1.245753113822e+01  -2.845626657869e+01 
1 -1.267842092149e+01   7.491406710839e+00   3.331388763568e+01 
1  1.874396982312e+01  -2.362502392354e+01   3.124727328470e+00 
1 -7.126749854285e+01   3.415811827497e+01   4.517922491458e+01 
1  4.577338014200e+01  -4.638322417867e+01   9.003978437546e+00 
8
Step 51000
1 -2.284881168451e+01  -7.155294804828e+01   1.046400972039e+01 
1  4.036328961026e+01   7.308836278485e+01   4.634522779679e+00 
1  8.778114478932e+01  -3.110416190292e+01  -9.239547745360e+00 
1  2.589881214029e+01   7.895061841156e+00   1.461997464765e+01 
1  9.609627648346e+00  -2.530110761794e+00   1.304365601123e+01 
1  2.864674939981e+01  -1.716310711365e+01  -4.127805418116e+01 
1 -1.875479655003e+01   8.039170215149e+01  -5.849098744301e+00 
1  2.217542636343e+01  -2.913002414595e+00  -2.954453925819e+01 
8
Step 52000
1  4.739792467955e+01  -2.235062583800e+01   5.752583959609e+01 
1  5.474676904937e+01   1.198631304167e+01   7.039169954399e+00 
1 -1.607482836769e+01  -1.178167447706e+01  -6.264845045619e+01 
1 -8.826899269958e+01   2.603497885976e+01   6.586150548543e+01 
1  1.498904982578e+01  -1.742276086294e+01   3.289236612526e+00 
1 -1.127361725431e+01  -2.994262867054e+01  -1.341951097707e+01 
1 -6.437002301492e+01   9.849956361234e+00  -1.150095279844e+01 
1 -1.019791785183e+01   6.528095630258e+01   8.885844742052e+01 
8
Step 53000
1  8.454988960612e+00  -5.670701599418e+01  -4.160676922351e+00 
1  3.055058905862e+01  -4.607885324222e+01   1.815916327319e+01 
1 -1.966359562074e+00   5.176886071302e+00   1.835882965561e+01 
1 -4.717829927015e+01  -7.215575971387e+00   7.355373400187e+00 
1  5.682771283694e+01  -2.211959147374e+01  -7.117815326418e+01 
1 -1.234161697734e+01  -1.024697093897e+01   1.478824920029e+01 
1 -1.859767773130e+00   1.138113383952e+00   4.716769291765e+00 
1  4.764717851759e+00   4.201926383227e+01   2.651370202320e+01 
8
Step 54000
1 -1.921693799811e-01   2.731431475894e+01  -3.935280830903e+01 
1 -1.738913734946e+01  -8.672432566767e+00  -3.399207291091e+01 
1 -6.061200481948e+00   2.278133236114e+01  -4.365407062443e+01 
1 -8.422677241973e+00   6.243646234592e+01  -4.873051185422e+01 
1  2.553256322254e+01   5.034287540084e+01  -4.148029231483e+01 
1 -3.238297876248e+00   2.256646232874e+01   3.110618903084e+01 
1 -3.450570838295e+01   1.641491589861e+01   4.260564620264e+01 
1 -4.649607152864e+01  -4.176576712043e+01  -3.021729060367e+01 
8
Step 55000
1 -5.101835321821e+01   4.621653605427e+01  -5.637339946936e+01 
1  3.567673141241e+01   4.603568040294e+01  -1.109748607983e+01 
1 -1.416295156860e+01   5.800024419746e+01   1.441317504247e+01 
1 -1.513046780539e+01  -2.793503465749e+01   2.032233947482e+01 
1 -5.523036498828e+01  -5.001067913484e+01   6.103330623255e+01 
1  1.345524262167e+00  -1.724755845924e+01  -5.013450701132e+01 
1  2.199570298558e+01  -4.031858372536e+01   1.405194966100e+01 
1  1.745754213290e+01  -4.436445055213e+01  -6.024729583937e+01 
8
Step 56000
1 -1.185555948422e+00   3.583528209542e+01   2.092216429162e+00 
1  1.782354690559e+01  -1.020656719699e+01   1.349881455344e+01 