8
Step 0
1  7.395189469585e+00   2.868572838882e+01  -2.182869978595e+01 
1  3.581768520100e+01  -5.040078629445e+01  -1.872152468762e+01 
1 -8.956057854562e+00   4.753479582038e+00   1.574679953468e+00 
1  1.977878075509e+01   3.607585693886e+01  -2.422827477529e+01 
1  7.002853144553e+01   7.647335132185e+01   2.165794942044e+00 
1  2.570063494682e+01  -1.914862205628e+01   1.732125061436e+00 
1  5.826318678326e+01  -1.353795077675e+01  -5.974027404880e+01 
1  5.370653369435e+01  -9.140397982714e+00  -5.549262301199e+01 
8
Step 1000
1  1.445257363378e+01  -1.201476317236e+01  -7.344933699680e+01 
1 -1.383219754589e+01  -1.357352021413e+01   2.129041148069e+01 
1  4.910724427574e+01  -1.155511932938e+01   1.804377951540e+00 
1  6.260436749384e+01  -7.493349965779e+01  -5.268080444223e+01 
1  2.787095540456e+01  -5.159858258081e+01   2.239269457158e+01 
1 -6.156630763723e+01   1.796203412110e+01   1.946645358093e+01 
1  1.928838558026e+01  -2.976247352604e+01  -4.848302505911e+01 
1 -6.217385607869e+01   5.597273735478e+01   2.631304379451e+01 
8
Step 2000
1  8.232585904296e+00  -2.792450776031e+01   2.155260302863e+01 
1  7.707921538045e+00  -2.777157951320e+01  -1.366972499191e+01 
1 -1.299876490098e+01  -1.080589884327e+01  -7.114867527039e+01 
1 -1.760850677987e+00   3.727871156219e+01   3.646574461911e+01 
1 -2.512281667053e+01   3.792328276528e+00   6.475186689412e-01 
1 -1.876412352417e+01  -2.912504371987e+01   2.537351201387e+01 
1 -3.225577223021e+01   5.994440487015e+01   1.047730663112e+00 
1  4.021762935430e+01   3.543539005427e+00   1.286933749949e+01 
8
Step 3000
1  8.110790183216e+01   1.954018423391e+01   7.053145799736e+00 
1 -5.614625275809e+00  -4.950198669240e+01   1.445987485674e+01 
1 -5.121601976605e+00  -8.242457423894e-01   1.473530334873e+01 
1  2.474663751248e+01  -3.229631141157e+01  -4.616177987339e+01 
1  2.839482222949e+01   1.127595937454e+01   3.517110799578e+01 
1  1.241043561525e+01   6.691495266191e+00  -5.679844518707e+01 
1  2.118575115770e+01   4.250533765420e+00  -3.628613744055e+01 
1  5.738588239297e+00  -2.158354506976e+01   8.130172985858e+00 
8
Step 4000
1 -1.905036731164e+01   1.116184867427e+02  -3.031712339784e-01 
1  2.182548359470e+01  -3.993228349563e+01  -4.811137649777e+01 
1 -5.115531204013e+01  -2.124360977248e+01   1.637172489634e+01 
1  3.367755338724e+00   2.755968075851e+01   3.405526969214e+01 
1 -2.207634862631e+01  -3.311468878429e+01  -2.502696565888e+01 
1 -6.216341259652e+01   3.521738072675e+01   4.622717697658e+01 
1 -9.919626536289e+00   4.520717667868e+00  -2.181086999219e+01 
1  3.143376941711e+01  -4.544787052616e+01   1.262321885958e+01 
8
Step 5000
1  3.099652879422e+01  -1.033327688829e+01  -4.584760146294e+01 
1  5.784209649160e+01  -5.676724927992e+00   4.781777781187e+01 
1  3.738447967843e+01   3.336310291385e+01   2.852625026742e+01 
1 -1.990013091835e+01  -2.799718829313e+01  -4.369312038530e+01 
1 -6.759659090603e+00   2.464432205719e+01   4.204094909752e+01 
1 -3.651777032451e+00  -2.454499952449e+01  -5.158381400716e+01 
1  1.159557191292e+01  -5.361569605766e+01   4.460159183746e+01 
1 -6.033792689766e+01   1.176672654810e+02  -8.351417894243e+00 
8
Step 6000
1  8.644506067307e+00  -5.020441437845e+01   3.828006905399e+01 
1 -1.192165947930e+00  -1.816454497007e+01   2.794090827954e+01 
1 -5.059045531796e+01  -1.124505446544e+01  -6.877200130036e+00 
1  1.983474554225e+01   1.278687771683e+01   1.618664661342e+01 
1 -3.050213399142e+01  -4.410614855899e+01  -2.365445099094e+01 
1  6.184261417416e+00   3.201597901498e+01   3.582569133377e+01 
1  1.166621768616e+01   1.429854921310e+01  -6.450586273743e+00 
1  1.045589186498e+01   2.520780282694e+01  -2.362186181869e+01 
8
Step 7000
1  1.601207128141e+01   8.622001094387e-01   2.006549442264e+00 
1 -1.851781705341e+01  -1.428390284563e+01   1.045894579694e+01 
1 -1.114614407013e+00  -1.830576506568e+00  -4.597961667214e+01 
1 -4.556399260898e+01  -2.407345834034e+01  -3.166778999685e+01 
1  8.984045557498e+00   2.139510427148e+01   5.251473645471e+01 
1  5.657405963882e+01  -4.863706539397e+01  -5.062938419528e+01 
1  7.267950662343e+00   4.269294504977e+01   4.825522506050e+01 
1  1.230105589268e+01  -2.908454703863e+01  -5.783230555496e+01 
8
Step 8000
1 -7.483333087988e+00   3.178675800646e+01   3.979223457032e+01 
1 -4.001999713866e+01  -3.382075635136e+01  -3.049822031019e+01 
1 -5.277281493781e+00  -2.511431716254e+01  -6.981706906668e+01 
1  6.976349391325e+01   6.928987853395e+01   1.107147671222e+02 
1  3.179903895450e+01  -3.015994235411e+01   1.587501658705e+01 
1 -1.588962997398e+01   7.592313062247e+00  -1.890647593170e+01 
1 -1.125836982253e+01   5.680573757208e+01  -2.828889400050e+00 
1 -3.133925814811e+01  -4.491441886723e+01   4.106731212638e+01 
8
Step 9000
1 -1.416715769361e+01  -1.312922706562e+01  -3.713810490065e+01 
1 -1.539202206160e+01  -7.644788927875e+01   1.981669829609e+01 
1  1.197548183158e+02   2.514401046127e+01   1.602300424144e+01 
1 -2.838421584353e+01   3.096776021732e+01   4.715963669358e+01 
1 -5.276052190227e+01  -1.046864295674e+01  -2.413591518939e+01 
1  1.848658772239e+01   2.795721825642e-01  -8.506288523491e+00 
1 -1.600800945265e+01  -3.985049594698e+01   1.513203401423e+01 
1  1.568957697676e+01   2.814262283864e+01   3.529818335710e+00 
8
Step 10000
1 -2.912611071388e+01  -1.237991943348e+01   1.903759690155e+01 
1 -1.189783937086e+01  -2.834065902468e+01   4.481813772444e+01 
1 -3.286187543186e+01   4.288676701233e+01  -4.523532148667e+01 
1  1.915001310900e+01  -7.113483606485e+00   8.874779188319e+00 
1  1.583092303549e+01  -7.913522518726e+01  -4.415187535241e+01 
1 -3.426104995909e+01   7.596980769651e+00  -1.902063601643e+01 
1  7.223932739868e+01   3.073578994311e+01   1.196374868761e+01 
1 -3.491719537056e+01   7.482148628774e+01   3.402330523825e+01 
8
Step 11000
1  3.079098057753e+01  -1.937199383045e+01   2.960233168219e-01 
1 -4.135441231939e+00   4.309498547810e+01  -8.329831747434e+01 
1 -1.262958375920e+01   7.269057665094e+01  -1.488567606402e+01 
1 -8.449176904393e+00  -3.046615872816e+01  -6.951542913827e+01 
1 -3.531882382651e+01  -1.269920231331e+01  -3.488484619210e+01 
1  5.724918719211e+01   7.954345162905e+01   8.735984064722e+01 
1 -3.994095053288e+00  -1.306391626921e+02   4.441919217902e+01 
1 -2.263024993975e+01   5.056911641202e+01  -4.357622018973e+01 
8
Step 12000
1 -2.890661649193e+01  -4.969203706480e+00   3.659077611376e+01 
1  9.741105776132e+01  -5.134796930740e+01   1.232356119568e+01 
1 -4.197958053050e+01  -5.289114909158e+00  -1.495950845062e+01 
1  4.374349242406e+00  -3.935368904896e+01   3.623721306398e+01 
1  6.265164734838e+01   1.797365206276e+01   7.413100091930e+01 
1 -4.289954238340e+01   5.056736484947e+01   2.796636351141e+01 
1 -3.741667295741e+00  -4.006775304915e+01  -4.855827404581e+01 
1 -4.972815061306e+01  -2.814288609572e+01  -3.900094074414e+01 
8
Step 13000
1  1.948165037127e+01  -2.916226979184e+01  -2.654105134286e+01 
1 -3.834597294623e+01   3.990659895330e+01   1.860277117039e+00 
1 -1.905101366149e+01  -6.798573819788e+01   3.666558634552e+01 
1  7.602020705369e+01   3.305010067948e+01  -1.275886694919e+01 
1 -4.504726861695e+01   6.554778521020e+01   5.702818521530e+01 
1 -8.298917150511e+00  -3.164512932123e+01  -5.951606203609e+00 
1 -5.098487501936e+01  -2.202544018397e+01  -7.560630431950e+01 
1  1.578251879793e+01   1.456448561426e+01   1.575006458466e+01 
8
Step 14000
1 -8.092648729576e+01   1.067418463585e+01  -7.938492085905e+00 
1  2.808366251389e+01  -4.224402766818e+01  -5.928080379377e+01 
1  5.728574489509e+01   8.195100554753e+01  -3.788213258527e+01 
1 -2.355265459474e+01  -2.402729588700e+01   3.670486113885e+01 
1 -2.590911238684e+01  -4.211527794835e+01  -3.069011563013e+01 
1 -4.433412237848e+00  -2.329336984150e+01  -8.459595225619e+01 
1  3.265415894558e+01   1.274005026751e+01  -5.014506886207e+00 
1  5.612538270893e+01   3.744037502964e+01   5.956356861716e+01 
8
Step 15000
1  6.810093795802e+01  -2.328307423340e+01  -3.879822865252e+01 
1 -1.164140196970e+01   1.228030383773e+01  -2.970635910156e+01 
1 -6.666642207479e+00  -1.857052493140e+01   1.236384613217e+01 
1  2.704018227025e+01   2.087625143599e+01  -1.708844241108e+01 
1 -2.820466565385e+01  -1.003239028666e+02  -1.352129989423e+01 
1  6.163205029009e+01  -1.895465678626e+01   5.161039255033e+01 
1  2.469963388749e+01   1.063205178783e+02   6.307269823103e+01 
1 -3.142733844038e+01  -7.711507656244e+00  -1.305180082429e+01 
8
Step 16000
1 -4.160012101865e+01   3.907360991257e+01   7.643130566491e+01 
1  2.777654856162e+01  -4.543795234676e+01   2.375435373122e+01 
1 -4.100569410262e+01   4.019029595062e+01   2.156937454947e+01 
1 -2.421306675346e+01  -1.368658680547e+01   4.831078656034e+01 
1  2.315462915452e+01  -7.266602299733e+01  -3.263687932251e+01 
1  1.323255450894e+01   6.030859883658e+01   3.880432773174e+01 
1 -2.538730400217e+01  -5.528177753611e+00   1.361011425947e+01 
1 -1.582114173499e+01  -7.575998604866e+01  -4.512847086566e+01 
8
Step 17000
1  9.425905617229e+00  -2.724315273255e+01  -3.409739361944e+01 
1 -2.002069831133e+01   2.528464584363e+01  -7.396011664817e+00 
1 -2.660134684171e+01   2.293538260401e+01   7.728780373758e+01 
1  2.938362569445e+01  -3.165911766952e+01  -4.780077307735e+01 
1  5.891248725807e+01   8.046562243516e+01   2.084939609328e+01 
1 -3.286413545588e+01   1.893743760457e+01   6.028717103337e+01 
1 -1.514621275656e+01  -8.708519400630e+01  -4.986713295369e+01 
1  6.338355139660e+00   3.582930723644e+01   2.750019280309e+00 
8
Step 18000
1 -7.567313932875e+00   4.923400080197e+00   1.949243680792e+01 
1  3.393967384202e+01   8.790347887636e+00   1.368091265180e+01 
1  8.798174340942e+00   2.342049557676e+00  -1.128030903948e+01 
1  4.356314798817e+01  -2.918713322298e+01   3.840200842986e+01 
1 -5.823390208902e+01  -1.698387269598e+01  -4.872779713266e+01 
1 -1.292024224468e+01  -7.109029180209e+01  -5.557773409298e+01 
1 -4.023282966587e+00   6.636402424195e+00  -2.517650395019e+01 
1  6.945869158519e+01   2.888422041542e+01   8.908075636589e+01 
8
Step 19000
1  2.333785288326e+01  -4.387302024577e+01  -4.773439435928e+01 
1 -4.757561147699e+00  -3.796129800043e+01  -5.142309682291e+01 
1  5.881101779293e+01   7.430935624912e+00   4.829035373010e+01 
1 -8.948443328628e+01   5.097347170537e+00  -2.348618668575e+01 
1  1.083923215793e+01   8.377293778284e+01   2.696282543225e+01 
1 -3.272039582601e+01  -5.691278311415e+01  -3.800175653685e+01 
1  5.150900424169e+01   2.839119184371e+01   7.563173628965e+01 
1 -5.485796517270e+01  -1.147174467133e+01  -8.005808833642e+00 
8
Step 20000
1 -4.119504211253e+01  -9.334605815648e+00   3.135878461286e+01 
1 -1.311362099152e+01   2.130520225428e+01   5.211595538178e+01 
1 -5.677937425265e+01  -1.447567082534e+01  -4.342859159883e+01 
1  1.328504359838e+01   3.306622163345e+01   2.354680518765e+01 
1  1.531709087284e+01  -4.917220428688e+01  -2.513545783414e+01 
1  5.970290583688e+01   5.675676605939e+01   7.479635950220e+00 
1 -2.951011231398e+01   5.267768482498e+01   3.280119429019e+01 
1  2.923697400217e+00  -8.784457760790e+01  -1.697109782509e+01 
8
Step 21000
1  2.078452813113e+00  -9.224605041477e+00  -1.895162189331e+01 
1 -7.702116134747e-01   2.225241217044e+00  -3.037457282842e+00 
1  8.134671672597e+00   2.868457597044e+01   1.004237059510e+01 
1  3.931301045276e+00  -4.519573666418e+01  -2.937425164030e+01 
1  4.613588812896e+01  -3.970672542155e+01  -3.015611170438e+00 
1  3.792375810429e+01   9.269077692301e+01   1.443578645654e+01 
1 -6.036299237763e+01  -2.558238358314e+01  -3.308427771962e+01 
1  3.244970951732e+00   4.523191826978e+00  -3.365288091921e+01 
8
Step 22000
1  9.208675607171e+00  -3.871882731794e+01  -2.849337810450e+01 
1  1.001913571067e+01   2.341407041741e+01   8.452586461889e+00 
1 -1.445673124291e+01  -9.327838001640e+01   6.069826360817e+00 
1 -1.485961494211e+01  -4.749105984455e+00  -1.367031367584e+01 
1  7.351169639923e+00   2.993503576714e+01  -1.998895019529e+01 
1 -3.509482391213e+01   3.115556160924e+01  -1.040656853203e+01 
1 -2.677419088686e+01  -4.048957279758e+01   9.059581540214e+00 
1  3.675209345635e+01   3.578566342529e+01   1.398685269300e+01 
8
Step 23000
1 -2.882748901487e+01   6.198918307557e+00  -2.467642455897e+01 
1  3.790760129398e+01  -1.818261850275e+01  -2.400038223197e+01 
1  4.345153643264e+01   4.713574788437e+00  -2.058275530432e+01 
1 -4.208182669346e+01   5.965698942613e+01   3.296862743093e+01 
1 -3.664126951425e+01   3.837049346002e+01   1.047933266287e+02 
1  1.385743048322e+01  -8.457960575747e+01  -7.259250602646e+01 
1  2.011257137267e+01   3.013764023147e+01   1.271499760035e+01 
1 -1.558716012110e+01  -1.793436618516e+01   3.778243726550e+01 
8
Step 24000
1  4.690118430339e+01  -3.142018420598e+01   1.904491915173e+01 
1 -2.747967441468e+01   4.677561933696e+01  -6.726837416656e+00 
1 -2.657593041756e+01  -2.406572388859e+01   2.239312529397e+01 
1  1.721013393485e+01   4.118010365429e+01  -4.457399722699e+01 
1  7.422028169249e+01   1.413607941451e+01  -7.450057478103e-01 
1 -4.109588081232e+01  -2.946455749900e+01   8.797417547819e+00 
1  7.323574048691e+01   1.442626634447e+01   4.440989895628e+01 
1 -3.853306941247e+01  -5.061391269248e-01  -9.944054448402e+01 
8
Step 25000
1  1.621197272249e+00   5.689499961254e+01   2.190167605673e+00 
1  2.666396269627e+01  -1.701528805042e+01   5.302692299444e+00 
1  7.837489191182e+00   1.618085366123e+01  -2.086478630635e+01 
1  4.145333301900e+00  -1.306872638934e+01   2.352063006572e+01 
1 -9.519577497877e-01  -9.928382321949e+01   2.606497442322e+01 
1  5.314059385132e-01  -3.608044833798e+00  -1.751252022721e+01 
1 -2.857398121740e+01   1.149016116723e+02  -1.380157021733e+01 
1 -1.356072739391e+01  -2.451830184422e+00   1.069284706625e+01 
8
Step 26000
1  2.644547454026e+01  -4.496489650999e+01  -2.076679357620e+01 
1 -2.698277794354e+01   1.551711311425e+01  -6.311790106064e+01 
1 -4.737634105804e+00  -3.594004353965e+01   4.306432189510e+01 
1  8.517734953320e-01  -5.706042180167e+01  -4.346386370215e+01 
1 -1.220431813545e+01   3.056030061761e+01  -1.114247576933e+01 
1 -6.038581673698e+01   2.532368554745e+01   4.775517037896e+01 
1  5.882005661687e+01   4.137749230657e+01  -3.635712934269e+01 
1  3.538261159366e+01  -3.241475119137e+01   1.383085785737e+01 
8
Step 27000
1 -2.840384069317e+01   2.795987083135e+01   1.323026729902e+01 
1 -1.073729659832e+01  -1.200718055754e+01   4.570327911605e+01 
1  1.183400279573e+01   4.346081914693e+01  -3.022258604210e+01 
1  9.411332063164e+00  -1.200329152217e+00   2.488395473321e-01 
1 -2.823981440788e+01   7.315906926987e+00   2.901358109278e+01 
1 -1.995662558736e+01   5.750688445595e+01  -3.721971022783e+01 
1  2.056221366345e+01   1.113312072674e+01  -1.291919680807e+01 
1  1.348266726102e+01  -6.746488056895e+01   5.031927119382e+01 
8
Step 28000
1 -2.089303294024e+01  -3.542504892372e+01   4.615818117530e+01 
1 -1.445114166852e+01  -2.791393669095e+00  -1.454971240784e+01 
1 -8.756114148489e+00  -4.134987855142e+01   3.376118210756e+01 
1  1.534153160828e+01   3.537508635087e+01  -1.575505673417e+01 
1 -4.137510413264e+01   8.241960076407e+01  -3.574035546061e+01 
1  5.298589028645e+01   6.085495862606e+00   3.396325090425e+01 
1 -1.041235331376e+01  -6.971582449767e+01  -8.107598949579e+00 
1 -1.231034013078e+01   6.574849599515e+01  -8.737997031784e+00 
8
Step 29000
1  3.970198787423e+01   1.084426075327e+01  -3.495556213651e+00 
1  2.274739109163e+00  -2.438487473362e+01  -1.013478264251e+01 
1  2.283127494469e+00   4.469334513547e+01  -3.855785924996e+01 
1  1.072667189387e+01   6.146790225568e+01  -5.554448254626e+01 
1  3.281555921900e+01  -6.189090053920e+01   4.876275550317e+01 
1 -1.081191542622e+01  -7.305909316699e+01  -6.501854057895e+00 
1 -2.276561806687e+00  -6.453173233130e+01   6.416713406689e+01 
1 -4.948288544039e+01   2.970572869067e+01  -1.295137091809e+01 
8
Step 30000
1 -2.704906287019e+01  -2.391169101478e+01  -2.180337899703e+01 
1  2.133846984160e+01  -2.774854197886e+00  -1.648697931527e+01 
1  1.584410893429e+01  -5.597173699747e+00   2.600764717828e+01 
1 -4.372735398451e+01   3.784649054144e+01  -3.327092103047e+00 
1 -8.583127560268e+00  -7.603705896973e+01   3.707925842002e+01 
1  3.276939910958e+01   4.784976229364e+00  -4.162412803839e+01 
1 -6.845047091953e+01  -8.007188696577e+00   2.246806547175e+01 
1  4.373063829097e+01   8.917913055476e+01   3.866228914743e+01 
8
Step 31000
1  8.270552430993e+00  -2.228279840820e+00   1.166276238791e+01 
1 -2.157560861259e+01   1.295953496366e+01   6.032906831303e+00 
1  2.049124399689e+01   1.724055492706e+01  -4.264910477839e+01 
1  4.341257004786e+01  -6.362250900703e+01  -2.710546626471e+01 
1 -5.400490861000e+01  -9.345531559410e+01   2.318645260895e+01 
1 -9.141697359901e+00   1.073953576298e+01  -1.072671630382e+01 
1 -8.712144799644e+00   7.791820704921e+01  -5.143042663594e+01 
1  9.659289855482e+01  -2.102662455841e+01  -4.679457839322e+00 
8
Step 32000
1 -5.017642275549e+01   1.847016571755e+01  -4.691411363657e+01 
1  3.816706344407e+01  -2.870004316269e+01   3.401728820078e+01 
1  4.805586044376e+01  -4.011857669345e+01   2.625575351533e+01 
1 -6.410391553724e+01  -2.906314871310e+01   1.903871489026e+01 
1  5.328713321026e+01   2.859248636727e+00   1.837759631802e+01 
1  3.243417289699e+01   1.476998052531e+02  -9.174062254437e+01 
1 -1.622720710135e+01  -5.664424229505e+01   3.364729972619e+01 
1  3.864685315500e+01  -5.401562881266e+01   5.850066513195e+01 
8
Step 33000
1  2.120335960068e+01  -1.491532849758e+01   2.173834381808e-01 
1  2.538061000847e-01   1.418067195860e+01  -5.412741091610e+01 
1  1.069915435042e+00   3.744176678485e+01  -4.585981227222e+00 
1 -3.480650608961e+01  -2.627016243420e+01   4.901529576278e+00 
1  3.294622022037e+01   6.820836754851e+01  -4.953097919082e+00 
1 -2.951582470002e+01  -5.578034792137e+00   1.050673429625e+01 
1  2.493098219122e+00  -3.006006103139e+01   8.021893157446e+01 
1 -2.614080636581e+01  -1.711020369380e+00  -3.979755418097e+01 
8
Step 34000
1 -2.654228494695e+01   4.401793354797e+00  -1.693818340604e+01 
1  1.111106702741e+01  -6.063162881348e+00   4.785081062756e+01 
1  4.733328704602e-01   5.112272294471e+00   1.928223559882e+01 
1  5.452238830228e+00   1.512807658120e+01   1.096673551798e+01 
1  2.764939455955e+01  -2.821621516948e+01  -6.174312253570e+01 
1 -1.997282808028e+01  -1.355913770703e+00   1.946869950939e+01 
1  3.694113359297e+01  -2.272575581245e+01   1.811371635825e+01 
1 -3.995697689181e+01   3.130954310589e+01  -1.840793484789e+01 
8
Step 35000
1  5.388958699757e+01   6.982045487621e+00  -1.861481893132e+01 
1 -5.343135300919e+01   3.950400501846e+01  -1.977266805989e+00 
1 -2.481491050442e+01  -5.103594224511e+01  -2.681535715408e+01 
1  1.843107414117e+00  -1.519841663565e+01  -5.913816162382e+00 
1  3.824340510100e+01   1.889258542726e+01   6.250774325151e+01 
1 -1.192965544453e+01  -6.495365203465e+01   2.084015743999e+01 
1 -1.352354927065e+01   3.871058909816e+01  -5.197352904345e+01 
1  8.302543810744e+01   6.002871182888e+01  -1.065865881546e+01 
8
Step 36000
1  1.266192423533e+01   1.754051285221e+01  -4.805166447075e+01 
1 -2.289063047167e+01  -3.952898533112e+01   2.003268615998e+01 
1 -9.103814922963e+00   2.874488533807e+01  -7.011769485477e+01 
1  6.712589499284e+01   4.346088118295e+01   6.417188110006e+01 
1 -1.031169359302e+02  -4.140515515712e+01  -2.283292170422e+01 
1  8.703468554779e+00   5.933708556553e+00  -3.257909413057e+01 
1  8.235817579631e+00   1.901294708308e+01  -2.387497212688e+01 
1  5.090304464946e+00  -6.535363621998e+01   5.900997358651e+01 
8
Step 37000
1  2.142048067746e+01  -2.522212857747e+01   3.291705004257e+01 
1  1.683219554628e+01   2.012452050287e+01   2.119376303613e+00 
1  6.209232892816e+00  -2.191794553084e+01   3.628095537268e-01 
1 -2.275086622617e+01   1.771242037310e+00   1.270832545949e+01 
1  1.770911539038e+01  -4.389480529461e+00   3.880682953474e+01 
1  4.066784432696e+00   6.708197833161e+00  -7.162664830905e+01 
1 -4.317999250647e+01  -1.772163131330e+01  -1.070117683679e+01 
1 -1.450356872255e+01  -5.092971172292e+01   1.359856561633e+01 
8
Step 38000
1 -8.937472566342e+00   3.300349361041e+01   6.857634132270e+00 
1 -2.330424530032e+01  -3.488546502700e+01   5.466904068899e+00 
1 -9.991649375481e+00   1.684360382348e+01   2.027362507920e+00 
1 -3.462500006615e+01  -7.517298789886e+01   3.649924934699e+01 
1 -1.234443460236e+01  -1.410364382123e+01  -4.869813672076e+01 
1  1.885188616508e+01   6.316646532700e+01   6.418453931472e+01 
1  4.930606041053e+01   4.327707967962e+01  -3.353077483767e+00 
1 -2.383595176028e+00  -2.537969668543e+01  -2.763066632500e+01 
8
Step 39000
1 -6.467288633972e+00  -9.657724668174e+00  -5.088022367341e+01 
1  1.017089182386e+01   6.506939419812e+00   4.167253568677e+00 
1 -1.360573477150e+01  -2.268680052339e+01   1.122351817701e+01 
1 -1.948029129141e+01   5.959308302095e+01  -6.176258767782e+01 
1  4.290433998557e+01   4.046524514215e+01   2.221498476112e+01 
1  1.442453398860e+01   7.493980900394e+00  -1.819612230168e+01 
1 -3.409364689511e+01  -7.133540380613e+01   1.737110451964e+01 
1 -2.710283301040e+01   2.399214825518e+01   1.485202520466e+01 
8
Step 40000
1  2.586672560804e+01   2.004258638239e+00   3.443745755398e+01 
1 -4.416207653977e+01   1.592172671102e+00  -1.256469480677e+01 
1  7.605005884896e+01   4.354819910879e+01  -2.019332234730e-01 
1  1.416424930955e+01  -5.338092263671e+01   2.881839943036e+01 
1 -2.858730688053e+01   6.669354853227e+00  -3.690797008040e+00 
1 -3.081122084265e+01  -7.033348582891e+01   1.820659039021e+01 
1 -2.126006726601e+01   3.814753948826e+01   1.863582772101e+00 
1  4.280414867254e+01   5.363484390196e+01  -1.479737610301e+01 
8
Step 41000
1 -1.813165338204e+00   5.153493650610e+01  -9.063338321584e+00 
1  1.299630310092e+01  -3.263951167242e+01   3.109975256594e+01 
1 -1.282974223622e+01  -2.419436662085e+00   1.770916887839e+01 
1  3.570713875595e+01   2.276679306566e+01  -1.455780231173e+01 
1 -5.060132547650e+01  -8.364188764127e+01   2.088017153401e+01 
1 -5.269164560795e+00   2.315712957931e+01  -2.923508559713e+01 
1  4.068734600236e+01   2.250030369909e+01  -2.787047026517e+01 
1 -1.830403452006e+01   8.293491957436e+00   1.059874545275e+02 
8
Step 42000
1  4.071942015698e+01  -1.821813667934e+01   4.569940484091e+01 
1  3.436215500217e+00   3.910492181851e+01  -3.943741431174e+01 
1  8.730581831069e+00  -1.681875914284e+01  -3.932955902042e+01 
1 -7.215252270441e+01  -3.045757405268e+01   1.849441704546e+01 
1 -3.373738842847e+01   6.172912737525e+01  -2.809835926376e+00 
1  4.330855663872e+01  -4.670609590842e+00  -7.040759127260e+01 
1 -1.731786827492e+01   3.930891218730e+01   5.509685741351e+01 
1 -5.503426199006e-01  -4.790685756813e+01  -1.181337783854e+01 
8
Step 43000
1  9.484614806949e+00  -7.360817576530e+00  -3.175439391726e+01 
1  1.595208078264e+01  -2.610989662669e+01   3.005060774267e+01 
1 -6.018695560665e+01   1.352010341518e+01   1.139516403021e+01 
1  2.450145951349e+01   3.937646956199e+01  -4.148965675010e+00 
1  1.593478319816e+01  -4.597760473526e+01  -6.118995113730e+01 
1  6.757968933037e+01   4.450269855531e+01   6.075921836375e+01 
1 -1.648680109001e+01  -6.942961137084e+01  -4.578363207668e+00 
1 -5.494674755957e+01  -2.633565079642e+01  -4.114717958189e+01 
8
Step 44000
1 -4.360865998105e-01  -1.831721734010e+01   1.745503070735e+01 
1 -2.868087979418e+01   2.132421064454e+01  -3.499878851348e+01 
1  1.857083757278e+01  -4.584579880314e+01  -5.654182285438e+01 
1  2.375427062430e+01  -2.244802030643e+01  -3.709633136321e+01 
1  4.933877431373e+01   2.382848339288e+01   3.593637123738e+01 
1  1.213140335198e+00  -5.418085334474e+01   7.758704282425e+00 
1 -6.247396868563e+01  -6.347220065010e+01   2.130323161575e+00 
1  3.635712863104e+01   4.459729035337e+01  -5.115015989536e+01 
8
Step 45000
1 -1.368825784469e+01   5.104665208059e+01  -3.826175464717e+00 
1  1.381932862967e+01  -1.153149853350e+01   3.996573788748e+01 
1  2.876552172103e+01   4.408224907824e+01   4.972602338838e+01 
1 -1.075323884913e+01   1.997466943841e+01  -3.867605259396e-01 
1 -5.254336451750e+01  -4.857456192450e+01  -2.217201238234e+01 
1 -3.071246777828e+01  -8.623357581120e+00   4.412342547556e+01 
1  3.773792256562e+01   6.893367992007e+00  -4.629302776794e+01 
1 -1.903025148375e+01   6.611335186996e+01   6.094630794084e+01 
8
Step 46000
1  1.894192274343e+00  -3.810711841243e+01   3.410567290822e+01 
1  3.321433003513e+01  -1.930836597015e+01  -2.028549283700e+01 
1 -1.963085184579e+01   3.758913727958e+01   2.227948277254e+01 
1 -5.450728002255e+01  -1.077206264632e+01  -3.025650671135e+01 
1  4.722522399273e+01  -2.005723463364e+00   2.118395044286e+01 
1 -2.532536661812e+01   5.506976888332e+00  -1.465057643873e+01 
1  1.776001762142e+01   6.810576456022e+01  -3.096381204255e+01 
1  1.113733842440e+01  -4.095996063998e+01   6.036751518418e+01 
8
Step 47000
1  8.198529842557e+00   2.404495225460e+01  -5.305494449343e+01 
1 -4.042200362849e+00   9.140231342231e+00  -2.634198136668e+01 
1  1.437342483650e+01  -3.251453759909e+01   5.696277836279e+01 
1 -2.666657784553e+01   1.258369304847e+01  -3.252195265130e+01 
1 -1.180173657247e+01  -1.532881662822e+01  -3.550556829072e+01 
1  7.154957148522e+01   1.347931102003e+01   3.636810765986e+01 
1 -9.253007916870e-01   2.960603239531e+01   6.347374607751e+01 
1 -2.284834647195e+01  -6.987803394786e+01  -3.470183843152e+00 
8
Step 48000
1 -2.135339541217e+01   1.478693067443e+00   1.690721433541e+01 
1  3.799532222171e+01  -4.841569729605e+00   2.097660429186e+01 
1 -3.449020519915e+01   2.052013429225e+01  -6.468153989063e+01 
1  5.921426507362e+01   3.276987101923e+01  -9.161450981130e+01 
1  2.988397258986e+01  -1.535535187704e+01   5.194513347082e+01 
1 -5.807314541912e+00   4.315308600754e+01   6.281496927441e+01 
1 -2.393891318378e+01  -5.617834384100e+01  -6.156170629948e+01 
1  2.220176354228e+00   3.310780871887e+01  -9.713991880937e+01 
8
Step 49000
1  3.062690072878e+01  -6.193606805661e+00  -7.005945201328e+00 
1 -2.147581264901e+01   3.196973173653e+01  -7.713226334718e+00 
1  4.825654527425e+01  -2.645379816336e+01   2.204594171122e+01 
1 -3.542230342983e+01   1.684486521872e+01   3.809131654323e+01 
1 -2.350959509888e+01   2.314430776193e+01   9.502643131685e+01 
1 -2.575028424941e+01  -2.375881184418e+01  -1.136786728750e+01 
1 -2.260685929737e+01  -2.432823372384e+01  -4.756237822412e+01 
1  8.160720365487e+01  -2.910040369155e+00  -1.625094020572e+01 
8
Step 50000
1  1.515622523818e+01   2.395678514435e+01  -1.462691375282e+01 
1  3.865664993018e+01  -3.104762981127e+01   2.519328147101e+01 
1 -2.993653760469e+01  -2.206223056902e+01  -2.863660081421e+01 
1  5.060145515260e+00   4.180873989769e+01   2.679037400294e+01 
1 -3.759795405104e+01  -2.636286686427e+01   1.551706922602e+00 
1  1.814100136882e+01   4.646621239049e+01  -3.886270860571e+01 
1  5.644776084348e+01  -4.531111617741e+01  -1.360595404566e+01 
1 -1.056522560946e+01   1.787581633854e+01   5.417266325856e+01 
8
Step 51000
1 -4.643218082752e+01  -9.033116739447e+00   1.419828176544e+00 
1 -6.671057463733e+01   3.757536991868e+01  -5.946631010265e+00 
1  2.359924514252e+01   3.983430776975e+01  -3.121363773984e+01 
1 -2.495672523251e+01  -2.640917855724e+01   5.648134499002e+01 
1  6.365766410836e+01   2.684601164663e+01  -3.652060178973e+01 
1  3.201464760778e+01  -3.825378666743e+01  -4.346877040665e+01 
1  3.093127719858e+00   6.215337378392e+01   3.638364010695e+01 
1 -5.329050329298e+01  -2.172436764241e+01   2.095795681704e+01 
8
Step 52000
1  1.895627577202e+00   4.928163121023e+00  -2.350242972748e+01 
1  4.768789931387e+01   1.515181972832e+01   3.006368360902e+01 
1  1.335465130290e+01  -5.359436121326e+01  -3.317058055651e+01 
1  5.817741870064e+01   1.685926364297e+01  -9.018788301015e+00 
1  3.202926845208e+00  -2.183102774086e+01   1.667698996530e-01 
1 -5.260071896442e+01   4.684327314043e+01  -4.429173000073e+00 
1 -5.346783583180e+01  -1.203938771133e+01   7.577503882949e+01 
1  4.075122689830e+01  -4.054555042018e+01  -6.272857494536e+01 
8
Step 53000
1  2.538578558173e+01  -1.099232103795e+02   3.172928302653e+01 
1 -2.526085874844e+00   3.668426605559e+01  -1.811367507377e+01 
1  4.814582043292e+00   1.573109274473e+01  -2.264665385775e+01 
1 -7.329159071370e-01  -3.777351859113e+01   3.470138167373e+01 
1 -3.260971636141e+01   3.501786352234e+01  -4.416867902580e+01 
1 -5.708415114527e+01   8.896139232723e+00   1.002663147961e+02 
1  6.520091833578e+01   1.166787865121e+01   4.097576412929e+00 
1  1.657624536891e+01  -2.870054260748e+01  -5.558689836813e+01 
8
Step 54000
1 -1.952889452722e+01  -8.190428444535e+00  -1.748896362492e+01 
1  4.056482609864e+00   1.469280248789e+00  -1.814025103785e+01 
1  8.628407750862e+00  -2.299542852194e+01   2.841623279934e+01 
1 -1.513862328700e+01   7.195450749580e+01  -1.307955530522e+01 
1 -7.152414298465e+01  -1.444648840084e+01   4.358078423461e+01 
1 -1.116927085223e+01  -3.734876032736e+01   7.141413143721e+01 
1  3.776098362682e+01  -4.924510814046e+01  -7.486663244848e+01 
1  5.131860419003e+00   3.258883890991e+01   9.348925158778e+00 
8
Step 55000
1 -2.517709171040e+01   1.177669877687e+00   2.665799492346e+01 
1 -9.870346279717e+00   2.707761804452e+01   1.716239912129e+01 
1 -3.899888782117e+00  -2.649862636995e+01  -1.638416969715e+01 
1 -1.908055168042e+01   1.427177073853e+00   2.017495529140e+01 
1 -2.402012560743e+01  -3.408459758030e+01  -4.199517902057e+01 
1  8.933165231405e+01   3.533433187621e+01   3.755365594234e+01 
1  1.337093074305e+01   4.401360952737e+01  -6.088425679815e+01 
1 -6.402880448659e+01   1.533718808322e+01   5.100459170070e+01 
8
Step 56000
1 -5.048441512922e+01   1.917127350892e+01  -4.444739829099e+01 
1  1.623209513768e+01  -5.210591155414e+01  -1.914843355662e+01 