8
Step 0
1  2.130326814812e+00   3.841428738278e+01  -3.900125211552e+01 
1  3.567597752465e+00  -3.504277063756e+01   3.861701022475e+01 
1  6.258847992801e+01  -7.076539324116e+01   6.450599359103e+01 
1  5.978855273526e+01  -4.628740992298e+01  -3.331699604665e+01 
1  5.663920321690e+01  -5.214564811192e+01   5.649937483509e+01 
1 -4.885508989697e+01   7.742773658779e+01   3.518899981800e+01 
1  3.981944038262e+01  -7.472662646084e+01  -5.860625198879e+01 
1 -7.332626035848e+01  -1.421247514719e+01  -1.259120980933e+01 
8
Step 1000
1  1.947375392376e+01  -4.157090649689e+01  -3.310471272266e+01 
1 -6.385395350467e+00  -7.518391751155e+00   1.960546645591e+01 
1 -2.115319619670e+00   3.019423926996e+01  -7.325675395265e+00 
1 -1.694714938596e+01   4.052666775101e+00  -1.426951683495e+01 
1 -3.330398420115e+01   1.776611761624e+01  -5.873768037758e+01 
1 -2.071241670976e+01  -1.446029260230e+01   4.895603917507e+01 
1  5.660404852382e+01  -1.659777368315e+01   1.623260104762e+01 
1  1.825684685722e+01   3.953973732227e+00   6.791365591564e+00 
8
Step 2000
1 -2.312936093910e+01  -1.055089910609e+00  -1.316138781975e+01 
1 -4.321681553303e+00  -4.511128641860e+01   1.207506307624e+01 
1  2.435145285519e+01   3.322019114831e+01  -1.011035057788e+01 
1  2.214765411967e+00  -7.587308127323e+00   1.339458248229e+01 
1 -2.342373463138e+01   4.522480040770e+01  -1.023302370396e+01 
1  1.041913506412e+01  -3.705046898463e+01   1.264444852763e+01 
1 -1.249542398698e+01  -3.311389854080e+01   1.271347087524e+00 
1 -6.090883691198e+00  -1.931256479183e+01  -2.881587403950e+00 
8
Step 3000
1  2.445758922154e+01   1.071359553230e+01   1.192233094709e+01 
1  3.577884072550e+01   7.120886591881e+01   1.013529017157e+01 
1 -1.092425290458e+02   8.111444666747e-01  -7.346136790117e+01 
1 -3.770009388489e+01   8.943702599404e+00   4.264499944129e+01 
1 -6.641460197436e+01  -1.803394250909e+01  -1.131019970125e+01 
1  3.971897131965e+01  -1.703902312499e+01   4.811031420426e+01 
1  1.340382345506e+01  -2.015712905699e+01  -5.653332567450e+01 
1  3.452856741633e+01  -8.363259338401e+01  -3.961730535029e+01 
8
Step 4000
1 -2.552919731029e+01  -5.813553997857e+01  -2.653423288202e+00 
1 -6.389195332441e+01   5.189340342071e+01   6.553515589634e+01 
1 -2.999724345484e+01   4.100192690159e+00   2.612435789918e+00 
1  2.595062212831e+01   4.746270533829e+01   2.726399152598e+01 
1 -6.897766510239e+00  -3.116743407161e+01   2.303666623985e+01 
1  1.647149065503e+01   7.605790278167e+00   3.844521352722e+00 
1 -1.778593456964e+00  -4.655060511882e+01  -2.319304759574e+01 
1  2.267314049632e+01   3.190233703383e+01   1.360659376508e+01 
8
Step 5000
1 -1.183232140243e+01  -3.635774789639e+01  -4.416530633061e+01 
1 -5.823992151797e+00   4.457507535700e+01  -1.869377616675e+01 
1  4.959540946426e-01   2.764565905995e+01  -1.212785475116e+01 
1  9.491719868695e+00  -2.871702604681e+01  -1.989242012451e+01 
1 -1.669027930031e+01   2.516870035857e+01   4.057335337435e+00 
1 -3.320587727735e+01  -3.682194929233e+01   7.646000980620e+01 
1 -9.983318585722e+01  -1.467354073943e+01   2.844936783522e+01 
1  3.284125918901e+01   1.348173665360e+01   2.188681109485e+01 
8
Step 6000
1 -9.458337717008e+00  -3.937465175479e+01  -2.703215126969e+01 
1  5.332868390206e+01   4.884356395100e+00  -5.085442863054e+01 
1 -2.414066837569e+01  -6.030714809618e+01   1.228199558854e+02 
1  1.494947343413e+01  -4.507677531768e+01   2.366792592980e+01 
1 -7.858568857887e+00   4.796789051532e+01  -6.348315206262e+00 
1 -1.213646029070e+01  -3.123156506431e+01   7.845596505576e+00 
1 -2.568905472481e+01   4.284987384906e+01   4.538676648898e+01 
1 -2.853180472073e+01  -2.369946022864e+01  -3.693869097492e+01 
8
Step 7000
1 -1.159122110576e+01   3.095480669040e+01  -2.221323894157e+01 
1  1.101050193852e+01   3.978777633084e+01   7.452395768482e+00 
1  2.534677095357e+01  -3.763235815884e+01  -9.826006426424e+00 
1  1.947625717178e+01   3.868899563155e+01   1.351985833352e+01 
1  1.719687507742e+01   2.290325332012e+01  -1.367732931385e+01 
1 -2.016035104535e+00   4.090820463499e-01   2.933627221834e+01 
1  2.177329919019e+01   1.651265916086e+01   3.445108606290e+01 
1 -3.094800626294e+01  -3.801134797116e+01   3.484213903921e+01 
8
Step 8000
1 -5.561626656910e+01   1.061144993691e+01   6.347785874910e+01 
1 -2.879820774678e+01   8.903845916238e+00   1.839618760234e+01 
1 -1.155375353412e+01  -1.979389449054e+01  -5.553553702277e+01 
1  2.393935348217e+01  -4.381598652766e+01   1.099014516970e+01 
1  3.732180731719e+01   3.138866791983e+00  -4.938469492477e-01 
1 -2.798382092744e+01   2.396725209321e+01   7.595325030395e+01 
1 -7.602367922069e+01   3.308062160513e+01  -1.014765590995e+01 
1 -3.375409914512e+01   1.543629680511e+01   3.542246019202e+01 
8
Step 9000
1 -4.245997087383e+01   1.622464145350e+01  -1.988442334980e+01 
1 -1.923072742471e+01   2.516487881368e+01   1.683985679291e+01 
1  8.964569793293e+01   4.625638006836e+01  -2.980329910576e+01 
1  5.450606976787e+01  -1.935825751752e+01  -3.987446470107e+01 
1  3.339493869213e+01   4.165558904677e+00   5.325068743032e+01 
1  4.430821699603e+01  -1.689554687185e+01   3.805962264360e+01 
1 -5.158700827140e+01  -5.238548642970e+01   9.002121542122e+00 
1 -2.537164370122e+01   2.197560252346e+01   3.972903733593e+01 
8
Step 10000
1  3.611433571681e+00   1.002987503019e+00  -1.668030034792e+01 
1  4.242409259698e+01  -6.447968425139e+01   3.026730300799e+01 
1  3.098637788867e+01   3.943305823127e+00   2.088228442035e+01 
1 -1.145567996962e+01   6.894277095514e+00  -3.238708639994e+01 
1 -1.026805138798e+01  -3.464687991857e+01   4.070608479640e+01 
1 -1.728699405250e+01   2.893378501790e+00  -7.411711384888e+01 
1  2.533624401582e-01  -7.924619819303e+01  -1.182479572086e+01 
1 -4.404145126288e+01  -5.599964918291e+00  -7.356103207470e+00 
8
Step 11000
1 -4.168696647518e+01   2.269996100052e+01  -2.465421643738e-01 
1 -2.335017421519e+01   2.716424778841e+01  -1.418394356740e-01 
1 -3.444338804009e+01   1.325675924874e+01  -4.816800025599e-01 
1  8.720215470562e+00   1.787106798506e+01  -2.433852665361e+01 
1 -1.860475665415e+01  -5.001053076689e+01   2.474531962570e+01 
1  3.940046116796e+01   3.286047053633e+01  -2.478932529132e+01 
1 -1.630268131855e+01   1.338989030901e+01   5.258220540701e+01 
1 -7.580258111711e+00   1.731541586700e+01   3.904076561767e+01 
8
Step 12000
1 -2.422036058974e+01   4.004253181206e+01  -3.515350714764e+01 
1  9.244790444619e+00  -7.073755239877e+01   4.547168575618e+01 
1 -8.288717456487e+01   7.442408757342e+01   2.532038464244e+01 
1  3.638729141884e+01  -1.335421271084e+01  -5.771916562705e+00 
1 -8.301678759406e+00  -1.447625509667e+00  -5.848639477010e+01 
1 -2.843953688318e+01   3.548354801158e+01  -1.676640510191e+01 
1 -1.633122453438e+01   3.534528965241e+00   4.837240749896e+01 
1  4.521396466972e+00  -7.204198128316e+01   3.000964582734e+01 
8
Step 13000
1 -1.820807698228e+01   1.545661449054e+00  -1.793975520302e+01 
1 -3.256088387510e+01  -1.991214484760e+01   1.952544856834e+01 
1 -2.292238737671e+01  -1.218594502110e+01  -5.562506508369e+00 
1  7.230194668220e+01   3.547621088192e+01  -4.287953174762e+01 
1  2.330569943443e+00  -2.318547031682e+01  -6.353084292077e+00 
1 -8.196482323283e+01  -1.783685505891e+01   1.045017353158e+01 
1  7.248953217176e+01  -4.367889215727e+01   2.315822620345e+00 
1 -3.140039784754e+00  -6.352191984487e+01   1.070809164131e+01 
8
Step 14000
1 -5.878624792969e+00  -6.916003641830e+00  -4.637863668516e+01 
1  2.868222512176e+01   1.819275041350e+01   5.649284704898e+00 
1 -2.659394963809e+01  -2.299053954889e+01   8.556356384100e+00 
1 -2.225847411520e+00  -1.299714928355e+01  -7.819884928555e+00 
1 -8.517787023705e+01   2.820782662848e+01  -2.028602697323e+00 
1 -6.585695821480e+01  -2.661258198309e+01  -1.877804050750e+01 
1  1.206354117745e+01  -7.319024825036e+01  -1.474749993534e+01 
1 -7.027940328439e+00  -1.440325146504e+00   1.597447501747e+01 
8
Step 15000
1 -2.469509694407e+01  -5.030888952872e+01   2.043550312305e+01 
1 -1.044257999732e+02   1.232530870945e+01   3.333975747868e+01 
1  5.053002669397e+01   3.343447167092e+01  -4.690542472286e+01 
1 -1.394898470762e+01   6.226305211615e+00  -3.642305137324e+01 
1 -4.866658228541e+01   8.845685891296e+01   2.385533077040e+01 
1 -3.603154681518e+01  -1.271492337938e+01  -1.558240479398e+01 
1 -2.816064149001e+01  -1.922919692027e+01   2.542437909252e+01 
1  1.211146988750e+00  -9.605009683287e+00  -5.198592247011e+00 
8
Step 16000
1 -8.867412744512e+00   1.026047569337e+01  -2.789525112614e+01 
1 -1.573368739515e+01  -4.808509882329e+00   2.837179414149e+01 
1  6.746735923612e+01   3.280719381616e+01  -6.660093812944e+00 
1 -1.522887389660e+01  -1.689011980656e+01  -5.109529916990e+01 
1 -3.247385313806e-01  -7.344606735010e+00  -1.385360832386e+01 
1 -7.390896907159e+00  -3.223082437993e+01   1.090024743492e+01 
1 -9.059704807448e+00  -4.317552290278e+00  -8.142184524058e+00 
1  1.946854437821e+01  -5.941260014805e+01  -3.885953855787e+01 
8
Step 17000
1  4.245959741068e+01  -2.451106228178e+01   4.990100696345e+00 
1 -2.474336959995e+00  -2.107038037830e+01   6.102925038848e+01 
1  3.056642864953e+01  -5.961620550042e+00  -3.632178507569e+01 
1 -1.824942877989e+01  -1.796050949502e+01  -1.226592573494e+01 
1 -9.521685983309e+01  -7.361336080217e+01   2.945029899147e+00 
1  3.473647125197e+01   4.555813835030e+01   4.982346409731e+01 
1  1.053503941444e+01  -4.157127684423e+01  -6.240962620793e+00 
1  2.914253862432e+00  -6.489329055593e+01   2.213422343605e+00 
8
Step 18000
1 -2.566557499942e+01  -1.412166591219e+01  -9.184043017971e+00 
1 -8.742540393812e+00  -2.134174693003e+01   7.430173033443e-01 
1  4.410017009156e+01  -7.343029384309e+00  -2.619709714687e+01 
1 -1.371499332023e-01  -2.803204512005e+01  -1.142429758779e+01 
1  4.726676935141e+01   1.905731469508e+01  -6.844166322106e+01 
1 -2.166459136872e+01   2.448919994233e+01   9.635621908806e+00 
1 -1.440819822946e+01   2.661761726471e+01   3.819434169831e+01 
1  7.384930484061e-01   5.877488752990e+01  -1.537961660918e+01 
8
Step 19000
1 -3.452912171775e+01   1.778412747367e+01   3.845466348763e+01 
1  5.206052848810e+01  -1.330387452995e+01  -9.286466481807e+00 
1 -2.106953725231e+01   1.614876501051e+01   1.098835081516e+01 
1 -4.221412513077e+01  -3.968557837371e+01  -7.559708611798e+01 
1  3.607843877602e+01   9.388502057803e+00  -2.290770442063e+01 
1  5.831850994296e+00  -1.402296390003e+00   5.180560138080e+01 
1 -3.702265951000e+01  -1.887157662671e-02   1.918770460436e+00 
1 -6.954919110614e+00   3.206450684807e+01  -8.228759351271e+01 
8
Step 20000
1 -6.219691411651e+00  -7.381173588620e+01   4.882742579320e+01 
1  3.124201279761e+01   2.907493126585e+01  -5.283267186523e+01 
1 -2.312661594872e+01   1.929273568647e+00   1.484419456655e+01 
1  5.603797523014e+01  -3.519126215238e+01  -1.514651722961e+01 
1  1.179582347263e+01  -5.656993941443e+01   3.119281428940e+01 
1  2.313207761534e+01  -3.689427161316e+00  -1.222662041054e+01 
1 -2.212590921512e+01  -4.992167162978e+01  -1.556358011117e+01 
1  1.930215832480e+00  -1.215531012786e+00  -4.190445676497e+01 
8
Step 21000
1  8.490104374340e+00  -3.827324530607e+01   9.754616688071e+01 
1  8.694681812213e+01  -1.581681609668e+01   1.730831602949e+01 
1  8.093866582579e-02  -2.569820585849e+01  -5.273664449322e+01 
1  8.681271155356e+01   9.835763166840e+00   2.388318751232e+01 
1 -1.184278405722e+01  -1.783454261588e+01   1.947064291332e+01 
1  1.641080899029e+00  -3.861002747109e+01  -2.035643144841e+01 
1  3.869345911876e+01  -1.700745728169e+01   3.910864033595e+01 
1 -5.910409366107e+01   1.393831476955e+01   3.080094883224e+01 
8
Step 22000
1  5.307639912016e+01  -3.308947631547e+01  -2.890386041522e+01 
1  3.901154968801e+01  -9.965601713089e+01  -2.627841096904e+01 
1 -1.234756667906e+01   3.775227675479e+01  -5.265797162384e+01 
1  1.762864307132e+01  -3.884460666545e+01   4.009332951931e+01 
1 -5.334339573815e+01   5.309493804966e+01  -1.599262195430e+01 
1 -3.599333519224e+01   1.124044676355e+01  -3.835406551503e+01 
1  3.795684441399e+00   8.629617927170e+00   1.073083966313e+01 
1 -2.173360877389e+01   4.492728326717e+00  -3.128583242587e+01 
8
Step 23000
1  2.886676780898e+01   4.748073504510e+01  -3.611653537331e+00 
1 -8.465180382841e+00   4.499252760535e-01   1.058940243187e+01 
1  2.987561590712e+01  -4.939846703740e+00  -4.205079098286e+01 
1  1.329711537597e+01  -5.588207213386e+01   3.233883622972e+01 
1 -8.337636026006e+00   1.753917079598e+01  -1.500604364340e+00 
1 -9.817857685585e+00   1.233508062795e+00  -3.397908014956e+01 
1 -2.174352174413e+00   6.848899569683e+01   9.081868195478e+00 
1  1.149004630857e+01  -1.506493199402e+01  -4.585095042184e+01 
8
Step 24000
1  1.412426378627e+01  -6.782370621836e-01   2.231886202713e+00 
1 -1.817099702979e+01  -5.671044715553e+00   2.282993995900e+00 
1  1.374988019671e+01  -4.419315293812e+01   8.835290932017e+01 
1  1.673582192212e+00   2.100272648630e+00  -1.102495127285e-01 
1  7.460541179693e+00   3.282516848257e+00  -7.325712675900e+00 
1 -4.455365142097e+01  -5.193461845237e+01  -2.663991800077e+00 
1 -2.686546759919e+01  -1.052296784285e+01  -3.775826792948e+01 
1  1.498866510241e+00  -4.499457598339e+01  -7.906205764372e-01 
8
Step 25000
1 -2.169656071416e+01  -3.312009723911e+01   1.339338798456e+01 
1 -6.328907851193e+00  -6.578647389068e+01  -7.718380494478e+01 
1  4.580640257548e+01  -4.993949824600e+00   7.364458608125e+00 
1  1.870482263847e+01  -6.327530868033e+00  -1.073490634160e+01 
1 -1.151925173144e+00   5.364091991633e+01   5.727661893909e+00 
1 -1.226399932354e+01   2.071483531577e+01   7.087599872146e+00 
1  3.696167730986e+01  -1.052177823462e+01  -3.905025068514e+01 
1 -2.309361040349e+01  -3.663967412939e+01  -3.502694704319e+01 
8
Step 26000
1  6.767602757931e+01   8.355913028653e-01  -3.994294589452e+01 
1  4.933370283760e+01  -2.780676402069e+01  -3.950600372153e+01 
1 -9.569065692155e+00   7.997839242410e+00  -7.127888607500e-01 
1 -5.382240895305e-01   3.015248877747e+01   7.766431583151e+01 
1 -2.173106385592e+01   3.576738467421e+01  -1.853257637322e+00 
1 -2.404621117239e+01   3.298206402394e+01  -2.322840743407e+01 
1 -1.289933947027e+01   3.835200332826e+01  -3.039127394895e+00 
1 -3.400173230033e+01  -9.041735257536e+00  -2.406299012660e+01 
8
Step 27000
1 -1.219761174358e+01   6.126219588455e+00  -2.441060215972e+00 
1 -1.008539752067e+01  -6.189415528295e+01   2.287563519498e+00 
1 -9.814078299628e-01   3.474648704595e+01  -1.729642562720e+00 
1  5.006675888175e+01  -1.235533715882e+00   5.755699148735e+01 
1  4.132066324588e+01  -3.778522307488e+00   1.949110585629e+01 
1 -1.674416426628e+00  -1.952558997503e+01  -9.680250390817e-01 
1 -2.755624713945e+01   1.784204832671e+01   4.759676689330e+01 
1  1.649486631658e+01  -3.671714026192e+00  -1.194256126297e+00 
8
Step 28000
1 -6.506381910921e+01   1.418062584176e+01  -9.274352842796e+00 
1  4.321786098295e-01   2.079683062657e+01   4.663607554998e+01 
1  2.967776277980e+01   5.313126462075e+01  -7.197386090407e+00 
1  5.969842153579e+01   2.507107567043e+01  -2.210207334580e+01 
1 -4.662948718655e+01   1.340831135280e+01  -3.673886073404e+01 
1 -1.336848425751e+01  -4.098802425008e+01   4.263970141904e+01 
1 -2.909134807198e+01  -4.075558090216e+01   6.224517923150e+01 
1  6.455773232484e+00   6.567811899673e+00   7.444027279335e+00 
8
Step 29000
1 -2.987986567081e+01  -4.748421175749e+01  -3.598537414370e+01 
1  9.465834112638e+01  -4.209526350720e+01   8.070973340512e+01 
1  2.362450587070e+01   7.320464788119e+01  -3.874006231191e+01 
1 -5.175206225305e+01   8.144679029216e+01  -3.814655556372e+01 
1 -1.595771225950e+01   8.402754768141e+00  -7.033277054266e+01 
1  6.877911246980e-01   2.655961138387e+01   7.334164821818e+00 
1  5.987041222946e+01   1.187155003228e+01   1.303499259969e+01 
1  5.823213937069e+00  -1.468923165475e+01   1.313245893480e+01 
8
Step 30000
1 -4.441436104473e+00   3.462776426026e+01  -1.199692025230e+01 
1  2.030582089746e+01   7.611612480039e+00   3.458073858046e+01 
1  4.118654790321e+01   5.542017235803e+00  -8.331219871898e+00 
1  1.927831069667e+01   7.451961820396e+00  -3.572451791148e+01 
1  1.837450857453e+01   5.371331477793e+01   4.249405184139e+01 
1 -2.000413392828e+01   1.641526626624e+01   1.261492024470e+01 
1 -4.678988066641e+01   6.760207519779e+00   9.777292958056e+00 
1 -5.237998918919e+01   3.011954870024e+01   2.315510402908e+01 
8
Step 31000
1  2.102117763334e+01   3.456653179623e+01   1.968849025579e+01 
1  5.560439968011e+01   2.142209764161e+01   2.825483670184e+01 
1  1.138044342093e+01   3.025461732611e+01   5.348953912910e+01 
1  7.738338439143e-01  -1.546585655751e+01   1.702890756509e+01 
1  1.843874713001e+01  -1.233343832828e+01   2.573899039963e+01 
1 -8.017735728108e-01  -3.363158328754e+01  -5.499317687621e+00 
1 -4.983667615933e+01  -3.311166675997e+01  -1.513272155083e+01 
1  3.457763544298e+01   2.134414748997e+01   3.931195984752e+01 
8
Step 32000
1  3.580952788798e+00   9.378876191324e+01   5.408584451522e+01 
1 -1.530721001836e+01   1.449880148987e+01   1.327716199909e+01 
1  2.523068848932e+01   1.935523670670e+01  -3.119451571580e+01 
1  4.714355841941e+00  -2.241606951909e+01   1.197177190996e+01 
1  2.451143830475e+01  -5.192882209014e+01  -3.526468806147e+01 
1 -7.273499377978e+00   5.204844688716e+00  -5.951753155738e+01 
1 -6.227008363302e+00  -1.520474985686e+01  -1.156611169849e+01 
1 -2.200103142614e+01   2.022811610112e-01  -4.739059466091e+00 
8
Step 33000
1  5.766334015939e+00   3.495212840095e+01  -5.378441516570e+00 
1  5.855392204818e+01   5.783216297342e+01   2.854667393884e+01 
1 -1.659545924767e+01  -1.572400876756e+01  -9.025493534416e+00 
1  6.531936319012e+01  -1.124415426888e+01   3.034762480413e+00 
1 -9.465450199205e+00   4.502437138283e+01  -7.618237796180e+01 
1  2.150011919733e+01   1.438178907327e+01  -2.460587664298e+01 
1 -3.056798428060e+00   5.401654837105e+01  -3.607489946551e+01 
1 -1.517873464466e+01   7.676617324013e+01   1.561953296902e+01 
8
Step 34000
1  6.556607942817e+01   1.293247374316e+01   3.005188960160e+01 
1  5.343885905928e+00   3.818590742240e+01   3.270304464348e+01 
1 -3.340616056549e+00  -3.740688147430e+01   9.746533276217e+00 
1  6.478860282440e+00  -6.824658183818e+01   1.476774758493e+01 
1 -5.741287902639e+01   4.124080834175e+01   2.776996847608e+01 
1 -3.495553835472e+01   2.380841870147e+00  -5.649153596645e+01 
1 -3.556907755083e+01   3.259914019030e+01  -4.649922976097e+01 
1 -2.395152084873e+01  -8.939467343241e+00   1.779370530807e+01 
8
Step 35000
1  2.441237581536e+01   1.007920300071e+02   4.723663678047e+01 
1 -2.393097461193e+01   5.786739594583e+01   1.280350927480e+01 
1  4.738862417291e+00   2.611186110806e+01   3.175039347278e+01 
1 -8.111838272562e+00  -7.596922610036e+00   2.924814490892e+01 
1 -1.598980448278e+01  -6.636720119292e+00   4.368614561293e+01 
1 -1.021768823554e+01  -1.708723666757e+01  -6.959913544346e+01 
1  4.697165919864e+00   4.772478315594e+01   9.504401359390e-01 
1  4.067294605875e+01   1.404028743927e+00  -6.463117506639e+01 
8
Step 36000
1  6.403355824948e+01   3.235971658336e+01  -4.249340952092e+00 
1 -5.348511469103e+00  -7.566448266163e+00   2.968816018051e+01 
1 -7.490420412311e+01   1.403463445969e+01   2.842389243838e+01 
1 -7.217572392087e+01   4.121969343265e+01  -4.406075819963e+01 
1  2.559089580673e+01  -1.930124364286e+01   2.893705913838e+01 
1 -6.389022665219e+00  -1.374409548687e+00  -2.581328404328e+01 
1 -3.774914356416e+01  -8.239371648514e+01   5.155165354706e+00 
1 -7.632412713209e-01   2.807272804681e+01  -6.864786392537e+01 
8
Step 37000
1  3.156566650499e+01  -3.902354537292e+01   2.807038503052e+00 
1  4.341437510626e+01  -6.302042590611e+00   7.317392579752e+00 
1 -3.750644511390e+01   8.817144650803e+01   6.860132514368e+00 
1  5.770255757403e+00   1.039307224120e+00   2.672448426751e+01 
1  1.626241225490e+01   1.182850098934e+01   2.068289267865e+01 
1 -4.841207598637e+01   1.742690554480e+01   2.047037022230e+01 
1 -6.405662343606e+00  -4.197113396432e+01  -2.139251669864e+01 
1 -1.650728213172e+01   8.566386195993e+01   1.793280698487e+01 
8
Step 38000
1  4.240106804042e+01  -2.878343610034e-01   4.010013160987e+01 
1  1.242064866218e+01   6.899184275603e+01  -1.798269296060e+01 
1  2.822827780242e+01   3.054419888606e+01  -3.795430210524e-01 
1 -2.874622899596e+01  -1.748359896659e+01   4.725184720559e+01 
1 -5.139179985795e+01   4.612975701684e+01   2.750585231928e+01 
1  3.776463955767e+01  -6.771756509614e+01   3.226296335103e+01 
1 -1.888903711851e+01   3.110978145361e+01   1.346610105014e+01 
1 -1.535351357416e+01   4.306384991048e+00   1.839898580172e+01 
8
Step 39000
1 -5.373865589699e-01   2.857294510029e+01   2.699207167055e+01 
1 -6.491969535647e+01  -4.217448033871e+01  -1.124140805591e+01 
1  1.501362235444e+01   7.790847078862e+01   6.006451971737e+00 
1 -3.383427410795e+01   6.061076321462e+01  -9.638007491218e+00 
1 -3.344322350632e+01  -1.285903322191e+00  -1.943995476283e+00 
1  3.773246682899e+00  -5.532188774809e+01  -1.441889191707e+01 
1 -1.290437932450e+01   4.321127815893e+01   2.972982790706e+01 
1  2.078156440896e+01   1.565953054821e+00  -3.124581731781e+01 
8
Step 40000
1  3.499018815767e+01  -4.336075480308e+00   4.647047664606e+01 
1 -3.502543907418e+01  -3.479096352369e+00   6.027052079440e+01 
1 -4.809689271410e+01   4.644728783019e+01  -3.831390288743e+01 
1 -2.645467849544e+01  -1.579084985034e+00  -3.276111514307e+00 
1  4.840961340537e+01   1.574744765332e+01   4.637048869056e+01 
1 -5.084155586997e+01   2.172620478745e+01   2.970574643561e+01 
1 -3.439516311441e+01   1.758496753795e+01  -3.822670776305e+01 
1  3.759882979347e+00   7.169389704261e+00  -5.516785221832e+01 
8
Step 41000
1 -1.427088137758e+01   5.054105856791e+01  -5.969365315220e-01 
1  2.878709466045e+00   2.404868281123e+01  -8.298920476049e+00 
1 -1.710904063731e+01   3.107288427718e+00  -5.686649469224e+01 
1 -4.994549538729e+01  -8.625791060478e+00   3.231132075199e+01 
1  6.291686037595e+01   1.341695858105e+01  -1.717519531652e+00 
1 -9.294674059195e+00   1.060761898772e+01   3.380184851184e+01 
1  1.241042312733e+01   2.052134776058e+01   4.122314481092e+01 
1  9.299888108698e+00   3.985371014002e+01  -6.753172194258e+00 
8
Step 42000
1 -5.370775899402e+01  -2.617467059744e+01   6.087655980086e+01 
1 -2.503922345321e+01   1.341902591400e+00  -4.527146450137e+01 
1 -2.370242783994e+01  -4.322574286877e+01   3.058520659037e+01 
1 -3.420846311467e+01   3.693970248057e+01  -1.017554149715e+01 
1  2.935743673377e+01   1.903186595974e+01   2.748518220759e+01 
1 -2.777577995217e+01   3.980768290665e+01  -1.275396821207e+01 
1  8.080020095081e+01   2.638718505137e+01   7.896400945010e+01 
1 -2.013972178947e+00   3.642835732633e+01   1.664234779055e+01 
8
Step 43000
1 -3.839746922689e+01   4.511705563304e+01   2.115063584196e+01 
1 -4.798507585708e+01   4.636607679544e+01   3.471857913020e+00 
1 -8.622409437379e+01   8.386355720935e+00  -4.425709987165e+01 
1 -9.234923216059e+00   8.263333290937e+00  -4.887958056256e+01 
1  1.130094727145e+01   7.500758574507e+01   7.332720998225e+01 
1  2.312344848557e+01   2.326031438349e+01   1.430707277289e+01 
1  3.789079821680e+01   1.799210853822e+01   2.732909137991e+01 
1 -8.657513593998e+00  -1.172064909008e-01  -1.807877097320e+01 
8
Step 44000
1  5.985264922452e+01   2.751255130879e+01   8.906151402162e+00 
1 -4.354021422211e+01   4.558198826104e+01  -4.357645960645e+00 
1  4.160777931566e+00   2.244950575182e+01  -3.320378191128e+01 
1 -1.136807005131e+01   1.445366509219e+01   1.650495490525e+01 
1 -2.453290975190e+01   1.630215931726e+01  -1.858497253397e+01 
1  1.129422929132e+01  -5.653973963506e+00  -5.944937284165e+01 
1  3.880068616736e+01   3.063710481945e+01  -5.364035078477e+01 
1  3.957437867824e+01   1.828583570068e+01   9.738495741258e+00 
8
Step 45000
1  5.866461307160e+00   2.054531248140e+01  -3.433399783408e+00 
1 -1.115445912483e+01   3.306111748843e+01   1.369620079274e+01 
1 -2.382481872699e+01   3.582293749984e+01  -1.260934025516e+01 
1 -2.409512155051e+01  -3.770914890395e+01   1.130805608561e+01 
1 -1.993957748367e+01   4.080647213068e+00   4.672242927896e+01 
1 -9.009486545572e+00   1.752023109410e+01  -1.849162997004e+01 
1  2.522212146887e+01   3.902687182728e+00  -1.901325338239e+01 
1  4.419393696016e+01   3.260289633963e+01   5.462981033143e+01 
8
Step 46000
1  1.636725669161e+01   4.505528907395e+01  -7.345597683096e+01 
1  6.849949428667e+01  -2.137874280251e+01  -3.353327036273e+01 
1 -1.653555873842e+01   5.239080192503e+00   1.082490951842e+01 
1 -2.041898876275e+01   1.034330055524e+00  -2.034909424760e+01 
1 -3.397365799626e+00   4.884237995027e+01   2.979373230689e+01 
1 -3.462963174572e+01   1.640845352957e+01   3.965994657176e+01 
1  2.734204434480e+01   3.555373864127e+01   3.381993592187e+01 
1  2.927063658138e+01  -6.585909376194e+00  -2.948562487594e+01 
8
Step 47000
1  1.026680659246e+01   3.198576359491e+01   1.620438935341e+01 
1 -2.206150522418e+01   2.148335020174e+01  -2.763475479513e+01 
1  2.146278114418e+01   1.303542566538e+01   5.366700014986e+01 
1 -2.531773408871e+00   3.771439818627e+01   4.006731916221e+01 
1  2.327300576277e+01   3.409432762036e+01   1.161892317885e+01 
1  7.015741213849e+01  -4.484304371601e+00  -1.088008815794e+01 
1 -3.163969976338e+01   3.401168460143e+01  -2.048900590943e+01 
1  1.460441627315e+01   4.129625442920e+00  -3.291647835461e+01 
8
Step 48000
1  4.231847910401e+01   7.764239353637e+01   7.544753951627e+00 
1  1.647708434674e+01  -1.968901161701e+01  -2.747542484674e+01 
1 -1.448847530251e+00   3.365621511945e+01   3.715841323562e+00 
1 -6.086021557289e+01   6.810194991483e+01   1.353965250494e+01 
1 -2.050084225054e+01  -4.321886313229e+01   4.278803147836e+01 
1  5.429446704213e+01  -3.898365499908e+00  -6.315677703323e+01 
1 -1.529944790884e+01   2.267081856686e+01   2.625037983572e+01 
1 -1.346695879208e+01  -3.508289636602e+01  -2.902020915773e+01 
8
Step 49000
1  6.547178070052e+01   1.615866827940e+01  -4.220865828956e+01 
1 -6.825082796257e+00  -1.348001820903e+01   2.743303509522e+01 
1 -5.196181444255e+01   2.953501044152e+00   2.419934040447e+01 
1 -1.767119909729e+01   3.385564406698e+01   3.329806162510e+01 
1 -1.826359842124e+01  -2.529026233512e+01  -2.122013411809e+00 
1  7.186142801020e+00   8.100233322155e+00  -4.704291123511e+00 
1 -4.335947242892e+01  -2.711586134805e+01   3.476886652365e+00 
1 -2.181665248507e+01  -8.024748173726e+00   3.731935231405e+00 
8
Step 50000
1  4.134037022366e+01   5.439927832759e+01  -5.705000236856e+01 
1  1.162546282953e+01  -6.515843584468e+01  -2.646028040872e+01 
1 -5.633884940620e+01  -5.726237798049e+01   2.654350964929e+01 
1  1.161273989798e+01   1.465247127618e+01   1.799092510022e+01 
1  2.485589052757e+01   5.057020653537e+00   9.154878139314e+00 
1  5.607987777348e+00   3.913681514573e+01   4.236416813867e+00 
1 -4.381293997975e+00  -6.267521483707e+01   1.415482770463e+01 
1 -2.794313140074e+01  -2.441485356157e+01   2.515391323257e+01 
8
Step 51000
1 -2.008946338363e+01   5.756481215507e+01  -4.506385629503e+01 
1  2.143786811877e+01   3.678837025649e+00  -1.284175784919e+01 
1  3.926628262956e+01  -2.592214802583e+00   2.550420549610e+01 
1  2.184596192924e+01  -5.579401412126e+01  -1.103426886881e+01 
1 -2.632066209234e+01   1.986473283308e+01  -8.119919849421e+00 
1  6.561194336578e+01   4.479224659594e+01  -2.104283264707e+01 
1  5.855489632415e+01  -5.515354851594e+00  -1.173713223379e+00 
1 -9.762969711080e+00  -2.798206261005e+01  -7.186170077635e+01 
8
Step 52000
1  2.668065158992e+01   5.731229192176e+01   3.046634361125e+01 
1 -3.574387472899e+00  -4.793728634989e+01   4.440366567966e+00 
1 -1.669771622944e+01   2.382414069049e+01  -3.383578452174e+01 
1 -3.347342017489e+01  -3.180630757393e+00   3.291805460380e+01 
1 -6.467301197796e+01  -7.834268214774e+00   1.946143061720e+01 
1  6.174317035056e+00  -6.339359714055e+00   4.129000314491e+01 
1 -5.398166539100e+00  -5.559756434965e+00   4.496898739933e+00 
1  6.386287884588e+00  -4.203478189864e+01  -2.215946153391e+01 
8
Step 53000
1 -1.206496695376e+01  -7.496154211462e+00   4.632630555624e+00 
1 -6.155026776791e+00  -4.623179889972e+00   1.278791430083e+01 
1 -2.986422225411e+01  -3.807278242637e+01   2.300264569061e+00 
1  3.809174939554e+01  -2.604625707695e+01  -1.776339108210e+00 
1  1.583478120012e+01  -5.852891723442e+01   3.717262286216e+01 
1 -5.876818728839e+00  -6.479594802370e+01  -1.020619116595e+01 
1  5.152080503533e+01   3.303886364364e+00  -9.937843404672e+00 
1  3.586960119968e+01   4.318471327202e+00  -9.645824396226e+00 
8
Step 54000
1  1.092307497027e+01  -1.547489007284e+01   3.872863904787e+01 
1 -6.023741540061e+01   4.941249373708e+01  -1.953580491710e+00 
1 -6.326844374905e+01  -2.812424169074e+01  -4.462934751565e+01 
1  4.881568782733e+01  -1.176781576663e+01  -7.013888322267e+01 
1  6.048301212953e+01   9.731453002472e+01  -2.314066794015e+01 
1  3.290827059950e+01  -3.052128698522e+01   2.176791033100e+00 
1 -2.897103274958e+01   5.052288057121e+01   2.320497579469e+01 
1  6.194379343375e+00   2.681083856247e+00  -5.763839433757e+00 
8
Step 55000
1 -4.272135516599e+01   4.108276768500e+00   1.616386693574e+01 
1  9.087005665868e+00   2.116597246151e+01   1.341476754781e+01 
1  1.138181388995e+01   2.681976522317e+01   3.083232695902e+01 
1  2.367263397769e+01  -4.673390870583e+01  -2.138040238200e+01 
1  3.669698281955e+01  -2.192420598463e+01   4.854019142056e+01 
1  1.328513910315e+01  -3.380098930630e+01  -2.696606009232e+01 
1  5.848281723580e+00   5.030171367282e+00  -2.861072942274e+01 
1  6.405102220938e+01   1.392696672391e+01   1.477298863532e+00 
8
Step 56000
1  4.126970308517e+01  -3.168194276298e+01   9.381950670701e+01 
1  2.619480856324e+01  -3.873451414665e+01   7.581011026421e+00 