8
Step 0
1 -9.321326070699e+00  -6.620647350791e+01   2.192230498819e+01 
1 -8.248198198250e+00  -1.617199106698e+01  -7.593054286380e+00 
1  2.400492857207e+01   3.392125150928e+01  -5.637948731377e+00 
1  2.126464604586e+01   2.348679313380e+01   6.886595029720e+01 
1  6.973119689275e+00   6.026314038082e+01  -5.613207189903e+01 
1 -4.185591075337e+00   2.039818970777e+01  -4.194277105585e+01 
1 -4.494768800927e+01   3.092602338611e+01  -2.494547172582e+01 
1  6.436472496678e+01  -6.150106059053e+01  -2.602981437612e+01 
8
Step 1000
1 -1.214600852170e+00  -1.395107346884e+01  -5.910939794073e+01 
1 -4.001836889587e+01   5.011776611847e+00   7.634744810987e+00 
1  1.394963665163e+01  -7.448835387240e+00   7.983222398015e+00 
1  8.188151758019e+01  -6.720283365438e-01  -1.774869008882e+01 
1 -1.258882717304e+00   2.394301958518e+01  -2.377784166694e+01 
1 -3.507313635950e+01  -4.198221108386e+00  -1.397236068000e+01 
1 -3.294591120850e+01   7.992643896854e+01  -3.194668929474e+00 
1  3.913265379964e+01   8.148304281848e+00   6.521481023514e+01 
8
Step 2000
1 -4.863001104713e+01  -6.831529482309e+01  -9.802275998743e+00 
1 -2.420125983497e+00   2.108687401204e+00  -3.360174040957e+01 
1 -1.015825567981e+01   1.660087557255e+01   1.070628322323e+01 
1  3.226665417921e+01   3.166810833941e+01   1.583849517852e+01 
1 -3.055332494130e+00   2.606445672088e+01  -1.563178494413e+01 
1 -8.679354935916e+00   1.052197764874e+01   1.567338253124e+01 
1 -2.069992200621e+01   2.499416558161e+01  -1.016870870274e+01 
1  1.933276805478e+01  -2.719874927402e+01  -1.815699428968e+01 
8
Step 3000
1  6.011833969537e+01   1.534236647979e+01   3.206442004453e+01 
1  2.226048836609e+01  -2.345059301066e+01   4.890707993823e+00 
1 -3.289907101774e+01   4.437545334153e+00   2.942129870635e+01 
1  1.298838777578e+01  -1.204979948591e+01   8.428648557122e+01 
1  1.156788438434e+01   2.710883007575e+01  -4.948754617002e+01 
1 -6.229589296392e+00   2.792994418704e+01  -4.994434862711e+01 
1  1.034298612475e+01   4.103235941485e+00  -9.991030151187e+00 
1 -1.167451070968e+01   3.975991387533e+01   1.658395264584e+00 
8
Step 4000
1 -1.872892162515e+01   1.619569833532e+01   1.175306170325e+01 
1 -3.120638180244e+01  -8.637474839063e+00   1.257222900524e+01 
1  4.616691346607e+01  -5.463078204155e+00   2.152036196980e+01 
1  4.630005183336e+00   5.648535880886e+01   1.710621293572e+01 
1  2.947710310689e+01  -3.565958892541e+01  -3.860701222484e+01 
1  9.164411349032e+00   3.474132796787e+01  -6.203945249860e+01 
1  4.868153206928e+01   8.015327564956e-01   9.727742441218e+00 
1 -1.991431230749e+01   3.104447311215e+01   2.597677900726e+01 
8
Step 5000
1 -3.423056658281e+01  -2.003749215377e+01  -4.185702429975e+01 
1  4.566241110732e+01   1.745568750483e+01   1.853293402418e+01 
1 -1.927054145990e+00  -2.075716399822e+01  -5.214895467987e+01 
1 -9.604473654728e+00   5.238623138861e+01  -1.206120497806e+01 
1  2.804768962798e+01   5.445844750424e-01  -1.160288569305e+01 
1 -4.816548349812e+00  -3.162629342592e+01   2.260997627685e+01 
1  3.495065136488e+00   4.683688114498e+00   2.490355390326e+01 
1 -3.312250667934e+01   3.355503576075e+01   4.334071249638e+01 
8
Step 6000
1  8.401705610176e+01   5.589410778627e+01  -5.482566034471e+01 
1  5.321808650268e+00  -2.445061392834e+01   1.334330711005e+01 
1  1.846470301787e+01  -4.397015528422e+00   2.520663618642e+01 
1  4.045678681546e+01  -9.438459826513e-01  -2.046930992872e+01 
1  2.051429873988e+00   4.079394918752e+01  -4.260299718675e+01 
1 -1.130900749860e+00  -1.279179637990e+01  -6.126097874541e+00 
1 -2.294054935573e+01  -3.652997477844e+01   1.176703564875e+01 
1  1.565047871763e+01  -2.099656336939e+01  -5.705021761086e+01 
8
Step 7000
1  1.383958550499e+01   6.027617586922e+01   1.155827282120e+01 
1  1.031073032902e+01  -5.516150700398e+01   3.600572953744e+01 
1  2.103848068093e+01   9.773629930633e+00  -1.843882819389e+01 
1 -3.425741898187e+01  -1.166917094672e+01   3.105124151101e+01 
1 -6.618081030949e+01  -4.193760662801e+01  -5.550575867460e+00 
1  6.142723174804e+01   1.686844014780e+01   1.383305622138e+01 
1  6.256265276987e+01   2.466117166196e+01   2.027257105007e+01 
1  3.536921291435e+01  -1.495863677174e+01   6.642458313659e+00 
8
Step 8000
1 -5.046921095519e+01  -1.703661101936e+01   4.614100111645e+01 
1 -1.265494658520e+01  -2.723788007505e+01   1.871558484855e+01 
1 -2.815407925727e+01   6.659634780606e+00  -3.351397931455e+01 
1  2.843884059658e+01   2.862962686200e+01   2.225973729651e+01 
1 -2.741629172531e+00   1.150933747246e+00  -3.037479381700e+01 
1 -1.288779982214e+01   2.431509612079e+01   1.428618343745e+01 
1  7.485307612137e+01   4.983042015799e+01   3.810451496573e+01 
1  4.065600177744e+01   4.273692275848e+01   6.419177376448e+01 
8
Step 9000
1  4.740703714104e+01   5.925059358496e+00  -3.315042198882e+01 
1  2.580320284383e+01   3.647031276432e+01   8.981521533533e+00 
1 -1.568372610531e+01   1.965395692270e+01   2.140543121741e+01 
1 -3.351461088707e+01  -6.008165883180e+00  -2.948472506224e+01 
1  4.141846866168e+00   5.161850911204e+01   2.546800436556e+01 
1 -2.001031097365e+01   2.561212525540e+01   1.919160518706e+01 
1  2.090052733751e+01  -3.859617452378e+01  -8.211745593409e-01 
1  4.508764327264e+01  -8.266026923779e+00  -1.792391050500e+01 
8
Step 10000
1  3.069350334406e+01  -6.931207011071e+01   1.091106628983e+01 
1  1.663431591177e+00  -2.218335750633e+01   4.900330883461e+01 
1 -3.097205704695e+00  -4.469378769754e+01   3.209096309105e+01 
1 -5.941335301337e+01   3.421580613100e+01  -6.144169689715e+01 
1  7.646745257466e+01   1.093746574969e+01  -1.714834435298e+01 
1  9.924591114011e+00  -3.239915917679e+01  -1.841187699402e+00 
1  5.831211300629e+01  -5.801103497040e+01  -2.864450036343e+00 
1  2.760454685543e+00  -5.771655912094e-01  -1.813477559847e+01 
8
Step 11000
1  3.551785724185e+00   3.609100742548e+01   1.704198819399e+01 
1 -3.981872863361e+01   1.546939004566e+01  -2.777538656539e+00 
1 -1.319220059952e+01  -6.514493712725e+01   3.676140166226e+00 
1 -1.191102144093e+01   6.311959077184e+01   1.512649979196e+01 
1 -1.243511544016e+01   1.742240711365e+01  -2.753974596541e+01 
1  7.027841036699e+00   6.562287183440e+00   1.760741847041e+01 
1  6.496162746284e+01   3.778939229000e+01   4.328459429114e+00 
1  1.155526701682e+01  -2.817959670515e+00  -2.334888217619e+00 
8
Step 12000
1  5.455355295531e+01  -2.043718080075e+01   5.700107789683e+01 
1 -1.893109336602e+01   3.604906763783e+01   1.292360659215e+01 
1 -1.992813861295e+01   3.057147963623e+01  -4.251642394612e+01 
1  2.249703219465e+00   6.454182806710e+00  -3.378734166444e+00 
1  3.479330448563e+01   3.047126823240e+01  -2.281156076023e+01 
1  4.452753124296e+01   6.248288300027e+00   4.155700995669e+01 
1 -7.592674073699e+00   1.997051733381e+00   2.505395305073e+01 
1  3.993343280461e+01  -6.978355775774e+00  -1.003915057959e+00 
8
Step 13000
1  6.057724803002e+01  -2.532460010442e+01  -2.622122298616e+00 
1  7.905274554613e+00   1.500324482824e+01   1.099615434697e+01 
1  3.241305364748e+01  -4.154786884483e+00  -1.966615554680e+00 
1 -5.853169753703e+01  -6.893621211256e+00  -4.736506555254e-01 
1  2.291874838146e+01  -1.975922626634e+00   2.392687392779e+01 
1  6.149196461732e+01   2.074270092478e+00  -3.252155193648e+01 
1 -3.358519529106e-01  -2.433176417633e+01   8.695467535012e+00 
1  5.488120305170e+01   2.642312550969e+01  -7.109256091507e+00 
8
Step 14000
1  8.508571931023e+01   4.126887631115e+00   4.467539754865e+00 
1  1.966514515732e+01  -1.643032128773e+00  -4.113037852410e+01 
1  3.103519607326e+01  -1.918898611578e+01   8.240885708388e+00 
1  8.538770766708e+00   1.157063522442e+01   5.560207000370e+01 
1  4.222498544749e+01   4.384204053186e+01  -6.055507734552e+01 
1  1.970775491604e+01   3.433299713613e+01   3.637544098581e+01 
1 -1.465187715935e+01  -6.016025379717e+01  -8.443542844580e+00 
1 -1.657014881836e+01   1.558957729921e+01   4.005234514075e+01 
8
Step 15000
1  1.535561570100e+01  -7.268136900934e+01   2.951514472870e+01 
1 -4.791355844136e+01   7.858202928666e+00  -5.330865363436e+01 
1 -1.991719387900e+01   2.982590136885e+01   2.804274297681e+01 
1 -4.096043807923e+01  -7.016871791460e+01   1.345702172643e+01 
1 -2.626996370457e+01   1.711331472206e+01  -7.425499701278e+01 
1 -7.453876727680e+01   4.586946861497e+01   4.838105962243e+00 
1  2.443293689107e+01   2.899232656017e+01  -3.331935030849e+01 
1  2.980441026587e+01   2.750604757481e+01   2.166200137779e+01 
8
Step 16000
1  4.046642736074e+01   4.370711875379e+01   5.382095044069e+01 
1  1.426991695658e+01  -2.015844335026e+01  -7.086361983826e+00 
1  4.472248730261e+01   4.151173623437e+01   3.317907818798e+01 
1  3.620748120022e+01  -3.689442699029e+01  -9.795106009487e+00 
1 -2.186896641629e+01   2.220201185843e+00   2.230989373533e+01 
1 -1.181377452951e+01   7.964602182323e+00  -4.653941854248e+01 
1 -6.529671609125e+00   1.568184438077e+01  -4.315675393751e+01 
1  2.723184108590e+01  -5.098572804154e+01  -3.913937080622e+00 
8
Step 17000
1  4.524276836690e+01   3.189118477816e+01  -5.969461328319e+01 
1  4.563527435851e+00   6.500487163067e+00   3.234543649600e+01 
1 -2.139921659910e+01  -1.513300681289e+01   1.258984216585e+01 
1  2.742568736962e+01  -3.873448705819e+00   2.121037524865e+01 
1 -2.880058709083e+01  -3.172093630701e+01   5.586423197137e+01 
1  3.836736902168e+01   4.133961024344e+00  -7.271016375527e+01 
1  2.314323110830e+01  -2.043650150252e+01  -2.298513929677e+00 
1  3.472072507689e+00  -2.789741330599e+01  -1.212892931968e+01 
8
Step 18000
1  6.194594589565e+01   2.152359935205e+01  -1.045839188295e+00 
1 -2.026990676092e+01   1.147494165737e+01  -1.986542421962e+01 
1 -3.075802780448e+01  -1.947846536395e+01   5.247877093798e+00 
1 -1.646691461448e+01   5.044454187104e+01   1.416386335719e+01 
1 -2.365985694348e+01   2.947501851691e+01   7.109211200329e+00 
1 -1.572436250707e+01  -3.954532683587e+01  -1.480524503000e+01 
1 -2.385191476422e+01   4.485705990444e+01   4.464129167429e+01 
1  9.429262334109e+00  -2.134187607266e+01  -2.737817208845e+00 
8
Step 19000
1 -1.575389747789e+01   5.673719443673e+01   8.518921456930e+00 
1  2.994108644044e+00   3.465391804906e+01  -5.302509530838e+01 
1 -5.921552674709e+01  -2.598738725305e+01   2.691651682166e+01 
1 -3.075478442145e+01   3.847329808563e+01   5.001090483459e-01 
1 -1.681404393488e+01  -2.531134275343e+00  -7.947940241456e+01 
1  2.240734214420e+01   2.280572402133e+01  -1.124964877906e+00 
1  1.072231379255e+01   4.818894950598e+00  -3.588235967625e+01 
1  3.153795864305e+01   1.171687143067e+01  -3.591050687644e+01 
8
Step 20000
1 -3.425244701627e+00   3.450566507538e+01  -2.474398710786e+01 
1 -3.276962407199e+01   1.430767243210e+01   4.316776053651e+00 
1 -4.050395816483e+01   6.613926688497e+01   6.149331305132e+00 
1 -4.126977450051e+01  -2.584987449257e+00   1.739440567752e+01 
1 -2.693906403510e+01  -6.855443109606e+01  -2.251163956915e+01 
1  2.800939251449e+01   6.106557430312e+01   1.733440069955e+01 
1  4.894759416819e+01  -6.023835075055e+01  -3.836240646187e+01 
1 -6.203613331707e+00  -4.369051472821e+01   3.268367742472e+01 
8
Step 21000
1 -4.580818212415e+01   2.061885114398e+01  -1.778404845518e+01 
1  2.273300015429e+01   4.548406730978e+01   1.178459896729e+01 
1  1.976476263307e+01   1.602349922592e+01   1.008910072087e+01 
1 -7.018147176010e+01   2.948026724308e+01  -2.707545102119e+01 
1  4.520483151099e+01  -2.485756042573e+01  -4.538827324304e+01 
1 -5.183103644648e-01  -2.075552246506e+01  -2.031352338822e+01 
1  6.193205581065e+01  -2.641536181002e+01   1.051290949629e+01 
1 -2.155805162021e+01  -1.069435975819e+01   4.239210352489e+01 
8
Step 22000
1 -1.501100956789e+01  -2.290058778821e-01  -8.588856938245e+01 
1  1.017603295001e+01  -2.512227511172e+01  -7.036805404531e+01 
1 -7.803427798286e+00   3.360187561384e+00  -1.592814199519e+01 
1 -3.095719703336e+01   1.470419585277e+01  -6.520579278840e+01 
1 -7.818460860334e+00   1.554523978962e+01   2.029315826420e-01 
1 -4.482484288432e+01  -3.492516085793e+01  -2.235095473703e+01 
1 -6.357563101578e+00   4.723507189645e+01   1.934099641273e+01 
1  3.952180092618e+01  -1.213864042877e+01   6.382669579316e+00 
8
Step 23000
1 -1.048135607408e+01   4.165973728016e+01  -1.869134825967e+00 
1 -3.001471439799e+01   7.327905979644e+00   3.342282451824e+01 
1 -4.153476638965e+01   3.534162138487e+01  -6.093849292899e+01 
1  5.445743586808e+01  -5.522228492714e+01  -1.773946604323e+01 
1  2.184705387725e+01  -2.562992942580e+01  -3.318913700024e+01 
1 -3.250113447077e+01  -2.153632271715e+01   5.018134680601e+01 
1  6.412299565725e+01   3.817611040267e+01   4.473788239276e+01 
1  3.539174016801e+01   2.601754661278e+01  -6.647379438807e+01 
8
Step 24000
1 -4.758473318561e+01   2.366514840893e+00  -2.198664797869e+01 
1 -1.022609915452e+01   2.390718052312e+01   3.499518263256e+01 
1 -1.229786699424e+01  -4.064109839320e+00   3.549333223245e+01 
1 -1.770663030235e+01   1.469760378337e+01  -3.548892194737e+01 
1  1.049074634890e+01  -8.728415776799e+01  -2.115487450800e+01 
1  1.341231796964e+01  -3.841002611016e+01   7.738626275530e+01 
1  2.149894471048e+01  -6.603937016668e+01   1.786156246212e+01 
1  3.621230665241e+01  -1.024166458489e+01   4.330609735364e+01 
8
Step 25000
1 -2.092995079250e+01  -1.902345796102e+01  -6.140839051556e+00 
1  5.764655292658e+01   4.597179956099e+00   2.074105869836e+00 
1  4.397540419572e+01   1.188218580822e+01   4.724231181525e+00 
1 -1.841004505373e+01   2.870779200712e+01  -3.543758022600e+01 
1 -2.116180859199e+01  -1.789641211881e+01   3.873911223045e+01 
1  2.365652005543e+01   1.156220789734e+00   6.577585153738e+00 
1  7.274513191401e+01  -3.316729290848e+01   3.068437333647e+01 
1  3.186381890618e+01   1.710737423071e+01   3.004389199283e+01 
8
Step 26000
1  6.415544030374e+01   1.433926404810e+01  -3.374910358262e+01 
1  1.157950553864e+01   2.492675380870e+01   2.308445462883e+00 
1 -3.258081060861e+01   3.050195694003e+00  -2.074429473553e+01 
1 -3.230448293316e+01  -8.582064710149e+00  -2.873450296247e+01 
1 -1.133828693128e+01   8.199691296456e+01   2.634478046286e+01 
1 -2.962147245858e+01  -1.052759279094e+00  -5.271492224342e+01 
1  3.672239077350e+01  -4.319241537703e+01  -1.416247606302e+01 
1  3.591815355263e-01  -8.095154545222e+00  -4.404602422549e+01 
8
Step 27000
1  2.862324775560e+01   2.372141180503e+01  -4.528884467561e+01 
1 -3.381812248621e+01   1.501335295903e+01   2.334497356680e+01 
1 -1.085893697764e+01  -3.342443308051e+01   3.592769457953e+01 
1  1.604621532858e+01  -5.352788180107e+01   5.500738587625e+01 
1  3.049980254847e+01   3.265071006427e+01   1.947993421414e+01 
1 -1.690897965542e+01  -2.867347367544e+01   6.356463758835e+00 
1  4.214755025140e+00  -2.789903557446e+01   1.867142795225e+01 
1  7.414912445200e+01  -4.462734758345e+01  -6.954639939987e+00 
8
Step 28000
1 -1.034379915510e+01   6.282836513502e+00   2.718071171368e+01 
1 -4.527921621942e+01   5.402294847192e+01  -2.793271491570e+01 
1 -2.877729414878e+01   6.978124096675e+01   1.262019780992e+01 
1 -2.878395579144e+01   1.452849202260e+01   1.226180932576e+01 
1  3.420521495572e+01   9.610757948742e+00  -2.898841372582e+01 
1  1.074002760562e+01  -4.270855417176e+01   2.613044491674e+01 
1 -2.743607584606e+00  -2.126856453798e+01  -5.570687484248e+01 
1  4.612204973084e+01  -9.101906118111e+00  -4.945760369699e+01 
8
Step 29000
1  1.009764902311e+01  -9.057555579868e+00  -6.605818686746e+00 
1  7.929321109754e+00  -8.868715470374e+00  -7.072886102167e+01 
1 -4.145985808422e+01   4.106670280313e+01  -2.436709975140e+01 
1 -4.980580056405e+01   5.364694718732e+01  -3.446025587244e+00 
1  4.368398202940e+01   6.536752386859e+01  -5.506049317040e+00 
1  2.284206927127e+01   6.305952190084e+01  -1.509942872097e+01 
1  7.816318755212e+01   2.393651728902e+01  -3.885920496285e+01 
1  6.330387999758e+00  -5.102166310837e+01   3.559288674259e+00 
8
Step 30000
1  8.061432203630e+01   1.979859661431e+00  -2.641012014352e+01 
1 -6.200650274782e+01   1.413878391325e+01  -3.689227260660e+01 
1 -1.174345436302e+02  -8.717854818066e+00  -5.488270709833e+00 
1  1.165286564925e+01   4.860349280639e+01   2.565758419315e+01 
1 -4.106159046491e+01   3.947187355474e+01   4.365028824414e+01 
1  2.824528414607e+01   3.939323654495e+01  -3.276167745289e+01 
1  3.735173417930e+01   8.278300219049e+01   2.753842081436e+00 
1 -3.685176561270e+01   6.823777553585e+00  -1.973455767909e+01 
8
Step 31000
1  4.718766292379e+01   6.457763816794e+01   9.384137782128e+00 
1 -5.284017407583e+01  -1.869940259273e+01  -1.000466567351e+01 
1 -3.421766733017e+01  -2.986683348560e+00   4.099360012668e+00 
1 -3.044091001152e-01   1.222664561871e+01   6.690180174963e+01 
1 -2.103714278482e+01   5.543908117269e+01  -1.024983893664e+00 
1 -1.422708633106e+01  -3.081059104438e+01   2.090802924739e+01 
1 -2.088449329825e+00   2.329124017327e+01  -1.412048419611e+01 
1  4.185319743292e+01   1.398469232136e+01  -5.318747713676e+01 
8
Step 32000
1 -2.626380927968e+01  -2.357719863971e+01  -3.230579152941e+00 
1 -2.396515995006e+01   1.400816441492e+00  -1.966111999309e+00 
1 -5.896659617093e+01   4.976033776217e+01  -2.455624678052e+01 
1 -6.274887147246e+01  -1.758294044964e+01  -2.930755223593e+01 
1  3.250518359957e+01   2.818751335453e+01  -7.078695863187e+01 
1 -3.716635337845e+01   3.059905651896e+00   2.482448120462e+01 
1 -1.213586118442e+00  -5.048113896677e+01  -8.409494364726e+01 
1 -4.199051638094e-02   5.401000875655e+00   1.929177700607e+00 
8
Step 33000
1 -2.210590450346e+01  -1.401158491794e+01  -2.711916419835e+01 
1 -1.444380960184e+01   5.950853130099e-01  -2.460165955901e+01 
1  1.023526374691e+01   1.413013197392e+01  -4.534887283610e+01 
1 -9.122317427609e+01   3.040771635542e+01  -2.101047476789e+01 
1 -2.813549737104e+01   7.895151325910e+01   1.218930279878e+01 
1  2.745802142388e+01   6.499682637420e+01   1.251954504112e+01 
1 -3.839187169064e+01  -4.247460714321e+01  -4.114955485177e+01 
1 -5.852051186028e+00   1.102213119074e+02   1.297503338275e+01 
8
Step 34000
1 -3.255541476015e+01  -2.675565424714e+01  -6.531636538094e-01 
1 -2.094869220200e+01  -2.334204690696e+01  -8.776183623216e+00 
1 -2.164866793745e+01  -2.646212687514e+01  -1.576108387284e+01 
1 -3.756016730461e+01   1.772616403496e+01  -4.801050522265e+00 
1  7.728352172681e+00   1.441611785262e+01   2.878441546808e+00 
1 -1.606467106665e-01   6.637771650773e+01   1.034982306609e+01 
1 -4.129609506494e+01  -1.134872723734e+01   4.271278740393e+01 
1 -1.969730817801e+01  -9.795603164891e-01   4.446551602860e+01 
8
Step 35000
1 -4.611350871732e+01   3.400704603919e+01   4.844358898331e+01 
1 -2.608564848209e+01   1.669179692150e+01  -4.909488173079e+01 
1 -5.880940344770e+01  -3.844513034712e+01   4.309756667033e+01 
1  1.085712266584e+01   1.717350710440e+01   1.185456037224e-01 
1  7.566386689725e+01  -2.260217856719e+01   4.902667373383e+00 
1 -3.908406597482e+01  -4.103942294962e+01   4.514197612529e+00 
1  2.144406913928e+01   1.783641646189e+01  -1.594782739045e+01 
1 -6.181599375946e+01  -8.208863924286e+00   4.564768418143e+01 
8
Step 36000
1 -3.685559163304e+01  -2.141866305734e+01  -6.584966567946e+00 
1 -6.342036747145e+01  -6.218826063269e+01   3.719428309566e+00 
1  4.515470676915e+00   1.075464568832e+00   9.495825550924e+01 
1  4.447157161885e+01  -7.134929958339e+00  -7.278499545916e+01 
1  1.539659503760e+01   2.348644164436e+01  -2.286552767410e+00 
1 -5.353656720773e+00  -1.154947703352e+01   3.062238481510e+00 
1  1.269546411502e+01   3.805848374790e+01  -6.748988519172e+01 
1  5.620017838590e+00   4.711329350450e+01  -1.396258545727e+00 
8
Step 37000
1 -9.328574724449e+01  -2.419494406568e+01  -9.016184201528e+01 
1  3.952408043676e+01  -3.406976597362e+01   3.531954268801e+01 
1  2.907570458846e+01   1.058026425738e+02  -3.207699067652e+01 
1  4.873178737932e+01  -6.890339349139e+01  -4.331626820573e+00 
1 -1.302083191457e+01   2.375215185872e+01   2.458629910344e+01 
1  6.037129068189e+00  -4.884214791869e+00  -1.559931441439e+01 
1 -4.295229948706e+01  -1.058935470428e+01   9.817892099181e+00 
1  2.709947483885e+01  -2.218088357829e+01   4.251873988513e+01 
8
Step 38000
1 -2.014027666419e+01  -4.210585304736e+01   2.756152217066e+01 
1  4.658878490663e+01  -8.288343447179e+00   4.690015794733e+01 
1  1.047755654575e+02  -6.860076914795e+01  -4.420921974770e+01 
1  9.879643508724e-01  -6.622652726307e+01   4.884295856059e+01 
1 -1.535146590535e+01  -3.081014365199e+01  -4.048510962026e+01 
1 -2.935930812008e+01  -1.821552354108e+00  -4.046786914305e+01 
1  2.569872153270e+01   3.787286545048e+01   2.296094113288e+01 
1 -1.292301706102e+01   1.943836443833e+01   6.428049204365e+01 
8
Step 39000
1  5.293426826036e+01  -2.233409705614e+01   3.017198655897e+01 
1 -6.487260827591e+01  -2.487825451893e+01  -6.006102493956e+01 
1  2.091255724624e+01  -3.546989772690e+01   2.533828161956e+01 
1  9.096728746969e+00  -3.633922013301e-01  -4.608851864591e+01 
1  5.370761787941e+01  -5.291277227430e+01  -2.313724809172e+01 
1 -2.724184702481e+01  -3.784234261939e+01   4.588256283030e+00 
1  5.414070806124e+01  -3.503462128287e+01  -3.408008509335e+01 
1 -2.959218812510e+01   2.036105728455e+00  -1.466007123600e+01 
8
Step 40000
1  2.045562122650e+01  -3.250257563598e+01   1.480143925605e+01 
1  1.633718823670e+01  -2.301265416092e+01  -1.657171621465e+00 
1  4.672183163586e+01   9.315909886108e+01   1.854981415603e+01 
1  4.282454878525e+01  -3.069745604038e+01  -6.477848783950e+01 
1 -2.167693087002e+01  -1.070580832914e+01   4.301061705030e+01 
1 -3.215957545997e+01   2.475788926675e+01  -3.612557507832e+01 
1 -2.535501240709e+01  -7.304267491235e+01  -2.570435579086e+01 
1 -3.031839713253e+01   4.465460234742e+01  -2.292323542592e+01 
8
Step 41000
1  3.864953905056e+01  -1.181572058927e+01  -2.872227912853e+01 
1  6.548460756483e+01   7.596535069404e+00   4.300516999861e+01 
1  2.001612201374e+00   3.192400244764e+01   3.997368743449e+01 
1 -9.459104475873e+00  -4.628319715617e+01  -1.222172620692e+01 
1 -9.761917461110e+00   6.528989089605e+00   2.614767300898e+01 
1  3.762259232320e+01  -2.789128078839e+01  -2.936830572735e+01 
1 -6.838282852075e+00  -9.397256489970e+00  -1.417435874517e+01 
1  3.529771434856e+01   1.766477101309e+01  -4.149209317272e+00 
8
Step 42000
1  7.680784277799e+00  -3.277606647266e+01   8.699611775588e+00 
1  5.759641407051e+01  -5.236787889890e+00   5.500769720449e+01 
1  1.260049257811e-01   1.646097170944e+00   1.368351010154e+00 
1 -6.647878691445e+01   3.038440614037e+01  -1.067103203388e+00 
1  3.032372111326e+00   5.112934512181e+01  -1.799132071983e+01 
1  9.938632039225e+00  -1.942928957892e+01   2.412825242594e+01 
1 -6.792299812600e+01   3.633964490493e+00   7.072706819708e+00 
1  7.186758969061e+00  -4.451502594702e+01   4.170980367383e+01 
8
Step 43000
1  1.599641524226e+01  -6.041792152764e+01  -9.287654760976e+00 
1  6.391710411326e+00  -1.710303512881e+01  -3.429060322359e+00 
1  9.458955141923e+00  -1.043941031039e+01   2.445231374050e+01 
1 -2.346525958931e+01   5.025535759397e+01   2.622829580639e+01 
1  8.938221130547e+00  -1.358847859423e+01  -5.260454338388e+01 
1  3.548303569535e+01  -1.558949432833e+01   1.615186820440e+01 
1 -7.304774258573e+01   4.415681348980e+01  -5.909421377196e+01 
1  2.438676244433e+00  -2.080393501171e+01   7.018250483073e-01 
8
Step 44000
1  5.400117260886e+01  -4.695392104056e+00   2.966279722294e+01 
1  9.440702768530e+00   5.037473472572e-01  -4.346127659428e+01 
1  2.193566037083e+01  -2.293081792460e+01   8.839963889894e+01 
1 -4.182387796820e+00   4.169465156409e+01   2.939430353453e+01 
1  2.730741417964e+01  -6.084925267198e+01  -7.132377129345e+01 
1 -7.469327359283e+00   4.328761776614e+00  -2.111418720582e+01 
1 -2.680733242752e+01  -1.630366600086e+01  -8.094586700146e+01 
1 -5.504178424467e+01   1.601803529408e+01   1.817836887007e+01 
8
Step 45000
1  3.030327639658e+01  -4.577506590668e+01   7.834112196751e-01 
1  2.149266584761e+01  -1.526797860913e+01   6.735319734049e+01 
1  1.770568153145e+01  -5.671291616010e+01   3.251511686551e+01 
1  1.466846782246e+01  -6.299976659738e+01  -4.255396613629e+01 
1  6.801373243349e+00  -5.443921080826e+01   4.390495311190e+00 
1 -2.297940009629e+01   5.324222518656e-02  -6.050007969543e+01 
1 -1.969323267085e+00  -1.025668274178e+01   3.768664764203e+01 
1 -9.846787011749e+00   3.395534883803e+01  -7.128293243791e+00 
8
Step 46000
1  1.463567266778e+01  -1.066582378465e+01  -3.944765586815e+01 
1  5.531081342792e+01  -1.633857491885e+01   1.438743494726e+01 
1 -2.383583644378e+01  -2.352348926884e+01  -2.949697342517e+01 
1  7.425919508208e+00   4.966300530429e+00   9.818480241852e+00 
1 -1.103977931702e+01   5.586305872328e+01   1.107813683988e+00 
1 -1.227317941184e+01  -5.309234165512e+01  -2.131647025670e+01 
1 -8.163562928233e+00   3.000198991587e+00   6.476416762816e+01 
1  3.170003735213e+01   3.476432262452e+00   4.111077360370e+01 
8
Step 47000
1 -7.160579826272e+01  -3.657650444784e+01   1.736103705872e+01 
1 -1.110227031636e+00   1.019719776872e+01   2.633279414855e+01 
1  4.775252877771e+01  -5.020237390469e+01  -4.077097089399e+01 
1  4.075586021943e+01  -2.482080437910e+01  -7.773237496505e+00 
1  4.910288863830e+01  -2.625997398609e+01  -3.009118947304e+01 
1  1.744573528973e+01  -4.326559475426e+01  -4.013188396242e+00 
1  1.072178956093e+01  -8.677361524319e+00  -3.932356107117e+01 
1  1.449642355800e+01   6.688943522554e+01  -2.166520042289e+01 
8
Step 48000
1  1.508183503073e+01   3.149036690927e+00   8.731310399444e+00 
1  2.862656580658e+01   1.350843989014e+01  -9.845325976576e+00 
1  1.864114320180e+00   8.258877837788e-01  -4.168333271884e+01 
1  1.590283546942e+01  -1.289233628240e+01  -1.681304941047e+01 
1  4.266963731861e+01  -2.068681204126e+01  -3.009700119814e+01 
1 -3.815126095075e+01   4.144681873764e+00  -1.182864117039e+01 
1  8.652658124134e+01   5.320443321357e+00  -5.433494762314e+01 
1 -6.309166404576e+01   1.362439156205e+01   2.376923420807e+01 
8
Step 49000
1 -7.277214645319e+00  -1.720366680902e+01   2.933315842934e+01 
1  1.862505502233e+01  -6.218679223134e+01   9.227721946745e+01 
1  5.817882488894e+00  -1.054137158711e+01  -1.788985652260e+01 
1  3.188192594304e+01  -1.092151643681e+01  -5.215496595928e+01 
1  5.417354491419e+01  -3.104635471043e+01   1.236201217483e+01 
1 -5.389698857821e+01  -6.332047487494e+01   2.427494336369e+01 
1  1.483942311169e+01  -3.948122000345e+00  -1.178783161265e+01 
1  5.806898393667e+00   1.436312495696e+01  -3.616394945631e+00 
8
Step 50000
1 -7.784461251357e+01  -5.507945110703e+01  -2.913311362661e+01 
1  4.802974217754e+01  -4.280020959867e+01   7.476957445267e+01 
1  3.515319723396e+01  -3.814614059145e+01  -7.637902464048e+01 
1  8.359984360977e+01   2.231261378540e+01  -5.681328646584e+01 
1 -4.794949751366e+00   6.061986681350e+00  -2.049939324219e+01 
1 -5.400221486560e+00   5.014329903896e+00  -5.712594485198e+00 
1 -8.202744492325e+01   2.970126211531e+01   3.681379543183e+01 
1  1.364090165835e+02  -3.521439669870e+01  -3.708218626913e+01 
8
Step 51000
1 -2.868763241948e+00  -2.297056125012e+01  -5.603201833740e-01 
1  2.107467356158e+01  -2.310538558777e+01  -3.127315994476e+01 
1  8.086277956252e+01  -4.947988335271e+00   2.078420752291e+01 
1  6.165226893136e+01   8.046052626708e+01  -2.978579710745e+01 
1  2.161304208707e+01   2.508156438937e+01  -4.443141652400e+00 
1 -7.421109500867e+00  -1.193521173613e+01  -6.953172285232e+01 
1 -9.177174702032e+00   1.565459658997e+01  -1.623965053618e+01 
1  3.705974301946e+01   3.030435473950e+00  -8.079716374877e+01 
8
Step 52000
1  4.028794906143e+01  -5.157802335566e+01   5.972030886646e+01 
1  4.982548424936e+01   3.491685518076e+01   9.459486828078e+00 
1  7.519166597754e-01  -3.176729176486e+01   3.877525709200e+01 
1 -4.867115263204e+01   4.533214646710e+00   2.306254281899e+01 
1  3.286226996687e+01  -9.005923884856e+00   1.596436514793e+00 
1  3.269143974523e+01   2.240372997092e+01  -6.258905987514e+01 
1 -1.203465649511e+01  -2.869030880360e+01   8.993738801406e+00 
1  1.630034514269e+00   8.933426761149e+01   6.154483719638e+01 
8
Step 53000
1 -8.388694995949e+00  -4.148251573338e+01  -3.668509153425e+01 
1  7.701143934649e+00  -6.882800188960e+01   2.297039436863e+01 
1 -2.148807838874e+01  -1.165143759947e+01  -1.669707589216e+01 
1 -2.910385903320e+01   2.757682910732e+01   4.603310664293e+00 
1  3.904411778028e+00  -8.032313385904e+01  -4.601775051282e+01 
1  2.728226658956e+01   4.896280670666e+01   4.456498765968e+01 
1  1.517988111317e+01  -1.283774964724e+01   1.245469115005e+01 
1 -3.005413197898e+00   4.863528891277e+01  -1.869810082411e+01 
8
Step 54000
1  4.492205110430e+01   1.443343924220e+00   1.531511592961e+00 
1 -5.730560585962e+01  -2.263587866356e+01  -1.535581948756e+01 
1  4.390481967836e+01   2.213043405898e+01   1.400145530277e+01 
1  4.592575490248e+00   1.941078729968e+01  -1.419366406133e+01 
1  9.789441964699e+00   4.367481708690e+01   7.365129563145e+00 
1  2.767490863375e+01  -4.036622864160e+00   5.052505469912e+01 
1  3.259805730737e+01   1.416308074333e+01  -1.516362805626e+01 
1 -7.402894331417e+01  -1.607862435276e+01  -2.245997798413e+01 
8
Step 55000
1 -2.850080269006e+01  -1.940496277685e+01  -1.776356911198e+01 
1  1.654072063121e+01   7.922586536862e+01  -4.815118956598e+01 
1  4.525836806791e+01   1.707207923620e+01   4.679392984106e+01 
1  1.800472978850e+00  -1.780374727758e+01   2.321935333161e+01 
1 -4.553739698490e+01  -2.519512977776e+01   6.407931367675e+01 
1  5.266309542171e+01   7.433286414752e+00   1.871756081635e+01 
1 -4.449751244384e+00   1.506391340174e+01  -4.929207657923e+01 
1  1.171615967396e+01  -4.182980372114e+00  -3.961491635630e+01 
8
Step 56000
1  5.121761390738e+01  -1.668605533931e+01   2.684387780503e+01 
1  5.253379904592e+01  -8.590548493655e+00   2.990142734742e+01 