8
Step 0
1 -6.56289497729523390e+01 5.64193820346903010e+01 8.60337798242653662e+01
1 -7.31874695814452423e+01 9.79549514979741502e+01 5.36918972500275515e+01
1 1.24671094116073675e+02 6.56403031169460291e+01 6.07099133048670012e+01
1 -1.17333615088171030e+02 3.48570294407624601e+01 -5.87799657065690582e+01
1 -8.83604689712744005e+01 7.28449696876566293e+01 1.25838353857706409e+02
1 -2.51037758046036004e+01 -1.12505837270005017e+02 -1.15943018914769283e+02
1 1.16235942894024276e+02 -7.00313217302731914e+01 5.06630763141690750e+01
1 3.58580036374638098e+01 -6.00310343849119477e+00 -5.46996624035566725e+01
8
Step 1000
1 -1.14227394709821937e+02 7.40398338289866302e+01 8.88646489010415053e+01
1 -6.17499749830153419e+01 1.07670828678759619e+02 -7.55010833633645539e+00
1 1.03268398027527084e+02 7.68050162776549143e+01 3.00571751184795275e+01
1 -7.05149555166004234e+01 8.94745889979524662e+01 2.07043522366128805e+01
1 -7.22930081747863511e+01 1.34012815220386699e+02 1.20995505985444311e+02
1 -5.21773951847795061e+01 -1.27407846612851856e+02 -1.26277973340446167e+02
1 5.82164828588062875e+01 -8.57802532072605572e+01 7.73584250433286371e+01
1 -1.01974619248992848e+00 -9.24584289399431043e+01 -5.73518548189436288e+01
8
Step 2000
1 -1.13339018634302889e+02 7.72132184414985403e+01 5.11235793402215393e+01
1 -1.71039601889148756e+01 6.16468818593412351e+01 -6.64188963364200191e+01
1 4.46610440749553774e+01 4.97029619930909803e+01 -5.64154286127617866e+00
1 1.33574403791458938e+01 1.03469183893535927e+02 8.59055781296428336e+01
1 -1.38756814845312100e+01 1.44208612894429791e+02 7.48263030784852958e+01
1 -5.58827407689221545e+01 -7.90307640253383710e+01 -8.86327216185779463e+01
1 -2.71857661681636076e+00 -8.05742234448977683e+01 5.57064342467753590e+01
1 -4.40334684916127443e+01 -1.36286029888244457e+02 -5.14665787303962432e+01
8
Step 3000
1 -6.38267119473934841e+01 6.38738286883572144e+01 -6.48154142428794522e+00
1 4.10654913011267695e+01 -1.47451139888907701e+01 -1.03206705597473771e+02
1 -3.21855921491464585e+01 -8.83105672673745068e-01 -3.81432029495709131e+01
1 8.88007470237015042e+01 7.12172061360267037e+01 1.21709108641659355e+02
1 5.10647672850391814e+01 1.00554776823245945e+02 1.75437925525401828e+00
1 -2.81234339660620236e+01 1.09439298859642165e+01 -2.57947164355846006e+01
1 -4.54838609496716728e+01 -4.90533872640834687e+01 5.78300548470836229e-01
1 -7.66650029060798772e+01 -1.21937883829516792e+02 -3.64423659138696152e+01
8
Step 4000
1 1.00762062849584311e+01 3.39536981041556274e+01 -5.39037650085751636e+01
1 8.33599605075908556e+01 -7.73051096676362022e+01 -1.07293516968314066e+02
1 -9.68660163290170857e+01 -4.96630923240748459e+01 -5.98391997421634230e+01
1 1.18210717689314222e+02 8.40978086948524961e+00 1.26998498200558828e+02
1 8.45339635657679480e+01 2.41315788364452573e+01 -6.78177662428627457e+01
1 2.44341277028067765e+01 9.24062751697540250e+01 2.92774801519446086e+01
1 -6.27650449653498654e+01 4.74122314858411453e+00 -5.47312795054908960e+01
1 -8.45809413215194184e+01 -6.25346462150215245e+01 -1.10246345970665995e+01
8
Step 5000
1 7.10851148246725302e+01 -9.76715604423487171e+00 -6.93072455765331910e+01
1 8.90607533272048215e+01 -9.50774830180665731e+01 -7.98022689540990058e+01
1 -1.26914308440469213e+02 -7.43713661270337809e+01 -6.55719756002785914e+01
1 9.36868674142955769e+01 -5.29940149146391875e+01 1.07355765381081909e+02
1 7.06628659695600163e+01 -4.73139514120986533e+01 -1.06147081195014096e+02
1 8.00355078526373660e+01 1.26206912416675834e+02 5.39592619102785704e+01
1 -5.95383174564628703e+01 6.40027689962303157e+01 -7.77654930324891893e+01
1 -6.26506250512339662e+01 7.46035730945560083e+00 2.34341156977043639e+01
8
Step 6000
1 9.41477589817885843e+01 -5.98913251647824296e+01 -4.91637335348680935e+01
1 5.62730455344316809e+01 -6.67131149697172106e+01 -3.27103071740977782e+01
1 -1.17360195759715410e+02 -6.57890153128758328e+01 -5.35908546108678578e+01
1 3.18119173322657254e+01 -8.35317205074389904e+01 7.02034274171420520e+01
1 1.96007772186741782e+01 -8.45482294150813232e+01 -1.04069316895524366e+02
1 1.11993781145550386e+02 1.07329083430774219e+02 4.69052532622061022e+01
1 -4.60404144750948703e+01 1.05842501068923312e+02 -5.55831613426525664e+01
1 -1.76106604195270471e+01 5.21008040863376181e+01 6.02378431003987629e+01
8
Step 7000
1 7.81775889438008988e+01 -1.04094819974627811e+02 -6.70921540973846398e+00
1 1.97946734144798508e+00 -1.42500921596596388e+01 1.47822762679027679e+01
1 -7.71209752562611612e+01 -2.85640237690894061e+01 -2.63010017530093947e+01
1 -3.54138030317990200e+01 -7.28837479811932667e+01 2.36935599227227058e+01
1 -3.92442185451165102e+01 -8.24632002108636470e+01 -6.99296232485954192e+01
1 1.03093585633766750e+02 5.30712862484423766e+01 2.32553909443172451e+01
1 -3.15390740866518975e+01 1.14141181978846859e+02 1.09240941624074939e+00
1 3.31190464008087702e+01 5.66081792379806359e+01 8.83020500718104984e+01
8
Step 8000
1 3.96090936604398607e+01 -1.28176852765968590e+02 3.52766109032997903e+01
1 -4.56758235560308066e+01 3.08858103965833486e+01 4.55509449265382855e+01
1 -2.40859720645711697e+01 2.17287036717428279e+01 9.34631881581358570e+00
1 -7.87011418886164051e+01 -3.07867707984074350e+01 -2.32862632486561516e+01
1 -7.49616635311851098e+01 -5.29832371963993722e+01 -2.32907873680931488e+01
1 5.25455612262728664e+01 -9.16494543716627064e+00 3.39103453579665448e+00
1 -2.06620353904497129e+01 8.62295088938524685e+01 6.20211374087614544e+01
1 6.90265057197723877e+01 2.85172570083257462e+01 9.62944999840918001e+01
8
Step 9000
1 1.48065018488939515e+00 -1.20161135189367442e+02 5.66247971721488952e+01
1 -6.48555071980333935e+01 4.77821794734710892e+01 5.31774917281376531e+01
1 2.23677733291249332e+01 6.47908060294050614e+01 4.30560180796791201e+01
1 -8.53099081839516202e+01 1.91389375469930805e+01 -6.18417310235006283e+01
1 -7.44146393501414565e+01 -1.45951620768168606e+01 1.45426831931140423e+01
1 -2.07101044554274161e+01 -5.55442989892404881e+01 5.82355994465533211e-01
1 -1.28548425835336850e+01 3.35374648067063319e+01 9.52367926351603273e+01
1 7.69713187643991290e+01 -1.04352438099248950e+01 7.65278097032823581e+01
8
Step 10000
1 -1.95296353713737467e+01 -7.32274506311936619e+01 4.96139528528753928e+01
1 -5.25721142899004477e+01 3.53547967963650791e+01 4.25603252319572292e+01
1 5.02183169486413234e+01 8.48680665557388068e+01 6.40849545430653649e+01
1 -5.68691734229555550e+01 5.25458077512981632e+01 -8.46002126802980143e+01
1 -4.48213809102771990e+01 1.62122750215065921e+01 3.15695268406111964e+01
1 -8.31447496664762156e+01 -7.50009580183541829e+01 1.44390706037684424e+01
1 -4.55865361465436614e+00 -2.16320925778556585e+01 8.76532685654867407e+01
1 5.58884890909162948e+01 -3.50023182167514690e+01 2.73519797881403370e+01
8
Step 11000
1 -2.07555133436083068e+01 8.46132586678782417e+00 2.03845508851520059e+01
1 -2.33619476015080565e+01 7.36192650337612609e+00 2.44986613075075006e+01
1 5.72710002514099372e+01 7.61257913623231985e+01 6.38928674940539523e+01
1 -5.71149978861191876e+00 5.81156104336512627e+01 -8.71325598670151606e+01
1 -5.42702304921871459e+00 3.06211390427126524e+01 2.87434882249989805e+01
1 -1.09045745591474372e+02 -6.71703317158743545e+01 3.29078677472411769e+01
1 7.63658354973356168e+00 -5.77272130785572131e+01 4.86182621325018616e+01
1 1.59777921750442076e+01 -2.87829477002207881e+01 -4.36897861768569129e+01
8
Step 12000
1 -1.18187297349232168e+01 1.00120325730612464e+02 -1.57279528489471154e+01
1 1.51091984096120968e+00 -1.78427511199795852e+01 9.07376357824870716e+00
1 4.80594946527409590e+01 4.19561283660320683e+01 3.73901502142640396e+01
1 4.80680466436053138e+01 3.92795259239695298e+01 -6.90522481673084627e+01
1 2.48325402776775768e+01 2.80932340964504377e+01 1.59629706814349301e+01
1 -9.56084112618208053e+01 -3.84935469460487454e+01 4.06188043073551555e+01
1 2.47520010487167212e+01 -6.69061982363460572e+01 1.29783107769670036e+00
1 -2.50764715137285989e+01 8.44757108880416929e+00 -1.17442611323968706e+02
8
Step 13000
1 -7.26217005276165839e+00 1.63932639401855255e+02 -4.27720246198685317e+01
1 8.66686636144775768e+00 -2.76203120561561697e+01 1.15101866812842935e+00
1 3.02603374070755571e+01 -7.19811460369780942e+00 -1.41745878876430194e+01
1 8.46395851155520376e+01 7.47045003402098207e+00 -3.50538912437158245e+01
1 3.71396949886722822e+01 1.41260195840594296e+01 5.78009260713849038e+00
1 -5.75375357437945354e+01 -1.30942655098817001e-02 2.86607271577831177e+01
1 4.46645797256726169e+01 -5.65160947519375441e+01 -3.28989457494123840e+01
1 -4.98230521647562625e+01 5.89795493065528902e+01 -1.69420504826277920e+02
8
Step 14000
1 -1.71835285315681006e+01 1.76444874259211332e+02 -5.22167195923202812e+01
1 -1.25021361324631097e-01 -1.97411815408448987e+01 -2.01497646118465129e-01
1 1.16906037709279005e+01 -5.63781883869359532e+01 -7.61793611762239777e+01
1 9.22012087945279575e+01 -2.52217205697177533e+01 5.16304300636471059e+00
1 3.30535709179445689e+01 -2.55195464384792814e+00 7.50529634892755215e+00
1 -1.49364514943183586e+01 3.61534052353608288e+01 -4.29772973797348024e-01
1 6.23687166522653555e+01 -4.03230432392896390e+01 -4.55791862404125183e+01
1 -4.89043999107827219e+01 9.40668523954093700e+01 -1.80313027924008253e+02
8
Step 15000
1 -4.04717584317181078e+01 1.37574996617494605e+02 -4.46817395891620777e+01
1 -1.23944365895218738e+01 -7.01693266059857601e-01 1.07442558918121356e+00
1 -2.30531626488650243e+00 -9.10704062077586087e+01 -1.21150386193200575e+02
1 6.89552382805505033e+01 -5.01717061178138053e+01 3.98267325890451644e+01
1 1.92172972533947153e+01 -1.32093028302362239e+01 2.23901300085786517e+01
1 1.74889722593173218e+01 6.10305288386594071e+01 -3.41962681248142601e+01
1 7.08612209670078101e+01 -2.83631607150844509e+01 -3.91460204474288815e+01
1 -2.40597812518657648e+01 8.91917978255886652e+01 -1.38504474454822258e+02
8
Step 16000
1 -6.44992854404929261e+01 6.58712242128805627e+01 -2.63335118911792954e+01
1 -1.51600629311201942e+01 1.88863527988937889e+01 1.47322082027687573e+00
1 -1.04523400505579982e+01 -1.01919027850795658e+02 -1.25424152119248191e+02
1 2.25116472762848545e+01 -6.19247274353081281e+01 5.96440042152309147e+01
1 2.69607884220284566e+00 -1.24342038604777123e+01 4.20798926058575233e+01
1 3.41746951502240677e+01 7.06713419569647954e+01 -5.69762016926575114e+01
1 6.26656746540958309e+01 -2.25486427389931663e+01 -2.08164832983007599e+01
1 1.25358177456910003e+01 3.68172509220868065e+01 -4.43376891628012473e+01
8
Step 17000
1 -7.18153856222818945e+01 -7.90945058279818980e+00 -4.14683123890412997e+00
1 -3.13796080984424330e+00 2.95153772922701236e+01 -3.74445914139537483e-01
1 -1.54898429954172041e+01 -8.55667573500312386e+01 -8.35885770527451086e+01
1 -3.19335006572914359e+01 -5.61288293121378601e+01 6.04974588781052987e+01
1 -1.15456638508456528e+01 -5.10468609423016084e-01 5.29268190586601719e+01
1 3.63931571942566308e+01 6.50337290131238319e+01 -5.79622864679123637e+01
1 3.24162163904961460e+01 -1.86798772913837361e+01 6.26479431739786485e-01
1 4.24082613637657957e+01 -4.50485012367221955e+01 7.03042364344235722e+01
8
Step 18000
1 -5.03414728243600393e+01 -5.90673371042398685e+01 1.72349868841009588e+01
1 1.90720218217681676e+01 2.67163448109877741e+01 -3.86386663944939723e+00
1 -2.21047729191423237e+01 -4.49959851322249023e+01 -1.35975665901233711e+01
1 -7.71981801610410230e+01 -2.98115618467085994e+01 4.36400545617493805e+01
1 -2.13132484847780219e+01 1.62312186050635283e+01 4.36197424335768247e+01
1 2.90667540862813780e+01 4.55425473806363925e+01 -3.57055464826050226e+01
1 -1.87713484548934879e+01 -1.17793611301003445e+01 1.70344355826264220e+01
1 4.88973238046200862e+01 -1.17748236554158936e+02 1.49955548334892910e+02
8
Step 19000
1 -1.77783987608585892e+00 -8.05869623395854546e+01 3.56260030493527111e+01
1 3.97695429407954606e+01 1.24453309967948442e+01 -7.22569093409708163e+00
1 -3.31939481884500722e+01 8.35702092920616657e+00 5.05091947899931242e+01
1 -1.00880450355583889e+02 1.40999326167987959e+01 1.49407895102582504e+01
1 -2.64025705363515470e+01 2.78495873097218549e+01 1.23600863883282628e+01
1 1.79480725493262980e+01 1.39331111898468727e+01 1.44101634734707096e+00
1 -7.88802942017711928e+01 -6.49488188430940694e-01 2.31166900374423321e+01
1 2.46312269304502713e+01 -1.48705433227586269e+02 1.65939603864871373e+02
8
Step 20000
1 5.60203372592664479e+01 -7.66486692320413994e+01 4.92737077544435422e+01
1 4.64066678320607906e+01 -6.31556200051903005e+00 -8.48920072919684365e+00
1 -4.64402715124471754e+01 5.68368756363240450e+01 8.23146296863129692e+01
1 -9.77066949739648152e+01 6.29026161842464830e+01 -1.65490891206465847e+01
1 -2.70833574390742839e+01 2.54982253514118291e+01 -2.95140964326376292e+01
1 7.15566841620773886e+00 -2.62431354188353936e+01 3.84830361053497754e+01
1 -1.27075531534312361e+02 1.17514286288544856e+01 1.80117163351467866e+01
1 -2.39522446400413784e+01 -1.26977702841246327e+02 1.26626382377681935e+02
8
Step 21000
1 9.78219062162405777e+01 -5.54372307952409784e+01 5.50735953345781724e+01
1 3.25536014513016738e+01 -2.12067282219154158e+01 -6.51759630621683339e+00
1 -5.36982850085807044e+01 8.52888744593841608e+01 7.70069751578651704e+01
1 -6.85596153874816139e+01 9.80107817725932193e+01 -4.12459085941059911e+01
1 -2.28929535463097125e+01 6.30562108674415089e+00 -6.26686568142509657e+01
1 -2.08861449370305108e+00 -6.74792787536195817e+01 6.06832962358751473e+01
1 -1.43712581537778078e+02 2.11592444373217496e+01 5.45666470215737931e+00
1 -7.55691153540623191e+01 -6.19227585997528251e+01 6.26804554690552891e+01
8
Step 22000
1 1.05636321098992582e+02 -2.68214665117911935e+01 4.86277614824546163e+01
1 1.75550263126649231e+00 -2.65574823473968458e+01 -1.60044410833464323e+00
1 -4.43570182650552951e+01 8.74914885655311565e+01 4.74206248940237671e+01
1 -2.03265749525475137e+01 1.03999556353625692e+02 -5.20506685486005267e+01
1 -1.26242624350604569e+01 -2.38098581947045425e+01 -7.14480940480669204e+01
1 -1.08817270148513394e+01 -9.86133610773126748e+01 6.00690112395125553e+01
1 -1.18124158351144246e+02 2.48232225840625951e+01 -7.78088453846481443e+00
1 -1.02556631627038982e+02 1.81100939495974096e+01 9.60393180200451724e+00
8
Step 23000
1 7.58554158824927782e+01 -4.95303729514389224e-01 2.67282614846573559e+01
1 -3.33408583095176496e+01 -2.18258149822432017e+01 4.62533173566304079e+00
1 -1.19442470598539963e+01 6.63196047828417221e+01 1.44345973624700061e+01
1 3.37580152077000406e+01 7.55407786334376112e+01 -4.62278008461913714e+01
1 4.29058210673763707e+00 -5.13877082591432810e+01 -5.17265464503765955e+01
1 -2.05020969890836326e+01 -1.07852656596840490e+02 3.76254962978918996e+01
1 -5.23489197382937803e+01 2.25601232530992135e+01 -1.48528254437025531e+01
1 -8.49522781706877197e+01 7.98626775788788024e+01 -1.64281509087597613e+01
8
Step 24000
1 2.02471827399729349e+01 1.68075178589598764e+01 -8.64992434415644063e+00
1 -5.68626696591631244e+01 -1.14272745548488182e+01 9.88201086624202851e+00
1 3.87674836244115681e+01 3.13844740619998248e+01 -4.78416031341069736e+00
1 7.74781057977952088e+01 2.12497217007349981e+01 -2.59221043836876675e+01
1 2.57928769441068511e+01 -6.14102587974387859e+01 -1.21805089846412322e+01
1 -3.01375300477922323e+01 -8.68049227754399055e+01 2.14140062235687578e+00
1 3.32348343888551128e+01 1.61521119711918821e+01 -1.18953812390082270e+01
1 -2.01458351874885757e+01 1.05728182577343716e+02 -2.08114881653176340e+01
8
Step 25000
1 -3.75963481210707045e+01 2.33046742538823644e+01 -4.80358576013102194e+01
1 -5.77252956449683978e+01 -1.92221675240182566e+00 1.23463214921017084e+01
1 8.97254800992946713e+01 -4.74585288346511192e+00 -5.17052971610227186e+00
1 9.83585890445883138e+01 -3.74776319675636529e+01 2.37494898009299904e+00
1 4.61689607078590356e+01 -4.48989846821602470e+01 2.93498541785618698e+01
1 -3.61210888900041525e+01 -3.51875046202599577e+01 -3.33095254077724263e+01
1 1.05069835733119092e+02 7.92893279258002437e+00 1.58349813162487418e-01
1 6.78586104794087817e+01 9.56455626074403824e+01 -1.54529495628221110e+01
8
Step 26000
1 -7.47787162277002011e+01 2.19675528620770528e+01 -7.71967199203503185e+01
1 -3.47349653526124982e+01 2.09841800824650404e+00 1.15152190561727252e+01
1 1.17736738406626927e+02 -3.16457939232912260e+01 5.81634246439491864e+00
1 9.17305010098854012e+01 -7.75281622408327138e+01 2.97585990600150438e+01
1 5.71915066713133484e+01 -4.43578712485791282e+00 5.48321294723619417e+01
1 -3.32217971450251071e+01 3.40064544356660647e+01 -5.68204053060828542e+01
1 1.39434519483563577e+02 -5.26589613004988188e-01 1.56808587979318013e+01
1 1.34674882194251381e+02 6.02423729292008048e+01 -1.01133773367475666e+01
8
Step 27000
1 -8.07736180251353773e+01 1.82037278643881351e+01 -8.38055465886006488e+01
1 2.66325542123137193e+00 9.79776222425057797e-01 8.28124470800215562e+00
1 1.06597146007069242e+02 -4.44152834298774764e+01 1.41525300092010990e+01
1 6.11271692615730018e+01 -8.66678223736512479e+01 4.79597085109972951e+01
1 5.12114783832470195e+01 4.43760142380828313e+01 5.50400723448414482e+01
1 -1.75077788889533501e+01 9.60478733222466872e+01 -6.19682042928039252e+01
1 1.33018029504899658e+02 -8.77557274870370385e+00 2.64619000867835013e+01
1 1.48177094979822812e+02 1.60412909062877276e+01 -1.00809537470781230e+01
8
Step 28000
1 -5.89665446973186462e+01 1.65684157673801522e+01 -6.32395767436293497e+01
1 3.81454818745478903e+01 1.70202604760568560e-02 4.22222211263276659e+00
1 5.46499842357909671e+01 -4.35712353936488128e+01 7.92359313967453271e+00
1 1.75717412971378444e+01 -6.64254572279446904e+01 5.19342958933690184e+01
1 2.50079476251028048e+01 7.92657570707614383e+01 3.26209577145904461e+01
1 1.03255068904241174e+01 1.28058391508590489e+02 -4.86447344843772953e+01
1 9.59223250676569421e+01 -1.68146544674945311e+01 2.51702954240684385e+01
1 1.04236499101472972e+02 -2.08852820457088981e+01 -1.55273243914784196e+01
8
Step 29000
1 -2.30494787576603528e+01 1.82098196298426558e+01 -2.14829370404982889e+01
1 5.65226532755882189e+01 6.20245077555794389e+00 4.96681094685176627e-01
1 -2.01432986085101788e+01 -3.30697337723633069e+01 -1.58455432566551639e+01
1 -2.37509551764589375e+01 -2.88017303122763551e+01 4.09588064704067278e+01
1 -1.67653938331892149e+01 8.33270694621853778e+01 9.43710492156508290e-02
1 4.30694921327843332e+01 1.20426207073508877e+02 -2.16384834404493169e+01
1 4.46929004763899158e+01 -2.38286470788100004e+01 8.76279746401838011e+00
1 2.51130402797218331e+01 -4.15302411195170933e+01 -2.23996639597860963e+01
8
Step 30000
1 9.58450941789013910e+00 2.02751609128964709e+01 2.56978166942440716e+01
1 5.09923197882199872e+01 2.30546547147423908e+01 -3.02322917765465959e+00
1 -8.51234169646646848e+01 -1.81419137375176973e+01 -4.87559415088362016e+01
1 -5.03392257201594546e+01 9.37354879554765219e+00 1.83932623363193777e+01
1 -6.07607842300597767e+01 5.30117393419646916e+01 -2.61731213947631751e+01
1 6.85887077794127009e+01 7.78685264240616846e+01 1.14777265668141926e+01
1 -3.87812568089165266e+00 -2.73641316021825318e+01 -1.92675676844623638e+01
1 -4.79727447972491134e+01 -4.59071230114305493e+01 -2.50426550465231905e+01
8
Step 31000
1 2.66784590924233953e+01 1.75446321995468679e+01 6.00153866688127025e+01
1 2.54976044157131447e+01 4.62620060514472016e+01 -7.71519849535385926e+00
1 -1.14209532633421759e+02 -3.46567060568807950e+00 -7.39761818695237423e+01
1 -5.76377737527752600e+01 3.41816171679676728e+01 -9.51775666381020358e+00
1 -8.96217357572764541e+01 3.66469331314680458e-01 -3.42426977115625348e+01
1 7.46138739153747395e+01 1.78111338346485333e+01 4.26596925415883348e+01
1 -3.92156307281406242e+01 -2.36326739759934092e+01 -4.87611603862778153e+01
1 -8.38721332467844007e+01 -4.05828836086223816e+01 -1.94397547656514753e+01
8
Step 32000
1 2.65986420024171650e+01 5.65914772711801373e+00 7.05607439374033021e+01
1 -7.28716270274365741e+00 6.32246331624536069e+01 -1.51072274669095137e+01
1 -1.01165981931176503e+02 8.00007143245315788e+00 -7.41762331633917995e+01
1 -4.90505915268321004e+01 4.02835670978732026e+01 -3.54429498595377552e+01
1 -8.97845220388876299e+01 -5.06367306959780947e+01 -2.20396449880354730e+01
1 5.38212503689639874e+01 -3.59688120756987004e+01 6.52358927402269444e+01
1 -5.82915058126073404e+01 -9.04545835041908042e+00 -6.60861929451337460e+01
1 -7.97032424926893839e+01 -3.38780832505118923e+01 -5.43536594027782005e+00
8
Step 33000
1 1.76116354590784390e+01 -1.55872320627773480e+01 5.77781560810890156e+01
1 -3.19742955196435830e+01 5.82634102323959482e+01 -2.52266559351947706e+01
1 -5.73824795925278437e+01 1.52524996953256977e+01 -4.01114364949960560e+01
1 -3.25436474566039777e+01 3.12004116434148955e+01 -5.27826659690047606e+01
1 -5.69419591784517181e+01 -7.69019546777994663e+01 2.32163957169138557e+00
1 7.85650340843077011e+00 -6.66220631882751917e+01 7.45762486020926190e+01
1 -6.20994856865603921e+01 1.73904338217316230e+01 -5.97766739154460822e+01
1 -5.08976700534732771e+01 -3.06196086621710428e+01 1.30788646379780094e+01
8
Step 34000
1 1.20057131093769787e+01 -4.06284802728262235e+01 3.10596328147273404e+01
1 -3.82825104745500653e+01 2.16886283610802408e+01 -3.52315482201671912e+01
1 -5.88967527363581755e+00 1.87294134296565389e+01 2.21595576076831549e+01
1 -1.63302760430530007e+01 1.57854354402640187e+01 -5.70396988699919305e+01
1 4.95292349871998994e-01 -6.84384000736945524e+01 2.44870180896102383e+01
1 -4.96493525016487069e+01 -7.13675784387389882e+01 6.77868647799893012e+01
1 -5.26129975919168018e+01 5.12613557384416225e+01 -2.60467637811770523e+01
1 -1.73302111361884563e+01 -2.93464942631327901e+01 2.99866247807127060e+01
8
Step 35000
1 1.79680977194623281e+01 -5.93214828837136494e+01 3.27335741392871293e+00
1 -2.57905657419062351e+01 -4.04924869663048312e+01 -3.92527653469364353e+01
1 3.03308443698813868e+01 1.94601957240105179e+01 8.81352152199647634e+01
1 -5.23335607718127882e+00 3.44154706091457907e+00 -4.63381587776392649e+01
1 6.10161743196528406e+01 -3.07525422098818879e+01 3.06632745535188747e+01
1 -9.62444292969018278e+01 -5.76979759136135755e+01 4.35337632006139899e+01
1 -3.23537005912565832e+01 8.07820834661181522e+01 2.67672364265766838e+01
1 6.17030452910552452e+00 -2.34328806775259899e+01 3.97497164962831206e+01
8
Step 36000
1 3.39805337618854892e+01 -6.06580117562121544e+01 -1.55886715788502084e+01
1 -3.62108296901305104e+00 -1.03194064336865921e+02 -3.01449772687984883e+01
1 4.11249459555896166e+01 1.82990594071646875e+01 1.26814761085679010e+02
1 7.47641880759432165e-01 -7.78251496022503569e-02 -2.12639926125541479e+01
1 9.96898817349291164e+01 1.87277507954160605e+01 1.38025248273560877e+01
1 -1.12586462020428058e+02 -3.65594858289075759e+01 3.33859903113897216e+00
1 -5.50454030094505242e+00 8.87316012545117729e+01 7.85543342987817255e+01
1 1.35992860395287440e+01 -5.79819321978062785e+00 3.96403947047388669e+01
8
Step 37000
1 4.86955047154564227e+01 -3.72397335686964581e+01 -2.23080959550371354e+01
1 1.43875533014754478e+01 -1.35609199872799877e+02 -3.11954740946500886e+00
1 3.17223779629712084e+01 1.55475784470542795e+01 1.19286557363880618e+02
1 4.99757366563071326e+00 5.16873590960341467e+00 1.47219186863921845e+01
1 1.01598575381786503e+02 5.82138372523268259e+01 -2.28369774607017533e+01
1 -9.21599233014480461e+01 -1.68324229630724034e+01 -4.58250314326783297e+01
1 2.12835908337632809e+01 6.01891386240930473e+01 1.07514058413496102e+02
1 6.50658655954879972e+00 2.46297364781944772e+01 3.03736004689354395e+01
8
Step 38000
1 4.67676426257433917e+01 1.01497784002430400e+01 -2.01386650581457580e+01
1 1.69230750435855128e+01 -1.19100370836049393e+02 3.96622078703238259e+01
1 1.64247893572236663e+01 1.10422233680286208e+01 6.58184096865785477e+01
1 1.09768449787722080e+01 1.37665679397341609e+01 5.37973591428548730e+01
1 6.63980250918704229e+01 7.09385820491686161e+01 -6.42297501990165358e+01
1 -4.34114019356595904e+01 -2.26470008720937299e+00 -9.12437752738895966e+01
1 3.97614898785811803e+01 -4.66281316571561710e+00 1.01722072342309346e+02
1 -8.69614305105498886e+00 5.92871578190507549e+01 1.50659618502187520e+01
8
Step 39000
1 1.80308451770859897e+01 6.81613253447676186e+01 -1.55662374051831538e+01
1 9.29315093830287653e-01 -5.49804851729045296e+01 8.61608623883644782e+01
1 9.22636159186568605e+00 4.55174131646811464e+00 -1.17458739661228275e+01
1 1.93653121672119255e+01 1.74506147896445150e+01 8.39100239976919369e+01
1 7.65782367910488837e+00 4.89656774793865850e+01 -8.72855622844240884e+01
1 1.25750664500760401e+01 8.48240589786250432e+00 -1.18832777677969105e+02
1 4.26038521351843116e+01 -8.03968778849476706e+01 6.30302436252642764e+01
1 -2.31741161735768948e+01 8.28622163270128880e+01 -2.94605923101691847e+00
8
Step 40000
1 -3.44413166358579588e+01 1.12952917055925127e+02 -1.41514419133260780e+01
1 -2.63053611202717548e+01 3.07188963026783881e+01 1.17440170707382563e+02
1 1.61227457640161376e+01 -3.81262347181198180e+00 -7.71561609273697968e+01
1 2.75268249635867654e+01 8.14206012351200137e+00 9.29632825418775610e+01
1 -5.04893083463987651e+01 -6.74125055186053679e+00 -7.11656254427615380e+01
1 5.23532596580690210e+01 1.90749687137714439e+01 -1.18187922723108173e+02
1 2.66592126050366893e+01 -1.30105067931696880e+02 6.30240432634929526e+00
1 -2.82719512439813059e+01 8.09821701557517457e+01 -2.23511761769789246e+01
8
Step 41000
1 -9.14338706520340168e+01 1.22181127577538561e+02 -1.73765235745070719e+01
1 -4.93674070919142309e+01 9.84575274798958446e+01 1.15818643984459385e+02
1 3.27442779333673997e+01 -1.34258407153152266e+01 -1.04198514414970603e+02
1 3.13899213529991847e+01 -1.92926908734821723e+01 7.43939198776156729e+01
1 -8.41253390974935371e+01 -7.96671860465670392e+01 -9.85839165815868768e+00
1 6.40741641652448095e+01 3.16885032723919089e+01 -8.55410482232447578e+01
1 -4.06465473820131873e+00 -1.31857261731504735e+02 -4.68580204101602291e+01
1 -1.85948294353033887e+01 4.74409043503494559e+01 -4.44334010041901024e+01
8
Step 42000
1 -1.25797329272921402e+02 8.60391196846912294e+01 -2.18337150730471485e+01
1 -5.13233097462043304e+01 1.23048880313069446e+02 7.26082363687313119e+01
1 4.73816417819286642e+01 -2.32214799766716631e+01 -9.01130493698540675e+01
1 2.82691995071298443e+01 -6.31020871362294500e+01 3.14656941885737993e+01
1 -8.00401103605311874e+01 -1.35404690726031902e+02 7.42257977884857354e+01
1 5.15043148333629048e+01 4.44687605156166015e+01 -2.69481995995473760e+01
1 -3.76659677705556817e+01 -8.63324568583397109e+01 -8.02667502051349544e+01
1 5.07061227848846396e+00 -1.06846356175618151e+01 -7.04452805064010477e+01
8
Step 43000
1 -1.16936366610810794e+02 1.45075352335970233e+01 -2.11102177148818058e+01
1 -2.16135379517162498e+01 1.01646663112994631e+02 -3.95778459085693335e+00
1 4.72896021722884328e+01 -3.17169670964764840e+01 -5.07662692268280011e+01
1 1.85209067751299479e+01 -1.09572922223174828e+02 -2.11704157141367908e+01
1 -3.67045617155151191e+01 -1.41750277681814595e+02 1.36286084470804582e+02
1 2.79646894802235977e+01 5.16232711441471182e+01 3.99676254140919340e+01
1 -5.80165552414053991e+01 -1.53645163224983889e+01 -8.96208442644461343e+01
1 3.48815791155429906e+01 -7.16277252599727774e+01 -9.65461176201058890e+01
8
Step 44000
1 -5.87164147441637709e+01 -6.05123511428781242e+01 -9.57965492807866603e+00
1 3.63639830347343960e+01 4.80075743521691152e+01 -8.48431824968563433e+01
1 2.56916070696286951e+01 -3.69058131237086684e+01 -1.04377120351096142e+01
1 4.93157218143681764e+00 -1.34193121556288304e+02 -6.33616583487820080e+01
1 3.43839894725263093e+01 -8.73138987133826134e+01 1.43473770599645206e+02
1 8.02556275973413413e+00 4.62085653768214684e+01 9.29473310713165404e+01
1 -5.16067607186891166e+01 4.72709740630296054e+01 -7.87107323743653495e+01
1 5.88069916386244316e+01 -1.08532582512707677e+02 -1.10377408940138906e+02
8
Step 45000
1 3.30615124386788608e+01 -1.04845323820865872e+02 1.37510389891459770e+01
1 1.00477011073901721e+02 -1.23778722805964208e+01 -1.36719606183044107e+02
1 -1.28441748313015580e+01 -3.61832470962694401e+01 1.23018594930644873e+01
1 -9.03482645772772663e+00 -1.12357865504019514e+02 -8.02731618508797737e+01
1 1.02920303530790974e+02 8.01801042013841325e+00 9.20159974985644880e+01
1 5.47233187084845918e-01 2.47108800761274985e+01 1.16588716590759802e+02
1 -1.47004160224940339e+01 7.78234252240140876e+01 -5.34303712520510317e+01
1 6.61190116411162165e+01 -1.04381228646674074e+02 -9.37999624586073253e+01
8
Step 46000
1 1.16998143260415929e+02 -1.04829594905535757e+02 4.32897040830946551e+01
1 1.39688588595957697e+02 -5.42185024505596687e+01 -1.42887382052290604e+02
1 -5.26973908084759870e+01 -2.66858190145674214e+01 1.46092549772226246e+01
1 -2.02950727145789678e+01 -3.37930531431419254e+01 -6.81584961027384679e+01
1 1.31761906192187723e+02 9.46473756329297231e+01 8.16904028902923507e+00
1 4.80961754138350006e+00 -9.04949809212155287e+00 1.06399085618275464e+02
1 4.10963048790766905e+01 7.34721693326176108e+01 -1.91593308566098024e+01
1 5.20112094500729185e+01 -5.86223163489167192e+01 -3.37845835517280193e+01
8
Step 47000
1 1.53577245943682442e+02 -6.85617898095416507e+01 6.79206994255102785e+01
1 1.32787944567016666e+02 -6.49911220428599563e+01 -1.04850619319586912e+02
1 -7.53300943376595740e+01 -6.62887936662322552e+00 7.67651517517856075e+00
1 -2.61716297632709995e+01 7.67731050190725455e+01 -3.43919264607030613e+01
1 9.98278075581315250e+01 1.32308120203684524e+02 -6.21914772468612682e+01
1 1.14033776156602311e+01 -4.38653904033507231e+01 6.74307270215425518e+01
1 9.09020945784874215e+01 4.68007714013399436e+01 1.89708513716351241e+01
1 1.97036450065290332e+01 1.06554329513370138e+01 5.92217588791887266e+01
8
Step 48000
1 1.31964907258482953e+02 -1.86317624951484575e+01 7.51451145542718280e+01
1 7.71193154779010399e+01 -4.73660272557370803e+01 -3.89692703923620769e+01
1 -6.92655147491467318e+01 2.24080177266450846e+01 6.20417591316764305e+00
1 -2.43816223547520643e+01 1.63724284199503359e+02 5.04021804612431534e+00
1 1.48694109214499832e+01 1.13417934703058421e+02 -8.77634320493715734e+01