8
Step 0
1 -4.335052367192e+01   6.226770353478e+01  -1.571831079641e+01 
1 -4.197517804778e+01   5.557624918835e+01   6.050689884240e+01 
1  4.062082842113e+01  -6.869837660098e+01  -6.406602060552e+00 
1  3.202042668263e+01  -9.333787405458e+00   7.585091136361e+01 
1  2.169421302650e+01  -5.304981751903e-01  -3.452327492586e+01 
1  2.479565131470e+00   3.727202342153e+01  -7.541307749490e+01 
1  3.539535683763e+01   1.835259957186e+01  -5.811004072382e+01 
1  1.040422054410e+01   7.251222155371e+01   5.312714128624e+01 
8
Step 1000
1 -8.626201463894e+00   4.505356513753e+01  -2.677569321634e+01 
1 -5.251101059020e+01   1.814676871601e+01   7.153710186625e+01 
1  1.285577275306e+01  -7.013795302529e+01   1.852038895902e+01 
1  1.322786914849e+01  -9.322480885429e+00   8.170384445190e+01 
1  4.308578860774e+01  -1.120371389894e+01  -1.143123964921e+01 
1  4.542411404905e+01   7.201246562208e+01  -7.944147102914e+01 
1  3.035114037982e+01  -5.090341928760e+00  -5.387613396763e+01 
1  2.435495969460e+00   3.770002786479e+01   6.980349985624e+01 
8
Step 2000
1  2.446199016760e+01   1.688862374013e+01  -3.079879661038e+01 
1 -3.583158612247e+01  -2.166235056011e+01   5.471430745471e+01 
1 -1.564524136582e+01  -4.871210173871e+01   3.277207863880e+01 
1 -5.939231317391e+00  -7.305262554226e+00   6.084776025044e+01 
1  5.395866351070e+01  -1.197852414312e+01   1.434069151277e+01 
1  6.678247652266e+01   7.218374876832e+01  -5.812449555761e+01 
1  1.438433446838e+01  -2.721130074944e+01  -3.389836788866e+01 
1 -5.810843551638e+00  -1.074649416083e-02   5.559352471035e+01 
8
Step 3000
1  4.107636334514e+01  -9.197052241915e+00  -2.289331550832e+01 
1 -4.479697751703e-01  -3.963330839880e+01   1.540752118400e+01 
1 -3.449106680825e+01  -1.220722170688e+01   3.180795916677e+01 
1 -2.165505145127e+01  -2.451360696177e+00   2.295657006901e+01 
1  4.806808418021e+01  -3.003417850154e+00   2.860041853383e+01 
1  6.465442341665e+01   4.910658705398e+01  -2.019287107822e+01 
1 -5.989846984885e+00  -3.855993723130e+01  -3.064072578308e+00 
1 -1.386456161130e+01  -2.135711510620e+01   1.790219096032e+01 
8
Step 4000
1  4.027671928323e+01  -2.262434566814e+01  -1.215478994432e+00 
1  2.862128069531e+01  -3.628217725133e+01  -2.055829757640e+01 
1 -4.041554532850e+01   1.923814509723e+01   1.803706771937e+01 
1 -3.179277919836e+01   6.365486333426e+00  -8.743627715090e+00 
1  2.411041039435e+01   1.057312483884e+01   2.685269950714e+01 
1  4.458387233393e+01   2.053725780400e+01   1.161782956478e+01 
1 -2.425653411542e+01  -3.605022093828e+01   2.594211166999e+01 
1 -2.202924707611e+01  -2.563975816312e+01  -1.613960970094e+01 
8
Step 5000
1  2.510970953267e+01  -2.356048537687e+01   3.241472396802e+01 
1  3.534051082196e+01  -1.702427213237e+01  -3.551673238341e+01 
1 -3.521282111868e+01   3.271882873484e+01  -2.456019307995e+00 
1 -3.525458407100e+01   2.010520207041e+01  -2.189547624872e+01 
1 -1.121327506943e+01   2.393468317278e+01   1.348486522633e+01 
1  1.416240759162e+01   1.563216347245e+00   2.432628930946e+01 
1 -3.666069956785e+01  -2.173131399411e+01   4.112568528583e+01 
1 -2.955924246665e+01  -1.877195583001e+01  -2.902229203638e+01 
8
Step 6000
1  2.516291954012e-01  -2.039415113505e+01   6.747421899470e+01 
1  2.509653303591e+01   9.621354903836e+00  -3.545721299270e+01 
1 -2.313514431095e+01   3.246609076241e+01  -2.239431319895e+01 
1 -3.050083326652e+01   3.786833565235e+01  -2.270243873959e+01 
1 -3.928849053605e+01   3.331919442589e+01  -1.905819377397e+00 
1 -1.637706677567e+01  -5.653824166293e+00   2.375970599179e+01 
1 -4.092262456772e+01  -9.502462681333e-01   4.146093525925e+01 
1 -3.390157806278e+01  -6.945032463166e+00  -2.646330154247e+01 
8
Step 7000
1 -2.583702160117e+01  -1.989532008289e+01   8.670305848578e+01 
1  9.528138035223e+00   3.104327438118e+01  -2.657919872097e+01 
1 -1.048468209263e+01   2.621299883112e+01  -3.601143851338e+01 
1 -1.249690654629e+01   5.217262006033e+01  -1.870195186504e+01 
1 -4.709412931774e+01   3.296691766113e+01  -9.652303295065e+00 
1 -4.023918387627e+01  -6.108063667372e+00   1.857072516216e+01 
1 -3.189528160788e+01   1.953581971967e+01   3.441971668574e+01 
1 -2.897920736222e+01   2.687399320193e+00  -1.520407698303e+01 
8
Step 8000
1 -4.376237390786e+01  -2.254572245759e+01   7.705378750932e+01 
1 -4.041064177946e+00   3.814460475188e+01  -1.183856613369e+01 
1 -2.117435795858e+00   1.890364597234e+01  -3.782314545012e+01 
1  2.352023953059e+01   5.179006822798e+01  -1.357365158303e+01 
1 -3.815091805664e+01   1.847257354984e+01  -6.843031817770e+00 
1 -5.444237450106e+01  -5.222933237093e+00   1.417012074104e+01 
1 -2.430677190072e+00   3.429865263533e+01   2.689979450093e+01 
1 -1.067639550775e+01   3.931181469982e+00   6.564676909566e-01 
8
Step 9000
1 -4.632806481506e+01  -2.510549697790e+01   2.532636735459e+01 
1 -1.273874347276e+01   2.830429305149e+01   5.120281221157e+00 
1  2.098695664220e+00   1.294898023952e+01  -2.018538095299e+01 
1  6.242866002266e+01   3.228809591592e+01  -8.294380823700e+00 
1 -2.153506637523e+01  -3.969952401143e+00   2.253620182864e+00 
1 -5.522487694968e+01  -7.251215645503e+00   1.227401710049e+01 
1  3.531874297730e+01   4.090745757434e+01   2.084199765881e+01 
1  1.575074644360e+01  -5.047854118203e+00   1.672492775107e+01 
8
Step 10000
1 -2.991699974298e+01  -2.421871319608e+01  -3.405125886360e+01 
1 -1.451076284402e+01   5.416928196448e+00   1.984266820985e+01 
1  4.056301900632e+00   8.746549428700e+00   1.771972240378e+01 
1  8.186216813973e+01   9.011059509391e-01  -1.736164888695e+00 
1 -5.109323322847e+00  -2.266063473842e+01   1.018292812254e+01 
1 -3.725238506422e+01  -1.392968323615e+01   1.180308037559e+01 
1  5.834225403503e+01   3.929435867368e+01   1.561140408320e+01 
1  3.982038399026e+01  -1.800442139476e+01   2.836982394305e+01 
8
Step 11000
1  1.576696752809e+00  -1.781635557017e+01  -5.463728448569e+01 
1 -8.428160067857e+00  -1.893623066429e+01   2.888797131583e+01 
1  4.707163341354e+00   4.756914873646e+00   5.425482928051e+01 
1  7.593391773889e+01  -2.623778795905e+01   7.327346917364e+00 
1  6.350853652189e+00  -3.003711213793e+01   1.137108229273e+01 
1 -1.699724983339e+00  -2.312879100120e+01   1.039587266305e+01 
1  5.955399208981e+01   2.822984598810e+01   9.621317739126e+00 
1  5.307761697928e+01  -2.397173227532e+01   3.214958244561e+01 
8
Step 12000
1  3.319666000736e+01  -4.929472414323e+00  -5.087105328501e+01 
1  3.621581375462e+00  -3.242176103532e+01   3.045768222659e+01 
1  4.537442630253e+00  -1.047821735131e+00   6.860514607468e+01 
1  4.780612399617e+01  -3.894804087278e+01   1.862423984884e+01 
1  1.120222026162e+01  -2.536685097835e+01   4.738197185422e+00 
1  3.383077587559e+01  -2.898239093027e+01   5.877957007167e+00 
1  4.270321740210e+01   4.386329714059e+00   1.174411428431e+00 
1  5.143120176462e+01  -1.565702491241e+01   2.613494474087e+01 
8
Step 13000
1  5.020304429881e+01   1.217374647022e+01  -3.421908887656e+01 
1  1.707466657380e+01  -2.991648182146e+01   2.375185573169e+01 
1  4.051316088203e+00  -9.185572039386e+00   5.847182668939e+01 
1  1.125705658373e+01  -3.721172434005e+01   2.990744432667e+01 
1  1.010967391085e+01  -1.272451160378e+01  -6.484240191180e+00 
1  5.273878353231e+01  -2.446047126283e+01  -2.556514054799e+00 
1  1.639275637494e+01  -2.941174591544e+01  -9.464730611471e+00 
1  3.360600664600e+01   8.306232125580e+00   9.795207050726e+00 
8
Step 14000
1  4.818217112760e+01   2.761513839553e+01  -1.265804890950e+01 
1  2.626274737662e+01  -1.307263945033e+01   8.843503418590e+00 
1  3.776660643115e+00  -1.814735185794e+01   3.042056665692e+01 
1 -1.451873883412e+01  -2.474027620909e+01   3.713196661843e+01 
1  5.411707579545e+00   1.439686222832e+00  -1.637441814745e+01 
1  5.287002343166e+01  -5.665228913307e+00  -1.352037425167e+01 
1 -7.683161663997e+00  -5.825583447987e+01  -1.957200886632e+01 
1  2.773916100162e+00   3.893281359402e+01  -1.452180141690e+01 
8
Step 15000
1  2.950127681100e+01   3.544050843182e+01   6.407689798099e+00 
1  2.620836957508e+01   9.890568598481e+00  -1.266190043439e+01 
1  4.253351959299e+00  -2.445076534430e+01   9.321583628525e-03 
1 -2.499927620490e+01  -6.669552645345e+00   3.547745893251e+01 
1  4.850743895679e-01   1.103901350117e+01  -1.956694637946e+01 
1  3.690059053520e+01   2.307975522111e+01  -2.347838175559e+01 
1 -2.186324200725e+01  -6.905891089199e+01  -2.570875650511e+01 
1 -2.923721003847e+01   5.869997882230e+01  -3.967738741350e+01 
8
Step 16000
1  2.599573368899e+00   3.211096807438e+01   1.875630058943e+01 
1  1.376701703859e+01   2.646311039080e+01  -3.592448870574e+01 
1  5.635834022843e+00  -2.343123645590e+01  -1.804959065626e+01 
1 -2.533539833894e+01   1.067505660762e+01   2.062203581157e+01 
1 -1.164849994349e+00   1.280570786746e+01  -1.366778147097e+01 
1  1.106283124164e+01   4.824933293314e+01  -2.774797823625e+01 
1 -2.615450258843e+01  -5.788274890348e+01  -2.514666073990e+01 
1 -4.865616200342e+01   5.569863538771e+01  -5.665528145582e+01 
8
Step 17000
1 -1.994116509016e+01   1.665977018696e+01   2.353424336623e+01 
1 -1.036692176010e+01   2.802236122977e+01  -5.314062733224e+01 
1  6.956713144488e+00  -1.113505909058e+01  -2.200617119477e+01 
1 -2.034955855469e+01   2.150585028619e+01  -7.804715031617e+00 
1  3.110019416670e+00   7.326222090268e+00   6.286903056296e-01 
1 -1.396485253971e+01   5.786974332621e+01  -2.218942413387e+01 
1 -2.419171179848e+01  -2.711499199076e+01  -1.642457852337e+01 
1 -5.160241951603e+01   2.692722062364e+01  -5.924914122480e+01 
8
Step 18000
1 -2.997963259050e+01  -7.994007605546e+00   2.155607094171e+01 
1 -3.766177932391e+01   1.313973828847e+01  -5.729196915900e+01 
1  5.511592863508e+00   1.148629339401e+01  -1.749313752679e+01 
1 -1.323466751359e+01   2.159114071846e+01  -3.979041038746e+01 
1  1.519526672317e+01  -1.177326592001e+00   1.969544518744e+01 
1 -2.958257171781e+01   4.777405454213e+01  -6.098261404913e+00 
1 -1.927649106555e+01   8.980046238476e+00  -1.536424271676e-01 
1 -4.198687480320e+01  -1.459317551157e+01  -4.238009958447e+01 
8
Step 19000
1 -2.679379731163e+01  -3.340697432199e+01   1.435764514217e+01 
1 -5.482641038538e+01  -1.222767365972e+01  -4.330625849505e+01 
1 -3.066439942655e+00   3.442999040451e+01  -1.118718656838e+01 
1 -5.835247526626e+00   6.285688596922e+00  -6.124538836652e+01 
1  3.556353174238e+01  -6.502767633887e+00   3.625764594677e+01 
1 -3.307929992961e+01   2.002107783964e+01   1.417076735542e+01 
1 -1.289950286761e+01   3.135008206381e+01   1.991286548901e+01 
1 -2.608493006612e+01  -4.161937920373e+01  -1.057394566519e+00 
8
Step 20000
1 -1.433023150140e+01  -5.009106294755e+01   4.016406092017e+00 
1 -5.283945080081e+01  -3.384517717112e+01  -1.037840597533e+01 
1 -2.153295693461e+01   4.558021489164e+01  -7.312806355538e+00 
1  6.748289980343e-01  -2.950469573720e+01  -6.698663588769e+01 
1  5.323052686383e+01  -4.612394891101e+00   4.023943342827e+01 
1 -2.538706283297e+01  -1.349089299036e+01   2.800595747112e+01 
1 -4.377233664830e+00   3.662396815452e+01   3.733337059926e+01 
1 -1.025890600388e+01  -4.599575481376e+01   4.762066879536e+01 
8
Step 21000
1  4.821914995800e-01  -5.375571054167e+01  -7.208525655933e+00 
1 -2.786851529423e+01  -3.793409011924e+01   2.683525391975e+01 
1 -4.590725043219e+01   3.839089047486e+01  -7.154297895304e+00 
1  5.409351982221e+00  -7.063798470700e+01  -5.720990307274e+01 
1  4.748714929674e+01   3.293404947810e+00   2.302501073307e+01 
1 -1.015689251466e+01  -3.477284661677e+01   2.944780308322e+01 
1  9.303868007658e+00   3.248291972756e+01   4.600826134713e+01 
1  1.680687433961e+00  -3.391073350847e+01   7.058650450293e+01 
8
Step 22000
1  9.990543555273e+00  -4.306222676766e+01  -1.789308121965e+01 
1  1.357094582622e+01  -1.938078121016e+01   4.935822069182e+01 
1 -6.372579803671e+01   1.510169204081e+01  -9.962156879709e+00 
1  8.391659316050e+00  -8.651799564458e+01  -3.313234467088e+01 
1  1.204748589999e+01   1.187297870177e+01  -1.258658591604e+01 
1  6.053467172145e+00  -3.868740347480e+01   2.090412365087e+01 
1  3.186068023895e+01   2.531683367131e+01   4.157248856109e+01 
1  8.754890854870e+00  -1.484202295654e+01   6.818071657070e+01 
8
Step 23000
1  1.101913375780e+01  -1.478797738990e+01  -2.717337038194e+01 
1  4.742937616274e+01   1.555002765924e+01   5.232485983512e+01 
1 -6.172419465420e+01  -1.147251973407e+01  -1.240970675425e+01 
1  1.018700202490e+01  -6.706018972025e+01  -6.693109714748e-01 
1 -3.086521486381e+01   1.463015788845e+01  -4.346011866410e+01 
1  1.623517713466e+01  -3.285352583179e+01   1.078582178060e+01 
1  6.002452151639e+01   1.782994483133e+01   2.014353503349e+01 
1  1.082620050674e+01   8.157727841299e-01   5.516008774945e+01 
8
Step 24000
1  6.076698024009e+00   2.806141423175e+01  -3.216174902205e+01 
1  5.765639092105e+01   4.633022445925e+01   3.808914710529e+01 
1 -3.186527757006e+01  -2.845534587343e+01  -9.450658890320e+00 
1  9.525266564990e+00  -2.408033222723e+01   2.711891907658e+01 
1 -5.302930080420e+01   7.499219032679e+00  -5.138232611890e+01 
1  1.618779951855e+01  -2.436118779859e+01   7.122062674662e+00 
1  7.988483447497e+01   9.995093401931e+00  -1.589287869347e+01 
1  7.901400197674e+00   6.622029031305e+00   3.723315165391e+01 
8
Step 25000
1 -5.640273327966e-01   6.135924506410e+01  -2.980753378007e+01 
1  4.859293659682e+01   5.667463839736e+01   1.374082397276e+01 
1  1.421411650417e+01  -3.226417137664e+01  -8.369799562408e-01 
1  6.167477477242e+00   1.129602221100e+01   4.104268944698e+01 
1 -4.996378355220e+01  -9.794726285044e+00  -3.501713391814e+01 
1  5.938257563775e+00  -1.602080238009e+01   1.244372904968e+01 
1  7.761907507480e+01  -7.393552955616e-01  -4.928439056849e+01 
1  1.404923599803e+00   2.474308730248e+00   1.490030220140e+01 
8
Step 26000
1 -6.360979567793e+00   6.526563410558e+01  -1.895969812154e+01 
1  3.235507323705e+01   4.651111782213e+01  -9.683147085328e+00 
1  4.596743610675e+01  -2.205423175814e+01   7.975323376612e+00 
1  1.776566312008e-01   2.551008174063e+01   3.947131797857e+01 
1 -2.741550530719e+01  -3.212429768893e+01  -3.516607394513e+00 
1 -9.800667781299e+00  -7.275719743784e+00   2.238195867346e+01 
1  4.611308926371e+01  -1.686464914131e+01  -6.440293704052e+01 
1 -5.633846225382e+00  -6.231780771445e+00  -8.890811631712e+00 
8
Step 27000
1 -9.698878729085e+00   4.026227920861e+01  -9.840973612929e-02 
1  1.736836090704e+01   2.334176991998e+01  -2.371476911486e+01 
1  5.467949074574e+01  -1.439472695177e+00   1.293137599772e+01 
1 -7.971236415325e+00   2.389658403860e+01   2.408836296245e+01 
1  2.822364266345e+00  -4.597751510061e+01   2.343631409074e+01 
1 -2.211331213877e+01   4.386288419830e+00   2.733485848437e+01 
1 -1.106144035029e+00  -3.702250906713e+01  -5.779378289511e+01 
1 -9.603878642271e+00  -1.251431213918e+01  -2.855112612051e+01 
8
Step 28000
1 -8.030941819300e+00   5.080344851516e+00   2.301879853572e+01 
1  6.303234690775e+00  -7.653976138396e-01  -2.597834416325e+01 
1  4.568552968866e+01   1.909093607124e+01   1.279482690965e+01 
1 -1.656643810045e+01   1.281141828307e+01   7.313833801119e-01 
1  2.579274795487e+01  -3.952843920742e+01   3.245511502246e+01 
1 -2.175291733529e+01   1.965312762322e+01   1.694565884729e+01 
1 -3.171346849180e+01  -5.504293133575e+01  -3.120090202616e+01 
1 -7.360868010759e+00  -1.136887499317e+01  -3.854942936346e+01 
8
Step 29000
1 -4.504449157219e-01  -1.458342195115e+01   4.373530428396e+01 
1 -4.951179702009e-01  -1.643587321577e+01  -1.741528601718e+01 
1  2.476527020712e+01   2.857533935974e+01   8.216271541431e+00 
1 -2.328448370050e+01  -9.133914771468e-01  -2.092681255239e+01 
1  3.483125366601e+01  -8.361880669653e+00   2.449503576528e+01 
1 -3.911340758795e+00   3.475474439169e+01  -1.371858359504e+01 
1 -3.872900157892e+01  -6.318286767364e+01   4.399769736977e+00 
1  2.639240410396e+00  -8.198648103913e-01  -3.652559271974e+01 
8
Step 30000
1  1.131793623919e+01  -1.724774790960e+01   5.460326032423e+01 
1 -3.871966587376e+00  -2.229229824300e+01  -1.268327951393e+00 
1 -5.982893436079e-02   2.147606389690e+01   1.535527984785e+00 
1 -2.613814104177e+01  -1.084248800925e+01  -3.259218223119e+01 
1  3.001382607343e+01   3.286675038591e+01   7.612484806669e+00 
1  2.695674620056e+01   4.332112956977e+01  -5.122200586018e+01 
1 -2.919856534165e+01  -5.470580993235e+01   3.066264310272e+01 
1  1.926219380800e+01   1.793646788478e+01  -2.239136861746e+01 
8
Step 31000
1  2.392163307161e+01  -1.052591811813e+01   4.881763715890e+01 
1 -5.345798198331e+00  -1.971668268048e+01   1.667515727605e+01 
1 -2.058192491463e+01  -2.733099429769e+00  -4.101170087349e+00 
1 -2.344257059650e+01  -1.299114785657e+01  -3.120263163771e+01 
1  1.410991041165e+01   5.523837366261e+01  -7.371223770295e+00 
1  5.400523115652e+01   3.938963994526e+01  -7.129825534123e+01 
1 -1.084770600962e+01  -2.594004943309e+01   3.981109006325e+01 
1  3.632886508137e+01   4.039033677762e+01   7.407154817905e-01 
8
Step 32000
1  3.261842369926e+01  -9.812573823009e-02   2.140994882154e+01 
1 -6.429224324145e+00  -1.017623147730e+01   3.033842763612e+01 
1 -3.245831096955e+01  -3.488631118843e+01  -6.397016580461e+00 
1 -1.377368880002e+01  -6.901868692053e+00  -1.888695444820e+01 
1 -6.820626554637e+00   4.955475664859e+01  -1.313268454953e+01 
1  6.123953113347e+01   1.799780463093e+01  -6.413548434344e+01 
1  7.007034711226e+00   1.416353091476e+01   3.404399145629e+01 
1  4.340804544064e+01   5.768375273938e+01   2.463340684922e+01 
8
Step 33000
1  3.163670594205e+01   9.422482871293e+00  -2.137304806605e+01 
1 -7.942339487239e+00   3.837686807667e+00   3.463753797036e+01 
1 -3.460846032080e+01  -5.550025254665e+01  -4.261075477369e+00 
1  2.870174772532e+00   4.260108987963e+00  -2.229640718922e+00 
1 -2.462495804194e+01   2.411972193352e+01  -9.837023665443e+00 
1  4.256968560948e+01  -2.536478033782e+01  -3.294061938872e+01 
1  1.663853955138e+01   4.139281196878e+01   1.808991956144e+01 
1  2.969875766891e+01   5.769063963635e+01   4.004586211216e+01 
8
Step 34000
1  1.344536747718e+01   1.533703369847e+01  -5.407359114255e+01 
1 -9.761786494813e+00   1.823144281884e+01   2.169652934316e+01 
1 -2.703283529531e+01  -5.005078165668e+01   1.901747883091e+00 
1  2.322682156580e+01   1.532598735809e+01   1.096136175022e+01 
1 -3.339724802115e+01  -8.225611790362e-01  -2.822123431316e+00 
1  1.976587071212e+00  -7.542874880238e+01   3.601016352576e+00 
1  1.481270881448e+01   4.685317876395e+01  -1.526764598238e+00 
1 -8.257180575138e+00   3.141475542121e+01   4.262678851846e+01 
8
Step 35000
1 -2.306456752256e+01   1.643810047807e+01  -6.195873205099e+01 
1 -1.030766317878e+01   2.901295044708e+01  -1.113670921102e+01 
1 -1.082443874658e+01  -1.247604874423e+01   9.493529989574e+00 
1  4.118485247919e+01   2.126370250490e+01   1.646242301642e+01 
1 -3.101527214382e+01  -1.072312829075e+01   3.476123143670e+00 
1 -3.489571422347e+01  -9.576817789769e+01   2.455626282940e+01 
1  3.143606662315e+00   4.051480151623e+01  -1.761860277710e+01 
1 -4.963266631925e+01  -1.062163228595e+01   3.209723804436e+01 
8
Step 36000
1 -5.631712505499e+01   1.297172147351e+01  -5.008907279661e+01 
1 -6.062299591615e+00   3.322067113928e+01  -4.348242346376e+01 
1  1.069336413878e+01   3.822351658684e+01   1.397986965507e+01 
1  4.950511391291e+01   1.644604177540e+01   1.424005049184e+01 
1 -1.808416014867e+01  -9.187596230961e+00   7.103812183474e+00 
1 -4.665563392884e+01  -8.178203025818e+01   2.810154541575e+01 
1 -1.273310741238e+01   2.757573978252e+01  -2.518011849424e+01 
1 -6.891500730199e+01  -4.016231117672e+01   1.016362096854e+01 
8
Step 37000
1 -6.745387382516e+01   6.983003476049e+00  -2.916828535491e+01 
1  5.860810042581e+00   2.844242046874e+01  -5.521052189769e+01 
1  3.124899613382e+01   6.075256965971e+01   1.174926600424e+01 
1  4.184732930599e+01  -5.393064822601e+00   7.645472928048e+00 
1  2.410557908116e+00  -1.088033337143e+00   6.048297682187e+00 
1 -4.015878011008e+01  -5.042431488974e+01   1.953851870861e+01 
1 -2.521309161879e+01   1.035048600405e+01  -2.214157714940e+01 
1 -6.178430188426e+01  -4.646364096607e+01  -1.852229213093e+01 
8
Step 38000
1 -5.404905692486e+01   7.655847553589e-01  -8.061941787663e+00 
1  2.341582886464e+01   1.355966820929e+01  -4.262619994375e+01 
1  4.369393383167e+01   5.450858344681e+01   1.735373772752e+00 
1  1.545950163695e+01  -3.906882368526e+01   1.400139260158e+00 
1  2.556868400747e+01   8.948682202505e+00  -7.708991311713e-01 
1 -2.486827123454e+01  -2.282932132005e+01   3.795794041147e+00 
1 -2.767736605751e+01  -8.130644892492e+00  -9.301623703188e+00 
1 -3.263185229917e+01  -3.402562402353e+01  -4.467776312239e+01 
8
Step 39000
1 -2.322767310019e+01  -5.025964047220e+00   9.629927510254e+00 
1  4.065252607001e+01  -8.880016092809e+00  -1.068257020340e+01 
1  4.392769343981e+01   3.334346496023e+01  -1.587837687650e+01 
1 -2.128762569944e+01  -6.463821536916e+01  -1.672715898172e+00 
1  4.635922626806e+01   1.506472227749e+01  -1.153167083334e+01 
1 -6.923941587664e+00  -6.503991005388e+00  -1.281446980008e+01 
1 -1.594456143866e+01  -2.514479871510e+01   9.117806797743e+00 
1  3.660341065818e+00  -1.184502195044e+01  -5.905363098125e+01 
8
Step 40000
1  8.008717651318e+00  -1.232073432583e+01   2.265665785706e+01 
1  5.053581207087e+01  -3.190698900784e+01   2.287019631808e+01 
1  3.451592922007e+01   5.490136020527e+00  -3.631511266629e+01 
1 -4.864961253947e+01  -6.925051219067e+01  -9.034059769992e-01 
1  6.003105983672e+01   1.225056564395e+01  -2.154759407194e+01 
1  8.675466953335e+00   5.888112010793e-01  -2.431271214663e+01 
1  9.981256311816e+00  -3.923929838906e+01   2.617134677230e+01 
1  2.974711806312e+01   8.743019739240e+00  -5.623373984822e+01 
8
Step 41000
1  2.522327036738e+01  -2.363613292412e+01   2.904392530321e+01 
1  4.595610640120e+01  -4.788851041475e+01   3.950631756285e+01 
1  2.015986471686e+01  -2.027889265987e+01  -4.804117362492e+01 
1 -5.510931853220e+01  -4.947227293865e+01   3.633520602060e+00 
1  6.061897916944e+01  -1.439322283097e+00  -2.490603743210e+01 
1  1.866221299308e+01   2.325315298274e+00  -2.802884030124e+01 
1  4.003312978848e+01  -4.897875223286e+01   3.513148306119e+01 
1  3.975915957229e+01   1.943594191000e+01  -3.163692907145e+01 
8
Step 42000
1  2.692686316288e+01  -3.647596826459e+01   2.640677329102e+01 
1  2.301793909277e+01  -5.217068404405e+01   3.737258451955e+01 
1  3.045481011378e+00  -3.495856262107e+01  -3.927648352877e+01 
1 -4.097573326706e+01  -1.255074451499e+01   1.144238054040e+01 
1  4.137370482029e+01  -2.194896675546e+01  -1.672890986631e+01 
1  2.197105207500e+01   4.016046299212e+00  -2.450245829060e+01 
1  5.779903273767e+01  -5.140845859159e+01   2.980705319014e+01 
1  3.469290275757e+01   1.854267925423e+01   1.143956156665e+01 
8
Step 43000
1  1.850686874617e+01  -4.373427729027e+01   1.401712209471e+01 
1 -1.293492063538e+01  -4.280876438358e+01   2.231042329660e+01 
1 -1.402143390910e+01  -3.460082904534e+01  -6.326679538345e+00 
1 -1.389187511654e+01   2.048703377691e+01   2.144758712767e+01 
1  6.473323802487e+00  -3.891767416945e+01   4.451983881696e+00 
1  1.953286417864e+01   1.064360429106e+01  -1.620615910978e+01 
1  5.432778960541e+01  -4.220316890744e+01   4.510137436602e-01 
1  1.882307199282e+01   9.146925120395e+00   4.751353878938e+01 
8
Step 44000
1  7.367835892084e+00  -3.829487620641e+01  -5.463523194647e+00 
1 -4.445472442197e+01  -1.906607212922e+01   2.218263066610e+00 
1 -2.705713069366e+01  -1.969160414304e+01   3.235412549296e+01 
1  1.133759004633e+01   3.649513316099e+01   3.030578796614e+01 
1 -2.541797978174e+01  -4.230874318604e+01   3.248179925486e+01 
1  1.375465057148e+01   2.369497586224e+01  -5.602061726026e+00 
1  2.945459789028e+01  -1.652290898145e+01  -4.982478397749e+01 
1 -5.049938540896e-02  -4.821749568186e+00   5.864308077809e+01 
8
Step 45000
1 -3.116426715059e-01  -1.563408850837e+01  -2.618120719693e+01 
1 -5.792309548049e+01   1.748920243734e+01  -1.451562218766e+01 
1 -3.224837635980e+01   3.668856893596e+00   5.068865463609e+01 
1  2.340686353153e+01   3.685695594410e+01   3.122895475182e+01 
1 -4.200266185160e+01  -2.630516530380e+01   5.386921537706e+01 
1  7.382977203249e+00   3.890792921287e+01   6.446610099256e+00 
1 -5.865673331302e+00   2.379947645766e+01  -8.204554804707e+01 
1 -1.490000049951e+01  -2.139934675742e+01   4.907715740726e+01 
8
Step 46000
1 -1.849304173513e+00   1.893087512090e+01  -4.046734877034e+01 
1 -5.162908014992e+01   5.599763769305e+01  -2.276081749672e+01 
1 -2.638781433172e+01   2.412625017726e+01   4.196127261934e+01 
1  2.214022910723e+01   2.634455694291e+01   1.800228535622e+01 
1 -4.406128571046e+01   1.045671259134e+01   5.864212884317e+01 
1  2.084402824848e+00   4.721170646020e+01   1.968253603890e+01 
1 -3.138728175232e+01   5.930151685242e+01  -7.899205562402e+01 
1 -2.289051474234e+01  -4.061659461416e+01   2.913593718957e+01 
8
Step 47000
1  1.729356985699e+00   4.787133233790e+01  -4.200318980376e+01 
1 -3.048444253685e+01   7.822223663833e+01  -2.153218857711e+01 
1 -8.799963700862e+00   3.298683401473e+01   1.242276157864e+01 
1  1.318605494983e+01   1.041744806926e+01  -8.647971553882e+00 
1 -3.581052335071e+01   5.120642969169e+01   4.267456065581e+01 
1 -2.674160252297e+00   3.837294594709e+01   3.245102195360e+01 
1 -3.681355212115e+01   7.138339505333e+01  -4.797438107372e+01 
1 -2.507406678474e+01  -5.419256728126e+01   1.052365711012e+01 
8
Step 48000
1  6.842409115908e+00   5.914768168884e+01  -2.726727849103e+01 
1 -4.072591526242e+00   7.497892617070e+01  -1.230927505405e+01 
1  1.560837290051e+01   2.786728421356e+01  -1.897735635172e+01 
1  3.082561924089e+00  -5.015090595747e+00  -3.724708986125e+01 
1 -2.026605459604e+01   6.933417327032e+01   3.897879610794e+00 
1 -1.022456625083e+01   4.709030404523e+00   4.085829480779e+01 
1 -2.743856414139e+01   6.234249620967e+01  -9.910099283843e+00 
1 -2.409225291404e+01  -4.793369252093e+01   1.917931596163e-01 
8
Step 49000
1  9.512722020632e+00   5.183419564282e+01   3.598328387791e+00 
1  1.732140343913e+01   5.098022566720e+01   5.112014530177e-01 
1  3.659432031503e+01   9.698581384254e+00  -3.393732008663e+01 
1 -2.694847366082e+00  -1.555096178188e+01  -5.383813775347e+01 
1  3.810047710145e-02   5.943510701345e+01  -4.354877218706e+01 
1 -2.353449365593e+01  -4.183843307084e+01   3.987757308849e+01 
1 -1.588248007571e+01   4.297460459153e+01   1.480161921886e+01 
1 -2.162271346297e+01  -1.797437592076e+01  -2.153865801786e+00 
8
Step 50000
1  5.723477957896e+00   3.034053290482e+01   3.924146289383e+01 
1  2.774828169952e+01   2.095512741097e+01   8.764671106680e+00 
1  4.553983028651e+01  -1.732351862508e+01  -2.865818064634e+01 
1 -1.719227018786e+00  -1.888674239533e+01  -5.191968034669e+01 
1  2.096317061883e+01   3.312693648171e+01  -6.820907696330e+01 
1 -3.855797505468e+01  -6.844075486651e+01   2.643759739023e+01 
1 -1.044414816990e+01   2.223746903422e+01   2.405020389490e+01 
1 -1.464335715425e+01   1.974069825962e+01  -4.851630644490e-01 
8
Step 51000
1 -7.789225471423e+00   4.034567242157e+00   6.088723399117e+01 
1  2.709380466607e+01  -8.799749209048e-01   6.872347995087e+00 
1  3.918346757221e+01  -4.322761661749e+01  -8.161380287650e+00 
1  3.972315944063e+00  -1.433007287419e+01  -3.145343152474e+01 
1  3.738915789245e+01   9.491433897323e+00  -6.439531084684e+01 
1 -4.718803087975e+01  -6.611276146548e+01   2.917524211181e+00 
1 -1.100602188285e+01   4.121530210196e+00   2.031166309942e+01 
1  1.458807926541e+00   4.286308681363e+01   1.356055403322e+00 
8
Step 52000
1 -2.954555713711e+01  -1.483686440749e+01   5.905658629269e+01 
1  1.880314802725e+01  -1.240747873096e+01  -2.943197603148e+00 
1  1.999336131387e+01  -5.612069814497e+01   1.645290208989e+01 
1  9.612743150372e+00  -2.156353918369e+00   3.266456431689e-01 
1  4.515575442067e+01  -1.712636731919e+00  -4.594434553704e+01 
1 -4.274087752640e+01  -4.715865848471e+01  -2.238027012072e+01 
1 -1.353454906764e+01  -1.126994018496e+01   6.395645109767e+00 
1  2.167477199294e+01   4.409111620349e+01   7.943411034231e-01 
8
Step 53000
1 -4.927744879299e+01  -2.159532510456e+01   3.571221762447e+01 
1  7.182564521176e+00  -1.739887107408e+01  -1.580930125027e+01 
1 -2.644367350312e+00  -4.690759305100e+01   3.286653377774e+01 
1  1.098325121619e+01   1.802593676131e+01   2.769749889356e+01 
1  3.979848647700e+01  -2.915744941026e+00  -2.615747276373e+01 
1 -2.189830076352e+01  -2.732789280880e+01  -4.037800273750e+01 
1 -1.378413337070e+01  -2.460911936632e+01  -1.199379171796e+01 
1  3.645757161194e+01   2.704293726326e+01  -3.517477752116e+00 
8
Step 54000
1 -5.480908068808e+01  -2.003915537016e+01   4.928323015722e+00 
1 -3.382196082241e+00  -1.918945692076e+01  -2.683337866078e+01 
1 -1.885119481845e+01  -8.993132162452e+00   3.458502967991e+01 
1  5.252809866493e+00   4.728340313858e+01   3.952852846317e+01 
1  1.338789513370e+01   1.185543455623e+00  -1.052317336908e+01 
1  1.079786489318e+01  -1.049034912147e+01  -4.626340942154e+01 
1 -9.281465275403e+00  -3.497537627106e+01  -2.718439060776e+01 
1  3.958336602410e+01   2.034330481977e+00  -1.159778151107e+01 
8
Step 55000
1 -4.000197737114e+01  -1.449077417795e+01  -1.536665582809e+01 
1 -9.764807121761e+00  -1.992529842328e+01  -3.112916002715e+01 
1 -2.609822896964e+01   3.975321481442e+01   2.102319621179e+01 
1 -9.815719534513e+00   7.652673865026e+01   3.609149497410e+01 
1 -3.097683298237e+01   6.468603421165e+00   3.597290170846e-01 
1  4.060638960656e+01   4.009749956576e+00  -3.893640412892e+01 
1 -1.090173068694e-01  -3.914649972320e+01  -3.281857822162e+01 
1  2.816595192433e+01  -1.798712283738e+01  -2.132587965753e+01 
8
Step 56000
1 -8.249976950834e+00  -7.484716574526e+00  -2.147730592120e+01 
1 -1.183919101254e+01  -2.018745870132e+01  -2.512892083864e+01 