8
Step 0
1 -8.19206160314889189e+01 1.17668904556741950e+02 -2.97033021598792288e+01
1 -7.93215895090458929e+01 1.05023888631320204e+02 1.14341465972535332e+02
1 7.67622396710342514e+01 -1.29821115290509368e+02 -1.21067231261382062e+01
1 6.05098360353093767e+01 -1.76383016719461523e+01 1.43337446912598296e+02
1 4.09961205751411057e+01 -1.00249624765939416e+00 -6.52395336848756102e+01
1 4.68569894558842748e+00 7.04339154594725301e+01 -1.42510060823431303e+02
1 6.68875296348806216e+01 3.46813864137929215e+01 -1.09812060627859424e+02
1 1.96611271123377378e+01 1.37028237639027111e+02 1.00395745506992483e+02
8
Step 1000
1 -1.48135046549452518e+01 8.53068078851028844e+01 -5.04581802110564297e+01
1 -9.92391814019580920e+01 3.26082223804348672e+01 1.35184199940878983e+02
1 2.37192675784584495e+01 -1.32526553237844070e+02 3.55015857247149356e+01
1 2.50248397305778596e+01 -1.76182566698951995e+01 1.54376448130215579e+02
1 8.16342562609385567e+01 -2.10472515960494846e+01 -2.14949393489791767e+01
1 9.03843110797216127e+01 1.39519619621276064e+02 -1.50084695035173638e+02
1 5.74631393684201797e+01 -9.82947527213118022e+00 -1.01901701145829378e+02
1 4.73878267526765828e+00 6.99020118396605454e+01 1.32214887520083579e+02
8
Step 2000
1 5.90658558345104012e+01 3.19854340414586531e+01 -5.73591960788959199e+01
1 -6.83660741798809681e+01 -5.92301202838416145e+01 1.03735441449068574e+02
1 -3.52715790252366759e+01 -9.33400496314516630e+01 6.43181536435655374e+01
1 -1.12647501729097907e+01 -1.39998993371527387e+01 1.16296643999759098e+02
1 1.02905358003522423e+02 -2.21536925250878092e+01 2.91154517991548580e+01
1 1.47207862504010762e+02 1.46708291355436330e+02 -1.10911704029194595e+02
1 2.87868775974494291e+01 -5.34623095555871402e+01 -6.57488352549922297e+01
1 -1.01481837760466096e+01 -1.45051771853567324e+01 1.06002867326563916e+02
8
Step 3000
1 1.08386735774766706e+02 -2.17815095006640824e+01 -4.25767767068160765e+01
1 -2.76475714878987056e+00 -1.18458759249558582e+02 2.92661864210629759e+01
1 -8.18317761979427729e+01 -2.59108490597662531e+01 6.37203614063265178e+01
1 -4.16190809263816348e+01 -5.87713992461854939e+00 4.71666057917055497e+01
1 9.31375476736857308e+01 -7.65634888178814066e+00 6.01114750326441225e+01
1 1.54864598208512831e+02 1.03083009064488678e+02 -4.01941347670493627e+01
1 -4.99322209700167718e+00 -7.81504976603854118e+01 -1.07876351567969415e+01
1 -2.47190956495725906e+01 -7.82990025166266008e+01 3.42387952045859905e+01
8
Step 4000
1 1.15416976146890761e+02 -5.62470451456911604e+01 -8.62309390143214749e+00
1 6.05702932428846381e+01 -1.19875205801354042e+02 -5.43402659243316961e+01
1 -1.02873234834873344e+02 4.41833528399571236e+01 3.80535688462037456e+01
1 -6.21726985261892011e+01 7.61731412522717477e+00 -2.19020660599373720e+01
1 5.22981168246202657e+01 6.76634137134186897e+00 5.83585935828862148e+01
1 1.13570011462233580e+02 3.74041559552039686e+01 3.27260921567013767e+01
1 -3.07294545701490485e+01 -7.53165524007582547e+01 4.64295344691710667e+01
1 -3.95565589263721122e+01 -9.87760624073821560e+01 -4.53698697422460597e+01
8
Step 5000
1 8.04883601755587108e+01 -6.33940548658764200e+01 3.44028779981070443e+01
1 8.86750487011963742e+01 -7.08926185209585356e+01 -1.09295536230994671e+02
1 -9.44142207430574842e+01 9.18188611542727529e+01 2.01772242393743406e+00
1 -6.97544339620842351e+01 2.51558434724310480e+01 -6.53362364005122060e+01
1 -9.11710664059057052e+00 9.31339060262080132e+00 2.88008477744971927e+01
1 4.06782509359980153e+01 -1.73020161440398681e+01 8.08143224872546568e+01
1 -4.25755645985900983e+01 -4.77874043675262641e+01 8.80450210616040039e+01
1 -5.01613852056634784e+01 -8.05349842272212868e+01 -9.49207345393960935e+01
8
Step 6000
1 2.00053411470002160e+01 -5.11571332393437928e+01 7.25989687788577811e+01
1 7.26637811094869193e+01 7.27496499852711365e-01 -1.21093029710349001e+02
1 -6.06608025567957583e+01 1.05860459509267073e+02 -2.62810025412647690e+01
1 -6.10736473174581889e+01 4.15955352180508484e+01 -7.65228911901258044e+01
1 -6.77340883919951153e+01 -3.04096576485592296e+00 -1.28892125740773622e+01
1 -3.34035146705581951e+01 -4.24721769211959668e+01 9.46935764856140594e+01
1 -4.14314414474755210e+01 -7.40875903013713888e+00 1.02450419873911542e+02
1 -5.21091575632295516e+01 -4.08491401971283068e+01 -9.98955516712014173e+01
8
Step 7000
1 -3.77074860885901302e+01 -3.27830181561178620e+01 8.79363432514974619e+01
1 2.54818455990517059e+01 5.91082982133091122e+01 -9.51591991789925231e+01
1 -1.32402801003922157e+01 8.89077005726467746e+01 -3.45239306814677605e+01
1 -3.44120408093116126e+01 4.88696147447624654e+01 -6.36282134335244152e+01
1 -9.92697987726022291e+01 -2.56287728295398587e+01 -4.61544320550955760e+01
1 -8.28679437418538356e+01 -3.93531604800911552e+01 8.07024312798595531e+01
1 -3.21073125025089539e+01 3.06721552049798305e+01 8.77425401433242200e+01
1 -4.15218987825591768e+01 3.71913184419671861e-02 -6.82935338548645063e+01
8
Step 8000
1 -6.82319455631601528e+01 -1.83708486653061911e+01 6.70254196499412416e+01
1 -2.65010558953274007e+01 8.06791294429665840e+01 -4.79802222221328734e+01
1 3.15046709882189226e+01 5.17281768743145989e+01 -2.23559366523851111e+01
1 7.47073878840581695e+00 3.90701281059192027e+01 -4.02787076752271886e+01
1 -9.37942749131885307e+01 -4.59420025294442027e+01 -5.64205763752377933e+01
1 -9.86566644047925934e+01 -2.12030939448916698e+01 5.24521623197308671e+01
1 -1.99240916244490940e+01 5.58273611642458079e+01 5.12775925807011674e+01
1 -1.35039879061374499e+01 2.58708377973381012e+01 -1.94990785704440590e+01
8
Step 9000
1 -6.39180193825521030e+01 -1.28605073650870061e+01 1.15624566968131468e+01
1 -5.66335361491018432e+01 6.14406969765247339e+01 1.77828422852794529e-02
1 5.91564781695816180e+01 9.42681005244436321e+00 1.14411502828362743e+00
1 5.48445003845600851e+01 8.36143501201276074e+00 -1.83927447542614111e+01
1 -5.64874823368970027e+01 -5.03186681474123247e+01 -4.26632637119763274e+01
1 -8.30845761257374846e+01 -3.59087865079434509e+00 2.35351273555956446e+01
1 -7.52955725026770839e+00 6.56920378331353021e+01 7.50777867333385807e+00
1 3.12518671704756663e+01 3.27100341869506437e+01 2.43946003521835273e+01
8
Step 10000
1 -3.22892676153656666e+01 -1.50296328990556116e+01 -5.82100935590129254e+01
1 -5.42657024675447772e+01 1.36281672708000468e+01 3.42860722073102551e+01
1 6.33720174109035028e+01 -2.34059641689536235e+01 2.30900335262818750e+01
1 9.23848397443645553e+01 -3.90317331493523838e+01 -3.52102814586592494e+00
1 -5.58457047626060188e+00 -2.92565630927540141e+01 -1.45726965258678867e+01
1 -4.40352115627354692e+01 3.19740262358419258e+00 2.26823308635307352e+00
1 5.72545358669949689e+00 6.36051785853587646e+01 -2.76203790084172844e+01
1 8.24919845391312805e+01 2.68788319003562179e+01 4.82010261879589308e+01
8
Step 11000
1 1.04519842500918347e+01 -1.64580547196786497e+01 -1.12831897535256815e+02
1 -2.91706879046261029e+01 -3.90855284033497767e+01 5.08594979996012171e+01
1 4.73423130306536777e+01 -3.94787985110387538e+01 3.21466914719467596e+01
1 1.04360240721337973e+02 -8.83736252588860793e+01 5.70509838073927700e+00
1 3.49529473704394107e+01 1.85197753853606280e+01 1.32755619686905479e+01
1 6.00371233222586120e+00 -2.35251354374694266e+00 -9.67593776919112081e+00
1 2.17797446163791193e+01 5.34292481828745593e+01 -4.42886148777171940e+01
1 1.21971284249945597e+02 1.80470779622101460e+01 4.91362093343316886e+01
8
Step 12000
1 4.38070063139002954e+01 -7.10832381155327742e+00 -1.27708362036530872e+02
1 -1.77633336664714303e+00 -7.18503163601208428e+01 5.17243938154722827e+01
1 2.16122744857126463e+01 -4.02999276956473480e+01 2.15699833364898943e+01
1 7.91631966173582242e+01 -1.17920827907578754e+02 1.35710950769357002e+01
1 5.07371582120105558e+01 7.85080871187965101e+01 2.82479616320449232e+01
1 5.18294619404900843e+01 -1.38322829552667006e+01 -1.47276812488564754e+01
1 4.11334960468522013e+01 3.50554860742762671e+01 -4.37054514447390403e+01
1 1.29369292749719762e+02 1.40188060369270868e+01 3.32044362705296976e+01
8
Step 13000
1 4.90951742121239718e+01 1.76468148751706373e+01 -9.06592814801813063e+01
1 1.38395487018533103e+01 -6.97656857350877146e+01 4.01357539920708319e+01
1 -1.46715453680660035e+00 -3.30684628244443886e+01 -9.48066678736196877e+00
1 1.30255662070848679e+01 -1.09059694839459496e+02 2.26084775570814074e+01
1 4.28989708493286130e+01 1.21731298753669549e+02 2.71755433819447596e+01
1 8.00663617439446114e+01 -2.12857722388550776e+01 -1.60388884959042919e+01
1 6.00255020232149192e+01 2.54889086819667243e+00 -3.58530949915800932e+01
1 8.88819524891777064e+01 1.66911847748100470e+01 9.07882273234338477e+00
8
Step 14000
1 1.94224684246196340e+01 5.43710050249954762e+01 -7.65489359597175234e+00
1 1.55158317200691336e+01 -3.35210727009624776e+01 2.08150315784160895e+01
1 -1.37858597445208293e+01 -2.58593917200957684e+01 -5.25465723274044407e+01
1 -7.84307915826978927e+01 -5.70027662089522025e+01 3.09906006674476195e+01
1 2.17146601247960476e+01 1.22803412480667419e+02 1.77450946684414355e+01
1 8.34886279667479698e+01 -1.71464165582743924e+01 -1.55765906845635715e+01
1 6.95392696305358129e+01 -5.07521481749104026e+01 -3.08964708307468889e+01
1 5.64877940869579986e-01 2.01986914646137308e+01 -1.52754496516883354e+01
8
Step 15000
1 -3.30840593051940957e+01 9.14114563457712705e+01 8.67374687561420785e+01
1 7.59755194704560211e+00 1.97309035327974271e+01 -6.41683053674790171e-01
1 -1.39675166818236498e+01 -2.31271375090239424e+01 -8.77934491970388535e+01
1 -1.55116813112381010e+02 1.96196021938796115e+01 3.38278451507335092e+01
1 -1.46888021676195663e-01 7.34989133841348803e+01 1.19468583350531290e+01
1 6.21698398771895313e+01 -2.08525173407304920e-01 -1.37621040010067848e+01
1 6.03490416138035570e+01 -1.20096641998296661e+02 -3.26891706829640825e+01
1 -1.02031071824015498e+02 1.60652692491115054e+01 -3.30120489057579363e+01
8
Step 16000
1 -8.17396716510360193e+01 1.10991045617691313e+02 1.44756123759006897e+02
1 -3.12618646858948646e+00 6.38795485902601072e+01 -1.98491248025454965e+01
1 -5.70543099295361156e+00 -2.39010115411536646e+01 -9.36600531369242475e+01
1 -1.79233029466337456e+02 8.42611541699620830e+01 2.75562249442257183e+01
1 -1.33526813272100622e+01 -7.83390776489939089e+00 1.90655186433506358e+01
1 2.26035028598591197e+01 2.32178866009482263e+01 -1.05986143815574998e+01
1 2.97065027586154926e+01 -1.81109871374027733e+02 -3.77976986263227204e+01
1 -1.69027798622684514e+02 -6.73991197166485367e-01 -4.08403189755971425e+01
8
Step 17000
1 -1.01028298576634597e+02 9.47046490345786509e+01 1.42686293419307958e+02
1 -9.18789140823918871e+00 7.88306096043481546e+01 -3.35393630652043342e+01
1 4.17332477102945987e+00 -2.30788858851373000e+01 -6.12163036164478882e+01
1 -1.37171702033180281e+02 1.10144633048346279e+02 1.23457245948654428e+01
1 -1.54498541230280164e+01 -8.01879545292942595e+01 3.97072014955735995e+01
1 -2.27479506256066699e+01 4.22636093837854645e+01 -6.48748843074310599e+00
1 -1.50295135913242675e+01 -2.00037026553014613e+02 -3.88187161031222985e+01
1 -1.75305769386479597e+02 -2.85628598764344694e+01 -3.96807590418878178e+01
8
Step 18000
1 -7.57713387912768752e+01 3.30654670699953357e+01 8.69869534833251379e+01
1 -7.10465992379555988e+00 5.85080111152710884e+01 -3.90007829431167821e+01
1 7.77864630120553269e+00 -1.46494510423470459e+01 -7.75635846139279050e-01
1 -4.51716432394005523e+01 9.40434478362084434e+01 -7.98473141425325483e+00
1 -9.06945946210414178e+00 -1.11377778778681076e+02 6.19948026209382306e+01
1 -5.84655189290552713e+01 4.73431310881922727e+01 -2.15378014266396756e+00
1 -5.85646412014607449e+01 -1.52408678825030393e+02 -3.03987389210520043e+01
1 -1.24777237846443441e+02 -5.76046356501135577e+01 -3.16965731558476485e+01
8
Step 19000
1 -1.09463643435663531e+01 -5.91841119738940264e+01 8.56018919459730654e+00
1 7.19393813324417430e-01 1.14029162060488272e+01 -3.54959902803459073e+01
1 1.11354542388346411e-01 3.66348248285082034e+00 6.06875199485584744e+01
1 4.88888253993744542e+01 5.02033882456675187e+01 -2.66680924968621760e+01
1 7.32982618339487968e-01 -9.44242557127264348e+01 6.62468967378586626e+01
1 -7.30713084237687553e+01 3.44034598732611059e+01 1.65379213549550075e+00
1 -8.48234810908272010e+01 -4.21660077904459385e+01 -1.26270291722364956e+01
1 -4.15995657563508914e+01 -7.28713378620943786e+01 -1.77484975840990700e+01
8
Step 20000
1 6.43018383054655942e+01 -1.41290388431523240e+02 -5.19380607482315355e+01
1 9.32330820795766435e+00 -4.08014280364856248e+01 -2.39473172674362154e+01
1 -1.82846117890658384e+01 2.74980741336934749e+01 9.52981270228596031e+01
1 9.96393608121073555e+01 1.23571233244361922e+00 -3.63826035862305730e+01
1 8.16324265416027117e+00 -4.21944183100516241e+01 3.72527143630125508e+01
1 -6.38159298711430836e+01 5.95332536675210822e+00 4.33042281698496989e+00
1 -8.43236329218077998e+01 7.67804278068895201e+01 1.00815297942953137e+01
1 3.86153908179630960e+01 -6.28298687322917644e+01 2.58891563943926251e+00
8
Step 21000
1 1.15149848889600747e+02 -1.76562013934456360e+02 -7.24647044461923855e+01
1 1.40893592016090583e+01 -7.35653634601596593e+01 -5.40750408091369916e+00
1 -4.05448604840394324e+01 4.76919597599598220e+01 9.05820977157734575e+01
1 9.73697004681609570e+01 -3.27291853194657705e+01 -3.27440702042213374e+01
1 9.08272135598737229e+00 1.76042362227055627e+01 -2.38096773134091677e+01
1 -3.58523218954937590e+01 -2.88838634365992775e+01 5.82480609729130627e+00
1 -5.72832343817763885e+01 1.44195547003752495e+02 3.13556273233673579e+01
1 8.86402406569226429e+01 -2.62023020328666938e+01 2.85657285400065923e+01
8
Step 22000
1 1.21386473159345385e+02 -1.53065983191165742e+02 -5.64981808643313315e+01
1 1.23315953810784276e+01 -7.35960914033758087e+01 1.76453687181629668e+01
1 -5.42462171591955311e+01 5.50912801264764198e+01 5.21949822078978158e+01
1 5.94429034986040250e+01 -4.26923735449153909e+01 -1.63079352921869791e+01
1 3.25054410403361693e+00 5.62469170015236273e+01 -9.31347819300730322e+01
1 -5.24780736673688075e-01 -5.72087624607070850e+01 6.57449352013845356e+00
1 -1.38217834999894631e+01 1.48804919207856898e+02 4.51162243575494770e+01
1 1.01069321294960375e+02 2.53395690370098912e+01 5.56845798118067776e+01
8
Step 23000
1 8.19658171205022654e+01 -8.18201049400450700e+01 -2.24127967696854036e+01
1 4.58090796456153626e+00 -4.33303949524252161e+01 3.95759944763665246e+01
1 -4.72120268823922018e+01 4.53323910279015720e+01 -3.83150388725832625e-01
1 1.41518568583226134e+01 -3.13898002643461318e+01 6.93950540443995667e+00
1 -5.98491740230906011e+00 5.98036067651015557e+01 -1.36474296019682697e+02
1 2.85394267995329791e+01 -6.72392648981956000e+01 7.14301291778123293e+00
1 2.90576925205933243e+01 1.07643799132285864e+02 4.71950795367847959e+01
1 8.16902147554109064e+01 7.15383846562093879e+01 7.60822899951753300e+01
8
Step 24000
1 1.56489770344093841e+01 4.30011182420548543e+00 8.27192143373044431e+00
1 -5.51941828341562690e+00 2.45876442981274312e+00 5.37282706492018818e+01
1 -1.55119575872752886e+01 2.11560806633128919e+01 -4.32788051325037983e+01
1 -1.47487042114123206e+01 -9.09519812370113101e+00 2.74904377965299567e+01
1 -1.35426313691270774e+01 3.21993004396781259e+01 -1.31283314180639877e+02
1 4.13118324092132667e+01 -5.27070502079572023e+01 7.69764705407879646e+00
1 5.51005084483149332e+01 4.62189340217634239e+01 3.61812952797240399e+01
1 4.21560245014037918e+01 9.37578091680624368e+01 7.98135556035827278e+01
8
Step 25000
1 -4.58734168799205051e+01 6.81945410700374310e+01 2.15079356254925784e+01
1 -1.35891839600612272e+01 4.31416574608835930e+01 5.49646366741623140e+01
1 3.25358674217646850e+01 -8.76213278041743671e+00 -6.06993550335311483e+01
1 -1.86363357763313324e+01 1.14965927363094984e+01 3.67853944667268493e+01
1 -1.49426335701967457e+01 -8.97816181226174592e+00 -7.57255653888427247e+01
1 3.54027151197857393e+01 -1.61159742581338286e+01 7.69757891840021813e+00
1 5.67715293204751106e+01 -9.76117530124704302e+00 1.41553064594311468e+01
1 -3.39862089094170017e+00 8.29582002396461320e+01 5.79401685910048414e+01
8
Step 26000
1 -7.85490781094343333e+01 9.43014637317969573e+01 1.51097129894443487e+01
1 -1.66102133346625074e+01 6.18399997489610413e+01 4.01571597416190755e+01
1 7.85286899260647857e+01 -3.36829573401913436e+01 -5.04341121151446785e+01
1 -3.49855378004760098e+00 2.02878247002226253e+01 3.15089620843966998e+01
1 -8.28512250690675955e+00 -4.12229627559773846e+01 7.76660430207901609e+00
1 1.64684910302919008e+01 2.97563496210632223e+01 6.03364345575041572e+00
1 3.80003309928607607e+01 -4.40207145130981985e+01 -1.31093672527386627e+01
1 -4.12405889531380438e+01 4.29192616135273965e+01 9.32705312265203901e+00
8
Step 27000
1 -7.61381047578208836e+01 8.71335541823051614e+01 -3.33322992871623525e+00
1 -1.38576357380849196e+01 5.31390473749226260e+01 9.76967920622876740e+00
1 1.02781884615923616e+02 -4.52024101869002379e+01 -2.12864070263134693e+01
1 1.63062489732940996e+01 1.34990848615361365e+01 1.51167067044562735e+01
1 4.80513884211040576e+00 -4.89882179567444638e+01 7.97682438906632143e+01
1 -4.58093216033087902e+00 6.63100101257114858e+01 1.53014560474287076e+00
1 1.15824006711715555e+01 -5.24810015673863290e+01 -3.76247410139489844e+01
1 -6.20088190609373981e+01 -1.02859424676339675e+01 -5.32296720620993398e+01
8
Step 28000
1 -4.69466220217777845e+01 5.93007413997076043e+01 -2.14649756477027367e+01
1 -6.64754003840003627e+00 2.45626225085693015e+01 -2.93020604034749113e+01
1 9.40175497647868497e+01 -4.16134983041815829e+01 1.19126090418098745e+01
1 2.62636868501857315e+01 -5.12293046125852225e+00 -3.99920236615556934e+00
1 1.94102684795310587e+01 -3.02138705882171514e+01 1.11651746315138553e+02
1 -1.66866834224805807e+01 7.85242565751625534e+01 -6.27633727286000731e+00
1 -6.98382763966483466e+00 -4.04972954806576695e+01 -5.17481270794725745e+01
1 -6.23890837589684395e+01 -5.39560151125518033e+01 -1.05964439703606132e+02
8
Step 29000
1 -8.83961071654911557e+00 2.50900057173763251e+01 -2.84439378501753772e+01
1 2.58794084003085212e+00 -8.46708568263009731e+00 -6.48757923777803285e+01
1 5.32416511565915158e+01 -2.77481009910920733e+01 3.50748961666604799e+01
1 1.87188581218002845e+01 -2.55093579329032281e+01 -1.66762611129844061e+01
1 2.89412991890413558e+01 5.51156336423192439e+00 9.89740335868410597e+01
1 -1.36307551127533735e+01 6.15663035656273152e+01 -1.62377053887145593e+01
1 -6.99894168377152504e+00 -1.91608370200140605e+01 -5.05866572450154095e+01
1 -4.33460539422867868e+01 -7.13714680041829013e+01 -1.26939105009449449e+02
8
Step 30000
1 1.91267892678798503e+01 -4.04983488872037700e+00 -1.99703897593072242e+01
1 1.17728203512088658e+01 -3.11815234100379257e+01 -8.44317273882072783e+01
1 -6.12270885874805604e+00 -1.06893517722281821e+01 4.06352016413104096e+01
1 -3.99903557741571536e+00 -3.49619850356451636e+01 -1.76701169837571257e+01
1 2.79977252758721100e+01 4.16585484979814495e+01 5.51707165445208432e+01
1 3.52009341038367740e+00 2.23433449086209706e+01 -2.53019143737182191e+01
1 1.18435538427884932e+01 -2.24673262748839031e-01 -3.36678168357823253e+01
1 -9.83653669748724369e+00 -5.93966185191849974e+01 -1.05585765427171893e+02
8
Step 31000
1 2.65887107588039378e+01 -2.26927969742041462e+01 2.70868917783725460e-01
1 1.95216915185043192e+01 -3.59858441406053799e+01 -7.95118941209934889e+01
1 -6.20758988029365000e+01 3.75543088234156874e+00 2.90421088323220360e+01
1 -3.10717369811050546e+01 -2.39281257309998878e+01 -8.69601702207953586e+00
1 1.46986576909577771e+01 6.19429859784564840e+01 3.86256843508198511e+00
1 2.63741579410388489e+01 -2.23051381725700217e+01 -2.92875585850387203e+01
1 3.80556935646304950e+01 8.87338990912788539e+00 -5.50144412175358699e+00
1 2.81232498662401440e+01 -2.73943507275597540e+01 -4.60729034143967553e+01
8
Step 32000
1 1.59385684291422862e+01 -3.09037700221108125e+01 2.30692032987627016e+01
1 2.43484327639682618e+01 -2.42200844784853118e+01 -4.83358613924882548e+01
1 -9.52761170614111279e+01 1.21331434163781395e+01 7.15342876375527048e+00
1 -4.89754656141170202e+01 8.44548942306318651e+00 2.29090811374234926e+00
1 -8.50433725905299021e+00 5.76844749632378822e+01 -3.29435383751942652e+01
1 4.18430457350987908e+01 -5.31958986981291986e+01 -2.41003990207429375e+01
1 5.23735239191906317e+01 7.21245482511638158e+00 2.52718505667657851e+01
1 5.77881158587998485e+01 8.13639433208001428e+00 2.94710781512027822e+01
8
Step 33000
1 -3.75173478002845562e-01 -3.14009878836480105e+01 3.83378407788416737e+01
1 2.44048865956103924e+01 -4.59672353740734252e+00 1.67789369021867185e+00
1 -9.86100180780045008e+01 1.53822097613012314e+01 -1.50299348823280372e+01
1 -4.82615365215096261e+01 5.14203837368534451e+01 5.56483426811137072e+00
1 -3.55028578775034660e+01 3.07593712823391918e+01 -4.60185687917577440e+01
1 3.78109416430656111e+01 -5.87346315777918306e+01 -7.25793342254965257e+00
1 3.63319369076962957e+01 -5.55857906886462971e-01 4.85357906176051088e+01
1 6.95165423068810924e+01 2.99826775716066045e+01 8.94622670859312734e+01
8
Step 34000
1 -7.37005016013055059e+00 -2.72325300301980242e+01 3.92443517009584468e+01
1 1.76197663716207416e+01 1.17836493371896545e+01 5.40589360973198723e+01
1 -7.60849652131269210e+01 1.76695069755011858e+01 -2.90767493691310897e+01
1 -2.76653456769522172e+01 8.47930347263593092e+01 -4.62533320790531999e+00
1 -5.74214283356724451e+01 -7.98420561125002060e+00 -3.88211538211379477e+01
1 9.83950635648885630e+00 -3.96464001162906428e+01 2.02920687818423744e+01
1 -1.72476667459047377e+01 -6.86288787817529666e+00 5.62109977338695188e+01
1 5.89665693939343853e+01 2.80359719359083215e+01 1.13129551219517879e+02
8
Step 35000
1 3.45252255063714397e+00 -2.06979342013139913e+01 2.42909883274506306e+01
1 1.77340020867849568e+00 1.79746151476720968e+01 9.03372658460094016e+01
1 -3.85093105204574044e+01 2.24315609448490392e+01 -3.16650992616996554e+01
1 5.05200248271029562e+00 8.75552837341918462e+01 -2.56894256734750179e+01
1 -6.35354287581625812e+01 -4.43623041855663587e+01 -2.14240668611294538e+01
1 -3.36317547668338221e+01 -7.83274878954512221e+00 5.27535888596352436e+01
1 -9.21979015341914447e+01 -5.15933752631127618e+00 4.48010596057273105e+01
1 2.67169284485992833e+01 4.11595188432133163e+00 9.84288502749474645e+01
8
Step 36000
1 2.88196349875835729e+01 -1.27269596682764980e+01 -1.65500224811845809e+00
1 -2.32951714721034620e+01 1.36965934385260635e+01 9.85402832004616016e+01
1 9.63336552428773474e-01 2.95870884061709312e+01 -2.53697914336187509e+01
1 3.65100538263186678e+01 4.88753104889604160e+01 -4.61710919670252267e+01
1 -4.69258661806053681e+01 -6.63569742831703451e+01 -5.39569749789007869e+00
1 -7.26400368610890155e+01 1.94314719437335803e+01 7.97706290094127155e+01
1 -1.50037939435169449e+02 6.42404238077019318e+00 1.64926791726515631e+01
1 -2.02831696718645595e+01 -3.08792069567683605e+01 5.85011319815746589e+01
8
Step 37000
1 5.43411203916204997e+01 -3.18042258348070561e+00 -2.87068341670133336e+01
1 -5.21924793597985683e+01 3.52251462483067357e+00 7.64339499645248424e+01
1 3.20042456901736188e+01 3.48433656480793559e+01 -1.63796313773090638e+01
1 5.39856208147313339e+01 -2.32398381757148833e+01 -5.05869799322061269e+01
1 -1.03357257869640815e+01 -6.66904913172862734e+01 1.62210229788231874e+00
1 -8.69848380969410755e+01 2.86877554606057785e+01 8.87152416723130557e+01
1 -1.55885168622215957e+02 2.36894451802984136e+01 -2.07013284465612593e+01
1 -6.84472930596754026e+01 -6.14265867760346822e+01 1.44406022816457487e+01
8
Step 38000
1 6.16603297839328803e+01 7.44946570367783423e+00 -4.66109102931135766e+01
1 -7.35673398813896711e+01 -6.51677929225693209e+00 3.19011122484182899e+01
1 5.06953650420820168e+01 3.14477936363754971e+01 -9.73210279377063614e+00
1 5.04424481357779584e+01 -9.79985155266712269e+01 -2.72564017887916350e+01
1 3.60337977789281609e+01 -4.38065431543274713e+01 3.39121592959028106e-01
1 -6.79323525418040362e+01 1.71279205753480070e+01 6.86784847137948589e+01
1 -9.89480877930880922e+01 3.79786062588092292e+01 -5.43907258495504067e+01
1 -1.03286871319944680e+02 -6.89574740432992570e+01 -1.76146401296232646e+01
8
Step 39000
1 3.87107268257352999e+01 1.69988027425536998e+01 -4.87812441427736374e+01
1 -7.58500707967235570e+01 -1.18505611926964640e+01 -1.92055005987094454e+01
1 5.92927072557318269e+01 1.43303287234849854e+01 -4.64714824739953691e+00
1 2.73333665971513291e+01 -1.37920319185972346e+02 2.33286470548345015e+01
1 8.17387874556886942e+01 -2.52737538159306885e+00 -1.14678680994784221e+00
1 -2.27424286915791463e+01 -5.70118739821413190e+00 1.70197899227631595e+01
1 1.49923691068446996e-01 3.99181542605703257e+01 -7.01317440713323208e+01
1 -1.17435216069918411e+02 -3.79086209112540331e+01 -3.51622160084180138e+01
8
Step 40000
1 -1.24881865774390342e+01 2.26116503325737845e+01 -3.22514358193595143e+01
1 -5.17614053770396865e+01 -1.12716508450353636e+01 -5.95941693175755915e+01
1 6.22821084910061984e+01 -1.56323061447183242e+01 4.03454737283082832e+00
1 -5.32971509628522000e+00 -1.23710870979983852e+02 8.28406615472953831e+01
1 1.11946340597647747e+02 4.63190699742590866e+01 4.33418657680889652e+00
1 2.78006047206747056e+01 -2.23531760731602596e+01 -5.31407485991024657e+01
1 9.21395646025555379e+01 2.26574073085645828e+01 -5.73087478001549400e+01
1 -1.03836580840500091e+02 3.12522478907325301e+01 -4.13515697007326608e+01
8
Step 41000
1 -7.33062483416702975e+01 2.27813481978524521e+01 3.36400182607210407e+00
1 -1.39977075105320625e+00 -7.11886802678283637e+00 -7.79867192644689311e+01
1 6.14669488789990766e+01 -5.01586767099627480e+01 2.03688939287930211e+01
1 -3.42041908353580411e+01 -6.20578928792139024e+01 1.22977143001287089e+02
1 1.08865605314199470e+02 8.87162250788670548e+01 1.54119589353055577e+01
1 6.18486702880557786e+01 -1.74956284868918459e+01 -1.15945164649604564e+02
1 1.36497609179868590e+02 -1.45094714313656965e+01 -1.74069790167868241e+01
1 -5.19633241669012591e+01 1.10518151135244253e+02 -3.75975508042086659e+01
8
Step 42000
1 -1.16213979853169079e+02 1.84498117864630373e+01 5.26044982274365154e+01
1 5.98750821420659847e+01 -2.45029584316500149e+00 -7.23022660648370703e+01
1 5.43106530005706176e+01 -7.62779925731710762e+01 4.24886980050430978e+01
1 -4.84024602038430061e+01 1.74686368321593442e+01 1.21275190551469748e+02
1 6.89326832004085190e+01 1.07948510934862881e+02 2.62487599375948371e+01
1 6.85758795040919580e+01 1.49528153086156355e+01 -1.46977303573853675e+02
1 1.25207411419437761e+02 -6.28629824047818815e+01 3.28115458052129441e+01
1 3.23389464675305263e+01 1.58713096156749828e+02 -2.94310685292316521e+01
8
Step 43000
1 -1.19982712694071125e+02 1.27564375352229060e+01 1.00009853834939932e+02
1 1.05365756017877700e+02 1.10978434163081041e+00 -4.93641674861058988e+01
1 3.59636489311832008e+01 -8.24929557462260448e+01 6.15876311904732248e+01
1 -4.15290963451808750e+01 7.66158712236903057e+01 7.01684885220079479e+01
1 5.17987605701886267e+00 9.09986343950651246e+01 3.05072028260588155e+01
1 4.83319900407306235e+01 6.85827271618916399e+01 -1.33865786415519239e+02
1 7.13979487686024044e+01 -1.04662081857421271e+02 6.82919115855030157e+01
1 1.17673935792279522e+02 1.49411323904382044e+02 -2.41122148428198741e+01
8
Step 44000
1 -7.77165905738134768e+01 9.69277083686385943e+00 1.23203269943602081e+02
1 1.14156776906756491e+02 3.85753491013260197e+00 -2.02673537654523130e+01
1 3.41444499768072562e+00 -6.40545470656921623e+01 6.50637451868357743e+01
1 -1.48287382540824009e+01 9.24071154764292828e+01 -1.36144392165075701e+01
1 -6.18646473602679947e+01 3.50932461799037938e+01 2.19059215695321150e+01
1 1.42357328715080982e+01 1.20520145495885558e+02 -8.17130094605644643e+01
1 1.16532855152309445e+00 -1.19237581076000026e+02 6.86975300701512452e+01
1 1.66969406415845384e+02 8.29619227039971889e+01 -1.95076984533131714e+01
8
Step 45000
1 -5.86583655324916076e-01 1.12410763066836594e+01 1.07398401121636653e+02
1 8.12944511870934292e+01 7.49174667195893296e+00 5.69491373576705762e+00
1 -3.91141655676207094e+01 -2.52491412252414804e+01 4.22257996979493768e+01
1 2.16478673139319255e+01 6.60945276308481908e+01 -9.03358856132888093e+01
1 -1.10207456583789963e+02 -4.51960769261850217e+01 -3.05329150359502677e+00
1 -1.50312217189173225e+01 1.35450782766053578e+02 -8.31905788433744853e+00
1 -5.62081458496097071e+01 -9.14454111073891767e+01 2.95001508146575588e+01
1 1.63270428912303942e+02 -1.20634342853854069e+01 -1.15234799445997016e+01
8
Step 46000
1 7.95395715424207026e+01 1.30657989007969295e+01 5.17163301258501562e+01
1 1.86498789683855186e+01 1.27080874383578575e+01 2.25424782977515221e+01
1 -7.86060429349608256e+01 2.14172132863415001e+01 -6.81302530732657363e+00
1 5.50232865640403048e+01 2.01394293960890707e+01 -1.28005251056196187e+02
1 -1.23641638019105201e+02 -1.17834274507274429e+02 -3.65486969838187790e+01
1 -2.84783317343414346e+01 8.16391478282288006e+01 6.53956530552461714e+01
1 -8.17273660215270610e+01 -2.02970773414079133e+01 -3.09793306418877386e+01
1 1.11905228345450951e+02 -9.25134664498255432e+01 -1.73685220752353375e+00
8
Step 47000
1 1.28877562232005687e+02 6.99601928397151340e+00 -2.89045418069038185e+01
1 -4.71863049097705982e+01 1.76444789703527860e+01 3.14175896488444195e+01
1 -9.90917197192615049e+01 6.03288232082066003e+01 -6.53838520579220699e+01
1 7.32361870877652166e+01 -1.77870565491319752e+01 -1.17780192566547271e+02
1 -9.68414519584285927e+01 -1.50266498445696982e+02 -6.26985510361971805e+01
1 -2.54088024011545599e+01 -3.90316723467138473e+01 1.17126894024504665e+02
1 -7.18381748301881515e+01 7.05934714092009301e+01 -7.97736720327997801e+01
1 3.62836148123210975e+01 -1.28889562062278060e+02 1.39316475969596372e+01
8
Step 48000
1 1.35027977101562584e+02 -1.15857459687606426e+01 -1.03849225719773401e+02
1 -8.80382343598428747e+01 1.86179190295492454e+01 3.64913443955530354e+01
1 -8.97986303275416731e+01 7.95028679529361710e+01 -1.07617637942607317e+02
1 6.44114900242924904e+01 -3.20592443962881575e+01 -6.52305106060133966e+01
1 -3.81643113432208025e+01 -1.29415601464179957e+02 -6.46332674178218696e+01