8
Step 0
1 1.39748825551200468e+01 5.42081696338564996e+01 -4.12502637145741176e+01
1 6.76856145659056949e+01 -9.52436813211538436e+01 -3.53785538339906509e+01
1 -1.69244962808761841e+01 8.98277443199455661e+00 2.97571380721552714e+00
1 3.73764782190754659e+01 6.81734884372274905e+01 -4.57848032008425605e+01
1 1.32334743617293725e+02 1.44513687947378003e+02 4.09275922922765290e+00
1 4.85671606455685492e+01 -3.61856508787949736e+01 3.27324193705891275e+00
1 1.10101464733509715e+02 -2.55830189233402763e+01 -1.12892755091165839e+02
1 1.01490638462739952e+02 -1.72728486323217680e+01 -1.04865858063218212e+02
8
Step 1000
1 4.38487337415810643e+01 8.55613616032233040e+01 -4.75707779288117436e+01
1 8.26059520327815733e+01 -9.63471442897025270e+01 -1.02619009131774519e+02
1 -8.17413943424668901e+01 -1.20243981380982046e+01 -5.33614486590798265e+01
1 4.27117046825305877e+01 2.59670316733991910e+01 2.76859022692750543e+01
1 1.15046691587517813e+02 7.37914069233326018e+01 -2.68520135126320554e+01
1 7.54207390887423372e+01 5.38745386998875375e+00 -6.05788925771863251e+00
1 1.19175175726035604e+02 -4.12984551552467778e+01 -9.85809892449657639e+01
1 2.14675694336869149e+01 5.69961648595092107e+00 -1.26497363223878963e+02
8
Step 2000
1 4.60198086115166518e+01 9.84892222792924343e+01 -3.24289366210996377e+01
1 5.21877815871427799e+01 -4.85234488026555084e+01 -1.17718657039911037e+02
1 -1.02500887815323310e+02 -3.37418684395706947e+01 -8.24530096016509617e+01
1 2.78711413406259965e+01 -1.94964981401648281e+01 1.00180477326029248e+02
1 5.48548154893353299e+01 -9.13825040783967246e+00 -3.90798967424285024e+01
1 7.70684375267370569e+01 4.56592671021710004e+01 -3.74913954553606459e+01
1 9.28976584088217692e+01 -4.99055411742281336e+01 -4.87580059943337858e+01
1 -5.87017880791153388e+01 2.49889369448779632e+01 -9.36068142719364857e+01
8
Step 3000
1 2.57061558277342321e+01 8.35305086901702367e+01 -4.60318864125586469e+00
1 -5.94326523264196993e+00 1.74819041913465618e+01 -8.53524723703470869e+01
1 -8.34470325892921068e+01 -4.70262680986812640e+01 -7.47829287002905687e+01
1 1.72617460080661544e+00 -4.90110237682338976e+01 1.43823872945227606e+02
1 -1.60110499423599570e+01 -6.62670678836184379e+01 -2.74638788225761594e+01
1 5.71020117182002096e+01 7.40762728740054683e+01 -7.29524833815654858e+01
1 3.28086271804925360e+01 -5.13621434760861888e+01 1.78651130488564860e+01
1 -1.09421761056752501e+02 2.21297183214966324e+01 -2.06881209115336517e+01
8
Step 4000
1 -1.64730532826228537e+00 3.94006865448630847e+01 2.22765448296348509e+01
1 -5.75607350536250308e+01 6.23979404313802775e+01 -2.95970997460211827e+01
1 -4.36840243842704439e+01 -4.50574571121428349e+01 -3.68445204132868440e+01
1 -2.25510029490252499e+01 -5.38868034150947892e+01 1.43984136077586101e+02
1 -6.26572873028447930e+01 -8.25375547795418072e+01 8.74017264251202186e-01
1 2.52991814637409860e+01 8.41198601052138457e+01 -8.73771616793899568e+01
1 -4.25730712763051926e+01 -4.40759137456470782e+01 7.29195691164341468e+01
1 -1.20855504752041185e+02 -7.26855251694443361e+00 5.47073903514445590e+01
8
Step 5000
1 -1.89342971387127221e+01 -2.31095881891719728e+01 3.68079968721080775e+01
1 -7.35123148025570146e+01 6.48414975802236455e+01 1.86871477829975241e+01
1 -6.35319811524177513e+00 -2.55386228361403056e+01 1.22747134814363275e+01
1 -3.48746263383260668e+01 -3.67515299234085404e+01 1.02184808335582929e+02
1 -7.04020070997534617e+01 -6.49885517929577361e+01 2.98292956762029711e+01
1 -5.85423454545060018e+00 7.34492770597641993e+01 -6.31777396728338800e+01
1 -1.03349310876788167e+02 -2.48607180638554546e+01 9.57257891238015759e+01
1 -9.83331647070905461e+01 -5.03122153765024933e+01 9.59870323975032704e+01
8
Step 6000
1 -1.65258696106851737e+01 -8.24867780700820816e+01 3.49842368167283126e+01
1 -4.64560965389363858e+01 2.96292803248574792e+01 3.94014444307252631e+01
1 1.27192289614692093e+01 8.05852459697958423e+00 4.94797020720464218e+01
1 -3.23799321816536718e+01 -7.47361632839205470e+00 3.52866760533457580e+01
1 -4.72579668490148990e+01 -3.08924883836125836e+01 4.23363133762677109e+01
1 -2.59994656148844427e+01 4.37064072492566638e+01 -9.68367469739955911e-01
1 -1.27414661342645800e+02 8.38126739161941359e+00 8.27297116495266494e+01
1 -5.44369628988942367e+01 -8.32817183277087025e+01 9.15866152152082549e+01
8
Step 7000
1 3.59267633800087749e+00 -1.17734057448888052e+02 2.07664238663035228e+01
1 7.55449898911356321e+00 -1.88656694949413115e+01 3.10114935489446601e+01
1 1.10123137193978451e+01 4.66258647240060853e+01 5.98001790344342510e+01
1 -1.88631611569312909e+01 2.20139461886700900e+01 -2.99372539915559734e+01
1 -1.40465369752078768e+01 1.44979085999353163e+00 2.84287371329051837e+01
1 -3.04835145384174240e+01 1.42723664500299785e+00 7.50492395450664702e+01
1 -1.10336275074980776e+02 5.23655815640290925e+01 4.53084782688282814e+01
1 -4.65162258224764980e+00 -8.51754856366515298e+01 5.32401978990863611e+01
8
Step 8000
1 2.98664318196363467e+01 -1.19042322923725550e+02 2.67845706223414926e+00
1 5.70098985579893949e+01 -5.16083467911135045e+01 5.88200821809324381e+00
1 -2.67614188044318091e+00 7.77677952410293898e+01 4.23253502036844296e+01
1 -1.15174320779318795e+00 4.21816345135167978e+01 -7.23428336403611354e+01
1 8.63267104784153183e+00 1.96956673688002368e+01 -1.03851560772496612e+01
1 -2.11431086145386438e+01 -4.21494786104439072e+01 1.28056080571521449e+02
1 -6.31028128541917610e+01 9.56374534162854104e+01 3.53841316946578210e+00
1 3.74357830518555232e+01 -4.79107015152646838e+01 5.51739503811018839e+00
8
Step 9000
1 4.70696141379901789e+01 -8.91744144740213613e+01 -1.14016411994617233e+01
1 7.47279189835309410e+01 -5.29113415488990739e+01 -1.84662282095673440e+01
1 -1.47148644659841494e+01 8.95510007753316302e+01 8.68618745518117308e+00
1 1.49552307353151051e+01 4.78273747961686340e+01 -8.53967392244080514e+01
1 1.16160020888064199e+01 2.04844391747443737e+01 -6.01217684188558579e+01
1 -5.17868304554715841e+00 -7.41467332351288206e+01 1.34374223347921571e+02
1 -7.37829187167026745e+00 1.20751825697753702e+02 -2.42448978674901987e+01
1 6.40208578342967627e+01 1.89391209272621488e+01 -2.79589972405857665e+01
8
Step 10000
1 4.28189638795281411e+01 -4.08650594583417188e+01 -1.83175733840524266e+01
1 5.41292519534801642e+01 -2.70849518447980131e+01 -2.86734759706528948e+01
1 -1.42128206699762369e+01 7.31216346044703300e+01 -2.28866378740354257e+01
1 2.69011965313723813e+01 3.70474164410540183e+01 -7.29189532472177717e+01
1 -3.28694786469137246e-01 8.39643376330176672e+00 -9.83310649968991157e+01
1 7.63274916584864016e+00 -8.44953684623582859e+01 9.45906411572829029e+01
1 3.52311306728374234e+01 1.10193143657196984e+02 -3.08131280127348681e+01
1 7.31079148292773056e+01 8.78112722061226094e+01 -3.68999246137970900e+01
8
Step 11000
1 1.18467757498560271e+01 8.20174193160972287e+00 -2.04930578161310208e+01
1 1.00748206549089030e+01 6.90767935928598753e+00 -2.11842644414086969e+01
1 1.92053920358935049e+00 2.43891168920451378e+01 -3.69451226145042142e+01
1 3.51888241928736889e+01 9.43115414186185141e+00 -4.36852024730761244e+01
1 -1.42606818867372205e+01 -6.91487737244650180e+00 -1.02885046259987178e+02
1 8.92364853746681597e+00 -6.85067478948707844e+01 3.10164935035740825e+01
1 5.46981322197317681e+01 5.22434181076818973e+01 -2.10010794823414635e+01
1 6.63539211087550598e+01 1.26780659698682541e+02 -2.58273779474136767e+01
8
Step 12000
1 -4.00555495537096604e+01 4.44846553422341984e+01 -2.37257008140951804e+01
1 -3.15460142862925039e+01 2.84379449399838613e+01 -1.89273401868725766e+00
1 2.81316915656282909e+01 -5.05318438874365654e+01 -2.85821577441702743e+01
1 4.13002805438553793e+01 -3.36236960546939514e+01 -8.56317740370186975e+00
1 -1.85352484884003736e+01 -1.46185265857365376e+01 -5.83932596894304794e+01
1 -4.60053887744558221e+00 -2.74157296321717432e+01 -2.42196058575284425e+01
1 5.33354651490592104e+01 -4.70442334904835207e+01 -6.04761739312101909e+00
1 4.72545484536116902e+01 1.17890876287467563e+02 -8.03605109931657324e+00
8
Step 13000
1 -9.23894957570489623e+01 6.45025478761296540e+01 -3.23690875392537833e+01
1 -5.17399162809220385e+01 2.84502875177871886e+01 1.84832196256958063e+01
1 5.27954498276977020e+01 -1.27689711116417257e+02 -5.37013946214586824e+00
1 4.43727725177237531e+01 -8.51552470112306281e+01 2.23306161621419363e+01
1 -9.97140613931884268e+00 -7.38925476861749608e+00 3.49805959216205054e+01
1 -2.78450927309605021e+01 3.03488096123248425e+01 -5.20171871630407452e+01
1 3.97853303112420491e+01 -1.47836451635812125e+02 3.91315505138693842e+00
1 2.01185940998166508e+01 6.20380615905481321e+01 2.37811013347435418e+00
8
Step 14000
1 -1.17768676955613913e+02 7.18939472709799503e+01 -4.32561730862785154e+01
1 -4.78930806644136808e+01 1.23181407546881765e+01 3.06740367915616829e+01
1 6.28254735986788830e+01 -1.73452039939456228e+02 1.62648280263258727e+01
1 3.88284808932999752e+01 -1.28389263003147647e+02 4.23005695555256125e+01
1 5.66468986744604042e+00 1.44589649158655202e+01 1.41172401465223089e+02
1 -4.63990106154358912e+01 8.78786393566470565e+01 -5.33613711869069931e+01
1 2.37503973788388514e+01 -2.00241497683365651e+02 4.71679954087022058e+00
1 -1.07652530894109955e+01 -1.93496881792247990e+01 -2.70734848735951861e+00
8
Step 15000
1 -9.97934110077838312e+01 7.12516302006741995e+01 -4.45670693619896952e+01
1 -2.85714488639675892e+01 -6.85012548859430570e+00 3.10401754819171636e+01
1 4.83870979365171152e+01 -1.64223890055245334e+02 1.96767864493867783e+01
1 1.70484989859710971e+01 -1.38922908717476730e+02 4.89587064852595262e+01
1 1.90404225053357656e+01 4.15210839011181108e+01 2.03134078435007609e+02
1 -4.41687342936837979e+01 1.24194830890942725e+02 -3.83735204450743979e+01
1 1.25295978408349828e+01 -1.84604397869089922e+02 -1.95663901692870956e+00
1 -4.14875307897538903e+01 -8.83556334081920483e+01 -2.21504861693259336e+01
8
Step 16000
1 -4.44987856917815066e+01 6.46168344968842803e+01 -2.41972874016946946e+01
1 -5.17074680678011500e+00 -1.70145300253676766e+01 2.13197082110646683e+01
1 7.11199859444648652e+00 -9.50076349630994628e+01 -2.19489600398227180e+00
1 -2.30280591335016780e+01 -9.48486305256561195e+01 4.33745527307212271e+01
1 2.36947774832205660e+01 5.84901628458502998e+01 1.91517043528673724e+02
1 -1.57336569419869345e+01 1.22755911025280824e+02 -1.79455784493616299e+01
1 8.80013492613967685e+00 -1.13375520935096162e+02 -1.15849711262903501e+01
1 -6.72619356665146171e+01 -1.15284666880043503e+02 -4.56311316878077093e+01
8
Step 17000
1 2.03991609155170543e+01 5.12875599091900938e+01 1.90180091983199908e+01
1 1.34232675686480700e+01 -1.26980365803449047e+01 5.90475670506866024e+00
1 -5.10529638576950049e+01 9.88118119541441864e+00 -4.11156747973292980e+01
1 -7.20004171101247152e+01 4.11472881844449745e+00 2.86724381186597377e+01
1 1.85739173971927265e+01 5.17303053936855903e+01 1.12516786025564159e+02
1 2.81556552333466037e+01 7.70539615402493041e+01 -5.64731844782242920e-01
1 9.78584187171469466e+00 -2.63800833883940626e+01 -1.94830074933223152e+01
1 -8.11863076909864247e+01 -9.54063077150326109e+01 -5.75433934876463908e+01
8
Step 18000
1 6.40241340800072010e+01 2.95438051609938164e+01 7.04877763880889034e+01
1 2.30930986623204682e+01 3.71588763711929504e+00 -1.03769212774577451e+01
1 -1.03344988616934558e+02 9.86192076392297707e+01 -7.54102052001426983e+01
1 -1.10648280769340673e+02 1.14500408921931026e+02 8.81551227528831838e+00
1 6.64881526671604739e+00 1.74753588421956927e+01 8.07436797145898844e+00
1 6.60218644612847640e+01 -2.49526426361796405e+00 9.30312088903197498e+00
1 8.43361497786870196e+00 3.16304601942092951e+01 -2.21027473943436235e+01
1 -7.59546552372809458e+01 -4.52597743810767170e+01 -4.49634301826239309e+01
8
Step 19000
1 7.26714792591700842e+01 -1.24954031120877440e+00 1.06148348911679832e+02
1 2.42413374832147532e+01 2.33383535046660491e+01 -2.32428151314031410e+01
1 -1.25071183853500699e+02 1.35675220939254388e+02 -8.14519384112948615e+01
1 -1.18960927812052901e+02 1.79034782198786701e+02 -1.22120173622394024e+01
1 -7.32225594136894653e+00 -3.33622798071386768e+01 -6.46762491718758810e+01
1 7.79381598562921596e+01 -8.39367723256068530e+01 1.16636461772551350e+01
1 -3.02428439872139787e+00 4.89100315816299371e+01 -1.75953544266053541e+01
1 -4.79936774616931032e+01 6.64518401136574166e+00 -6.04652561091436436e+00
8
Step 20000
1 5.25411607143928450e+01 -3.84755634922154641e+01 1.06128609151602234e+02
1 1.98842937108366122e+01 3.44931850961321516e+01 -2.93992067257389600e+01
1 -1.02290057754104751e+02 1.20520952327710972e+02 -4.74237593621861819e+01
1 -8.62434483917538159e+01 1.76487796596798887e+02 -3.07147446419483110e+01
1 -1.85174289153389680e+01 -7.82217114394310897e+01 -8.60142552310341557e+01
1 5.50946069083025378e+01 -1.32342240455562205e+02 9.84741496928250193e+00
1 -2.80536983194596878e+01 4.22583003793808629e+01 -6.27023808285327267e+00
1 -2.13415787653503353e+00 3.57124479659418554e+01 4.62853845057376603e+01
8
Step 21000
1 2.21272983044362412e+01 -7.45757059289516206e+01 6.48301947164885206e+01
1 1.32395698618997670e+01 2.82442751570133517e+01 -2.69293625986216334e+01
1 -3.85288127638148126e+01 7.22671274488111806e+01 1.78225465248368558e+01
1 -1.89205963010852436e+01 1.17303636366917644e+02 -4.32047557648280360e+01
1 -2.33691238883515453e+01 -9.50881538038471490e+01 -7.29658055183115835e+01
1 3.79217745176664955e+00 -1.32646314603031442e+02 8.10083923689710694e+00
1 -6.16658981926597534e+01 3.09022355077675428e+01 9.14033248354973615e+00
1 4.65777456956030065e+01 3.43654241422871181e+01 8.97240320005607117e+01
8
Step 22000
1 8.69419423261326596e-01 -9.82655237598639388e+01 -4.01815919210796757e+00
1 5.96616188523508217e+00 3.45660919437012781e+00 -1.56720201886260764e+01
1 4.06286197341732986e+01 1.75768161352953669e+01 8.43149294453268681e+01
1 5.67059710331447278e+01 3.31113935746604042e+01 -4.63641397855313073e+01
1 -2.04634846015993936e+01 -7.38177285282505551e+01 -4.79348931617334628e+01
1 -5.47429815720029538e+01 -9.04153241826243885e+01 9.06216964591347462e+00
1 -9.02094491044756808e+01 2.48577730425374419e+01 2.39361772830143664e+01
1 7.87879276639074106e+01 1.24002988877527631e+01 1.05442808576939441e+02
8
Step 23000
1 -1.55069581888750907e+00 -9.87112161149340608e+01 -7.01793401327273898e+01
1 -2.11568300284626876e+00 -3.10013426979765718e+01 2.42348658660557614e+00
1 9.89003696314233167e+01 -2.16996772677492977e+01 1.19227274357437594e+02
1 1.08676217966085318e+02 -3.73946582942711458e+01 -3.75105517460994378e+01
1 -1.07766841576006307e+01 -2.10027205292812766e+01 -2.59044085698592745e+01
1 -9.40899776593005157e+01 -2.67531907736365397e+01 1.23623286276019080e+01
1 -9.65205469920750971e+01 2.51551541783159784e+01 3.29075253415641811e+01
1 8.10579848756441805e+01 -1.06744753875792107e+01 8.70512019204770127e+01
8
Step 24000
1 1.07149085556558763e+01 -7.02716642556340219e+01 -1.05471767139007412e+02
1 -1.17565114210237951e+01 -5.91861500986507991e+01 2.31603077921943203e+01
1 1.14663406631318637e+02 -3.73695153362274510e+01 1.08060705613513861e+02
1 1.19975052649043420e+02 -7.35137909094065662e+01 -1.58223475635685809e+01
1 2.83262973383677430e+00 4.02070531230732584e+01 -1.34740912947844773e+01
1 -9.70876255769221927e+01 3.00027241423163211e+01 1.49187893253500690e+01
1 -6.76619192279120085e+01 2.71017461358384892e+01 3.22993013402202322e+01
1 5.20847332587997442e+01 -1.68758271059941478e+01 4.19195453926441957e+01
8
Step 25000
1 2.32573269762553210e+01 -1.74440456430426281e+01 -9.95726276617792507e+01
1 -2.23661506818867757e+01 -6.57700401185443013e+01 4.06585977753402830e+01
1 8.89270099121337125e+01 -3.32025642575936928e+01 5.83330349335843934e+01
1 9.21659841837933698e+01 -7.53812143257064520e+01 1.58893954954531615e+01
1 1.66663870086899166e+01 8.14989201034777295e+01 -9.20051909166344650e+00
1 -6.19566581035233810e+01 6.03891909779963996e+01 1.26851953608242880e+01
1 -3.52591425585088913e+00 2.43243630012384848e+01 2.13607757578273869e+01
1 4.39092773884237886e+00 9.83909342749702875e-01 -1.18475165284145803e+01
8
Step 26000
1 2.04382714091578812e+01 4.28032636216910873e+01 -6.00177589498129080e+01
1 -3.08776682713125687e+01 -4.36856471732582037e+01 4.87646967520012424e+01
1 3.96010936585306865e+01 -1.89167035799078107e+01 -5.06239492115715617e+00
1 4.06028217354786776e+01 -5.30441504405961126e+01 4.99880586957089790e+01
1 2.72803565062936535e+01 8.60150180196501850e+01 -5.65330900464258512e+00
1 -2.73494770845456436e+00 6.23018176850003940e+01 3.01453375192987805e+00
1 7.52985073366648692e+01 1.28419788602160807e+01 2.86413183092600132e+00
1 -3.98776610113302326e+01 3.59147338662091400e+01 -5.42964705388341500e+01
8
Step 27000
1 -5.12867136368578169e+00 8.83137470868962282e+01 -7.17658497005538010e+00
1 -3.23301113485034719e+01 1.33504936987294753e+00 4.28369764799964159e+01
1 -7.54772626755783804e+00 -4.77566948941957214e+00 -5.36746088879947791e+01
1 -1.18878704573968434e+01 -2.02908518267890052e+01 7.51077268410235916e+01
1 3.21389745020676472e+01 5.44779639171661501e+01 5.23205770259021730e+00
1 5.48254053631242826e+01 4.65685070961737964e+01 -1.34513276714580439e+01
1 1.34979809934023535e+02 -6.43892733212860691e+00 -1.76379906650895393e+01
1 -6.09563388923808347e+01 6.92098846567116368e+01 -7.39526434984426828e+01
8
Step 28000
1 -4.70259901318277258e+01 1.04067683488249472e+02 3.52875013622763660e+01
1 -2.21269092441137367e+01 5.10529438557594233e+01 2.15512173656982569e+01
1 -3.29862064862639599e+01 2.40277179105814831e+00 -7.21970634332861323e+01
1 -4.63227887398294200e+01 9.27546774111508121e+00 7.97472232460459196e+01
1 2.97087714818226907e+01 3.51034953536265570e+00 2.57166847115245005e+01
1 8.71178206897985490e+01 2.81113264522705748e+01 -3.22070702374013749e+01
1 1.51155256081665442e+02 -2.77922811524884388e+01 -3.36961321243418013e+01
1 -5.14444514064815834e+01 7.91302371605439276e+01 -7.05828996152948633e+01
8
Step 29000
1 -8.58564348891903819e+01 8.70811065058994842e+01 5.29994067926477044e+01
1 9.22452123802605439e-01 8.32907926556351867e+01 -1.14324586903445358e+01
1 -3.28126649965255481e+01 1.00208549380575751e+00 -6.06765135277116840e+01
1 -5.58343936199347155e+01 2.62466136652545927e+01 5.65906128687943308e+01
1 1.93072397517988641e+01 -4.15839998714817369e+01 4.92426381028130038e+01
1 8.48749040681556011e+01 1.74915264337162810e+01 -4.59465635898319249e+01
1 1.18849481382074572e+02 -4.31806456077735490e+01 -4.02441831745434584e+01
1 -1.80122950309253866e+01 5.12040601844294869e+01 -5.15301355729279322e+01
8
Step 30000
1 -9.85753530340351460e+01 4.53379786519152717e+01 4.56415870060243307e+01
1 3.21517278463662421e+01 8.36899041775504315e+01 -4.70741636472698843e+01
1 -1.71712527659397587e+01 -6.01347692349502960e+00 -2.91844614507320266e+01
1 -4.47530871670806576e+01 2.76045504061494213e+01 7.09983182072693442e+00
1 1.24676934791618788e+00 -6.06425394489341230e+01 6.32361431338605371e+01
1 5.40571678184931912e+01 1.62057230517196480e+01 -4.68797353902692748e+01
1 5.18173137782466995e+01 -4.59165518349554347e+01 -3.52565831459942203e+01
1 2.22990110199655831e+01 -1.39614149796897511e+01 -2.66079061102206467e+01
8
Step 31000
1 -7.03665859250553609e+01 -4.88272753969227047e+00 2.34046983170001823e+01
1 6.09284744022786029e+01 5.14969694199897248e+01 -7.34053566954502941e+01
1 -2.38883520371624725e+00 -1.32436986829852668e+01 6.69145359855273014e+00
1 -2.36287001569175281e+01 1.65184056612830474e+01 -5.43033719798330878e+01
1 -2.24163043651086618e+01 -4.82304841252687169e+01 5.60009556066114484e+01
1 1.14265940869975839e+01 1.75476061151980893e+01 -2.94554758608637997e+01
1 -2.03968236122929270e+01 -3.35674005786553309e+01 -2.02764035906025235e+01
1 5.07751369854783263e+01 -9.35229558915716979e+01 -3.44732960176268843e+00
8
Step 32000
1 -3.55977503891665048e+00 -4.57644953109921033e+01 4.19455113913559163e-01
1 7.39396572487193424e+01 1.84147405265600528e-01 -7.99261322693191829e+01
1 -1.54750091960579872e+00 -1.55159392036349288e+01 3.17430416695306548e+01
1 -3.83627944277570210e+00 6.20405415368587954e-01 -1.03558840936541401e+02
1 -4.69840110761423659e+01 -1.39120319721087498e+01 2.37767441596908995e+01
1 -2.35275087961754110e+01 1.19220852038057732e+01 6.76450191917032928e+00
1 -6.92983096411231401e+01 -9.05886926365725031e+00 1.85269233195246852e-01
1 5.61720186615594343e+01 -1.49225338536744800e+02 1.51020838025289770e+01
8
Step 33000
1 7.59712859573465522e+01 -6.61059202308259728e+01 -1.22868014210336796e+01
1 6.03446531112914144e+01 -4.74497889354975655e+01 -6.14322042089148752e+01
1 -1.81023783682194512e+01 -1.00955531053109873e+01 3.72955303327874432e+01
1 7.09319888379112662e+00 -1.09075667986387614e+01 -1.19659723770087297e+02
1 -6.50843626650183751e+01 2.31081983483889672e+01 -2.47722929346269645e+01
1 -3.88483774099907535e+01 -6.47018397098641085e+00 5.41961584580074316e+01
1 -8.39085229654809410e+01 2.02105120691584226e+01 2.02227649605127908e+01
1 3.73177233363803751e+01 -1.52159086748653749e+02 3.00233043661680554e+01
8
Step 34000
1 1.30218957061444371e+02 -6.40515874368500562e+01 -1.12352492834224513e+01
1 1.69923278085131884e+01 -7.16471183664232996e+01 -2.07858494735278683e+01
1 -4.48166590903051940e+01 2.37393746552044282e+00 2.42199707188798321e+01
1 7.68100492111968158e+00 -1.09992131997461389e+01 -9.39657978840859442e+01
1 -6.80882178393510458e+01 4.41385660679506984e+01 -7.00647827107346473e+01
1 -3.50747542632423830e+01 -3.52037768652518892e+01 9.71308933833365842e+01
1 -6.91187781216535342e+01 4.51727413649791529e+01 3.46039744631989237e+01
1 3.19384016571312435e-01 -9.56592571631890820e+01 4.27443794157021628e+01
8
Step 35000
1 1.35371917423469739e+02 -4.50489178617461121e+01 -5.58006935343023258e-01
1 -4.59290523248202405e+01 -6.56856202353632455e+01 3.00337060043102007e+01
1 -6.69597603728058886e+01 1.83208863425213728e+01 2.13652504494608175e+00
1 1.72916828275780388e+00 2.06250206358056731e+00 -3.36214711251347254e+01
1 -4.88143849662125078e+01 4.07348936984701595e+01 -9.13956971577617168e+01
1 -2.25541856622763000e+01 -6.34921831769201077e+01 1.17474272684621894e+02
1 -3.86270588805014867e+01 5.85848329231228675e+01 4.04066804206920267e+01
1 -4.51609696718370941e+01 -1.06278714887414361e+00 5.22690126491308504e+01
8
Step 36000
1 9.11616797932824880e+01 -1.84889113638789837e+01 1.12781784351223262e+01
1 -1.04103854679174077e+02 -3.68092884637470164e+01 7.35634580140072103e+01
1 -6.77390103751767327e+01 3.26260067451779392e+01 -1.54254432628786038e+01
1 -4.46162040419325834e+00 2.30158566751840645e+01 3.71118447801145024e+01
1 -5.56326638896391490e+00 1.75032460019476552e+01 -7.74587938219896444e+01
1 -1.40442801577083660e+01 -7.65240311232713282e+01 1.02272685085750453e+02
1 -8.81681119696071391e+00 5.70228189451278666e+01 3.73637858238597360e+01
1 -8.74237589941511004e+01 8.33644946679057313e+01 5.45700904452337809e+01
8
Step 37000
1 1.92804413543696747e+01 6.26231979976244091e+00 1.62234285205256263e+01
1 -1.31171532978748274e+02 -1.45455625169742708e+00 9.46222559208400895e+01
1 -3.37396632249236106e+01 4.02443021583610587e+01 -1.83360834724727013e+01
1 -5.49482728393828079e+00 4.06460472856175841e+01 8.79827103544599964e+01
1 5.29406327749064047e+01 -1.16961395440294247e+01 -3.13275303794214821e+01
1 -1.66216631509642951e+01 -6.19680328885003391e+01 4.92702246055210225e+01
1 8.32577351837655222e+00 4.05569648364218267e+01 2.68798757987794019e+01
1 -1.11967227832961228e+02 1.19725340153035489e+02 4.41246310483292774e+01
8
Step 38000
1 -4.45559835425261213e+01 2.35235659541105058e+01 1.06411733081767377e+01
1 -1.12372985259892957e+02 2.33912126510186056e+01 8.61283762995833797e+01
1 3.66212498706114502e+01 3.73713732333314823e+01 -5.31404632703801738e+00
1 5.58445665875247466e-01 4.20460884386497895e+01 1.01587135971482269e+02
1 1.06739736332643417e+02 -3.18952331671694509e+01 2.81315557074988227e+01
1 -2.75850491581983697e+01 -1.61903265672542425e+01 -2.72838592683869479e+01
1 1.00458946359197672e+01 1.12891506340127687e+01 1.07360823624374628e+01
1 -1.03568662793138600e+02 1.04983551147547644e+02 1.66822940861951494e+01
8
Step 39000
1 -7.42621517680732381e+01 3.26939689650027461e+01 -3.28904696141340436e+00
1 -5.00676561498161803e+01 2.88561644183686212e+01 5.09458895216073273e+01
1 1.20133760242371693e+02 2.19586958287670519e+01 1.51873280335060663e+01
1 1.13830737019848822e+01 1.88303639954147464e+01 7.91033103506516966e+01
1 1.33190024843751445e+02 -3.49384435864731486e+01 7.32706917193014817e+01
1 -3.65259152248912287e+01 4.93063207085220938e+01 -9.89161117745347269e+01
1 2.91826002496925696e+00 -2.73334206513779776e+01 -9.31937397127501654e+00
1 -5.54224611461575378e+01 5.88048722769459573e+01 -2.72661792550923607e+01
8
Step 40000
1 -6.88052235609764011e+01 3.66699665826876640e+01 -1.90731048676366868e+01
1 3.17357726017507140e+01 1.73424307273998792e+01 1.82453915509201336e+00
1 1.75981703508987323e+02 -5.81770942913180367e+00 2.94822014193234487e+01
1 2.16059046029357624e+01 -2.70456214337409371e+01 3.62570294468571390e+01
1 1.17451098914900427e+02 -2.20855277805225150e+01 8.36949931712000676e+01
1 -3.22441070753523036e+01 1.07558552384671714e+02 -1.40811153697805082e+02
1 -1.69721279029326833e+00 -6.92619952219698263e+01 -3.06783268056097320e+01
1 1.87337811291189631e+01 9.03927618693487922e+00 -7.87239662808530909e+01
8
Step 41000
1 -4.61104081915018540e+01 3.84657987016505132e+01 -2.92206315241294270e+01
1 9.58026087098363348e+01 -4.34311635511689109e-01 -4.26779216106691308e+01
1 1.75236869865124191e+02 -4.23329953410278321e+01 2.67754953202740928e+01
1 2.54213961590692215e+01 -8.03182050629000344e+01 -4.39374470889587965e+00
1 5.81729195294625328e+01 -1.73146609958768316e+00 5.61785796551335110e+01
1 -1.03257445701116772e+01 1.30816184060766517e+02 -1.43422331471914902e+02
1 4.49317592433058444e+00 -1.04320259637709157e+02 -4.84903775876585073e+01
1 8.64785656217460428e+01 -2.20750730740739378e+01 -1.19688331619685982e+02
8
Step 42000
1 -2.75552659943200382e+01 3.82184331089331906e+01 -2.84746688876160476e+01
1 1.17509531630652816e+02 -1.19652310554342556e+01 -6.71264629894114933e+01
1 1.13066730079771972e+02 -7.90020683411683251e+01 5.66261348672643638e+00
1 1.93624316039475453e+01 -1.17171524538263895e+02 -2.55291894208385806e+01
1 -2.62145196408138226e+01 1.54534287473354315e+01 5.35984163276873282e+00
1 2.31727932767375968e+01 1.05649561427903279e+02 -1.09231635531262967e+02
1 2.07769146865333738e+01 -1.19338304138756314e+02 -5.56759467952685654e+01
1 1.20146161671651512e+02 -2.63642630734160548e+01 -1.29935849222596914e+02
8
Step 43000
1 -2.36202838103760548e+01 3.24030160773648817e+01 -1.55755775120217752e+01
1 9.54271967252533670e+01 -9.17350287382395635e+00 -6.60117583411353621e+01
1 1.37094621463580655e+01 -1.02864312636722872e+02 -2.43905082690790955e+01
1 4.03710621951007020e+00 -1.16835864099524713e+02 -2.35896181212569260e+01
1 -1.00007674972172097e+02 2.17648358655240415e+01 -4.17914083065233584e+01
1 5.41896619876681385e+01 3.89588228114294282e+01 -4.93981007698341799e+01
1 3.75514128380000329e+01 -1.02023735389314595e+02 -4.57673452822040190e+01
1 1.12462830805013823e+02 -9.15875018511164107e+00 -9.69988233530515913e+01
8
Step 44000
1 -3.04259616407082483e+01 1.60783842259943484e+01 6.37642587491275403e+00
1 4.60451652471109369e+01 8.35995331885836812e+00 -4.43758851454739656e+01
1 -7.46638774650598691e+01 -1.00676726233446459e+02 -4.73925798330784573e+01
1 -1.55410809636385885e+01 -6.95692440016402998e+01 -8.38736313067818884e+00
1 -1.33416589066484988e+02 1.54091377214394871e+01 -6.06524218374866351e+01
1 6.82709070960780764e+01 -3.87929468711083913e+01 1.78614563797599111e+01
1 4.19591646270142320e+01 -4.77037523329174746e+01 -1.77645859077035375e+01
1 7.33181365365929025e+01 1.48742156765819935e+01 -2.60683104517762168e+01
8
Step 45000
1 -3.51994571438237784e+01 -1.24506420894869567e+01 3.06745117667359182e+01
1 -4.03439845127485874e+00 3.30650734135180286e+01 -1.43203856197850001e+01
1 -1.18928696075325945e+02 -6.50794358900539436e+01 -4.94798815745574530e+01
1 -3.13070231105730912e+01 1.72497184355096387e+01 3.79504649858719478e+00
1 -1.17481751732630428e+02 4.01810902857389074e-01 -4.20435922320253042e+01
1 5.82409070091375582e+01 -8.87270702610354647e+01 7.37828646742774765e+01
1 2.58193326078620906e+01 3.04536687221401117e+01 2.00318524762490924e+01
1 2.25691106097274954e+01 2.86065618620097268e+01 5.41696315206452752e+01
8
Step 46000
1 -2.40741738738726490e+01 -4.75599457333443212e+01 4.91057737217743124e+01
1 -3.21991100731129762e+01 5.16409167799310467e+01 1.08535194602167788e+01
1 -1.17958440072282116e+02 -1.71719332459053642e+00 -2.65067382633838555e+01
1 -3.50588994265184937e+01 1.10979623330665177e+02 1.59981714625771487e-02
1 -6.19615014200109187e+01 -1.59310469052126322e+01 4.52422718071764240e+00
1 2.75942919570240335e+01 -9.09986080970091109e+01 1.06546036657188083e+02
1 -8.20057379762094740e+00 1.01808645362783579e+02 5.15345557270301811e+01
1 -1.92605704031644365e+01 2.10876796705061622e+01 1.08030003544574257e+02
8
Step 47000
1 9.53155374402669153e+00 -7.65886506543402703e+01 5.45549663022112128e+01
1 -3.23427184747890664e+01 5.00996017430326503e+01 2.24591146940296120e+01
1 -8.68684851949763868e+01 6.79938066616159773e+01 1.29238219864664341e+01
1 -2.16995508635934371e+01 1.69352372824837403e+02 -2.22634082231510533e+01
1 7.09090999631739205e+00 -2.67944457534475156e+01 5.39092990469570523e+01
1 -1.09026472255599867e+01 -5.26528340812136406e+01 1.12124688643569058e+02
1 -4.55520238489996672e+01 1.39544578344340948e+02 6.09399507901162494e+01
1 -4.08105725063906064e+01 -6.37327185650131067e+00 1.18250395833548282e+02
8
Step 48000
1 5.85009277089703090e+01 -8.49301069253982348e+01 4.31427216500020023e+01
1 -1.48976129749812500e+01 2.07995659956584262e+01 1.94323986277657710e+01
1 -4.45770942958052103e+01 1.17873902540165517e+02 5.01884486824933091e+01
1 7.95118477659931866e+00 1.70532362287322968e+02 -5.35034277524091664e+01
1 5.87556676389745149e+01 -2.85187079463189157e+01 7.76185614843339664e+01