8
Step 0
1 -3.472934504792e+01   2.985585161505e+01   4.552711624413e+01 
1 -3.872914153085e+01   5.183552870333e+01   2.841252880511e+01 
1  6.597310272429e+01   3.473535297890e+01   3.212630301548e+01 
1 -6.209027598665e+01   1.844554586020e+01  -3.110501871492e+01 
1 -4.675834713363e+01   3.854789838996e+01   6.659078998682e+01 
1 -1.328434623653e+01  -5.953552595268e+01  -6.135440417252e+01 
1  6.150941286889e+01  -3.705897999201e+01   2.680974576907e+01 
1  1.897523860070e+01  -3.176705575740e+00  -2.894581516525e+01 
8
Step 1000
1 -2.666387391234e+01   1.578646631980e+01  -3.408843452463e+01 
1 -4.549355183550e+01   1.103517634385e+01   5.688353236064e+01 
1  3.390932717865e+01   1.302841685805e+01   1.790148142354e+01 
1 -4.171654063348e+01   2.600963631012e+00  -1.346190068456e+01 
1 -1.269796723246e+01  -1.374853809058e+00   5.600225968215e+00 
1 -2.952211564677e+01  -3.762082026918e+01  -3.297696723822e+00 
1  2.336256935824e+01   2.260367887182e+00   5.281037043895e+00 
1 -8.129050649614e+00   3.925100270417e+01   4.571758363330e+01 
8
Step 2000
1 -4.392363485469e+01  -6.113146215977e+00  -1.526334913258e+01 
1  1.228282013617e+01  -1.252902595906e+01   1.691660199918e+01 
1  1.197874523591e+01   1.069143678098e+01  -1.018709796428e+01 
1 -5.211962822900e+01   2.237260180515e+01   3.267285197001e+01 
1 -1.802621074749e+01  -1.875246891932e+01  -5.843950500542e+00 
1  2.594466730600e+01  -2.046713029220e+01  -1.256931856060e+00 
1  2.638997455771e+01  -3.168877700973e+01   8.588518332332e+00 
1 -2.857676439512e+00  -5.802264464115e+01  -8.605148127314e+00 
8
Step 3000
1  4.849736097342e+01   4.149332332277e+01   1.534225601973e+01 
1  6.309023261734e+01  -3.150671385002e+01   4.916630392613e+01 
1 -5.115039839954e+01   6.831567309542e+00  -2.395040217941e+01 
1 -1.901796528598e+01  -7.745546802133e+00   2.289896823555e+01 
1  2.402167046227e+01  -6.059317345620e+01   9.550214323108e+00 
1  3.693236193235e+01   3.920803801891e+01  -4.150485307488e+01 
1 -3.790691717120e+01  -4.982331168952e+01   6.312876721375e+00 
1  2.144454955771e+01  -3.660819621138e+01   1.600076681099e+01 
8
Step 4000
1 -2.170226735733e+01  -2.338623122332e+01   2.175304784523e+01 
1 -3.600749341698e+01   1.896471186420e+01   1.388543823611e+01 
1 -8.992284506525e+00  -3.843931956787e+01  -1.873852860454e+01 
1  3.245775753823e+01   9.440528526853e+00  -2.159003897820e+01 
1  3.436205203324e+00  -5.652605919897e+01   3.445839769470e+01 
1  4.007322446748e+01   2.116975911494e+01  -4.482885339620e-01 
1  7.002767425972e+00  -1.404653079770e+01  -8.222106766403e+00 
1  1.702899970501e+01  -2.115285128433e+01  -1.511035204307e+01 
8
Step 5000
1 -1.452678321449e+01  -3.314379618685e+01  -3.901591614726e+01 
1 -2.502921103982e+01   2.496946280971e+01   4.995055023766e+00 
1  4.576151768146e+00  -2.569385297056e+01  -1.710109094033e+01 
1  8.285168852978e+00  -4.848125331028e+01  -2.645058807763e+01 
1  1.108668910472e+01  -5.519961633439e+00   2.025858017723e+01 
1 -1.534037087280e+01  -2.802012313017e+01   6.841589874447e+01 
1 -3.464197451996e+01  -2.603309336249e+00   6.411376120746e+01 
1 -1.165863309615e+01   2.149660556786e+01  -9.992493626482e+00 
8
Step 6000
1  1.729727088085e+01   5.500042659238e+00  -7.892279693005e+01 
1  3.975785542743e+01  -6.449963998209e+00  -2.923081714711e+01 
1 -1.758638799291e+01  -2.118495411472e+01   1.627720259722e+01 
1 -4.584109954907e-01  -1.702037455768e+01   2.187204958851e+01 
1  1.036984223572e+00   4.263879708214e+01   2.121061440244e+00 
1  5.990887271635e+00  -4.325600162542e+01  -7.924493091440e+00 
1 -2.128496018916e+01  -1.077033092859e+01  -1.117983439411e+01 
1 -4.575047189188e+01  -4.353697057461e+01  -6.603562343155e+01 
8
Step 7000
1  1.211171126822e+01   1.756749805234e+01  -7.192521361614e+00 
1  5.858542372149e+00  -2.116440105205e+01  -3.329162700467e+01 
1 -9.791760805361e-01  -3.779838880337e+01  -2.700849128697e+01 
1 -3.027671792241e+00   5.659746802443e+00   1.807095325340e+01 
1 -4.158632095400e+01   3.166717179376e+01   1.269628933465e+01 
1  1.936425203073e+01  -1.848767694436e+01  -4.326426716812e+00 
1  5.447548776384e+01  -3.925613591609e+00  -2.324997009063e+01 
1 -1.416309933555e+01  -3.246637523959e+01  -1.127839434246e+01 
8
Step 8000
1 -5.104642479907e+01   7.158032345865e+00  -6.384960973833e+00 
1 -9.448164394211e+00  -6.119030124888e+01  -4.342906356100e+01 
1 -2.736469857801e+00   1.792437347152e+01  -2.820476610795e+01 
1  1.605402274689e+01  -7.257259726518e+01  -2.903532100848e+01 
1  1.929668417856e+01   4.397018285734e+01   1.217831808927e+01 
1 -3.418417133234e+01   1.383793796714e+01   1.380873266791e+01 
1  3.049523462805e+01  -7.232609962936e+00  -5.757526683715e+00 
1 -6.537480800764e+01   5.385990468033e+01   1.780069597883e+01 
8
Step 9000
1 -1.217465057593e+01   5.473319360099e+01  -5.006578153273e+01 
1  4.370408179311e+01  -2.058166931010e+01  -3.952924617067e+01 
1  5.837836351054e+01   7.046147183205e+01   2.270440178661e+01 
1 -1.586489920700e+00  -4.927510495326e+01  -6.155556750887e+00 
1 -1.828802974745e+01  -2.172037492622e-01   2.974822399921e+01 
1 -6.702182338988e+01   2.589328127559e+01   4.121991592700e+01 
1 -1.415649576705e+01  -3.348688533404e+01  -3.216398396730e+01 
1 -4.869103786495e+01   2.699972184564e+01  -2.338520246387e+01 
8
Step 10000
1 -4.243337044504e+01  -5.293689327876e+00  -4.203935309369e+01 
1  4.050650982487e+01  -4.952711215892e+01  -1.621479509623e+01 
1  6.946268386730e+01  -1.461804043745e+01   4.045114964218e+01 
1 -1.470728651377e+01   7.530715078568e+00   5.367598257831e+00 
1 -3.873380725242e+01  -4.247570624890e+01   5.169100505288e-01 
1  8.098733995120e+00   2.126563985212e+01   5.415327418837e+00 
1 -3.730596873079e+01  -3.430773734648e+01  -4.936314403702e+01 
1 -8.173326950222e+00  -2.880424390237e-02   1.160156269109e+01 
8
Step 11000
1 -3.252227045591e+01   6.002960096757e+01  -6.645154756329e+01 
1  4.984168873066e+00  -2.335870229903e+01  -2.407951305280e+01 
1 -8.911390974021e-01   2.116149098362e+01   2.716770146283e+01 
1  1.316429501993e+01  -5.530807066472e+01   1.359171168114e+01 
1 -4.895195396141e+01  -2.384656510438e+01   2.797415604593e+01 
1 -2.138755415242e+01   5.113899163406e+01  -3.340402868936e+01 
1 -9.005618781065e+01   6.763038346232e+01   1.735196763651e+01 
1  4.599527916875e+01   6.272756075540e+01  -9.213859266689e+00 
8
Step 12000
1 -3.742524499024e+01   1.947517972724e+01   1.551584088301e+01 
1 -3.719041301809e+01  -1.315641648414e+01  -6.907118722123e+00 
1 -3.315276356309e+00   1.469794856488e+02   1.535804067335e+01 
1  6.328455462990e+01  -2.412955567708e+01  -1.053003579308e+01 
1  1.319869912021e+01  -6.204243265724e+01   3.389119153232e+01 
1 -5.549364915960e+00   2.330947471991e+01   5.030912275773e-01 
1 -2.512872273243e+01  -4.247797447617e-01   3.798714049102e+01 
1  4.581155065547e+00   6.613762859531e+00  -4.487859036944e+01 
8
Step 13000
1 -2.031405898188e+01   2.189655790585e+01  -2.991111791540e+01 
1 -2.537609254451e+01   5.765035849792e+00   6.595861818424e+00 
1  2.279392458286e+01   1.640674609087e+01   2.343110737628e+01 
1  7.314089342893e+01  -2.378674011013e+01  -3.090161247689e+01 
1 -5.477125464976e+00  -2.708539388657e+01   9.441613536062e+00 
1 -4.968535049929e+01  -4.238667795193e+01  -1.473650326791e-01 
1  3.690913387079e+01   1.515024010999e+00  -7.091137907192e+00 
1 -2.926243724543e+01  -2.721145298572e+01  -5.263315282389e+01 
8
Step 14000
1 -9.338652954238e+00   6.553899700796e+00  -1.332492102507e+01 
1 -1.658079170798e+01   2.634912376507e-01   4.901999360776e-01 
1  1.870012764687e+01  -4.046669207406e+01   1.046657717361e+01 
1  8.570625341528e+00   1.955829943964e+01  -8.080745081150e+00 
1 -6.887056047610e+00   1.138641603513e+00  -6.122949953921e+00 
1 -5.305447518003e+01  -1.806384281286e+01  -1.201965523399e+01 
1  5.126217880951e+00   1.677931863000e+01   3.736208164740e+00 
1 -4.488716926844e+01  -1.410089155380e+01   2.512889512941e+01 
8
Step 15000
1 -5.365046983582e+01  -2.434515712578e+01  -6.108018142791e-01 
1 -8.381380121050e+01   9.273852530394e+00  -1.505295084985e+01 
1 -2.836080994418e+01  -4.552831789044e+01  -1.067205579523e+01 
1 -3.477937438749e+01   6.307944414383e+01  -2.554677603491e+01 
1 -4.021884382570e+01   2.014770399512e-01   2.049419726491e+01 
1 -7.631239496012e+01   7.136035969033e+00  -6.852297646862e+00 
1 -4.335992484016e+00   1.110060436045e+01   4.077529412879e+01 
1  1.639959508340e+01   3.325009949028e+01   1.496545905915e+01 
8
Step 16000
1 -2.473221024158e+01   6.041530675072e+00   5.480925850967e+01 
1 -1.092650816262e+01  -1.226735183766e+01  -1.218162793476e+01 
1  3.083349585117e+01  -2.369885479318e+01  -3.103212391981e+01 
1  5.239507762151e+00   4.629348209978e+01  -1.673092767045e+01 
1  3.003692859945e+00  -1.450113170225e+01   1.190572417696e+01 
1  1.988213859565e+01  -1.066255604333e+01   3.636559700027e+01 
1 -2.176110184491e+01   2.208869957629e+01   3.115195327231e+01 
1 -4.142228868357e-01  -2.403333322207e+01  -5.006886012109e+01 
8
Step 17000
1 -3.645695534237e+01  -2.418903267472e+01   1.461913184595e+01 
1 -1.004377821022e+01  -2.699485663806e+01   4.718617772819e+01 
1  3.665829228463e+01   2.057775364740e+00  -2.543994273907e+01 
1 -3.306496168022e+01  -6.959319487523e-01   1.971419904127e+01 
1 -9.679515643799e+00  -7.450254905978e+01  -2.362124106144e+01 
1  8.436848225453e+01  -1.992824172245e+01   3.163203291937e+01 
1  5.297826353387e+01   6.452680190889e+00   4.403407041289e+01 
1 -1.776047683556e+01  -2.135745363185e+01  -1.282621865187e+01 
8
Step 18000
1 -5.583056830469e+01  -6.075300077852e+01   3.154700658977e+01 
1 -1.051903563114e+01  -3.811051007991e+01  -1.538049319495e+01 
1  3.062421679831e+01  -8.967482978106e+00  -2.594729262046e+01 
1 -4.520255214735e+01   5.908270043910e+01  -3.777746764392e-01 
1  4.380314164550e+01   1.756205507000e+00  -5.889983058021e+01 
1 -7.866355811368e+00   2.678469309803e+01   1.359522474047e+01 
1 -6.013493492718e+01   1.740576654482e+01   4.974984105422e+01 
1 -4.372979092552e+00   3.387588698199e+01   1.753578566531e+01 
8
Step 19000
1 -3.108742730442e+01   1.257296299902e+01   4.577296918680e+01 
1  3.438872575595e+00  -2.364624417403e+01  -5.773818119002e+01 
1  1.420844577842e+00   6.842123144015e+00  -9.834834593047e-01 
1  1.794329214115e+00   1.545476580068e+01  -6.194172557588e+01 
1  1.767033370345e+01  -3.356079002852e+00  -3.429825206631e+01 
1  1.991955005994e+01   2.153969082621e+01   1.340174340610e+01 
1 -4.242106058638e+01  -2.377923393722e+01  -1.944122885834e+01 
1  1.943077308459e+01   5.873370925139e+01  -2.698333910727e+01 
8
Step 20000
1  1.835076701613e+01  -4.703287718708e+01   5.016273194222e+01 
1  2.406589189184e+01  -1.741780749608e+01  -2.552249288970e+01 
1 -2.324615365697e+01   1.547990092490e+01   3.136772273474e+01 
1  4.172382585157e+01  -1.350637516690e+01  -4.036290772841e+01 
1 -7.018364580324e+00  -5.074808385753e+01   5.201569956735e+01 
1 -1.933360495824e+01   1.593840003267e+01   3.915906760501e+00 
1  3.735873190237e+01  -6.379004213221e+01  -1.156166564661e+01 
1  6.486232790805e+00  -6.038780383956e+00   6.817336854838e+00 
8
Step 21000
1 -1.494397063338e+01  -3.110500625441e+01   8.403403348235e+01 
1  5.991522546211e+01   2.085934289857e+01   1.698065779054e+01 
1  4.391703917844e+01  -2.440861748694e+01   1.010482074810e+00 
1  9.558099139632e+01   1.550051058751e+01   1.716314362332e+01 
1 -5.826694943083e+00  -1.718220455213e+01   2.125195236111e+00 
1  2.170690037560e+01   7.086101093742e+00   4.604636945107e+00 
1  1.844867039929e+01  -5.714508871267e+01   2.409613947211e+01 
1 -5.914417794352e+01   7.053132346547e+00   1.989962408114e+01 
8
Step 22000
1  2.468373105233e+01  -3.549798738488e+01  -1.667163405363e+01 
1  4.984003643484e+01  -6.172059743276e+00  -4.543883303457e+01 
1  3.990230901136e+01  -4.992581104567e+01  -3.420391833225e+01 
1  2.276427894088e+01   7.598653169176e+00   1.460783410172e+01 
1 -6.705390284409e+01   5.341021218731e+01   5.018127412666e+00 
1  1.436687220576e+01   4.497948181101e+01   2.352999088969e+01 
1 -1.741156674743e+01   3.209881105112e+01   8.995615270805e-01 
1 -4.146930077674e+01  -4.493523162601e+01  -3.827950920633e+01 
8
Step 23000
1  1.580342249143e+01  -6.420969958138e-01   4.915499729993e+01 
1 -1.112188639132e+01   4.074362807112e+01   2.313035010181e+01 
1  3.100276960220e+01   1.289766999812e+01  -3.602665130724e+01 
1  4.023592073401e+00  -5.932048923407e+01   1.446660073185e+01 
1  2.821163610810e+01   1.016225643291e+01  -7.468829387895e+00 
1 -3.909069769697e+00   4.006155118926e+01   3.075581531416e+01 
1 -1.328877756542e+01   6.603303162096e+01   1.071443883132e+01 
1  2.917721096362e+00  -6.575599256657e+00  -2.464608446559e+01 
8
Step 24000
1 -1.049272985713e+01  -3.172094597622e+01   2.217183328804e+01 
1 -5.420146753774e+01   1.219607666249e+01   8.846081129016e+00 
1  2.044605359937e+01  -3.763959755336e+01   2.195362392776e+01 
1  1.347925949489e+01  -3.611658315766e+01   4.219857344080e+00 
1 -9.158948694354e+00   3.029397356806e+01   2.126996360893e+01 
1 -3.538801343414e-01  -1.633732195687e+01  -9.899045285881e+00 
1 -6.601007854825e+01   1.156115935070e+01  -4.159345226711e+01 
1 -2.355823724264e+01  -3.320526922672e+01   6.797908556083e+01 
8
Step 25000
1 -1.632847563848e+00  -3.633381154028e+01   4.742230177707e+01 
1  1.779610443881e+01  -6.242524771454e+01  -1.452409869102e+01 
1  4.697855267650e+01  -2.779201357525e+01   1.979693740084e+01 
1 -3.556477828377e+00   2.117177224767e+01  -2.071405906509e+01 
1 -2.912544511395e+01  -2.448044324354e+01   4.831683668944e+01 
1 -9.226256606405e+00   3.888205298581e+01  -2.653823194056e+01 
1  1.290771042150e-02   5.345054948075e+01  -3.541410343478e+01 
1 -4.198796757312e+01   3.667434012236e+01   9.529065520555e+00 
8
Step 26000
1  2.601794891116e+01  -1.042842466507e+00  -4.918106802104e-01 
1  3.555270628186e+01  -2.936976725840e+01   2.803516203242e+01 
1 -7.612616640295e+00  -9.901923186329e+00  -1.259115663487e+01 
1 -4.247900834592e+01   5.676460915003e+01  -2.575575792956e+01 
1 -1.482794749834e+01  -1.613847669563e+01   1.063065146205e+01 
1 -5.066937406094e+01   4.756419693878e+01  -2.406593232305e+01 
1 -1.144290671048e+01   3.023104822179e+01  -3.391491674904e+00 
1 -7.832853219254e+01   7.917740790375e+00  -3.506973441013e+01 
8
Step 27000
1 -1.300224999772e+01   5.190471854266e+01  -1.180349720152e+01 
1  5.707050651689e+00  -3.293755947791e+01   3.759039079834e+01 
1  2.108662186091e+01  -1.954650417338e+01   1.236646820426e+01 
1  2.243173099954e+01  -3.734935855154e-01   3.572317527287e+01 
1  6.626848992460e+00  -4.872261289564e+01   2.601324007225e+00 
1 -4.332396150812e+01  -2.654045669372e+01   3.028712685073e+01 
1 -7.238050519812e+01  -2.643591438487e+00   6.078418570592e+01 
1 -2.969116259475e+01   3.421127616351e+01   1.415352884012e+01 
8
Step 28000
1 -7.379910739888e+01   2.672962847128e+01   1.256366831373e+01 
1  1.960405806408e+01   1.941357642245e+01   3.993821558175e+01 
1  2.521092014161e+01   1.541467726953e+01  -1.004971848536e+01 
1  4.012748991139e+01  -7.744901712013e+00  -1.269685866139e+01 
1 -5.957530187957e+01  -2.823746155959e+01  -5.454739650320e+01 
1 -2.728035163343e+00  -6.098645423982e+01   1.037480707595e+01 
1 -4.041931746206e+01  -4.610505836347e+01   7.820767548124e+01 
1  1.065417919519e+01   5.820956408153e+01  -2.425727160960e+01 
8
Step 29000
1 -3.212109699191e+01  -1.611376860091e+01  -5.301790730996e+01 
1  8.775948057150e+01   8.906139208869e+00   4.676681508115e+01 
1  4.838705879821e+01  -7.626815563688e+00  -1.212139663980e+01 
1  2.721229152046e+01   2.579451841704e+01  -2.880396256286e+01 
1 -2.088113942407e+01  -1.275943975111e+01  -2.668847936066e+01 
1 -5.292373901610e+01   1.594034018366e+01  -7.116378203521e+00 
1 -1.775911502840e+00  -3.244964226400e+01  -3.215131821636e+00 
1 -1.287202332264e+01  -9.040932999623e+00   2.241507667385e+01 
8
Step 30000
1  4.349438916034e+01   1.849117195914e+00  -1.088821330421e+01 
1  8.315181003119e+00   2.425802268165e+01   2.383438022755e+01 
1  1.942985874241e+01  -2.102695857383e+01   1.614836821475e+01 
1  4.822881331178e+01   2.295355788387e+01   4.037049124738e-01 
1 -3.076303543788e+01  -1.764279104437e+01   1.556156706352e+01 
1 -3.551714678180e+01   1.164187316894e+01  -6.180868391957e+00 
1 -2.356655770518e+01  -7.906815497939e-01  -1.869805200113e+01 
1 -8.625240272004e+01  -3.993154677996e+01   2.937917599795e+01 
8
Step 31000
1  6.039609470184e+01   3.256230252835e+01   2.658698430903e+01 
1  8.177353811003e+00   2.852902025305e+01   6.253189896895e+00 
1  5.531220881719e+01  -2.459010274315e+01   1.756247706672e+01 
1  2.743235235682e+01   5.244300345307e+00   4.215819562221e+01 
1  3.268327623076e+01  -1.454805472155e+01   1.491983880566e+01 
1  1.311657615689e+01  -7.451641309639e+01   1.063642678320e+01 
1 -4.281519316290e+01  -7.454563615452e+00   3.458090659367e+01 
1 -1.259955549504e+01  -3.951262180167e+01   3.722654549894e+01 
8
Step 32000
1 -4.133117571026e+01  -1.886196717520e+01  -3.188786969288e+00 
1  1.655679147334e+01   1.274994342290e+01   4.597770826062e+01 
1  8.080299243742e+00   1.073639545463e+01  -1.613730901140e+01 
1  1.321540409573e+01   1.747275730421e+01  -1.706701860524e+01 
1  4.877946312037e+01  -6.331044326230e+01  -1.918722719311e+01 
1  1.556033114802e+01  -5.434346333965e+01   2.420147439290e+01 
1 -1.175709996859e+01  -4.674330861686e+01   3.654020559987e+00 
1  1.983713780783e+00  -1.915971299539e+01   5.235419471827e+00 
8
Step 33000
1  2.573873350556e+01  -1.527624154143e+01  -5.109743085082e+00 
1  7.271415246138e+01   3.543350395545e+01   2.873127863427e+01 
1 -2.489078756986e+01  -4.332339318159e+00  -6.753782382693e+01 
1  4.962042146773e+01   2.749994872869e+01   4.223609479339e+01 
1 -9.940617680037e+00  -1.677095943126e+01   5.913007177358e+00 
1 -7.628876803249e+00   4.102683007544e+00   4.126640936793e+01 
1  3.871022970131e+01  -1.692184473404e+01  -3.450174382498e+01 
1 -4.652855796704e+00   4.159575876579e+01  -2.166861491475e-01 
8
Step 34000
1  3.340958018497e+01  -7.531450780159e+00   2.242623973999e+01 
1  7.008532230858e+01  -1.005819999328e+01   1.156412293419e+01 
1 -1.687222019954e+01  -3.717116982173e+01  -2.199766688393e+01 
1  4.173831219301e+01  -1.510885092978e+01   1.467002813508e+01 
1 -4.788066297804e+01  -1.896721006694e+01   4.156886965994e+01 
1  4.199764635874e+01  -4.860623936713e+01  -6.988738568771e+00 
1  2.636275214130e+01   1.888107177682e+01   1.160590959037e+01 
1  6.446896292937e+01  -3.437770574965e+01   9.317401126589e-01 
8
Step 35000
1  4.186130773043e+01   5.736989014905e+01   4.584100646334e+01 
1  5.538388942759e+00   6.656251649017e+01  -8.281080031900e+00 
1 -4.529496904061e+01   3.702358112287e+01   1.110369369068e+01 
1  4.898093952150e+01  -5.228546772671e-01  -1.708718854919e+01 
1 -2.555494253360e+01  -1.293830120880e+01   3.970974233197e+01 
1  3.414994443636e+01  -5.146811071808e+01  -7.764183098253e+01 
1  2.031915600391e+01  -8.820131745714e+00   1.340833312883e+01 
1  5.458580963694e+01  -6.435497631240e+01  -1.460941132986e+01 
8
Step 36000
1  4.727972530358e+01  -2.005163920690e+01  -4.158924672946e-01 
1  2.683547430539e+01   2.428345633492e+01   1.776214610359e+01 
1 -4.014734781460e+01   2.910136927049e+01   1.874899194545e+01 
1  1.098066639100e+01   2.335800741249e-01  -1.889781262572e+01 
1 -2.674835665955e-01  -1.212331542171e+01  -3.220204956005e+01 
1  3.594055334822e+00   2.291657023662e+01  -5.994887752949e+00 
1  6.880113949285e+01  -4.713185857942e+01   2.815682551606e+01 
1  1.562910418575e+01  -7.506819759314e+00  -7.366389009165e+01 
8
Step 37000
1  4.119114923160e+01  -1.996250134698e+01  -6.231227596682e+01 
1  3.132968683053e+01   2.915158318210e+01  -3.349393956815e+01 
1 -1.340819424248e+01   7.986233562026e+01  -2.900942598657e+01 
1 -2.208031972407e+01   2.135637266617e+01  -5.170671228000e+00 
1 -2.041505929726e+01  -2.420211533014e+01  -3.543467866099e+01 
1  3.605175024473e+01  -7.043380675324e+00   8.299693200964e+01 
1  3.202927845310e+01  -3.328267598182e+01   2.590765568039e+01 
1 -1.525397295787e+01  -2.207865738494e+01  -5.856132005344e+00 
8
Step 38000
1  4.854773641519e+01   2.250064281264e+01   1.762839837607e+01 
1 -1.377408266828e+01   3.471462053210e+01  -5.514479508753e+00 
1 -3.153347296852e+01  -6.127951502709e+00  -6.550531708471e+00 
1  1.647415733998e+00  -2.358475026403e+01   3.597571486769e+01 
1 -6.377714382424e+01   2.582804417781e+01  -7.755101380288e+00 
1  4.432669952466e+01  -1.646972959063e+01   3.423334170174e+01 
1  7.523592028805e+01   2.772240432529e+01   3.437767167308e+01 
1  2.005172338859e+01   1.094337252591e+01   1.868468453117e+01 
8
Step 39000
1 -2.685330616554e+00   6.500039773647e+01   2.761134726617e+01 
1 -9.175972884243e+01  -2.930023828285e+01  -2.905985058041e+01 
1 -3.756010841525e+01   1.573628809226e+01  -2.760247100318e+01 
1 -5.265243927368e+00   1.480403157194e+01   2.778423189942e+01 
1 -1.231443461385e+01  -1.689153662495e+01  -5.206145672159e+00 
1  5.207830877199e+01  -7.038216235543e+00   1.123179577859e+01 
1  6.084249947605e+00  -1.475953825798e+01  -2.623738309032e+00 
1  4.659990108316e+01  -4.299215824716e+01  -3.102989637216e+01 
8
Step 40000
1 -2.619549931794e+01   3.203716497695e+01   6.789848053218e+01 
1 -2.173168421050e+00  -3.964031500778e+01  -3.470447686108e+01 
1  6.863853465972e+00   2.618975319866e+01  -2.621647292963e+01 
1  1.151234996081e+01   2.625495156096e+01  -1.676311250433e+01 
1  1.922848851334e+01  -1.699537375809e+01   3.192835695300e+01 
1 -4.051544420276e+01   6.052704921123e+01  -9.332706357941e+00 
1 -8.060932119759e+01   8.345462150640e-01  -1.031475314967e+01 
1  1.929744415439e+01  -1.454884503205e+01  -4.007145518122e+01 
8
Step 41000
1  5.371337669147e+00   2.645596758280e+01   2.304218985052e+01 
1  1.319547942705e+01   1.690869971580e+01  -1.684365314855e+01 
1 -3.982012903523e+01   1.731362640280e+01   1.863990878572e+01 
1 -1.549381800900e+01  -4.571633580432e+01   1.803359960883e+01 
1  2.730832338947e+01  -2.768327970133e+01  -4.251646547581e-01 
1 -3.370873895454e+01   1.541487792736e+01  -2.761791727134e+01 
1 -5.400984115162e+00  -4.918300699106e+00   2.774440489881e+01 
1  3.718533550704e+01   2.354090357505e+01   3.931634930097e-01 
8
Step 42000
1 -6.848794571791e+01  -1.629736849680e+00  -2.298620253321e+00 
1  1.640011847245e+01   3.226720358755e+01  -6.209523424266e+01 
1 -6.176883326650e+00  -2.056988439812e+01   4.692626608049e+00 
1 -7.878178028130e+00   7.173764960935e+00   3.703486434441e+00 
1 -1.480928543114e+01   3.121070653801e+01  -1.723019572515e+01 
1 -1.121303190735e+02   1.654208368008e+01   2.818938256210e+01 
1  4.859345041674e+01  -3.696592017557e+01   4.052488023952e+01 
1  1.515443365957e+01  -1.896702293960e+01   6.717544523148e+01 
8
Step 43000
1 -3.578309183313e+01  -1.555459367269e+01   7.651566408146e+00 
1 -3.262835560548e+01   2.600071838622e+01  -2.988346630329e+01 
1 -6.335296093547e+00  -1.905652938801e+01  -5.887748501361e+01 
1  3.557636350985e+01  -7.268318835227e+00  -1.814686224074e+01 
1 -6.437871074456e+00   3.864813656927e+01   4.509840773752e+00 
1  1.431459178540e+01   3.067231376456e+01   3.209298026727e+01 
1  1.814482824618e+01  -2.854503571534e+01   1.853603895042e+01 
1  1.048225035707e+01  -8.096664640388e+00  -2.784640822277e+01 
8
Step 44000
1  2.790882156405e+01   4.230845243553e+01   2.478584111431e+01 
1 -2.848715314604e+01   5.252710224082e+01   1.801407729457e+01 
1 -5.127824804318e+00  -9.716440680340e-01  -4.227910879143e+01 
1  1.442389361614e+01   9.751235728664e+00  -4.136493430270e+00 
1 -1.055828372300e+01   1.933738642829e+01   1.504893454474e+00 
1  1.963614076246e+01   2.875959605750e+01  -1.425406515581e+01 
1  1.894759597247e+01  -1.650317005869e+01  -4.625206088068e+01 
1 -3.940936599948e+01   9.719234898225e+00   4.789255001601e+00 
8
Step 45000
1 -1.463053906510e+01   3.834996289678e+01  -1.486944116661e+01 
1 -1.295725413989e+00  -2.904618520961e+00   5.251758698846e+01 
1  8.860251416545e+00  -1.051634233021e+01  -3.857382948276e+00 
1 -3.275340953518e+01  -3.681637819111e+00  -4.947241850287e+01 
1 -1.290957606230e+00  -4.049077223292e+01   2.147213191194e+00 
1  1.079201520441e+00   2.910838477983e+01   1.272764295287e+01 
1  2.464862384585e+01  -4.069206545351e+01   1.903073968427e+01 
1 -7.269341071966e+00   3.335991861113e+01   1.595219356615e+01 
8
Step 46000
1 -2.195425732624e+01   3.176768120630e+01  -3.463301536272e+01 
1 -2.100542985564e+01   4.312390218658e+00  -3.003144800628e+01 
1  1.289834810553e+01   3.838133116988e+01   3.500602490467e+01 
1 -3.092400620847e+01   1.991400210265e+00   3.233678434864e+00 
1 -1.779616789686e+01   9.215949528559e+01   6.580337770123e+01 
1 -1.013833245285e+01  -1.068757357379e+01   8.195030428055e+01 
1  9.754942497231e+00  -3.073933950998e+00   2.579229071785e+01 
1  1.413482787361e+01   3.759621163295e+01   1.853617929837e+01 
8
Step 47000
1 -5.177632047239e+01   1.605143243770e+01   3.754678307499e+01 
1 -2.458652338055e+01  -2.426568502754e+00  -3.339630669187e+01 
1  5.434309113853e+01   1.528364621266e+01   4.012525720268e+01 
1 -1.625663707000e+01  -3.782081399890e+01   4.733023575482e+01 
1 -9.883621367164e+00   6.478347151700e+01  -1.325668107426e+01 
1  4.159524977043e+01  -2.714268841920e+01   4.571817632928e+01 
1 -4.906009229863e+01  -3.412527635337e+00  -1.454944777980e+01 
1  6.048427972182e+01   1.554596228955e+01  -4.903392550337e+01 
8
Step 48000
1  1.234447371654e+01   3.774181091447e+01   2.496008402546e+01 
1 -4.013120316732e+00   1.120768817055e+01  -6.107986641165e+01 
1 -1.004544470398e+00   4.334376865567e+01   1.978403391808e+00 
1 -8.495914140264e+01  -4.011319027570e-01   6.619364864255e+01 
1 -3.629471357323e+01  -1.598282185750e+01  -7.928351074885e-01 
1 -1.547253306532e+00   2.062729653871e+01   1.128497647200e+01 
1  7.787241723510e+00   3.400608657681e+01  -4.371449084060e+00 
1 -5.887872527882e+00  -1.336261508519e+01  -7.479354219100e+00 
8
Step 49000
1  5.136379446065e+01   4.833179137393e+01   1.913860368716e+01 
1 -4.333402097603e+01  -2.491872889909e+00  -2.840428542635e+01 
1 -7.740897329494e+01   8.460663871721e+00   2.503066556146e+01 
1 -1.124057095631e+01  -7.515605865814e+00   4.654743911897e+01 
1 -4.514337819941e+00  -6.102519083515e+01   2.569860212552e+01 
1 -3.032646786383e+01   2.322951083387e+01   2.143891112636e+01 
1  2.883373183186e+00  -2.713909207665e+01   7.548833907337e+00 
1 -3.099286720444e+01  -1.998121288320e+01   3.983140698233e+01 
8
Step 50000
1 -2.337873918030e+01   2.529673563153e+01  -3.993185351341e+01 
1 -4.592905717254e+01   1.385792913753e+01   3.699913704240e+01 
1 -8.260384062003e+01  -3.004841441269e+00  -1.580833945003e+01 
1  1.585389074739e+01  -3.716059043275e+01   1.680466243792e+00 
1  7.791202233561e+00   7.494591329890e+00   2.910585916558e+01 
1 -6.638635595227e+01   3.282402425192e+01   2.481562077016e+01 
1  4.238574852993e+01   2.821984477010e+01   4.163364861203e+01 
1  3.617856061932e+00  -3.920700668342e+01   4.140962339007e+01 
8
Step 51000
1 -8.724318894755e+00   7.205144770368e+01  -3.195965090746e+01 
1 -2.342249257238e+01   4.440519348784e+01  -1.671440774688e+01 
1 -2.151821551459e+01   4.970597392433e+01  -2.034395170804e+01 
1  3.880529761289e+00   4.011636472071e+01  -1.073726574027e+01 
1 -3.826720009238e+01   2.222564868077e+01   3.528478055386e-01 
1 -9.613301835561e+00   3.581393769300e+00   2.457795992728e+01 
1  6.833411474097e+01  -3.932866187278e+01  -4.741640256566e+00 
1 -2.980396069784e+01  -1.631894108957e+01  -6.185775097177e+01 
8
Step 52000
1  2.016976599572e+01   1.705759812063e+01   8.367465865921e+01 
1  5.592014455822e-01   2.559739501043e+01   5.540796028495e+01 
1 -3.434915676269e+01   5.385785171782e+01   3.099088901486e+00 
1 -3.721114923443e+01  -3.849000742739e+01   3.462335028071e+01 
1 -4.135734077228e+01  -5.171108013716e+01   1.212506374011e+01 
1 -8.352469794619e-01   1.889518108387e+01   2.198569339320e+01 
1  2.275127041946e+01  -3.721562191006e+01   2.101861775897e+01 
1 -2.279419639006e+01   3.585573706135e+01   1.440498952088e+01 
8
Step 53000
1  6.112095071524e+00  -4.970206234133e+00   7.930482461080e+00 
1 -1.244741117680e+01  -2.953455926551e+01   5.249556851053e+01 
1 -4.597470804168e+01   7.611231003974e+00  -4.211714569649e+01 
1  2.316339612742e+01  -1.059266753834e+01  -2.463421249811e+01 
1  7.143388492218e+00  -2.397758731885e+01  -4.444522398122e+01 
1 -9.219013161354e+01  -1.204642680418e+01   9.845091778354e+00 
1  3.237680762503e+01   2.813440472238e+01   3.482062176277e+01 
1  2.360103496508e+01   1.168693883435e+01   3.716985453951e+01 
8
Step 54000
1 -5.539460195620e+00  -6.383120333552e-01   2.471204097191e+01 
1 -1.081349137243e+01   2.257803850993e+01   9.289451186015e+00 
1 -7.984645217855e+01  -1.535756559427e+00  -8.367726881511e+01 
1  5.426915767568e+01  -5.592642608282e+01  -4.855740132316e+01 
1  2.931121807721e+01   9.230624941972e+01  -4.126807205174e+01 
1 -5.883340071531e+01   2.044591642653e-01  -5.872470524000e+01 
1 -1.824708779546e+00   1.630097410722e+01   1.561711488838e+00 
1  4.047959557438e+01  -2.727658441005e+01   2.606329508419e+01 
8
Step 55000
1 -3.041538631408e+01   1.916844394171e+01   2.733631705784e+01 
1 -1.014481246337e+01   5.189749152416e+01  -4.792236099516e+01 
1 -1.643865623722e+01  -2.586128395809e+01  -3.565381878729e+01 
1  2.266779691289e+01  -6.212536627824e+01  -3.648669104727e+01 
1  1.331076373166e+01   3.247584215790e+01  -1.760853340602e+00 
1  2.079492117849e+00   4.109476578110e+01  -2.244861398050e+01 
1 -1.657454984073e+01   1.904619532260e+01  -1.557058190901e+01 
1  2.813306765517e+01  -1.553338861784e+01  -1.649642612682e+01 
8
Step 56000
1  6.671916407070e+01   4.860802846505e+01   4.652029703981e+01 
1  2.663342686086e+01  -2.940241994429e+01   3.773367653492e+00 