8
Step 0
1  2.130326814812e+00   3.841428738278e+01  -3.900125211552e+01 
1  3.567597752465e+00  -3.504277063756e+01   3.861701022475e+01 
1  6.258847992801e+01  -7.076539324116e+01   6.450599359103e+01 
1  5.978855273526e+01  -4.628740992298e+01  -3.331699604665e+01 
1  5.663920321690e+01  -5.214564811192e+01   5.649937483509e+01 
1 -4.885508989697e+01   7.742773658779e+01   3.518899981800e+01 
1  3.981944038262e+01  -7.472662646084e+01  -5.860625198879e+01 
1 -7.332626035848e+01  -1.421247514719e+01  -1.259120980933e+01 
8
Step 1000
1 -1.459439859227e+01  -3.831594061140e+01   2.273460464850e-01 
1  3.428588957608e+01  -4.500279539898e+00  -1.111186256327e+01 
1 -3.479572300450e+00   5.059788744286e+00  -2.323858448580e+01 
1 -1.269096810451e+01   2.413129981326e+01  -1.144797947900e+01 
1 -9.476260041590e+00   4.478845961919e+01  -7.517186620770e+00 
1 -4.627995131003e+00  -6.986142641575e+01   1.429642301966e+01 
1  2.692404886622e+01   3.434878488884e+01   1.905209747997e+01 
1  4.001703993175e+01   7.843942462518e+00  -4.743343186848e+01 
8
Step 2000
1  4.232068511309e+01  -6.487141349702e+01  -3.524075769805e+01 
1 -1.936218547819e+01   1.293904555489e+00   1.409870602633e+01 
1  1.300955046126e+01   2.176850173608e+00   1.561861862919e+01 
1  2.876298527027e+01  -3.583731318067e+01  -3.646837516070e+01 
1  8.044338441226e+00  -2.839624894758e-01   3.302613884256e+01 
1 -1.370415423341e+01   4.453823744652e+00   2.332017661144e+00 
1  9.827534978299e+00  -1.326159864919e+01  -1.017440288379e+01 
1 -4.694920217695e+01   3.209853682778e+01   2.130522523564e+01 
8
Step 3000
1  9.828808074167e-01   4.227960526240e+01   5.467672906711e+01 
1  2.167244618575e+01  -6.303531202792e+01  -8.981146460267e+01 
1 -2.143970779186e+01  -4.463970565513e+01  -4.841850821429e+01 
1 -3.632403159066e-02   4.069006531051e+01   5.219257484593e+01 
1  3.304927950886e+01  -3.644316609040e+01  -2.772754861126e+01 
1 -1.717303847234e+01   8.061010423342e+00   3.860296199385e+01 
1 -6.667308621210e+01   3.377835995957e+01   2.131105418195e+01 
1  6.961405940893e+01  -7.348177067873e+01  -1.372174188494e+01 
8
Step 4000
1  1.452063528553e+01   4.073231841501e+01  -1.699136869937e+01 
1 -5.940488945478e+00   6.464176687636e+00   3.769736517054e+01 
1  2.890540261493e+00   1.516662310287e+01   4.244614659962e+01 
1 -1.698592051479e+01  -6.216604197698e+00  -4.004579870099e+01 
1  1.748457292426e+01   2.083281508226e+01   4.985963860597e+01 
1  4.029117586511e+01  -1.392333870872e+01  -4.177160462674e+01 
1 -8.178272207427e+00  -4.326758032239e+01  -2.979434193667e+00 
1 -1.735524194889e+01  -1.901112066426e+01  -8.544425813409e+00 
8
Step 5000
1  1.377039611316e+01  -8.976955002673e+00  -1.467431131110e+01 
1  3.197891684882e+01  -2.147023499941e+01  -1.489131088711e+01 
1 -2.001165730444e+01  -1.527810258083e+01   1.235085863082e+01 
1  3.822682407070e+01   3.436185547620e+01   3.758800028186e+01 
1 -4.298188539336e+01  -4.357198777617e+01  -6.262246739247e+01 
1 -4.280400428133e+01   3.220745247693e+01   4.475964214431e+01 
1 -8.389106697563e+00  -2.280479110226e+00  -4.635468256254e+01 
1 -2.663065708281e+01   5.243128564585e+01   4.049050982876e+01 
8
Step 6000
1  5.204149922104e+01  -6.746308393119e+01  -2.421388959087e+01 
1  2.589548780667e+01  -6.136982506617e+00   6.867947965897e+01 
1  1.860318758080e+01   2.044736293001e+01   1.957899932835e+01 
1 -6.071848493102e+01  -1.235889635291e+01  -4.974933885574e+01 
1  8.840919015709e+00   3.647287266157e+01   6.264106544034e+01 
1  1.809197089334e+01  -5.233009995128e+01  -4.185801876909e+01 
1  3.925335183419e+01  -2.957373870543e+00   3.612297347256e+01 
1 -4.534237180461e+00   4.600089981043e+01  -5.578285831161e+01 
8
Step 7000
1  7.634387534901e+00   4.376980457719e+01   3.340393508106e+01 
1 -2.989986737011e+01   4.383378876613e+00  -1.667402076814e+01 
1 -5.131241146698e+01  -5.025700514454e+01  -5.827515704328e+01 
1  2.632223617490e+01   1.418717639920e+01   1.095666774570e+00 
1  9.088856741487e-01  -3.864858178600e+01  -2.121662119100e+01 
1  1.088315489409e+01   9.024575406247e+00   3.608236609251e+00 
1  1.726331942438e+01   4.845980359916e+01  -3.283924783985e+01 
1 -1.188898764736e+01  -1.364422710557e+01   2.305967990407e+01 
8
Step 8000
1 -2.978751003392e+00   1.143054175482e+01  -2.774322121970e+01 
1 -2.448805484367e+01  -1.960975903953e+01  -3.055429437377e+01 
1  2.281916056997e+01  -2.860006268901e+01  -1.315703820972e+01 
1 -1.919125855122e+01   6.707069707902e+00  -5.407924296683e+00 
1  2.094926605607e+01   4.359944110619e+01   4.928746467506e+01 
1  5.166926024150e+01  -3.264758142238e+01   1.241809699118e+01 
1 -8.585302209012e+01   5.301838550544e+01   2.617709690373e+01 
1  4.152480190256e+00  -5.567357440549e+01  -4.338599818919e+01 
8
Step 9000
1 -5.962052375919e+00   1.712859637874e+01   2.114323210822e+01 
1 -1.429618128243e+01  -3.379523577204e+01   2.473911246730e+01 
1 -9.251211486536e+00  -1.439123052963e+01   9.846295404754e+00 
1  4.082674894484e+01   3.648206108141e+01   4.025170209087e+01 
1  1.179674949554e+01  -5.303208249852e+01   4.194454774424e+00 
1 -3.498773204350e+01  -2.036072531184e+01  -4.585736934593e+01 
1  1.405494084334e+01   1.918525254439e+01  -4.712955994300e+01 
1 -1.108585651212e+01   5.075367918824e+01   5.084447002720e+01 
8
Step 10000
1 -8.749792117029e+00  -4.038293053840e+01  -1.588747011180e+01 
1 -1.174359001386e+01  -2.180028074272e+01   9.041128892702e+00 
1  2.266170149497e+01   2.601534707551e+01   2.211464835225e+01 
1 -4.556187144876e+01   5.852945975977e+01  -4.582058165934e+00 
1 -7.285587478607e+01   1.339604417700e-01  -4.758653491101e+01 
1  4.037186540565e+01   2.020400628807e+01   2.696538118549e+00 
1  7.973198689549e+00  -1.105147113371e+01   3.312245694214e+01 
1  4.889545839867e+01   1.704591198058e+01   6.714092570406e+00 
8
Step 11000
1 -2.147319697741e+01   4.774441783897e+01   3.440605292583e+01 
1  2.915253620370e+01  -1.006229729318e+00   2.081689725840e+01 
1 -8.287563889675e+00   7.126499536307e+01  -3.667653674966e+01 
1 -9.191223067693e+00  -7.496463452878e+01  -2.600389463328e+01 
1  6.610279009103e+01  -5.431948519539e+01  -1.327924826297e+01 
1 -1.263299664301e+01   2.390755735110e+01   2.610951067627e+01 
1  3.051157440144e+01   3.311321082307e+01  -1.511405038196e+01 
1 -5.998351266048e+01   1.379056377918e+01  -1.886014319736e+01 
8
Step 12000
1  5.812371992411e+01  -4.255305581004e+01  -7.569711729178e+01 
1 -2.231994834724e+01   4.768801192074e+01  -2.550285337905e+01 
1 -7.845874311353e+01  -1.302216734309e+01   5.201085859688e+00 
1  1.561263612621e+01   1.628916851738e+00  -3.977754986245e+01 
1 -1.759704757165e+01   3.076178031215e+01   1.253774839645e+01 
1  5.892755006059e+01   5.080457848916e+01   6.827862797045e+01 
1 -1.023856039423e+01  -5.310775637078e+01   1.400924553678e-01 
1 -2.031107078892e+01  -3.926998461078e+01  -1.340537481994e+01 
8
Step 13000
1 -3.058041563859e+01   2.664430492576e+01   6.189526610286e+01 
1  3.706077702787e+01  -4.190108006601e+01   2.681560290323e+01 
1  1.097355546656e+01   6.255179951247e-01  -2.730558238409e+00 
1 -1.139211197823e+01  -5.364327108970e+01   5.255573558158e+01 
1  5.239139823245e+01   3.970429294807e+01   4.481537306423e+01 
1 -6.640742030755e+01   2.926214480958e+01  -2.162861226876e+01 
1 -9.557206190169e+00  -2.729290030584e+01  -6.981900469959e+01 
1 -2.374140288904e+01   6.304913571893e+00  -6.997521143880e-01 
8
Step 14000
1  1.819153955014e+01  -1.470634444304e+01  -6.540442738771e+01 
1 -4.385317756418e+01   4.950327071884e+01  -9.343273295694e-01 
1 -1.837543693617e+01  -3.685557605985e+01  -2.350303704296e+01 
1  5.875420474539e+01   5.671443581877e+01  -5.063846429364e+01 
1 -4.031765953313e+01  -3.670759017736e+00  -6.089209672904e+00 
1  2.168208989808e+01  -4.904601072986e+01  -2.819866621078e+01 
1 -2.296331897837e-01   1.844976965827e+00  -1.019917045226e+01 
1  4.555497589747e+01   4.227654490033e+01   6.443524083822e+01 
8
Step 15000
1 -6.208869776724e+00   3.512224536447e+01   1.536776126890e+01 
1  4.807321744741e+01  -3.738842399901e+01  -3.961271551814e+01 
1  2.524106434845e+01   2.857038346178e+01  -7.165292026790e+01 
1 -9.954189914688e+00  -1.108094279383e+01   4.555813172786e+01 
1 -3.349208712220e+01  -8.566139392193e+01  -8.148496811524e+01 
1  2.933905839042e+01   3.713497905323e+01  -2.226435256514e+01 
1  1.190435901873e+01   5.193252092198e+01   7.266794016205e+01 
1 -2.733495655761e+00  -2.565699140937e+01  -2.495426521522e+01 
8
Step 16000
1  1.254247202955e+01  -5.421077067408e+01  -1.078181477145e+01 
1 -4.442467907988e+01  -3.629291886725e+00   1.684375508953e+01 
1 -3.309078946561e+01  -7.467488788602e+00   5.325711161137e+01 
1 -1.401987433379e+01  -8.250657569934e+00  -2.189837535620e+01 
1  2.314301970382e+01   1.698045265461e+01   3.310514150194e+01 
1  3.797575941569e+01   3.217343923491e+00   4.878340752987e+01 
1  1.895461516292e+01   1.525327250847e+01   2.007854645383e+01 
1 -5.235169325143e+01  -2.436554548844e+01  -4.681670144023e+01 
8
Step 17000
1 -3.993875449092e+01   2.327047253404e+01   2.991600871195e+01 
1  5.339143630988e+01   2.900147750994e-01   3.716485778378e+01 
1 -4.134459800123e+00   4.548400147231e+01   1.207962233858e+00 
1  3.587316777455e+01   2.165041001855e+01   6.434647832954e+01 
1 -1.417831651363e+01  -2.886478714027e+01  -2.949820169202e+01 
1  1.351744647338e+01   5.528350171655e+01   3.905647392303e+01 
1 -3.524652417761e+01  -8.974068730722e+01  -6.553590070961e+01 
1  3.596078339019e+01  -9.757399587781e+00   4.789529138685e-01 
8
Step 18000
1  1.250261903920e+01  -1.639393145007e+01  -1.999761880592e+01 
1 -3.382993344296e+01  -1.558293668072e+00  -5.460861781296e+01 
1  1.782839120258e+01  -6.060669138080e+00   2.470415680175e+01 
1 -2.282794102480e+01  -5.234517445632e+01  -4.251187021482e+01 
1  2.634546714506e+01   3.025187718676e+01   2.196088948258e+01 
1 -4.199807611261e+01  -7.229090672845e+01  -5.182841939563e+01 
1  3.497024434699e+01  -2.975674046069e+01  -1.857812449254e+01 
1 -1.340125100733e+01   7.020198029895e+01   5.142957917970e+01 
8
Step 19000
1 -9.416896024529e+00   2.246009066842e+01   4.342999660289e+01 
1  1.179631806587e+01   1.592880550192e+01   4.513237544790e+01 
1 -7.632775892984e+00  -3.512268750182e+01  -1.794960053556e+01 
1  2.423821864015e+01   6.639019491744e+01   4.721469771094e+01 
1 -4.485337358239e+01   1.207577955415e+01  -4.037425572987e+00 
1  3.462858919150e+00  -2.576716893568e+01  -3.148960834297e+01 
1  2.850270069789e+01   5.294638352459e+01   8.589647561858e+01 
1 -3.229935023275e+00  -5.121854980702e+01   5.974649253201e+01 
8
Step 20000
1  7.126863010439e+00  -3.607802334917e+01  -2.840865835630e-02 
1  1.158547124040e+00  -3.223137707715e+01   7.477090655884e+00 
1  3.006339538898e+01   2.700986345591e+01   2.628289463474e+01 
1 -2.723688108587e+01  -1.810702266499e+01  -1.590108967524e+01 
1  2.320427495748e+00   1.196719790973e+01   2.006585074336e+01 
1  1.874070159475e+01  -2.685618942429e-01   2.527927250839e+01 
1 -1.676017832000e+01  -2.756288879233e+01   1.131568234523e+01 
1 -1.686713863837e+01   1.900228530607e+01  -3.748074515743e+00 
8
Step 21000
1  7.375391116652e+00  -5.445369169882e+00   1.388714171710e+01 
1 -2.657433350796e+01   6.810381500164e+01   6.365981242764e+00 
1 -4.734632643032e+01   1.040503085311e+01  -1.728006731436e+01 
1  4.966926835203e+01  -2.122399369499e+01   1.596287047264e+01 
1  6.727039050095e+01  -4.688998240457e+01  -7.347495865343e+01 
1  2.274304339971e+01   8.158084809096e+01   2.822555598613e+01 
1 -2.935384801994e+01   1.456375766042e+01   2.245684954476e+01 
1 -6.660815833909e+00  -4.422814566477e+01  -8.278738133919e+01 
8
Step 22000
1 -7.736026723667e+00  -2.238927176472e+01  -4.969376894389e+01 
1  2.356975337545e+01  -2.162961214692e+01  -2.316457601422e+01 
1  4.982455471201e+01   2.323708646245e+00  -8.754236602700e+00 
1 -3.830924007156e+01  -1.206538418111e+01   4.934588915257e+00 
1 -5.453655895123e+01   1.590181377837e+00   2.789516822090e+01 
1  1.786303996641e+01   1.010011176951e+01  -4.352828590122e+01 
1 -7.204268680210e+01  -1.293624305598e+01  -5.738097413345e+01 
1  6.937151105922e+01   5.298570225998e+01   3.223439854372e+01 
8
Step 23000
1  5.074035166585e+01  -1.237921450176e+01  -2.205389662968e+01 
1 -3.534559856878e+01   2.622418408510e+01  -1.132077483663e+01 
1 -3.264374645368e+01  -3.040683441350e+01   2.072790459148e+01 
1  1.144166419454e+01  -5.203823677460e+00  -2.686802539891e+01 
1  1.695248726378e+01   2.665942663795e+01  -3.228431577899e+01 
1 -4.847157868026e+01   2.648083433953e+01   5.938517745006e+01 
1  5.612843475757e+01  -2.474926663693e+01   5.496732356088e+01 
1 -5.607799434670e+01  -1.583444842040e+01   1.062382776809e+01 
8
Step 24000
1 -3.926159884433e+01   8.311439950772e+00   1.921621954118e+01 
1  1.132028479113e+01  -2.674858941378e+01   1.736104174002e+01 
1  2.992227884370e+01   4.068670083762e+01  -3.111315782481e+01 
1 -1.053050720484e+01   5.989588573224e+01   3.402609129446e+01 
1 -1.509505341128e+01  -1.214727264126e+01   9.153500462770e+00 
1  6.208587279708e+01  -2.006881036078e+01  -6.001514360078e+01 
1 -1.405716965080e+01   2.178374026733e+01   1.641338136632e+00 
1 -2.313088568834e+01  -1.462086856238e+01  -3.605122335755e+01 
8
Step 25000
1  2.979240068109e+01  -5.232110611118e+01   1.234732714926e+01 
1  6.192186617748e-02   1.238009474182e+01  -2.021108449731e+01 
1 -6.610752125831e+00  -2.910150235280e+01   2.275541938839e+01 
1  1.117760027673e+00  -3.654718013349e+00  -3.087561104667e+01 
1  4.835667321334e+01  -2.433394769928e+00  -2.954088328236e+01 
1 -5.626395598122e+01  -4.441371770113e+01   6.390497941286e+01 
1  1.348314836400e+01   2.498054455640e+01   3.073204995548e+01 
1 -6.052395962642e+01   5.434997173379e+01  -4.524149643537e+01 
8
Step 26000
1 -3.245339495186e-01   1.162870996410e-01  -3.037771739102e+01 
1  5.059153549035e+01  -2.966054310648e+01   1.890342228183e+01 
1 -1.071212432215e+00   1.062545020543e+01  -4.160413001934e+01 
1  1.833332537017e+01   1.296533228566e+01   3.914099447950e+01 
1 -5.927208814252e+00  -4.743521677233e+01   4.061868980567e+01 
1 -4.543653104819e+01   5.574486376704e+01  -4.866049725733e+01 
1 -1.260633855972e+01   4.803848869026e+01   8.362390500779e-02 
1  2.455844650197e+01  -3.197997507193e+01   2.641120715064e+01 
8
Step 27000
1 -1.059047055384e+01  -3.992535995879e+01   4.179451800667e+00 
1 -3.937549640570e+01   5.046329611498e+00  -5.756983138155e+00 
1 -1.303690216070e+01  -4.660243382904e+01   4.813045203369e+01 
1 -3.778227271476e+00  -3.757779238228e+01  -1.845658811207e+01 
1 -4.039608375586e+01   1.772225859844e+01  -5.833363206489e+01 
1 -2.146448492011e+01   4.224137693634e+01   3.683014715416e+01 
1  3.731147630830e+01  -4.331005907745e+00  -3.019442347641e+01 
1  1.509746924075e+01  -4.092934787076e+01   3.702877306727e+01 
8
Step 28000
1 -1.091226766822e+01   3.441634858432e+01   5.225696417874e+01 
1  2.866872278745e+00  -1.459449853495e+01   2.736371714333e+01 
1  9.053094448924e+00   2.774644153731e+01  -2.876587305570e+01 
1 -2.058365476354e+00   2.869824519408e+01  -3.368678911873e+01 
1  4.675504784647e+01   2.855199473735e+00   3.303790701741e+01 
1 -5.097525341967e+00   3.574013308401e+01  -2.726316482351e+01 
1  4.816986801548e+01  -1.869560265636e+01   5.329661993788e+00 
1  3.395249222012e+00  -5.486797568653e+00  -1.850557948240e+01 
8
Step 29000
1 -1.413884258021e+01  -1.135394954208e+01   1.209470361166e+01 
1  1.085995896833e+01   2.941207389406e+00  -3.730517994536e+01 
1  1.164729651066e+01  -5.597615970995e+01   3.617843661242e+01 
1 -1.354120795144e+01   5.348879260296e+01  -3.894014608409e+00 
1  8.589685336198e+00   1.921986585368e+01  -2.620907170342e+01 
1  3.360358791740e+01  -1.483379566022e+01   1.276659965676e+01 
1 -3.482823322548e+01  -6.386362322722e+01  -8.243412734076e+00 
1  1.192641739968e+00   3.846790064677e+01   3.172651383110e+01 
8
Step 30000
1  2.278517773174e+01   2.012174246358e+01  -7.545736692365e+00 
1 -1.943480675926e+01  -1.437048885073e+01   2.136114774013e+00 
1 -8.360194071809e+00   5.548964276843e+01  -3.700343442882e+01 
1  3.350613871672e+01   3.231901836773e+00  -1.582417208045e+01 
1 -1.737130998250e+00  -2.237024328497e+01  -3.121313517363e+00 
1 -2.160972204889e+01  -1.010685845993e+02   5.419023934528e+01 
1 -5.055041342330e+00   1.399261319667e+01   1.866598468785e+01 
1 -3.110433345962e+01   1.226631236357e+01  -9.097493906387e+00 
8
Step 31000
1 -5.684445387237e+01   6.980484060472e-01  -1.336876919601e+01 
1  4.395378371619e+00   1.244540158097e+01   3.831616863838e+01 
1  3.167213209702e+01  -6.017271627812e+01   2.425592849089e+01 
1 -3.473043995567e+01  -7.921141997200e+00  -3.686427467969e+00 
1 -2.357812892130e+01  -3.359239916737e+01   6.882941082630e+01 
1  4.145301023159e+01   2.662688137643e+01  -4.254543263878e+01 
1 -3.477043050964e+01   2.867391635481e+01   2.144542010779e+00 
1  9.637932183927e+01   4.330677507071e+01   2.862217883275e+01 
8
Step 32000
1  3.976756242079e+01  -1.577145851445e+01   7.786953882657e+01 
1 -3.663340975763e+01   1.836215222057e+01  -4.300550168052e+01 
1 -2.569043961196e+00  -7.440752892999e-01  -2.253372352104e+01 
1  1.686075295102e+01  -6.023079591978e+01   1.679441379383e+01 
1  1.856304496956e+00  -1.991993385719e+01  -1.238755741503e+01 
1 -1.198648709692e+01   3.028435460969e+01  -2.596471444774e+01 
1 -7.321630250611e+00   2.938799269124e+01   6.297580497930e+00 
1  2.955088975224e+01  -1.283997084436e+02  -5.775187552712e+00 
8
Step 33000
1 -1.785644173033e+01   8.426658713032e+00  -2.392176654306e+01 
1  6.203573407378e+01  -4.174022232772e+01   1.870876703417e+01 
1  2.084745668108e+01   2.650682093275e+01   2.642019369784e+01 
1 -6.013620100465e+01   3.353748765153e+01   1.474702288420e+01 
1  1.039450414512e+01  -3.193476599396e+01  -2.254530365398e+01 
1  2.304992571414e+01   5.519007319027e+01  -3.953336715661e+01 
1 -7.121427088340e+00  -5.456288665970e+01   3.829398658767e+01 
1 -1.810742442573e+01  -2.251169341165e+01   2.985424961119e+01 
8
Step 34000
1  3.729514654494e+01  -3.679872830771e+01   3.533304426444e+01 
1 -3.405678399030e+01   5.515146905265e+01  -7.244181216775e+00 
1 -4.459021721507e+00  -1.991076657747e+01  -1.792748285422e+01 
1 -1.159885625139e+01  -3.823851851803e+01  -1.205101840167e+01 
1  6.228599937076e+01   1.832762362039e+01   3.052260109319e+01 
1 -2.877093578992e+01  -5.172054561917e+01   7.439242447723e+01 
1  4.427500567814e+00   7.921877811733e+00   1.967250775201e+01 
1  1.371565777548e+00   4.651790941137e+01  -7.710464177981e+01 
8
Step 35000
1 -3.434708475108e+01   7.896666188077e+01  -5.502499145890e+01 
1  2.328265299192e+00  -4.204730356567e+01   6.791077772106e+01 
1 -3.089019008358e+01  -2.644232182149e+00   1.306844506195e+01 
1  2.556033305254e+01   2.632791965514e+01   2.345904103114e+01 
1 -1.406519486754e+01  -4.487833378210e+01  -3.465404999102e+01 
1  4.081602533519e-01  -1.852000284556e+01   4.481105994701e+01 
1  4.137837890571e+01  -1.006193686320e+01  -6.509094729212e+01 
1  5.067671093173e+00   9.499025330730e+00   1.386546180738e+01 
8
Step 36000
1  3.195086164400e+01  -2.639155000468e+01  -8.212489892926e+00 
1 -1.368334899650e+01   5.102711735909e+01  -4.347870783081e+01 
1 -5.584561841644e+00  -2.431033130049e+01  -2.924413823139e+01 
1 -1.118829787339e+01  -1.657573431838e+01  -2.670707959846e+01 
1  1.055564492662e+01   1.934364567781e+00   4.724654184647e+01 
1 -3.303484682207e+01  -9.031057968171e+00   6.811611480039e+00 
1 -5.553125590809e+01  -9.561384813908e-01  -2.696187177434e+01 
1  4.440071093067e+01  -2.179898719292e+00   3.790279693443e+01 
8
Step 37000
1 -5.277169644157e+00   7.456539364487e+00   1.699416982905e+01 
1  2.527895186780e-01  -4.323055954666e+01   2.605978071758e+01 
1  1.959147769387e+01   4.390782650943e+01  -3.769636038815e+01 
1  1.090672567142e+01  -1.023802539632e+01   4.716942889062e+01 
1 -6.660189947630e+01  -6.479938090703e+01  -3.089816261117e+01 
1 -6.854506527839e+00  -6.981300863567e+00   2.778604930853e+01 
1  6.623088539461e+01   3.346063977388e+01  -3.058731052086e+01 
1 -3.773737944824e+01  -4.248368631065e+01   6.229254361287e+00 
8
Step 38000
1 -6.374382580648e+00  -1.549463742429e+01  -6.797768819799e+00 
1  1.954803608472e+01   1.250998428965e+01  -2.388260824717e+01 
1 -3.230561174523e+01  -4.568022135644e+01   1.753863388186e+01 
1 -7.254744271111e+01   1.389146490980e+01  -1.949555981308e+01 
1  3.603272193139e+01   2.967637681738e+01   3.472953532278e+01 
1  4.792474205499e+01   2.727258787067e+01  -4.034578240855e+01 
1 -2.292125129558e+01  -1.965000118257e+01   2.013657113815e+01 
1 -4.205681119586e+00  -3.353450393416e+01   3.093211422128e+01 
8
Step 39000
1  3.070582233457e+01  -1.552515841154e+00  -2.388959004620e+01 
1 -1.748031844763e+01   2.025883273022e+00  -1.874914575256e+01 
1  4.369090816508e+00   6.982640226709e+01  -1.007986924272e+01 
1  8.792939169659e+00  -2.601673652128e+01   4.451151470521e+01 
1 -7.872680438757e+00   3.378765155718e+01  -5.891063450476e+01 
1 -2.242869647041e+01  -1.096552204569e+01   3.424702138132e+01 
1 -9.848579683606e+00   1.239704591014e+01   5.922964869170e+00 
1  2.940446746574e+01   9.999242760272e+00  -4.994279258259e+01 
8
Step 40000
1 -1.645236767941e+01   4.377747012687e+00  -1.442069930965e+01 
1  3.248020884277e+01  -2.379471049663e+01   3.701010765025e+01 
1 -1.772543335434e+01  -2.101756516806e+01   2.830762211823e+01 
1  3.368639202555e+01   6.435930200332e+01  -3.126363358509e+01 
1  3.530107396881e+00  -3.878084811380e+01   3.559770508158e+01 
1 -1.624077283016e+01  -1.308195559281e+01   1.090210295828e+01 
1 -3.714858993897e+00  -3.495913735171e+01  -3.175376415319e+01 
1 -2.133427805512e+01   2.923791460752e+01  -4.098773595117e+00 
8
Step 41000
1  2.009442930735e+01   1.961274774625e+01   3.205894506381e+01 
1 -3.344407518212e+01   2.436157463574e+01  -1.631569685906e+01 
1  1.887688494021e+01  -5.703117189997e+00  -1.769727584608e+01 
1 -3.897667209575e+01  -6.250908637045e+01   5.168900899009e+01 
1 -1.690002237668e+01   2.532126184025e+01   2.104926077135e+01 
1 -2.652914076431e+01  -6.075808336393e+01  -3.867404838976e+01 
1 -1.677767682578e+01   4.959833542645e+01   3.843517810740e+01 
1  3.800811562419e+01   2.031516591538e+01  -1.241234132340e+01 
8
Step 42000
1  1.934690397016e-01   2.855657456198e+01  -4.610395399071e+01 
1  4.444202693033e+01  -4.923140470511e+01   5.620035354072e+01 
1 -2.153895363827e+01   7.781636726807e-01   3.735309409161e+01 
1  1.250860531429e+01   4.663189136765e+01  -2.118921243292e+01 
1 -5.522170046625e+01  -3.899877076454e+01  -2.639950170210e+01 
1  5.229246172176e+00   5.670273213505e+01  -6.801104568119e-02 
1  6.058480335410e+01   3.542602188431e+01  -3.746379206237e+01 
1 -2.838417147609e+01  -3.384394798010e+01   4.815022908412e+01 
8
Step 43000
1  2.339416330867e+01  -6.097602109392e+01   1.559964403823e+01 
1 -1.707066989519e+01   3.491561551188e+01  -4.650333339012e+01 
1 -1.048673474194e+01  -2.619383825238e+01  -5.744296871710e+01 
1 -1.337373809186e+01  -2.512245803379e+01   2.067308451082e+00 
1  4.632860010027e+01   3.793568909508e+01   1.713069009952e+01 
1  7.084199931502e+01  -2.682078190034e+00  -1.321114355570e+01 
1 -5.501112801489e+01  -2.436009769834e+01   3.800314570713e+01 
1  3.752849359287e+01  -3.207755018588e+01  -4.983866946465e+01 
8
Step 44000
1 -1.051780929932e+01   9.955241856444e+00  -9.804547238002e+00 
1  1.697923623184e+01  -2.017389171075e+01   2.422986792427e+01 
1 -8.568452549860e+00   2.811221064145e+01  -1.063383978876e+01 
1  3.798630316472e+01   3.417097616083e+01  -5.777460321336e+00 
1 -5.586459836479e+00  -2.821721896742e+01  -4.196173944034e+01 
1 -2.333355159049e+00   5.579982392250e+00   4.766052205335e+01 
1 -2.056439598012e+01  -7.083245786070e+01   6.861780275491e+00 
1 -2.765328413621e+01   1.561841166044e+01  -3.889617836498e+01 
8
Step 45000
1  1.912800792048e+00   3.545394489583e-01   4.661478318993e+01 
1 -8.140628703409e+00  -1.158433535095e+01  -3.253459586518e+01 
1  1.918543808373e+01  -2.775436075944e+00  -2.570486912896e+01 
1 -6.485521269949e+00  -2.014387987149e+01  -3.399913587145e+01 
1  1.295996029582e+01   2.733267639931e+01   3.964019451723e+01 
1 -6.134311327735e+01  -3.010740069632e+01  -4.811709049349e+01 
1  1.254754518275e+01  -6.565698358205e+00  -3.404334716577e+01 
1  3.343565141629e+00   7.508941874159e+01   7.102705483705e+01 
8
Step 46000
1  1.118054653421e+01   3.942126637948e+01  -4.645020208108e+01 
1  2.474725747774e+01   5.432639170903e+00  -3.220253349639e+00 
1  2.744618034925e+01  -1.845949446987e+01   5.086986452687e+01 
1 -6.162353878740e+01   1.545706972688e+01   3.451672535752e+01 
1 -4.016915775327e+01  -1.965512668414e+01  -6.214913621522e+01 
1  1.412600066248e+01   8.022084824895e+00   2.209885909947e+00 
1  4.761168338322e+01   5.445378439552e+01   1.060440915812e+01 
1 -4.020035152767e+01  -5.190919999789e+01   2.463771785454e+01 
8
Step 47000
1 -3.212381830473e+01  -4.095678614913e+00  -5.394227926529e+00 
1  1.024581976787e+01  -2.267549206210e+01   5.632489606544e+00 
1 -3.105503317324e+01   5.929889956367e+01  -1.688672868833e+01 
1  3.343080010193e+01  -7.248113494174e+00  -3.075444344215e+01 
1  6.514182454105e+01  -1.176414428442e+01  -5.524918666351e+00 
1 -6.051365644511e+00   1.451628344905e+01   4.550245518227e+01 
1 -5.504091685271e+01   1.270729946383e+01   3.929168318350e+01 
1 -1.574836897382e+01  -3.343500842844e+01  -1.515888380332e+01 
8
Step 48000
1  3.278695452843e+00   1.540084282657e+01  -3.492812556523e+01 
1 -2.211365218638e+01   5.362612599323e+01  -2.086072782183e+01 
1  6.147545043785e+01  -2.390789526706e+01   2.122729452747e+01 
1  5.959835998956e-01   1.079034543107e+01  -4.779380622353e+01 
1  6.997334578921e+00   2.951606501092e+01   3.275342986064e+00 
1  1.314827755023e+01  -3.516334497794e+00  -6.364545947104e+00 
1 -2.637211657315e+01   2.164961011531e+01   5.006313310909e+01 
1  3.686075402375e+01  -1.938437663106e+01  -2.796387104192e+01 
8
Step 49000
1  1.022609883171e+01  -4.839160010499e+00  -1.597634134610e+01 
1  4.369119974409e+01  -4.414618993319e+01   4.100652254577e+01 
1 -4.195457179167e+01  -7.836549430570e+00  -2.030449156558e+01 
1  1.802105432451e+01   3.237962820869e+01  -1.729037404351e+01 
1 -2.858402890371e+01  -4.597627751839e+01   6.346568672431e+01 
1 -1.990401474333e+01   3.486269236101e+01   6.308680121348e+01 
1  1.247815561132e+01  -4.978515392219e+01  -7.857708262453e+01 
1  1.196102916111e+00   6.113810922165e+01  -1.410139217080e+01 
8
Step 50000
1  3.103950416021e+01   1.156661621554e+00   3.305252493067e+01 
1 -3.070018487277e+01   1.757057917636e+01  -2.591741417194e+01 
1  2.815427978254e+01   2.458676381913e+01  -5.006751501541e+00 
1 -5.876853858193e+01  -3.455597575944e+01   3.766126671423e+01 
1  8.187175346787e+00   5.661578854902e+01   2.663083057846e+01 
1  1.113533501251e+01  -2.894101931237e+01  -4.791878128574e+01 
1  5.317244783662e+00   2.839669377945e+00  -2.976204470445e+01 
1  1.713643754266e+01  -2.333723819778e+00   6.139416851481e+01 
8
Step 51000
1 -5.512310923703e+01   1.122542938835e+01  -2.324826458558e+01 
1  4.408380921896e+01  -7.677597833749e+00   4.893499526309e+01 
1 -2.402127354745e+01  -1.250691106709e+01  -1.280190898492e+01 
1  1.322835337163e+01   4.603265355885e+01  -1.302051978502e+01 
1 -1.076122052886e+01  -3.006969354484e+01  -1.691286157898e-01 
1  2.025798481531e+01   4.520758686368e+01  -5.024864226040e+01 
1  6.342412354961e+01  -6.394329333650e+00   2.870616080242e+01 
1 -3.624339385180e+01   1.183722729047e+01   1.970230208591e+01 
8
Step 52000
1 -6.415399851759e+00  -1.897295959515e+01   3.799542561034e+01 
1 -2.970133001886e+01   2.245305539750e+01  -1.141368954899e+01 
1  2.165554392427e+01   4.508932044680e+01  -1.774808367318e+01 
1  1.393865381861e+01  -4.988671271798e+01   2.534692704505e+01 
1  4.541424585082e+01   1.051380459171e+01  -1.713931868609e+01 
1 -1.378536138117e+01  -1.519361866911e+01   9.074260371151e+00 
1 -3.793973098953e+01   3.529060787399e+01   3.709584304973e+01 
1 -5.879340814783e+00  -4.127038839997e+01  -5.145156282145e+01 
8
Step 53000
1  3.051533049764e+01  -7.873988265768e+00  -6.532946985896e+01 
1  4.192394311837e+01  -1.535524581769e+01   4.896298647837e+00 
1  9.197664170272e+00  -3.358585519425e+01   3.918353565363e+00 
1  4.000496030997e+01   8.083450228543e+00  -3.653393875183e+01 
1 -2.587997626770e+01   1.624985532698e+00   2.692747068637e+01 
1 -8.555544311748e+01   2.917213928807e+01   2.727882048067e+01 
1 -4.124415480771e+01  -2.210939753689e+01   3.017772546117e+01 
1  7.555477290778e+01   1.809256572689e+01  -2.070570578105e+01 
8
Step 54000
1  1.458296209625e+00  -4.647142905135e+01   1.291355495178e+01 
1 -3.041426226033e+01   6.874139043309e+01  -1.130784721720e+01 
1 -4.885781546228e+01   2.714537613669e+01  -3.872759423514e+01 
1 -3.453271084527e+01  -2.864271527955e+01   5.590182038228e+01 
1 -3.424866261984e+01  -7.580929555599e+00  -2.260635330995e+01 
1 -8.551929326474e+00  -6.487908051659e+00   3.731032203901e+01 
1  6.949660478963e+01  -1.567191187367e+01  -5.444099600587e+01 
1 -2.501307060556e+01   9.941251510502e+00  -1.947155160645e+01 
8
Step 55000
1 -3.839977445535e+01   6.604113901483e+01  -3.517374713398e+01 
1 -2.030908307564e-01  -2.024356905147e+01  -1.918401114848e+01 
1  4.118574737557e+01  -5.033089819432e+01   5.597611301953e+01 
1  1.728470414728e+01   1.684467293700e+01  -3.609330728210e+01 
1 -4.934527275004e+01  -1.778537693431e+01   4.694089499454e+01 
1 -7.941102031363e+00  -1.260869631566e+01  -8.255216328586e+00 
1  5.226940454145e+00   3.700254459683e+01   5.166041197795e+00 
1 -1.906821287352e+01   7.178001583963e+00   2.371615285426e+01 
8
Step 56000
1 -1.533112582870e+01  -2.577753600637e+00   2.340660607061e+01 
1  1.250837472063e+01  -5.016326168567e+01   1.886627212228e+01 