8
Step 0
1 -3.472934504792e+01   2.985585161505e+01   4.552711624413e+01 
1 -3.872914153085e+01   5.183552870333e+01   2.841252880511e+01 
1  6.597310272429e+01   3.473535297890e+01   3.212630301548e+01 
1 -6.209027598665e+01   1.844554586020e+01  -3.110501871492e+01 
1 -4.675834713363e+01   3.854789838996e+01   6.659078998682e+01 
1 -1.328434623653e+01  -5.953552595268e+01  -6.135440417252e+01 
1  6.150941286889e+01  -3.705897999201e+01   2.680974576907e+01 
1  1.897523860070e+01  -3.176705575740e+00  -2.894581516525e+01 
8
Step 1000
1 -3.427880126221e+01  -1.538271266645e+01  -1.382804317733e+01 
1 -2.770904953049e+01   2.279875078002e+01   2.293106428195e+01 
1  3.016009038883e+01  -9.601974148167e+00  -2.432272117785e+01 
1 -1.433621156124e+00   8.136359292909e-01  -8.378656908689e+00 
1  2.927837992150e+00  -1.208143972002e+01   5.428154761926e+00 
1 -3.458725078132e+01  -1.547187222614e+01  -2.325267817936e+01 
1  4.152268092280e+01   1.423673065590e+01  -2.279840495572e+00 
1 -2.194689369941e+00   5.554550496323e+01   1.400338840022e+01 
8
Step 2000
1 -2.700264857029e+01  -5.843775554243e+01   2.303414730960e+01 
1 -8.784496413202e+00   3.496740157248e+01   2.415856822197e+00 
1  2.082716493794e+01   1.933995300097e+00  -3.556048114853e+01 
1 -3.293162986072e+01   3.327071442295e+01   7.215943662648e-01 
1 -3.856466872652e+01   6.444299223821e+00   1.865914485448e+01 
1 -8.110445088772e+00  -3.714211838047e+01   2.686472588528e-01 
1 -2.538399472877e+01   9.766109779442e+00   2.337292343732e+01 
1 -3.704623774215e+01   1.039106246527e+01   7.474224424592e-01 
8
Step 3000
1 -1.333176074163e+00   3.225364912629e+00   5.454260274348e+01 
1 -1.484024334009e+01   3.485838304029e+01   1.336172081577e+00 
1 -2.370483375030e+01  -3.197760048177e+01   7.286219134809e+00 
1  2.617024967377e+01  -7.790012498798e+00   1.158021695126e+01 
1  5.308696076438e+01  -2.667820198957e+01  -1.193193272063e+01 
1  1.631039727912e+01   3.412395373596e+01  -5.845799168861e+01 
1  1.765731780893e+01   2.983685783376e+01   6.360381584882e+00 
1  1.307292633619e+01  -3.826502657582e+01   9.397379719220e+00 
8
Step 4000
1 -3.237493739925e+01   8.243951801502e+01   5.888166948125e+00 
1 -2.491022144214e+00   7.395516977746e+00  -7.527845201607e+01 
1 -3.622049514544e+00  -1.071457556376e+01   4.130191820733e+00 
1 -1.427798060423e+01   3.773695935826e+01  -5.452841320288e+00 
1 -4.623325224280e+01   4.706439201443e+01   8.848315480945e+00 
1 -4.110221169455e+01   3.570622675280e+01  -6.619431571533e+00 
1 -9.135143810798e+00  -1.355914097117e+01   1.694644542640e+01 
1  3.854769131655e-02  -4.060473713271e+01  -1.805009629114e+01 
8
Step 5000
1 -3.313052145329e+00  -4.822418649861e+01  -3.541451279194e+01 
1  2.600117051166e+01  -3.447740964389e+00   2.180891435253e+01 
1  3.385637935994e-01   2.240893975160e+00   3.822523201683e+01 
1  1.918795835623e+01  -3.195251052561e+01  -1.393153384933e+01 
1  1.022539869674e+01  -1.504267916845e+01  -1.106310920015e+01 
1 -1.567813117450e+01  -2.525113192120e+01  -5.701671272912e+01 
1  3.576584147251e+01  -8.364599098415e+01  -1.735858892144e+01 
1 -6.291712053828e+01   6.656485498351e+01   3.305127028035e+00 
8
Step 6000
1  3.059456940780e+01  -2.936589725735e+01  -5.750098075723e+00 
1  1.829620623796e+01   2.421773658264e+01  -1.106654367829e+01 
1 -8.550843468570e+00  -2.175047499403e+00  -8.378263172682e+00 
1 -1.270020029662e+01   6.028023250530e+00   4.056087326426e+00 
1 -3.225999102437e+00   5.096015345809e+01  -3.574427902819e+00 
1 -2.682911132095e+01   2.984297547315e+01   2.954879940107e+01 
1 -8.123349957217e+00   2.856218130897e-01   5.323911393142e+01 
1  4.852650594525e+01   4.641453110098e+00  -2.937944238193e+01 
8
Step 7000
1 -3.018933047839e+01   2.707536799972e+01   1.191032196007e+01 
1 -1.731741188613e+01   2.481598753493e+01   1.282633432239e+01 
1 -1.093344213867e+01  -2.414457763160e+01  -4.369996531768e+01 
1 -2.379527995508e+01  -6.027734429084e+01  -4.543664613866e+01 
1  1.640590970644e+01   8.562145504376e+00   2.159357028338e+01 
1  2.422248246743e+01  -3.813023932542e+01  -2.373783820161e+01 
1  1.466933587336e+01   7.326306943955e+00  -1.935513251746e+01 
1 -1.889655223809e+01  -1.456330039934e+01  -3.208887802328e+01 
8
Step 8000
1  7.645080967958e+00   4.697339879704e+01  -5.390775322832e+01 
1 -4.998571936423e+01   3.072149719514e+01  -3.897387638496e+01 
1 -1.705470815824e+01  -1.555505192929e+01  -2.298011573542e+01 
1  5.293313085660e+01   6.816293419654e+01   1.052793535375e+02 
1  7.255051256945e+01   2.459940910072e+01  -1.358440478625e+01 
1 -1.989868505388e+00  -3.072476246143e+01   6.634942847900e+00 
1 -2.600793387162e+01   5.261536008445e+01   1.091158197782e+01 
1  3.930450914746e+00  -7.115660301415e+01   3.504399375357e+01 
8
Step 9000
1 -1.615154746664e+01   3.401418719258e-01  -2.163851408078e+01 
1  2.411750225028e+01  -1.738577321933e+01   2.470790015275e+01 
1  1.035374159719e+02   3.396129684665e+01   2.254274381373e+01 
1 -2.907371837099e+01   2.281473495394e+01   4.961974869675e+01 
1 -2.295341980893e+01  -5.525194488679e+00  -9.890036984554e-01 
1 -4.392228759963e+01  -1.252808555189e+01   6.439944103499e+00 
1 -1.308069205038e+01  -2.373992206348e+01  -2.629487961730e+01 
1 -3.900125671223e+00  -4.098857375252e+00  -1.444279884926e+00 
8
Step 10000
1  2.360567810145e+01  -4.696855459989e+01  -2.774609047715e+01 
1 -2.881957552269e+01   1.609170993168e+00   4.802567605151e+01 
1 -1.889476162043e+01   2.074087161718e+01   2.423535503441e+01 
1  1.066130217965e+01   8.027068011888e+00   1.012181255222e+01 
1 -4.425332398892e+00  -2.560074087692e+01  -6.318610006210e+01 
1 -1.480837291459e+01  -4.083513641781e+00  -2.898294067483e+01 
1  8.541924276859e+01  -2.238361393650e+00   2.336341380576e+00 
1  2.164744310473e+01   4.193551994389e+01   5.954163318269e+01 
8
Step 11000
1  8.054577716858e-01   7.362204716094e+01   9.172061585733e+00 
1  4.151345421919e+01   9.349447002898e+01  -1.130077635347e+01 
1  5.757356407319e+00   7.548517043168e+01  -2.231589543551e+01 
1 -3.237651909476e+01  -2.956057953109e+01  -5.929741678111e+01 
1 -8.689117474095e+00  -2.984393470742e+01  -2.016784889118e+01 
1  1.021141711855e+01   6.056871294718e+01   8.205202341632e+01 
1  2.472991499949e+01  -4.176626136114e+01   9.158655116983e+00 
1 -4.016736833307e+01   8.664273478056e+00  -1.904578630909e+01 
8
Step 12000
1  1.165730302874e+01  -2.059789175816e+01  -1.264749160829e+01 
1  1.962417434618e+01  -1.618883434204e+01   8.580203324664e+00 
1 -8.876392479050e+01  -8.422816472420e+00   1.960241868755e-01 
1  9.760328138424e+00  -1.074622180428e+01  -8.822151861298e-01 
1  7.088769105084e+01   4.336197087198e+01   5.600227855101e+01 
1  5.825546155823e-01   4.153294914591e+01   3.385637645002e+01 
1  2.917055223498e+01  -6.666169703783e+01  -4.665321954987e+01 
1 -3.153263897326e+01  -1.443571789821e+01  -3.470405011333e+01 
8
Step 13000
1  5.502708668206e+00  -3.690383515949e+00   7.718316653782e+00 
1  1.650482668587e+01   2.936932304820e+01   4.630337048513e+01 
1  9.953678918198e-01  -4.876670923084e+01   3.182168917794e+01 
1  4.492591167398e+01   1.175667711800e+00   2.164770639229e+01 
1  2.695304180663e-01   7.624797545526e+01   5.509173828843e+01 
1 -4.779221313788e+01  -1.777655755104e+01  -2.057308941926e+01 
1 -4.285066405839e+00  -4.313086515326e+01  -8.256270055224e+01 
1 -2.808753496824e-01   2.081014743471e+01   3.456646784086e+01 
8
Step 14000
1 -5.947127537930e+01   2.340011060479e+00   1.312552258119e+01 
1 -6.642807975201e+00  -2.706222213926e+01   2.491432866100e+00 
1  3.667177193802e+01   3.380554794694e+00  -2.800296633824e+01 
1  4.229510681813e+00   1.621967853569e+01  -3.970835753637e+01 
1 -2.145745588345e+01   1.070707070753e+01   2.480192506780e+00 
1 -3.049850159421e+01  -4.389969562234e+01  -5.510914196831e+01 
1  2.000049236326e+00  -1.372340472085e+01  -1.482004396798e+01 
1  6.086426681413e+01   6.319967445852e+01   4.951442935868e+01 
8
Step 15000
1  8.223812285790e+01  -1.116780458499e+01  -1.414985818312e+01 
1  2.208343664224e+01   2.092517159167e+01  -4.822194465808e+01 
1  9.687870680131e+00   7.241930792820e+00  -2.666752887494e+01 
1  6.788152299671e+00   6.727250167563e+00   1.224330198595e+01 
1 -3.267758397037e+01  -5.511112806648e+01  -2.087086202306e+01 
1  4.857722644760e+01  -5.577947168820e+00   2.043345536036e+01 
1  2.111360491005e+01   9.206496190426e+01   7.035620951719e+01 
1 -3.039852119290e+00  -1.944057812982e+01   3.085896188990e+00 
8
Step 16000
1 -2.646278826383e+01   1.851388555851e+01   9.025663500938e+01 
1  1.429962518687e+01  -7.027517965791e+01   7.235334211678e+01 
1  1.913406729814e+00   2.858813925418e+01   3.268475970375e+01 
1 -3.118338146414e+01  -3.744701969993e+00   7.490683772729e+00 
1 -2.364763909455e+01  -2.139172923258e+01   1.134953136930e+01 
1  2.342559772803e+01   3.189708642478e+01   5.593789715573e+01 
1  5.428175058743e+00  -6.253702084090e+00   4.610909871898e+01 
1 -5.676089482892e+01  -3.573824703802e+01  -5.271981939410e+01 
8
Step 17000
1  4.580356549665e+01  -2.823995679404e+01  -1.790449343230e+01 
1 -1.507336736639e+01   3.110481782933e+01  -2.772462739342e+01 
1 -4.919082261138e+01   1.779866658500e+01   3.574161821598e+01 
1  2.224849508417e+01   2.321951275554e+00  -1.414642487770e+01 
1  8.629165851156e+01   1.160674702263e+01  -1.014163553994e+01 
1 -6.899996476531e+00   3.896840224070e+01   3.513486183172e+01 
1  1.655002394472e+00  -7.242265075584e+01  -5.946009730256e+01 
1 -4.657921777266e-01  -7.905203328824e+00  -5.194348309386e+00 
8
Step 18000
1 -3.171078510909e+00   2.882603039062e+01  -4.148315980878e+00 
1  8.223279246008e+00  -3.404092045455e+00  -9.999390477080e+00 
1  3.711202108452e+01   7.490339136157e+00  -7.068570191053e+00 
1  3.995890457240e+00  -8.683365138594e+00   4.260775364674e+00 
1 -2.912674090227e+01   1.547808056252e+01   4.496466738505e+01 
1 -3.856089984903e+01  -8.581768661742e+01  -5.176430833226e+01 
1 -1.130798869614e+01  -1.284456126143e+01  -3.118668780295e+01 
1 -8.351174753849e+00   6.526702151702e+01   6.900355604020e+01 
8
Step 19000
1  2.854702854003e+01  -3.685998800442e+01  -4.234784758031e+01 
1  1.828368393733e-01  -2.132046010969e+01  -1.623597051726e+01 
1  1.622884899095e+01  -2.009954208642e+01   2.201225322636e+01 
1 -6.881927452494e+01   1.576488121027e+01  -1.794311158352e+01 
1 -3.188035205915e+00   3.511904920751e+01  -1.348637758261e+00 
1  2.559496276642e+01  -2.755618524212e+01  -3.417580727721e+01 
1  6.691177929557e+01   2.954394086315e+01   8.061742293322e+01 
1 -6.188817181634e+01  -5.258765695828e+01   9.068075932837e+00 
8
Step 20000
1 -1.970226570239e+01   2.084922973533e+01   5.074155853183e+01 
1  2.501642157912e+01   1.105479769555e+01   3.040814672806e+01 
1 -3.145866425630e+00   2.710807784549e+01  -4.846275782065e+01 
1  5.652162397641e+00   3.208805501028e+01   1.760882380900e+01 
1  7.053898800268e+00  -1.881437169283e+01   1.366156806250e+01 
1  5.328770354717e+01   2.158139509173e+01   1.801357765554e+01 
1 -2.400287154187e+01   3.115265813353e+01   1.901495654569e+01 
1 -3.182623402227e+00  -2.147224232159e+01  -2.652567618362e+01 
8
Step 21000
1 -2.745593031714e+01  -1.384243121761e+01  -1.015277029153e+01 
1 -4.794579153991e+01  -1.783752511442e+01  -3.125955413487e+01 
1 -2.627627646419e+01  -8.592229649738e+00   4.466954586386e+00 
1 -2.300421044318e+01  -6.023665509219e+01   1.172722614351e+00 
1  1.619826466883e+01  -4.163847310625e+01  -3.068420084977e+01 
1  2.314315447591e+01   9.604205180852e+01   6.261028424868e+01 
1 -6.022264362422e+01  -3.518599207663e+01   2.155451385065e+01 
1  4.473930884372e+00   3.822703137641e+00  -6.518523691223e+01 
8
Step 22000
1  2.509299975960e+01   7.592614754169e+00   5.012487648718e+00 
1  2.942582577640e+01   2.633235358036e+01  -1.097799931561e+01 
1  1.508461964970e+01  -2.572353051193e+01  -2.833353175525e+01 
1  1.838892315227e+01   1.999014483513e+01   9.229351195601e+00 
1  1.801438212634e+01  -4.361791682581e+00   1.532132460050e+01 
1  3.939059092565e+00   2.241441997249e+01  -7.056969040854e+01 
1 -2.973717053128e+01  -5.617123507187e+01  -9.651537171440e+00 
1  9.715945260631e+01   3.495570988059e+01   2.325473309503e+01 
8
Step 23000
1 -2.665482457756e+01  -1.288213241903e+01  -1.020833326022e+01 
1 -5.356962244076e+00  -4.384971638514e+01  -1.340511084658e+00 
1  2.211083732809e+01  -2.752965661978e+01   4.727613985211e+01 
1 -3.097928490024e+01   2.141718534617e+01   4.243505807737e+01 
1 -2.841090203871e+01   5.852009776023e+01   3.660055427292e+01 
1 -3.871933165608e+01  -3.165694632620e+01   2.156360080542e+01 
1  1.336680787194e+01  -4.468368429022e+01   8.046752705388e+01 
1 -3.576038596299e+01  -1.657498211602e+00   1.608801106905e+01 
8
Step 24000
1  8.806932650172e+00   1.473068797462e+00   3.285707011925e+01 
1 -1.136461036908e+01   5.597327770169e+01   6.546023596659e+00 
1 -3.515237517345e+01   6.445242607600e+01  -3.049251968887e+01 
1  1.161305582824e+01   9.390913259421e+01  -3.080444697583e+01 
1  5.277959581885e+01  -1.371510980107e+01  -2.059020908384e+01 
1  1.718942595494e+01  -3.912215539062e+01  -3.194170210856e+01 
1  6.196313373310e+01   7.049896765625e+00   3.210754142479e+01 
1 -2.317524352638e+01  -4.866648097418e+01  -7.273343670043e+01 
8
Step 25000
1 -2.289975678154e+01  -1.598010064459e+01   2.608516705961e+01 
1  1.407553011906e+01  -2.044316617520e+01   1.714232487050e+01 
1  4.373427140609e-01  -2.424559774068e+01   5.653379277351e+00 
1 -9.746371763500e+00  -2.514174862429e+01   3.895473732291e+01 
1  1.185805528105e+01  -4.665073939497e+01   8.230648689624e-01 
1  3.384051648359e+01  -3.050666155116e+01  -4.290969358748e+00 
1 -6.368353962565e+00   8.171980098915e+01   2.077031727171e-01 
1 -6.587236791766e+01   5.865893555700e+01  -1.529052326396e+01 
8
Step 26000
1  3.538831062463e+01  -2.127464775558e+01  -4.995930306824e+01 
1  7.410069308763e+00   5.081851725460e+01  -7.464709876921e+01 
1 -1.376377537353e+01  -5.376352318688e+00  -3.073886416868e+01 
1  4.535289928794e+00  -1.920029518445e+01  -3.171128634268e+01 
1  2.492015596090e+00  -3.689051520745e+00  -1.181324702155e+01 
1 -4.734967638804e+01   2.057209927315e+01   3.727022802333e+01 
1  2.201599451824e+01   2.153497098430e+01  -2.470994227072e+01 
1  2.483092379210e+01  -3.595481210651e+01   1.089113154449e+01 
8
Step 27000
1 -1.524337290114e+01   1.917916201472e+01  -1.243963878175e+01 
1  1.228034228179e+01  -1.843689946097e+01   4.128406283764e+01 
1  3.771474586029e+01  -8.803736913427e+00   2.699649047218e+01 
1  2.220986428306e+01  -3.005945904552e+01   5.500483923618e+01 
1 -2.409256661621e+01   1.694367752391e+01   1.112820142204e+01 
1  1.598322099325e+01   6.450212545850e+01  -3.111892754488e+01 
1  3.669638006952e+01   3.584542483187e+00  -7.147601553320e+01 
1 -1.430765591679e+01  -7.046579783563e+01   6.888389177242e+01 
8
Step 28000
1 -2.548880247237e+01  -1.281672660967e+01   2.582039473236e+01 
1 -3.946254968141e+01   5.519781645663e+00  -5.706502570971e+01 
1 -4.189121635882e+01  -9.202300896243e+00   1.103725516616e+01 
1  1.785903028239e+00   1.657961411706e+01  -2.515021971545e+01 
1 -1.906312027909e+01   5.874138011423e+01  -4.902909259174e+01 
1  2.214370583934e+01   7.784010178239e+00   1.912999336655e+01 
1 -2.139929234970e+00  -5.298845458894e+01  -1.472882142701e+01 
1 -5.724032616007e+01   4.851211558965e+01  -6.082132944247e+01 
8
Step 29000
1  4.727494411722e+01   3.727829306794e+01  -1.837597971060e+01 
1  4.352798009373e+01  -4.852248422051e+00  -6.536330031807e+00 
1  2.149450333993e+01  -8.575225022166e+00   2.508785116852e+01 
1  8.818971281042e+01   5.034284839032e+01   2.744786706937e+01 
1  5.898160041271e+01   4.426150449566e+01   1.265457016560e+01 
1  9.133035280968e+00  -6.503420056180e+01   1.465084622899e+01 
1  2.994199004135e+01  -5.342323748614e+01   4.142250482703e+00 
1 -4.160460269965e+01   1.554735760071e+01   2.655126167146e+01 
8
Step 30000
1 -1.868058521904e+01  -2.426773924788e+01  -1.726919638966e+01 
1 -6.072211277537e+01   2.353872130800e+01  -2.143112187498e+01 
1 -2.389911246812e+01  -2.077416492723e-01   7.807818745210e+00 
1  2.434826674016e+01   2.663233985639e+01  -1.356277041233e+01 
1 -5.386426875464e+01  -6.365787118671e+01   1.641192105700e+01 
1 -1.404949385116e+01  -5.139020937471e+01   1.983623945107e+01 
1 -8.012617722217e+01   1.938135174560e+01   3.822873627017e+01 
1 -2.518673156773e+01   7.151798083128e+01  -6.368872794655e-01 
8
Step 31000
1  1.851885091375e+01   1.547664588577e+01   2.232697228741e+01 
1  1.766253115696e+01  -4.253116256107e+00   6.783885478904e+01 
1  4.878477201236e+01   1.319325952881e+00  -2.217032222487e+01 
1  7.479140591658e+01  -3.358031587693e+01  -3.794685872190e+01 
1 -3.665903217873e+01  -8.192656618997e+01   2.110930138714e+01 
1 -8.561196734481e-01   1.220014000820e+01  -7.946581477942e-01 
1  1.720868120088e+01   4.485158039304e+01  -3.795181204545e+01 
1  1.080471112077e+02   2.030927985833e+01  -3.851203667077e+01 
8
Step 32000
1 -3.263414210736e+01  -2.513618887493e+01  -3.050470340131e+01 
1 -7.163445820142e+00  -1.940426487677e+00  -8.828085893625e+00 
1 -4.163079924513e+01  -4.392741204548e+01   4.384723684116e+00 
1 -2.190010721705e+01  -6.270939907833e+01  -1.922831240682e+01 
1  9.250755694967e-01  -1.207545591412e+01   2.152559319657e+01 
1  5.896901368798e+01   8.706302587026e+01  -4.982404522610e+01 
1 -6.432400219223e+00  -2.352194284226e+01   2.471674474921e+01 
1  2.252209506466e+01  -9.141494354871e+01   3.997958072525e+01 
8
Step 33000
1  1.389061319553e+01   6.686987951072e+00  -1.240763090668e+01 
1  2.012387634210e+01  -7.744787956815e+00  -3.617627344645e+01 
1  2.353349616658e+01   9.618975121843e+01  -1.349757103145e+01 
1 -1.491943410429e+01  -1.506325381376e+01   3.682385626799e+00 
1  3.830556382965e+01   3.718689156366e+01  -4.618407038233e+01 
1 -4.909353552651e+01   1.818602297679e+01   8.331828206133e+00 
1  1.432181370130e+01  -1.902796069175e+01   3.061750666752e+01 
1 -3.349839176325e+01  -3.635801728583e+00  -3.009947579733e+01 
8
Step 34000
1 -4.667968576764e+01  -1.351657223712e+01   2.109869577368e+01 
1  8.729077184058e+00   6.221622404291e+00   2.013550580461e+01 
1 -1.543514428052e+01  -1.837802798336e+01   4.180523289919e+01 
1 -1.466940569190e+01   1.532832637726e+01   7.721275282133e+00 
1  4.625210454795e+01   2.438213858357e+01  -9.308218294645e+00 
1 -2.479107993968e+00   1.430740477407e+01   8.224575980306e+01 
1 -2.533204401418e+00  -3.603739415061e+01   5.555871400992e-01 
1 -4.833416124241e+01   2.394333759442e+01  -1.109526860561e+01 
8
Step 35000
1  2.317294269215e+01   2.613031670966e+01   7.462708883849e+00 
1 -5.044075832675e+01   1.797293680251e+01  -2.723263724733e+01 
1 -8.160854491835e+00   5.773261498067e+00  -3.464282214892e+01 
1  1.232127376026e+01  -3.824420437354e+01  -1.581748746818e+01 
1  1.706975666649e+01   8.052004677994e+00  -6.237554609574e+00 
1 -1.401890241880e+01  -3.145412353370e+01   3.522910808492e+01 
1  3.751587944346e-01  -5.130537911640e+00  -7.287618615663e+01 
1  3.614586146167e+01   3.888539859692e+01  -1.054213623748e+01 
8
Step 36000
1  6.678081528433e-01   5.500781924564e+00  -7.655879025452e+00 
1  1.544861528401e+01  -5.184174692955e+01   4.324272660985e+00 
1  1.380468573323e+00   8.014817866441e+00   3.799612679828e+00 
1  2.795843985067e+01   4.410013898422e+01   2.728601835385e+01 
1 -4.503612715260e+01   3.394893177180e+01   7.447200920465e+00 
1  7.361713121226e+00   4.345226469114e+01   2.485357115327e+01 
1  2.110562084178e+01   2.038475936192e+01  -3.548882128806e+01 
1  4.832461638413e+01  -5.409970977661e+01   7.767226312355e+01 
8
Step 37000
1  1.151156537229e+01  -4.156365722012e+01   6.794001631392e+01 
1 -3.849320860820e+00   1.236498071150e+01  -7.485614545329e+00 
1  6.402350359821e+01   2.770763577779e+01  -2.985154146118e+01 
1 -2.737385106229e+01  -3.313837641523e+01  -1.534877343857e+01 
1 -1.718639224775e+01  -2.940649277053e+00  -4.248014405540e+00 
1  3.490630217083e+01  -2.292539017005e+01  -3.347508210033e+01 
1 -2.380459451859e+01  -1.337778363673e+01  -9.457774252001e+00 
1 -1.598771820175e+01  -6.168134226772e+01   4.711470210954e+01 
8
Step 38000
1  1.046879790747e+01   4.723560144357e+01   6.067798674802e+00 
1  2.253797185329e+01  -3.724882325482e+01   4.284416378776e+01 
1 -1.024816501004e+01   9.340780520572e+00   3.096027049238e+01 
1 -2.914845214367e+01   1.377890021845e+01   1.882844099780e+01 
1 -1.205668617613e+00   3.441027621505e+01  -1.218424082997e+01 
1  1.782050279459e+01   3.054927105676e+01   1.321436100897e+01 
1  4.658172421415e+01   3.764591988212e+01   1.026819621024e+01 
1  8.722165346071e+00  -1.777766766354e+01  -4.063753584140e+00 
8
Step 39000
1 -2.873416201247e+01  -3.157034958707e+01  -3.869499261708e+01 
1 -5.024490265118e+01   9.570756016826e+00  -1.512524721641e+01 
1 -3.980894746079e+01   1.803104583906e+01  -2.861748321724e+01 
1 -2.805360290979e+01  -2.018333297416e+00  -4.169325670257e+01 
1  2.928126011305e+01   5.229333144046e+01  -4.081786416471e+00 
1  3.107517916813e+01  -5.847534804486e+00   1.712970940067e+01 
1 -3.810646441906e+01  -5.348267870641e+01   2.217468978132e+01 
1  1.595253384687e+00   3.717310301024e+00  -1.270586711924e+01 
8
Step 40000
1  4.869150296746e+01   1.009459159910e+01   1.636039902199e+01 
1  7.651690640273e+00   4.374647927129e+00   2.154232776668e+01 
1  5.761697185446e+01   4.279676348829e+01   1.636817410065e+01 
1  4.678223434442e+01   3.216245799341e+01   2.160512884705e+01 
1 -9.546855344339e-01   2.042900535792e+00   7.110118080555e+00 
1 -4.881351014614e+01  -6.946609574858e+01   3.169859305466e+01 
1  8.461665921087e+00   2.274991156231e+01  -3.679882634346e+01 
1  3.611981385311e+01   8.853206520884e+01  -1.893637447804e+01 
8
Step 41000
1 -5.774840097563e+01   1.907715729415e+01   1.571873875106e+01 
1 -1.539291973027e+01  -3.268352651264e+01  -4.773518750340e+00 
1 -1.394474358922e+01  -2.937412101958e+01  -1.754347770995e+01 
1 -4.224809273212e+00  -3.389576868587e+01   1.590134616402e+00 
1 -1.816688777833e+01  -3.947780013417e+01   3.254483479871e+01 
1 -3.819125809097e+01  -3.458133583568e+01  -3.340404828764e+01 
1  8.913485099400e+00   3.043227682088e+01  -3.215916854335e+01 
1 -6.023769399797e+00  -2.671268992889e+01   5.511918251430e+01 
8
Step 42000
1  2.635386533009e+01   2.639324374932e+01   1.339125458017e+01 
1  2.399555912557e+01   4.178262527892e+01   3.267715261362e+01 
1  1.751990872618e+01   1.210111980842e+01  -1.001217794653e+01 
1 -1.164644831225e+01  -1.441610523616e+01   3.619766571655e+01 
1 -5.742600490085e+00   1.679413938661e+01  -1.279883867769e+01 
1  1.381316948439e+01   1.711647832087e+01  -6.686119731823e+01 
1  1.565678675164e+01   3.661329723460e+01   4.532967229889e+01 
1  2.161900371280e+01  -5.476160529040e+01   2.505104927532e+01 
8
Step 43000
1 -2.541596969659e+01  -1.319992612701e+01  -2.122297840605e+01 
1  1.859965116707e+01  -3.319861301452e+01   2.811392839364e+01 
1 -9.997591624177e+01  -3.032564203450e+01  -2.391048798296e+01 
1  3.916756317508e+01  -5.911967742190e-01  -5.196957953678e+00 
1  4.156871922287e+01  -1.686372446453e+01   1.199216292417e+01 
1  2.352682420798e+01   9.260952627246e+00   8.388909843339e+01 
1 -2.015069376885e+01  -2.634285224309e+01  -9.064965309517e+00 
1 -3.804740652632e+01  -5.284701080832e+01  -2.587761939155e+01 
8
Step 44000
1  1.054630556511e+01   6.995078407081e+00   3.999716761622e+01 
1 -4.633809990110e+01   5.073841383569e+01  -2.032180756511e+01 
1  1.063764175782e+00   2.921071798004e+01  -3.818543619611e+01 
1  5.222104324838e+01  -1.513865909841e+01   4.518709004382e+01 
1  2.250821081157e+01   4.052459990650e+01   3.811840374517e+00 
1 -5.521726458859e+00   1.681826820201e+01   1.217137436313e+01 
1 -6.762123929671e+01  -6.834620587171e+01   3.883102629672e+01 
1  3.558871488872e+01   4.815173106380e+01  -3.468281852365e+01 
8
Step 45000
1 -3.754911004074e+01   4.983512000598e+01  -4.041557610180e+01 
1  1.195019272449e+01  -2.205383573772e+01   1.521355621291e+01 
1  2.637792054749e+01  -3.089532604741e+00   1.820789030371e+01 
1  3.469651982040e+01   7.992729929190e+00  -5.608237637859e+00 
1 -1.919748186278e+01  -3.545137931331e+01  -1.320676402085e+01 
1 -5.809096915253e+01  -3.703744818978e+01  -5.643465482900e-01 
1  8.195395639565e+01  -2.207278568004e+01  -5.859189330927e+01 
1 -1.369887921771e+01   4.641291051516e+01   2.324464537378e+01 
8
Step 46000
1  4.124562852419e+01  -2.967744272573e+01   2.129937763476e+01 
1 -3.205122306698e+01  -2.203955250497e-01  -3.005892435109e+01 
1 -2.134982708956e+01   2.476898772341e+01   3.688841089921e+01 
1 -9.626084535213e+01  -3.171926769392e-01   3.567373800875e+01 
1  1.192238843404e+01   2.368060510041e+01  -2.015809652417e+01 
1 -1.457597018565e+00   2.785933759235e+01  -2.664167226144e+01 
1  1.414702655313e+01   7.174187204069e+01  -7.404188565156e+00 
1  7.669517158515e+00  -5.300812713865e+01   3.040287330025e+01 
8
Step 47000
1 -4.500798412346e+01   9.557001554418e+00  -4.480365590197e+01 
1  8.613782421684e+00   1.528157192440e+01   8.357402559936e+00 
1  1.311153498955e+01  -3.011327955742e+01   4.279301978711e+01 
1  1.132356564467e+01  -6.764150380890e+00  -2.374124438746e+01 
1  9.123819111194e+00  -1.641723146446e+01  -2.910854562426e+01 
1  3.207021232255e+00   1.051346700895e+01   2.947140405252e+01 
1 -4.274360000465e+01   1.923829733590e+01   3.688209867136e+01 
1  2.312820188223e+01  -2.339002542126e+01  -2.463659655980e+01 
8
Step 48000
1 -5.057182536672e+01  -3.408795811571e+01   6.344159303452e+01 
1 -1.711587120866e+01  -7.390288171804e+00  -3.198621938163e+01 
1 -1.905593302696e+01  -2.314832369945e+00   1.796193581478e+01 
1  1.054144146099e+01  -2.544505560923e+01  -3.746802926030e+01 
1  1.366643003956e+01  -5.616807300394e+00   3.477841831786e+01 
1  3.701422226574e+01   1.047318462572e+01   4.125593276191e+01 
1 -3.051694009168e+01  -3.121182721096e+01  -1.990343884799e+01 
1  4.402823612412e+00   9.838224417039e+00  -7.352163547718e+01 
8
Step 49000
1  4.050434759584e+01   2.762589730098e+01  -1.757080831600e+01 
1  1.957858509446e+01   5.073367152000e+01   6.537363056874e+00 
1  3.295540242186e+01  -1.542184123401e+01   2.994726788327e+01 
1  1.072049839587e+01   2.307627918793e+01   1.747495463543e+01 
1 -3.368694833793e+01   1.511032685783e+01   8.242987755260e+01 
1 -2.834831476424e+01   3.997814080576e+01   1.690138030598e+01 
1 -3.725046986438e+01  -3.766102315572e+00  -3.592974605318e+01 
1  5.321895385499e+01   1.909174348998e+01  -2.851695071161e+01 
8
Step 50000
1 -2.325958798252e+01  -2.626589757586e+01   6.948442131796e+00 
1  1.186564722919e+01  -6.148612379810e+01   3.282156611123e-01 
1 -2.860225955461e+01  -2.232825038642e+01   2.097526553611e+01 
1 -3.488702270584e+01  -1.108638691801e+01   3.942314821476e+01 
1 -2.114016781832e+01  -4.138899518717e+01   3.880467113734e+00 
1  3.894836872578e+01  -2.219327528771e+01  -3.580787239622e+01 
1  4.013487957372e+01  -6.009536449393e+01  -2.780083502553e+01 
1 -2.378236900432e+01   2.655979373961e+01   7.365604453010e+01 
8
Step 51000
1 -3.059588312336e+01   3.343999220104e+01  -1.097179658136e+01 
1 -2.180398108008e+01   3.438824078823e+01  -2.074586035710e+01 
1  2.723052397424e+01   5.782526264199e+01  -4.381152403253e+01 
1  2.947469645289e+01   1.324319725413e+01   2.778472878207e+01 
1  4.102907993160e+01   2.311336056373e+01  -2.392202092280e+01 
1  5.081444253822e+01   1.858524840659e+01  -4.717493126615e+01 
1  2.001754141489e+01   6.277180926995e+01   4.698603037539e+01 
1 -1.789871741084e+01   1.103401327038e+01   1.177108955325e+01 
8
Step 52000
1  1.062247203551e+01   4.949496528054e+00  -2.659448177003e+01 
1  6.870706803575e+00  -2.482866479701e+01   2.838653220967e+01 
1  3.795956058719e+00  -3.810531220078e+01   2.402332708148e+01 
1  1.485776330719e+01  -3.690437881881e+01   1.952741937365e+01 
1  1.206435559865e+00  -3.163979311063e+01  -2.097458398660e+01 
1 -2.929381236846e+01  -4.178716918852e+00  -1.501616924373e+01 
1 -2.614163968719e+01   1.521879882558e+01   4.875003033937e+01 
1  1.186458209350e+01  -5.246061852944e+01  -6.602848424837e+01 
8
Step 53000
1  6.888627904508e+01  -1.577593994122e+01  -1.551866663898e+01 
1  8.633928093119e-01   1.172162387548e+01  -1.939345713837e+01 
1  8.078829968385e+00   3.401932975426e+01   3.339846923224e+00 
1  1.904069905241e+01   1.235212275981e+01   2.014109827942e+01 
1 -1.827253170055e+01   3.700808476307e+01  -2.197569936488e+01 
1 -4.191247286853e+01  -2.341319860199e+01   9.420098723650e+01 
1  3.109811098195e+01  -1.184468301186e+01   7.425643387803e+00 
1  2.364956164436e+01  -2.613130719198e+01  -1.925676236461e+01 
8
Step 54000
1  9.904234410604e+00  -5.303624997710e+00  -7.824984552862e+00 
1  2.077451881146e+01  -2.762791455290e+00   3.669955107723e+01 
1 -2.278888304937e+01  -1.297485761053e+01   5.078572467349e+01 
1 -3.529042821516e+01   1.025081937854e+01  -3.299434749267e+01 
1 -6.600252046680e+01  -1.358753754186e-01  -1.481640384816e+01 
1 -9.286035348279e+00  -4.080590148102e+00   8.135142629332e+01 
1  3.516772109086e+01  -5.508445896495e+00  -6.909075210971e+01 
1  5.018066772938e+00   3.429810834162e+01  -2.314344489267e+01 
8
Step 55000
1 -1.012778996223e+01   5.901377148254e+01   3.662314999521e+01 
1 -3.837814208279e+01   1.138866310737e+01  -1.081675603785e+01 
1  5.875638284793e+00   7.950767994059e-01   2.597481241547e+01 
1 -6.555445340643e+00  -7.473040762665e-01   3.129157597561e+00 
1 -2.947207419251e+01  -2.304780586486e+01  -1.483433419137e+01 
1  7.428068458832e+01  -2.931017199626e+01   1.704031243695e+01 
1  3.004061731573e+01   1.933296517201e+00  -4.795072182885e+01 
1 -1.050868774851e+02  -1.687244378067e+00   4.289164342120e+01 
8
Step 56000
1  2.320185150986e+01   4.119685095093e+01  -4.575208711723e+01 
1  6.814515246989e+01  -7.693533579335e+01  -5.767957732534e+00 