8
Step 0
1  7.395189469585e+00   2.868572838882e+01  -2.182869978595e+01 
1  3.581768520100e+01  -5.040078629445e+01  -1.872152468762e+01 
1 -8.956057854562e+00   4.753479582038e+00   1.574679953468e+00 
1  1.977878075509e+01   3.607585693886e+01  -2.422827477529e+01 
1  7.002853144553e+01   7.647335132185e+01   2.165794942044e+00 
1  2.570063494682e+01  -1.914862205628e+01   1.732125061436e+00 
1  5.826318678326e+01  -1.353795077675e+01  -5.974027404880e+01 
1  5.370653369435e+01  -9.140397982714e+00  -5.549262301199e+01 
8
Step 1000
1  2.318829578398e+01   4.528819881416e+01  -2.520547026846e+01 
1  4.373656400660e+01  -5.097660226568e+01  -5.279480524731e+01 
1 -4.198500063158e+01  -6.452227948196e+00  -2.761272485562e+01 
1  2.263004501675e+01   1.378719802246e+01   1.344040347981e+01 
1  6.078833188670e+01   3.992477498077e+01  -1.422372525441e+01 
1  3.991432206372e+01   2.765996857299e+00  -3.261723966845e+00 
1  6.310453563597e+01  -2.192631107062e+01  -5.208692106359e+01 
1  1.293433109622e+01   3.124892211876e+00  -6.691527782690e+01 
8
Step 2000
1  2.432443231023e+01   5.230096032464e+01  -1.691581556878e+01 
1  2.724495974587e+01  -2.484453157054e+01  -5.722202621695e+01 
1 -4.968617973735e+01  -1.854902603603e+01  -4.086811065644e+01 
1  1.444953127097e+01  -9.577202985922e+00   4.443766919074e+01 
1  2.851467110115e+01   3.469507790339e+00  -2.089647442102e+01 
1  4.061271384335e+01   2.332277203492e+01  -2.069522656532e+01 
1  4.881868277900e+01  -2.686320742355e+01  -2.495448646722e+01 
1 -2.030179629803e+01   1.431239267701e+01  -4.918686524236e+01 
8
Step 3000
1  1.235846945278e+01   4.430950691782e+01  -2.683543679830e-01 
1 -4.821047178861e+00   1.038118597461e+01  -3.916410885379e+01 
1 -3.810005774023e+01  -2.694885864852e+01  -3.548447917526e+01 
1 -1.811218300642e+00  -2.367233844212e+01   5.739984108036e+01 
1 -5.486529250376e+00  -1.529021972914e+01  -1.489968666507e+01 
1  2.811044394754e+01   3.679293527483e+01  -4.145289046328e+01 
1  1.522797347058e+01  -2.814951218165e+01   9.458698495368e+00 
1 -3.602858116412e+01   1.561068126727e+01  -1.057945022052e+01 
8
Step 4000
1 -7.136353500682e+00   1.803370273359e+01   1.860253363313e+01 
1 -3.072835982703e+01   3.047246726956e+01  -1.385186726678e+01 
1 -1.859552946757e+01  -2.751788958065e+01  -1.649638053560e+01 
1 -2.121024698366e+01  -2.518802765655e+01   5.279791865634e+01 
1 -2.166281060105e+01  -1.880856744097e+01   2.203309848785e+00 
1  5.189173813494e+00   4.045764351536e+01  -5.136795275807e+01 
1 -2.248105289478e+01  -2.362155692673e+01   3.207913427185e+01 
1 -3.867088859800e+01   3.093057030590e+00   2.188637929417e+01 
8
Step 5000
1 -2.658081595368e+01  -2.183593957303e+01   3.387804538004e+01 
1 -3.550411705998e+01   2.964364303655e+01   3.488857018170e+00 
1 -2.491502646094e+00  -1.600566749861e+01   5.338723269784e+00 
1 -3.859793838080e+01  -1.606215065045e+01   3.436582888189e+01 
1 -2.095634452281e+01  -1.271744489998e+01   2.579690296154e+01 
1 -2.150504000846e+01   3.305337872843e+01  -3.888153913044e+01 
1 -4.329659401870e+01  -7.285359619544e+00   3.652961535592e+01 
1 -3.230387083258e+01  -2.325947137185e+01   3.274324845148e+01 
8
Step 6000
1 -3.985204003004e+01  -5.520914852041e+01   4.271746063918e+01 
1 -2.238279800162e+01   1.739697271648e+01   8.368101977417e+00 
1  4.290021788767e+00   1.377700003340e+01   1.818127918998e+01 
1 -4.974492354797e+01   1.649900421718e-02   8.879376424096e+00 
1 -1.298571675195e+01  -9.253945583798e-01   4.904044474615e+01 
1 -4.307667944563e+01   1.357906198380e+01   4.482550541521e+00 
1 -4.566929563965e+01   2.839221242420e+01   2.881227087250e+01 
1 -1.935486790613e+01  -5.724840403387e+01   2.924521321943e+01 
8
Step 7000
1 -4.156642988260e+01  -6.698236380060e+01   4.279559356639e+01 
1 -4.998262979421e+00   5.280867902848e+00   5.244404477122e+00 
1  3.291077550872e+00   5.637783148466e+01   1.800372271131e+01 
1 -4.859904592749e+01   1.920678100040e+01  -1.489603201660e+01 
1 -5.514794309767e+00   1.270199309001e+01   6.259136417624e+01 
1 -5.219391021380e+01  -1.793788055000e+01   5.925234625631e+01 
1 -3.777101136726e+01   7.128235722879e+01   1.711796156630e+01 
1 -2.416817228770e+00  -8.270668407409e+01   2.048653758216e+01 
8
Step 8000
1 -2.411586844798e+01  -6.192096043155e+01   3.027533739273e+01 
1  6.401081156506e+00  -1.075203503246e+00  -1.672141867210e-01 
1 -1.566109311814e-01   8.344545999668e+01   1.005918480723e+01 
1 -2.550069035440e+01   3.707474607896e+01  -3.082394873860e+01 
1 -1.830633164724e+00   2.352159069493e+01   5.220228719314e+01 
1 -3.965888544956e+01  -5.301858251680e+01   8.021586938523e+01 
1 -2.405767072579e+01   9.352817903866e+01   6.625858418541e+00 
1  1.534966873776e+01  -8.166007712275e+01   1.230807227723e+01 
8
Step 9000
1  7.534856370743e+00  -4.869556467185e+01   7.769411504850e+00 
1  1.028589486567e+01  -1.255712239174e+00  -4.421678187908e+00 
1 -2.322445717804e+00   8.014824254843e+01   2.582063330757e+00 
1  1.361635996101e+01   4.806390585935e+01  -3.640731837615e+01 
1 -1.926445468157e+00   2.691565351037e+01   1.089713014122e+01 
1 -1.875309701474e-01  -7.458839932247e+01   7.008477840486e+01 
1 -6.098619349266e+00   8.631148031927e+01  -6.145592548594e-01 
1  3.070965148905e+01  -3.660814639062e+01   8.510024753875e+00 
8
Step 10000
1  3.338831316801e+01  -3.244263159826e+01  -1.730957851073e+01 
1  7.851501042146e+00   2.992666198244e+00  -5.636287669770e+00 
1 -1.828845583219e+00   4.865356003890e+01   1.175106690663e+00 
1  4.645679945425e+01   4.566621408656e+01  -3.131355073784e+01 
1 -4.062066086716e+00   1.973529714638e+01  -3.230592190792e+01 
1  3.976866871448e+01  -7.228612410907e+01   4.528550524214e+01 
1  1.364494181481e+01   5.326588152470e+01  -3.804054463422e+00 
1  4.060358610195e+01   2.592385209381e+01   9.242288543435e+00 
8
Step 11000
1  4.193657109540e+01  -1.622708283605e+01  -3.795556193117e+01 
1  1.184687242667e+00   8.068768768509e+00  -2.700213822811e+00 
1  1.447275558481e+00   7.052849050352e+00   7.468733192319e+00 
1  6.134475280189e+01   2.250760296285e+01  -1.699655605004e+01 
1 -5.741224116861e+00   1.955618464366e+00  -5.154169229629e+01 
1  5.485749803569e+01  -4.363940022761e+01   1.855846876442e+01 
1  3.061400416696e+01   1.211631272917e+01  -2.893878155636e+00 
1  4.181235630680e+01   5.030472990503e+01   9.826164047996e+00 
8
Step 12000
1  3.373758986903e+01  -1.888363462572e+00  -4.818299434914e+01 
1 -6.367626842858e+00   9.357736402632e+00   4.302861803336e+00 
1  6.492462558036e+00  -2.252442822440e+01   1.883597956767e+01 
1  5.847227047223e+01  -2.005060960962e+01   2.831068105992e+00 
1 -4.566504000775e+00  -2.120701871083e+01  -4.551796950079e+01 
1  4.542834720093e+01  -1.698113007525e-01  -1.764103899506e+00 
1  4.003999669038e+01  -1.759631103006e+01   8.847288438244e-01 
1  3.082494807393e+01   4.478750985479e+01   5.711700844111e+00 
8
Step 13000
1  1.544106918519e+01   9.856264933715e+00  -4.472714635966e+01 
1 -1.089001865699e+01   3.500810881371e+00   1.350244785724e+01 
1  1.123859179975e+01  -3.487372489424e+01   2.929417400333e+01 
1  4.097004974809e+01  -5.681246414948e+01   2.271802906308e+01 
1  9.480297428669e-01  -4.007076386145e+01  -2.149367635040e+01 
1  2.142044050894e+01   3.005207393780e+01  -1.317906122478e+01 
1  3.869773053238e+01  -3.289611333380e+01   4.912714255370e+00 
1  6.114046253771e+00   2.267232087403e+01  -4.693639988107e+00 
8
Step 14000
1 -3.324157651248e+00   1.894620293024e+01  -2.682314311374e+01 
1 -9.190394563101e+00  -9.511702574583e+00   2.129997705246e+01 
1  1.307579125756e+01  -3.283027532866e+01   3.274151921290e+01 
1  1.477689762819e+01  -6.878967460655e+01   3.780763754319e+01 
1  1.067896390632e+01  -4.612013105666e+01   6.088256176898e+00 
1 -2.675003899078e+00   3.803212661951e+01  -1.694871414787e+01 
1  2.530170038719e+01  -3.727512281519e+01   5.953783637574e+00 
1 -2.602711542127e+01  -1.567859083200e+00  -2.023169436133e+01 
8
Step 15000
1 -1.461881720825e+01   2.518332015260e+01   1.918603546372e+00 
1  2.220196380654e-01  -2.510360239851e+01   2.319276219516e+01 
1  9.537110839444e+00  -2.074807569040e+01   2.533332657211e+01 
1 -9.990147782694e+00  -5.804730908380e+01   4.530557889883e+01 
1  2.224492217597e+01  -3.491190234277e+01   2.276326875269e+01 
1 -1.575764667696e+01   3.254323658577e+01  -1.598477761877e+01 
1  1.801977858842e+00  -3.380773451021e+01   1.465916946391e+00 
1 -5.122320482129e+01  -1.511538419456e+01  -3.669849573678e+01 
8
Step 16000
1 -1.579829885054e+01   2.760834452823e+01   3.047964628450e+01 
1  1.630435192355e+01  -3.524609380660e+01   1.488470645064e+01 
1 -1.038411173324e+00  -4.522125802036e+00   6.684591658557e+00 
1 -2.514662937438e+01  -3.366559408483e+01   4.333435128176e+01 
1  3.067750269801e+01  -6.853724594892e+00   2.389783999664e+01 
1 -1.592731990674e+01   2.272081755777e+01  -1.351801123101e+01 
1 -2.440018666752e+01  -2.458844924304e+01  -8.950569699475e+00 
1 -5.868877818287e+01  -1.350353339272e+01  -4.764379817053e+01 
8
Step 17000
1 -8.355041870304e+00   2.422193883803e+01   4.684622000363e+01 
1  3.429131151250e+01  -3.178659723673e+01  -5.761357461018e+00 
1 -1.840325386542e+01   9.582493015118e+00  -1.846886184094e+01 
1 -2.916934685710e+01  -8.425041785428e+00   2.803640270452e+01 
1  2.922821684771e+01   2.657730098401e+01   1.255386877236e+01 
1 -7.380217375568e+00   1.422290682481e+01  -1.177646255216e+01 
1 -4.332226640993e+01  -1.089292710265e+01  -2.206718566348e+01 
1 -4.740886364170e+01   5.770112822570e-02  -4.635183736724e+01 
8
Step 18000
1  4.440664804057e+00   1.162125604069e+01   4.669186295387e+01 
1  4.536683953406e+01  -9.138038487355e+00  -3.419670670234e+01 
1 -3.844123879988e+01   1.758424384900e+01  -4.042344869752e+01 
1 -2.475167672222e+01   8.284812705689e+00  -1.089784849428e+01 
1  1.248537357905e+01   4.724631141217e+01  -3.463649880875e+00 
1  3.181961715477e+00   8.722372057005e+00  -1.085371823242e+01 
1 -4.900635646542e+01   6.417048260262e+00  -3.073310248798e+01 
1 -2.518756683229e+01   1.620101727045e+01  -2.765647424521e+01 
8
Step 19000
1  1.719814926243e+01  -1.605871395432e+01   3.176275598222e+01 
1  3.794188059074e+01   2.797131185126e+01  -5.805840281575e+01 
1 -5.270838867693e+01   1.893748207298e+01  -4.995176855946e+01 
1 -1.596772345936e+01   1.557679184520e+01  -7.117489207505e+01 
1 -1.622902108033e+01   4.734536738939e+01  -1.410671250808e+01 
1  9.444584184527e+00   4.262057314458e+00  -8.153220238231e+00 
1 -3.943863913604e+01   2.563820373627e+01  -2.647087702690e+01 
1 -4.995031809667e+00   2.363650571265e+01   5.906466256952e+00 
8
Step 20000
1  2.257155998667e+01  -6.169133105328e+01   7.054189029139e+00 
1  2.328100627615e+00   5.817629498712e+01  -6.613771974397e+01 
1 -5.150832073815e+01   1.581701122861e+01  -4.212854908213e+01 
1 -6.856507653610e+00   1.586504024073e+01  -1.048975170609e+02 
1 -4.175419493959e+01   2.940073520327e+01  -1.221292466073e+01 
1  7.770544083364e+00  -3.222217133767e+00   1.824053376599e+00 
1 -1.274835597720e+01   4.320398355358e+01  -4.967888649191e+00 
1  5.904570101202e+00   1.506805238668e+01   3.877132981522e+01 
8
Step 21000
1  1.651393758256e+01  -1.023627653499e+02  -1.873382410155e+01 
1 -4.501485747682e+01   6.539288119747e+01  -5.276866128910e+01 
1 -2.765962372701e+01   1.210210694472e+01  -1.581147611817e+01 
1 -1.932063720656e-01   9.954876984326e+00  -1.012223644103e+02 
1 -5.039840871382e+01   2.405817309257e+00   2.294591872621e+00 
1 -2.532897590423e+00  -1.672530187458e+01   2.646241097982e+01 
1  2.737729342886e+01   5.475482665655e+01   2.566398181576e+01 
1  8.254289830556e+00  -1.155473880648e+01   5.767249636520e+01 
8
Step 22000
1  1.589914011216e+00  -1.108581226203e+02  -3.615419985612e+01 
1 -7.104304740696e+01   4.874937159986e+01  -1.902366020217e+01 
1  1.247856926818e+01   1.188301542320e+01   2.014220252347e+01 
1  3.245506592290e+00  -2.165572297266e+00  -7.880276516862e+01 
1 -3.791454791031e+01  -2.022315507411e+01   2.049998909966e+01 
1 -2.000722899129e+01  -3.455363024322e+01   6.308375135116e+01 
1  6.087535466314e+01   5.598378951404e+01   4.815340233819e+01 
1  4.646400557927e+00  -4.870236181200e+01   5.916405986291e+01 
8
Step 23000
1 -1.491851436489e+01  -8.494497219558e+01  -4.078678163049e+01 
1 -6.890913363209e+01   1.844313946974e+01   1.909664751185e+01 
1  4.403642836976e+01   1.689050072013e+01   4.563422382450e+01 
1  4.219434976781e+00  -1.790700685590e+01  -5.005123815772e+01 
1 -9.188841862045e+00  -2.922632120929e+01   2.920255183599e+01 
1 -4.069471008279e+01  -4.929381505655e+01   8.912861407125e+01 
1  7.146410528091e+01   3.853848710028e+01   5.133016753601e+01 
1 -2.031520110177e+00  -7.518885915250e+01   4.440505349605e+01 
8
Step 24000
1 -2.555039809990e+01  -4.431587131589e+01  -3.253928296092e+01 
1 -4.261269635616e+01  -5.858300038409e+00   4.310317151270e+01 
1  5.357360343257e+01   2.282258163828e+01   4.983338365788e+01 
1  3.847219793377e+00  -3.097884669093e+01  -2.032084926763e+01 
1  2.062210895998e+01  -2.354826307176e+01   2.177428312763e+01 
1 -5.693012600294e+01  -5.082680467655e+01   8.732255544207e+01 
1  5.913275470083e+01  -8.977945327390e+00   3.242169421417e+01 
1 -8.004183894802e+00  -7.278136898492e+01   2.017654488572e+01 
8
Step 25000
1 -2.611712373363e+01  -1.580226253668e+01  -1.195083929511e+01 
1 -5.186482760095e+00  -1.491797409717e+01   5.063491067773e+01 
1  4.380038635699e+01   2.135937394306e+01   3.604682544998e+01 
1  2.853487148775e+00  -3.418638285129e+01   6.417641973410e+00 
1  3.748390938090e+01  -7.043708577606e+00   2.562091638540e+00 
1 -5.790579309356e+01  -2.843874644316e+01   5.397096377168e+01 
1  3.163188465192e+01  -5.851083465958e+01  -1.529078824888e+00 
1 -9.106286605420e+00  -3.143836420342e+01  -2.191285064974e+00 
8
Step 26000
1 -1.603552005702e+01   4.032907611066e+00   1.661903689672e+01 
1  2.494242166218e+01  -1.388098721027e+01   4.508124148343e+01 
1  2.264616493194e+01   7.678030453705e+00   1.343737882542e+01 
1  1.577938227131e+00  -2.333154936091e+01   2.635614683022e+01 
1  3.825127225750e+01   1.318397896265e+01  -1.733948321635e+01 
1 -3.205330577541e+01   2.119751415552e+01   5.862241072480e+00 
1  3.105244514814e+00  -8.007340307425e+01  -3.167429101188e+01 
1 -2.431567630233e+00   2.602432772729e+01  -1.503356744134e+01 
8
Step 27000
1  1.809167828658e+00   1.879070735350e+01   4.129981033929e+01 
1  4.058556824758e+01  -8.469826962756e+00   2.883127021814e+01 
1  2.168952417581e-02  -1.553388946717e+01  -7.301371035997e+00 
1  1.642754256004e-01   3.213938831207e-01   3.709711485259e+01 
1  2.631035168701e+01   2.794567147724e+01  -2.840650385173e+01 
1  1.646273858734e+01   6.425247265099e+01  -2.955389161626e+01 
1 -1.458894099711e+01  -7.579876576140e+01  -4.491504491214e+01 
1  1.183744454100e+01   4.982637443138e+01  -1.830269897208e+01 
8
Step 28000
1  2.074666745975e+01   2.568164830364e+01   5.158339715030e+01 
1  4.311355219212e+01  -2.541651230742e+00   5.590217482506e+00 
1 -1.674669347950e+01  -3.771335467674e+01  -1.886670581486e+01 
1 -1.320505850837e+00   2.761051369849e+01   3.743849461687e+01 
1  8.076105682979e+00   2.920790748989e+01  -2.681643081784e+01 
1  5.334705263425e+01   7.411693543968e+01  -4.605240560297e+01 
1 -2.031160074206e+01  -5.204262217427e+01  -4.090164790676e+01 
1  2.927881268096e+01   4.442313225568e+01  -1.621094300966e+01 
8
Step 29000
1  3.295099915311e+01   2.219781681413e+01   4.408304087324e+01 
1  3.496542892216e+01   1.508700798899e+00  -1.774279867889e+01 
1 -2.534090233539e+01  -4.715425972969e+01  -1.963502225301e+01 
1 -2.809821863229e+00   4.529089210125e+01   2.700912347253e+01 
1 -8.663898949305e+00   1.150250794674e+01  -1.369058798863e+01 
1  6.337666488900e+01   5.966328286599e+01  -4.572451666586e+01 
1 -1.798667751872e+01  -2.046578610248e+01  -2.413708300928e+01 
1  4.200548801039e+01   2.300589957861e+01  -1.284175513795e+01 
8
Step 30000
1  3.365606620887e+01   9.509976214664e+00   2.086661624633e+01 
1  1.900922931102e+01   3.460228256702e+00  -3.367056141599e+01 
1 -2.662062896036e+01  -3.746690935063e+01  -1.068307670956e+01 
1 -4.219600430503e+00   4.529071189754e+01   7.399573857213e+00 
1 -1.831884415799e+01  -2.251399419473e+01   5.195469538481e+00 
1  5.267531356476e+01   3.479373824094e+01  -3.206358902691e+01 
1 -1.204159810040e+01   4.852222711116e+00  -2.149425444362e+00 
1  4.130544928102e+01  -2.187840203953e+00  -1.000091979275e+01 
8
Step 31000
1  2.227182482863e+01  -6.682213167099e+00  -8.388479790771e+00 
1 -4.166394134337e-01   5.109134916114e+00  -3.750279500113e+01 
1 -2.240095016885e+01  -8.708078602730e+00   6.272019471990e+00 
1 -5.498113176274e+00   2.573980793030e+01  -1.598771021187e+01 
1 -2.067687226615e+01  -5.246258254033e+01   2.120092065505e+01 
1  2.990997373395e+01   1.095268380927e+01  -1.185695623951e+01 
1 -6.127877240652e+00   1.841322238752e+01   1.616742216654e+01 
1  1.810886992019e+01  -1.943389872829e+01  -6.601375934030e+00 
8
Step 32000
1  2.898294681267e+00  -1.832508132996e+01  -2.975983045272e+01 
1 -1.795076595056e+01   8.856722662936e+00  -2.756594027039e+01 
1 -1.416090358702e+01   2.638873123138e+01   2.701926189447e+01 
1 -6.669657082857e+00  -8.946258601201e+00  -3.500215719216e+01 
1 -1.877893449387e+01  -5.879945321471e+01   2.769863820990e+01 
1  5.502306823985e+00  -6.173293493981e+00   6.390392923321e+00 
1 -2.177815700934e+00   2.264504271945e+01   2.530514311509e+01 
1 -2.762376114384e+01  -2.227489955833e+01   1.277209216359e+00 
8
Step 33000
1 -1.542831806921e+01  -1.924037293833e+01  -3.658847939736e+01 
1 -2.918352320514e+01   1.606208328341e+01  -5.736897519148e+00 
1 -2.566564034254e+00   4.666689350520e+01   4.303698875965e+01 
1 -7.780651328429e+00  -4.127185658781e+01  -4.324138082898e+01 
1 -1.530779307291e+01  -3.719951830760e+01   2.276844866561e+01 
1 -1.251800689900e+01  -1.598821812945e+01   1.715435660645e+01 
1 -3.368377334662e-01   2.188243758005e+01   2.453980769110e+01 
1 -6.516036123463e+01  -9.389037727401e+00   1.745497738218e+01 
8
Step 34000
1 -2.436046056130e+01  -7.315336602166e+00  -3.032597471059e+01 
1 -3.181527648007e+01   2.571971853904e+01   2.009355276049e+01 
1  1.194332445002e+01   4.381632644257e+01   4.504620191288e+01 
1 -8.768762139491e+00  -5.297768778547e+01  -3.792868352919e+01 
1 -1.164612997120e+01   1.642849108312e+00   8.730068001874e+00 
1 -2.202602843806e+01  -2.120005146700e+01   1.979569442691e+01 
1  2.153962199914e-01   1.890556002754e+01   1.656798528902e+01 
1 -7.337293552234e+01   1.425845680010e+01   3.911160530788e+01 
8
Step 35000
1 -2.214042475289e+01   1.499395379676e+01  -1.515557349029e+01 
1 -2.505323575629e+01   3.339386636993e+01   3.793802984757e+01 
1  2.761770520194e+01   2.434769542543e+01   2.761975524297e+01 
1 -9.380304058990e+00  -4.112305107716e+01  -1.837450216754e+01 
1 -8.175393057312e+00   3.110379171959e+01  -8.999426611029e+00 
1 -2.470669669030e+01  -2.593034685175e+01   1.628036433041e+01 
1  2.866192324219e-01   1.419496499537e+01   7.053261202412e+00 
1 -5.666728721520e+01   3.613380428121e+01   5.598461644294e+01 
8
Step 36000
1 -1.341609104345e+01   3.966788318039e+01   4.729613431254e+00 
1 -8.581013798871e+00   3.195237777043e+01   3.989970856332e+01 
1  4.052340603241e+01   4.101113960460e+00  -4.827509501131e+00 
1 -9.075670049659e+00  -1.446322041882e+01   1.275308566571e+01 
1 -4.468315803300e+00   3.763272933970e+01  -2.397442088835e+01 
1 -2.259476966333e+01  -3.230825186214e+01   8.451195443189e+00 
1  4.644513549961e-03   6.851779896249e+00   1.133321815550e+00 
1 -2.764849140004e+01   4.391308095330e+01   5.766100426563e+01 
8
Step 37000
1 -5.021750915364e+00   5.482845746389e+01   2.538512452271e+01 
1  1.692748773454e+01   1.617472118135e+01   2.698681572473e+01 
1  4.553794213461e+01  -3.954178576089e+00  -3.428849062416e+01 
1 -6.527457441318e+00   9.515660179359e+00   4.351846461918e+01 
1  4.216174823440e-01   2.870828488470e+01  -3.039180637325e+01 
1 -1.658644506693e+01  -3.872126816972e+01  -3.166500918611e+00 
1 -1.222171452828e+00  -5.238695519082e+00  -1.869667637432e+00 
1 -1.907442466726e+00   3.276644552810e+01   3.749005790674e+01 
8
Step 38000
1 -1.562209227382e+00   4.791627231252e+01   4.181600644018e+01 
1  4.608497859541e+01  -1.038213366858e+01   8.137308829864e+00 
1  3.851878224732e+01   3.760654122219e-01  -4.588014458669e+01 
1  7.258668743679e-01   1.802880063997e+01   5.884019221191e+01 
1  7.389868408121e+00   1.639406602246e+01  -2.335870743520e+01 
1 -7.208431332844e+00  -4.030844381792e+01  -1.954458510867e+01 
1 -3.840483517320e+00  -2.688889044381e+01  -3.782159808319e+00 
1  1.289095475720e+01   6.762582386659e+00  -1.875513236285e+00 
8
Step 39000
1 -3.695772437538e+00   8.306362862827e+00   4.709894230864e+01 
1  6.783128996963e+01  -3.553813888814e+01  -7.082463926215e+00 
1  1.936133290975e+01   9.975184974995e+00  -3.741003930722e+01 
1  1.335830806638e+01   1.041099026100e+01   5.206064769737e+01 
1  1.671922694729e+01   7.065706016142e+00  -5.049847173723e-01 
1  4.442213709623e+00  -3.060762478267e+01  -4.103496368744e+01 
1 -7.251374864149e+00  -6.087744224868e+01  -4.929153154161e+00 
1  1.891650858968e+01  -1.900263345761e+01  -3.917139135348e+01 
8
Step 40000
1 -8.586426121474e+00  -4.203853558560e+01   3.622786342070e+01 
1  7.220092584932e+01  -4.886527106861e+01  -1.507349631586e+01 
1 -5.546234257869e+00   1.651588023622e+01  -1.513071253916e+01 
1  2.679536165965e+01  -7.010050450061e+00   2.383986984102e+01 
1  2.814065112335e+01   2.340289021784e+00   2.981382738728e+01 
1  1.634637245446e+01  -4.592328996641e+00  -6.310519334622e+01 
1 -9.516634221950e+00  -9.090207884959e+01  -4.574631672473e+00 
1  2.151950848510e+01  -3.108651316391e+01  -5.737345350625e+01 
8
Step 41000
1 -1.157186180863e+01  -6.525897534573e+01   1.321717401562e+01 
1  5.234294366444e+01  -4.675886757266e+01  -1.589264366140e+01 
1 -2.632036210392e+01   1.423021185795e+01   7.160146686906e+00 
1  3.352290074948e+01  -2.427981420840e+01  -1.312600943934e+01 
1  4.125668294161e+01   1.551550699445e+00   4.872843615648e+01 
1  2.583938004773e+01   3.170214948549e+01  -7.728745909590e+01 
1 -7.643003660184e+00  -9.618749678148e+01  -1.509571060286e+00 
1  2.441016560330e+01  -3.032221870110e+01  -5.745078778962e+01 
8
Step 42000
1 -8.301072302205e+00  -5.993017476476e+01  -9.372643059348e+00 
1  8.585678186480e+00  -3.023662406913e+01  -1.081114104992e+01 
1 -3.628983171447e+01   1.890419182511e+00   1.574483857681e+01 
1  2.724831715704e+01  -3.233299115926e+01  -3.679613704933e+01 
1  5.216725465075e+01   1.499147519363e+00   4.455330422285e+01 
1  3.032210070951e+01   5.908127074908e+01  -7.588184153866e+01 
1  1.113911624821e+00  -7.006382250818e+01   5.018064376771e+00 
1  2.757021431025e+01  -2.028477694643e+01  -4.353231004075e+01 
8
Step 43000
1  3.049745898487e+00  -3.569799798102e+01  -2.150572737135e+01 
1 -3.386345670915e+01  -4.969352501361e+00  -1.957409985039e+00 
1 -3.385739439085e+01  -1.638542966659e+01   6.020519477049e+00 
1  5.665111819309e+00  -2.647111549137e+01  -3.892610961088e+01 
1  4.812851156571e+01  -2.325977083605e+00   1.810952763547e+01 
1  2.781645765907e+01   6.559462976947e+01  -5.347799677171e+01 
1  1.674601686549e+01  -2.487667477776e+01   1.401840517878e+01 
1  2.704028332888e+01  -3.231094057350e+00  -1.978436530402e+01 
8
Step 44000
1  1.937198749351e+01  -6.449660244889e+00  -2.138167957785e+01 
1 -5.362349599457e+01   1.893752623053e+01   8.113126292261e+00 
1 -2.085637412290e+01  -3.218650756347e+01  -1.805777438614e+01 
1 -2.475292150666e+01  -7.411768995919e+00  -2.533068288537e+01 
1  1.858428967694e+01  -1.268341113368e+01  -1.484210468291e+01 
1  1.735439419938e+01   4.991177045223e+01  -1.341713253553e+01 
1  3.416964510127e+01   1.030606939267e+01   2.114887849671e+01 
1  1.619013863371e+01   1.611586602959e+01   6.488413975812e+00 
8
Step 45000
1  3.310591013194e+01   1.486430950294e+01  -1.225015303753e+01 
1 -5.524393151856e+01   3.342930519902e+01   1.695420533675e+01 
1 -1.945253000362e+00  -3.740947451332e+01  -4.396333071963e+01 
1 -4.894061107194e+01   1.727344717312e+01  -6.914065266234e+00 
1 -2.427832262933e+01  -2.776843446898e+01  -3.297694945443e+01 
1  3.301179880740e-01   1.853954616290e+01   2.370223800180e+01 
1  4.453571958141e+01   2.774403392999e+01   1.840825858613e+01 
1 -1.288994134852e+01   3.066799743234e+01   2.727789927370e+01 
8
Step 46000
1  3.733189091845e+01   2.401346827345e+01   6.196106709809e-01 
1 -4.509020020733e+01   3.726261751421e+01   2.226203064102e+01 
1  1.630786123291e+01  -2.946832855275e+01  -5.456494840437e+01 
1 -5.585552004603e+01   3.622642832998e+01   6.498580371625e+00 
1 -5.125746989556e+01  -4.010323937695e+01  -2.845337190289e+01 
1 -1.798032856811e+01  -1.235796092594e+01   4.273010305979e+01 
1  4.009650461610e+01   3.514466941635e+01  -2.953405536979e+00 
1 -5.914233877537e+01   3.398168158404e+01   3.864265962257e+01 
8
Step 47000
1  2.960713334107e+01   2.294090335650e+01   1.134408449915e+01 
1 -2.598486642321e+01   3.387583517980e+01   2.149382725204e+01 
1  2.854978470764e+01  -1.379362923699e+01  -3.606889416721e+01 
1 -4.271145664930e+01   4.216661691344e+01   1.081821550322e+01 
1 -5.185070585162e+01  -3.844572325773e+01  -5.757354086031e+00 
1 -3.112562717290e+01  -2.984250279418e+01   4.563299496855e+01 
1  1.825344253449e+01   3.834709001798e+01  -4.135327451925e+01 
1 -9.349874508291e+01   2.178432230472e+01   4.002447929955e+01 
8
Step 48000
1  1.257496088640e+01   1.586931055729e+01   1.511880046277e+01 
1 -1.345838586827e+00   2.738587628606e+01   1.016457598777e+01 
1  3.276145029132e+01   1.413378236984e+00   1.272095032436e+01 
1 -1.226523342703e+01   3.423112860838e+01   6.377480398531e+00 
1 -3.099469905811e+01  -1.217074210199e+01   2.024096734267e+01 
1 -3.596474203035e+01  -3.217435043122e+01   3.825055438582e+01 
1 -1.310695266553e+01   3.889542167449e+01  -7.287382850594e+01 
1 -9.398810142643e+01  -5.561719663661e+00   3.230318405090e+01 
8
Step 49000
1 -6.845273538128e+00   7.623200272890e+00   9.738506186763e+00 
1  2.270374541257e+01   1.976814039573e+01  -2.424002212383e+01 
1  2.858571926341e+01   1.200842196366e+01   5.401187879089e+01 
1  2.366881426517e+01   1.679051995597e+01  -4.275849770825e+00 
1 -1.745011519566e+00   3.362586262327e+01   3.195005088458e+01 
1 -3.281241301931e+01  -2.358159243732e+01   2.581758541299e+01 
1 -3.753730449949e+01   3.492586462284e+01  -7.846143132342e+01 
1 -6.349585138855e+01  -3.683893446215e+01   1.772617301494e+01 
8
Step 50000
1 -2.158199969121e+01   2.174304302467e+00  -2.528921771466e+00 
1  3.964300937427e+01   1.099249568197e+01  -7.992727314558e+01 
1  1.435154246992e+01   1.667015307120e+01   6.281518790996e+01 
1  4.575928431635e+01  -1.654871463742e+00  -1.680118183496e+01 
1  2.030561883991e+01   6.696289852168e+01   2.454023561294e+01 
1 -2.392769055286e+01  -1.062190859141e+01   1.233755811504e+01 
1 -4.551335777589e+01   2.288152366379e+01  -5.570895759609e+01 
1 -2.590776140690e+01  -5.506323154555e+01   9.623270326470e-02 
8
Step 51000
1 -2.912356005387e+01   1.168454667944e+00  -1.363417845194e+01 
1  4.475481467104e+01  -5.159315135529e-01  -1.090810141134e+02 
1 -8.681124095385e+00   1.463624192620e+01   4.598595829340e+01 
1  4.832924277860e+01  -1.385886642625e+01  -2.576265202875e+01 
1  2.947302051996e+01   7.171687898505e+01   6.819660717335e+00 
1 -1.236989807370e+01   1.027056184688e+00  -3.687973147476e-01 
1 -3.696663256747e+01   6.235499147316e-01  -1.564321140739e+01 
1 -4.268550907360e+00  -5.242495076788e+01  -1.637262142838e+01 
8
Step 52000
1 -3.053115070722e+01   3.445479253813e+00  -1.493309332125e+01 
1  3.503653250508e+01  -1.711644144397e+01  -9.781701883255e+01 
1 -3.033771750714e+01   6.071995746106e+00   1.728657831926e+01 
1  3.842094117738e+01  -1.837366350975e+01  -2.635423192346e+01 
1  2.769215475574e+01   5.261635440133e+01  -9.905617286665e+00 
1 -7.491522355976e-01   8.658632873342e+00  -1.249600902019e+01 
1 -1.666667738310e+01  -2.778254548941e+01   1.914216421533e+01 
1  5.506922958810e+00  -3.089686037139e+01  -2.867317261532e+01 
8
Step 53000
1 -2.737455181493e+01   6.130290683706e+00  -4.353466833918e+00 
1  1.133485563695e+01  -3.693548890615e+01  -5.627275817844e+01 
1 -4.208779695653e+01  -6.855525396630e+00  -7.323206966072e+00 
1  2.349139999035e+01  -1.646020902305e+01  -1.622433464101e+01 
1  1.839176495185e+01   2.115699759513e+01  -1.977217294809e+01 
1  9.614013639052e+00   1.197901823615e+01  -2.445524353256e+01 
1  6.198309971375e+00  -5.144790110224e+01   3.785363161456e+01 
1  8.904795239120e+00  -1.337885926416e+00  -3.516576809509e+01 
8
Step 54000
1 -2.110987572506e+01   6.232197517878e+00   1.251079765694e+01 
1 -1.774566452984e+01  -5.272199338828e+01  -1.251394880364e+01 
1 -4.171488286271e+01  -1.965850637372e+01  -1.941073308608e+01 
1  8.514907074532e+00  -8.799360596721e+00   2.758754124441e+00 
1  5.081645431917e+00  -7.409745020040e+00  -2.072114162179e+01 
1  1.879477526912e+01   1.129530175095e+01  -3.513906823381e+01 
1  2.231874910555e+01  -6.085923372435e+01   4.155101121337e+01 
1  8.206187565326e+00   2.140387450858e+01  -3.428285876456e+01 
8
Step 55000
1 -1.274820893521e+01   1.664352301173e+00   2.589496379282e+01 
1 -3.957986128914e+01  -5.598393218072e+01   1.456116807232e+01 
1 -2.974437711019e+01  -2.652776265629e+01  -1.902706205689e+01 
1 -4.042271594508e+00   4.488974920877e+00   2.345260294550e+01 
1 -9.435613634443e+00  -2.438697476227e+01  -1.279836672054e+01 
1  2.762294428627e+01   5.999845102366e+00  -4.161040550843e+01 
1  2.743461067695e+01  -5.205220407581e+01   3.307896050451e+01 
1  5.904454712647e+00   3.152437313909e+01  -2.160373859084e+01 
8
Step 56000
1 -2.097708195769e+00  -8.042097809483e+00   2.783304591959e+01 
1 -4.613492391188e+01  -4.002741502126e+01   2.634135579006e+01 