8
Step 0
1 1 -5.146983603824e+02   1.434692463961e+02   2.272585503517e+02 
2 1 -6.268573224989e+01   2.545643563522e+02  -3.785437431381e+02 
3 1 -1.847062021339e+01   1.986147104538e+02  -1.553454428606e+02 
4 1  1.310098613687e+02   4.728752768686e+02   6.196589026359e+02 
5 1 -9.578247776891e+01   5.598454624399e+02   1.557104222487e+02 
6 1 -2.592674952319e+02  -3.716990633033e+02  -2.397761882235e+02 
7 1 -3.685740970401e+02  -2.079503254006e+02   4.084754334187e+02 
8 1 -2.312460964129e+02  -7.397459190730e+02  -1.725994513245e+01 
8
Step 1000
1 1 -1.879460300837e+01  -1.535787390933e+02  -5.558558128721e+00 
2 1  1.077853610371e+02   4.657305983056e+01  -6.338726188057e+00 
3 1  1.344007080165e+01  -1.483179294311e+02   6.632237693198e+02 
4 1  1.529543710841e+02   3.168676170047e+02   1.884931838173e+00 
5 1 -2.311615965249e+02   1.408876671426e+02  -2.626843655025e+01 
6 1  2.193022059134e+02  -1.503901447843e+02  -4.271000028306e+01 
7 1 -2.011743799720e+02  -3.002738187611e+01  -1.032377759992e+00 
8 1  1.780868592028e+01  -2.973147542894e+02   3.611973656888e+02 
8
Step 2000
1 1 -2.751952678789e+02   3.001430936801e+02  -2.903199705123e+02 
2 1  1.688127429407e+02   2.365826829122e+02   5.395400871321e+01 
3 1  1.336973452051e+02  -2.613124181056e+02   1.354784063891e+02 
4 1  1.661666694332e+02   5.113114785789e+02  -2.831363004719e+02 
5 1  2.650633946999e+02  -3.009794063596e+02   7.658182582802e+01 
6 1 -1.953536712343e+02  -1.762643594267e+02   4.563817252717e+01 
7 1  1.865993002250e+01  -6.221342489350e+01   2.685397907371e+02 
8 1 -2.494595720208e+02  -1.527107714018e+02   3.999467187567e+02 
8
Step 3000
1 1  2.259188343987e+02  -1.625794365906e+02  -6.488806620109e+02 
2 1  9.084407369812e+01  -2.767170884551e+02   9.549033905322e+01 
3 1 -3.378608738239e+02  -2.816942118366e+02   4.710845350316e+01 
4 1 -3.965697426967e+02   2.694632913592e+02   1.005442820662e+02 
5 1 -1.512116311708e+02  -2.049337169080e+02   2.086502028327e+02 
6 1 -4.750633587180e+02  -6.202924487538e+02  -2.599530397810e+02 
7 1  3.007326086254e+02  -1.874940274904e+02   5.315703003105e+02 
8 1 -1.112732174978e+02  -1.597363592291e+02   2.997019712319e+02 
8
Step 4000
1 1  2.575331208529e+02   3.618019782943e+02  -3.632522387334e+02 
2 1  5.767580131836e+01  -3.666081428730e+02   4.565378510914e+01 
3 1  1.797664475043e+02  -2.231204639776e+02  -1.192058181505e+02 
4 1 -6.405770045979e+01  -4.448525540069e+01  -4.402043680832e+01 
5 1 -2.271884845264e+02  -6.200217020330e+01   4.403102007626e+02 
6 1 -1.021514355406e+02  -1.305973175554e+02  -7.674037315904e+00 
7 1  1.453383069411e+02  -6.950709183090e+02   2.442616511569e+02 
8 1 -3.070462719863e+02  -1.379494731733e+02   3.696146463608e+02 
8
Step 5000
1 1 -1.479307234560e+02  -2.465169888606e+01  -9.070065101835e+01 
2 1 -3.964961787220e+02  -2.261372798068e+02  -4.019873901622e+01 
3 1  3.326957427645e+01  -2.550375085185e+01  -3.014197459876e+02 
4 1 -1.235139026149e+02  -6.477435900285e+02   5.421112966337e+01 
5 1 -4.985506170407e+02  -2.308462245719e+02   3.875787423349e+02 
6 1  1.123280361783e+01   8.781492069341e+01   4.600227195035e+02 
7 1 -9.872876685542e+01  -5.379785643873e+01  -9.032788702825e+01 
8 1  3.549656105846e+02   3.507435636703e+01   1.691317389908e+02 
8
Step 6000
1 1 -2.126873260481e+02  -1.797077707517e+02  -3.141985264243e+02 
2 1 -4.060472311361e+02   1.781660855148e+02   8.788346913029e+00 
3 1  3.300114542259e+02  -5.319533482593e+02  -1.749837936949e+02 
4 1 -6.298619295060e+02  -2.282975883719e+02   8.653632086054e+01 
5 1 -4.936802192205e+01   2.720546517599e+02   3.419529169482e+02 
6 1 -1.411255431854e+02   3.142078635263e+02   4.767867734545e+02 
7 1 -4.952044468458e+02  -5.709237252074e+02   8.319951494936e+01 
8 1  1.341785982727e+02   2.770269044007e+02   3.492062334778e+02 
8
Step 7000
1 1  2.265152448801e+02   1.350242908704e+02  -2.771340642424e+02 
2 1 -9.712153906376e+00   5.959350791018e+02  -3.046209274709e+02 
3 1  8.450706147526e+01  -4.171972199150e+02  -1.992844422586e+02 
4 1 -3.190078895939e+02  -1.597531986144e+02   3.378885029381e+02 
5 1 -4.056974188881e+02  -8.777296234745e+01   5.853161030959e+02 
6 1 -4.664548811810e+01   2.876658098979e+02  -3.501258083534e+01 
7 1 -4.698589075864e+02  -1.693884837153e+02  -2.458212247793e+02 
8 1  1.282400372262e+02   2.191771878666e+02  -5.380911276353e+02 
8
Step 8000
1 1 -3.962231321648e+02  -4.683138088767e+02   3.494466448506e+02 
2 1 -4.781308762931e+02   1.911925801121e+02   3.226161218645e+01 
3 1 -1.923888896179e+02  -1.567486885507e+02  -2.572517531673e+02 
4 1  1.668918852109e+02  -2.088740907254e+02   1.430342895272e+02 
5 1 -5.094484155731e+02   1.451877260534e+01   1.663077996993e+02 
6 1  3.815512091732e+02   3.121002743542e+01  -5.293712830026e+02 
7 1 -3.195450025581e+02   1.104750085134e+02   2.552795985504e+02 
8 1  4.327618166905e+02   3.489927832147e+02   1.058873307766e+02 
8
Step 9000
1 1 -5.690108667279e+02  -2.320383674769e+02  -3.351711661475e+01 
2 1 -1.384943033782e+02   2.585455211424e+02  -3.891274919559e+00 
3 1 -2.837318203785e+02   3.792460549873e+02  -2.041217655532e+02 
4 1 -3.854020095884e+02  -1.065896579696e+02   4.599879813360e+01 
5 1 -2.249656853828e+01   4.855259087788e+02  -2.082156986731e+02 
6 1 -3.485772260680e+02   2.049854222604e+02  -9.641872749131e+01 
7 1 -1.945717478484e+02   4.679233061881e+02  -2.026081399977e+02 
8 1  1.465582765910e+02  -6.874369973212e+01  -1.712423864829e+01 
8
Step 10000
1 1 -5.092184661923e+01  -2.568974093213e+02   2.826033559650e+01 
2 1  2.742473388799e+02  -9.604690532224e+01  -7.665707798897e+01 
3 1  3.115649754882e+01   5.795346115801e+02   8.526855013796e+01 
4 1 -4.567455260852e+02   3.487168672859e+01  -1.933570070598e+02 
5 1  9.020314506742e+01   1.711315127365e+02  -5.270021654942e+02 
6 1 -1.601931954200e+01   4.151934642634e+01  -2.302664778633e+01 
7 1  3.769386451050e+02  -1.753134652197e+02  -1.842168026255e+01 
8 1 -2.033308393422e+02  -7.569106564405e+01   8.477104742445e+01 
8
Step 11000
1 1 -6.934984716737e+01  -3.647853194405e+02  -3.638921328789e+02 
2 1 -7.754358308665e+01  -6.675713285046e+00  -2.782364357580e+02 
3 1  1.402125046185e+02   1.952096439586e+02   3.426046718008e+02 
4 1 -3.697964002107e+02   2.894146317034e+02  -1.114626595801e+02 
5 1 -2.523070965654e+02   2.924463859201e+02  -2.666339732571e+02 
6 1  6.847585603147e+02   1.968207297222e+02  -1.723526098917e+02 
7 1  2.778502278933e+02  -4.184438657862e+02  -2.884502647812e+02 
8 1 -1.472538808447e+01  -4.833788321289e+01   2.174038913848e+02 
8
Step 12000
1 1 -9.324708942621e+01   6.312980963377e+01  -2.220218268216e+02 
2 1  1.846236083861e+02  -3.218272868713e+02   1.555210727971e+01 
3 1  1.954581008563e+02   3.422300836232e+02  -1.829860663881e+02 
4 1 -3.525024069648e+02   1.669424654015e+02   1.053732227935e+02 
5 1 -6.491954353493e+01   8.797111924664e+01  -8.716303706323e+01 
6 1  2.077409208668e+02   2.794391686766e+02  -1.408711204513e+02 
7 1 -3.473751264268e+02   2.179576786080e+01  -3.365890793625e+00 
8 1  2.463305747251e+02  -3.110980129651e+01   2.324501303293e+02 
8
Step 13000
1 1 -1.401920750052e+02  -3.087225071419e+02  -2.405881318217e+02 
2 1 -1.726072761301e+02   5.084277644635e+01  -1.147940912239e+02 
3 1  2.227758846137e+01   2.378091865941e+02  -1.317860375379e+02 
4 1 -2.746300728420e+02  -7.278442363026e+01   3.992188442299e+02 
5 1  8.900598981213e+00  -9.644711973456e+01   3.381557140929e+02 
6 1  2.096219329041e+02  -2.784022080753e+02  -3.905259445619e+02 
7 1 -7.804142491996e+01   2.451336099174e+02  -5.304072603986e+01 
8 1  5.239925875800e+02  -3.765604000972e+01  -2.220497994060e+01 
8
Step 14000
1 1  5.927106373091e+02   6.900097190618e+01  -2.840841304113e+02 
2 1  8.399223061850e+01  -4.676191801183e+01  -8.394693209643e+01 
3 1  3.330927114357e+02  -3.629613716781e+01  -1.535605001086e+02 
4 1 -1.816052051356e+02  -4.029109589033e+02  -7.051583245955e+01 
5 1  4.650412349502e+02  -3.467347923534e+02   6.964188801199e+02 
6 1  1.057971342076e+02  -2.167794247620e+02  -1.859271405903e+02 
7 1  3.681375484915e+00   9.235856123209e+01  -1.472079387229e+01 
8 1  3.034500368862e+02  -2.406847443059e+02  -1.265359762681e+02 
8
Step 15000
1 1  2.762739667872e+02   1.975011798710e+02  -1.208672399776e+02 
2 1 -8.654201165287e+02  -4.383491622512e+02  -1.658492178252e+02 
3 1 -2.329207324548e+02  -2.137297794116e+02   3.348820831837e+02 
4 1  2.171297587765e+02   3.338331805490e+01   1.794584028559e+02 
5 1  3.813171692105e+02  -1.657592753153e+02  -1.118531543006e+02 
6 1 -1.838336277783e+02   1.677893534850e+02  -3.259703505010e+02 
7 1  2.722164163405e+02  -1.335105224352e+02  -1.426053505479e+02 
8 1 -5.205620672206e+01  -3.796163176085e+01   7.350884974764e+01 
8
Step 16000
1 1  2.527809684462e+02   3.135924631519e+02   3.116516610242e+01 
2 1 -4.108231999353e+01  -5.378834442413e+02  -5.462300611895e+02 
3 1 -4.375509024521e+02  -2.458317861237e+02   2.847060863743e+01 
4 1 -8.315675509009e+01   3.098831382678e+02   4.743486430189e+01 
5 1 -6.017509352399e+01  -1.039748007889e+02  -4.194482736068e+01 
6 1 -2.162348448701e+02   4.181421054218e+02   7.834666224319e+01 
7 1  3.567506740100e-01   3.169304613836e+02   8.189134621051e+01 
8 1 -6.259998604658e+02   3.290129298984e+02  -2.343414792912e+02 
8
Step 17000
1 1  3.260616037852e+01   1.069713288191e+01   1.152437889702e+02 
2 1  5.346155336598e+01  -3.837831821959e+02   9.894829626901e+00 
3 1 -3.519639202830e+00  -1.544495043570e+02   1.740424313179e+02 
4 1  3.118221463038e+02   4.706280650530e+01  -4.616570918489e+02 
5 1  3.072791314903e+02  -6.863521932492e+01  -1.750979136318e+02 
6 1  8.568038106469e+01  -6.741759682220e+00  -4.979153216022e+00 
7 1  2.172609877498e+02   7.588460163669e+01  -1.944504091062e+02 
8 1 -1.676801701397e+02  -1.526473134847e+02   7.625039558717e+01 
8
Step 18000
1 1 -5.997545914217e+02  -5.620871424786e+02   5.386736153089e+01 
2 1 -1.201733505815e+02  -1.121652439274e+02  -1.150138189059e+02 
3 1  2.552828968905e+02  -5.880421919449e+02   8.151369715688e+01 
4 1 -2.360556768895e+02  -2.287398915781e+02   1.000717234428e+00 
5 1 -5.005125774167e+02  -1.252310244586e+02  -1.158471055566e+02 
6 1  2.068703498333e+02   2.980317948954e+01   1.679224705266e+00 
7 1 -2.269952482423e+02   2.926343582083e+02   1.107464676432e+02 
8 1 -1.368020169771e+02  -2.343802852099e+02   1.166685839289e+02 
8
Step 19000
1 1 -5.498282500153e+02  -2.490860697265e+02   1.736568895611e+02 
2 1  1.325062032648e+02  -1.509000004447e+02  -5.974502332805e+01 
3 1  5.396843494250e+02  -1.130012830398e+02  -1.438849042249e+02 
4 1 -7.604933985764e+01   1.537785986543e+02  -1.375109760471e+02 
5 1 -2.400200597205e+01   5.882387154289e+02  -3.986138367048e+02 
6 1  1.550534497648e+02   7.463909103807e+00   2.191029191420e+02 
7 1  1.705363948795e+01   6.511372480149e+02   7.797044171405e+01 
8 1  3.003543085145e+02  -1.379921177250e+02   1.543217825231e+02 
8
Step 20000
1 1 -4.574456262626e+02  -1.341634718248e+02  -2.582037768688e+02 
2 1 -1.333727094419e+02  -3.109249639876e+01  -1.627977835778e+02 
3 1 -1.300757338367e+02   7.190664641046e+01  -3.942106882270e+01 
4 1 -1.412896495135e+02  -7.248107852867e+02   1.007533884026e+02 
5 1 -1.479794859736e+02   2.099810747798e+01  -3.492439063183e+02 
6 1 -2.080912131510e+02   1.312822625817e+02   2.975133690265e+02 
7 1 -1.444716871088e+02  -7.486849042445e+01   2.933011250231e+02 
8 1  1.006323727927e+02   2.907974461017e+02   1.592278539138e+02 
8
Step 21000
1 1 -6.718029779640e+01  -1.501742286720e+01   9.250185444470e+01 
2 1  2.717114105009e+01  -3.050715763360e+02   2.540694708827e+02 
3 1  4.614638491143e+02   2.051242368291e+01   4.778722976387e+02 
4 1 -1.329079499461e+02   4.201845297457e+01  -1.055043668450e+02 
5 1 -7.866932065835e+01  -2.964041532155e+02   1.226084585472e+01 
6 1  1.010925176453e+02   3.495678892975e+02   1.780398952435e+02 
7 1  2.397890665119e+02  -2.031995933515e+02   6.069893647602e+02 
8 1  2.925518479667e+02  -2.286213000282e+02  -4.650514538352e+01 
8
Step 22000
1 1 -4.373651555556e+02  -2.010337839427e+02  -3.944426753518e+02 
2 1  8.290507476067e+01  -1.386633344286e+02   1.840074682151e+02 
3 1  3.758038122294e+02  -6.548633233929e+02   2.615450536291e+02 
4 1  2.675536067581e+02   1.990836894509e+01  -4.088310170334e+02 
5 1 -5.307864143973e+01  -5.443839938419e+02   5.506693583547e+02 
6 1  9.972988276273e+01   2.368691212574e+02   5.674371286882e+02 
7 1  2.309029228817e+02  -2.871124772600e+02   3.634039659097e+02 
8 1 -4.547291919355e+02  -2.760767542789e+02   5.215407240560e+02 
8
Step 23000
1 1 -2.743898076678e+02  -1.561121396394e+02  -6.289367819139e+02 
2 1  1.983894736357e+02   2.225886560838e+01   2.577395597897e+02 
3 1  1.480277692293e+02  -2.894800303913e+02   1.644973908874e+02 
4 1  9.605174018599e+00  -4.611079141925e+01   7.531640206931e+01 
5 1 -1.250204735614e+02   1.161679432530e+01   5.672729316412e+02 
6 1  1.865920593744e+01   1.406949664636e+02   3.545775304207e+02 
7 1 -1.959494676826e+02  -4.898435535212e+01   2.111690200339e+02 
8 1 -1.166046015830e+02   5.102143348982e+01   3.613362026885e+02 
8
Step 24000
1 1 -5.341119523089e+02  -2.754761605147e+02  -8.417711803804e+01 
2 1 -1.830677263915e+02   2.286890428930e+02  -5.189803638016e+01 
3 1  1.540670424974e+02  -3.098108030794e+02  -4.173425479395e+01 
4 1  4.836501235876e+02  -1.227738200711e+02   2.352988371435e+02 
5 1  3.355635963970e+02  -1.634117533270e+02  -1.298811491409e+02 
6 1  1.914821712081e+02   2.384854205514e+02   2.230983224831e+02 
7 1 -2.789743025684e+02  -1.189998165718e+02   2.778503707922e+02 
8 1  1.099790582960e+02  -2.203785476503e+02  -5.644528633906e+01 
8
Step 25000
1 1 -1.685770093699e+02  -4.438530698365e+02   2.987948393418e+01 
2 1 -6.065162924974e+02   2.839201901540e+02  -9.446416077059e+01 
3 1  1.432109515775e+02   5.129363473908e+01   4.378269714879e+01 
4 1  9.569657246243e+01  -2.629884751174e+02   3.318747519283e+02 
5 1  1.028442093346e+01  -1.727299747897e+01   2.807972756575e+02 
6 1 -4.066459411521e+02   1.270480185031e+02  -1.423494472417e+02 
7 1 -3.235459562548e+02  -4.742959475418e+02   3.348790517220e+02 
8 1 -3.101335437287e+02  -4.266650529215e+02   1.884208970940e+02 
8
Step 26000
1 1  8.043342623230e+01  -1.785808597780e+02   1.324923050351e+02 
2 1 -2.197234910381e+02  -1.346028845590e+02  -4.469183365770e+02 
3 1  4.443412759046e+02   7.192813323936e+02  -3.323862831197e+02 
4 1  2.112627738737e+02   4.981069428058e+02  -5.186568642699e+01 
5 1  4.093013913829e+02   2.772255033568e+02   1.767048012796e+02 
6 1  3.602135627254e+01   1.729490943317e+02  -5.192520640170e+02 
7 1  2.781062135228e+02   1.800148000762e+02  -2.133092551383e+02 
8 1 -3.618155899257e+01   1.162503420665e+01   3.652510739195e+02 
8
Step 27000
1 1  2.958432372550e+01  -8.064155878879e+00   3.284272513055e+01 
2 1 -5.324946474925e+02  -2.171890772262e+02  -4.460345651863e+01 
3 1 -4.233779404207e+02   2.863577417806e+02  -6.417646364156e+02 
4 1  1.718070497924e+02   5.085907934754e+02  -1.154333118931e+02 
5 1 -1.203657803817e+02   2.850931241193e+02   7.614579362306e+01 
6 1 -2.101111730177e+02   3.139871200900e+02  -1.604602804352e+02 
7 1  3.266020011967e+02  -9.790758468605e+01  -2.266285344138e+02 
8 1 -3.554064480093e+02  -4.078694940130e+02   1.861952338123e+01 
8
Step 28000
1 1  5.166689136488e+01   2.351117386320e+01   2.694493442203e+02 
2 1 -2.489329510763e+02   1.786002467469e+02  -2.453421414922e+02 
3 1 -4.595898907309e+02  -7.989121773368e+01  -5.524408794852e+02 
4 1  4.143242889499e+02   2.425581198059e+02  -8.210551736249e+00 
5 1  2.543947372972e+02   4.277856890245e+01   3.187441514990e+01 
6 1 -8.075235888557e+01   1.575282986857e+02  -1.637393729883e+02 
7 1  1.444234685751e+02  -4.916850489937e+02   4.724318607565e+02 
8 1  2.460659437541e+02  -4.131042891826e+01  -1.950753811169e+02 
8
Step 29000
1 1 -2.713727811792e+02   1.248355732177e+01   6.678435761864e+02 
2 1 -5.591295074480e+02  -2.628313054177e+02  -3.367844074974e+02 
3 1 -4.235991657651e+02   2.239372990475e+02  -2.223336033937e+02 
4 1 -1.886523726947e+02  -1.081615725995e+02  -4.955317227846e+02 
5 1  2.846041531693e+02   2.211624425129e+02  -2.741163152569e+02 
6 1 -2.141477191526e+02  -2.215361002886e+01  -4.396585555364e+02 
7 1  2.135928987586e+02  -6.228658533393e+02   3.367601555788e+02 
8 1  6.049590821079e+02   5.634806898943e+01  -1.941876828748e+01 
8
Step 30000
1 1 -2.975026939244e+02  -1.123556511781e+01   1.947260322800e+02 
2 1  7.356691121249e+01  -9.031458926665e+01  -2.082749320058e+02 
3 1 -4.581227989571e+02   6.097078144435e+01   2.426562157762e+02 
4 1  1.910478811847e+02  -3.544230814122e+02  -2.213849358474e+02 
5 1  5.780322155577e+02   2.872676558306e+02  -8.768401332758e+02 
6 1 -9.154600991486e+01   3.355066506136e+02  -1.975150866802e+02 
7 1  4.443808493452e+02  -2.510013794985e+02   1.734777342371e+02 
8 1  6.975475337062e+02  -3.670189104249e+02   4.382353124289e+01 
8
Step 31000
1 1  1.532233120605e+02  -9.277996001643e+01   4.871449526392e+01 
2 1 -6.132954991421e+01   1.052987750238e+02  -1.150708884430e+02 
3 1 -1.477599943516e+02  -2.139111660046e+02   2.845762436011e+02 
4 1  1.267469760328e+02  -9.361049513540e+01  -2.264760359367e+02 
5 1 -3.181029558721e+01   1.198231712694e+02  -6.527037351468e+01 
6 1  6.846821879055e+01   3.505878064301e+02  -6.081186912255e+02 
7 1  8.673418294980e+01   1.946940778815e+02  -3.591192631806e+01 
8 1  1.234199246848e+02   2.842127056711e+01   4.175017019924e+01 
8
Step 32000
1 1  3.472244078436e+02  -2.879187102520e+02   2.310588653940e+02 
2 1 -2.879165278395e+02   2.353575573751e+01  -3.118345728723e+01 
3 1  2.182431583213e+02  -3.930613835662e+02   2.644295730066e+02 
4 1  3.182675655932e+02  -3.409961417349e+02  -3.755028775758e+02 
5 1  2.655478824868e+02   1.916426560586e+02  -2.361772936711e+02 
6 1  5.316871659557e+01   4.341691282226e+01  -4.700398591287e+02 
7 1 -7.473108443733e+01   2.588588097686e+01   3.671495692165e+02 
8 1 -7.409994046604e+02  -2.408061939690e+01   6.532346816719e+02 
8
Step 33000
1 1  5.223229698631e+01  -4.415811270781e+02  -3.992698228654e+02 
2 1 -2.417769016367e+02   2.676417674633e+02   2.881256280995e+02 
3 1  6.398952082653e+02   1.221185352058e+02   5.966208999110e+02 
4 1  2.180686377870e+02   2.374829813100e+02  -4.454915530254e+02 
5 1  2.232141711095e+02  -1.565991783936e+02  -2.187181729885e+02 
6 1  2.451356636342e+02   1.956400547970e+01  -2.148234781730e+02 
7 1  1.492863371397e+02  -2.361303400451e+02  -3.329111422929e+01 
8 1 -1.376243586860e+02   2.298561217217e+02   3.144577849211e+02 
8
Step 34000
1 1  2.720942606408e+02  -3.104127763012e+02  -3.541442221260e+02 
2 1 -8.748349038301e+01  -8.674948149238e+01   6.734472620403e+01 
3 1  3.368278387600e+02   1.153349096765e+02   4.858501409083e+01 
4 1  2.900877991122e+02   7.865810554090e+01  -2.425576045520e+02 
5 1  9.493784520570e+01  -3.163083428832e+02   3.695168323399e+02 
6 1  1.563573343049e+02   2.103705516330e+02  -6.735208522040e+01 
7 1 -3.839533753960e+02   2.467616931045e+02  -9.379493811340e+01 
8 1 -1.502574205835e+02   1.148379953587e+02   1.750778164402e+02 
8
Step 35000
1 1 -4.292244924738e+01  -3.346281047470e+02  -3.897117633394e+02 
2 1  1.218172903347e+02  -3.710378849213e+02  -3.592181835919e+01 
3 1  7.318151692247e+01  -6.021667217858e+01   2.751358050130e+02 
4 1  5.038073669362e+02   6.926903242496e+01   1.195971002222e+02 
5 1  2.316939614173e+01  -2.386887527530e+02   3.955853266330e+02 
6 1  7.412882336427e+01  -9.484141673799e+00   9.245549294611e+00 
7 1 -1.299083116079e+02   3.704056389273e+01   3.238757426648e+01 
8 1  2.621099584186e+02   2.768913620524e+02   5.382825252771e+02 
8
Step 36000
1 1  3.112250338627e+02   5.966559561027e+01   1.720906853609e+02 
2 1  8.690857837268e+02   4.525221647521e+01   2.470886654488e+02 
3 1 -3.656068180567e+02   2.146357930274e+01   6.560550667151e+02 
4 1  2.883818047588e+02  -2.038500823876e+02  -4.626475795815e+02 
5 1  2.378664535631e+02  -4.194540232537e+02   5.121875813482e+01 
6 1 -1.120620786447e+02  -2.728374578854e+01  -3.240145621946e+02 
7 1 -2.466062238166e+02   5.260710038809e+02  -1.823955408420e+02 
8 1 -1.333473686345e+02   2.622342618988e+02   5.345668988049e+02 
8
Step 37000
1 1 -1.077452716574e+02  -6.297789589455e+02   2.928517031237e+02 
2 1  5.413738509951e+02   6.686238544327e+01   1.201563481755e+02 
3 1  7.157893808191e+01   6.422729528860e+02   2.171450131800e+02 
4 1 -9.818363126442e+01  -2.845105016812e+02  -3.788204706388e+02 
5 1  1.039050627424e+02   4.701969144344e+01   4.064424183883e+02 
6 1 -1.917768948811e+00  -5.401298042626e+01  -1.851435324363e+01 
7 1 -3.427456481124e+01   1.815947006875e+01  -2.418730898740e+01 
8 1  6.602648185238e+01   4.113617822217e+02  -8.975755982601e+01 
8
Step 38000
1 1  4.715726744698e+02  -2.531138003638e+02  -6.198911456911e+01 
2 1  3.075626069432e+02   4.047944291098e+02  -1.789390992754e+02 
3 1  1.468473949639e+02   2.080540496060e+02  -1.215295128918e+01 
4 1 -5.954684339224e+02   1.140764014098e+02  -4.750670837890e+02 
5 1 -1.361812064148e+02  -5.837472100556e+01  -3.853833841193e+01 
6 1 -1.339081580625e+02   3.180784158852e+02   1.695932211267e+02 
7 1 -6.692367912737e+02  -1.919667578061e+02   2.848714433849e+02 
8 1 -2.144342809486e+02   4.424958525820e+02   4.448037161146e+02 
8
Step 39000
1 1  2.196075626536e+02  -3.128958195663e+02   2.643128574790e+02 
2 1  3.160377026908e+01   2.366761238888e+02   1.775696460850e+02 
3 1  9.895322142281e+01  -3.178298614323e+02   3.240230764097e+02 
4 1 -3.085320480768e+02   8.217091362939e+01  -1.808198486483e+01 
5 1  9.643630935094e+01   7.586224524240e+01   4.281004525886e+02 
6 1 -1.243655142130e+02   4.560318195290e+01   3.509922935811e+02 
7 1 -2.406365913125e+02  -4.036080296471e+02  -2.045100845330e+02 
8 1  7.546697412467e+01   3.044045316748e+01   3.635915056840e+02 
8
Step 40000
1 1 -6.432288961277e+01  -2.228009644432e+02   3.558984904559e+01 
2 1 -9.121074223444e+01   4.179224398645e+02  -1.186238274573e+02 
3 1 -4.176981261183e+02  -5.387202514939e+01  -2.473618393770e+02 
4 1 -1.396791619565e+02   1.478812739219e+01  -4.667636803674e+01 
5 1  2.318540366515e+02   4.885272918211e+02   1.631115675951e+02 
6 1 -5.339083768854e+01  -2.176245396572e+02   1.506682035706e+02 
7 1 -2.114974347799e+02  -1.722780718281e+02   1.049757503370e+02 
8 1 -3.508459635925e+02  -4.041010018860e+02   2.658105446938e+02 
8
Step 41000
1 1 -7.529073483509e+01  -1.527378147593e+02   3.386024505992e+02 
2 1  2.533857670443e+01  -2.652136333298e+02  -7.099330020953e+01 
3 1 -2.601218001513e+02  -5.300368109532e+01  -1.958063442114e+02 
4 1 -1.413042329116e+02   9.421623556405e+01   3.460067659350e+02 
5 1  3.509019217174e+02   7.331145822884e+02   1.157999467962e+02 
6 1 -2.675080804175e+02  -2.808454608550e+01  -3.917226063993e+02 
7 1 -4.215787116632e+02  -3.665674223028e+02  -1.416653906492e+02 
8 1 -1.398449065933e+02  -2.361438265778e+02   1.334261537436e+02 
8
Step 42000
1 1 -2.580556271171e+02   3.226754140127e+02   1.401810262525e+01 
2 1  2.487647043070e+02   1.794378010475e+02   6.830547743249e+01 
3 1 -6.095132089215e+01   4.385219786722e+02   2.723190353001e+02 
4 1 -4.758949208923e+02   6.455861882375e+01  -9.968039486423e+01 
5 1  4.440041537852e+02  -2.242508724228e+02   2.415561510008e+02 
6 1  9.278393290309e+01   3.062671360646e+02   8.561061165646e+01 
7 1 -4.200954478557e+02  -1.720957604899e+02   2.287026962079e+02 
8 1  3.791298216140e+02  -2.654066640780e+02   4.302938260654e+02 
8
Step 43000
1 1 -3.765867437473e+02  -8.148020138666e+01  -3.359094004779e+01 
2 1  3.713663770541e+02   1.205802555825e+02   7.335231986987e+00 
3 1  1.614915369396e+02  -5.318875286430e+02  -2.471484125716e+02 
4 1 -2.574470510898e+02  -4.181816524258e+02  -1.346023532880e+02 
5 1  6.119842900414e+01   6.723340039743e+02  -9.560440412611e+00 
6 1 -1.203260930595e+02  -1.111743402194e+02  -9.421025047614e+01 
7 1 -3.762509981263e+01  -2.994511349048e+01   4.069378891229e+02 
8 1  1.586566017647e+02   1.272707610691e+02   3.921917635525e+02 
8
Step 44000
1 1  1.821799238534e+02  -1.433791139052e+01   8.027061057874e+01 
2 1  4.915515076929e+02   3.745622473954e+02  -6.933008623822e+01 
3 1 -2.472286895158e+02  -3.190784905365e+02  -2.249158040360e+02 
4 1 -2.384187012862e+01   1.669186034138e+02   1.922885590755e+02 
5 1  5.172709576745e+02   1.227866959521e+02  -2.039264121682e+02 
6 1 -3.378889368242e+00  -3.321041807250e+02  -2.365292122658e+02 
7 1  3.721738656851e+02   5.640292826237e+02  -6.068113756201e+02 
8 1 -3.734144620309e+02   1.799687986968e+02   3.489281678989e+02 
8
Step 45000
1 1  2.158917018432e+01   2.168891213348e+02   3.699427804375e+01 
2 1  4.101765733766e+02  -4.588981972541e+01   1.724243708973e+02 
3 1  8.450471688249e+00  -4.576532892311e+02   4.641721902874e+01 
4 1  1.208592534937e+02  -3.400827931441e+02  -4.271234838063e+01 
5 1  3.752131787514e+02  -2.001743766627e+02  -1.467104241631e+02 
6 1 -2.205096826691e+02  -3.609830044415e+01   2.702890680664e+01 
7 1  1.128578848698e+02   4.022958633500e+01  -3.295772040660e+02 
8 1 -3.168985552280e+02  -1.409179514926e+02  -1.681976073601e+02 
8
Step 46000
1 1  3.228604956389e+02   1.877659463861e+02  -3.276787183842e+02 
2 1  4.967899014738e+02  -1.234751527409e+02   6.027059041370e+02 
3 1 -1.826803147497e+02   1.648685750296e+01   2.112049895615e+02 
4 1  2.358124862501e+02  -2.005230757852e+02  -2.342334162454e+02 
5 1  1.586849879276e+02  -2.298977790594e+02   2.402028678195e+02 
6 1 -6.134243243681e+02  -8.019299469313e+01  -2.225490919127e+02 
7 1 -2.300200196412e+02   1.841851279337e+02  -2.226502484132e+02 
8 1  1.430824534323e+02   1.695673591257e+02  -2.309834838703e+02 
8
Step 47000
1 1  1.272408262226e+02   4.693556801223e+02  -1.919531921368e+02 
2 1  1.360787237104e+02  -3.361376186757e+02   2.081758602791e+02 
3 1 -4.599090447097e+01   5.121464466995e+02   3.456170483601e+02 
4 1  2.202782238121e+02   1.452209283274e+02  -3.272492918966e+02 
5 1  1.636673771325e+02  -1.141683266847e+02   4.324634910448e+02 
6 1 -3.940964546839e+02  -4.924767333914e+02   2.118099227903e+01 
7 1 -8.874771143315e+02  -1.300341196067e+02   2.152385681305e+02 
8 1  3.480712928404e+02   8.154271376638e+00   3.449945314360e+01 
8
Step 48000
1 1 -1.191290953420e+02   1.232349436869e+02  -2.246141505922e+02 
2 1 -9.691275476680e+01   1.054265100998e+01  -7.063390746230e+01 
3 1  1.793606924570e+01   4.660080946061e+02   1.917329333059e+02 
4 1  1.700529405752e+02   1.426195288137e+02   9.755481241356e+01 
5 1  3.298607508935e+02   2.426267953170e+02  -1.593330530126e+02 
6 1 -2.963059483026e+02  -4.410618332008e+02  -1.459665815007e+02 
7 1 -3.545433544034e+02  -1.539151199476e+02  -1.171311848988e+02 
8 1  2.510016263752e+02   2.105683012639e+02  -6.120319252677e+02 
8
Step 49000
1 1  9.732926003838e+01   3.907469151643e+02  -9.310886396117e+01 
2 1  1.255489531071e+02   1.794975470498e+02  -6.064407764311e+02 
3 1 -1.734279922179e+02   2.182465334300e+02   3.829812135272e+02 
4 1 -1.547337548064e+02   1.375086203733e+02   3.219139995587e+02 
5 1  1.418932111005e+02   5.002743240370e+01  -1.346298240199e+02 
6 1 -1.475630074200e+02  -2.055186815049e+02  -9.273248589020e+01 
7 1 -3.930818035701e+02  -7.305365825451e+00  -4.688638738087e+02 
8 1 -6.137045464845e+01   3.853461727919e+02  -3.395057819149e+01 
8
Step 50000
1 1 -5.795715443241e+01   3.121118542572e+02   2.943728219902e+01 
2 1 -7.415471035753e+01  -2.307528007371e+02  -2.584747496452e+02 
3 1 -2.169939309247e+02  -3.221421637336e+01   4.709741808136e+02 
4 1  7.119565090207e+00  -1.299556793596e+02   5.978769125829e+01 
5 1  2.517684345222e+02  -3.011447297074e+02   4.782952229218e+02 
6 1  2.322921707193e+01  -8.112517329575e+01  -4.472004139369e+01 
7 1 -1.027730481202e+02   2.923313826260e+02  -7.103159938293e+02 
8 1 -4.352680854891e+00   1.243358833158e+02   6.929180238979e+01 
8
Step 51000
1 1 -2.433779898383e+02  -1.681015607312e+02  -1.552209769629e+02 
2 1 -2.157092441056e+02  -6.943101045930e+01  -3.108904070631e+02 
3 1 -3.718607473319e+02  -1.721692912660e+02   3.185874337883e+02 
4 1  4.608280846523e+02  -4.883836203578e+02  -1.460301005849e+02 
5 1 -1.825441575458e+02  -1.244902632204e+02   2.512250217831e+01 
6 1  2.015062006842e+02   1.183304918348e+02   2.121966096133e+01 
7 1 -2.326417495766e+02   2.100620631636e+02  -3.077019366876e+01 
8 1 -5.644027483979e+01  -1.543162225647e+02  -1.101139360189e+02 
8
Step 52000
1 1  1.707071235820e+02   4.980662120994e+01   2.142858722586e+02 
2 1  3.867313369514e+02   1.351501465367e+02  -7.212129620490e+02 
3 1 -1.766905076718e+02  -1.387148777881e+02  -1.131233501402e+01 
4 1  1.452187507290e+02  -3.442089226609e+01   4.738353739338e+02 
5 1 -9.756381057482e+01  -8.802462047116e+01   4.386718268670e+02 
6 1  1.886979924867e+02   3.062648208559e+02   1.451326178764e+01 
7 1 -4.108873457603e+01   4.206931466400e+02  -3.668243922257e+02 
8 1 -3.404668774968e+02  -6.587079923526e+02  -1.963764438217e+02 
8
Step 53000
1 1  2.440053277363e+02  -3.809720343613e+02   1.165251802905e+02 
2 1  1.514332968328e+02   2.411888117871e+00  -3.429786360045e+02 
3 1 -2.209169073151e+02  -2.886297397569e+02   1.508359220441e+00 
4 1 -9.736707327041e+01  -2.929181469074e+02   6.707986357105e+02 
5 1  6.655967950934e+01  -3.737792261095e+02   1.564203043720e+02 
6 1  1.954155810297e+02  -4.917690580390e+01  -1.141662043330e+02 
7 1  2.554813457236e+02   1.553185466405e+02  -1.393933840855e+02 
8 1 -3.842086769452e+02   2.309046557711e+02   3.703963005561e+02 
8
Step 54000
1 1  5.038011280778e+02  -7.783760235491e+02   2.471505115951e+02 
2 1  3.804270417202e+02  -7.634768165736e+02   2.269293051534e+01 
3 1 -4.240371790838e+01  -2.372293565043e+01  -5.446454263156e+01 
4 1 -3.007514033406e+02  -1.283073938777e+02  -3.167375144350e+01 
5 1  1.802506589576e+02   9.023253343252e+01   1.007729132912e+02 