8
Step 0
1 1  3.150466861893e+02   2.246015875957e+02  -1.189583106621e+02 
2 1  2.824320836499e+02  -2.679123380825e+02  -6.433532097239e+02 
3 1 -6.128985042370e+02  -1.785520606898e+02  -4.561212775229e+02 
4 1  1.220967065569e+02  -2.945216604014e+02   4.948961430616e+02 
5 1  7.684853632279e+01  -4.290256390294e+02  -2.550871084409e+02 
6 1  2.912046244045e+02   2.399012807977e+02   4.111758419916e+01 
7 1  1.834143281444e+02  -1.906719895516e+02  -2.771540086974e+01 
8 1 -5.060789772355e+02   8.181270283469e+01  -3.402975628332e+02 
8
Step 1000
1 1  2.286496676792e+02   2.802741473387e+02   4.751201195928e+01 
2 1 -1.418465527808e+02   9.553671224408e+01   7.710178519738e+01 
3 1  1.455061072740e+02   2.823431476847e+02   7.096802923732e+01 
4 1 -1.280141798908e+02  -4.633393975132e+02  -2.344301324723e+02 
5 1 -1.136294831275e+02   3.497348337643e+02   2.502474821930e+02 
6 1  6.474587121683e+02  -6.859489292852e+01  -1.051845772277e+02 
7 1  4.640977547923e+02  -4.521132280616e+01  -6.625481999992e+01 
8 1 -1.203100882804e+02   1.964361657087e+02  -3.701479362649e+02 
8
Step 2000
1 1  1.934826215950e+01   1.136321631091e+01  -1.505618533679e+02 
2 1  3.178252386659e+02   8.866991749922e+01   9.524186492747e+01 
3 1 -2.371639011958e+02  -2.349928081980e+02  -2.875246683779e+02 
4 1  1.405040004631e+02  -1.667892447631e+02   3.470420736667e+02 
5 1 -5.730316368890e+02  -7.683599876340e+01  -3.285436637344e+02 
6 1 -8.142016337927e+01   9.054496883832e+01   2.281413104404e+02 
7 1  1.208781320820e+02  -2.461805084972e+02  -2.090772284800e+02 
8 1 -4.502887959219e+02   3.765049730980e+02   3.082898498252e+02 
8
Step 3000
1 1 -4.041580190567e+01  -3.462345031449e+02   4.528769784350e+02 
2 1 -4.395268810724e+02   2.033028543728e+02   4.919846573849e+02 
3 1  3.420432534458e+02   3.315742351795e+02  -1.953779406960e+02 
4 1 -3.277537456627e+02  -6.685742313885e+01  -2.462905330727e+02 
5 1  2.341609934114e+02   7.551194476327e+02   4.012672773964e+02 
6 1  1.975017829409e+02  -5.271652520177e+02   2.147240438052e+02 
7 1  1.675637844593e+02   3.550488197672e+02   3.989530075151e+02 
8 1 -3.011695895330e+02   4.339686176716e+02  -1.588190979265e+02 
8
Step 4000
1 1 -4.096451257326e+02   1.782079199195e+01   3.649196732815e+02 
2 1 -2.117028459267e+02   4.309186574378e+01  -1.127008910645e+02 
3 1 -3.019474422284e+02  -1.467235703635e+02  -1.042119323667e+02 
4 1  3.055501582108e+02  -1.800908977159e+02   1.767088282084e+02 
5 1 -2.824596657277e+02  -2.007797873065e+02  -2.740857438190e+02 
6 1 -2.569853343528e+02   5.378292268831e+02   1.429338483354e+02 
7 1  4.201636339392e+02   1.996585420942e+02  -2.946873269641e+02 
8 1 -1.990587545473e+02  -1.124743714100e+02   4.353603486024e+02 
8
Step 5000
1 1 -1.102467201863e+02   2.375689853003e+02   2.657677308498e+02 
2 1 -7.284363790890e+02  -1.926720983557e+02  -1.219781352488e+02 
3 1  3.792290099909e+02   2.510044886375e+02  -3.181769511490e+01 
4 1 -2.173209003836e+02   4.282298282214e+02   8.404409834801e+01 
5 1  1.947101602533e+02   1.869856872898e+01  -8.438559104216e+01 
6 1  7.234277478989e+01  -2.603174454711e+02   6.122803276922e+01 
7 1 -1.855127104349e+02   1.501602393003e+02   2.521279999727e+02 
8 1  1.481803310188e+02  -1.692195426570e+02  -3.335576387031e+02 
8
Step 6000
1 1 -4.774089299402e+02  -5.064717587631e+02   2.288650098429e+02 
2 1  2.018762393901e+02   3.452158529033e+02  -7.840545965589e+01 
3 1 -1.217087938397e+02   6.805793678992e+01   3.142749980674e+02 
4 1  2.885930627214e+02  -3.323091954363e+02  -9.983172863492e+01 
5 1 -3.547892890438e+02   1.925545959390e+02  -1.806659570358e+01 
6 1  2.547728567734e+01   8.947470829625e+01  -2.794636922700e+02 
7 1  2.683825966527e+02  -1.583983259917e+02  -1.109529923114e+02 
8 1 -5.237543405548e+02   3.563228029488e+02   3.683586398896e+02 
8
Step 7000
1 1  1.625287566397e+02  -3.404346399683e+02   1.162294026802e+02 
2 1 -3.040173057597e+02  -1.957359718119e+02  -2.216391829468e+02 
3 1  7.118858763354e+01   6.317878107121e+02   4.672645294265e+02 
4 1 -1.008479414404e+02  -3.835643734958e+02  -1.364770952640e+02 
5 1 -8.166129225045e+01   1.615093845039e+02  -2.840095121560e+02 
6 1 -2.339835919567e+02  -6.820865135742e+01   4.366280196178e+02 
7 1  7.687735200758e+01  -4.391765653606e+02  -3.148136531459e+01 
8 1  4.375938336038e+02  -5.318536475640e+00  -2.434496333850e+02 
8
Step 8000
1 1 -4.027781702420e+02  -7.957208916260e+01   2.853292426658e+02 
2 1  1.328338346504e+01   5.017582559296e+02   8.201701034984e+01 
3 1 -1.577561099376e+02  -1.440209153326e+02  -2.717611610352e+02 
4 1 -7.311910864999e+01  -3.771722749909e+02  -3.501011516000e+02 
5 1 -3.144465863227e+01   5.013995854921e+01   5.425036338397e+02 
6 1  4.376842947406e+02  -4.349742642800e+02  -2.767140031568e+02 
7 1  3.066272748770e+02   2.203755445385e+02   1.511221286805e+02 
8 1 -2.648823058812e+02   1.161564794322e+02   9.130938645472e+00 
8
Step 9000
1 1  3.070940839869e+02  -2.888764841600e+02  -3.902475954765e+02 
2 1 -5.315763176757e+02  -1.642149756050e+01  -4.910010139807e+02 
3 1  1.408981309293e+02   2.963250013165e+02   1.972661958023e+02 
4 1  2.591384299948e+02   4.268795001543e+01   2.140855229188e+02 
5 1  3.206921289560e+02   5.477713921182e+01  -2.143045423151e+02 
6 1 -4.970915489514e+01   2.380764905663e+02   3.217877701030e+02 
7 1 -3.071469550891e+02  -3.275910513993e+02  -2.411274125843e+02 
8 1  2.722817035156e+02  -6.629570615635e+02   5.536979181512e+01 
8
Step 10000
1 1 -3.080673400122e+02   1.373321402808e+02  -3.732868157296e+01 
2 1  1.283591097148e+02  -2.673066273359e+02  -4.257778756148e+01 
3 1  4.742230033942e+02  -2.086056493877e+02   3.670081171656e+02 
4 1 -1.987938419844e+02   8.625949269690e+01   2.191359859718e+02 
5 1 -9.585170103479e+01   1.603952947130e+02   1.511495860079e+02 
6 1 -9.246904467550e+00  -3.001766494776e+02  -4.163909966303e+02 
7 1 -2.583542706728e+02   1.372240362858e+01   2.274631413175e+02 
8 1  1.626444794330e+02  -1.578727972646e+02   4.813227556131e+01 
8
Step 11000
1 1  4.829299274826e+01  -1.477547909670e+02  -1.589406579987e+02 
2 1 -6.651483820836e+02  -5.575039315805e+01  -3.782658883451e+02 
3 1  4.280597868112e+01   4.337351011295e+02   4.048548691499e+02 
4 1  8.625233181253e+00   2.413086007059e+02  -1.755875114776e+02 
5 1 -1.697947165224e+02  -6.631158942151e+02  -2.814785498784e+02 
6 1 -3.479219856476e+01   1.155394727337e+02   7.871034368343e+01 
7 1  1.336935841991e+02  -1.779768174534e+01  -1.275989131552e+02 
8 1  2.901315814069e+02   2.131657290195e+02   3.949688411279e+02 
8
Step 12000
1 1 -7.186860142441e+01   3.394135794162e+02  -6.364321078115e+01 
2 1  2.785430723657e+02  -6.023392186786e+01  -1.028492388867e+02 
3 1  7.021463346533e+02   3.689867830768e+02  -1.238613593227e+02 
4 1 -3.803043906710e+02  -1.930373897382e+02   2.221348476982e+02 
5 1  7.355867455824e+01   4.655098115198e+01  -3.813325356978e+02 
6 1 -4.772636566387e+01   7.256690031262e+02   3.843657836325e+02 
7 1  3.292543406044e+02  -2.207367453146e+02   1.839706241004e+02 
8 1 -1.200861986085e+02  -1.178315853933e+02  -4.809075503489e+02 
8
Step 13000
1 1  1.114306306389e+02  -2.014286613305e+02  -2.118586998783e+02 
2 1 -2.844647371464e+02   2.136109820218e+02  -1.157503422977e+02 
3 1 -2.051639131930e+01   2.729665986630e+02   6.923201803296e+02 
4 1  2.661593420797e+01  -1.974551087905e+02  -9.767006747869e+01 
5 1  2.822163488785e+02   1.846422321053e+02   4.414506450067e+02 
6 1 -4.232065720966e+02  -1.864827579676e+02   1.678952180139e+02 
7 1  1.951724825902e+02  -2.525898848125e+02  -7.105828577492e+02 
8 1 -1.289919074511e+02   4.484888650393e+02   2.679033844019e+01 
8
Step 14000
1 1 -8.187358105113e+01   6.043868241714e+01   3.191386278393e+01 
2 1  3.375065595442e+00   1.184022034356e+02   3.472319393826e+02 
3 1  9.076232803805e+01  -1.026934988906e+02   2.346500529748e+02 
4 1  1.916036058978e+02  -1.807558145639e+02   1.707760562897e+01 
5 1 -1.520126860993e+01   7.622003800625e+02   1.735848363292e+02 
6 1 -1.870141909120e+02  -3.799081394877e+01  -3.658919919503e+02 
7 1 -6.831292521209e+02  -5.083182721909e+02  -1.734161942713e+02 
8 1  6.951392399754e+02  -7.417665249444e+01   1.345500859707e+02 
8
Step 15000
1 1 -5.644134689759e+02  -4.470489242704e+01  -4.919391658566e+00 
2 1 -7.547477987864e+01  -6.990405723288e+01  -4.164860920324e+02 
3 1  3.234170015130e+02   4.049206304396e+02   2.940800435633e+02 
4 1 -5.416563097360e+01  -4.411977071363e+02  -3.100398447094e+02 
5 1  6.370633603390e+01   3.075759654042e+02   4.188544330783e+02 
6 1 -4.072564956750e+02   6.732836776468e+01  -2.491902889812e+02 
7 1  2.029000278490e+02  -1.111825691969e+01  -1.098867164808e+02 
8 1  8.139239331406e+01   3.937586106796e+02   5.078643864790e+02 
8
Step 16000
1 1  3.090327807039e+02  -1.396089942693e+02  -2.098338368200e+01 
2 1 -2.174708864012e+01  -7.247692395105e+01  -3.686353403127e+01 
3 1 -1.192761584703e+02  -1.957053228613e+02   5.455024111947e+01 
4 1  2.498890449441e+02   2.239118499791e+02   1.775215303474e+02 
5 1 -3.315937197704e+02  -8.538745159817e+01  -2.599932490538e+02 
6 1  5.757823876034e+02  -3.245543514417e+02   9.356233335305e+01 
7 1 -3.280330549854e+02   2.879291311118e+02   3.362404920813e+02 
8 1  1.553925668102e+02  -2.197648628298e+02  -1.880631881816e+01 
8
Step 17000
1 1 -2.935397017621e+02   9.267143343760e+01   3.221619447661e+02 
2 1  1.112943025998e+01  -4.046697512073e+02  -1.696186528097e+01 
3 1  1.246802824039e+02   2.995125439262e+02  -1.059539136305e+02 
4 1 -5.251040221922e+02  -5.888241368864e+02  -3.021250130717e+01 
5 1  5.976082449942e+01   1.640367706185e+02   2.884251056171e+02 
6 1 -1.926999910620e+02   6.210092244130e-01   1.236421456145e+02 
7 1  1.217240375687e+02   1.900144292354e+02   7.477909628857e+01 
8 1 -8.149049993232e+01   3.491909628595e+01  -4.730217507422e+02 
8
Step 18000
1 1  1.281029149956e+02  -1.476473229634e+02  -1.074919124320e+02 
2 1 -3.137535532884e+02   4.720413409015e+02   4.063565725470e+01 
3 1 -2.097893682908e+02  -4.909744585473e+01   4.429670259642e+02 
4 1  1.895081294242e+01  -3.763050863373e+01  -9.512310568168e+01 
5 1  3.366873375020e+02   8.849323747048e+01  -2.753273541268e+02 
6 1 -2.086506360230e+02   1.627941139625e+02   5.579711248713e+02 
7 1 -1.330380649893e+02  -2.540908042846e+02  -3.086012615090e+02 
8 1  8.975627061899e+01   1.606389591450e+02  -9.281386707793e+01 
8
Step 19000
1 1 -1.904306099812e+01   3.274182734002e+02   4.031332228773e+01 
2 1  3.556526386126e+02  -3.480315529188e+02   1.202227153464e+01 
3 1  2.905146607282e+02   1.517601850660e+02  -1.313156915938e+02 
4 1 -2.204421813520e+02  -2.183244979885e+02   7.380952389602e+01 
5 1 -2.385951340840e+02   3.866197487822e+01   2.423780010840e+02 
6 1 -1.940598776408e+02  -1.412276289282e+02  -3.783693204765e+02 
7 1 -1.225197087707e+02   1.326877333950e+02  -2.289957631225e+02 
8 1 -7.220319132039e+01  -1.469986064507e+02   3.216991470587e+02 
8
Step 20000
1 1  6.108820398344e+02  -2.415092733871e+02  -2.039222162776e+02 
2 1 -4.118305534498e+02   1.137799565885e+02  -2.089020371472e+02 
3 1  2.496719659088e+02  -1.192145889524e+02   5.138096524822e+02 
4 1 -2.381074855986e+02  -1.019249686769e+02  -2.377139522915e+02 
5 1  1.450792682242e+02   5.146985678006e+02  -4.980013294303e+01 
6 1 -6.157088780840e+02  -2.513650342172e+02   1.134874952649e+02 
7 1  6.056598218584e+02   4.018800018940e+01   1.568127830099e+02 
8 1 -4.743583277851e+02   7.130149573271e+01   2.432244903830e+01 
8
Step 21000
1 1 -4.294767692652e+02   3.132573526234e+02   1.442714651384e+02 
2 1  3.158599078519e+02  -9.644930881341e+01   7.608583276233e+01 
3 1 -5.680344737368e-01   1.837539391146e+02  -5.078111610603e+02 
4 1  1.260156074930e+02   5.994631049880e+02   2.954146101445e+02 
5 1 -2.335263917615e+02  -2.326142428196e+02   4.050617501809e+02 
6 1  4.803993778688e+02   4.171758708802e+02  -6.519511182051e+01 
7 1 -3.412220351946e+02   2.469480908511e+02  -2.967415352191e+02 
8 1 -6.826080495231e+00  -3.242673755335e+02  -2.771843602420e+01 
8
Step 22000
1 1  8.770903451408e+01  -2.185924626492e+02  -4.063489329842e+02 
2 1 -3.113786140074e+02   1.678848369312e+01  -5.293356379286e+02 
3 1  4.448307937065e+02  -7.560671027930e+01   2.635771174727e+02 
4 1 -3.945100383721e+02  -2.864974806076e+02  -2.808059889642e+02 
5 1  1.800826723072e+02   4.036577406932e+01   1.449162025251e+02 
6 1  1.605534747511e+02   2.857756117381e+02   2.715731035985e+02 
7 1 -1.871362788317e+02  -2.395150939318e+02   8.324565207846e+00 
8 1 -2.399127344123e+02   1.244993808660e+02  -3.965151301944e+02 
8
Step 23000
1 1 -1.984108570210e+02   2.753880543480e+02   2.177106698642e+02 
2 1  1.568730262520e+02   5.320602839318e+01   5.604604556614e+01 
3 1  8.833855808414e+01   2.441195909992e+02  -3.331033832313e+02 
4 1  2.364147994399e+02  -4.500883615713e+02   5.232780882929e+02 
5 1 -1.850555059381e+02  -4.091326824323e+02   3.167242369765e+02 
6 1 -1.194260878646e+02   7.446809927998e+02  -2.407861079453e+02 
7 1 -1.893642991912e+02  -1.888993342424e+02  -8.069542854222e+01 
8 1  4.134481858631e+02  -2.936631084019e+02   3.573662951321e+02 
8
Step 24000
1 1 -1.154966406606e+02  -1.270700988226e+02  -1.525669944990e+02 
2 1 -2.175274330307e+02  -3.206418436339e+02  -2.909390177545e+02 
3 1  4.322939569133e+02  -1.558476083339e+01   4.516062773769e+02 
4 1 -4.382746759280e+02   7.238386684187e+02  -1.232469128434e+02 
5 1 -3.321466453990e+02   3.764119550710e+02   1.200178981581e+02 
6 1  2.583373788679e+02  -3.061568313402e+02  -2.985837487665e+01 
7 1 -2.852172213457e+01  -3.141789733533e+02   2.345526541848e+02 
8 1 -6.722637630628e+01   1.891790831060e+02   1.340130209385e+02 
8
Step 25000
1 1  8.022619348831e+01   2.549686175624e+02   8.001443492520e+02 
2 1 -2.155557952236e+02   2.013661792819e+02   8.504078766166e+01 
3 1 -2.297471790752e+02   1.563753827276e+02  -1.637860978540e+02 
4 1  4.250049586117e+02  -1.777752549344e+02  -7.492080986194e+01 
5 1 -6.318003571268e+01   6.312334608992e+00   7.276478931992e+02 
6 1  1.450632741867e+02  -1.738546666968e+02  -1.591476989932e+02 
7 1  8.714426389532e+01   1.226847281377e+02   1.382809112109e+02 
8 1  2.966694290996e+01  -1.320256356470e+02  -1.700257785443e+02 
8
Step 26000
1 1 -4.486539094444e+02  -7.082922601620e+01   8.289485310072e+01 
2 1  3.247187158970e+02  -3.802956114816e+02  -1.698400661583e+02 
3 1  3.162398443493e+02  -5.590657356880e+01   1.484716301448e+02 
4 1 -1.487087232323e+02  -1.256294936694e+02   1.321717596005e+02 
5 1 -7.042215469234e+01   2.032600951143e+02  -5.145532291683e+02 
6 1  5.496620765360e+02  -4.408373109107e+02   2.813732069269e+02 
7 1 -6.171462871712e+02   8.493320082520e+01  -1.187386119012e+02 
8 1 -3.237346451882e+02   3.114399600255e+02   2.464846617161e+00 
8
Step 27000
1 1  4.086054366175e+02  -2.474134638997e+02   3.101568190005e+01 
2 1 -2.375874050631e+02   1.704269428385e+02  -1.317462661398e+02 
3 1 -3.792314913387e+02   1.450401728457e+02  -1.147393373419e+02 
4 1  2.613883573980e+02  -5.135732881079e+02   1.669885305665e+00 
5 1  4.024992948795e+01  -1.272761851467e+01   2.277854808623e+02 
6 1 -3.018941062996e+02  -1.318741899193e+02   1.378291289506e+02 
7 1  2.980367943793e+02   1.470279259392e+02   6.520362780215e+01 
8 1  1.458474216808e+02  -1.471497193011e+02  -2.331488292908e+02 
8
Step 28000
1 1 -4.151296332490e+02   3.066722662534e+02  -1.780647644118e+02 
2 1  1.570033974217e+02  -3.450902593921e+02   4.239341154712e+02 
3 1  5.897171418567e+02   1.155670141245e+02   2.499750686112e+02 
4 1 -2.256481822296e+02  -8.347695943483e+01   5.171073779878e+02 
5 1 -3.203659551894e+02  -2.188987720056e+02  -2.649859480091e+02 
6 1  3.881910334044e+02   3.977712157060e+02  -3.120852276531e+02 
7 1 -1.238508836109e+02  -2.488296848221e+01  -2.006153100605e+02 
8 1  2.086533715255e+02  -1.126158740210e+02   5.374343835521e+02 
8
Step 29000
1 1  2.876900963326e+02  -2.150087556085e+02   3.237199042540e+02 
2 1 -3.537067367093e+02   4.368154583621e+02  -3.881574477212e+02 
3 1 -3.152736448239e+02  -1.310079193785e+02   1.034012554082e+02 
4 1 -5.300434098083e+02  -2.449289476797e+02   8.755695376409e+01 
5 1  3.641152849434e+02   7.799200859590e+02  -1.734249622555e+02 
6 1  2.380603038679e+01  -1.027507716238e+02   3.985571724394e+02 
7 1  3.190674052416e+02  -4.393036721918e+01  -1.151036718906e+02 
8 1 -2.825835099389e+02  -1.122626170282e+02  -5.150964909749e+02 
8
Step 30000
1 1 -4.294359018068e+00   5.666710616462e+02  -5.029689875857e+02 
2 1  7.280418330151e+02  -4.882728743281e+02   1.915358046771e+02 
3 1  3.263925686071e+02   7.393464513148e+01   2.090421538526e+02 
4 1  1.451972068596e+02   3.845205598095e+02   3.265638925164e+02 
5 1  2.679762721385e+02   1.963898307361e+02   6.498770018032e+00 
6 1 -4.603432993736e+02  -1.339131000283e+02  -2.085869291107e+02 
7 1  1.882320892798e+02  -3.835972155361e+02   2.876460112946e+02 
8 1 -3.345727354781e+02  -7.771842200068e+00   2.560817755727e+01 
8
Step 31000
1 1  1.262798735262e+02  -3.632143912868e+02  -2.636985646002e+01 
2 1 -2.603655538533e+02   3.360769501296e+02  -1.137961238536e+02 
3 1 -2.151213542268e+02  -2.503304663311e+02   5.353500539834e+02 
4 1  1.555799271591e+02   4.561870919241e+02  -6.419637420688e+02 
5 1 -2.606697005938e+02  -2.972574969976e+02  -3.600663025850e+02 
6 1  2.430547921362e+02  -1.499288047223e+02   3.039023231141e+02 
7 1 -7.241720260297e+02  -2.440967376868e+01   4.294552261237e+02 
8 1  4.647226238234e+02   2.891043996627e+02  -6.466655479903e+02 
8
Step 32000
1 1 -1.967870410313e+02   3.946217644294e+02  -3.006140459782e+02 
2 1  3.686268844681e+01  -2.629118525402e+02   5.657108908405e+02 
3 1  1.883808850633e+02  -1.480607749612e+01  -5.882676162195e+01 
4 1  3.185164352847e+02  -3.743325911651e+02   4.010090717264e+02 
5 1 -6.051404198462e+02  -4.938847373910e+02   1.186251152676e+02 
6 1 -3.216530079891e+01   2.283245249660e+02  -1.940621436760e+01 
7 1  3.000616613812e+02   2.139167287727e+02  -2.977938129608e+02 
8 1  1.348218014417e+02  -9.271901680482e+01   4.961896033380e+01 
8
Step 33000
1 1 -2.382534622876e+00  -7.471456628847e+01  -3.775854322664e+02 
2 1 -7.343477719053e+01   9.911796522521e+01   1.967422628525e+02 
3 1 -3.851161752884e+02  -2.021938112776e+02   1.496631117020e+02 
4 1 -1.356954472016e+02  -8.642700925417e+00  -3.278180441197e+02 
5 1  9.365993929562e+01  -1.019375484846e+02   1.430974777560e+02 
6 1  3.183105024078e+02   2.949168415020e+01  -3.749209320388e+02 
7 1 -3.751451648718e+02  -3.998543507129e+01   4.891554231065e+02 
8 1  3.887968379016e+02  -8.440665029120e+01   9.886193434422e+01 
8
Step 34000
1 1  8.141713620497e+00   2.805759548418e+01  -4.285801389111e+01 
2 1 -7.396080261745e+01  -1.552529635448e+02   4.185872844252e+01 
3 1  1.745408552600e+02   4.558339166954e+02  -8.951287130635e+01 
4 1  7.492303755509e+01  -3.402239965488e+02   3.345324127505e+02 
5 1 -1.468889481917e+02   4.820490486762e+01  -4.687834859728e+02 
6 1 -5.498108830635e+02   3.453259263941e+02   3.590646039218e+02 
7 1  4.126203221132e+02  -9.023516349624e+01   1.860008545760e+02 
8 1 -5.922701478815e+02  -1.120901039367e+02  -1.835033610335e+02 
8
Step 35000
1 1 -4.870491674595e+02  -3.222363344129e+01  -2.354052613423e+02 
2 1  4.621005962680e+02  -4.094764954950e+00   3.313040161149e+02 
3 1 -5.274752279958e+02  -4.703378727271e+01   2.841080861780e+02 
4 1 -2.283488773927e+02   1.928652981136e+02  -2.725047109235e+02 
5 1  3.146114480331e+02  -1.867438578023e+02  -1.270690399169e+02 
6 1  2.154224537810e+01   5.001944309851e+02   8.781102704134e+01 
7 1 -1.045938521507e+02  -6.758452960002e+02   1.102237637871e+02 
8 1 -2.936313683232e+02   3.709603027948e+02  -1.136191154316e+02 
8
Step 36000
1 1  2.985004875438e+02   1.007806919700e+01   2.347196575872e+02 
2 1 -7.021081153443e+02   7.219385969797e+01  -1.960117621553e+02 
3 1 -3.692837544393e+00   1.940156439409e+02  -6.398772558741e+01 
4 1  5.152779015976e+02  -4.408032400744e+02   4.740169016684e+02 
5 1  1.419066161054e+02   1.510462104815e+02  -3.218876753842e+02 
6 1 -3.236545324093e+02  -1.095324873458e+02   4.433720485593e+02 
7 1  2.721258094751e+02   4.496458028839e+02  -1.737630342406e+02 
8 1  9.679592405947e-01   7.655364117585e+01   5.547236436731e+01 
8
Step 37000
1 1 -2.091243436068e+02   1.892457579639e+02  -2.021926628238e+02 
2 1  3.408230219526e+02  -2.678769942044e+02   7.356568562197e+01 
3 1 -3.809734513562e+02   2.216102482305e+02   3.252971705850e+02 
4 1  1.886605676130e+02   2.092895695286e+02  -2.100977290826e+02 
5 1 -3.570970836722e+02  -2.857197072500e+02  -1.370519406659e+02 
6 1  2.688217382617e+02   4.710802999566e+02   3.897800364513e+02 
7 1  6.637286681919e+01  -2.537690424504e+02  -7.443556824414e+02 
8 1 -2.780582552253e+02  -1.410576280293e+02   4.883351702147e+02 
8
Step 38000
1 1  4.735398490844e+02  -4.848920859409e+02   7.914364333551e+02 
2 1 -3.053170704967e+02   2.688825201703e+02  -3.832178126237e+02 
3 1  3.570906617939e+02   4.635042942182e+01  -6.273293824189e+01 
4 1 -2.391583649404e+02  -4.226708344116e+02  -1.278321808394e+02 
5 1  1.329584020642e+02  -8.046860258338e+00  -4.878843381205e+01 
6 1 -3.775114860960e+01   1.471170015580e+02  -5.030034321221e+01 
7 1  1.236159931305e+01  -1.768513735138e+02  -5.121953302582e+01 
8 1  9.744086586482e+01  -1.806176585978e+02   3.011215045556e+02 
8
Step 39000
1 1 -4.292830769802e+02   2.424163033233e+02  -3.837811326530e+01 
2 1  1.057808087314e+02  -2.246915049369e+02   1.320689489945e+02 
3 1 -3.994732985247e+02   1.441716233995e+02   4.640326769929e+02 
4 1  4.433915620415e+01   6.994318587741e+01  -1.170661280911e+02 
5 1 -2.197577166182e+02  -7.840221679761e+01  -4.214539275407e+02 
6 1  3.923286893345e+02   5.535488112152e+02   4.615364194161e+02 
7 1  3.960731114507e+02  -6.354168559419e+00  -5.615057071592e+02 
8 1 -3.483373832964e+02  -3.107109748979e+02  -1.549877945154e+02 
8
Step 40000
1 1  2.931004654744e+02  -2.589291469045e+02   2.173265609360e+02 
2 1 -1.477200212540e+02   4.126706020214e+02  -4.307312399552e+02 
3 1 -1.308715460420e+02   1.115548864140e+01  -3.677624622024e+02 
4 1 -3.921445920394e+02  -1.718237302984e+00  -3.671527834621e+02 
5 1  3.611947774263e+02   4.392195914399e+02   1.177822038648e+02 
6 1  8.228076513989e+01   3.461858602185e+01  -1.017671051024e+02 
7 1 -2.678573370107e+02  -3.597438471753e+02   5.106417904260e+01 
8 1  2.046147530382e+01   1.227338192419e+02   1.490873151576e+02 
8
Step 41000
1 1 -4.640548306323e+01   5.709975661142e+02  -1.378884599845e+02 
2 1 -1.048049443881e+02  -2.253241831959e+02  -4.582052416901e+01 
3 1  2.606544545643e+02   3.828005623815e+02   2.967757462248e+02 
4 1 -1.171757005051e+02  -1.580119331119e+02  -1.345588930622e+02 
5 1  6.077156301161e+01   1.299432983768e+02  -2.143061130296e+02 
6 1 -9.735015643609e+02  -2.778222399769e+02   3.747990995919e+02 
7 1  4.185648635680e+02  -1.783114949772e+02  -4.695768675400e+02 
8 1 -9.356820362048e+01   8.324657128096e+02  -1.128062576077e+02 
8
Step 42000
1 1 -4.804625022068e+02  -2.538454382706e+02   2.481134893011e+02 
2 1  3.223993417304e+02   2.251072615946e+02  -2.769586307923e+02 
3 1 -1.492567273335e+02  -1.875202421327e+02   3.905966022136e+01 
4 1 -2.961527210835e+02  -4.931557714855e+01  -1.814494060289e+02 
5 1  2.387468808135e+02  -6.124534929949e+01   5.790396453600e+02 
6 1  1.010447469708e+02  -4.636271505938e+01  -3.756128464475e+02 
7 1 -1.766971312598e+01   5.094145174781e+01   1.049024090043e+02 
8 1 -1.675132366851e+01  -3.714031541240e+01   6.968260351273e+02 
8
Step 43000
1 1  2.428913376564e+02   6.841980579570e+01   3.402501459948e+01 
2 1 -1.408865541618e+01   2.580886986874e+01   1.069192641433e+02 
3 1  1.122864475585e+02   3.080333867077e+01  -3.705328280772e+01 
4 1 -3.924593522441e+02  -2.575990703992e+02   1.497659675361e+02 
5 1  2.525874753273e+02   1.781887386098e+02  -3.205874720987e+02 
6 1  2.356874853385e+00  -9.749779243365e+01   2.302189176970e+02 
7 1  7.002609017842e+01   3.602932075225e+02   1.719541327594e+02 
8 1  6.843435821230e+01  -1.507908809232e+02   3.671662013700e+01 
8
Step 44000
1 1 -1.959517261879e+02  -1.410716463959e+01  -6.632603161499e+01 
2 1  4.571401891911e+02   6.004955238691e+01   8.876450952627e+01 
3 1 -4.661962803888e+02   1.737205384312e+02  -1.297633198809e+02 
4 1  5.291996669863e+02   2.030197758549e+02  -1.778325236462e+02 
5 1  2.425792819687e+02  -1.772496968682e+02   3.238497853242e+02 
6 1  2.141290991631e+02   4.151028156550e+02   2.566040471475e+02 
7 1 -1.620554469923e+02  -5.627959053853e+01   1.937317409958e+02 
8 1 -3.314685955476e+02  -2.544249913017e+02  -7.161143134146e+00 
8
Step 45000
1 1  1.668206591886e+02  -2.153725211048e+01  -1.954782187779e+02 
2 1 -3.161553924341e+02   7.162086616430e+01  -3.320643653228e+02 
3 1  2.926945725205e+02   2.817977190621e+01  -6.932934921911e+02 
4 1  2.596287009933e+02  -2.757261233121e+02   3.592119279787e+02 
5 1  1.027589526533e+01   1.272125009904e+02  -2.457469303026e+02 
6 1  1.594509884945e+02  -4.903178716477e+01  -5.747728053877e+01 
7 1 -1.196662315416e+02  -4.114350367234e+02   3.403588269683e+02 
8 1  1.040635618706e+02   9.392414023653e+01  -5.750502524061e+01 
8
Step 46000
1 1 -4.604614653486e+02   7.162428536829e+02  -2.980507392110e+02 
2 1  4.344393727896e+02  -5.045888107235e+02   3.624064988118e+02 
3 1 -3.210205702685e+01   2.405977805358e+02  -2.441851798157e+02 
4 1  4.485963302904e+02   3.899594293854e+02   5.321868969778e+01 
5 1 -2.741656632185e+02  -3.380716706688e+02  -5.817208613512e+01 
6 1 -2.861641457504e+02   3.159092215040e+02   3.854535610201e+02 
7 1  3.951504393008e+02  -1.743868368244e+02  -5.709646154446e+02 
8 1 -6.163441619327e+02   1.096618613418e+02   1.544549841778e+02 
8
Step 47000
1 1  5.146315477937e+02  -2.586452832444e+02   1.599590796792e+01 
2 1 -3.495916005874e+02   5.401488452398e+01  -3.836116899558e+02 
3 1  3.739329187402e+01   4.215186386403e+02  -1.149253305916e+02 
4 1 -1.376435316081e+02  -5.927044351863e+02   3.825912126636e+02 
5 1  1.053079460365e+02   3.402501895076e+02  -1.578115890058e+02 
6 1 -2.653114198032e+02  -6.516548215603e+02  -4.378897492461e+02 
7 1  7.571690568253e+01   3.298585521339e+02   4.705988108085e+00 
8 1  1.973798348131e+02   6.571574314901e+01   3.748840788172e+02 
8
Step 48000
1 1 -1.562637357149e+02   4.029536511070e+02  -4.388923910147e+02 
2 1  1.230909204349e+02  -6.333031783944e+01   3.331092207075e+02 
3 1  2.399839714500e+02  -3.936803223531e+02   1.911281800738e+01 
4 1  9.638840470914e+01   4.993592847287e+02   5.791406312164e+01 
5 1 -1.661630867209e+02  -4.060021854578e+02  -6.924812182246e+02 
6 1 -8.108678983659e+00   4.231414223117e+02   3.449516264913e+02 
7 1  1.743830858434e+02   9.628936686035e+01   1.076423339461e+02 
8 1 -5.669512724944e+01  -3.339801633213e+02  -5.410705092890e+02 
8
Step 49000
1 1 -9.655105977377e+01  -2.860678353884e+02   3.148915912280e+02 
2 1 -1.454320506582e+02   1.690538073310e+02  -3.214982943473e+02 
3 1 -1.582756049038e+02   3.142432047752e+02   3.096087918231e+02 
4 1  2.748976940654e+02  -2.826101154941e+02  -2.289145114286e+02 
5 1  2.712763658271e+02   3.889151758958e+02  -9.665345020826e+01 
6 1  1.497649409686e+02  -4.844288761979e+02   4.108489938523e+02 
7 1 -6.199232028716e+02   3.188514737591e+02  -3.276578781436e+01 
8 1 -1.292284992464e+02  -2.721127700024e+02  -3.360202698956e+02 
8
Step 50000
1 1  2.465754709583e+02  -9.093802589007e+01  -1.949233219889e+02 
2 1  8.653383006557e+00   1.221172794078e-01   1.317306379699e+02 
3 1  3.347989037997e+02  -5.651707975053e+02  -8.206543793140e+01 
4 1  2.295171801866e+02   2.326076745077e+02   2.109863568790e+02 
5 1 -6.385344787940e+02  -1.219639944568e+02   4.535311809151e+02 
6 1 -4.370113886639e+02   1.818446391981e+02   1.104014602237e+02 
7 1 -5.874179257823e+01  -4.159409653466e+02  -2.066208767471e+02 
8 1  4.337329107247e+02  -8.388875636415e+01  -4.599936095163e+01 
8
Step 51000
1 1 -3.823249712895e+02  -3.822756817650e+02   1.921274921892e+02 
2 1  1.339584530426e+02  -1.115532194397e+02  -4.226234925542e+02 
3 1 -4.520867491604e+02   3.602459052352e+02   2.387670822031e+02 
4 1  2.160621068027e+02   1.113700714322e+02   8.488521959022e+01 
5 1 -1.151184713860e+01  -1.753893908770e+02  -1.557071750365e+02 
6 1  5.169705499675e+02  -4.661765263753e-01   5.110578562470e+01 
7 1  7.849663296667e+02   2.946953636609e+02  -2.564438132018e+01 
8 1 -3.119552986257e+02   2.447763405472e+02   1.689378023364e+02 
8
Step 52000
1 1 -2.135722861411e+01   9.856892594971e+01  -1.185931172594e+02 
2 1 -3.892262664830e+01   2.561804699552e+02   2.742926782936e+01 
3 1  3.762240604115e+02   2.771065956507e+01  -4.743499398083e+02 
4 1 -1.729257099144e+02  -1.826255237421e+02   2.145477376930e+02 
5 1  1.642348351140e+02   1.454241190823e+02   1.945744356194e+02 
6 1  1.188395454450e+02  -4.420298552659e+02  -5.845805605354e+02 
7 1 -2.683822108734e+02   6.566724697786e+02   1.725373113674e+01 
8 1  2.177015158573e+02  -5.408347027497e+02   4.080959012570e+02 
8
Step 53000
1 1  6.399337715919e+01  -1.130882627994e+02  -1.830915746197e+02 
2 1  2.930201937621e+02  -1.275524800444e+02   2.204851855805e+02 
3 1 -1.785494783155e+02   6.460978263898e+01  -1.277809743818e+02 
4 1 -1.744581578241e+02   1.462193392406e+02   2.194079659757e+02 
5 1  9.015833164769e+01  -2.866959521647e+02  -5.061046868068e+02 
6 1 -5.054502137007e+01   2.941272702220e+02   2.724587688798e+01 
7 1  7.089224267419e+00  -2.584148015716e+01   4.048614991013e+02 
8 1  1.168331380676e+02   3.651299924856e+01  -3.066283862400e+02 
8
Step 54000
1 1 -6.064814930706e+01  -2.040122143176e+02  -8.373570783064e+00 
2 1 -9.264028292882e+01   2.560613264206e+02  -3.529002544505e+02 
3 1  4.419622982815e+02  -2.083913129960e+02  -1.438351218063e+02 
4 1  3.780769215927e+02  -3.217359503399e+02   4.268700806821e+01 
5 1 -4.171460126215e+01   3.779614148685e+02  -1.835267660734e+02 