8
Step 0
1 1  1.976204776260e+02  -1.327257613333e+01   2.703176273771e+02 
2 1  2.003061905833e+02  -2.544223981605e+02   3.731957994478e+01 
3 1  3.175536340511e+01   7.854931605754e+01   2.211130902848e+02 
4 1  1.106521732543e+02  -1.894472683087e+02   2.165739811924e+02 
5 1 -2.560395550905e+02   9.179978589662e+01  -8.380647691923e+01 
6 1  3.277134704153e+02   3.549403928910e+02  -3.306515228372e+02 
7 1  3.843816880327e+01   1.374312923885e+02  -1.669173694866e+02 
8 1  6.066579180227e+01   1.956450288481e+02   2.848463208239e+01 
8
Step 1000
1 1 -9.728967344697e+01   2.773295529017e+02  -1.040219860463e+02 
2 1  3.460420826562e+02  -5.849718355372e+01   1.007943438120e+02 
3 1 -9.612240264967e+01  -2.955404201460e+02   3.681676481589e+01 
4 1  1.848930965554e+01   5.329794256643e+00   1.435636685440e+02 
5 1 -9.843655738054e+01  -7.688180861879e+00  -1.473367890397e+02 
6 1  5.333422877495e+02   2.640892989833e+02  -4.448020494457e+01 
7 1  3.434073691060e+02  -2.354674217473e+01  -7.334826785977e+01 
8 1 -1.685367430084e+02   2.607054773431e+02   2.626964757600e+02 
8
Step 2000
1 1 -9.585037561168e+00  -2.483571108855e+02   1.139259355629e+02 
2 1  2.445229651397e+02  -1.261968898647e+02  -1.716036147042e-02 
3 1 -1.091664151318e+02  -1.301381075643e+02   9.163469319820e+01 
4 1 -1.364552929481e+02  -3.978823016710e+02   3.513123364017e+02 
5 1  2.841259817845e+02   2.113897195971e+02  -1.722240668706e+02 
6 1  2.215972678218e+02  -1.439214633456e+02   1.426481303483e+01 
7 1  7.365212705055e+01   3.308806457052e+02  -4.015350887527e+01 
8 1 -3.617074805803e+02   4.682104200719e+02  -1.170130008854e+02 
8
Step 3000
1 1  4.896352331304e+01  -1.332039580202e+02   1.051974935589e+02 
2 1 -1.137379209835e+00  -2.059591596535e+02  -2.942877562259e+02 
3 1  4.352322341565e+02   1.339270620539e+02   4.653903405228e+02 
4 1  4.497222393790e+01  -9.619437164048e+01   3.284416794807e+01 
5 1  3.354475361814e+02  -1.258739024157e+01  -2.385699117155e+02 
6 1  1.174612516156e+02   1.761026569341e+02  -5.235241418558e+02 
7 1  9.689328270364e+01   2.899341349441e+02   2.105691158466e+01 
8 1  1.936390119029e+01  -4.388789465002e+01   2.930842648689e+01 
8
Step 4000
1 1 -2.587717830371e+02   1.510875458430e+02   8.275184425780e+01 
2 1  1.374726078719e+02  -1.551226920864e+02   1.904478249939e+02 
3 1 -1.799816867424e+02  -2.375704389223e+02   1.081544334700e+01 
4 1  3.230830210914e+02   1.627405199219e+02   6.523140000156e+02 
5 1 -2.650899574532e+02  -4.429806564587e+01  -3.202881284791e+02 
6 1  3.032187318641e+02   4.726573074911e+02   3.280151060052e+01 
7 1  2.294450658360e+02   2.242434148401e+02  -5.177795577318e+02 
8 1  3.258405416256e+01   6.910629113715e+01  -4.371246681946e+02 
8
Step 5000
1 1  3.543122324932e+01  -1.107738742969e+02  -9.702858910096e+01 
2 1 -3.720321966032e+02  -4.375994413610e+02   5.183716288578e+02 
3 1  9.645110864891e+01   1.506290107969e+02  -5.913668462341e+01 
4 1  5.776852414582e+02   2.387408485647e+02   2.309902488632e+02 
5 1  3.762807060862e+02   3.124171030118e+02   7.126559418403e+01 
6 1 -5.167834333941e+01   9.128633629970e+01   2.054536659016e+02 
7 1  2.840893783726e+01   1.237808849724e+02   2.564340900461e+01 
8 1  6.678520138839e+02   1.689712844769e+01  -1.437633115197e+01 
8
Step 6000
1 1 -1.065847445049e+02   1.681339823200e+02   1.218479886098e+02 
2 1 -2.224268047048e+02   1.340609542022e+02   1.133019553629e+02 
3 1  8.463932934364e+02   8.520133358831e+00   2.115438991802e+02 
4 1 -4.410798858554e+01   1.953371156439e+02  -3.805449574045e+02 
5 1 -5.726068567871e+01   1.669611744520e+02   1.705118438074e+02 
6 1  2.591380491294e+01   2.799165062817e+02  -8.509115344173e+01 
7 1 -3.026624202243e+01   1.283380220157e+02  -2.575761315505e+02 
8 1  3.185600140089e+02  -3.657424761949e+02  -4.284888607769e+02 
8
Step 7000
1 1 -3.760046023949e+02  -9.430590968963e+01   1.451900342640e+02 
2 1  1.835325393183e+02   2.516035148271e+02  -1.675878735472e+02 
3 1 -1.139365941988e+02  -2.270665288557e+02  -2.690820654303e+01 
4 1  2.095493749873e+02   4.927708660966e+02  -1.090685612306e+02 
5 1  2.638065091480e+02  -3.810463135019e+02   9.129533156162e+00 
6 1  3.480763964700e+02  -4.217098021990e+02   6.751730536292e+01 
7 1  2.671751255552e+02   1.299958282165e+02   3.046912461704e+01 
8 1 -2.962697816791e+02  -4.600584374157e+01  -2.701061527895e+02 
8
Step 8000
1 1 -1.644711972442e+02   9.830780921067e+01   6.306591108647e+01 
2 1 -1.003905431674e+02   1.309925264226e+02   1.398087101605e+00 
3 1 -3.406036466663e+02  -1.745984537807e+02   4.240144095614e+02 
4 1  5.116089504398e+02   1.460590621018e+02  -1.399277505255e+02 
5 1  7.495874896809e+01  -6.112709124199e+00  -2.681248677752e+02 
6 1 -2.991657716406e+02  -2.789186760612e+02   1.921155217185e+02 
7 1  1.900183848729e+02  -1.682442249768e+02   8.433745713948e+01 
8 1  8.506144726364e+01  -1.669796297183e+02  -6.210877266032e+01 
8
Step 9000
1 1 -6.396816133933e+02   9.534924437129e+01   2.770758854914e+02 
2 1 -2.029270610621e+01  -5.324332685421e+01   2.066008681705e+02 
3 1 -4.202082103536e+02  -8.547638892408e+01  -1.497894946376e+02 
4 1 -2.427590412218e+02  -1.311388967313e+01   3.424993959421e+02 
5 1  3.282360356733e+02  -3.019414698813e+02   1.333141626629e+02 
6 1 -2.621299159658e+02  -2.882008272474e+02   2.092202042205e+02 
7 1  4.606706347481e+01   4.259875053849e+02   5.089135627422e+01 
8 1 -1.372198359857e+02  -1.856825250153e+01  -8.275653035575e+00 
8
Step 10000
1 1  2.022536112503e+01   3.332091224213e+02  -2.915853804217e+02 
2 1  2.850037523538e+02  -1.380648200000e+02  -1.450297309171e+02 
3 1  2.562840577943e+02   7.665172294996e+01  -1.466620131267e+01 
4 1 -8.663219882723e+01   1.959463710922e+02   3.395232247826e+02 
5 1 -6.475352390668e+01  -4.338844311867e+02   2.529643003398e+02 
6 1 -5.930736553199e+01  -3.812738329748e+02   3.501142305746e+02 
7 1  1.427376664655e+02  -3.438641765929e+01   1.190535810462e+02 
8 1 -2.589828805268e+02   5.932501135823e+01   5.448256919638e+01 
8
Step 11000
1 1  2.369664054079e+02  -6.540939751008e+01  -6.461373211522e+01 
2 1 -2.485542940526e+02   3.555184752184e+02  -2.445814698490e+02 
3 1 -2.001446445054e+02  -2.193162543315e+02   3.099759102785e+02 
4 1 -2.440604790173e+02  -2.213432245674e+02   3.274073376148e+02 
5 1 -2.568114999189e+02  -1.999069246738e+02   1.735047925901e+02 
6 1 -1.745528432778e+02   1.238288711097e+02   1.312492221412e+02 
7 1  1.161730881004e+02  -7.334971412515e+02  -2.618623657719e+02 
8 1  2.214102992916e+01  -1.159080537971e+02   2.893373560612e+01 
8
Step 12000
1 1 -3.682159315750e+01  -7.479194055215e+01  -3.017193469025e+02 
2 1 -1.853226407048e+02   3.495766063627e+02   7.299419686663e+01 
3 1 -1.442060902950e+02  -2.841150651488e+02   3.671005874713e+02 
4 1 -2.626417474843e+02  -1.308627755716e+02   1.459483189772e+01 
5 1 -1.156327831850e+02  -2.520943854772e+02   5.508501631441e+02 
6 1 -1.267192995749e+02   7.262521895964e+02   2.313019923367e+02 
7 1  6.095583979206e+01   9.059107501503e+01   5.713284140814e+01 
8 1  2.877929486060e+02  -1.240693107239e+01  -1.015344431797e+02 
8
Step 13000
1 1 -2.501221400823e+02   1.198218606228e+02   6.897240094851e+01 
2 1  1.641051966246e+02  -2.205711834870e+02   1.789578899409e+02 
3 1 -2.237047098688e+02  -1.912272002414e+01   4.703585175888e+02 
4 1 -2.816931264515e+02   6.153763915725e+02   3.224745008586e+01 
5 1 -3.822402540694e+02   1.831485610939e+02  -1.010568403088e+02 
6 1 -2.349041173180e+02   1.562450748663e+02   2.930347228567e+02 
7 1 -2.408251780571e+02   4.437293699106e+01  -2.002054063629e+02 
8 1  3.752257880564e+02  -3.539903452632e+02   4.089519308365e+01 
8
Step 14000
1 1 -1.997300566248e+02  -4.671568699257e+02   4.463788671763e+01 
2 1  1.890643682062e+02   1.653260951612e+02   7.366978332814e+01 
3 1  1.911852936019e+02  -3.837062458523e+02  -1.307962341538e+02 
4 1  1.653393883826e+02  -7.207275185407e+00  -3.839811197075e+02 
5 1 -4.337296170936e+02   3.383711019450e+02   1.188325050023e+02 
6 1  1.992898969477e+02   4.971703048158e+02   4.430173173627e+02 
7 1  5.939624530945e+01  -8.648085812003e+01  -4.292966755012e+02 
8 1  4.462794676839e+02   8.725565023841e+01   4.465673162118e+01 
8
Step 15000
1 1  9.185960386980e+01  -2.946471268028e+02   4.167605682863e+02 
2 1  2.395557059197e+02  -1.287877360215e+02   4.514416268531e+02 
3 1 -2.192801861929e+02   3.059060260099e+01  -1.258912207157e+02 
4 1 -1.515606153308e+02   7.321317081499e+01   1.742473658604e+01 
5 1 -3.088733764850e+02   5.284012098549e+02   2.179932726974e+02 
6 1 -3.767535038729e+02   1.433134157501e+02  -2.336920562062e+02 
7 1  2.598886178959e+02  -1.888544131353e+02   7.158491586834e+02 
8 1  2.876935635149e+02  -3.141507944808e+01   4.384251902737e+02 
8
Step 16000
1 1 -3.056317862453e+02  -2.295866307377e+02   2.005189980591e+02 
2 1  3.192185250512e+02  -4.533115160414e+02   3.566396277891e+02 
3 1 -2.510740360120e+02  -1.899635064968e+01  -6.766435924163e+02 
4 1  3.970766654098e+02   2.473973890729e+02   1.304526430359e+02 
5 1  4.793992964049e+01   1.656633016654e+01  -9.949007986862e+01 
6 1 -3.348642017365e+02   2.055239122344e+02  -2.892657809719e+02 
7 1  1.207767877884e+01   2.502807862870e+02   4.876616798352e+02 
8 1  2.804678231203e+02   2.326265100970e+02   1.838310049466e+02 
8
Step 17000
1 1  2.640679026946e+02  -3.793864250866e+02   2.552430000333e+02 
2 1  5.429447682770e+01  -1.910965635052e+02   3.425570342238e+02 
3 1 -2.156669709350e+02   1.210118173525e+01  -1.901481622877e+02 
4 1  4.244069842460e+02   1.653038536681e+02   5.546791809042e+01 
5 1  3.495763218435e+02  -4.499984003993e+02   1.945552682284e+01 
6 1 -2.288881850870e+02  -1.255648835375e+02   1.478708750658e+01 
7 1  7.393489865271e+02   2.844704212056e+02   3.237232026584e+02 
8 1  4.553765419934e+02  -2.531684917110e+02   5.388486790583e+01 
8
Step 18000
1 1 -1.631393161587e+01   2.207019210201e+01   8.384978775025e+01 
2 1  7.834943073323e+01  -4.621001734723e+02   7.240490572666e+01 
3 1  2.002243313265e+02  -8.533956833588e+02   1.362027099107e+02 
4 1  2.056160896715e+02  -4.712647933197e+02  -1.241710115646e+02 
5 1  3.952445648720e+02   3.716196502516e+02   1.866654688911e+02 
6 1 -3.210199854455e+02   3.598078332880e+02   3.342428897207e+02 
7 1 -3.319983237818e+02   1.807863831974e+02  -7.143729862601e+01 
8 1  1.452778387537e+02  -1.128789963716e+02   1.560971189594e+02 
8
Step 19000
1 1  2.146473012575e+02   3.975961076184e+00  -2.465401251906e+02 
2 1  6.429332447805e+01  -3.747968061897e+02   2.116768650407e+02 
3 1  2.371292033081e+02   1.207519032924e+02  -6.398953306409e+02 
4 1 -9.605291104336e+01  -8.420981992482e+01  -3.645461245863e+02 
5 1  3.976820929595e+02   3.081988891961e+02   1.385269813715e+02 
6 1 -3.441384544738e+01   1.953006676417e+02   4.873616504762e+02 
7 1 -3.573014588875e+02  -1.633549861874e+02  -2.866230611983e+01 
8 1 -1.333546295611e+02   2.697956216327e+02   5.157277714437e+02 
8
Step 20000
1 1  1.802034148984e+02  -4.051448157640e+02  -2.126789424842e+02 
2 1 -1.535196902753e+02  -7.340894162077e+01   1.942572776898e+02 
3 1 -6.038896111528e+00  -1.820402941897e+02  -4.300606583991e+02 
4 1 -2.526942761676e+02  -4.005529075173e+02  -1.912089012144e+02 
5 1  4.407446079610e+02   6.461173967661e+01  -2.227792540134e+02 
6 1 -5.744744893728e+02   2.980094532392e+02   2.843420545076e+02 
7 1 -8.358650420151e+02   1.840856678893e+02   2.397028164159e+02 
8 1 -9.268632115144e+01   1.500457802673e+02  -3.551893124864e+02 
8
Step 21000
1 1  5.083980976352e+00   1.761135166451e+02   2.066335459704e+02 
2 1 -2.739082911281e+02  -2.387110229755e+02   3.946847055863e+01 
3 1  2.673032402583e+02   1.594633637826e+02  -1.262103075157e+02 
4 1 -1.959231661531e+02   3.003421953015e+02  -2.912409519482e+01 
5 1  3.027814152293e+02   2.520033290209e+01   1.191587263851e+02 
6 1  1.706329973359e+02  -2.491276951245e+02  -2.859170105375e+01 
7 1  2.847781775602e+02   3.045062093293e+02   4.099594697423e+02 
8 1  5.176882761046e+02  -3.192726226102e+02  -2.373869347434e+02 
8
Step 22000
1 1 -2.782718679172e+01  -4.908398591530e+02  -1.365538640003e+02 
2 1 -7.159244237641e+00  -3.970650494245e+02  -6.043572147488e+02 
3 1 -1.492373919406e+02  -7.654623978597e+01   5.189658573407e+01 
4 1  3.337618617498e+02  -2.596072160355e+02   1.921323463835e+02 
5 1 -6.413500931084e+02   3.111130551834e+02   2.623191028317e+02 
6 1  4.425743837742e+01   5.497379807888e+01   3.505936364090e+02 
7 1  2.629840272135e+02  -1.187576011402e+02   9.508416505933e+01 
8 1 -2.337464486638e+02  -7.318898688362e+01  -5.586796261680e+01 
8
Step 23000
1 1 -1.568613901731e+02  -3.209365266093e+02  -6.275506267947e+02 
2 1  1.364485334434e+02   6.433042932692e+01  -1.755715119151e+02 
3 1 -2.420321572927e+02  -2.819827323168e+02  -4.150149613312e+02 
4 1 -5.183115097964e+00  -1.357035803722e+02  -1.495032274877e+02 
5 1  2.593052814387e+02   3.314443115216e+02  -2.034650488555e+02 
6 1  2.445848631508e+02   1.246865917136e+02  -1.411012587165e+01 
7 1  2.248140021069e+02   1.344559782618e+02  -1.834229210092e+02 
8 1 -2.171069178924e+01   1.991003184854e+02  -1.790843485092e+01 
8
Step 24000
1 1 -2.989844012983e+02   2.713135100927e+01  -1.897037946724e+02 
2 1  1.988269220317e+02  -8.303360512739e+01  -3.327482855272e+02 
3 1  3.637421778450e+02  -7.477857414628e+02  -2.074495701329e+02 
4 1 -4.549707173925e+02  -4.119178194381e+00   2.169306249635e+02 
5 1 -1.459873223379e+02  -1.051649061647e+02   6.044279012147e+01 
6 1  1.363456807943e+02  -4.077567342459e+02   9.106784453367e+01 
7 1 -3.206406719345e+02  -6.114087142005e+01   1.476973051050e+02 
8 1  6.230369326298e+02  -1.543039161672e+01   1.061457601553e+02 
8
Step 25000
1 1 -2.302005937554e+02  -1.284378965324e+02   5.684991112410e+02 
2 1 -1.249038103160e+02  -3.621559886288e+02  -2.049388930909e+02 
3 1  2.286073520705e+02  -2.450518034652e+02  -1.310552409430e+02 
4 1 -6.886657117702e+01   1.082606370505e+02   1.341413035513e+02 
5 1 -1.096929969451e+02  -2.632897090621e+02   1.001833148315e+02 
6 1  4.281188428963e+02  -7.196570808958e+02   1.059254398787e+02 
7 1  2.047180606464e+02  -1.251757759359e+02   8.246574916016e+01 
8 1  3.257362925844e+02  -6.048554804980e+02   5.143980602946e+01 
8
Step 26000
1 1  1.422965392981e+02  -4.939832278885e+02   4.389462073403e+01 
2 1  5.617481676418e+00  -9.622950600965e+01   6.082023099125e+00 
3 1  3.496958406244e+02  -8.578737603762e+01  -3.649964229418e+01 
4 1  2.190939322088e+02   1.898060445403e+02  -1.297590825477e+02 
5 1 -6.402954610988e+02   2.277006355075e-01  -1.357960809549e+02 
6 1  6.678302445789e+01  -1.989569037240e+02   3.744319546292e+02 
7 1  2.787737040442e+01  -2.725722805361e+01   8.008974573084e+00 
8 1  1.012753480219e+02  -4.491988672303e+02   3.388334637658e+02 
8
Step 27000
1 1  1.712941894987e+01  -6.264812294172e+02  -2.399210547693e+01 
2 1  8.300139844165e+01  -1.201617356275e+02  -1.839737764984e+02 
3 1  2.840023421343e+02  -1.056187551982e+02  -6.500271475965e+00 
4 1  3.860862656447e+01  -2.645161002082e+02   1.153485458327e+01 
5 1 -9.175982079509e+01  -2.108977934348e+02   1.952329237604e+02 
6 1  2.330009676994e+02  -9.163807246195e+01   1.359815728723e+02 
7 1 -1.204735724171e+02   2.741593020112e+02  -3.502731172509e+02 
8 1  1.660162003131e+02  -3.922491060598e+01   9.328351569228e+01 
8
Step 28000
1 1  3.250725983019e+02  -1.863907275921e+02   7.094637473144e+01 
2 1  2.383344819450e+02  -4.495942083659e+02  -1.570291490428e+02 
3 1  6.662859215308e+01  -3.503226957162e+01   4.744012418890e+02 
4 1 -6.380903915831e+01  -2.592356652498e+02   3.201812384159e+02 
5 1  1.312626116189e+02  -1.000752706710e+02   3.525349412255e+02 
6 1 -8.878322303191e+01  -2.974884834744e+02   5.170002450265e+02 
7 1 -3.396209170277e+02   4.300382205425e+01  -1.908504076252e+02 
8 1  1.622010424859e+02  -3.322120668344e+01   6.605440978946e+01 
8
Step 29000
1 1 -7.049262621491e+01  -2.043153482582e+02  -1.369786194558e+02 
2 1 -1.653436458796e+01  -1.490381260535e+02   1.445732655979e+02 
3 1  3.581180666609e+00  -1.922263136563e+02  -1.871237834271e+02 
4 1 -2.660444382458e+02   6.891962985140e+01   4.231951777286e+02 
5 1 -9.917179297461e+01  -3.039623818665e+02   3.101944936936e+02 
6 1  2.920553240014e+02  -4.276544642703e+01   1.593089897012e+02 
7 1 -7.792898426734e+01   1.792521495590e+02  -1.790526202421e+01 
8 1 -3.941528354404e+01  -2.578730475284e+02   4.040335469590e+01 
8
Step 30000
1 1  9.940591212845e+01  -4.789061653683e+02   4.476393217812e+01 
2 1  1.391416121140e+02  -3.239969871737e+02   2.882362080603e+02 
3 1  2.688416912438e+02  -1.942647228914e+02  -1.646696881726e+02 
4 1 -4.579380245411e+02   2.454891248488e+02   3.028452835571e+02 
5 1 -4.847315852734e+02  -1.376713215415e+02  -1.619113681468e+02 
6 1  2.275788992201e+02  -5.738817504902e+01   3.005449268136e+02 
7 1 -1.633826297067e+02   2.072893114567e+02   2.310595285441e+02 
8 1 -5.073192168034e+01   4.259819856100e+01   5.937448978594e+01 
8
Step 31000
1 1 -8.802632595982e+01   2.570447596322e+01  -3.669006132607e+02 
2 1  4.810509655177e+02  -4.824281035654e+02  -2.233266677223e+02 
3 1 -5.475897361214e+00  -1.084099069633e+01  -1.491823703925e+02 
4 1 -1.814101765121e+02  -8.334493717293e+01   3.585363357368e+02 
5 1  1.827679857214e+02   1.668921635817e+02   2.054096706316e+02 
6 1 -3.278012201968e+02   1.344494038046e+02   4.171468382178e+02 
7 1  7.763939249965e+01   2.505847088479e+02  -2.910229179817e+01 
8 1 -2.883952071268e+01   1.691322603817e+02   2.716447835239e+02 
8
Step 32000
1 1  7.246142414135e+02  -2.113983537986e+02   9.833333517149e+01 
2 1  2.500433130296e+01   2.807676421473e+02   4.735871153032e+02 
3 1  2.979047528807e+02  -3.357109665446e+02   2.349485449727e+02 
4 1  4.225095333067e+01   9.554856883211e+01   1.670283445898e+01 
5 1  7.799245639112e+01  -1.929235828444e+02   1.032270497644e+02 
6 1 -7.653384793943e+02   2.011765392463e+01   4.551509186486e+02 
7 1 -1.247059663881e+02  -5.642826214875e+02   4.383796144837e+01 
8 1 -1.735861269742e+02   5.533826080844e+01   6.424258739275e+01 
8
Step 33000
1 1 -8.501972274246e+01   2.997202604255e+02  -3.497865903827e+02 
2 1  4.657679201621e+01  -3.938425929545e+02   2.750900973079e+02 
3 1 -3.130357118984e+02   1.387243119016e+02  -6.219496051981e+01 
4 1  1.497126515636e+02   8.353644148910e+01  -3.654811261530e+01 
5 1  1.085458808964e+02  -2.668546402230e+02  -2.824320212785e+02 
6 1 -4.027363670337e+01   1.973122711355e+02   4.052776055870e+02 
7 1 -4.240618774004e+02  -3.838861078298e+02  -3.478139872087e+02 
8 1  1.990331977541e+02   1.592863508550e+02  -5.161692925833e+02 
8
Step 34000
1 1 -4.540681399921e+01  -5.212706664341e+01  -1.190023757429e+02 
2 1  1.624559997961e+02   1.898033055011e+02   2.009943152871e+02 
3 1 -5.270738095811e+01   2.779624821519e+02  -1.120058375178e+02 
4 1  5.055716400969e+01  -2.403042718160e+02  -2.479271697712e+02 
5 1  1.502275883242e+02   1.365151463794e+02  -3.282828107944e+02 
6 1 -4.515885302073e+02   3.448776987464e+02   3.104624555247e+02 
7 1 -3.505604705130e+02   3.824019762567e+01  -2.890070578135e+02 
8 1 -5.504244067050e+02  -2.534850254810e+02   3.677830543121e+02 
8
Step 35000
1 1 -2.983276518225e+01  -5.985377456186e+02  -1.687822495368e+02 
2 1 -1.782422655047e+02  -3.132090668120e+01  -1.278958920474e+02 
3 1 -1.355700067371e+01  -3.591828295051e+02   3.893988509848e+02 
4 1  5.392520400809e+01   9.786214294739e+01  -1.198820940349e+02 
5 1 -8.454863579605e+02   5.930469585686e+02   1.314115268615e+02 
6 1 -2.273302215719e+02  -2.878804133813e+02  -9.326290495623e+01 
7 1  1.161355663371e+02   3.513666254500e+02  -3.497776381550e+01 
8 1 -3.668456132123e+02  -4.112388284748e+01   4.475415283059e+02 
8
Step 36000
1 1 -3.507739152515e+02   1.129972892022e+02  -6.390366303049e+02 
2 1  1.133781718471e+02   2.098750690110e+02   1.982523471041e+02 
3 1 -2.610326669937e+01   4.063169031969e+01   1.464660332603e+02 
4 1 -1.016703552956e+01  -7.155997031358e+00   5.174987653740e+02 
5 1 -2.412076794513e+02   2.154226742638e+02   2.685353969212e+01 
6 1  7.559679328424e+01   5.034790673643e+01   2.354696796019e+01 
7 1  8.313301117556e+01   3.392388761716e+01   4.493871667745e+02 
8 1  7.056706307382e+01  -3.586344247192e+02  -1.899508154415e+02 
8
Step 37000
1 1 -6.808726184522e+01  -5.681809205784e+02  -3.580365811295e+02 
2 1 -4.102938506234e+01  -1.798037911198e+02  -8.458179222424e+01 
3 1 -1.462138552858e+02   4.721097970184e+02   1.186369698975e+02 
4 1  9.199841905545e+00   2.543055081505e+02   4.779994725575e+01 
5 1  4.838702120100e+01   1.790675057654e+02  -5.379239335420e+02 
6 1  8.895581891915e+01  -1.317074642322e+02  -8.944685482342e+01 
7 1  3.604008035795e+02  -4.033362582239e+02   2.165327160166e+02 
8 1 -5.232441098259e+02  -6.577169038830e+01  -3.916689801100e+02 
8
Step 38000
1 1 -1.379461288856e+01  -1.902139257290e+02  -5.043074633316e+01 
2 1 -2.869028103260e+02  -5.048849091033e+02  -7.399840372152e+02 
3 1  3.214327269843e+02  -3.491186428125e+02   1.994345741537e+02 
4 1  3.533554582136e+02   3.025090248020e+02   6.836104409550e+01 
5 1 -1.011609924437e+02   2.056078304289e+02  -3.730420329506e+01 
6 1  4.313733923238e+02   1.829843347100e+02   2.284926230768e+02 
7 1  7.179757748093e+02   9.114927639202e+01   6.666817208660e+01 
8 1 -1.523662498852e+02  -2.276399614862e+02   1.691018086253e+02 
8
Step 39000
1 1 -1.014644586066e+01  -4.177436368374e+02  -2.244346716661e+02 
2 1 -5.320455440534e+02  -2.489646773206e+02  -7.466580187466e+01 
3 1  2.349125583132e+02  -1.308711218945e+01  -1.137948608038e+02 
4 1  3.918447319610e+02   2.771618253360e+02   3.725702481662e+01 
5 1 -4.674542760677e+02  -1.017819335946e+02   6.291517506175e+01 
6 1  3.775830132284e+02  -2.683216815913e+02  -2.283992020042e+02 
7 1 -6.741598559505e+01  -1.492177305041e+02   2.904190780726e+02 
8 1  3.404711807810e+02  -1.649919121211e+02   3.852733318727e+02 
8
Step 40000
1 1 -6.496666703493e+02  -4.507701090227e+02   9.506837538810e+01 
2 1 -1.576523649883e+02  -3.603462124540e+02   9.992937902313e+01 
3 1 -8.663055625767e+01  -2.553587871323e+02  -1.545263333482e+01 
4 1  4.835953786405e+02  -1.871494534923e+02  -8.834903731310e+00 
5 1 -1.165055766703e+02  -1.151339701188e+02  -3.163566576047e+02 
6 1  5.149496402793e+02  -8.172770885889e+01  -2.040585029672e+02 
7 1 -1.861359980346e+02   7.092161119078e+01   3.670494634344e+02 
8 1  2.852536018718e+02  -2.963182458420e+02  -1.680249387537e+02 
8
Step 41000
1 1  7.027547991077e+00  -3.870423982613e+02  -1.352935325251e+02 
2 1 -4.112631691366e+02  -7.880148809902e+02   5.047577582592e+01 
3 1  6.769873994608e+01   3.836913980161e+02   9.614292759065e+01 
4 1  3.751547395669e+02   3.800094134737e+02  -8.279723151458e+01 
5 1  3.052990575637e+02   1.253603145095e+02  -2.169095325679e+01 
6 1 -1.422193297031e+02  -1.575150393739e+02   3.437518383570e+02 
7 1  9.461964235004e+01  -2.208952508420e+02  -8.110111763816e+01 
8 1  1.876859669698e+02  -3.087050551448e+02  -2.065046664277e+02 
8
Step 42000
1 1  2.351657515284e+02   1.995812758292e+02  -1.833939506511e+01 
2 1 -3.799625671543e+02  -2.761603004016e+02   5.552399388067e+02 
3 1  9.096275820819e+01   8.665051030793e+01   7.502672760926e+01 
4 1  4.551329512512e+02  -2.508594981954e+02  -3.433032428294e+02 
5 1 -3.751323857660e+01  -3.781434453134e+01  -3.328854029725e+02 
6 1 -5.896604191361e+02   3.188774053716e+02   2.246053139161e+02 
7 1 -3.304830486488e+02  -2.222168476662e+02   1.252396826298e+02 
8 1  9.253322846294e+02  -1.216104844715e+02  -3.134888733317e+02 
8
Step 43000
1 1  2.225104754808e+02  -4.901185889108e+02  -8.889201426662e+01 
2 1 -2.232509252018e+01  -2.091864041009e+02   3.225447737218e+02 
3 1  3.036874103176e+02  -2.539264187227e+02   8.936289471200e+02 
4 1  1.929693294264e+02   5.387885526498e+02  -8.387773842440e+01 
5 1 -2.227558229449e+02   9.882220000183e+01  -3.162083765846e+02 
6 1 -8.643450639430e+00   2.489346732315e+02   4.930916810800e+02 
7 1  1.292763796143e+02  -5.452425337640e+01   3.665976100781e+02 
8 1  2.682649450470e+02  -1.481726229053e+02  -2.262830342564e+02 
8
Step 44000
1 1 -2.572781739858e+02   1.289426587781e+02   5.058491501529e+02 
2 1 -3.520886097788e+02   5.485004288530e+02   3.524757828820e+01 
3 1  2.579985519736e+02  -1.988719039861e+02   2.493862491546e+01 
4 1  7.779473923785e+01   9.557534307243e+01  -3.444544768795e+02 
5 1 -6.005022941263e+02   1.508782246822e+02   1.059239163074e+02 
6 1 -1.942908887606e+02   2.934669574250e+00   1.887784710383e+02 
7 1  2.364007510207e+01  -2.859423807829e+02   1.114250341418e+02 
8 1 -3.248078351058e+02  -1.956333965068e+02  -7.195849546796e+02 
8
Step 45000
1 1  4.039562500396e+02  -2.570599921017e+02   1.860941984670e+02 
2 1  1.119652410734e+01   1.171337995874e+01   1.945478549599e+02 
3 1  3.932893907398e+02  -2.446391132143e-01  -1.096567719575e+02 
4 1 -2.951580182359e+02  -6.835027918273e+02   6.800128220394e+02 
5 1 -4.319623033073e+02   2.516934450299e+02  -1.148822122691e+02 
6 1 -2.879802688139e+01  -2.763643679290e+02   1.582727388682e+02 
7 1 -2.474863099064e+01  -2.417665210169e+02   3.607551295271e+02 
8 1 -2.379378173645e+02  -1.727988479739e+02  -2.553027800722e+02 
8
Step 46000
1 1  9.076858848601e+01   1.720243399388e+02   5.111425882433e+02 
2 1 -2.513388802490e+02  -4.561519516754e+00  -2.919817915428e+02 
3 1 -2.710979580568e+02   1.895660065956e+02  -3.270975789206e+02 
4 1 -2.188427839225e+02  -2.974735452233e+02   3.480565364781e+02 
5 1 -1.041693035559e+02  -7.772602030730e+01  -6.310696329006e+01 
6 1 -1.916403842537e+01  -1.320297142354e+02  -6.954226420570e+01 
7 1 -2.811477435797e+02  -2.508169414024e+02  -7.524242030351e+01 
8 1 -6.460499924123e+01  -4.089297302458e+01   2.505521050838e+02 
8
Step 47000
1 1  4.106783404266e+02  -1.511836806278e+02  -3.452980853435e+02 
2 1  2.012896626182e+02  -1.611170163162e+02   8.016637358178e+00 
3 1 -2.929570264201e+02  -2.089091748131e+02  -1.800693189929e+02 
4 1 -1.868446580497e+02  -6.783312555200e+00   2.440572594510e+02 
5 1 -2.417716043241e+02   6.428590214363e+01   2.940515388788e+02 
6 1 -8.579255380937e+01   1.274413738730e+02  -4.075430998201e+01 
7 1 -5.596071382264e+02  -5.031315793720e+02   4.939637353113e+02 
8 1  4.997445088986e+02  -4.805510156578e+02   3.149018587900e+01 
8
Step 48000
1 1 -2.637756235523e+01   1.120682771704e+02   8.218556894000e+01 
2 1 -2.898844038812e+02  -2.783910915047e+01  -2.310312377471e+02 
3 1 -9.719824782302e+01  -7.291754968955e+01  -2.850679795094e+02 
4 1 -1.719767314040e+01  -1.404977006457e+02   2.710174059731e+02 
5 1  1.306718273810e+02  -9.669189650288e+01   3.426016101305e+02 
6 1  1.741477039722e+02  -3.166146590614e+02   1.826998858028e+00 
7 1 -4.051053270227e+01  -1.504579502186e+02   9.083216090339e+01 
8 1 -1.237652007635e+02  -3.443612823414e+02   3.235721270061e+02 
8
Step 49000
1 1  4.931000392057e+02   2.448603791289e+01  -3.715832475744e+01 
2 1 -3.058018814916e+02   3.346316523045e+02   1.857290899225e+02 
3 1  1.865765445521e+02  -1.079379441582e+02  -3.920651103210e+02 
4 1 -2.092100301266e+02   1.047191858410e+02   4.249651415139e+02 
5 1 -2.478678348965e+01  -3.042732584408e+02  -4.612209245383e+01 
6 1  3.356971065352e+02  -8.463221607541e+01  -3.418883329317e+01 
7 1 -3.578885341319e+02  -1.722759488841e+02   1.228812148209e+02 
8 1  3.310458985415e+02  -2.223671215022e+02   1.550646599480e+02 
8
Step 50000
1 1 -2.200629427127e+02   3.473736239300e+02   1.300541679147e+02 
2 1 -2.706584972882e+02  -2.289241259555e+02   1.393191934261e+02 
3 1  3.227332121586e+02  -2.928997907744e+02   2.205470840420e+02 
4 1  4.953190998260e+01   1.932400946195e+02   2.269518165935e+02 
5 1 -2.532563578583e+02  -1.268447023183e+02  -3.527278097960e+02 
6 1  2.307192664288e+02  -1.289639434908e+02   2.045734387942e+02 
7 1  2.059734299874e+02  -9.020826439198e+01   4.942719294786e+02 
8 1 -3.183226482365e+02  -3.752857608242e+01  -7.489157951121e+00 
8
Step 51000
1 1 -1.090412329583e+02   4.999813974054e+01  -7.255030657757e+01 
2 1 -3.606311735125e+02  -3.508830341920e+02  -8.031568226647e+01 
3 1  2.750627653900e+02  -3.908116175748e+02   2.947558872979e+02 
4 1  3.417728507703e+02   1.501744122318e+02  -2.351762570279e+02 
5 1  4.808925099955e+02  -3.400101673193e+02  -2.956580221440e+02 
6 1  2.577273960779e+02  -1.753163803275e+02   1.701744229227e+01 
7 1  1.559185724251e+02  -4.846997394288e+01   4.377036858139e+02 
8 1 -6.075899323551e+02   5.059967071080e+01   1.005141431362e+01 
8
Step 52000
1 1 -7.945590929083e+02   6.704607901358e+01   3.599551022797e+02 
2 1  4.488762868414e+02  -1.677486139104e+02   1.281691182788e+02 
3 1  3.955008687761e+01  -3.495953222713e+02  -3.534185031661e+02 
4 1  1.991057277315e+02   1.678136466575e+00  -6.759218249659e+00 
5 1  2.067202334471e+02  -2.429823953600e+02  -3.007225302327e+02 
6 1  2.257394435993e+02   3.851213230912e+02  -3.636422341055e+02 
7 1 -9.487274935381e+01   2.833136038143e+02  -2.311865558616e+02 
8 1  5.620840111247e+01  -9.506453526309e+01  -1.593127802910e+02 
8
Step 53000
1 1  1.135643937772e+02   8.415148132330e+01   1.527595581202e+02 
2 1  1.120041105151e+00  -2.141991936547e+02  -2.704974420511e+02 
3 1  5.681948856789e+01   1.472694650002e+02  -1.334136865298e+02 
4 1 -2.370836970460e+02  -5.251617299050e+01   1.170591399627e+02 
5 1 -2.772430597503e+02  -2.180683791788e+02  -3.211980008462e+02 
6 1  1.839885065422e+02  -2.558828628620e+02  -1.906666166040e+02 
7 1  3.087718299677e+02   5.905148231620e+01  -2.462521209186e+02 
8 1 -7.191020014843e+01  -6.140441594383e+01   6.385152548705e+01 
8
Step 54000
1 1 -2.389039916520e+02  -2.027505460704e+02   2.817576036650e+02 
2 1 -3.849267944173e+02  -8.357031502661e+01  -7.123946645354e+01 
3 1 -5.058000656905e+01  -2.187729355735e+02   2.084527088296e+02 
4 1 -2.599241367037e+02  -4.666561274504e+02  -2.196516720880e+02 
5 1  1.273615425142e+02  -3.447526547324e+02  -4.806729628243e+02 