8
Step 0
1 1 6.71506416711662238e-03 6.49167539545825092e-04 7.55905881043412303e-03
2 1 6.80187192990081620e-03 -7.14529034888187076e-03 2.80830314334164525e-05
3 1 1.35396276929549840e-03 3.61703981870044712e-03 5.96866704044804290e-03
4 1 3.90406982196184627e-03 -5.04516060726575063e-03 5.82195370525365099e-03
5 1 -7.94816050768093821e-03 4.04532223788039817e-03 -3.88696007944830738e-03
6 1 1.09199370770444292e-02 1.25505674945915018e-02 -1.18654993095461160e-02
7 1 1.56996477508037388e-03 5.52022631513145005e-03 -6.57327494686332260e-03
8 1 2.28840723532842873e-03 7.40181392547528683e-03 -2.57480642140814515e-04
8
Step 1000
1 1 2.20521062931991300e-03 -2.56821575847619634e-03 1.39865932417623136e-02
2 1 2.74269011546398678e-03 3.29874817317952649e-03 -4.61431528841449532e-03
3 1 -7.40094406478632345e-03 1.66695529411536869e-02 -3.31934968615693691e-03
4 1 -7.86863220934197818e-03 2.98553975863066149e-03 1.00096877883212535e-02
5 1 -1.66824528779429063e-02 1.40931007271277511e-02 -7.26007573625210827e-03
6 1 1.66397784215286983e-02 -4.15012875729771098e-03 -1.67197077222107221e-02
7 1 -2.55478568291508945e-03 1.75361342501239408e-02 2.85077009092501998e-03
8 1 1.57950090654137253e-02 7.69025925854837245e-03 -1.20119327297079975e-03
8
Step 2000
1 1 -2.49183522455308096e-03 -5.81653889176559670e-03 1.43271176158907415e-02
2 1 -1.27075681076353622e-03 1.12639914900346718e-02 -9.12592983577781292e-03
3 1 -1.49552464435761239e-02 2.12958483574115474e-02 -1.16344075185709460e-02
4 1 -1.63089479408685435e-02 1.09294277893504255e-02 1.30129623155330488e-02
5 1 -1.78845548331941044e-02 1.89020810275296325e-02 -8.56799233265687944e-03
6 1 1.56286644836793782e-02 -2.03263589970815416e-02 -1.46062920571152638e-02
7 1 -5.69334508608009601e-03 2.19612779968999632e-02 1.19158870011725551e-02
8 1 2.09344075142218755e-02 2.62065617948747812e-03 -1.10110094623779280e-03
8
Step 3000
1 1 -5.53133485230417055e-03 -8.73780658809569441e-03 8.44859513244984595e-03
2 1 -2.66395790039048418e-03 1.29205883114439628e-02 -1.25558067613135305e-02
3 1 -1.72843769561561757e-02 1.39176985169968213e-02 -1.70822115242273316e-02
4 1 -1.69462134503621312e-02 1.53136290294571976e-02 1.21071843500377939e-02
5 1 -1.07637081568251938e-02 1.46723597945077836e-02 -9.04724504963638938e-03
6 1 8.95676608949456596e-03 -2.50519739322368519e-02 -5.40182984551719394e-03
7 1 -7.36377290548237071e-03 1.58340050988613722e-02 1.66430434385348054e-02
8 1 1.48196582523851435e-02 -4.70310947381896542e-03 4.13950720705149374e-04
8
Step 4000
1 1 -4.86304580112870144e-03 -9.71112286288832068e-03 -1.57337793543932273e-03
2 1 -1.15084687381499938e-03 7.15476022967871921e-03 -1.18724513689171061e-02
3 1 -1.29732743262708696e-02 1.30525098023556935e-03 -1.69639915438715878e-02
4 1 -9.92162598525480992e-03 1.33394513043049358e-02 6.48538284771065909e-03
5 1 -1.06034652151566536e-04 4.10162658424433665e-03 -9.16365102969811038e-03
6 1 -5.37278756601581897e-05 -1.54643639682145711e-02 5.98896161727824859e-03
7 1 -7.36802481916624952e-03 4.56211097006059291e-03 1.43436984944932903e-02
8 1 2.95138437611867834e-03 -1.00049283093511018e-02 3.34891419392874690e-03
8
Step 5000
1 1 -1.20066763456256004e-04 -7.72724368642500620e-03 -1.08622386368935585e-02
2 1 1.19666726632994052e-03 -2.37931706166116894e-03 -6.67701060261239199e-03
3 1 -4.91652299959459416e-03 -9.50886812398594149e-03 -1.10692397643751255e-02
4 1 -1.35421913690005183e-04 5.98078082957779773e-03 -1.93378926017250376e-03
5 1 8.90061057087278111e-03 -7.46896868404656970e-03 -8.14671282721292703e-03
6 1 -7.84355932759792096e-03 -1.48591112095346548e-03 1.39949648132468765e-02
7 1 -5.92008699012930815e-03 -5.66717482207599287e-03 6.76694972800189701e-03
8 1 -7.88230174343928711e-03 -9.83851732023756365e-03 6.88127574090885343e-03
8
Step 6000
1 1 5.63298321233669016e-03 -3.55351956838767307e-03 -1.42823374091203478e-02
2 1 2.59984313112014524e-03 -1.01237985853743304e-02 8.97197936132437162e-04
3 1 3.40549744551549294e-03 -1.44326064158545684e-02 -2.40138559991863974e-03
4 1 7.81212165502952801e-03 -3.40644038730972222e-03 -1.05087125889518993e-02
5 1 1.26050956013898131e-02 -1.52929265324832902e-02 -5.05443410273592394e-03
6 1 -1.17974974548708308e-02 9.55845645481567981e-03 1.51375582360689636e-02
7 1 -3.57252416276091552e-03 -1.16533015104114141e-02 -1.92034687126405403e-03
8 1 -1.33812983481887485e-02 -3.73036529242437792e-03 9.80262431883495607e-03
8
Step 7000
1 1 8.95054006243707276e-03 1.65823268987672729e-03 -1.05534409400142668e-02
2 1 1.38103181147433609e-03 -1.20851435911034141e-02 9.53681865944828663e-03
3 1 9.87289631854024186e-03 -1.18747912679561928e-02 6.15460315589930976e-03
4 1 1.12413278043055585e-02 -1.11409246948686782e-02 -1.58358433919687305e-02
5 1 1.01361868674244501e-02 -1.57900284531240151e-02 4.15525849233268319e-04
6 1 -1.12573925746863607e-02 1.41576879356738339e-02 9.37717580577846280e-03
7 1 -7.04816980422051848e-04 -1.21908016531839716e-02 -8.21791914411084540e-03
8 1 -1.18993227246475212e-02 5.60650769627063679e-03 1.02102837665140663e-02
8
Step 8000
1 1 8.01561319674462189e-03 6.87043454142066169e-03 -3.07066933643604162e-03
2 1 -2.88461331658646175e-03 -8.02185266525422616e-03 1.67101747488172837e-02
3 1 1.24148445707330645e-02 -4.31749378963950173e-03 1.22627284524691287e-02
4 1 9.56338746350503255e-03 -1.38909964352217207e-02 -1.48996733230020457e-02
5 1 4.15179879515414820e-03 -9.84398364459646708e-03 7.46328335910550773e-03
6 1 -7.32657508135849816e-03 1.18208454028776097e-02 8.48324818331753182e-04
7 1 2.51889020415831935e-03 -8.47564805935343071e-03 -9.97056948056650183e-03
8 1 -5.54890607648569813e-03 1.40960401246454127e-02 6.54046784883644764e-03
8
Step 9000
1 1 3.02347654797788549e-03 1.05859451937334731e-02 4.36763734308618420e-03
2 1 -8.60539487942131413e-03 -5.65424159179128021e-04 1.71900165919954238e-02
3 1 1.03553112481899173e-02 4.06047377236252484e-03 1.39465320165523213e-02
4 1 4.75840792142844839e-03 -1.03663829782978580e-02 -8.38366726501633269e-03
5 1 -1.61826242443249228e-03 -1.78679533335886253e-03 1.38938428042576292e-02
6 1 -2.23055110646591193e-03 5.17354803033490910e-03 -6.09697538182982657e-03
7 1 5.93291262575938554e-03 -3.15718250700943110e-03 -7.19940753819682012e-03
8 1 2.01189248086126437e-03 1.71583882779159508e-02 -1.38340400288723036e-03
8
Step 10000
1 1 -4.92505390354215210e-03 1.14120731076516654e-02 8.62824915999762035e-03
2 1 -1.23741628329318270e-02 6.90656797112726688e-03 9.56628064159923373e-03
3 1 5.77637034201306139e-03 9.92992516078986670e-03 1.10409263179185400e-02
4 1 -1.24070250513992196e-04 -3.13677810587116015e-03 -2.70998883214107911e-04
5 1 -4.62028077832316291e-03 5.00512643146463349e-03 1.63996242889127251e-02
6 1 2.08670041603588362e-03 -2.61547912030858382e-03 -9.07449483635408387e-03
7 1 9.17513012681117797e-03 1.52575040089981029e-03 -2.33912339416470156e-03
8 1 7.88777229042564136e-03 1.23175488289987804e-02 -1.25916275562498736e-02
8
Step 11000
1 1 -1.37119862148603854e-02 9.25535438326163286e-03 7.49187325833083288e-03
2 1 -1.06059765315945475e-02 1.09145095457949086e-02 -7.27485463149368295e-04
3 1 1.43824592747681420e-03 1.11266236213958831e-02 5.58140374256160376e-03
4 1 -2.99241397286722577e-03 3.65790725677029140e-03 5.86761202389051665e-03
5 1 -4.24898166070882422e-03 8.64559098799185140e-03 1.25722653936738687e-02
6 1 4.77179583954713202e-03 -8.42789821908968180e-03 -7.66418064702186711e-03
7 1 1.14440395298724736e-02 4.31162952724457524e-03 1.68540210947895337e-03
8 1 1.00722500816868687e-02 2.02182114089068327e-03 -2.39942906265197507e-02
8
Step 12000
1 1 -1.87539175852182126e-02 4.99322944668437185e-03 2.69560363757571876e-03
2 1 -2.07736903023840848e-03 9.49431857951722573e-03 -8.62202398831258751e-03
3 1 -1.73813634191377414e-03 7.51638444355297568e-03 -2.47165916325806664e-04
4 1 -3.34123242524109014e-03 7.12272580759153867e-03 8.38477628985833529e-03
5 1 -1.79536084652120575e-03 8.41114724739071284e-03 3.43732255823031227e-03
6 1 5.72939055786640412e-03 -9.54484944662111444e-03 -3.42038876165738637e-03
7 1 1.11974790569249714e-02 4.82353652694815071e-03 3.21745874957781158e-03
8 1 8.04922860019387752e-03 -9.17800692367606169e-03 -2.72303898827695491e-02
8
Step 13000
1 1 -1.51559224120133701e-02 -5.74739042835559428e-04 -1.87284929294199943e-03
2 1 1.08261728917981564e-02 4.29149333350246475e-03 -1.18846381364892742e-02
3 1 -3.95952979624769521e-03 6.51641529613892459e-04 -5.32339830404327061e-03
4 1 -2.02586489395333415e-03 6.73291587169763672e-03 7.60070634128274907e-03
5 1 5.34541635637440066e-04 5.11003476845670046e-03 -7.70144785378106510e-03
6 1 5.20875889987694896e-03 -5.70199531160486307e-03 1.14887676607421064e-03
7 1 6.77269605536542571e-03 3.46219154250084231e-03 2.34817562063481793e-03
8 1 3.12429395929073863e-03 -1.69385980419552509e-02 -1.70287636669542719e-02
8
Step 14000
1 1 -3.81871740053879322e-03 -6.87894051654276348e-03 -4.12032701657292274e-03
2 1 2.12766920879733437e-02 -1.49792487443392119e-03 -1.01612908245890202e-02
3 1 -5.15234404291840028e-03 -7.00239821945509641e-03 -9.11610631467047079e-03
4 1 -4.60400210202755291e-04 3.87132729905860853e-03 4.90187220294004133e-03
5 1 9.77175306735343554e-04 7.22157223071443768e-04 -1.68504937852665439e-02
6 1 3.38738273045557144e-03 1.01019992371760743e-03 4.05345247336128499e-03
7 1 -1.85178113973900817e-03 1.08315317567009555e-03 4.08420260725402039e-04
8 1 -2.63462546977360264e-03 -1.74888171646125322e-02 -3.89935911172543232e-04
8
Step 15000
1 1 9.72240953619347287e-03 -1.24071807956212220e-02 -3.85138564156101929e-03
2 1 2.06283334931656008e-02 -5.60074770132319363e-03 -5.17812859132193038e-03
3 1 -5.23729964160349511e-03 -1.22564918439326456e-02 -1.09700558484367803e-02
4 1 2.75526949936749600e-04 2.36466140249928596e-04 1.60259012913965371e-03
5 1 -8.14852324047219204e-04 -2.83470326632807900e-03 -1.90989638420549640e-02
6 1 7.81550719277098057e-04 7.78759696884354785e-03 4.50945520419148479e-03
7 1 -1.20924516916877823e-02 -1.23829509489109188e-03 -1.17006519302171111e-03
8 1 -7.09330596044745621e-03 -1.13205670391288912e-02 1.47123484544600010e-02
8
Step 16000
1 1 1.93937594154740753e-02 -1.38534303315453484e-02 -1.41414791790925483e-03
2 1 9.65320156748172148e-03 -6.82984573847918251e-03 2.26017369077151505e-04
3 1 -4.53409677374257570e-03 -1.24626388120833570e-02 -1.00264771051689610e-02
4 1 -3.35587974148573748e-04 -2.85602962018032761e-03 -1.19289213509554096e-03
5 1 -3.76368082250735491e-03 -4.35886301696996551e-03 -1.24564893676737971e-02
6 1 -1.49638747515973541e-03 1.09061287027919940e-02 2.84485724662537822e-03
7 1 -1.91504076455153195e-02 -2.56665793251251335e-03 -1.70015637277755750e-03
8 1 -8.64089990438705532e-03 -3.18092400061384091e-03 2.20065297429248297e-02
8
Step 17000
1 1 1.98234544741324806e-02 -9.90967809274148799e-03 2.03947190976404551e-03
2 1 -4.36402593514656142e-03 -5.10563214200044496e-03 4.09342824414993776e-03
3 1 -3.15744860807169476e-03 -7.79943554965507446e-03 -5.71137002427172646e-03
4 1 -1.79825592211610647e-03 -4.55149668088022409e-03 -2.76323018880838623e-03
5 1 -5.57140585175917337e-03 -3.40192018636783621e-03 -9.56820382515657215e-04
6 1 -2.81705623729744002e-03 8.30062522128812569e-03 2.72079949897523210e-04
7 1 -1.88890653941138457e-02 -2.56362334487034420e-03 -1.19730477922845688e-03
8 1 -7.05076296832923399e-03 3.09799691963299605e-03 1.85884815306514954e-02
8
Step 18000
1 1 1.18021593484236645e-02 -3.13439932602663620e-03 4.25905583481518604e-03
2 1 -1.60167137786731140e-02 -1.71293134341068964e-03 6.11594662608918975e-03
3 1 -8.64204171941541986e-04 -1.67068965319778682e-04 1.51592178016968595e-03
4 1 -3.00831332647516492e-03 -4.38880722546376636e-03 -2.82450061919140970e-03
5 1 -4.22887205856751439e-03 -7.38678589282947950e-04 9.90853585263294125e-03
6 1 -3.03082395823189334e-03 1.43284340084681239e-03 -1.77164819038065570e-03
7 1 -1.19511011816461812e-02 -1.45775218102711266e-03 -8.92469924644929284e-06
8 1 -3.41897811772824255e-03 6.41361819942701337e-03 1.11659768052501263e-02
8
Step 19000
1 1 1.26751821028119353e-03 3.60097160750221792e-03 4.53694107485731919e-03
2 1 -1.96465889522374100e-02 1.05304746625549590e-03 5.45894317042361094e-03
3 1 1.97053474328177328e-03 8.07648351280173225e-03 9.49609404972988520e-03
4 1 -3.49456832851191860e-03 -2.03261806279547578e-03 -1.41318023713775907e-03
5 1 3.29171053483183441e-04 1.92310385392655773e-03 1.54771465193811481e-02
6 1 -2.17045484343537150e-03 -6.68778113599828410e-03 -2.26749980358044315e-03
7 1 -2.19117816965103129e-03 4.60483676039961508e-04 1.38113842687940776e-03
8 1 7.26106356706993712e-04 7.56468441646026505e-03 5.34012019606286067e-03
8
Step 20000
1 1 -6.87882396351940147e-03 7.95490882507304126e-03 2.79624986212815858e-03
2 1 -1.36216952894965600e-02 2.18914632685394440e-03 2.57101386622797436e-03
3 1 4.33897841613227996e-03 1.37295873137657266e-02 1.48632748558480982e-02
4 1 -2.90703111646381171e-03 2.15574007198908544e-03 6.35004506094402382e-04
5 1 6.11205853746805451e-03 3.21387880692627003e-03 1.32441903927689123e-02
6 1 -5.44195407979920168e-04 -1.26170604225760014e-02 -1.18651841944577402e-03
7 1 6.84731153073527520e-03 2.44291293216169917e-03 2.33466722202863106e-03
8 1 3.88416222391793154e-03 7.94460648730743908e-03 6.61296865373184480e-04
8
Step 21000
1 1 -9.97829243020407174e-03 8.51646233308046841e-03 -3.69775270295457270e-04
2 1 -3.07393850772871889e-03 2.08017033300327567e-03 -8.53560920749377844e-04
3 1 5.18480165345611404e-03 1.40792031953266387e-02 1.46320383600578603e-02
4 1 -1.06145474530601903e-03 6.74555549733082439e-03 2.03848694974908227e-03
5 1 1.02951411979992288e-02 2.52548872435892982e-03 5.43648211639816224e-03
6 1 1.12676672869084873e-03 -1.32884237481242229e-02 3.14996796856336833e-04
7 1 1.28891415793823561e-02 3.39462678504243859e-03 2.34182226809309278e-03
8 1 5.04524379850835973e-03 8.08560773400449420e-03 -3.71341945873791476e-03
8
Step 22000
1 1 -8.30252323565518202e-03 6.27047012307482918e-03 -3.33769624639565455e-03
2 1 6.94938525476156144e-03 7.40121450510223904e-04 -3.71190780549001710e-03
3 1 4.25845703918121231e-03 9.34200610569204878e-03 8.69252004766166673e-03
4 1 1.65967946192586090e-03 9.62977210401358766e-03 2.01680109070642797e-03
5 1 1.04467592661306001e-02 -4.90850874083021727e-06 -3.18090368191169173e-03
6 1 2.07840144211983392e-03 -8.38855317760689445e-03 8.35634852849727501e-04
7 1 1.44943987039157351e-02 2.72012111144969218e-03 1.32406293033226975e-03
8 1 4.19888705141621948e-03 7.56512394420808150e-03 -7.16855099813502178e-03
8
Step 23000
1 1 -4.42411138831884810e-03 3.26229469717242504e-03 -4.77669585093698414e-03
2 1 1.29682068914961281e-02 -1.04277337725214997e-03 -4.97050253464842180e-03
3 1 2.26156509563091431e-03 1.82315613364066715e-03 -1.77432500260148754e-04
4 1 4.61294134195170801e-03 8.75195461073217246e-03 4.79877118945353865e-04
5 1 6.10174146421705362e-03 -3.35486926960503699e-03 -8.75951699241777314e-03
6 1 1.82628705162382436e-03 -5.06217532351502502e-04 -3.69255298539196484e-04
7 1 1.18685622475275237e-02 6.33889327779679594e-04 -3.08950675220126775e-04
8 1 2.40567789631166568e-03 5.59425505742915455e-03 -8.46206989147109401e-03
8
Step 24000
1 1 -8.19655416398192699e-04 6.86039636594190823e-04 -4.58470382963497604e-03
2 1 1.24451997141395258e-02 -1.55451129003840276e-03 -3.98655260524957439e-03
3 1 2.37696702890023646e-05 -5.91319206389522359e-03 -8.58399492383275960e-03
4 1 7.24950696461287153e-03 3.49921905939328459e-03 -1.81048732353720110e-03
5 1 -8.30691640611424414e-04 -5.93289276779530774e-03 -9.32670740957111319e-03
6 1 5.38185197011233009e-04 7.20477746872147124e-03 -2.68765832370030039e-03
7 1 6.90790441006032107e-03 -2.02921722534988788e-03 -1.85476603873600647e-03
8 1 1.11332459499307538e-03 1.81110879957437185e-03 -7.00618746835915754e-03
8
Step 25000
1 1 1.05280705684518351e-03 -1.09877639491916626e-03 -3.31996585510016800e-03
2 1 6.44963547747529151e-03 -1.52229291931066949e-04 -1.34104996968578086e-03
3 1 -1.59333505979619879e-03 -1.13880027972193005e-02 -1.34650390631492842e-02
4 1 8.50842824183763342e-03 -4.64248770679407449e-03 -3.39449480966741175e-03
5 1 -7.44599757158864381e-03 -6.11772771932681675e-03 -5.48887935224634440e-03
6 1 -1.17143780106851447e-03 1.21764751170958408e-02 -4.44490859498354943e-03
7 1 1.55753492004251609e-03 -4.12438010663777020e-03 -2.63838367396044583e-03
8 1 1.20265924215419255e-03 -3.13685132401698118e-03 -3.44685843184897337e-03
8
Step 26000
1 1 7.57748058993150462e-04 -1.96037861889591285e-03 -1.51444250749606466e-03
2 1 -1.17138647780665227e-03 2.28278803744587150e-03 1.69728283971293053e-03
3 1 -1.97082940226979246e-03 -1.25480970444411689e-02 -1.28442704423828956e-02
4 1 7.29268104741107905e-03 -1.28050712434566675e-02 -3.36703470230501675e-03
5 1 -1.10611020235607694e-02 -3.02219032542929995e-03 1.67978988199064323e-04
6 1 -2.46101540940707117e-03 1.27851972845744784e-02 -3.89395036098626364e-03
7 1 -3.13809423555721188e-03 -4.43871687945523487e-03 -2.27005105072383738e-03
8 1 2.35884424902434468e-03 -7.85120749882458994e-03 6.94372997797354247e-04
8
Step 27000
1 1 -6.00130281881855248e-04 -2.22293086946036928e-03 3.04513116394052128e-04
2 1 -7.26314608988118480e-03 4.65192056214685980e-03 3.99355516888516299e-03
3 1 -1.41930076727470565e-03 -9.34993078785793796e-03 -7.62023497404140573e-03
4 1 3.59979181255822706e-03 -1.68806041937258205e-02 -1.38294077244782211e-03
5 1 -1.01959607016340031e-02 2.79862201359556192e-03 4.81586629030365115e-03
6 1 -2.61066951004602877e-03 9.33091777405260954e-03 -7.36303188325381983e-04
7 1 -6.64756461020284215e-03 -2.40751508910204198e-03 -9.06750394345904351e-04
8 1 3.26597631845644554e-03 -1.06407960806085885e-02 3.81546410265445673e-03
8
Step 28000
1 1 -1.31004905299469867e-03 -2.29844010261069783e-03 1.85424273025581576e-03
2 1 -9.50406676464854439e-03 5.49599100099005047e-03 4.49044466815920734e-03
3 1 -1.00668132627630279e-03 -3.64171612775246022e-03 -8.98331431947853396e-04
4 1 -2.06251323631990351e-03 -1.37971007696289678e-02 2.27445660145303994e-03
5 1 -5.50977468081712083e-03 9.31026655679359494e-03 6.47912876621987294e-03
6 1 -1.16056647885862292e-03 3.63285874119332686e-03 3.94383055023244441e-03
7 1 -8.44734647251126070e-03 1.30271304045344403e-03 7.28324330708011894e-04
8 1 2.24006428815112530e-03 -1.00030005877268392e-02 4.92398421952731750e-03
8
Step 29000
1 1 -3.77377372950568190e-04 -2.24559835983608900e-03 3.10714382051884095e-03
2 1 -7.18237375229719213e-03 3.60054096430931963e-03 2.87456860847346484e-03
3 1 -1.61042514795290727e-03 2.32423700571354796e-03 4.35101237737034290e-03
4 1 -8.68263515593562657e-03 -4.88529730503179608e-03 6.09444958173587480e-03
5 1 6.96684979994441431e-04 1.32561589743768610e-02 4.76075103965356832e-03
6 1 1.75881894097305413e-03 -2.15771330806814729e-03 8.52511734834431219e-03
7 1 -8.07387004365303466e-03 5.03149408558383349e-03 1.72384334152844709e-03
8 1 -1.63075675257057131e-03 -5.98738736085760361e-03 3.87109858339619800e-03
8
Step 30000
1 1 2.05502076549093915e-03 -1.76344532662203214e-03 4.24595626731297769e-03
2 1 -1.89960173701320882e-03 -7.56905307201119460e-04 -1.44594058836868298e-04
3 1 -3.13527438069144621e-03 6.80553533833635430e-03 6.59945354126009655e-03
4 1 -1.39980252009211832e-02 6.12162867959445238e-03 7.81823047788221016e-03
5 1 5.83912361078467272e-03 1.14396175572268732e-02 8.99201899222688036e-04
6 1 5.07337481306868385e-03 -6.47765722501758654e-03 1.05567485580233596e-02
7 1 -5.51806832892453528e-03 6.83622034574912340e-03 1.48823252967284218e-03
8 1 -7.41753293028119421e-03 -3.30491853408885691e-04 1.40160444587785274e-03
8
Step 31000
1 1 4.84658797056834994e-03 -6.14564205856010792e-04 5.20722649877557956e-03
2 1 3.55849513186565908e-03 -5.60174397814781466e-03 -3.40047035460024722e-03
3 1 -4.58573713394850365e-03 8.62793617255181236e-03 5.72540159331204855e-03
4 1 -1.48996514827081511e-02 1.53831581203610242e-02 6.02386476070397060e-03
5 1 8.06071241222501740e-03 3.54947137805254696e-03 -3.06621428003472874e-03
6 1 7.11109814566612212e-03 -8.55626519691406184e-03 8.19359421783652682e-03
7 1 -1.44672793522052047e-03 5.29556718161355595e-03 -4.12623089495805579e-05
8 1 -1.21136615237135842e-02 4.79760314870234048e-03 -1.12197344352569584e-03
8
Step 32000
1 1 6.38103449586171611e-03 9.32779964887387120e-04 5.33489788159463227e-03
2 1 6.87481902772433227e-03 -8.37855232040095148e-03 -5.74955472716765555e-03
3 1 -4.54196453023366850e-03 7.58295491544968680e-03 3.06979416464326933e-03
4 1 -1.04227001434105994e-02 1.87806593128885362e-02 6.54850871516843508e-04
5 1 6.84428932235069381e-03 -7.55800452595020624e-03 -5.23100009576350517e-03
6 1 6.40483850189679273e-03 -8.35777492971364645e-03 2.10963509712853992e-03
7 1 2.95065364721130898e-03 6.28190716310809754e-04 -2.17699576279332778e-03
8 1 -1.20481544408326466e-02 7.61816238444436994e-03 -2.36916419265542806e-03
8
Step 33000
1 1 5.34160896083485728e-03 2.21475205130814388e-03 3.86967391717660128e-03
2 1 6.79956904894400607e-03 -7.60227911539596707e-03 -6.19814481447669447e-03
3 1 -2.05272585584471458e-03 4.49812888050181436e-03 5.53933741433477816e-04
4 1 -2.26553569974472869e-03 1.47016089091127587e-02 -7.10634071397374043e-03
5 1 3.04955846772635717e-03 -1.71999018025009581e-02 -4.70280859747504356e-03
6 1 2.36289786946239540e-03 -6.21750100998826136e-03 -4.93937396646128117e-03
7 1 6.19655045955327770e-03 -5.21132993620616099e-03 -3.60279159754674618e-03
8 1 -6.09322746455914343e-03 7.26525094466380032e-03 -1.73565693844256164e-03
8
Step 34000
1 1 1.68783147416963703e-03 2.48323474369343926e-03 5.85108775322468752e-04
2 1 3.66577640673809669e-03 -3.92049983424602472e-03 -4.14637152580228218e-03
3 1 2.79109937382507637e-03 5.52285138713354187e-04 -2.47540552394058208e-04
4 1 6.96824056114927950e-03 5.55022441665845891e-03 -1.41622427841363845e-02
5 1 -1.41811413020655240e-03 -1.93647916245448144e-02 -1.97184011084435397e-03
6 1 -5.12726775412975996e-03 -2.84246834601858912e-03 -1.04049107336844568e-02
7 1 6.94114664925138056e-03 -9.24485569312286613e-03 -2.84261380136955830e-03
8 1 3.17321020094952317e-03 4.34062456394793822e-03 4.69783375308196235e-04
8
Step 35000
1 1 -3.31851044901714746e-03 1.35263220612823025e-03 -4.05007252560963486e-03
2 1 -7.29153402121243601e-04 6.55732199373785618e-04 2.08240084671580699e-04
3 1 8.44836241814733539e-03 -2.98125465575229710e-03 1.21916873117662149e-03
4 1 1.42562874669621108e-02 -5.03517776245983491e-03 -1.60301206296784154e-02
5 1 -4.51590523429807374e-03 -1.20707884970524901e-02 1.53702585965576717e-03
6 1 -1.51458586262010822e-02 5.02393008632957046e-04 -1.25430798071628925e-02
7 1 4.68538323043525030e-03 -8.76002808123317253e-03 9.97103458775987737e-04
8 1 1.13488545420256486e-02 5.35351873065813321e-04 3.22184056808736893e-03
8
Step 36000
1 1 -7.66366576872776727e-03 -8.80679696196524789e-04 -8.92398508503868503e-03
2 1 -4.28932027235495120e-03 4.09095530272136042e-03 5.73744089342154411e-03
3 1 1.17141950635333888e-02 -5.15266415108341785e-03 3.75201437832481475e-03
4 1 1.63246682231920938e-02 -1.34506483058585927e-02 -1.03651157908614643e-02
5 1 -5.09707117928140125e-03 1.37219995623825004e-04 4.02549302602445321e-03
6 1 -2.26014705718864777e-02 2.93878367979652153e-03 -1.02731638602731809e-02
7 1 2.07509015467125229e-04 -3.40110826784344525e-03 7.24182719101697757e-03
8 1 1.41285205910685989e-02 -2.38760008226982087e-03 5.07382629524052216e-03
8
Step 37000
1 1 -9.01782703081333535e-03 -3.08820617115354709e-03 -1.18232016143892602e-02
2 1 -5.76770189322679989e-03 5.09597516301356704e-03 1.05424605534608935e-02
3 1 9.74632264719789941e-03 -5.51355473462894138e-03 5.11251026152643485e-03
4 1 1.21105406106029982e-02 -1.62302172968232065e-02 8.03564617560669154e-04
5 1 -3.03116075324036567e-03 1.17625853612664064e-02 3.99137684361528834e-03
6 1 -1.95521121660649985e-02 4.26932529568497480e-03 -4.65373262034853366e-03
7 1 -4.84016001729140142e-03 4.39808578714297703e-03 1.30605713774259967e-02
8 1 1.03324061826043263e-02 -3.35739815239075815e-03 4.55190105732897719e-03
8
Step 38000
1 1 -6.30519107777213848e-03 -3.63421733158867657e-03 -1.04731472870851373e-02
2 1 -5.02706834382139409e-03 3.90896762073278999e-03 1.21857491343001674e-02
3 1 2.99872328551220981e-03 -4.21169952026562416e-03 3.23658523799616156e-03
4 1 4.27295186725507210e-03 -1.23480003886227551e-02 1.34766217337102014e-02
5 1 1.03570613324522817e-03 1.76699546876356965e-02 1.46429131132569889e-03
6 1 -5.89917831299019164e-03 4.47886575566943095e-03 1.69355433192819294e-03
7 1 -8.36927188936036417e-03 1.07500515497725244e-02 1.42184522721087430e-02
8 1 2.63998000572616661e-03 -2.23415856597417592e-03 7.56745937152595292e-04
8
Step 39000
1 1 -1.00028980420741693e-03 -1.29774844575292485e-03 -4.66072455889393524e-03
2 1 -2.78559241012899840e-03 2.07114331249588779e-03 9.08723198842373119e-03
3 1 -5.14994671039669966e-03 -1.80668967449567068e-03 -2.11517331983469272e-03
4 1 -3.35912392660062380e-03 -4.38038591511393221e-03 2.19823005257940990e-02
5 1 4.99500289817446982e-03 1.48551186602912926e-02 -1.80783219875868062e-03
6 1 1.18597063668437509e-02 3.47522090598027366e-03 6.46256089123163711e-03
7 1 -8.39807768027466851e-03 1.15347486382640207e-02 7.86457422012913458e-03
8 1 -4.91027598895933930e-03 4.53846777042833877e-04 -5.93569868473848346e-03
8
Step 40000
1 1 3.86481465559465566e-03 3.29323547773639584e-03 3.56550665308571438e-03
2 1 1.06376854761014477e-04 9.69602722336119593e-04 2.17948788314899699e-03
3 1 -1.16189300661757155e-02 6.98519565887880485e-04 -9.20427592776216705e-03
4 1 -8.16810981313711819e-03 3.88074797514013350e-03 2.05508715848308314e-02
5 1 6.21116053119808408e-03 6.40430730075615233e-03 -3.95297173621713543e-03
6 1 2.71741812731817398e-02 2.50483400737520814e-03 8.52302794504593980e-03
7 1 -4.33513208420474583e-03 5.58413678294279042e-03 -4.95643435217386994e-03
8 1 -8.84790847132070624e-03 2.83950742968982822e-03 -1.27386824693836078e-02
8
Step 41000
1 1 6.05964697884992052e-03 7.95520588399665184e-03 1.12098947242229002e-02
2 1 2.66011664879681545e-03 1.12956673770781110e-03 -5.49021415601354517e-03
3 1 -1.34789900316511814e-02 2.47013647670229217e-03 -1.54928894605733947e-02
4 1 -9.01804926926048044e-03 9.24078024138706190e-03 1.06834554745945925e-02
5 1 3.25154829931602720e-03 -3.21389298234793161e-03 -3.92365103784971057e-03
6 1 2.97882129507038608e-02 2.19121981193177735e-03 8.04268473294933797e-03
7 1 2.34912101548963650e-03 -3.54002399032008223e-03 -1.94868785941366904e-02
8 1 -8.06492590109026374e-03 3.19720991234946237e-03 -1.49233641740744508e-02
8
Step 42000
1 1 4.84512569199989102e-03 9.83628631546279615e-03 1.51139973919148102e-02
2 1 4.21997886514180291e-03 2.36418001034949992e-03 -1.14228863181906580e-02
3 1 -8.67123977071858863e-03 3.07746154994559566e-03 -1.68230818755520095e-02
4 1 -6.42127632820028126e-03 9.86091910357600465e-03 -1.59925800772923597e-03
5 1 -2.41949766579380686e-03 -1.08441021108261326e-02 -5.70071403436696929e-04
6 1 1.69220187476657458e-02 2.13718664018068463e-03 5.89625789322198272e-03
7 1 1.04657685548591728e-02 -1.15315658586935821e-02 -2.70119478003157734e-02
8 1 -3.63977584138409308e-03 1.05528105794030895e-03 -9.83902914337626139e-03
8
Step 43000
1 1 1.28718506395105879e-03 7.02542208098333194e-03 1.34217975117518571e-02
2 1 5.00486146056960783e-03 3.29078529550041110e-03 -1.38788037354618081e-02
3 1 6.82905532568727327e-04 2.39347012069320150e-03 -1.01210646242892548e-02
4 1 -2.41937481539071476e-03 5.69317554052491646e-03 -1.22422771805697772e-02
5 1 -7.70881183858717831e-03 -1.35470909489603455e-02 5.93183440031533858e-03
6 1 1.65579898338817080e-03 1.67346386691945032e-03 3.01507645719489067e-03
7 1 1.61956902932788062e-02 -1.40353355855520560e-02 -2.11506864651231641e-02
8 1 2.50680074944046065e-03 -2.99930520853947374e-03 3.33536230550048344e-04
8
Step 44000
1 1 -2.85560774979282074e-03 -9.21848618540266058e-04 7.36966443062889599e-03
2 1 6.19847631777483039e-03 2.26876649255187751e-03 -1.26193755446752810e-02
3 1 9.83145508120604819e-03 1.05546407433573276e-03 2.82757809627066231e-03
4 1 6.38697170656047481e-04 -9.41290883191641899e-04 -1.78252502030639276e-02
5 1 -9.35509179208839949e-03 -1.01050563657430117e-02 1.17889916464317922e-02
6 1 -9.32556416206810346e-03 3.30360833626816423e-04 -1.10571617388164554e-04
7 1 1.47025038799830782e-02 -8.09530983491428026e-03 -7.17347034597052083e-03
8 1 7.61951297430215300e-03 -8.00346777154495315e-03 1.14909804116875482e-02
8
Step 45000
1 1 -4.07162387523846668e-03 -1.10763947912981640e-02 -3.75454438328700322e-04
2 1 7.27537670129194732e-03 -1.36605689719476991e-03 -8.51970194680578760e-03
3 1 1.39160697061498032e-02 -1.66808066206190059e-04 1.70451950059919317e-02
4 1 1.73640868614995114e-03 -6.50136163659884719e-03 -1.65568084411835716e-02
5 1 -5.63881079345085034e-03 -2.67927453771886915e-03 1.23836073439377772e-02
6 1 -1.58847561808057973e-02 -2.52504071201208220e-03 -2.75366574671113929e-03
7 1 6.79134244521521508e-03 2.72706664229075031e-03 7.51493149585773755e-03
8 1 8.99058300944721028e-03 -1.04447296423156172e-02 1.82930977463967442e-02
8
Step 46000
1 1 -3.22516688940332260e-04 -1.79981995325935104e-02 -8.06030057712911474e-03
2 1 6.36606754041791224e-03 -6.61588862111376057e-03 -2.50018554242136285e-03
3 1 1.09962640828494360e-02 -9.75025559065287469e-04 2.49818656297644930e-02
4 1 1.21738444508990716e-03 -7.65367655073324622e-03 -1.05239969818623682e-02
5 1 1.54067786715217435e-03 5.38642317176736812e-03 5.88434500846156654e-03
6 1 -1.75343627849219759e-02 -5.89906367354433702e-03 -4.29412369797007708e-03
7 1 -3.47700609852037408e-03 1.16979906779438037e-02 1.84045767563281275e-02
8 1 6.01028896121069776e-03 -7.38356661631420219e-03 1.67698023204760349e-02
8
Step 47000
1 1 5.53670635197489255e-03 -1.68211522690611438e-02 -1.34628388534619465e-02
2 1 3.51848000823000960e-03 -1.12132890554249368e-02 4.45030023645749239e-03
3 1 2.30138358059197310e-03 -1.10834470020004534e-03 2.02322220983001712e-02