8
Step 0
1 1  1.469048722732e+02   1.420178156270e+01   1.653688693684e+02 
2 1  1.488039581176e+02  -1.563168928746e+02   6.143700258254e-01 
3 1  2.962052524532e+01   7.912966419224e+01   1.305760075253e+02 
4 1  8.540899450366e+01  -1.103725379480e+02   1.273663727056e+02 
5 1 -1.738812132140e+02   8.849916126937e+01  -8.503468616110e+01 
6 1  2.388945096594e+02   2.745676688807e+02  -2.595804920320e+02 
7 1  3.434598225971e+01   1.207655089455e+02  -1.438029618860e+02 
8 1  5.006328521197e+01   1.619288367544e+02  -5.632881519100e+00 
8
Step 1000
1 1  4.824320032892e+01  -5.618463183368e+01   3.059834787254e+02 
2 1  6.000159210247e+01   7.216642566359e+01  -1.009469725386e+02 
3 1 -1.619098068880e+02   3.646783537324e+02  -7.261712316360e+01 
4 1 -1.721413795774e+02   6.531439253492e+01   2.189810654735e+02 
5 1 -3.649605645229e+02   3.083135336801e+02  -1.588280427685e+02 
6 1  3.640269791672e+02  -9.079200434059e+01  -3.657755854970e+02 
7 1 -5.589082324365e+01   3.836364773394e+02   6.236604828565e+01 
8 1  3.455460337478e+02   1.682391301124e+02  -2.627840031750e+01 
8
Step 2000
1 1 -5.451366156432e+01  -1.272479133038e+02   3.134331007159e+02 
2 1 -2.780023575794e+01   2.464213580018e+02  -1.996471699354e+02 
3 1 -3.271746202168e+02   4.658874144815e+02  -2.545249171050e+02 
4 1 -3.567894296374e+02   2.391021371436e+02   2.846834399917e+02 
5 1 -3.912588440032e+02   4.135191756834e+02  -1.874412199113e+02 
6 1  3.419069278621e+02  -4.446779804232e+02  -3.195405755828e+02 
7 1 -1.245528131769e+02   4.804449605843e+02   2.606828191607e+02 
8 1  4.579802047242e+02   5.733186634387e+01  -2.408868922788e+01 
8
Step 3000
1 1 -1.210085294430e+02  -1.911562315455e+02   1.848291777908e+02 
2 1 -5.827917430998e+01   2.826625819724e+02  -2.746822878611e+02 
3 1 -3.781288050083e+02   3.044762748491e+02  -3.737060495117e+02 
4 1 -3.707308315282e+02   3.350149247461e+02   2.648678145535e+02 
5 1 -2.354767032172e+02   3.209859337032e+02  -1.979257897415e+02 
6 1  1.959463894331e+02  -5.480598456124e+02  -1.181753597208e+02 
7 1 -1.610966166826e+02   3.463991465655e+02   3.640984076590e+02 
8 1  3.242083692008e+02  -1.028895151772e+02   9.055963761357e+00 
8
Step 4000
1 1 -1.063884282405e+02  -2.124493866772e+02  -3.442065167077e+01 
2 1 -2.517697654056e+01   1.565240646297e+02  -2.597325816277e+02 
3 1 -2.838151893170e+02   2.855486169067e+01  -3.711197613271e+02 
4 1 -2.170545450993e+02   2.918260110826e+02   1.418801541095e+02 
5 1 -2.319710823783e+00   8.973092653701e+01  -2.004723932001e+02 
6 1 -1.175400043088e+00  -3.383125398357e+02   1.310199902100e+02 
7 1 -1.611896354269e+02   9.980490322563e+01   3.137958391489e+02 
8 1  6.456717821492e+01  -2.188769427678e+02   7.326390331789e+01 
8
Step 5000
1 1 -2.626690097196e+00  -1.690482352108e+02  -2.376322459237e+02 
2 1  2.617938526553e+01  -5.205211154235e+01  -1.460723777662e+02 
3 1 -1.075583442405e+02  -2.080246774197e+02  -2.421607915097e+02 
4 1 -2.962613377702e+00   1.308410198321e+02  -4.230533874272e+01 
5 1  1.947178800570e+02  -1.633979755421e+02  -1.782249249663e+02 
6 1 -1.715928623334e+02  -3.250714780984e+01   3.061666228636e+02 
7 1 -1.295132260076e+02  -1.239802885971e+02   1.480399681569e+02 
8 1 -1.724404267809e+02  -2.152363840937e+02   1.505410683557e+02 
8
Step 6000
1 1  1.232322817372e+02  -7.774003722417e+01  -3.124534480436e+02 
2 1  5.687654110260e+01  -2.214774574139e+02   1.962792088522e+01 
3 1  7.450177017073e+01  -3.157408699791e+02  -5.253490302629e+01 
4 1  1.709051031165e+02  -7.452239882600e+01  -2.298981874508e+02 
5 1  2.757605755105e+02  -3.345620180280e+02  -1.105754133984e+02 
6 1 -2.580928213968e+02   2.091095170021e+02   3.311630393776e+02 
7 1 -7.815579907537e+01  -2.549382593143e+02  -4.201126077466e+01 
8 1 -2.927414952067e+02  -8.160887568277e+01   2.144511560370e+02 
8
Step 7000
1 1  1.958101831830e+02   3.627701172217e+01  -2.308767056803e+02 
2 1  3.021271231679e+01  -2.643856307954e+02   2.086361488427e+02 
3 1  2.159884904368e+02  -2.597837713946e+02   1.346437156829e+02 
4 1  2.459255465286e+02  -2.437290364729e+02  -3.464393627432e+02 
5 1  2.217484747783e+02  -3.454370733277e+02   9.090422710591e+00 
6 1 -2.462769941071e+02   3.097265024002e+02   2.051436560766e+02 
7 1 -1.541921952018e+01  -2.666971029911e+02  -1.797826993417e+02 
8 1 -2.603204439300e+02   1.226530791847e+02   2.233694861679e+02 
8
Step 8000
1 1  1.753568698011e+02   1.503038963814e+02  -6.717676487313e+01 
2 1 -6.310643357749e+01  -1.754933701087e+02   3.655670334707e+02 
3 1  2.715984703298e+02  -9.445343453505e+01   2.682706392967e+02 
4 1  2.092173922485e+02  -3.038921157384e+02  -3.259588519119e+02 
5 1  9.082853961291e+01  -2.153559703942e+02   1.632735981850e+02 
6 1 -1.602828431332e+02   2.586036024160e+02   1.855872795579e+01 
7 1  5.510554099009e+01  -1.854210123098e+02  -2.181252776714e+02 
8 1 -1.213929335797e+02   3.083778386228e+02   1.430852438679e+02 
8
Step 9000
1 1  6.614433236197e+01   2.315877983999e+02   9.555042067413e+01 
2 1 -1.882594721600e+02  -1.236973494478e+01   3.760644915633e+02 
3 1  2.265422397174e+02   8.883063006586e+01   3.051070628005e+02 
4 1  1.040992744856e+02  -2.267844549899e+02  -1.834087565059e+02 
5 1 -3.540258571615e+01  -3.908956544464e+01   3.039543855051e+02 
6 1 -4.879757173414e+01   1.131812583888e+02  -1.333829979029e+02 
7 1  1.297938113180e+02  -6.906940594949e+01  -1.575008098986e+02 
8 1  4.401399607999e+01   3.753725616987e+02  -3.026460854114e+01 
8
Step 10000
1 1 -1.077449740810e+02   2.496609266166e+02   1.887594532600e+02 
2 1 -2.707084795052e+02   1.510943842671e+02   2.092806860530e+02 
3 1  1.263691494493e+02   2.172361054377e+02   2.415413807145e+02 
4 1 -2.714274033883e+00  -6.862302064796e+01  -5.928618898343e+00 
5 1 -1.010774790403e+02   1.094967137807e+02   3.587731481836e+02 
6 1  4.565056274389e+01  -5.721860827239e+01  -1.985219309454e+02 
7 1  2.007235204050e+02   3.337870825756e+01  -5.117279818915e+01 
8 1  1.725601054595e+02   2.694699398859e+02  -2.754659362633e+02 
8
Step 11000
1 1 -2.999759247827e+02   2.024785794564e+02   1.638990569132e+02 
2 1 -2.320260222287e+02   2.387757720323e+02  -1.591513593689e+01 
3 1  3.146438053535e+01   2.434161731376e+02   1.221038821820e+02 
4 1 -6.546477911936e+01   8.002371756543e+01   1.283652357545e+02 
5 1 -9.295460067445e+01   1.891388389164e+02   2.750423519237e+02 
6 1  1.043921608010e+02  -1.843763932249e+02  -1.676686106058e+02 
7 1  2.503602532435e+02   9.432514257883e+01   3.687139474176e+01 
8 1  2.203497353011e+02   4.423120450826e+01  -5.249210003140e+02 
8
Step 12000
1 1 -4.102778169969e+02   1.092364444837e+02   5.897148533836e+01 
2 1 -4.544642083183e+01   2.077063783061e+02  -1.886232657228e+02 
3 1 -3.802505693879e+01   1.644352859715e+02  -5.407227163359e+00 
4 1 -7.309584993525e+01   1.558232503757e+02   1.834330185455e+02 
5 1 -3.927695242796e+01   1.840099336802e+02   7.519800538190e+01 
6 1  1.253413768149e+02  -2.088118376723e+02  -7.482754619332e+01 
7 1  2.449662713120e+02   1.055240873001e+02   7.038806404348e+01 
8 1  1.760922710463e+02  -2.007864558388e+02  -5.957168610938e+02 
8
Step 13000
1 1 -3.315647908508e+02  -1.257351584094e+01  -4.097216040227e+01 
2 1  2.368432387684e+02   9.388462482708e+01  -2.599991904774e+02 
3 1 -8.662228751710e+01   1.425590482733e+01  -1.164595197384e+02 
4 1 -4.431966934082e+01   1.472954124551e+02   1.662799887632e+02 
5 1  1.169412067461e+01   1.117917843061e+02  -1.684839020331e+02 
6 1  1.139515635063e+02  -1.247420534052e+02   2.513387666558e+01 
7 1  1.481656800587e+02   7.574206197867e+01   5.137083295699e+01 
8 1  6.834990606362e+01  -3.705642299036e+02  -3.725367754064e+02 
8
Step 14000
1 1 -8.354174703509e+01  -1.504899808562e+02  -9.014003426172e+01 
2 1  4.654683344481e+02  -3.276997164542e+01  -2.222976718565e+02 
3 1 -1.127173806081e+02  -1.531908542397e+02  -1.994322616221e+02 
4 1 -1.007213518608e+01   8.469268918992e+01   1.072378300417e+02 
5 1  2.137757883647e+01   1.579857049408e+01  -3.686367807753e+02 
6 1  7.410547613155e+01   2.210005549774e+01   8.867702572087e+01 
7 1 -4.051125425479e+01   2.369604741878e+01   8.934974371424e+00 
8 1 -5.763747128734e+01  -3.826013255924e+02  -8.530593870727e+00 
8
Step 15000
1 1  2.126963042433e+02  -2.714308105911e+02  -8.425642729060e+01 
2 1  4.512842500988e+02  -1.225270682783e+02  -1.132814669214e+02 
3 1 -1.145759468203e+02  -2.681342015565e+02  -2.399909536436e+02 
4 1  6.027679018541e+00   5.173149096693e+00   3.505972428089e+01 
5 1 -1.782645312190e+01  -6.201455576726e+01  -4.178263638205e+02 
6 1  1.709791682300e+01   1.703685786988e+02   9.865295763480e+01 
7 1 -2.645455094735e+02  -2.709007363509e+01  -2.559741403126e+01 
8 1 -1.551796349493e+02  -2.476590563479e+02   3.218607621243e+02 
8
Step 16000
1 1  4.242755808320e+02  -3.030702853693e+02  -3.093719048482e+01 
2 1  2.111822475566e+02  -1.494159386846e+02   4.944562242368e+00 
3 1 -9.919203909961e+01  -2.726440607733e+02  -2.193483638917e+02 
4 1 -7.341628799340e+00  -6.248111054779e+01  -2.609679704925e+01 
5 1 -8.233771662453e+01  -9.535846550806e+01  -2.725095299151e+02 
6 1 -3.273633809578e+01   2.385924250619e+02   6.223669350735e+01 
7 1 -4.189517954156e+02  -5.615055141114e+01  -3.719417247127e+01 
8 1 -1.890362124901e+02  -6.958879653143e+01   4.814349290796e+02 
8
Step 17000
1 1  4.336759820996e+02  -2.167931620984e+02   4.461734883724e+01 
2 1 -9.547141421807e+01  -1.116954684316e+02   8.955157216683e+01 
3 1 -6.907522741919e+01  -1.706275702972e+02  -1.249471431754e+02 
4 1 -3.934028774388e+01  -9.957269534831e+01  -6.045094549300e+01 
5 1 -1.218851591982e+02  -7.442351078480e+01  -2.093227593717e+01 
6 1 -6.162849325449e+01   1.815920529684e+02   5.952269299753e+00 
7 1 -4.132344338080e+02  -5.608416400234e+01  -2.619333207953e+01 
8 1 -1.542489256266e+02   6.777460802387e+01   4.066585868808e+02 
8
Step 18000
1 1  2.581948092348e+02  -6.857098028907e+01   9.317499250147e+01 
2 1 -3.503962483955e+02  -3.747364938801e+01   1.337980301566e+02 
3 1 -1.890611918777e+01  -3.654953162072e+00   3.316368838031e+01 
4 1 -6.581260788955e+01  -9.601355234188e+01  -6.179135334698e+01 
5 1 -9.251466466483e+01  -1.616000697967e+01   2.167681734113e+02 
6 1 -6.630507101436e+01   3.134618993214e+01  -3.875819272069e+01 
7 1 -2.614531967113e+02  -3.189111714054e+01  -1.952448659086e-01 
8 1 -7.479668565929e+01   1.403101651671e+02   2.442770993036e+02 
8
Step 19000
1 1  2.772938517805e+01   7.877814133930e+01   9.925426362667e+01 
2 1 -4.298067105250e+02   2.303742744343e+01   1.194248229414e+02 
3 1  4.310921646725e+01   1.766885243889e+02   2.077452201129e+02 
4 1 -7.645036609836e+01  -4.446740782574e+01  -3.091602061710e+01 
5 1  7.201246386414e+00   4.207157504357e+01   3.385921825911e+02 
6 1 -4.748285103678e+01  -1.463080037844e+02  -4.960589515372e+01 
7 1 -4.793621343438e+01   1.007396116091e+01   3.021504473269e+01 
8 1  1.588496534570e+01   1.654919402601e+02   1.168253431096e+02 
8
Step 20000
1 1 -1.504874310359e+02   1.740288455641e+02   6.117331400220e+01 
2 1 -2.980006380948e+02   4.789176298697e+01   5.624584579257e+01 
3 1  9.492345183231e+01   3.003609824861e+02   3.251625658251e+02 
4 1 -6.359686582738e+01   4.716093726708e+01   1.389193811692e+01 
5 1  1.337129707814e+02   7.030974595077e+01   2.897419964413e+02 
6 1 -1.190531540896e+01  -2.760223288585e+02  -2.595735982868e+01 
7 1  1.497980362963e+02   5.344339284667e+01   5.107531090054e+01 
8 1  8.497347772004e+01   1.738034622207e+02   1.446713376442e+01 
8
Step 21000
1 1 -2.182942319661e+02   1.863139026113e+02  -8.089541291140e+00 
2 1 -6.724828424797e+01   4.550770468774e+01  -1.867327771105e+01 
3 1  1.134274529189e+02   3.080094985907e+02   3.201038252035e+02 
4 1 -2.322135275290e+01   1.475719284411e+02   4.459580095302e+01 
5 1  2.252259047848e+02   5.524989624019e+01   1.189334444243e+02 
6 1  2.465017730890e+01  -2.907096856930e+02   6.891157412204e+00 
7 1  2.819746245617e+02   7.426395368103e+01   5.123184121835e+01 
8 1  1.103743579155e+02   1.768881341793e+02  -8.123815315930e+01 
8
Step 22000
1 1 -1.816335756629e+02   1.371785272037e+02  -7.301848925951e+01 
2 1  1.520310942414e+02   1.619157232872e+01  -8.120508285323e+01 
3 1  9.316189270169e+01   2.043742516196e+02   1.901655018559e+02 
4 1  3.630866262792e+01   2.106696832307e+02   4.412138130884e+01 
5 1  2.285428400186e+02  -1.073830170015e-01  -6.958835202096e+01 
6 1  4.546900681638e+01  -1.835156451889e+02   1.828111068932e+01 
7 1  3.170926944679e+02   5.950785197288e+01   2.896640907985e+01 
8 1  9.185868528235e+01   1.655015557703e+02  -1.568257640667e+02 
8
Step 23000
1 1 -9.678589842910e+01   7.136893615292e+01  -1.044993579222e+02 
2 1  2.837043294891e+02  -2.281266209566e+01  -1.087392498142e+02 
3 1  4.947606206627e+01   3.988502749656e+01  -3.881675310785e+00 
4 1  1.009169148318e+02   1.914657466010e+02   1.049822981748e+01 
5 1  1.334872650710e+02  -7.339418198833e+01  -1.916311881646e+02 
6 1  3.995352231581e+01  -1.107447674093e+01  -8.078165914444e+00 
7 1  2.596474996587e+02   1.386754145833e+01  -6.758886937252e+00 
8 1  5.262880521958e+01   1.223850292749e+02  -1.851239639170e+02 
8
Step 24000
1 1 -1.793152995375e+01   1.500842920932e+01  -1.002991652412e+02 
2 1  2.722625471508e+02  -3.400790771720e+01  -8.721346314939e+01 
3 1  5.200070008090e-01  -1.293623863086e+02  -1.877913072007e+02 
4 1  1.585968306744e+02   7.655210973165e+01  -3.960787304445e+01 
5 1 -1.817296846693e+01  -1.297933768871e+02  -2.040395633808e+02 
6 1  1.177383054855e+01   1.576182873996e+02  -5.879766640067e+01 
7 1  1.511236214249e+02  -4.439300800198e+01  -4.057655462944e+01 
8 1  2.435610492406e+01   3.962146902144e+01  -1.532737513070e+02 
8
Step 25000
1 1  2.303216802775e+01  -2.403783522172e+01  -7.263060303776e+01 
2 1  1.410981120131e+02  -3.330306923482e+00  -2.933803305610e+01 
3 1 -3.485725193722e+01  -2.491343425376e+02  -2.945734835137e+02 
4 1  1.861381414989e+02  -1.015632980748e+02  -7.426106646728e+01 
5 1 -1.628954385213e+02  -1.338369949778e+02  -1.200797341764e+02 
6 1 -2.562744245762e+01   2.663836826124e+02  -9.724087710282e+01 
7 1  3.407405540671e+01  -9.022870335906e+01  -5.771968919209e+01 
8 1  2.631047119729e+01  -6.862462243494e+01  -7.540662085617e+01 
8
Step 26000
1 1  1.657718810295e+01  -4.288703182113e+01  -3.313132646123e+01 
2 1 -2.562631966310e+01   4.994035451069e+01   3.713130843940e+01 
3 1 -4.311566269620e+01  -2.745136230585e+02  -2.809929826167e+02 
4 1  1.595413463129e+02  -2.801354251656e+02  -7.366032409694e+01 
5 1 -2.419827628646e+02  -6.611619378362e+01   3.674861653118e+00 
6 1 -5.383941916025e+01   2.797006443030e+02  -8.518761193976e+01 
7 1 -6.865181350215e+01  -9.710542148301e+01  -4.966170856465e+01 
8 1  5.160422960844e+01  -1.717601807073e+02   1.519073742451e+01 
8
Step 27000
1 1 -1.312899775982e+01  -4.863086447474e+01   6.661806850402e+00 
2 1 -1.588952126267e+02   1.017696598275e+02   8.736665762243e+01 
3 1 -3.104991892033e+01  -2.045476191992e+02  -1.667072149564e+02 
4 1  7.875233106836e+01  -3.692955035512e+02  -3.025447448927e+01 
5 1 -2.230561417285e+02   6.122520935266e+01   1.053562862030e+02 
6 1 -5.711338884876e+01   2.041316731568e+02  -1.610804054040e+01 
7 1 -1.454281903622e+02  -5.266899732579e+01  -1.983689917922e+01 
8 1  7.144947866019e+01  -2.327877664613e+02   8.347057492142e+01 
8
Step 28000
1 1 -2.865982870935e+01  -5.028277337320e+01   4.056510625553e+01 
2 1 -2.079196385008e+02   1.202353150948e+02   9.823706579845e+01 
3 1 -2.202307944884e+01  -7.966950565008e+01  -1.965271827417e+01 
4 1 -4.512142192581e+01  -3.018379684633e+02   4.975808841316e+01 
5 1 -1.205368594545e+02   2.036798882806e+02   1.417433341150e+02 
6 1 -2.538961149116e+01   7.947573337796e+01   8.627883648324e+01 
7 1 -1.848018609664e+02   2.849933940373e+01   1.593348776920e+01 
8 1  4.900569077897e+01  -2.188347701702e+02   1.077215726973e+02 
8
Step 29000
1 1 -8.255851826939e+00  -4.912675918186e+01   6.797471397564e+01 
2 1 -1.571281632522e+02   7.876872019578e+01   6.288668637543e+01 
3 1 -3.523113030313e+01   5.084712996922e+01   9.518671775123e+01 
4 1 -1.899492509429e+02  -1.068752224479e+02   1.333277411949e+02 
5 1  1.524131645710e+01   2.900038320558e+02   1.041505346784e+02 
6 1  3.847752835194e+01  -4.720410558043e+01   1.865032476243e+02 
7 1 -1.766313497526e+02   1.100735566468e+02   3.771237021775e+01 
8 1 -3.567592304154e+01  -1.309855503398e+02   8.468768559735e+01 
8
Step 30000
1 1  4.495750979590e+01  -3.857873938671e+01   9.288841440738e+01 
2 1 -4.155742128459e+01  -1.655875129560e+01  -3.163271595961e+00 
3 1 -6.859012378354e+01   1.488841021840e+02   1.443756687091e+02 
4 1 -3.062335746974e+02   1.339223359449e+02   1.710387453005e+02 
5 1  1.277419972292e+02   2.502635141341e+02   1.967176141071e+01 
6 1  1.109897776640e+02  -1.417111413366e+02   2.309490661506e+02 
7 1 -1.207182988697e+02   1.495553954111e+02   3.255793306564e+01 
8 1 -1.622727200496e+02  -7.230141411026e+00   3.066277804277e+01 
8
Step 31000
1 1  1.060283817188e+02  -1.344476745391e+01   1.139180393013e+02 
2 1  7.784888719180e+01  -1.225488637394e+02  -7.439179294185e+01 
3 1 -1.003217707494e+02   1.887526060610e+02   1.252541105857e+02 
4 1 -3.259583741137e+02   3.365360065949e+02   1.317835632302e+02 
5 1  1.763435013991e+02   7.765147531779e+01  -6.707930199336e+01 
6 1  1.555688730313e+02  -1.871846663869e+02   1.792505450542e+02 
7 1 -3.164994067792e+01   1.158506607038e+02  -9.026919289349e-01 
8 1 -2.650095151162e+02   1.049567450493e+02  -2.454531502800e+01 
8
Step 32000
1 1  1.395973343302e+02   2.040634582046e+01   1.167110949921e+02 
2 1  1.503998154053e+02  -1.832968573093e+02  -1.257825065855e+02 
3 1 -9.936416132118e+01   1.658916423707e+02   6.715761881626e+01 
4 1 -2.280165006922e+02   4.108628434375e+02   1.432611531983e+01 
5 1  1.497319197074e+02  -1.653458048789e+02  -1.144381322062e+02 
6 1  1.401180924911e+02  -1.828423121480e+02   4.615230275898e+01 
7 1  6.455119212244e+01   1.374287343296e+01  -4.762594615828e+01 
8 1 -2.635764223856e+02   1.666618730948e+02  -5.182999811389e+01 
8
Step 33000
1 1  1.168579126865e+02   4.845193718439e+01   8.465651829890e+01 
2 1  1.487535781921e+02  -1.663143962051e+02  -1.355962727446e+02 
3 1 -4.490730425801e+01   9.840517264071e+01   1.211836007936e+01 
4 1 -4.956292662566e+01   3.216258140287e+02  -1.554647951137e+02 
5 1  6.671492424225e+01  -3.762807494501e+02  -1.028829329317e+02 
6 1  5.169291030871e+01  -1.360197265431e+02  -1.080582528468e+02 
7 1  1.355613931812e+02  -1.140078098436e+02  -7.881795710254e+01 
8 1 -1.333010050442e+02   1.589412603509e+02  -3.797081524561e+01 
8
Step 34000
1 1  3.692454174091e+01   5.432550959574e+01   1.280037357284e+01 
2 1  8.019587027197e+01  -8.576843244736e+01  -9.070980771533e+01 
3 1  6.106063721945e+01   1.208229374164e+01  -5.415423043903e+00 
4 1  1.524435901324e+02   1.214217747925e+02  -3.098261484222e+02 
5 1 -3.102395896483e+01  -4.236418550000e+02  -4.313777387941e+01 
6 1 -1.121687888285e+02  -6.218443173743e+01  -2.276273233294e+02 
7 1  1.518508589883e+02  -2.022489005292e+02  -6.218761385144e+01 
8 1  6.942004240992e+01   9.495946446429e+01   1.027740986954e+01 
8
Step 35000
1 1 -7.259876324600e+01   2.959141663113e+01  -8.860308289912e+01 
2 1 -1.595162529209e+01   1.434539605238e+01   4.555650144141e+00 
3 1  1.848240867203e+02  -6.522064771352e+01   2.667164784665e+01 
4 1  3.118835557343e+02  -1.101541441241e+02  -3.506895489039e+02 
5 1 -9.879406438008e+01  -2.640715856566e+02   3.362538048394e+01 
6 1 -3.313446262876e+02   1.099080796958e+01  -2.744038613968e+02 
7 1  1.025017196989e+02  -1.916423692100e+02   2.181354527809e+01 
8 1  2.482778995781e+02   1.171184616807e+01   7.048392470429e+01 
8
Step 36000
1 1 -1.676573466584e+02  -1.926655279288e+01  -1.952292422618e+02 
2 1 -9.383708495816e+01   8.949747184319e+01   1.255174933027e+02 
3 1  2.562704222573e+02  -1.127243835864e+02   8.208249084413e+01 
4 1  3.571333408807e+02  -2.942586581734e+02  -2.267567328411e+02 
5 1 -1.115081809980e+02   3.001949859119e+00   8.806535933353e+01 
6 1 -4.944503976312e+02   6.429151388206e+01  -2.247451084869e+02 
7 1  4.539656607009e+00  -7.440574851416e+01   1.584288209383e+02 
8 1  3.090884109499e+02  -5.223331846075e+01   1.109996547001e+02 
8
Step 37000
1 1 -1.972822143131e+02  -6.756041667454e+01  -2.586551490495e+02 
2 1 -1.261795105524e+02   1.114842035458e+02   2.306364887227e+02 
3 1  2.132194492841e+02  -1.206195553616e+02   1.118459404518e+02 
4 1  2.649412391727e+02  -3.550670462141e+02   1.757951295300e+01 
5 1 -6.631243904934e+01   2.573290525743e+02   8.731900259076e+01 
6 1 -4.277398501258e+02   9.339965659996e+01  -1.018093020665e+02 
7 1 -1.058877579464e+02   9.621653862532e+01   2.857249792804e+02 
8 1  2.260411475982e+02  -7.344950613615e+01   9.958154185656e+01 
8
Step 38000
1 1 -1.379381144970e+02  -7.950545514137e+01  -2.291201284482e+02 
2 1 -1.099767350808e+02   8.551614321959e+01   2.665865694767e+02 
3 1  6.560280740103e+01  -9.213898254429e+01   7.080649256005e+01 
4 1  9.347899478945e+01  -2.701361259961e+02   2.948268765859e+02 
5 1  2.265805261580e+01   3.865640553626e+02   3.203417312294e+01 
6 1 -1.290558087040e+02   9.798375494124e+01   3.704974020025e+01 
7 1 -1.830938301300e+02   2.351779388175e+02   3.110558384811e+02 
8 1  5.775461200270e+01  -4.887649181072e+01   1.655526477097e+01 
8
Step 39000
1 1 -2.188325267879e+01  -2.839072939908e+01  -1.019622640954e+02 
2 1 -6.094016185566e+01   4.531022134854e+01   1.988005805088e+02 
3 1 -1.126649343739e+02  -3.952479220807e+01  -4.627346197340e+01 
4 1 -7.348726074781e+01  -9.582932007089e+01   4.809048686127e+02 
5 1  1.092752421271e+02   3.249841334473e+02  -3.954978711158e+01 
6 1  2.594537603305e+02   7.602710422549e+01   1.413808801610e+02 
7 1 -1.837240119019e+02   2.523446884850e+02   1.720526033018e+02 
8 1 -1.074216789345e+02   9.928766301233e+00  -1.298547616870e+02 
8
Step 40000
1 1  8.455021265769e+01   7.204582490687e+01   7.800227762913e+01 
2 1  2.327197160381e+00   2.121191406898e+01   4.768046605763e+01 
3 1 -2.541863182308e+02   1.528145153245e+01  -2.013611405468e+02 
4 1 -1.786930249585e+02   8.489878449773e+01   4.495896226959e+02 
5 1  1.358810164424e+02   1.401064714501e+02  -8.647881741061e+01 
6 1  5.944871902512e+02   5.479803480077e+01   1.864575379308e+02 
7 1 -9.483930596468e+01   1.221636726677e+02  -1.084314814149e+02 
8 1 -1.935649208282e+02   6.211965602952e+01  -2.786830437538e+02 
8
Step 41000
1 1  1.325663676913e+02   1.740353442963e+02   2.452378877811e+02 
2 1  5.819513958437e+01   2.471143286160e+01  -1.201089355618e+02 
3 1 -2.948786876331e+02   5.403895995281e+01  -3.389365895406e+02 
4 1 -1.972870762042e+02   2.021597422276e+02   2.337210222975e+02 
5 1  7.113383814563e+01  -7.031005606523e+01  -8.583737105337e+01 
6 1  6.516741329442e+02   4.793712443892e+01   1.759491114342e+02 
7 1  5.139151527766e+01  -7.744479564153e+01  -4.263127409703e+02 
8 1 -1.764356795270e+02   6.994508200002e+01  -3.264771345916e+02 
8
Step 42000
1 1  1.059963915783e+02   2.151875765971e+02   3.306476008479e+02 
2 1  9.232010904901e+01   5.172095959292e+01  -2.498974862791e+02 
3 1 -1.896999550959e+02   6.732535753483e+01  -3.680370928207e+02 
4 1 -1.404777013814e+02   2.157264659512e+02  -3.498682775183e+01 
5 1 -5.293113910949e+01  -2.372354747271e+02  -1.247140230150e+01 
6 1  3.702015261305e+02   4.675504545991e+01   1.289919189358e+02 
7 1  2.289587045678e+02  -2.522750590943e+02  -5.909380227352e+02 
8 1 -7.962705817467e+01   2.308629153363e+01  -2.152475812038e+02 
8
Step 43000
1 1  2.815963521804e+01   1.536945452474e+02   2.936274918706e+02 
2 1  1.094909170355e+02   7.199222248410e+01  -3.036253771107e+02 
3 1  1.493986468930e+01   5.236173677863e+01  -2.214176467860e+02 
4 1 -5.292845152195e+01   1.245491040436e+02  -2.678232286077e+02 
5 1 -1.686450032855e+02  -2.963685254530e+02   1.297702230742e+02 
6 1  3.622376973788e+01   3.661022285200e+01   6.596056430960e+01 
7 1  3.543117019732e+02  -3.070498107232e+02  -4.627117204427e+02 
8 1  5.484106104515e+01  -6.561553808027e+01   7.296742983840e+00 
8
Step 44000
1 1 -6.247188132617e+01  -2.016720171120e+01   1.612255050636e+02 
2 1  1.356035250133e+02   4.963360639772e+01  -2.760729765825e+02 
3 1  2.150818841072e+02   2.309029536732e+01   6.185867904424e+01 
4 1  1.397272221701e+01  -2.059253843684e+01  -3.899614417897e+02 
5 1 -2.046605260380e+02  -2.210674355120e+02   2.579067405684e+02 
6 1 -2.040145526551e+02   7.227275102698e+00  -2.418965615994e+00 
7 1  3.216453932283e+02  -1.771003861935e+02  -1.569333842096e+02 
8 1  1.666914198311e+02  -1.750911653948e+02   2.513871748150e+02 
8
Step 45000
1 1 -8.907455989260e+01  -2.423173214087e+02  -8.213783954171e+00 
2 1  1.591627806442e+02  -2.988510742504e+01  -1.863847753578e+02 
3 1  3.044406414965e+02  -3.649245494952e+00   3.728962423754e+02 
4 1  3.798726116455e+01  -1.422297206784e+02  -3.622118521540e+02 
5 1 -1.233597712202e+02  -5.861425504702e+01   2.709150962475e+02 
6 1 -3.475094235524e+02  -5.524009511320e+01  -6.024170502862e+01 
7 1  1.485736055008e+02   5.965979874445e+01   1.644034999616e+02 
8 1  1.966861992373e+02  -2.284984381157e+02   4.001965016322e+02 
8
Step 46000
1 1 -7.055669434519e+00  -3.937450391660e+02  -1.763344917187e+02 
2 1  1.392699035532e+02  -1.447352175156e+02  -5.469634073898e+01 
3 1  2.405643088988e+02  -2.133054899446e+01   5.465260924026e+02 
4 1  2.663261317578e+01  -1.674388134088e+02  -2.302325627795e+02 
5 1  3.370527513296e+01   1.178383092648e+02   1.287313017964e+02 
6 1 -3.835977231499e+02  -1.290533007469e+02  -9.394216908080e+01 
7 1 -7.606615872677e+01   2.559159203291e+02   4.026353181956e+02 
8 1  1.314865666505e+02  -1.615296419656e+02   3.668715006478e+02 
8
Step 47000
1 1  1.211260412721e+02  -3.679948789880e+02  -2.945253497186e+02 
2 1  7.697347982705e+01  -2.453121452683e+02   9.735882957243e+01 
3 1  5.034716758391e+01  -2.424716020063e+01   4.426185557107e+02 
4 1 -1.026471656866e+00  -7.103756382301e+01  -6.269443108342e+01 
5 1  2.131723559778e+02   2.508668762949e+02  -1.421825086262e+02 
6 1 -2.963634661728e+02  -2.183479345100e+02  -1.224810128053e+02 
7 1 -3.166895515855e+02   3.425970422416e+02   4.826923364981e+02 
8 1  1.027369338238e+01   4.368504416893e+00   2.021294654358e+02 
8
Step 48000
1 1  2.020178135215e+02  -1.824859956709e+02  -2.940953445676e+02 
2 1 -3.134088801223e+01  -2.581019836043e+02   2.267325843735e+02 
3 1 -1.796417910769e+02  -1.155829452186e+01   1.651619444171e+02 
4 1 -3.344234559506e+01   1.124929243434e+02   1.014245838825e+02 
5 1  3.122432297829e+02   2.755180871188e+02  -4.646702145069e+02 
6 1 -1.151196875229e+02  -2.460164292822e+02  -1.405782712877e+02 
7 1 -4.464932330223e+02   2.616995306371e+02   3.934319460404e+02 
8 1 -1.402407666590e+02   1.900726974561e+02   2.072977360663e+01 
8
Step 49000
1 1  1.912080570742e+02   6.676915107040e+01  -1.780703251242e+02 
2 1 -2.017215448546e+02  -1.619068002244e+02   2.951254511642e+02 
3 1 -3.381593989189e+02   1.244941703080e+01  -1.049704098891e+02 
4 1 -4.135216696880e+01   2.862707952445e+02   2.239184562295e+02 
5 1  2.396962733108e+02   1.850501017320e+02  -5.930831447820e+02 
6 1  9.141783439961e+01  -1.705437609360e+02  -1.179199503552e+02 
7 1 -3.666439067528e+02   5.200063718520e+01   2.050613883638e+02 
8 1 -2.729046126364e+02   3.263667134837e+02  -1.211679297516e+02 
8
Step 50000
1 1  8.548580635821e+01   2.929391239452e+02  -5.040667607301e+01 
2 1 -3.864141127766e+02   6.564506193200e+00   3.058212392593e+02 
3 1 -3.251105524707e+02   4.065490508136e+01  -2.754436326236e+02 
4 1 -5.776390897224e+00   3.327773858108e+02   2.735695269913e+02 
5 1  1.656962322067e+01   2.095466148203e+01  -3.632638254883e+02 
6 1  2.488777478403e+02  -7.684309358187e+00  -4.408044042170e+01 
7 1 -1.617610827919e+02  -1.864569591762e+02   1.823753290290e+00 
8 1 -2.992140981639e+02   3.357459962805e+02  -2.025464075314e+02 
8
Step 51000
1 1 -1.063052584620e+02   3.896488988300e+02   7.143103398296e+01 
2 1 -4.449534036537e+02   2.201735050120e+02   2.119016353768e+02 
3 1 -1.451823856496e+02   5.852794664510e+01  -3.055497553510e+02 
4 1  6.388633397959e+01   2.013087123795e+02   2.437245846760e+02 
5 1 -2.416506973435e+02  -1.461155607532e+02   3.041906858961e+01 
6 1  2.934495629889e+02   1.905486882222e+02   5.700832238493e+01 
7 1  5.626574235222e+01  -3.427685649771e+02  -1.832459380526e+02 
8 1 -1.900516367614e+02   1.782127703812e+02  -2.029299963409e+02 
8
Step 52000
1 1 -2.929198020652e+02   3.172697389788e+02   1.715193087423e+02 
2 1 -3.090280255915e+02   3.626799184242e+02   4.254820088078e+01 
3 1  9.573869468426e+01   4.948525004850e+01  -2.239067676121e+02 
4 1  1.318701666072e+02  -3.979245392426e+01   1.464945221889e+02 
5 1 -4.070757100177e+02  -2.510568688051e+02   3.671813360616e+02 
6 1  2.214481523850e+02   3.651543041559e+02   1.602899047941e+02 
7 1  2.254707947882e+02  -3.357528422871e+02  -3.255682707137e+02 
8 1  1.877100372442e+00  -4.426752381429e+01  -1.500985577446e+02 
8
Step 53000
1 1 -3.655462103142e+02   1.425651238909e+02   2.000044057495e+02 
2 1 -5.466063468324e+01   3.446554064256e+02  -1.271033801200e+02 
3 1  2.898280899942e+02   1.137944223952e+00  -1.071439438010e+02 
4 1  1.675645544722e+02  -2.831394815667e+02   1.172231093799e+01 
5 1 -3.626042074390e+02  -2.467926576324e+02   4.901281209071e+02 
6 1  7.815929013040e+01   3.970009782810e+02   2.213864452784e+02 
7 1  2.869676411317e+02  -1.702963019430e+02  -3.726114220752e+02 
8 1  2.134510092411e+02  -2.170753548861e+02  -9.146778760291e+01 
8
Step 54000
1 1 -2.778550135334e+02  -3.373750627034e+01   1.416410975680e+02 
2 1  2.184745432550e+02   1.935803867575e+02  -2.465420026469e+02 
3 1  3.434436769149e+02  -7.705871222452e+01  -1.080312614901e+01 
4 1  1.361164134355e+02  -4.035519764758e+02  -1.147501334486e+02 
5 1 -1.307620764719e+02  -1.503957047686e+02   3.566547554458e+02 