8
Step 0
1 1  1.469048722732e+02   1.420178156270e+01   1.653688693684e+02 
2 1  1.488039581176e+02  -1.563168928746e+02   6.143700258254e-01 
3 1  2.962052524532e+01   7.912966419224e+01   1.305760075253e+02 
4 1  8.540899450366e+01  -1.103725379480e+02   1.273663727056e+02 
5 1 -1.738812132140e+02   8.849916126937e+01  -8.503468616110e+01 
6 1  2.388945096594e+02   2.745676688807e+02  -2.595804920320e+02 
7 1  3.434598225971e+01   1.207655089455e+02  -1.438029618860e+02 
8 1  5.006328521197e+01   1.619288367544e+02  -5.632881519100e+00 
8
Step 1000
1 1  4.989304727472e+01  -5.733327701140e+01   3.018681504832e+02 
2 1  6.175475024383e+01   7.238312119642e+01  -1.031174724635e+02 
3 1 -1.649563007405e+02   3.630369916188e+02  -7.298893775809e+01 
4 1 -1.748273800399e+02   6.537147240249e+01   2.201884820051e+02 
5 1 -3.561618084877e+02   3.085983770473e+02  -1.617882509960e+02 
6 1  3.479605288468e+02  -9.148037615735e+01  -3.471449521601e+02 
7 1 -5.731903900711e+01   3.777534408666e+02   6.227221386998e+01 
8 1  3.458890318048e+02   1.696700764020e+02  -2.706536758119e+01 
8
Step 2000
1 1 -5.577998061300e+01  -1.378324628561e+02   2.777723474424e+02 
2 1 -2.568927026067e+01   2.615706415503e+02  -2.136086068190e+02 
3 1 -3.384839186262e+02   3.968075892584e+02  -2.694152235526e+02 
4 1 -3.647658602364e+02   2.522796097466e+02   2.754993964766e+02 
5 1 -3.221472698282e+02   3.724418911679e+02  -1.979805041565e+02 
6 1  2.712580424212e+02  -4.436919633586e+02  -2.484994094653e+02 
7 1 -1.398693815716e+02   3.928573696972e+02   2.741716768737e+02 
8 1  3.985540173920e+02   6.737967524851e+01  -2.769032971423e+01 
8
Step 3000
1 1 -1.442165916344e+02  -2.209958595389e+02   1.236563708297e+02 
2 1 -7.142480362356e+01   3.047789933643e+02  -2.971593238289e+02 
3 1 -3.434748538129e+02   1.798616093008e+02  -3.867025002208e+02 
4 1 -3.250134841009e+02   3.557355604881e+02   2.208635055142e+02 
5 1 -1.361049665416e+02   2.134814769337e+02  -2.155976857165e+02 
6 1  1.132126629566e+02  -4.207230089867e+02  -5.051552044655e+01 
7 1 -2.063016645422e+02   1.985574980782e+02   3.749567614917e+02 
8 1  1.937558532091e+02  -8.389477714513e+01   6.417746010967e+00 
8
Step 4000
1 1 -1.778154860481e+02  -2.632798028958e+02  -6.069085514955e+01 
2 1 -7.345450748273e+01   1.586346913996e+02  -2.535386736121e+02 
3 1 -1.723091636996e+02  -1.695077057853e+01  -2.972524684462e+02 
4 1 -1.262231599900e+02   2.582677238730e+02   7.590601230215e+01 
5 1  2.978064528328e+01   1.829762734500e+01  -2.130870073023e+02 
6 1 -2.105606095861e+01  -1.585867041717e+02   1.263776970810e+02 
7 1 -2.375695555682e+02   3.733401296983e+01   2.487770582611e+02 
8 1 -4.458455018698e+00  -2.272171569483e+02   9.635176837597e+01 
8
Step 5000
1 1 -1.353084817486e+02  -2.391928688186e+02  -1.727406974502e+02 
2 1 -5.952883100931e+01  -4.251676090336e+01  -9.129597220262e+01 
3 1 -4.950744415445e+00  -1.509331921022e+02  -1.046658967331e+02 
4 1  3.427761067975e+01   5.112812702525e+01  -8.051185852974e+01 
5 1  1.307803094072e+02  -1.213415633959e+02  -1.650867450893e+02 
6 1 -1.072831679688e+02   1.182914273180e+01   2.175868482906e+02 
7 1 -2.191402796904e+02  -6.316112120626e+01   4.174981789047e+01 
8 1 -1.372420167769e+02  -3.060786719260e+02   2.677291480385e+02 
8
Step 6000
1 1 -1.922963174069e+01  -1.693485121780e+02  -1.472277045514e+02 
2 1 -4.059636906667e+01  -1.721975614791e+02   9.321152237609e+01 
3 1  8.892659173769e+01  -2.111077916646e+02   2.903347920799e+01 
4 1  1.089929492468e+02  -1.044563424085e+02  -1.794357568228e+02 
5 1  1.630292489703e+02  -1.919490302899e+02  -6.508956046527e+01 
6 1 -1.455194003397e+02   1.327517033491e+02   1.944049508875e+02 
7 1 -1.615779785586e+02  -1.188922676478e+02  -8.602846898895e+01 
8 1 -2.015139223154e+02  -2.562650758349e+02   4.336325411592e+02 
8
Step 7000
1 1  1.822590733527e+02  -6.529150333115e+01  -4.661492164906e+01 
2 1 -1.053842551549e+01  -1.750409652334e+02   2.313754511821e+02 
3 1  1.312633108286e+02  -1.729396401660e+02   1.122191505120e+02 
4 1  1.188543271361e+02  -1.540626830095e+02  -1.812912922367e+02 
5 1  1.374549002618e+02  -1.864728432690e+02   9.112695799765e+01 
6 1 -1.410917367325e+02   1.979743322459e+02   1.020963998028e+02 
7 1 -5.558531314905e+01  -1.295797756624e+02  -1.244863961549e+02 
8 1 -1.728576222299e+02  -5.525541709351e+01   3.298171360906e+02 
8
Step 8000
1 1  3.280865094448e+02   1.513034688946e+02   2.590013063805e+01 
2 1  2.144182024904e+01  -9.733012593760e+01   2.634869650479e+02 
3 1  1.459872999000e+02  -5.549595772890e+01   1.920155229966e+02 
4 1  9.242559215784e+01  -1.420337987357e+02  -1.387718149776e+02 
5 1  8.541268394996e+01  -1.191037829009e+02   3.257883064519e+02 
6 1 -1.086889484747e+02   1.674724003287e+02   6.822905081391e+00 
7 1  1.702551277694e+02  -1.024238293444e+02  -1.179174804051e+02 
8 1 -5.240181983613e+01   3.401405961125e+02   6.087157794895e+01 
8
Step 9000
1 1  2.635979838638e+02   4.568255462346e+02   4.533051535023e+01 
2 1  3.712917366884e+01  -1.984724418536e+01   1.899586018360e+02 
3 1  1.392927419315e+02   9.351401257273e+01   2.574454036247e+02 
4 1  4.958425420604e+01  -1.090848005338e+02  -9.840654584765e+01 
5 1  3.718123154807e+01  -2.234872835092e+01   4.867515398588e+02 
6 1 -6.411811144533e+01   4.611804733872e+01  -5.781872263628e+01 
7 1  4.052809242019e+02  -5.483383883093e+01  -8.859055204142e+01 
8 1  1.262056530923e+02   6.579857938660e+02  -2.213742299222e+02 
8
Step 10000
1 1  8.902271717359e+01   4.543139485087e+02   3.398578227845e+01 
2 1  3.796452543793e+01   3.015429015308e+01   6.340169320076e+01 
3 1  1.088517549521e+02   2.174777354304e+02   2.511510660938e+02 
4 1  7.816583972868e+00  -6.060688273790e+01  -4.732662193773e+01 
5 1 -6.623908281319e-01   6.763238761671e+01   3.084788928219e+02 
6 1 -1.315973001745e+01  -1.243649109288e+02  -8.147281193513e+01 
7 1  3.778206661477e+02  -4.269523101776e+00  -3.928261416988e+01 
8 1  2.885386987678e+02   3.267742746080e+02  -4.369885011222e+02 
8
Step 11000
1 1 -9.784766761875e+01   1.829238695893e+02   3.018031074165e+00 
2 1  4.515374985313e+01   5.237067619629e+01  -4.784916961231e+01 
3 1  5.567864904922e+01   2.457688153905e+02   1.532861347559e+02 
4 1 -8.978655095527e+00  -4.100007874572e-01   2.385746303608e+01 
5 1 -2.981127218136e+01   1.234661093583e+02   2.554855758756e+01 
6 1  4.165907708402e+01  -2.810032437633e+02  -6.854001766778e+01 
7 1  1.836836004650e+02   3.684530423421e+01   2.041826749285e+01 
8 1  3.012780811703e+02   3.394628269104e+00  -4.182761070325e+02 
8
Step 12000
1 1 -2.311170958544e+02  -4.540248942739e+01  -4.525685119067e+01 
2 1  6.454140307098e+01   4.533738268272e+01  -1.078333476057e+02 
3 1 -1.341669247670e+01   1.548131778730e+02  -3.225000786861e+00 
4 1  1.210634515667e+01   5.619105001963e+01   9.788093733972e+01 
5 1 -5.444302304896e+01   1.269841559172e+02  -1.886243705689e+02 
6 1  9.354425055603e+01  -3.071346165117e+02  -3.662404196211e+01 
7 1  5.623637760638e+00   6.205030263119e+01   6.904407641968e+01 
8 1  1.388536849482e+02  -1.963054449197e+02  -2.602945902514e+02 
8
Step 13000
1 1 -2.383346001371e+02  -1.788459229597e+02  -9.064729752199e+01 
2 1  8.574679811561e+01   1.860784846791e+01  -1.218529965610e+02 
3 1 -9.014919107132e+01  -4.885052266418e+00  -1.799014963442e+02 
4 1  5.291358858917e+01   8.852325620712e+01   1.534009830314e+02 
5 1 -8.379155837086e+01   7.455097343011e+01  -2.874120403411e+02 
6 1  1.296471498070e+02  -1.571501541527e+02  -8.496750660125e+00 
7 1 -1.127477077568e+02   6.831686264311e+01   8.464029342348e+01 
8 1 -8.154302535272e+01  -2.751457007296e+02  -1.126017861105e+02 
8
Step 14000
1 1 -1.303351358107e+02  -2.052486545517e+02  -1.135530065741e+02 
2 1  8.998222231449e+01  -7.583993077947e+00  -9.910427641840e+01 
3 1 -1.613487122459e+02  -1.802868556288e+02  -3.110453152098e+02 
4 1  8.333690827617e+01   7.186922656651e+01   1.662981591970e+02 
5 1 -1.134430069085e+02  -2.205008054021e+01  -2.503008655476e+02 
6 1  1.355898635015e+02   6.154280746227e+01  -1.076881644016e+00 
7 1 -1.653841809033e+02   5.759748083465e+01   5.530102450584e+01 
8 1 -2.660249875021e+02  -2.280992546127e+02   2.222096560776e+01 
8
Step 15000
1 1  1.137194094735e+01  -1.393460991849e+02  -1.068345555893e+02 
2 1  5.161137833641e+01  -2.090293788199e+01  -4.650378223222e+01 
3 1 -2.040529818055e+02  -3.068571553997e+02  -2.961074319210e+02 
4 1  7.637998790106e+01  -5.230831033833e+00   1.201267461177e+02 
5 1 -1.241523618891e+02  -1.436463203493e+02  -1.574506397126e+02 
6 1  1.033034968026e+02   2.445543090279e+02  -2.121223543137e+01 
7 1 -1.586603189523e+02   4.012989935009e+01  -1.802870317021e+01 
8 1 -3.047172476672e+02  -1.284393868698e+02   1.437926595033e+02 
8
Step 16000
1 1  1.296265825409e+02  -3.760058497419e+01  -6.401376538586e+01 
2 1 -4.435231957670e+01  -1.946545785103e+01   1.820643166426e+01 
3 1 -1.934903485262e+02  -2.863519979645e+02  -1.599762641035e+02 
4 1  1.365955189715e+01  -1.303402934034e+02   2.601313894539e+01 
5 1 -1.003628147706e+02  -2.508568027373e+02  -7.750436678871e+01 
6 1  3.260641077667e+01   2.828040640161e+02  -7.356999953110e+01 
7 1 -1.197705391346e+02   2.586913812714e+01  -1.213301578181e+02 
8 1 -1.835316261341e+02  -3.192466041726e+01   2.229129480655e+02 
8
Step 17000
1 1  1.914327392400e+02   4.758565779189e+01   2.516222535708e+01 
2 1 -1.783506213094e+02  -3.356702472183e-01   7.649362008001e+01 
3 1 -1.238666868155e+02  -1.285702006615e+02  -1.696151202195e+01 
4 1 -1.007231527747e+02  -2.551367329732e+02  -1.010389890830e+02 
5 1 -4.045547560143e+01  -2.602598644246e+02  -1.609573302437e+01 
6 1 -8.196236790309e+01   1.732308375326e+02  -1.442963842470e+02 
7 1 -8.049447636384e+01   1.468198753841e+01  -2.096185963216e+02 
8 1 -3.216183189334e+01   4.899727285696e+01   2.199061091550e+02 
8
Step 18000
1 1  1.815694518804e+02   8.307945550748e+01   1.715112433213e+02 
2 1 -2.745639420634e+02   4.453601735767e+01   1.241137541907e+02 
3 1 -4.693402366683e+00   6.163851786778e+01   8.338818113357e+01 
4 1 -2.237545949600e+02  -2.647477026873e+02  -2.596587727018e+02 
5 1  4.039115853877e+01  -1.296241680673e+02   3.665217487596e+01 
6 1 -2.500423321832e+02   4.318079608539e+01  -1.455430807826e+02 
7 1 -5.964512128293e+01  -1.412991454079e+00  -1.981633695012e+02 
8 1  8.169615561176e+01   1.083682565111e+02   1.391630055500e+02 
8
Step 19000
1 1  1.007165411573e+02   6.272915653551e+01   3.398636508696e+02 
2 1 -2.426406611908e+02   1.028169228978e+02   1.660283348144e+02 
3 1  1.683227313856e+02   2.230205742761e+02   1.317829692604e+02 
4 1 -2.660356145791e+02  -1.028873620110e+02  -3.968871756199e+02 
5 1  1.157317715303e+02   9.481063147666e+01   9.401297413860e+01 
6 1 -3.789194032652e+02  -7.277741528536e+01  -8.489276767301e+00 
7 1 -5.557387220503e+01  -3.220688582686e+01  -5.041706778534e+01 
8 1  1.392764869584e+02   1.367894677262e+02   2.604854191821e+01 
8
Step 20000
1 1 -6.666383473030e+01  -1.065649082928e+00   3.643617715369e+02 
2 1 -1.018546257578e+02   1.247217753947e+02   1.756964318572e+02 
3 1  4.093124130511e+02   2.985591581691e+02   1.344604385689e+02 
4 1 -1.822682386072e+02   1.685679263299e+02  -3.434975092548e+02 
5 1  1.578704649406e+02   3.353568513796e+02   1.538575807116e+02 
6 1 -2.791737638085e+02  -1.683400920591e+02   2.364062531350e+02 
7 1 -4.937100638365e+01  -7.803533739013e+01   1.817180288851e+02 
8 1  1.325666757803e+02   1.259504628406e+02  -8.178263055306e+01 
8
Step 21000
1 1 -2.890986331647e+02  -1.067067896487e+02   1.947913327450e+02 
2 1  7.358003404462e+01   7.694757808616e+01   7.864572639762e+01 
3 1  4.961236092008e+02   2.488130645153e+02   1.042975107246e+02 
4 1 -3.054315860553e+01   4.492403239542e+02  -1.247833562360e+02 
5 1  1.528325116969e+02   3.935689720607e+02   1.914746270218e+02 
6 1 -2.937786484665e+01  -2.055652231234e+02   4.365692313019e+02 
7 1 -4.273075760712e+00  -1.183896486383e+02   3.625366863994e+02 
8 1  7.922262186686e+01   8.507558730152e+01  -1.610143027336e+02 
8
Step 22000
1 1 -3.655846995207e+02  -2.532668052940e+02  -4.270408635761e+01 
2 1  2.363070860931e+02  -3.909299909097e+01  -1.341559169733e+02 
3 1  2.401258652186e+02   1.225422309405e+02   4.959138604943e+01 
4 1  1.228851165671e+02   4.203080903622e+02   1.249851053473e+02 
5 1  1.058455961893e+02   2.151602052653e+02   1.526131322356e+02 
6 1  2.278546554019e+02  -1.525829346147e+02   3.426926402262e+02 
7 1  1.183734100710e+02  -1.188819024475e+02   3.101794695909e+02 
8 1  1.671267736153e+01   3.394800738503e+01  -1.921670224140e+02 
8
Step 23000
1 1 -2.072821244799e+02  -3.580429491291e+02  -3.042035573112e+02 
2 1  2.975763954980e+02  -1.948823087411e+02  -3.616501531062e+02 
3 1 -3.449228062072e+01  -3.471893141251e-01   6.665953482408e+00 
4 1  2.383836468537e+02   1.375342150625e+02   3.222803717664e+02 
5 1  3.599355253825e+01   1.704348249890e+00   3.031480121787e+01 
6 1  3.692419492502e+02  -2.595000478164e+01   8.790303452588e+01 
7 1  2.766473468962e+02  -6.412781346497e+01   1.082167771852e+02 
8 1 -1.820351052339e+01  -2.579515046097e+01  -1.588551799219e+02 
8
Step 24000
1 1  1.032584269725e+01  -2.326357350953e+02  -4.454194134991e+02 
2 1  2.018632145199e+02  -3.072134645325e+02  -3.743776157495e+02 
3 1 -1.942865164905e+02  -8.793473852917e+01   3.114657177280e+00 
4 1  2.735955934459e+02  -8.531551920799e+01   3.353062141265e+02 
5 1 -4.090202359063e+01  -1.712805636557e+02  -1.569783889915e+02 
6 1  2.844495436297e+02   1.259959928282e+02  -1.341507433287e+02 
7 1  3.314901499976e+02   2.331332054319e+01  -1.031445363868e+02 
8 1 -3.428123197709e+00  -1.242205842492e+02  -5.642705729249e+01 
8
Step 25000
1 1  2.055204670090e+02   7.897679750765e+01  -3.360906001273e+02 
2 1  3.550777451566e+01  -2.586076723225e+02  -1.529940482067e+02 
3 1 -2.334029971923e+02  -1.447917157155e+02   2.265833898973e+01 
4 1  2.130296981951e+02  -2.221668549141e+02   1.930176369760e+02 
5 1 -1.164657672466e+02  -2.574728437224e+02  -3.088030162343e+02 
6 1  9.444679481909e+01   2.409117038632e+02  -3.007200095125e+02 
7 1  2.159319233182e+02   1.008935793329e+02  -2.482040897440e+02 
8 1  5.598973550648e+01  -2.688768839139e+02   1.186963427553e+02 
8
Step 26000
1 1  3.093034080503e+02   4.593479731368e+02  -1.467009084391e+02 
2 1 -1.030063602877e+02  -8.920300693151e+01   1.011177919088e+02 
3 1 -1.899367526931e+02  -1.685753609893e+02   3.593312569527e+01 
4 1  1.023697156633e+02  -2.685135140749e+02   6.922865155525e+01 
5 1 -1.794864595683e+02  -2.218484193258e+02  -2.962262702648e+02 
6 1 -3.643242592274e+01   2.361027501360e+02  -3.307987329672e+02 
7 1  1.510325191483e+01   1.340147676886e+02  -2.533982628432e+02 
8 1  1.238714322127e+02  -3.280732995587e+02   3.251200389907e+02 
8
Step 27000
1 1  2.421091281610e+02   5.124846570464e+02   2.643805668771e+01 
2 1 -1.641721195566e+02   1.090369299440e+02   2.778973671670e+02 
3 1 -1.360766629538e+02  -1.544956060798e+02   2.808516864388e+01 
4 1 -1.537439287707e+01  -2.147444548141e+02   4.531791548466e-01 
5 1 -2.052780020986e+02  -1.118967344802e+02  -1.462621131173e+02 
6 1 -6.643295985116e+01   1.106323703438e+02  -2.201829703803e+02 
7 1 -1.997280149352e+02   1.080500619352e+02  -1.384233350422e+02 
8 1  1.430375901481e+02  -2.213482905827e+02   3.559638717446e+02 
8
Step 28000
1 1  8.207612654001e+01   2.139973455584e+02   1.804913682137e+02 
2 1 -1.441504555986e+02   2.979824495784e+02   2.861058859781e+02 
3 1 -1.006070404642e+02  -1.037592975187e+02  -1.160781698671e+01 
4 1 -1.255959655275e+02  -9.594140042707e+01  -3.411175264283e+01 
5 1 -1.723202262470e+02   1.453838780370e+01   4.061019563881e+01 
6 1 -4.597138979076e+01  -4.856095704578e+01  -8.154002600141e+01 
7 1 -3.505340788230e+02   3.898988449723e+01   4.482062244651e+00 
8 1  5.650993404528e+01  -3.525145533791e+01   1.406468756066e+02 
8
Step 29000
1 1 -5.772382569477e+01   4.438575852685e+00   2.721919505328e+02 
2 1 -6.804266625258e+01   3.741412057161e+02   1.623040486023e+02 
3 1 -7.756734575161e+01  -3.216123055914e+01  -8.204322147543e+01 
4 1 -2.138612941170e+02   4.635773638882e+01  -5.283761476097e+01 
5 1 -8.588759305177e+01   1.276868665059e+02   2.093041589855e+02 
6 1 -1.859244734632e+01  -1.688691367675e+02   5.299877609690e+01 
7 1 -3.095661139538e+02  -3.709290040697e+01   1.071253558045e+02 
8 1 -1.643444622628e+02   1.659674932151e+02  -1.411440601848e+02 
8
Step 30000
1 1 -1.275417202421e+02  -1.240134768355e+02   2.537145278366e+02 
2 1  3.473851745524e+01   2.546956841457e+02   2.378967710975e+01 
3 1 -5.453189899245e+01   3.566451477443e+01  -1.503865460874e+02 
4 1 -2.435504314065e+02   1.801202155352e+02  -6.599169929701e+01 
5 1  3.956484587051e+01   1.945993644111e+02   2.851093249774e+02 
6 1 -2.103653256064e-01  -1.914657431983e+02   1.755152385260e+02 
7 1 -1.329124443345e+02  -8.494331363130e+01   1.300063721369e+02 
8 1 -4.274505100990e+02   3.381950298291e+02  -3.631355214490e+02 
8
Step 31000
1 1 -1.130504221468e+02  -1.807491622814e+02   1.559008592208e+02 
2 1  1.510748227072e+02   6.720726745504e+01  -8.400783464690e+01 
3 1 -1.625413044167e+01   8.329104454431e+01  -1.720233681597e+02 
4 1 -1.918215945435e+02   2.471878145869e+02  -7.500226225207e+01 
5 1  1.954891324999e+02   1.870941964977e+02   2.261203902714e+02 
6 1 -4.536796232860e+00  -1.097482016825e+02   2.393152742724e+02 
7 1  3.187437800455e+01  -8.282547720311e+01   7.508841987069e+01 
8 1 -4.112554964655e+02   3.683447776462e+02  -3.492127303033e+02 
8
Step 32000
1 1 -4.443050494528e+01  -1.536795796310e+02   3.085679600392e+01 
2 1  2.664072845218e+02  -6.454922449201e+01  -1.399295425991e+02 
3 1  4.570427333289e+01   1.026156683883e+02  -1.233795555640e+02 
4 1 -8.442087332690e+01   1.962473040557e+02  -8.269571573316e+01 
5 1  3.294604125421e+02   1.128072607524e+02   9.330809985491e+01 
6 1 -3.714289823437e+01   1.377372948024e+01   2.091560609246e+02 
7 1  1.379820900110e+02  -3.508440475838e+01  -2.295351727467e+01 
8 1 -1.583038653106e+02   2.423898577805e+02  -1.378504183034e+02 
8
Step 33000
1 1  2.385284676237e+01  -6.946921622311e+01  -9.594714709725e+01 
2 1  2.916258262019e+02  -1.240165046596e+02  -1.414935259093e+02 
3 1  1.274969508181e+02   9.344678541247e+01  -7.243483924760e+00 
4 1  4.753398836215e+01   6.330868662100e+01  -8.528666562736e+01 
5 1  3.211450672847e+02   4.376302864759e+00  -4.270473139741e+01 
6 1 -8.960095207074e+01   1.163785880741e+02   1.076694552340e+02 
7 1  1.715844003425e+02   2.115571660890e+01  -1.260436357497e+02 
8 1  9.712048432893e+01   9.963813713784e+01   5.778505473220e+01 
8
Step 34000
1 1  5.439400097564e+01   2.040087364577e+01  -1.907440617986e+02 
2 1  1.369060616648e+02  -1.391841896351e+02  -1.126713644941e+02 
3 1  2.018976748230e+02   7.030534204278e+01   1.711242818177e+02 
4 1  1.846746344802e+02  -8.954125364109e+01  -7.293370105067e+01 
5 1  1.637719424841e+02  -1.279162271968e+02  -1.515257784259e+02 
6 1 -1.373616903674e+02   1.538430730768e+02  -2.188563630261e+01 
7 1  1.304446809517e+02   3.286671874778e+01  -1.794008125691e+02 
8 1  2.922406042251e+02  -6.734553152724e+00   1.652549845414e+02 
8
Step 35000
1 1  3.348593691371e+01   7.548960233362e+01  -2.193679606987e+02 
2 1 -1.618397384661e+02  -1.400345502874e+02  -5.522648314559e+01 
3 1  2.131026630445e+02   4.854246201642e+01   3.588411203160e+02 
4 1  2.800195823453e+02  -2.288457048162e+02  -3.306800017129e+01 
5 1 -2.462801618063e+01  -2.735103386457e+02  -2.034701303382e+02 
6 1 -1.478819049331e+02   1.067396366412e+02  -1.488229131022e+02 
7 1  4.154768569199e+01  -1.862766913219e+01  -1.226809354871e+02 
8 1  3.318256712963e+02  -9.042966701108e+01   1.752816094817e+02 
8
Step 36000
1 1 -3.932031697991e+01   8.656152069160e+01  -1.660737807066e+02 
2 1 -4.744226852321e+02  -1.294220609587e+02   2.425207348753e+01 
3 1  1.343882966420e+02   3.111033439745e+01   3.683820462978e+02 
4 1  2.612510380231e+02  -3.074554535537e+02   6.644017279716e+01 
5 1 -1.872631995202e+02  -3.519892000126e+02  -1.751156411504e+02 
6 1 -9.598805674108e+01  -1.548087869696e+01  -2.368256250355e+02 
7 1 -5.160781299389e+01  -1.049427023236e+02   4.667037557001e+01 
8 1  2.170919598796e+02  -1.586889367948e+02   1.133825148025e+02 
8
Step 37000
1 1 -1.453320240327e+02   6.543592281094e+01  -5.777933585938e+01 
2 1 -4.349596128851e+02  -9.834213845041e+01   8.681383087795e+01 
3 1  9.517718146305e-01   2.219858288845e+01   1.640283496730e+02 
4 1  1.388491860576e+02  -2.934293527668e+02   2.147922691998e+02 
5 1 -2.855998592452e+02  -2.504181816827e+02  -8.921626059422e+01 
6 1  2.391512642791e+01  -1.925079662869e+02  -2.400046778123e+02 
7 1 -1.125811912650e+02  -1.710951737332e+02   2.653380152420e+02 
8 1  5.953607226690e+01  -2.016260407192e+02   2.378597688463e+01 
8
Step 38000
1 1 -2.296684804042e+02   2.224605566833e+01   2.577253442886e+01 
2 1 -1.656578165810e+02  -4.979263518838e+01   1.171688921545e+02 
3 1 -1.597836985196e+02   4.421727844458e+00  -9.405518731154e+01 
4 1 -5.436672106864e+00  -1.824699437452e+02   2.789444641976e+02 
5 1 -2.566253393284e+02  -1.251877435141e+01   1.381413524872e+01 
6 1  1.981274707650e+02  -3.525381505044e+02  -1.581972636914e+02 
7 1 -1.175643880104e+02  -1.616883807443e+02   3.703107242873e+02 
8 1 -8.374730198955e+01  -1.994433209305e+02  -6.094270026545e+01 
8
Step 39000
1 1 -2.107500549674e+02  -4.106884067698e+01   8.988071139415e+01 
2 1  6.051928962014e+01   1.014431812536e+01   1.073667638730e+02 
3 1 -3.071059217232e+02  -6.963084089067e+01  -3.049214618780e+02 
4 1 -1.410138393888e+02   2.739560896831e+01   1.950370324119e+02 
5 1 -1.345261468178e+02   2.713199042787e+02   1.691901300557e+02 
6 1  3.484657014736e+02  -3.104339321214e+02  -4.794743801929e+01 
7 1 -6.784771118883e+01  -5.587184841052e+01   2.333962573913e+02 
8 1 -1.669098680849e+02  -1.405927239548e+02  -1.193423641587e+02 
8
Step 40000
1 1 -4.519636161450e+01  -1.045605760310e+02   1.577968255273e+02 
2 1  2.336464082266e+02   6.990762053139e+01   5.679014035238e+01 
3 1 -3.266452640516e+02  -2.347660012811e+02  -2.704009829598e+02 
4 1 -2.638959805917e+02   3.306702544964e+02   2.333242911960e+01 
5 1 -1.191687705934e+01   4.646653541230e+02   3.950645214879e+02 
6 1  3.294814484572e+02  -5.748377684309e+01   4.685557068305e+01 
7 1  1.330004174330e+01   1.319879289732e+02  -1.300026335469e+01 
8 1 -1.442798442488e+02  -4.312976766175e+01  -1.358535268122e+02 
8
Step 41000
1 1  2.270099050307e+02  -1.316561182741e+02   2.094228294628e+02 
2 1  3.024812452234e+02   1.105524635685e+02  -2.117188057193e+01 
3 1 -1.828351666287e+02  -4.173094025306e+02  -1.337899919327e+02 
4 1 -3.074013229252e+02   5.385719173408e+02  -1.731007025503e+02 
5 1  8.250625871170e+01   3.197245187457e+02   3.672576967210e+02 
6 1  1.670307263307e+02   2.576144867164e+02   1.188577015851e+02 
7 1  1.062630889333e+02   3.474788372071e+02  -2.434442759271e+02 
8 1 -3.116216927836e+01   3.698255972181e+01  -1.027595560983e+02 
8
Step 42000
1 1  4.570369073049e+02  -1.062343644185e+02   1.964294346061e+02 
2 1  2.273468606274e+02   1.310957733460e+02  -1.222024350113e+02 
3 1  1.594309194494e+01  -3.586859362844e+02  -8.986776847210e+01 
4 1 -2.106215552262e+02   3.258587332322e+02  -3.194000971798e+02 
5 1  1.424675849832e+02   5.956884947334e+01   1.065071338574e+02 
6 1 -2.805609761892e+01   4.581289671450e+02   1.834138029872e+02 
7 1  2.039029509996e+02   3.950924543385e+02  -3.432824407056e+02 
8 1  1.110571937999e+02   7.701812159930e+01  -2.480068685396e+01 
8
Step 43000
1 1  3.615725341562e+02  -4.482222900344e+01   1.014965972923e+02 
2 1  6.870886407730e+01   1.840340775030e+02  -2.321910211449e+02 
3 1  1.968171584637e+02  -8.969031701347e+01  -6.046770402779e+01 
4 1 -3.999971991721e+01   4.649600796225e+01  -2.989645436831e+02 
5 1  1.630513397715e+02  -1.018786900031e+02  -1.561277905816e+02 
6 1 -2.147078190347e+02   3.001637727707e+02   2.557376102749e+02 
7 1  2.800417729530e+02   2.035346034796e+02  -2.372073349362e+02 
8 1  2.067461265836e+02   1.098478239631e+02   7.182536362576e+01 
8
Step 44000
1 1  1.015770482788e+02   3.355534499419e+01  -4.479232781227e+01 
2 1 -1.072462790216e+02   2.594625579222e+02  -2.626536273037e+02 
3 1  3.049632350372e+02   2.058062654280e+02   5.946694915624e-02 
4 1  1.344316809977e+02  -1.344758802282e+02  -1.342681932418e+02 
5 1  1.552316863440e+02  -1.784582711859e+02  -3.293487742500e+02 
6 1 -3.239115825754e+02   4.950209389117e+01   3.026398522325e+02 
7 1  2.524484516480e+02  -2.489782839081e+01  -5.845382158785e+01 
8 1  1.833331267196e+02   1.412326255481e+02   1.599104679043e+02 
8
Step 45000
1 1 -1.152022356212e+02   1.203255853132e+02  -1.956623140413e+02 
2 1 -2.455726399490e+02   1.501611159206e+02  -1.366132145889e+02 
3 1  2.751433919576e+02   4.107410050426e+02   9.746744488715e+01 
4 1  2.596962017096e+02  -2.263026592070e+02   4.799037219599e+01 
5 1  1.385214710291e+02  -1.826280998442e+02  -3.142751478979e+02 
6 1 -2.846020458030e+02  -1.015726977761e+02   2.428368901263e+02 
7 1  8.360517302207e+01  -1.805150976648e+02   8.809417112642e+01 
8 1  3.192406293445e+01   1.563760256704e+02   2.317831395939e+02 
8
Step 46000
1 1 -2.446897422242e+02   2.064963449992e+02  -2.927007838001e+02 
2 1 -2.694370220181e+02  -7.863438509967e+01   1.024194988989e+02 
3 1  1.299316544839e+02   3.332355693235e+02   1.879341748034e+02 
4 1  2.651824839320e+02  -2.189956828753e+02   1.709550310333e+02 
5 1  1.256665603457e+02  -1.261049232867e+02  -1.648869587699e+02 
6 1 -1.596105961786e+02  -1.767357548091e+02   8.174996881507e+01 
7 1 -1.793439117907e+02  -2.146305795979e+02   1.740725518528e+02 
8 1 -2.044537845575e+02   1.290281938639e+02   2.652583804020e+02 
8
Step 47000
1 1 -2.457688623232e+02   2.611150265375e+02  -2.545848344988e+02 
2 1 -1.485158245490e+02  -2.845707507905e+02   3.635375712546e+02 
3 1 -5.089344463111e+01   1.569389581812e+02   2.074540123377e+02 
4 1  1.589750286391e+02  -1.455229642352e+02   2.007323289288e+02 
5 1  9.431512649585e+01  -3.944766378289e+01  -3.014104128858e+01 
6 1 -3.959959331260e+01  -1.720734311048e+02  -1.362999087088e+02 
7 1 -4.274988921193e+02  -1.426643211171e+02   1.840657765235e+02 
8 1 -4.278806462473e+02   6.146036210612e+01   1.818764103795e+02 
8
Step 48000
1 1 -1.411913636748e+02   2.308556482187e+02  -1.084882775995e+02 
2 1  3.473406659848e+01  -3.366664106608e+02   4.125794314014e+02 
3 1 -2.308393016030e+02   7.116391587819e+01   1.282598590302e+02 
4 1  2.024507204359e+01  -4.905015637116e+01   1.339709401938e+02 
5 1 -1.058019134966e+01   5.367447645614e+01   3.511894951009e+01 
6 1  4.978514066163e+01  -1.055284182919e+02  -3.751328635981e+02 
7 1 -3.973070992752e+02  -4.828321175491e+01   1.256467489241e+02 
8 1 -3.744064718483e+02  -3.478149484377e+01   5.466523754007e-01 
8
Step 49000
1 1 -1.197374884576e+00   1.075051309443e+02   5.002049634318e+01 
2 1  1.888760437851e+02  -2.075814792819e+02   2.072127943450e+02 
3 1 -3.464153365901e+02   1.649172649090e+01  -1.346323887811e+01 
4 1 -9.246723232453e+01   4.877602657049e+01   2.730915204136e+01 
5 1 -2.417910638184e+02   1.290804790785e+02   4.054674567603e+01 
6 1  1.108009529215e+02  -1.195056157628e+01  -4.398887748902e+02 
7 1 -1.763224419506e+02   1.516303999423e+00   3.381326534175e+01 
8 1 -9.911560220385e+01  -1.568063805424e+02  -2.202734415855e+02 
8
Step 50000
1 1  1.111946100370e+02  -8.585384056563e+01   1.660021985386e+02 
2 1  2.310455841262e+02  -2.552841937373e+01  -1.846979805954e+01 
3 1 -2.831911024937e+02  -4.902698442891e+01  -1.713392040410e+02 
4 1 -1.522790350830e+02   1.126888128255e+02  -5.358856797505e+01 
5 1 -4.573455482880e+02   1.547892484600e+02   2.284857626618e+01 
6 1  1.516547044005e+02   9.918485663880e+01  -2.395812095040e+02 
7 1  3.724991203699e+00  -8.051535938295e+00  -5.987371683051e+01 
8 1  1.338495395648e+02  -2.678526949284e+02  -3.790010162188e+02 
8
Step 51000
1 1  1.434359097524e+02  -3.191476668399e+02   2.032694584692e+02 
2 1  1.161370470680e+02   9.824439866311e+01  -1.868399054758e+02 
3 1 -7.756474132683e+01  -1.085278248564e+02  -3.027019724608e+02 
4 1 -1.515247116031e+02   1.183486057840e+02  -7.808574194422e+01 
5 1 -3.604974046244e+02   1.153233707999e+02   1.883323298415e+01 
6 1  1.767349613904e+02   1.886727371688e+02  -4.273591281168e+01 
7 1  1.150656174712e+02  -4.124304376414e+01  -1.294480775750e+02 
8 1  2.319432401158e+02  -2.823314901643e+02  -3.378753335000e+02 
8
Step 52000
1 1  9.044370448211e+01  -4.494903119656e+02   1.600280894482e+02 
2 1 -1.068426530099e+01   1.279637285828e+02  -2.692881194177e+02 
3 1  1.697239438477e+02  -1.422028529509e+02  -3.178123640686e+02 
4 1 -1.040370234735e+02   7.099293717173e+01  -5.310030311380e+01 
5 1 -1.015899512220e+02   2.741054742553e+01   4.338652674913e+01 
6 1  1.781629958167e+02   2.149278606639e+02   6.256435713888e+01 
7 1  1.677962521504e+02  -5.201488213229e+01  -1.407847568525e+02 
8 1  1.914064155417e+02  -1.593051602694e+02  -1.803432043857e+02 
8
Step 53000
1 1 -2.295841771366e+01  -2.911313953510e+02   7.716782372014e+01 
2 1 -7.469949279477e+01   9.195591788635e+01  -2.400769607045e+02 
3 1  3.920932174958e+02  -1.401000413619e+02  -1.756946191672e+02 
4 1 -2.467390958700e+01  -9.256375415572e+00  -7.298425803749e+00 
5 1  1.316872207582e+02  -7.559204529797e+01   8.055326111852e+01 
6 1  1.500477855387e+02   1.598873981840e+02   1.180919452843e+02 
7 1  1.696218718358e+02  -3.017850539562e+01  -7.586153662007e+01 
8 1  1.065143300895e+02   5.162309244399e+01  -2.755401991700e+01 
8
Step 54000
1 1 -1.515077698552e+02  -3.817767836857e+01  -1.762707860047e+01 
2 1 -1.129543072293e+02   2.062838050848e+01  -1.317458537939e+02 
3 1  3.939987511940e+02  -1.032772665895e+02   4.433847032640e+01 
4 1  8.502883913654e+01  -1.084640614837e+02   3.381815764717e+01 
5 1  2.840040094491e+02  -1.422612223620e+02   9.945002484125e+01 