8
Step 0
1 1 -3.567806084495e+02   1.250349871688e+02   1.349215040121e+02 
2 1 -3.715941391501e+01   2.035910927754e+02  -2.934454057728e+02 
3 1 -5.894608363078e+00   1.640287187557e+02  -1.356203740973e+02 
4 1  9.980405381862e+01   3.579602250797e+02   4.123904540523e+02 
5 1 -6.056234710672e+01   4.194574330581e+02   8.432933744934e+01 
6 1 -1.761637115772e+02  -2.392440180721e+02  -1.953219266841e+02 
7 1 -2.534551509443e+02  -1.234561750903e+02   2.630611908943e+02 
8 1 -1.563495904539e+02  -4.994924455812e+02  -3.797918227023e+01 
8
Step 1000
1 1 -1.249828947603e+02   5.962638038838e+01  -1.040194502169e+02 
2 1  1.607030561552e+02  -1.057128942319e+02  -3.172742805892e+02 
3 1 -2.235260658928e+02  -4.781288625273e+01  -1.841887075150e+02 
4 1  3.742946988779e+02   1.804650875958e+02   3.538698378425e+02 
5 1  2.236343778412e+02   1.780957911344e+02  -1.411061087939e+02 
6 1 -9.531216346683e+01   9.228911292040e+01   8.438656536078e+01 
7 1 -3.224796150904e+02  -3.674504321722e+01   1.001363622801e+01 
8 1 -2.242296830159e+02  -3.069825866611e+02   8.640961178214e+00 
8
Step 2000
1 1  1.521413933458e+02  -2.362248956527e+01  -2.922359553457e+02 
2 1  3.091158706903e+02  -3.677547889490e+02  -2.081106887685e+02 
3 1 -3.777408768163e+02  -2.383488915373e+02  -1.907784473763e+02 
4 1  3.860772818130e+02  -6.686530055544e+01   1.750015280575e+02 
5 1  3.639775950517e+02  -1.118650867201e+02  -3.503146127510e+02 
6 1  5.919821608525e+01   4.065305694047e+02   3.073769747214e+02 
7 1 -2.331411828409e+02   9.638926189529e+01  -2.328017070265e+02 
8 1 -2.056510144609e+02  -2.994220563172e+00   5.789153812081e+01 
8
Step 3000
1 1  3.450814074129e+02  -1.307333385220e+02  -3.103673401237e+02 
2 1  2.787323846162e+02  -3.566144452083e+02  -5.652980905239e+01 
3 1 -3.188969268456e+02  -3.178545952202e+02  -1.523656415866e+02 
4 1  1.639736299608e+02  -2.662015023781e+02   3.778764107659e+01 
5 1  2.372667571681e+02  -3.127855642798e+02  -3.726869443910e+02 
6 1  2.373597859917e+02   4.131459690294e+02   3.390521017465e+02 
7 1 -1.016915458840e+02   2.570382186719e+02  -3.319336439081e+02 
8 1 -9.571302354621e+01   2.151348153895e+02   1.287334862754e+02 
8
Step 4000
1 1  2.971140720375e+02  -2.763096791852e+02  -1.454241867258e+02 
2 1  8.977742758903e+01  -1.147838719207e+02   6.864203082493e+01 
3 1 -1.346987613714e+02  -2.240135546166e+02  -8.132356784567e+01 
4 1 -4.235732489779e+01  -2.982724752873e+02  -4.861009311269e+01 
5 1  1.196935657044e+01  -3.053938534958e+02  -1.862631920515e+02 
6 1  3.456308912742e+02   1.655481540625e+02   1.675627264332e+02 
7 1 -1.876582928955e+01   3.613269189726e+02  -1.976302980326e+02 
8 1  5.303804029047e+01   2.909653566603e+02   2.298606202210e+02 
8
Step 5000
1 1  8.911560307632e+01  -4.241906115931e+02   5.284954691965e+01 
2 1 -1.066002070346e+02   8.303184030572e+01   1.384153352298e+02 
3 1  1.287756953932e+01  -3.788176472399e+01   1.667305118921e+01 
4 1 -1.971499092423e+02  -1.469136451434e+02  -1.098903453097e+02 
5 1 -1.408252843251e+02  -1.501729836445e+02  -6.111745935079e+00 
6 1  2.605471252925e+02  -1.275227980419e+01  -1.244385971118e+01 
7 1  6.351398550208e+00   2.893931410615e+02   2.582213368062e+01 
8 1  1.956239203442e+02   2.116021161996e+02   3.291979467188e+02 
8
Step 6000
1 1 -6.954325063918e+01  -3.929236740017e+02   1.650718756141e+02 
2 1 -1.950038160466e+02   1.682637562774e+02   1.376484881720e+02 
3 1  1.087417688100e+02   1.282074671172e+02   1.684562699229e+02 
4 1 -2.777967168483e+02   1.587694186499e+01  -1.587731042501e+02 
5 1 -1.700993763246e+02  -2.663909807975e+01   1.021666225687e+02 
6 1  2.310103417741e+01  -1.330219845506e+02  -8.092170185731e+01 
7 1 -1.885610452422e+00   9.078757137208e+01   1.689886585199e+02 
8 1  2.907910922460e+02   5.205437602294e+01   3.350950121151e+02 
8
Step 7000
1 1 -1.504233952620e+02  -1.466226859929e+02   1.575195326387e+02 
2 1 -1.547758778302e+02   1.662127990871e+02   8.432125928366e+01 
3 1  1.672180256116e+02   2.071682450403e+02   4.070825453986e+02 
4 1 -2.457499804703e+02   1.020405711963e+02  -1.888713490226e+02 
5 1 -1.148747257612e+02   4.354196729606e+01   1.657550350442e+02 
6 1 -2.441469596521e+02  -2.136936117133e+02  -4.573037177350e+01 
7 1 -1.562732803629e+01  -8.781880415188e+01   1.725190738872e+02 
8 1  2.725769255688e+02  -1.375480202560e+02   2.007531450941e+02 
8
Step 8000
1 1 -1.633205732723e+02   1.019849006608e+02   9.916221009408e+01 
2 1 -8.338112348663e+01   1.115618109046e+02   3.327692892753e+01 
3 1  1.819947888196e+02   1.901993293521e+02   4.596231857785e+02 
4 1 -1.173242851210e+02   1.384334498802e+02  -1.825044983214e+02 
5 1 -4.539373021756e+01   8.549629675734e+01   1.905366967215e+02 
6 1 -3.972647657999e+02  -2.271361201821e+02   1.747065499796e+01 
7 1 -1.247684898505e+01  -1.790309276566e+02   1.089484902525e+02 
8 1  1.297711027760e+02  -2.839152009843e+02  -4.039004446769e+01 
8
Step 9000
1 1 -9.230342606810e+01   2.334666799035e+02   3.729393852479e+01 
2 1 -2.479676418651e+01   2.756662528006e+01   1.328626396448e+01 
3 1  1.477714830691e+02   1.281969497831e+02   1.753799797782e+02 
4 1  6.847221234232e+01   1.438307184612e+02  -1.317489036709e+02 
5 1  1.553099137059e+01   9.838073281250e+01   1.624616989094e+02 
6 1 -2.773478777518e+02  -1.664165055157e+02   6.039223947374e+01 
7 1  1.622950414553e+01  -1.829943150191e+02   3.955233741643e+01 
8 1 -6.974585078803e+01  -2.511716156921e+02  -4.933450690434e+02 
8
Step 10000
1 1  4.845738941045e+01   2.654022520643e+02  -2.643887753384e+01 
2 1  2.341886369020e+01  -6.227406400585e+01   1.173335334103e+01 
3 1  7.712208200587e+01   5.465097485182e+01  -1.421938086326e+02 
4 1  2.636758408843e+02   1.112759972006e+02  -4.416976066977e+01 
5 1  6.459361128721e+01   7.609222303997e+01   8.437723835291e+01 
6 1 -6.655822198179e+01  -5.873138841542e+01   6.342904231414e+01 
7 1  6.749274873940e+01  -1.422029293812e+02  -2.517467289842e+01 
8 1 -2.714124974590e+02  -2.707320248268e+01  -7.112753338225e+02 
8
Step 11000
1 1  2.005108594636e+02   2.561152100722e+02  -8.678243142604e+01 
2 1  5.699063328232e+01  -1.290892214651e+02   1.470255290169e+01 
3 1 -9.169197307074e+00  -2.245585177036e+01  -3.512495837926e+02 
4 1  3.519089790499e+02   3.215232315472e+01   6.918821800261e+01 
5 1  9.117305972235e+01   2.071448416936e+01  -2.247263695292e+01 
6 1  9.443402422012e+01   6.685323176014e+01   1.768072438949e+01 
7 1  1.299668949866e+02  -9.948597917964e+01  -7.426115098532e+01 
8 1 -3.634984669558e+02   2.529320177115e+02  -2.536335503996e+02 
8
Step 12000
1 1  2.687178830452e+02   2.214615722422e+02  -1.276148657434e+02 
2 1  6.930453583974e+01  -1.469004830426e+02   1.441505389835e+01 
3 1 -9.241782803222e+01  -8.932803363198e+01  -3.228376435535e+02 
4 1  2.504007668783e+02  -9.119335052741e+01   1.914660381652e+02 
5 1  8.518242522616e+01  -5.908005958462e+01  -1.333397852011e+02 
6 1  1.894266226404e+02   1.875079892176e+02  -6.457531078679e+01 
7 1  1.744845737001e+02  -6.515657806803e+01  -9.231143881263e+01 
8 1 -2.354267790280e+02   4.016748995902e+02   6.189428635317e+00 
8
Step 13000
1 1  1.847822633326e+02   1.573793730604e+02  -1.312336374389e+02 
2 1  6.049786232217e+01  -1.089617853207e+02   7.898560744700e+00 
3 1 -1.543661255848e+02  -1.273898116581e+02  -1.546689939222e+02 
4 1  7.394988059313e+01  -2.290667483691e+02   2.760997583404e+02 
5 1  4.670393869254e+01  -1.471120285419e+02  -2.119001901093e+02 
6 1  2.003110086851e+02   2.569784036907e+02  -1.513847673523e+02 
7 1  1.660138340927e+02  -3.302663964620e+01  -7.131248690798e+01 
8 1 -6.254085935344e+00   2.767963982262e+02   1.583742373741e+02 
8
Step 14000
1 1 -2.514271629877e+00   6.773795140000e+01  -8.920223995765e+01 
2 1  3.826572715991e+01  -3.195241549010e+01  -4.728299126959e+00 
3 1 -1.760268499480e+02  -1.266784043708e+02  -1.748518274143e+01 
4 1 -8.379326006976e+01  -2.944698512801e+02   2.620536355532e+02 
5 1 -1.503947736219e+01  -2.095063288035e+02  -2.130203207671e+02 
6 1  1.358927047203e+02   2.220055221907e+02  -1.985498482355e+02 
7 1  9.073058851436e+01   9.796294517431e-01  -1.739287284860e+01 
8 1  1.906385747632e+02   6.051070189121e+01   2.230796542558e+02 
8
Step 15000
1 1 -2.128088348112e+02  -3.398270789774e+01  -4.843643251359e+00 
2 1  1.333516945748e+01   6.200108519653e+01  -2.251419094229e+01 
3 1 -1.489434870994e+02  -9.294761318987e+01   5.529473436572e+01 
4 1 -1.935903297602e+02  -2.130509390677e+02   1.559664319724e+02 
5 1 -8.645068517110e+01  -1.978492111803e+02  -1.274971179555e+02 
6 1  3.652431013688e+01   1.002255198006e+02  -1.708177984671e+02 
7 1 -4.012454696332e+01   3.590985328708e+01   5.294542978286e+01 
8 1  2.722651403608e+02  -1.271686890974e+02   1.866585122134e+02 
8
Step 16000
1 1 -3.411820615055e+02  -1.262980004052e+02   1.136288804150e+02 
2 1 -6.297390718316e+00   1.548774073718e+02  -4.533332837545e+01 
3 1 -8.370555668181e+01  -4.155350917658e+01   6.498225342936e+01 
4 1 -2.234573403594e+02  -3.511807527324e+01   1.220131797863e+01 
5 1 -1.484058229498e+02  -9.042994486608e+01   1.110716822651e+01 
6 1 -6.161144198966e+01  -4.986780741091e+01  -7.296745665189e+01 
7 1 -2.002122630338e+02   6.829826889548e+01   1.183550729322e+02 
8 1  1.918339468367e+02  -2.520683827886e+02   8.756622638003e+01 
8
Step 17000
1 1 -2.631525914600e+02  -1.795449890417e+02   2.496806074852e+02 
2 1 -1.951324509937e+01   2.170400467299e+02  -7.436866665271e+01 
3 1  3.616871711095e+00   1.972893091485e+01   2.253001910735e+01 
4 1 -1.715468570640e+02   1.575979906113e+02  -1.408364426981e+02 
5 1 -1.735182126674e+02   1.002417136933e+02   1.776376819226e+02 
6 1 -1.335341246972e+02  -2.013693335797e+02   6.530536012244e+01 
7 1 -3.188585931812e+02   9.636730376303e+01   1.488891133079e+02 
8 1  2.436093331376e+01  -2.619075049643e+02  -1.830227800586e+01 
8
Step 18000
1 1 -6.187533028804e+01  -1.705872316633e+02   3.370944378764e+02 
2 1 -3.415068154111e+01   2.053070309594e+02  -1.073214108816e+02 
3 1  1.057554780176e+02   1.087445333928e+02  -4.887589938924e+01 
4 1 -8.350569474962e+01   2.879115302984e+02  -2.907881477895e+02 
5 1 -1.403074422114e+02   3.410863968999e+02   3.465875588873e+02 
6 1 -1.632342993532e+02  -3.254913122190e+02   2.154576232467e+02 
7 1 -2.890431683044e+02   1.249623049157e+02   1.016844393097e+02 
8 1 -1.333793415642e+02  -1.653686319933e+02  -9.135454848432e+01 
8
Step 19000
1 1  1.151042325199e+02  -1.097547859601e+02   2.724173341736e+02 
2 1 -6.431253788454e+01   1.172591536673e+02  -1.261092256809e+02 
3 1  1.980271533668e+02   2.704576502877e+02  -1.174694500294e+02 
4 1 -2.940375602819e+00   2.634944292820e+02  -3.804222391403e+02 
5 1 -5.317032604992e+01   4.363441429764e+02   3.891592794554e+02 
6 1 -1.548572569194e+02  -3.183043571573e+02   3.181741946465e+02 
7 1 -1.241879505979e+02   1.632710958972e+02  -5.245981181453e+01 
8 1 -2.218950991468e+02  -1.876310740741e+01  -1.050588915609e+02 
8
Step 20000
1 1  2.066364387163e+02  -3.681587897325e+01   7.846124294291e+01 
2 1 -1.192523288108e+02  -3.662378287580e+00  -9.442634740076e+01 
3 1  2.134853798962e+02   3.916832645850e+02  -1.482776718289e+02 
4 1  4.972616700420e+01   1.162938913215e+02  -2.926805791819e+02 
5 1  6.694541407566e+01   2.414403370461e+02   2.111237295210e+02 
6 1 -1.318126468127e+02  -1.494063290323e+02   2.830760260344e+02 
7 1  4.930437445694e+01   1.931721026574e+02  -2.604088724193e+02 
8 1 -1.991203856127e+02   1.377019386119e+02  -5.234114127805e+01 
8
Step 21000
1 1  1.922656361361e+02   1.745966933790e+01  -1.763392981322e+02 
2 1 -1.852278292969e+02  -1.189618653070e+02   2.016828191979e+01 
3 1  1.588033985592e+02   2.544651718113e+02  -1.164051507335e+02 
4 1  6.873201458462e+01  -2.491708888635e+01  -1.163515948197e+02 
5 1  1.864446181473e+02  -1.272067876683e+01  -6.788889433592e+01 
6 1 -1.129467033206e+02   8.115786268390e+01   1.394581785338e+02 
7 1  1.304601340341e+02   1.416295822089e+02  -3.227273276392e+02 
8 1 -8.082334254008e+01   2.409595619484e+02   6.079871517563e+01 
8
Step 22000
1 1  1.011678571725e+02   6.049426344216e+01  -4.631281645081e+02 
2 1 -2.059400165602e+02  -1.994603191336e+02   2.201621168675e+02 
3 1  1.006917271419e+02  -7.965145768814e+00  -6.863999083301e-01 
4 1  5.747476219616e+01  -9.167719132675e+01   9.862817983879e+00 
5 1  2.504486730254e+02  -2.030220030337e+02  -4.719854936330e+02 
6 1 -8.313918097586e+01   3.028705221189e+02  -1.091031694412e+01 
7 1  1.747755348980e+02  -3.648212195714e+01  -1.507100390357e+02 
8 1  8.130448376948e+01   2.199578563234e+02   2.367194629825e+02 
8
Step 23000
1 1 -2.417876321109e+01   1.050988215119e+02  -4.801429390707e+02 
2 1 -1.262762478995e+02  -2.254196375702e+02   3.999293383784e+02 
3 1  5.571807358374e+01  -2.667196941208e+02   3.381186654642e+02 
4 1  3.433405857852e+01  -9.102836428313e+01   1.105398509435e+02 
5 1  2.267100042495e+02  -2.753553508067e+02  -6.855845650397e+02 
6 1  3.236649003773e+01   3.813820132205e+02  -1.813449325470e+02 
7 1  2.149785159634e+02  -3.081919813158e+02   1.198265620230e+02 
8 1  2.497688103426e+02   8.625077935235e+01   3.618076216454e+02 
8
Step 24000
1 1 -1.505494211994e+02   1.091333681800e+02  -1.723776829438e+02 
2 1  5.710935079209e+01  -1.973764722142e+02   3.333296947315e+02 
3 1  1.126144492386e+00  -3.927623381189e+02   5.865716684755e+02 
4 1  2.349094334480e+01  -6.396148417695e+01   2.058719987318e+02 
5 1  1.383689443582e+02  -2.095459916821e+02  -2.069718185882e+02 
6 1  2.316771235780e+02   2.263856470729e+02  -4.729356017434e+02 
7 1  2.182922146222e+02  -4.858681069174e+02   3.519573207512e+02 
8 1  3.483294743576e+02  -8.854958454141e+01   2.246079461674e+02 
8
Step 25000
1 1 -2.254462422155e+02   5.028818924110e+01   4.618476066496e+01 
2 1  3.114216465965e+02  -1.315282222104e+02   8.579952103815e+01 
3 1 -8.529781800498e+01  -2.906777847768e+02   3.065540829577e+02 
4 1  2.882791303386e+01  -3.835768969251e+01   2.645530191712e+02 
5 1  1.862962452264e+01  -9.114077916676e+01   1.052450816557e+02 
6 1  3.673959780633e+02   1.185402949606e+01  -4.757187746263e+02 
7 1  1.650840259475e+02  -3.467437949636e+02   3.492438882400e+02 
8 1  2.685764421457e+02  -2.346687945135e+02  -7.890265715719e+01 
8
Step 26000
1 1 -1.910199023465e+02  -2.459422626081e+01   1.577705962408e+02 
2 1  4.594847159882e+02  -4.248562889043e+01  -1.619770702003e+02 
3 1 -2.025135595921e+02  -1.187891462649e+02  -2.358819789255e+01 
4 1  4.042036429649e+01  -2.145695303661e+01   2.463754890696e+02 
5 1 -1.181850827557e+02   5.622668273445e+00   2.391357475345e+02 
6 1  3.058620759609e+02  -1.228776394075e+02  -1.670725387333e+02 
7 1  6.375360224754e+01  -1.179877372638e+02   1.372811692785e+02 
8 1  6.510235682526e+01  -2.654504570983e+02  -3.801599140449e+02 
8
Step 27000
1 1 -5.037015314374e+01  -5.362941070405e+01   2.040673407204e+02 
2 1  2.967978648054e+02   6.573268092951e+01  -3.153367827985e+02 
3 1 -2.974254219676e+02   5.136208275570e+00  -2.740076488523e+02 
4 1  4.660984339616e+01  -7.743082131946e+00   1.641927680663e+02 
5 1 -2.524324716242e+02   6.725855118992e+01   2.358587170336e+02 
6 1  1.359366866211e+02  -1.369691615416e+02   9.130594429297e+01 
7 1 -6.586633702402e+01   6.235405297251e+01  -8.953480236881e+01 
8 1 -1.509805365478e+02  -1.675868460544e+02  -4.273484868574e+02 
8
Step 28000
1 1  1.477771414548e+02  -8.282584906482e+00   1.918339420231e+02 
2 1  5.919902576021e+01   1.932163405833e+02  -2.814776455242e+02 
3 1 -2.800007444623e+02   6.645753862596e+01  -3.661104713084e+02 
4 1  3.738529485156e+01   1.191240812347e+01   5.727113781485e+01 
5 1 -3.179703218992e+02   9.440790823550e+01   1.478961097999e+02 
6 1 -2.053276387742e+01  -7.030820959729e+01   2.515296075090e+02 
7 1 -2.003528598994e+02   2.018080657404e+02  -2.453063293644e+02 
8 1 -3.130536788406e+02  -2.078336552386e+01  -2.315647880014e+02 
8
Step 29000
1 1  3.220427585558e+02   9.033174237214e+01   1.385200407613e+02 
2 1 -1.176362449027e+02   3.152047008067e+02  -1.368817492206e+02 
3 1 -1.480054730749e+02   7.660830360297e+01  -2.747597939553e+02 
4 1  6.430162442250e+00   4.034751678862e+01  -5.343549948802e+01 
5 1 -2.508179910894e+02   8.483073520102e+01   4.725674969830e+01 
6 1 -1.381439401294e+02   5.500572250029e+00   2.783742440287e+02 
7 1 -2.877132652398e+02   2.729878320219e+02  -2.616109580515e+02 
8 1 -3.171131997741e+02   1.198261368792e+02  -2.175064736738e+01 
8
Step 30000
1 1  3.282772218824e+02   1.876117598184e+02   6.630211841861e+01 
2 1 -2.279725732303e+02   3.417558778727e+02  -1.167322464398e+01 
3 1  2.655894508661e+01   5.999722111154e+01  -1.409778951960e+02 
4 1 -4.678362358111e+01   7.226296599022e+01  -1.554793760222e+02 
5 1 -9.657902468104e+01   3.883756843062e+01  -2.107779184281e+01 
6 1 -2.045356656059e+02   4.308731890082e+01   1.926406441616e+02 
7 1 -2.564931342489e+02   2.422189156097e+02  -1.536878793951e+02 
8 1 -1.678955974631e+02   2.332650795629e+02   1.474481638075e+02 
8
Step 31000
1 1  1.597586433702e+02   1.973264179344e+02  -1.283455049734e+01 
2 1 -2.467570006300e+02   2.126973123939e+02   6.800919642396e+01 
3 1  1.999572804708e+02   4.634174181541e+01  -2.490538920550e+01 
4 1 -1.148613457382e+02   9.662418496974e+01  -2.232333240742e+02 
5 1  6.340391849578e+01  -3.073493511836e+01  -3.955269598360e+01 
6 1 -2.030888001035e+02   2.874589148828e+01   8.523119612813e+01 
7 1 -1.209761343314e+02   1.417572869454e+02  -9.099069026955e+00 
8 1 -1.483948534692e+01   2.890587334762e+02   2.298813946226e+02 
8
Step 32000
1 1 -4.305589309909e+01   7.647725475391e+01  -8.795479829522e+01 
2 1 -1.782070505785e+02   4.860002279223e-01   1.110279333909e+02 
3 1  3.291844392865e+02   5.732550243913e+01   7.561130661625e+01 
4 1 -1.814265866116e+02   9.303286985800e+01  -2.208406361437e+02 
5 1  1.637146630584e+02  -9.636077177238e+01  -1.537285351548e+01 
6 1 -1.422169982802e+02  -2.736670813589e+01   9.468214706336e+00 
7 1  3.491809631106e+01   2.553134088065e+01   1.181183091308e+02 
8 1  6.152753114955e+01   2.448155324298e+02   1.934560516213e+02 
8
Step 33000
1 1 -2.023896416852e+02  -1.346012045942e+02  -1.411841649453e+02 
2 1 -6.407628713008e+01  -2.215197657105e+02   1.222482054476e+02 
3 1  3.253616167333e+02   9.431462766491e+01   1.526270877926e+02 
4 1 -2.234318392127e+02   3.515446899421e+01  -1.388773046677e+02 
5 1  1.700282625046e+02  -1.295716009567e+02   2.784499162215e+01 
6 1 -5.646869202888e+01  -1.063374716956e+02  -2.783667460267e+01 
7 1  1.452456446809e+02  -7.745331915084e+01   1.877738772692e+02 
8 1  6.109097741583e+01   1.159299224055e+02   8.591647200208e+01 
8
Step 34000
1 1 -2.558393446139e+02  -3.397442041264e+02  -1.544611438906e+02 
2 1  6.143632842116e+01  -3.756313651869e+02   1.045699859071e+02 
3 1  1.719578192804e+02   1.429176514771e+02   1.837771511052e+02 
4 1 -2.142370803768e+02  -9.058173923198e+01  -1.996373075406e+01 
5 1  1.450130114826e+02  -1.126906906127e+02   6.366833259331e+01 
6 1  2.100530347270e+01  -1.800620668001e+02  -3.846202230695e+01 
7 1  1.705745284426e+02  -1.461407716273e+02   1.671766590632e+02 
8 1  2.908960004429e+01  -4.646817218782e+01  -2.366631342852e+01 
8
Step 35000
1 1 -1.854657591279e+02  -3.504050771922e+02  -1.220673078983e+02 
2 1  1.650859352952e+02  -3.124975503325e+02   6.190676371229e+01 
3 1 -2.096818490461e+00   1.753228324834e+02   1.552025210957e+02 
4 1 -1.086155122944e+02  -2.547491040312e+02   6.829374863115e+01 
5 1  1.238810993179e+02  -2.844287200886e+01   6.723623321451e+01 
6 1  7.116267247889e+01  -1.980367483558e+02  -3.972509918231e+01 
7 1  1.316522643615e+02  -1.618625886754e+02   7.009648726999e+01 
8 1  1.627773279026e+01  -2.190997179324e+02  -9.767513980491e+01 
8
Step 36000
1 1 -6.950355839310e+01  -1.526030658818e+02  -5.162635794557e+01 
2 1  1.978635461815e+02  -1.154400241293e+02  -1.118401028001e+00 
3 1 -1.151179401819e+02   1.294480105355e+02   7.813254141865e+01 
4 1  1.823718618157e+02  -3.307332022382e+02   1.131378022988e+02 
5 1  9.030403129840e+01   1.472063380902e+02   3.535852640570e+00 
6 1  8.766714310429e+01  -1.175921092575e+02  -5.000588844174e+01 
7 1  8.044616078944e+01  -1.258841672379e+02  -5.269819179893e+01 
8 1  5.439125039105e+01  -3.521080409273e+02  -1.250398576205e+02 
8
Step 37000
1 1  2.357644314722e+01   9.076105106245e+01   5.930668649708e+01 
2 1  1.337731702800e+02   4.049343718129e+01  -7.671143784210e+01 
3 1 -1.510679662071e+02  -4.304296445056e+01  -2.855993737618e+01 
4 1  5.498100526512e+02  -2.226395966121e+02   1.420035352541e+02 
5 1  3.287353113797e+01   3.018482040767e+02  -1.471861643206e+02 
6 1  7.507369051167e+01   4.832629160763e+01  -9.689960272821e+01 
7 1  3.060877997304e+01  -6.508066819466e+01  -1.443406262454e+02 
8 1  1.537366996050e+02  -3.246962870216e+02  -1.162377010885e+02 
8
Step 38000
1 1  7.359972306229e+01   2.848958848694e+02   2.453905119438e+02 
2 1  1.662039088040e+01   1.112881399728e+02  -1.473836471970e+02 
3 1 -1.279015606039e+02  -2.800553607137e+02  -1.557885593312e+02 
4 1  4.677736608912e+02  -2.108642014247e+01   1.641656923525e+02 
5 1 -4.359170762390e+01   2.577525232889e+02  -2.694312456079e+02 
6 1  4.738354346472e+01   2.416788688577e+02  -2.435076523153e+02 
7 1 -2.305101626184e+01  -1.222060220715e+01  -1.509062028377e+02 
8 1  2.796897929228e+02  -1.551341426147e+02  -9.734391934401e+01 
8
Step 39000
1 1  7.671092602061e+01   3.079333899062e+02   4.395739501379e+02 
2 1 -9.416254870281e+01   1.059055805663e+02  -1.799444154972e+02 
3 1 -8.846621722295e+01  -3.876577918554e+02  -3.062879450869e+02 
4 1  1.879371667835e+02   1.839770105486e+02   1.638357996828e+02 
5 1 -1.181226556795e+02   6.487806970010e+01  -2.367467247057e+02 
6 1  2.554042865168e+01   3.302419517469e+02  -4.174941296443e+02 
7 1 -7.752885636218e+01   1.221078484738e+01  -6.738236877646e+01 
8 1  2.970019323853e+02   3.018269302994e+01  -8.823338451251e+01 
8
Step 40000
1 1  3.967097880286e+01   1.483400803279e+02   3.488020866240e+02 
2 1 -1.648318750540e+02   5.682608078598e+01  -1.438178899527e+02 
3 1 -6.929740650600e+01  -2.643380658654e+02  -4.413556337294e+02 
4 1 -3.653758907632e+01   3.231265949341e+02   1.183822553584e+02 
5 1 -1.579078603912e+02  -1.515842393380e+02  -5.834830579073e+01 
6 1  3.319986027846e+01   2.278825416467e+02  -3.284679202020e+02 
7 1 -1.159360479987e+02   1.249729971485e+00   4.249525179446e+01 
8 1  1.292698546185e+02   1.825978897099e+02  -8.033148370005e+01 
8
Step 41000
1 1 -1.335897791053e+01  -4.766600465305e+01   5.145523431873e+01 
2 1 -1.850480596922e+02   2.435776492679e+00  -3.925949099386e+01 
3 1 -7.500982085325e+01  -7.149535972605e+01  -3.628200403004e+02 
4 1 -2.133478072962e+02   3.073570502574e+02   1.798419836864e+01 
5 1 -1.346064318501e+02  -2.971911588201e+02   2.036316032192e+02 
6 1  8.020485625766e+01   5.012039187743e+01  -3.845556272455e+01 
7 1 -1.131187220904e+02  -3.044542469644e+01   1.172880966676e+02 
8 1 -1.420461339944e+02   2.768190944869e+02  -4.508103300980e+01 
8
Step 42000
1 1 -4.343161578730e+01  -1.888251450080e+02  -2.456384243887e+02 
2 1 -1.696158834686e+02  -2.757448865827e+01   1.118678094338e+02 
3 1 -8.173833410208e+01   7.330071647254e+01  -4.823939230464e+01 
4 1 -3.061292196679e+02   1.702756601040e+02  -1.248912218835e+02 
5 1 -4.291562230859e+01  -2.776301027414e+02   4.204925455414e+02 
6 1  1.361818549410e+02  -9.462586707451e+01   2.884621825992e+02 
7 1 -5.250293506617e+01  -1.910478383573e+01   1.237579748370e+02 
8 1 -4.019823584309e+02   2.665527055424e+02   3.177118042693e+01 
8
Step 43000
1 1 -1.492192333166e+01  -2.217491557947e+02  -4.021531813812e+02 
2 1 -1.159457478384e+02  -1.622014189092e+01   2.618049173079e+02 
3 1 -6.122401418954e+01   1.403202366630e+02   3.822028284378e+02 
4 1 -2.721240629412e+02   2.298536542253e+01  -2.639000177730e+02 
5 1  1.086979171596e+02  -1.255870811555e+02   3.501831386351e+02 
6 1  1.383350209409e+02  -1.630964872129e+02   4.875138995461e+02 
7 1  6.372946618030e+01   9.410667188456e+01   6.716141185872e+01 
8 1 -4.011368448925e+02   1.556233659922e+02   1.369043668977e+02 
8
Step 44000
1 1  7.522131752697e+01  -1.475038375836e+02  -2.928277858510e+02 
2 1  1.161801294043e+00   4.054538091250e+01   2.958545825425e+02 
3 1 -1.560298772653e-01   1.345407138279e+02   6.471520474961e+02 
4 1 -1.683006516692e+02  -6.702811472233e+01  -3.005232577367e+02 
5 1  3.148058462272e+02   4.535537190001e+01   1.104456475821e+02 
6 1  4.388147765095e+01  -1.542518866719e+02   3.556707913114e+02 
7 1  2.134726161267e+02   2.645390484779e+02  -1.411639338316e+01 
8 1 -1.771900685502e+02   1.113567236217e+01   2.357224982407e+02 
8
Step 45000
1 1  1.964777447770e+02  -2.942126459234e+01  -1.152349722845e+02 
2 1  1.766567199678e+02   1.382171534126e+02   1.632436414689e+02 
3 1  9.420410754680e+01   9.100087764787e+01   2.742736829557e+02 
4 1 -6.078634287297e+01  -8.547550489191e+01  -1.847847273563e+02 
5 1  4.419906263093e+02   1.689637928089e+02  -1.076153627248e+02 
6 1 -1.449400980211e+02  -1.035129755109e+02   1.956154655600e+02 
7 1  3.217591290073e+02   3.424504269147e+02  -8.317923862919e+01 
8 1  2.624976766307e+01  -1.218081839200e+02   2.725397131714e+02 
8
Step 46000
1 1  2.735326545748e+02   8.453876892131e+01   5.582933020740e+00 
2 1  3.130988564047e+02   2.627989931465e+02  -4.519117067426e+01 
3 1  1.917415783207e+02   5.236553897084e+01  -1.407710939157e+00 
4 1  4.149801519868e+01  -7.247571300901e+01  -2.526330385938e+00 
5 1  2.590052976849e+02   2.042019189043e+02  -2.659665879418e+02 
6 1 -3.637482513670e+02  -4.808315937195e+01   1.252761964471e+02 
7 1  2.743871943836e+02   2.303357110599e+02  -1.212970601036e+02 
8 1  1.513179968543e+02  -2.173984268006e+02   2.162563478067e+02 
8
Step 47000
1 1  2.080837406807e+02   1.678176220027e+02   7.921704334066e+01 
2 1  2.727614834339e+02   3.373430729065e+02  -2.410888600139e+02 
3 1  2.357192556805e+02   3.589034959331e+01  -1.338782211160e+02 
4 1  1.397694448612e+02  -6.162157825269e+01   1.359403268553e+02 
5 1 -7.059419099375e+01   1.452768564614e+02  -2.978024328572e+02 
6 1 -4.069986921580e+02  -1.900029696628e+00   7.222422453652e+01 
7 1  8.335868723163e+01   2.278026681469e+01  -1.280494299184e+02 
8 1  1.643250586814e+02  -2.397931586159e+02   9.958315511957e+01 
8
Step 48000
1 1 -3.791362980263e+00   1.948034781859e+02   1.101088111971e+02 
2 1  9.986893251153e+01   2.172695660881e+02  -3.131034908206e+02 
3 1  1.800650648274e+02   3.892761684427e+01  -1.560065637773e+02 
4 1  2.150147773737e+02  -5.779030575533e+01   1.660101983670e+02 
5 1 -3.772816026354e+02   4.163782626333e+01  -1.996794313103e+02 
6 1 -2.197859683762e+02   4.278425076140e+01  -5.299106142928e+00 
7 1 -1.647714043270e+02  -1.862529776465e+02  -1.082450244295e+02 
8 1  7.007818129378e+01  -1.758735474618e+02  -4.001129972404e+01 
8
Step 49000
1 1 -3.171318852762e+02   1.561359277514e+02   9.570051341094e+01 
2 1 -9.013933376466e+01  -9.567856542303e+01  -2.147168515153e+02 
3 1  4.376349994874e+01   5.569511148892e+01  -8.031439172154e+01 
4 1  2.315073444036e+02  -5.711570734148e+01   1.385758568016e+02 
5 1 -4.272443816653e+02  -4.917818324750e+01  -5.075637458846e+01 
6 1 -3.869566678345e+00   9.428583005924e+01  -1.210557437550e+02 
7 1 -3.656497957678e+02  -3.180802640815e+02  -5.956972657916e+01 
8 1 -6.693680014741e+01  -5.964599688668e+01  -1.925942784694e+02 
8
Step 50000
1 1 -5.383300167163e+02   7.303893358610e+01   4.344445423049e+01 
2 1 -2.280544602250e+02  -5.124439182960e+02  -6.728369441262e+01 
3 1 -1.278695822276e+02   7.052692085037e+01   2.770653594321e+01 
4 1  1.699636829615e+02  -5.231792891843e+01   1.035051106379e+02 
5 1 -1.702794868106e+02  -9.870702471562e+01   9.360420628569e+01 
6 1  1.676293581939e+02   1.307721876090e+02  -2.491557810400e+02 
7 1 -3.380402870441e+02  -2.820955798587e+02   2.497282507233e+01 
8 1 -1.679479783205e+02   8.063683390638e+01  -3.304341041715e+02 
8
Step 51000
1 1 -3.141706992413e+02  -2.439690942426e+01  -2.566779386638e+01 
2 1 -2.488303942701e+02  -5.343516798740e+02   4.552174027909e+01 
3 1 -2.793904523293e+02   5.044088168509e+01   1.017660671750e+02 
4 1  5.236863137137e+01  -3.455189968351e+01   5.325609047223e+01 
5 1 -1.879871490695e+01  -9.976941064223e+01   1.915051822331e+02 
6 1  2.659999032442e+02   1.250253197077e+02  -3.026228424301e+02 
7 1 -1.740501730599e+02  -1.397728935843e+02   1.592982401221e+02 
8 1 -1.747899742679e+02   2.348980369296e+02  -3.508953914456e+02 
8
Step 52000
1 1 -2.827786605757e+01  -1.126804235470e+02  -8.448396612833e+01 
2 1 -1.525795806605e+02  -2.088774429476e+02   1.164009973242e+02 
3 1 -3.045410888232e+02  -2.702727346311e+01   9.581112471895e+01 
4 1 -7.556899040425e+01   5.116077836340e-01  -1.160537812282e+01 
5 1  3.937914670554e+01  -5.179530304978e+01   2.022093076268e+02 
6 1  2.583442835541e+02   8.094459769400e+01  -2.219865694076e+02 
7 1 -3.985345005384e+01  -2.035887029525e+01   3.296184337533e+02 
8 1 -7.798932846440e+01   3.245878307825e+02  -2.140512438107e+02 
8
Step 53000
1 1  1.361233984457e+02  -1.622955874593e+02  -1.066262949250e+02 
2 1 -1.388692365080e+01  -1.632981296590e+01   1.543116273727e+02 
3 1 -1.771587432319e+02  -1.487804273722e+02   2.762737022699e+00 
4 1 -1.577387740640e+02   4.901959796554e+01  -7.086740974548e+01 
5 1  6.168097327926e+01   2.788271948834e+01   1.272805270142e+02 
6 1  1.794083942671e+02   1.630433788131e+01  -6.921864722657e+01 
7 1  8.298701012643e+01   3.726013733151e+01   3.842458920873e+02 
8 1  8.958636482109e+01   2.423367669271e+02  -4.117707482255e+01 
8
Step 54000
1 1  2.262227355032e+02  -1.477220085080e+02  -7.322176341578e+01 
2 1  1.105013971941e+02   1.048053181627e+02   1.694704032663e+02 
3 1 -1.046837045300e+01  -2.637102354491e+02  -1.528899487602e+02 
4 1 -1.541886790987e+02   9.940476345757e+01  -9.739464652929e+01 
5 1  6.663564829620e+01   9.681911076595e+01   1.025134256778e+01 