8
Step 0
1 1  6.996693238828e+01   7.469439318030e+01   1.326126063853e+02 
2 1 -1.287408018267e+02  -5.142264762559e+01  -6.605502877963e+01 
3 1  2.212272819704e+02   5.224517838276e+02  -4.933316113084e+02 
4 1 -2.264853518711e+01   3.234507045652e+02  -3.003450626458e+00 
5 1 -3.551410567312e+02   1.756872163687e+02   1.943390465091e+02 
6 1 -1.790506797002e+02   4.296312042446e+02   9.244749381836e+01 
7 1  4.142520312552e+02   7.826418517363e+01   1.229819817333e+02 
8 1  4.523983844474e+02   3.572663025112e+02   1.679448558482e+02 
8
Step 1000
1 1  7.012546495881e+01  -7.152719323694e+01   4.025890629056e+02 
2 1 -6.416673123378e+02   1.794144194157e+02   1.277386988331e+02 
3 1  2.065286282379e+02  -1.501165058593e+02  -3.965218339001e+02 
4 1 -1.126356172804e+02   1.641092119804e+02   3.504003104177e+02 
5 1 -1.036447496207e+01   2.179984219861e+02  -9.289883975159e+01 
6 1 -1.252091076151e+02   1.609873340289e+02   4.713191957643e+01 
7 1  1.889009014222e+02   2.342056920912e+02  -2.466036486233e+02 
8 1  3.280616985324e+02   3.936602759339e+02   3.112698171324e+02 
8
Step 2000
1 1 -1.693748584951e+02  -3.215704003356e+02   4.426174088977e+02 
2 1 -2.577074913315e+02   3.137541166607e+02  -2.626956284847e+01 
3 1  9.522757376886e+01   2.328027296207e+02  -3.851281908428e+02 
4 1 -2.450142916502e+02   6.606004489905e+00  -3.881743466436e+00 
5 1  2.501933822748e+02   1.612396767966e+02   8.157964220023e+01 
6 1  1.927933863611e+01  -2.228479429501e+02  -1.404434175451e+01 
7 1  5.671273811979e+01   1.524793375300e+02   3.977498240966e+02 
8 1  4.461327642435e+01   3.194951122213e+02   4.992655437048e+01 
8
Step 3000
1 1  2.041644108332e+02  -6.414774276227e+02   4.210285054709e+02 
2 1 -3.556490773545e+02   6.448989977610e+02  -2.248398358850e+02 
3 1 -1.424799722042e+02   4.235582687122e+02  -1.807667949785e+00 
4 1 -4.395311424365e+01  -9.861442434109e+01   1.238355305259e+02 
5 1  2.289612657502e+02  -3.228534211443e+01   1.025381650894e+02 
6 1  2.686827824965e+02  -6.696768314582e+01   5.958336986330e+01 
7 1 -5.624388659791e+02   3.583537282784e+02  -3.379804968568e+02 
8 1  4.673189439428e+02   1.727750301217e+02  -9.404555138330e+01 
8
Step 4000
1 1  1.517036917565e+02   3.578407515393e+01   2.487859830091e+02 
2 1 -3.122272423810e+02   4.347857304200e+02   3.830895398993e+01 
3 1  2.262504724414e+02   6.951634309481e+01  -1.595856103786e+02 
4 1  4.354478736973e+02   4.111249300044e+01   4.253453059018e+02 
5 1  1.434761115703e+02   3.653181595510e+02  -1.527321610458e+02 
6 1 -1.191233384431e+02   8.735011640852e+01   3.113492533772e+01 
7 1  1.813019116286e+01  -1.556866885564e+02   3.142828566255e+02 
8 1  3.883865372290e+02   3.871621032874e+00  -3.956443511735e+01 
8
Step 5000
1 1 -6.729409373306e+02   2.292330613090e+02   6.000508762165e+02 
2 1  8.579918905286e+01   9.945069301486e+01   2.868671706030e+02 
3 1  3.955153316289e+01   1.404350009688e+02  -2.498062684905e+02 
4 1  1.379467994710e+02  -1.982621338084e+02   4.365075887120e+01 
5 1 -5.173679283790e+01   1.951271156650e+02   8.224030717411e+00 
6 1  3.073346928295e+02   4.127989465540e+02  -2.222140330621e+02 
7 1 -3.397018902688e+02  -1.643284241606e+01  -2.017261032789e+01 
8 1  1.007562275742e+02  -9.239853757853e+01   1.029127072914e+02 
8
Step 6000
1 1 -4.759367890413e+02  -1.585396403842e+02   2.433758875516e+02 
2 1 -3.259435678900e+02   3.674495716686e+02   2.441175575910e+02 
3 1  4.244852251125e+02   1.456904017924e+02  -2.028575778446e-01 
4 1  3.959025512620e+02   3.109987285978e+02  -2.991903244098e+02 
5 1  9.234298989974e+01   1.306257304880e+02   2.185008406725e+02 
6 1  8.701073214427e+01  -5.342310813387e+01  -1.071306546822e+02 
7 1 -2.925557878326e+02   4.107772699408e+02  -9.659119467282e+00 
8 1 -3.952821715112e+02  -1.742697548525e+02   5.907177728607e+02 
8
Step 7000
1 1  4.112168887982e-01   8.988424320807e+01   3.139981152249e+02 
2 1 -4.385741716602e+01   1.843804286616e+02   1.478572757470e+02 
3 1  4.274179271353e+02   3.305586644776e+02   1.884926756002e+02 
4 1  7.118293839355e+01   1.254832073757e+02  -4.124967646986e+02 
5 1 -3.274992269198e+02   3.775273952848e+02  -1.317464774684e+02 
6 1  1.370153402745e+02  -3.186985302725e+02  -5.364988069497e+02 
7 1 -9.511276161967e+00  -5.510730337881e+02  -2.261225541309e+02 
8 1 -6.203074428126e+02  -4.622517445047e+02   3.463058930629e+01 
8
Step 8000
1 1 -1.393601337470e+02   1.806884508547e+02   3.843568885379e+02 
2 1  3.197332455447e+01  -3.508710380209e+02   3.337859157511e+02 
3 1  5.444007997339e+01   4.901944332404e+02  -1.081047877294e+02 
4 1  2.370677731102e+02  -1.907643452865e+01  -4.042734049262e+02 
5 1  9.606905839194e+01  -1.160709663200e+02  -3.063188930525e+02 
6 1  2.578906187527e+02  -9.707685633128e+01  -3.575554340765e+02 
7 1 -8.747889737767e+01  -8.262083710469e+02   1.950964065902e+01 
8 1 -3.824769986295e+02  -3.936005165668e+02   3.434395920961e+02 
8
Step 9000
1 1  1.454702013166e+02   2.030703776207e+02  -9.104527286788e+01 
2 1  1.493739410672e+02  -1.374568500401e+02   8.343387391366e+01 
3 1  3.963104721004e+02   2.159349727193e+02  -6.171402695279e+02 
4 1  2.918911418755e+01   1.767965959357e+02  -6.137354699031e+01 
5 1 -2.513481688186e+02  -1.061270386137e+02  -1.410505474369e+02 
6 1  2.747375032100e+02  -1.535636746907e+02  -2.756125984788e+01 
7 1 -1.060252854984e+02  -2.399475856014e+02  -7.630104760822e+01 
8 1 -5.246715924131e+01  -2.602933982589e+01   4.965914105071e+02 
8
Step 10000
1 1  1.660663951963e+02  -4.467279900628e+01   1.422603214468e+02 
2 1 -3.598396441064e+01  -1.951712906836e+02   6.693089444489e+00 
3 1 -1.144707749600e+02   2.643129514276e+02  -2.972396648451e+02 
4 1 -1.682078927416e+02  -4.689103221173e+01   5.927406187703e+00 
5 1 -1.545254411772e+02  -1.063018143773e+02   3.629697534947e+00 
6 1  1.165085544691e+02  -2.498987425806e+02  -4.518966564860e+02 
7 1 -2.809498647666e+01  -5.760060866177e+02  -5.196428346863e+02 
8 1 -1.451128778279e+02  -2.024521735038e+01   2.352355093056e+02 
8
Step 11000
1 1  4.653082432956e+02  -4.638507196406e+02  -2.080600734334e+02 
2 1  2.607378204741e+02   1.974406079830e+00  -3.906963324095e+01 
3 1 -3.397640360079e+02   3.236712172112e+02  -5.081691328572e+01 
4 1 -1.494673618778e+02  -1.728885983916e+02   2.044072724865e+01 
5 1  7.171803841380e+01   6.827073476249e+00  -2.292538916993e+01 
6 1 -2.077999387711e+02  -6.174691885315e+01  -4.653108452497e+02 
7 1  3.985033596716e+02  -2.096982083168e+02   8.249343491912e+01 
8 1 -5.752699642152e+02   6.012294688613e+01  -2.056867270278e+02 
8
Step 12000
1 1  4.743145829845e+02   1.123725859105e+01  -1.910792051626e+02 
2 1 -1.593354819847e+02  -1.835000910024e+02  -1.063387884366e+02 
3 1 -1.492046183793e+02  -2.967289631505e+01   1.373933256253e+02 
4 1  4.829786421931e+01   9.913666644014e+01   1.213356284031e+02 
5 1 -1.765693571003e+02   4.485551612342e+02  -6.112420882518e+02 
6 1 -4.147609677887e+02  -3.737354902788e+02  -4.182427727516e+01 
7 1  3.194322260784e+02  -2.817784357999e+00   6.539804489298e+01 
8 1 -1.496874816346e+02  -2.194213553353e+02  -3.300112636220e+02 
8
Step 13000
1 1  2.221024443326e+02  -1.909653772984e+02   1.770286565690e+01 
2 1  3.407877593733e+02  -1.629813856510e+01  -2.539964241287e+02 
3 1  7.082949690668e+01  -1.014433580729e+02   5.721268266324e+01 
4 1  4.849837950660e+02  -3.863869856830e+02  -1.993247009332e+02 
5 1 -2.286157811620e+02   1.620378592807e+02  -2.986658847255e+02 
6 1  3.049210913685e+01  -4.164158605488e+02   1.361802510034e+02 
7 1  2.433733247079e+02   9.678518678868e+01  -3.157586617641e+02 
8 1  3.745563838576e+02  -2.366231626048e+02  -3.306680916572e+02 
8
Step 14000
1 1  4.413855544783e+02   2.654605338913e+02   3.899356259545e+02 
2 1  4.608483295438e+02  -1.427628593778e+02   1.257636106855e+02 
3 1  1.769002402221e+02  -6.621689592167e+01   5.418236036718e+01 
4 1 -3.766351767858e+02   4.491105153934e+01  -2.162492890898e+02 
5 1 -3.354191311245e+02  -7.810035961768e+01  -1.909596279851e+01 
6 1  3.547577541648e+02  -1.807744281887e+02   3.595413419961e+02 
7 1 -2.901438261997e+02  -7.593132169409e+02  -5.831000326377e+01 
8 1  2.039063632422e+02  -4.770791720763e+02  -4.906063674003e+02 
8
Step 15000
1 1  4.078613455167e+02   2.656261070263e+02   3.690685487093e+02 
2 1 -1.754420482142e+02   1.788672565468e+01  -2.471620608764e+02 
3 1  5.246096087917e+02   6.833584634533e+01  -1.645269376756e+02 
4 1 -2.002906255258e+02   6.005659027562e+01   1.867417675480e+02 
5 1 -1.225834804141e+02   1.953285297886e+02  -4.658127428616e+01 
6 1 -1.244180586096e+02  -1.093216560884e+02   9.336011530875e+01 
7 1  1.360145481211e+02  -3.388734830773e+02   5.300587688572e+01 
8 1 -5.304037230194e+01  -1.851786022259e+02  -2.811464100900e+02 
8
Step 16000
1 1  2.584701880247e+02  -7.731533459925e+01   4.688567784936e+02 
2 1 -2.144927583142e+01   6.318097980436e+00  -2.661582466642e+02 
3 1  8.699328112335e+01   5.567449021616e+02  -1.961515747396e+02 
4 1 -1.997706393277e+02  -3.182891253315e+01   5.420926119317e+02 
5 1 -1.794267775475e+02  -8.584644038499e+01   1.125287513613e+02 
6 1 -3.002337153122e+02  -1.121337855853e+02   2.301911406200e+02 
7 1 -4.400781545385e+01  -4.666913146189e+02   2.865831851143e+00 
8 1 -1.642354523106e+02   6.490807465825e+01  -2.353226090505e+02 
8
Step 17000
1 1  2.905040974653e+02   5.535553153162e+01  -1.739036193116e+02 
2 1  8.713136358552e+01  -1.254511230128e+02  -1.735557380736e+02 
3 1  4.181130647634e+00   3.692627033491e+02   4.020898813042e+02 
4 1  1.330905017074e+02  -1.027560955102e+02   1.554375223874e+02 
5 1  5.190402418963e+01  -2.330441964705e+02   4.292379952676e+02 
6 1 -4.667335290272e+02   1.490839017653e+02   1.999445134364e+02 
7 1 -2.650610550321e+02  -5.700538085019e+01  -2.785067954113e+02 
8 1 -3.159965756797e+01  -1.784625156247e+02  -1.233092078637e+02 
8
Step 18000
1 1  3.606688962933e+02  -5.171885767483e+00   1.074240301714e+02 
2 1  6.168934688357e+01   3.783333170064e+02  -2.600700710062e+02 
3 1  6.444606952894e+01   8.358300585481e+01   5.813234367269e+02 
4 1 -6.310386079741e+00  -2.966754570431e+02   4.621276673131e+02 
5 1  2.202597611293e+02  -3.955612587698e+02   5.320122319227e+02 
6 1  1.139389975883e+02  -5.511643492963e+01   2.512621812456e+02 
7 1 -3.839214825484e+02  -2.286252402109e+02  -2.210259107136e+00 
8 1 -2.303106248464e+02  -6.153202678426e+02   5.282522449596e+01 
8
Step 19000
1 1  4.478636526670e+02   3.345482551969e+01  -2.234878896833e+02 
2 1  1.503696946844e+01   1.454212712511e+01  -3.917769261574e+02 
3 1 -2.401817667346e+02  -3.662153897216e+02   1.741004857667e+02 
4 1  1.998588299962e+02   7.517974564443e+01  -5.745546285334e+01 
5 1 -1.139066819340e+02   1.146820839267e+02   4.577653196110e+02 
6 1 -2.579973725535e+02   3.625205151072e+02   5.775635910687e+02 
7 1 -5.505835986354e+02  -4.164311582054e+01  -2.263066440988e+01 
8 1 -5.202463690955e+02  -2.026367894609e+02  -3.307831826172e+02 
8
Step 20000
1 1  5.065602693272e+02  -8.044531814977e+01  -4.564020497118e+02 
2 1 -1.553874093643e+02   2.430724491951e+02  -1.358770563522e+02 
3 1 -2.976133880255e+02   1.380051392836e+02  -1.464321158518e+02 
4 1  1.007963744182e+02   9.248153719754e+01   3.451055679589e+02 
5 1  2.232876117219e+02  -4.647221876487e+02   2.856078920018e+02 
6 1  2.994754390613e+02   1.121609901256e+02   6.650254976825e+01 
7 1 -4.237170571344e+01  -8.959017484749e+01   9.357279499906e+01 
8 1 -2.300479485790e+02   5.313360486619e+01  -1.480183594586e+02 
8
Step 21000
1 1  4.799852663732e+02  -3.187889715077e+02  -5.373284819395e+01 
2 1 -4.809466160449e+02  -6.796294709239e+01   9.774522867420e+00 
3 1  1.537899206273e+02  -1.000909372225e+02   1.846967279560e+02 
4 1  1.173697185626e+02  -6.883049862700e+01   5.361418889101e+02 
5 1 -3.759566028566e+02  -2.900332279484e+02   2.599830687574e+02 
6 1  5.250475336416e+02  -1.761869507060e+02  -3.301743294253e+01 
7 1 -2.984032276251e+02  -4.117496803384e+01   2.110690099805e+02 
8 1 -3.292592832720e+02  -3.580420900517e+02  -1.607866698768e+02 
8
Step 22000
1 1  2.118333115990e+02  -5.389732677396e+02  -4.150359528907e+01 
2 1  5.570304482477e+01  -5.736493745049e+00  -1.457481030187e+02 
3 1 -2.799624925404e+02   4.046732636584e+02   9.693121155915e+01 
4 1  4.597569354938e+01   4.208869478925e+02   2.689923437667e+02 
5 1  2.906450190127e+02  -1.578781919070e+02   1.233952697981e+01 
6 1  4.041625116087e+02   1.138585531308e+02  -5.628084660274e+02 
7 1  5.986273076097e+01  -2.555773627206e+02  -2.058762674490e+01 
8 1 -4.079229194103e+02  -2.468847432650e+02   6.401392377512e+01 
8
Step 23000
1 1  4.362338166078e+02  -2.877298637007e+02  -1.644238485900e+02 
2 1  4.127795262520e+02  -2.639331522705e+02  -2.778258087375e+02 
3 1  1.229177100267e+02   1.862947822714e+02   4.306102494364e+02 
4 1 -4.397310603897e+02  -7.540607598500e+01   3.628691099914e+02 
5 1  2.182812728772e+02   2.598576331523e+02   2.674109986658e+02 
6 1 -2.028796056030e+02  -1.493417909441e+02  -1.192179473313e+02 
7 1  5.519476487782e+01  -2.725609305719e+02  -4.707821945771e+02 
8 1  1.623494273870e+02   2.799871952049e+02  -2.507574788762e+01 
8
Step 24000
1 1  7.305889700176e+01   2.997231742720e+02   1.059236559566e+02 
2 1  1.482415814155e+02  -3.749398853341e+01  -3.707981062611e+02 
3 1  3.385933033161e+02  -2.527905313236e+02   9.434556357264e+01 
4 1  1.176746568276e+00   3.587318112449e+02   4.860171443841e+01 
5 1  4.264715789308e+02   1.208348374548e+02   6.831995459644e+01 
6 1  1.267867536688e+02  -7.470023622346e+01   1.337153479141e+02 
7 1 -2.588020403384e+01  -2.422958397148e+02  -1.693280949398e+02 
8 1  1.441573722347e+02   4.842529736094e+01  -1.924949556576e+02 
8
Step 25000
1 1 -1.727630616298e+02   4.396832210600e+02   1.844364994607e+02 
2 1  4.918382320983e+02   2.823196912087e+01   8.493012113827e+00 
3 1  3.776785056787e+02   7.826042625024e+01   2.277812872349e+02 
4 1 -2.433223254516e+02   3.319817689620e+02   1.431957127129e+02 
5 1  2.082089865945e+02  -2.267028586818e+02  -1.645830885650e+02 
6 1 -1.919027599236e+02   2.250680868768e+02  -6.026981829415e+01 
7 1  4.182077487707e+02  -4.247282496215e+02   7.747518174578e+02 
8 1  3.596775998830e+01  -4.743197657212e+02  -3.604960910000e+02 
8
Step 26000
1 1 -3.593453200972e+02  -4.447348542009e+02   5.234984203445e+01 
2 1  3.233158717447e+02   2.039544912125e+02   7.032907085162e+01 
3 1  6.306257135807e+01   2.228214659016e+02   2.928203423473e+02 
4 1  4.901501634288e+02  -7.959222372905e+01  -5.123691890872e+01 
5 1  1.837542491717e+02  -2.027639078953e+02  -3.387554506116e+02 
6 1 -3.910608353751e+01   4.060050971402e+02  -3.570823447912e+02 
7 1  5.402914267870e+02  -3.121388273625e+02   7.172156508864e+01 
8 1 -4.021667627390e+01  -3.845339780047e+02  -4.288822397047e+01 
8
Step 27000
1 1  1.160813177184e+02  -1.619822766955e+02   2.502647095473e+01 
2 1  2.027577997065e+02   1.459631537365e+02   2.283449151387e+02 
3 1 -3.913581215288e+01   1.794523254144e+02   4.705487681159e+02 
4 1  4.388313851108e+02  -3.433090410651e+02  -1.920750881902e+02 
5 1 -1.049469307362e+02   4.661330281115e+02  -2.387543533354e+02 
6 1 -2.804948217295e+02   3.461383018834e+02  -3.165098063090e+02 
7 1 -3.691552980306e+01  -2.393391037367e+02   3.862600026501e+01 
8 1 -1.338622000982e+02  -6.717254919041e+01   1.441585098725e+02 
8
Step 28000
1 1 -3.918504373398e+02   1.089600171466e+02  -5.517646162858e+01 
2 1  6.664071039603e+00   5.646023275613e+02   2.841431714949e+02 
3 1 -5.745136259253e+01   5.409873347475e+01   4.279208336582e+02 
4 1  2.389907380629e+02  -7.696107892138e+01  -1.309134620964e+02 
5 1  2.138697228149e+02  -2.583880916797e+01  -2.597592027718e+02 
6 1 -6.875335367136e+02   3.031699686327e+02  -8.173460745882e+01 
7 1 -1.229564039986e+02   1.591877105904e+01   3.683228579998e+02 
8 1  1.328732720765e+01  -3.500580075172e+02   1.103768581302e+02 
8
Step 29000
1 1 -3.548481127437e+02   1.355313394603e+02   5.352860237040e+02 
2 1  1.962644162808e+02   2.319876181126e+02   5.090052345340e+02 
3 1  1.441393917812e+02  -3.924795442444e+01   3.563454404595e+02 
4 1 -2.436611380752e+02  -2.262518478110e+02  -3.125197732219e+02 
5 1  1.915776743907e+02  -2.031236955926e+02  -2.503908240507e+02 
6 1 -2.657898935383e+02   2.837069294107e+02   1.408534294020e+02 
7 1  4.144152094197e+02   1.702753109394e+02   3.035509727204e+02 
8 1  4.525149878793e+01  -4.468363101502e+02   2.002385799616e+02 
8
Step 30000
1 1 -1.610089580751e+01   1.926504898453e+02   7.479088725219e+01 
2 1  2.980146586184e+02   4.251356787000e+02  -2.320126986826e+02 
3 1  1.030314891794e+02  -9.343919592329e-01  -1.013534639674e+02 
4 1 -1.323825268158e+02   3.237721499905e+01   6.593573865277e+01 
5 1 -1.358433729229e+02   1.618734093467e+02  -5.438994679585e+01 
6 1  6.324093611101e+01   3.808533780865e+02  -6.228712672392e+02 
7 1  2.830343879444e+02   2.424346227194e+02   1.653835461348e+02 
8 1 -3.484781056508e+02   1.634834932430e+02   1.668529233766e+02 
8
Step 31000
1 1  2.775490562265e+02   8.123025265338e+01   4.475012246930e+02 
2 1  4.150193544806e+02  -6.008867015631e+01   7.231571510993e+01 
3 1 -2.888332559131e+01   6.893536240452e+00   2.041885756130e+02 
4 1 -2.951042723865e+02  -1.633700331648e+02   6.578343483643e+01 
5 1 -2.939918102297e+02   1.205078148709e+02   1.896304424784e+02 
6 1 -1.152835673838e+01  -1.038266607321e+02  -2.206300736560e+02 
7 1  1.113475707137e+02   3.514248808932e+02   2.385063736777e+02 
8 1 -4.345464500966e+02   5.147266934989e+02   3.309484540607e+02 
8
Step 32000
1 1 -1.373063485549e+02   5.739748718799e+02   1.960742780183e+02 
2 1  2.192266990376e+02  -1.397675411791e+02   5.301128482564e+01 
3 1 -4.142355965630e+02   3.851184468451e+02   4.308504201797e+02 
4 1  3.947610096516e+02   2.304955207349e+02   3.072706581104e+02 
5 1  1.913895985018e+02  -9.203837762766e+01   6.907998789394e+02 
6 1 -3.068471541116e+02  -1.484555900259e+02  -1.445753846389e+02 
7 1  3.674323564580e+02   1.599914653252e+02   4.125059693193e+02 
8 1  1.062769413369e+02  -1.299790509707e+01  -2.204452610140e+02 
8
Step 33000
1 1  1.010075317633e+02   1.228190287308e+02   6.019358340875e+02 
2 1  2.147814599196e+02   2.492202560902e+02   2.809148560414e+02 
3 1 -2.797905662498e+02   2.439295046716e+02   9.437485717374e+01 
4 1  1.336106571093e+02   5.963817647017e+01   1.881070425885e+02 
5 1  9.804299365628e+01  -1.994292909637e+02   2.737256865419e+01 
6 1 -4.415084839936e+01  -1.542552387754e+02   1.667188129114e+02 
7 1 -3.129214848216e+02  -1.390867963833e+02   2.322124174152e+02 
8 1  2.656308647820e+00  -2.869404569538e+00   1.739084410400e+01 
8
Step 34000
1 1  1.113882679844e+02  -1.165624833011e+02   4.535522469903e+02 
2 1  8.020601798510e+01  -1.293001248921e+01   1.170907725591e+01 
3 1 -5.990999955557e+01   7.023329359169e+02  -2.490563889107e+02 
4 1 -2.380930053867e+02  -8.472381333230e+01   2.176582863569e+01 
5 1 -2.879248492254e+02  -6.854079081516e+01   4.744873035982e+02 
6 1  4.985662844848e+02   1.027650093644e+02   1.013641391334e+02 
7 1 -3.764651575087e+02   3.196599105025e+02  -2.849643189060e+02 
8 1  7.891143164178e+01   1.717860652555e+02   6.019271119583e+01 
8
Step 35000
1 1  5.503631110054e+02   1.772265892078e+02   4.958678118483e+02 
2 1  2.487517900810e+02   4.143312728641e+02  -4.636693539496e+01 
3 1  3.529548220196e+02  -2.001160449055e+02  -1.779174959056e+02 
4 1 -1.017336508555e+02   2.841414224220e+02   1.898544898995e+02 
5 1 -8.519479334506e+01   2.869251881241e+01   6.924746943794e+02 
6 1 -4.762777170202e+01   3.141965586749e+02   1.557317297072e+02 
7 1 -4.972569852509e+01  -1.876955899916e+02   5.348325027559e+02 
8 1  1.118914431728e+02   7.897430154619e+01   9.901066567847e+01 
8
Step 36000
1 1  3.514022839135e+02  -1.541269680919e+02   1.489505766064e+02 
2 1 -2.182961640922e+00  -3.571631831572e+01   2.242941251452e+02 
3 1 -3.887234852362e+01  -2.950643128800e+02   8.609117029157e+01 
4 1 -1.486455075780e+02   4.493473374791e+02   9.286427751536e+01 
5 1  2.178678551646e+02  -2.496442605352e+02  -1.818364778379e+01 
6 1  3.279943475093e+01  -2.479435079264e+01  -1.783084341854e+02 
7 1  1.991907017781e+02  -2.360993308619e+01   1.979702637696e+02 
8 1 -1.831756943476e+02   9.972538458271e+01  -6.715584074956e+01 
8
Step 37000
1 1 -1.677940025525e+02   9.340888598389e+01  -8.541705824245e+01 
2 1 -7.410100935258e+01  -2.838827926907e+02   1.472987248044e+01 
3 1  2.025823930828e+01  -1.250087849827e+02   2.030471714661e+01 
4 1 -4.362658189107e+01   1.506837692593e+01   1.546035724368e+02 
5 1  3.361340248091e+02   1.503267899430e+02   2.015771916418e+02 
6 1  3.446498585130e+02  -3.729780300060e+00   4.234823366613e+01 
7 1  2.242952407143e+02  -3.541436535920e+02   8.916046145870e+00 
8 1  1.221072313303e+02   2.815149897648e+02  -1.982022208700e+02 
8
Step 38000
1 1 -6.075997868452e+01   1.358227087613e+02  -1.353053415012e+02 
2 1  6.332620816295e+02  -4.261447062058e+02   1.826308171283e+02 
3 1 -6.944299366567e+01   1.050281328375e+02  -4.756377470422e+02 
4 1 -1.064484871930e+02  -4.080444143200e+02   6.223582325567e+01 
5 1  2.483657261349e+02   9.769385839132e+01  -2.141390335837e+02 
6 1  2.224030156189e+02  -1.321481683996e+02   1.261435084247e+02 
7 1  5.931760202315e+01   2.056840444885e+02  -5.449388671241e+01 
8 1  4.273350854177e+02   1.379753068699e+02   2.501113968683e+02 
8
Step 39000
1 1 -4.881960537776e+02  -5.418673308012e+01   1.534399398058e+02 
2 1  9.271243270821e+01  -2.742237799613e+02   5.453573442783e+02 
3 1  3.053131729844e+02  -2.074287915183e+02  -3.615326716351e+02 
4 1 -4.551820716795e+02  -2.146395467029e+01   8.381568864979e+01 
5 1  2.301606671033e+01  -1.003932880771e+01  -7.027740265796e-01 
6 1  3.024799451888e+02   2.292111999503e+02  -2.004550819087e+02 
7 1  1.901168402812e+02   4.682881623301e+02  -9.789286311581e+01 
8 1  5.690936458095e+02   2.233933304454e+02   7.227375392098e+02 
8
Step 40000
1 1 -5.364425800085e+02  -6.386654919221e+01   1.587469554601e+02 
2 1 -1.892275283978e+01   1.659423469850e+02  -1.858593563972e+02 
3 1  4.286782215728e+01   2.128179295369e+02  -1.371423980001e+02 
4 1 -3.152864201077e+02  -1.929369814722e+02  -3.527508630972e+00 
5 1  3.038497837418e+02  -1.774368348327e+02   1.200298442190e+02 
6 1  1.426346879512e+02  -2.148051028241e+02  -2.913995124184e+02 
7 1  3.201454954730e+02   1.799263812455e+02  -9.462836151244e+01 
8 1  2.097508863348e+02   3.207705104456e+02   2.721156978399e+01 
8
Step 41000
1 1 -4.929492154217e+02  -9.377959394771e+01   3.135911203157e+02 
2 1 -1.794298268794e+02  -2.186732648833e+02  -4.464317958573e+02 
3 1 -7.655837120651e+01   2.037413309273e+02   2.407026815364e+02 
4 1  1.189807750683e+02  -2.437679473852e+02  -5.236322528938e+01 
5 1  1.940031255306e+02   9.611265761469e+01   7.351723907141e+01 
6 1 -2.474810266181e+02   3.272639063037e+02  -3.370873518125e+02 
7 1  5.555426718188e+02   7.518340653161e+01  -3.050225341629e+02 
8 1  4.647797916577e+02   5.655614787788e+02   8.063434892538e+00 
8
Step 42000
1 1 -2.735665780387e+01  -4.114453165986e+01  -1.675649658438e+02 
2 1  1.013345473435e+02  -2.504772485431e+02   3.705295778534e+02 
3 1 -1.497559343825e+02   3.327098947413e+02   3.671931103322e+02 
4 1 -8.516295681796e+01  -7.479394447000e+00   8.870281075032e+01 
5 1 -2.100284634457e+02  -4.311503675774e+01   3.603920303804e+02 
6 1  1.744184912143e+02   7.577556127532e+01  -2.395065527798e+02 
7 1  4.101189093501e+02   1.423459926317e+02  -1.070464127820e+02 
8 1  2.535001884800e+02   7.900529642164e+02   1.272419140277e+02 
8
Step 43000
1 1 -5.512484207683e+02   3.222801715857e+02  -2.593391831721e+01 
2 1  9.871021193964e+01  -1.205440207970e+02   2.004228650968e+02 
3 1 -5.684134906346e+02  -1.242091335716e+02   5.978940966892e+01 
4 1 -2.090306483089e+02  -2.035591142371e+02   6.125926457862e+01 
5 1 -5.482120331979e+02   2.547697811871e+02   1.396642459866e+02 
6 1  1.520525140033e+02  -4.212513419441e+02  -5.672688400919e+01 
7 1 -8.779992632699e+01   1.883041344232e+02  -5.607113542579e+01 
8 1  3.961180519022e+02   2.233028516743e+02  -3.965239656665e+02 
8
Step 44000
1 1  7.916746880341e+00  -2.594921679642e+02   7.558862072263e+01 
2 1  2.299500875427e+02  -1.808892549725e+02   1.268893171503e+02 
3 1 -2.438217396105e+01   3.650611432735e+01   6.901932026059e+02 
4 1 -5.692381847814e+02   5.665277494102e+02   1.578581497195e+02 
5 1 -1.634141944796e+02  -1.587017744956e+02   6.796688699016e+01 
6 1  2.367526720020e+02  -1.247794676977e+02   3.176624968849e+02 
7 1  6.768035286782e+01   4.017862437824e+02  -6.752984609214e+02 
8 1  1.681379648129e+02   6.916751029074e+01  -3.318277531155e+02 
8
Step 45000
1 1 -9.188427946464e+01   3.768252965469e+02   2.098167384549e+02 
2 1  2.207730297699e+02   6.624992438494e+01  -3.311720769053e+02 
3 1  1.325160880539e+02   2.316425323239e+02   3.062497983834e+02 
4 1 -5.420486002022e+02  -1.863354683059e+02   6.180171186478e+01 
5 1  9.960048357473e+01   2.324096337321e+02  -1.332813492154e+02 
6 1 -9.063367457394e+01  -1.855202710535e+02  -4.358789640693e+02 
7 1 -1.643480287626e+02   1.359214869905e+02  -1.821018696373e+02 
8 1 -2.331647155460e+02   2.503149451592e+02  -3.908360004416e+02 
8
Step 46000
1 1  3.641086326110e+02  -8.209565648739e+01  -7.850777960028e+01 
2 1  5.063753888993e+02  -4.207444617895e+02   1.462909966456e+01 
3 1  6.707274396474e+01  -4.465174422430e+01   5.016345523522e+02 
4 1 -2.859417605405e+02  -8.150635024205e+01   5.305214429969e+02 
5 1 -1.011142519082e+02   4.418198436296e+02   3.859743957332e+02 
6 1  1.456213858278e+01  -2.605340029458e+02   7.974388553921e+01 
7 1 -3.465873820699e+02   1.402345493232e+02   3.934861884683e+01 
8 1  7.294739556027e+01  -1.323863738584e+02  -3.158436226711e+02 
8
Step 47000
1 1 -7.072006407415e+01   8.444069356338e+00   2.124696786795e+01 
2 1  4.721952994693e+01  -3.174484248161e+02  -2.886916837190e+02 
3 1 -1.134234973300e+02  -1.723949930181e+02   8.370256513866e+01 
4 1 -1.228758919895e+02   5.453730861262e+02  -1.014486940044e+02 
5 1  4.544448721697e+01   3.817752890370e+01   4.405108882717e+02 
6 1  1.934788105483e+02   7.068152857619e+01  -1.970531319696e+02 
7 1 -7.568545649785e+02   5.742715877246e+02  -3.548913258593e+01 
8 1  2.520235825759e+02  -2.485063953032e+02  -9.241672421523e+01 
8
Step 48000
1 1 -2.732563459891e+01  -1.387158784151e+02  -2.640310392857e+02 
2 1  5.020576067275e+02   4.541330134400e+00  -7.126420038710e+01 
3 1 -2.968542439807e+02  -1.384147053072e+02   3.948806326686e+02 
4 1 -2.851788712439e+02   4.451672009555e+02  -2.348807455378e+02 
5 1  2.651328161939e+02   2.489448740234e+02   9.861558294049e+01 
6 1  2.334582693743e+02   3.753921627948e+02  -8.116041004896e+01 
7 1 -6.046925045675e+01  -5.074130525923e+01  -6.387075282357e+02 
8 1  3.497559595254e+02  -2.046769111925e+02   2.801168162910e+01 
8
Step 49000
1 1 -2.629803830923e+02   3.872317811086e+02   5.945773908546e+01 
2 1  4.065411666218e+02   2.980774488068e+02  -1.061589448834e+02 
3 1 -4.563543099954e+02  -4.535730395001e+01   2.981222375644e+02 
4 1 -5.139006549349e+01   3.628696221697e+01   6.350615819335e+01 
5 1  2.201185088008e+02   1.630482437237e+02  -1.409042980046e+01 
6 1  1.490042694061e+02  -1.372049726088e+02   2.503705606735e+02 
7 1 -1.077971900642e+01  -2.655242546406e+00  -3.516517594661e+02 
8 1 -3.646342724399e+02  -7.320885544210e+01   1.440592964698e+02 
8
Step 50000
1 1  1.507789050623e+02   9.796802227577e+01  -8.577609432765e+01 
2 1 -4.895806918739e+01   2.856802293794e+01   2.653144812370e+02 
3 1 -5.591567656728e+01  -1.364549138544e+02   8.756554718508e+01 
4 1  9.170601308431e+01  -1.729474045211e+02  -5.105661647291e+01 
5 1  1.969171002892e+01   1.593643125567e+02  -3.076708977529e+02 
6 1 -3.389781755438e+02  -1.378794546140e+02   2.453616163888e+02 
7 1  5.025344604114e+02  -1.016271667148e+02   2.222626614848e+02 
8 1 -4.985493430315e+02  -1.389733849174e+02   4.503684497819e+01 
8
Step 51000
1 1 -3.741554745513e+02   1.146722122269e+02   1.900007287852e+02 
2 1 -3.273482318246e+01  -6.026963681975e+01   1.208373345298e+02 
3 1  4.427554560485e+00  -1.893002124007e+02  -2.472390942552e+02 
4 1  1.823357586482e+02   6.473077735838e+00  -1.672978934279e+02 
5 1 -3.357922185393e+01   2.648135380991e+02  -4.169102435696e+01 
6 1 -1.510215028676e+02  -1.652723082430e+02   1.491619886626e+02 
7 1  5.787627012663e-01  -1.614460577016e+02   3.792138714236e+02 
8 1  9.781212162310e+01   7.600010222403e+01   4.478233713071e+01 
8
Step 52000
1 1 -1.386659749639e+02   1.986221653654e+02   2.034218560126e+02 
2 1  6.100570721535e+02   1.204880822360e+02   2.845238074324e+02 
3 1 -9.925252189735e+01   1.376422733853e+02  -2.038756091680e+02 
4 1 -8.425614244801e+01   1.610486633080e+02  -6.581922510276e+02 
5 1  5.683622000668e+02  -8.020560964676e+01   3.369576680678e+02 
6 1 -2.764782073633e+02  -4.697785755553e+02  -5.959586741395e+01 
7 1 -5.229646416758e+02  -1.232512027171e+02  -7.433552179143e+01 
8 1  2.378209225151e+02   2.514597325317e+02  -2.431736632507e+02 
8
Step 53000
1 1 -2.797234765803e+02  -7.907997314612e+01   3.630020067598e+02 
2 1  3.253259315090e+02   2.096576065858e+02   3.961277055338e+02 
3 1 -7.064977170540e+02  -2.337284977239e+02   4.515361927580e+01 
4 1 -1.899104780493e+02  -1.441798784251e+02  -2.193252007844e+02 
5 1  1.546904224165e+02   2.881036004501e+02   2.133117885592e+02 
6 1 -5.796435010635e+02  -3.991215459444e+02  -2.073698624157e+02 
7 1 -4.632350530885e+02  -1.064150257381e+02  -4.812150593880e+02 
8 1  1.196815816198e+02   3.900684216946e+02   2.675068358894e+02 
8
Step 54000
1 1  2.526212704487e+01  -3.402824530905e+02   2.060114470583e+02 
2 1  3.158601086846e+02   3.120255456214e+01   2.110953251402e+02 
3 1 -1.056793233799e+02   3.598576673605e+02   7.665971920578e+02 
4 1 -3.025325320726e+02  -5.619821741326e+01  -1.021114022917e+02 
5 1  2.881517647230e+01   1.404013650229e+02  -5.102649771482e+01 