8
Step 0
1 1  2.847717345077e+02  -8.552029749664e+01  -1.276140599868e+02 
2 1 -2.317894074601e+02  -2.539882721922e+02   2.346897676519e+02 
3 1 -2.350098000602e+02  -1.307547283285e+02   2.635093922833e+02 
4 1 -1.692987193033e+02  -9.529920617174e+00   1.964631093627e+02 
5 1  2.323091173866e+02  -1.435322582653e+02   1.693901807588e+02 
6 1  4.654235617470e+02   5.104319094571e+02  -1.674137158823e+02 
7 1  1.922295072350e+01  -2.024048829196e+02  -3.903721119857e+01 
8 1 -7.246404150530e+01  -2.529581708650e+02   3.047554722872e+02 
8
Step 1000
1 1  4.020336775862e+02  -2.434008557356e+02  -8.276743576414e+01 
2 1  3.102287571113e+01  -4.809372930872e+02  -2.568669272198e+01 
3 1 -3.127818113632e+02   1.024623653839e+02   2.187836465328e+02 
4 1 -1.974063442272e+02   9.354161844210e+00  -7.958334105778e+01 
5 1  1.799230730595e+02  -6.113808286518e+01   2.741306479322e+02 
6 1  4.054940015410e+02   2.026761510641e+02   8.915300261468e+01 
7 1 -1.117424070045e+02  -2.513811888689e+02   1.213638709316e+02 
8 1 -8.165847121430e+01  -4.318856973376e+02   1.666979177653e+01 
8
Step 2000
1 1  3.500029600184e+02  -3.023943949573e+02   1.772582217237e+01 
2 1  2.813634469893e+02  -4.395107238773e+02  -2.997215488253e+02 
3 1 -2.944223749919e+02   3.002108307167e+02   7.680649039429e+01 
4 1 -1.807306443593e+02   2.989990623148e+01  -3.074433546203e+02 
5 1  3.491367671496e+01   4.660166146824e+01   2.359194914788e+02 
6 1  1.782797401585e+02  -1.155800365778e+02   3.119804787600e+02 
7 1 -1.787471507573e+02  -1.935144893110e+02   2.530267832091e+02 
8 1 -7.610329426722e+01  -4.247273963344e+02  -2.831263063053e+02 
8
Step 3000
1 1  1.562459804448e+02  -2.480153177402e+02   1.359656495551e+02 
2 1  3.775882789737e+02  -1.654670684925e+02  -4.566139995286e+02 
3 1 -1.864451962209e+02   3.896494891296e+02  -7.883324416956e+01 
4 1 -1.373758625273e+02   5.699196395874e+01  -3.946733948884e+02 
5 1 -1.381288301240e+02   9.116330674633e+01   8.018896699328e+01 
6 1 -9.670368339578e+01  -3.197976791221e+02   4.089068885914e+02 
7 1 -1.663937481919e+02  -6.015464678309e+01   3.134576900848e+02 
8 1 -7.942343076258e+01  -2.295449914772e+02  -4.403628988002e+02 
8
Step 4000
1 1 -8.126835457225e+01  -1.090968065870e+02   2.139364271830e+02 
2 1  2.615730962416e+02   1.426325117789e+02  -3.914736248976e+02 
3 1 -3.296583132490e+01   3.285584352090e+02  -1.792284317905e+02 
4 1 -7.743986867279e+01   8.485659699422e+01  -3.123900231043e+02 
5 1 -2.855012389766e+02   5.075547634336e+01  -9.328123246704e+01 
6 1 -3.250508903749e+02  -3.440705956270e+02   3.373015377906e+02 
7 1 -1.010710863480e+02   8.746551483453e+01   2.756021510914e+02 
8 1 -7.271258398800e+01   6.918483222491e+00  -3.664736561351e+02 
8
Step 5000
1 1 -2.739065697586e+02   2.503633338188e+01   2.297119626161e+02 
2 1  2.870089618947e+01   3.506299674778e+02  -1.785014222677e+02 
3 1  1.187857447492e+02   1.659978693808e+02  -1.853864162626e+02 
4 1  2.776356905818e-01   9.612954071849e+01  -1.421147461883e+02 
5 1 -3.425476609508e+02  -2.615864740774e+01  -2.056343674553e+02 
6 1 -4.176132065053e+02  -2.181764129676e+02   1.638307901775e+02 
7 1 -2.530790025504e+01   1.929454823670e+02   1.542982242203e+02 
8 1 -3.575422455648e+01   1.702773896685e+02  -1.453774018468e+02 
8
Step 6000
1 1 -3.394891909952e+02   9.212142714735e+01   1.575487198989e+02 
2 1 -1.861093924977e+02   3.733012366986e+02   4.814416707952e+01 
3 1  2.279941425970e+02  -1.450179120863e+01  -1.025280781781e+02 
4 1  9.337710330911e+01   7.045546187156e+01   1.563525342889e+01 
5 1 -2.547282342254e+02  -1.007701414973e+02  -2.161961097850e+02 
6 1 -3.423777614783e+02  -5.017371945613e+01  -1.053675606786e+01 
7 1  3.285864053993e+01   2.202304497234e+02  -3.421994914847e+00 
8 1  1.821919086724e+01   2.313140917415e+02   8.440767782806e+01 
8
Step 7000
1 1 -2.484767134991e+02   9.329777492439e+01  -7.978926893495e+00 
2 1 -2.888762085560e+02   2.233483409236e+02   2.112716291917e+02 
3 1  2.588117771713e+02  -1.551389304430e+02   1.520834970881e+01 
4 1  1.866476175475e+02  -7.932847362723e-01   1.082033961631e+02 
5 1 -7.053002802126e+01  -1.264378199313e+02  -1.222734735565e+02 
6 1 -1.740071726258e+02   7.061329297999e+01  -1.248988883772e+02 
7 1  6.080832504278e+01   1.730763121109e+02  -1.456136003444e+02 
8 1  9.900542646826e+01   1.860838851000e+02   2.323788556778e+02 
8
Step 8000
1 1 -6.818780968558e+01   5.484979730277e+01  -2.122695421219e+02 
2 1 -2.359691123575e+02   1.877458202882e+00   2.689955909977e+02 
3 1  2.014028110862e+02  -2.246674954591e+02   1.050849871175e+02 
4 1  2.479174920982e+02  -1.066691838361e+02   1.279577868636e+02 
5 1  1.238139546157e+02  -7.605728016589e+01   1.411911671887e+01 
6 1  4.335412211330e+00   1.070444644153e+02  -1.615991975031e+02 
7 1  6.574437200969e+01   9.135376859512e+01  -2.270528525931e+02 
8 1  1.972285438586e+02   8.418910902725e+01   2.635543015753e+02 
8
Step 9000
1 1  1.065604797580e+02   4.295836216421e+00  -3.559510239336e+02 
2 1 -7.326984400705e+01  -1.944411716651e+02   2.256852114490e+02 
3 1  8.558708506225e+01  -2.093814507532e+02   1.317421287183e+02 
4 1  2.394181015067e+02  -2.148953118035e+02   9.871097511689e+01 
5 1  2.544509272147e+02   3.833738983620e+01   1.224100603963e+02 
6 1  1.535408910843e+02   6.997551927139e+01  -1.369892463398e+02 
7 1  6.621905041966e+01   1.650543783717e+01  -2.213794829548e+02 
8 1  2.672709125325e+02  -5.537829270153e+00   1.870464645602e+02 
8
Step 10000
1 1  2.135783205671e+02  -1.922328384911e+01  -3.550447117974e+02 
2 1  8.890447795022e+01  -2.896805362476e+02   1.340651576085e+02 
3 1 -3.799767671418e+01  -1.316118721861e+02   9.025791642411e+01 
4 1  1.435753220159e+02  -2.734305789473e+02   6.032621522276e+01 
5 1  2.613986015341e+02   1.865693937469e+02   1.614699032855e+02 
6 1  2.485806507982e+02   6.205101659757e-01  -8.688455769208e+01 
7 1  7.601368718789e+01  -3.479406701023e+01  -1.412454753562e+02 
8 1  2.583385927374e+02  -4.721367264870e+01   6.290730904714e+01 
8
Step 11000
1 1  2.201901670276e+02   1.366660234384e+01  -2.007489262346e+02 
2 1  1.567499887724e+02  -2.452142824433e+02   4.358893801766e+01 
3 1 -1.218065809573e+02  -4.011966594068e+01  -3.957860376841e-01 
4 1 -2.719704310539e+01  -2.285556557737e+02   4.152366589317e+01 
5 1  1.544271394796e+02   3.064244491283e+02   1.213293136807e+02 
6 1  2.671447929468e+02  -5.330646474970e+01  -4.201183473759e+01 
7 1  9.460553521573e+01  -7.274915073943e+01  -3.642008944031e+01 
8 1  1.410332072996e+02  -3.902357856506e+01  -4.712641352015e+01 
8
Step 12000
1 1  1.153943762795e+02   8.955422007131e+01   5.427663641420e+01 
2 1  1.203281132779e+02  -8.798247128008e+01  -3.170540677416e+01 
3 1 -1.390357851855e+02   2.463169493261e+01  -1.125896654227e+02 
4 1 -2.439120418437e+02  -6.685723568164e+01   4.422305970055e+01 
5 1  1.439881607990e+01   3.007718330677e+02   3.415598572187e+01 
6 1  2.056402160445e+02  -5.881128221294e+01  -1.437552825464e+01 
7 1  1.070740241840e+02  -1.273865264796e+02   3.287461476619e+01 
8 1 -7.744959457737e+01  -1.656465240306e+00  -1.135070774687e+02 
8
Step 13000
1 1 -6.629574669739e+01   1.694088446848e+02   3.340633453416e+02 
2 1  4.376158733268e+01   1.095924828683e+02  -8.672935718622e+01 
3 1 -9.780969224330e+01   4.433607321882e+01  -2.090180805252e+02 
4 1 -4.435180518223e+02   1.658838562791e+02   4.970372203613e+01 
5 1 -8.770378427501e+01   1.332780479847e+02  -3.796038748198e+01 
6 1  8.673946233906e+01  -1.307824489771e+01  -1.300562351311e+00 
7 1  8.451884092609e+01  -2.237213597519e+02   4.065618399219e+01 
8 1 -3.533538267148e+02   2.420492976313e+01  -1.349088308975e+02 
8
Step 14000
1 1 -2.367571762038e+02   2.088572292670e+02   5.128094792978e+02 
2 1 -2.185626450739e+01   2.582624596358e+02  -1.125600203853e+02 
3 1 -3.161199844083e+01   2.788549586035e+01  -2.282742700325e+02 
4 1 -4.856910922246e+02   3.685001582227e+02   3.419926499118e+01 
5 1 -1.248285165275e+02  -1.300814320546e+02  -5.069066651052e+01 
6 1 -5.031409758475e+01   5.810469807835e+01   5.973773732977e+00 
7 1  7.244536216652e+00  -3.372257846256e+02   8.362071593803e+00 
8 1 -5.503234694587e+02   4.797555088278e+00  -1.164736161362e+02 
8
Step 15000
1 1 -2.934666479039e+02   1.669488762375e+02   4.393505790376e+02 
2 1 -5.593613248428e+01   2.806741944811e+02  -1.106895214295e+02 
3 1  2.627652822957e+01   2.018679712481e+00  -1.242463375815e+02 
4 1 -2.906418808240e+02   4.069012484780e+02  -7.499100362365e+00 
5 1 -9.793261891286e+01  -3.757714382930e+02  -1.950472810934e+00 
6 1 -1.696134835447e+02   1.153070925569e+02   1.329413166438e+01 
7 1 -1.072662127549e+02  -3.740914329599e+02  -2.402453783800e+01 
8 1 -4.863655334072e+02  -5.305780001580e+01  -6.829201728576e+01 
8
Step 16000
1 1 -1.986278703565e+02   2.330371767332e+01   1.541127913654e+02 
2 1 -5.039699577539e+01   1.681901922637e+02  -8.984226840153e+01 
3 1  5.503515893752e+01  -5.438745011862e+00   7.051062364390e+01 
4 1  4.742432347951e+01   2.524806852748e+02  -5.869528528777e+01 
5 1 -3.991286209232e+01  -4.450405116937e+02   7.826729204954e+01 
6 1 -2.379128906244e+02   1.224611347773e+02   1.982250353226e+01 
7 1 -2.103561592168e+02  -2.399654751897e+02  -2.288825740164e+01 
8 1 -2.010476237902e+02  -1.231440217518e+02  -1.566244227753e+01 
8
Step 17000
1 1  8.930458545758e+00  -2.056086919451e+02  -1.699273451085e+02 
2 1 -1.050712483922e+01  -1.521587654561e+01  -5.243112077266e+01 
3 1  4.211671211263e+01   1.990859865682e+01   2.637149827285e+02 
4 1  3.845288156597e+02   1.945094745586e+01  -9.888477343234e+01 
5 1  1.514446888780e+01  -2.909321399980e+02   1.293269079550e+02 
6 1 -2.277666952831e+02   7.023148763457e+01   2.300233508465e+01 
7 1 -2.489266981268e+02   6.239914288710e+01   1.714366395286e+01 
8 1  1.302871522993e+02  -1.628603072170e+02   2.574578056512e+01 
8
Step 18000
1 1  2.547270199521e+02  -4.344913336941e+02  -3.913600294873e+02 
2 1  3.002558146092e+01  -1.924664463067e+02  -4.767794574606e+00 
3 1 -8.598044983071e+00   7.161989740422e+01   3.505602347426e+02 
4 1  5.431693960472e+02  -1.765603683787e+02  -1.101002538758e+02 
5 1  4.781406559431e+01  -3.401367141177e+01   8.792668050290e+01 
6 1 -1.396062041170e+02  -2.003075188104e+01   2.221874064013e+01 
7 1 -1.969020505472e+02   4.416261981110e+02   7.170616377403e+01 
8 1  3.827439595974e+02  -1.304852679554e+02   5.803273452347e+01 
8
Step 19000
1 1  4.036051488522e+02  -5.022809693330e+02  -3.994048441080e+02 
2 1  4.814756532683e+01  -2.859487238292e+02   4.082967262668e+01 
3 1 -7.210794151531e+01   1.181502682093e+02   2.736450330250e+02 
4 1  4.085646863905e+02  -2.664674107636e+02  -8.080862672509e+01 
5 1  5.058221966917e+01   2.020504288298e+02  -5.736004009000e+01 
6 1 -1.278311577360e+01  -1.148078566934e+02   1.747884824677e+01 
7 1 -7.244200148159e+01   6.730766820279e+02   1.122856498015e+02 
8 1  4.640122343939e+02  -2.032151373854e+01   9.017673997428e+01 
8
Step 20000
1 1  3.599558585212e+02  -3.323839879751e+02  -2.211355577705e+02 
2 1  3.873621659296e+01  -2.434113289320e+02   8.062717517238e+01 
3 1 -1.165454225579e+02   1.255594586134e+02   8.162812210179e+01 
4 1  1.216572209356e+02  -2.331359565741e+02  -1.798821434588e+01 
5 1  2.417261821057e+01   3.248956067279e+02  -2.492801543363e+02 
6 1  1.061213979643e+02  -1.779595780346e+02   1.082167260593e+01 
7 1  7.757749291082e+01   5.255760739011e+02   1.222209933393e+02 
8 1  3.597251133213e+02   1.280235875049e+02   1.247096583107e+02 
8
Step 21000
1 1  1.603127669388e+02  -3.115308703151e+01  -3.409206215863e-01 
2 1  9.202389042259e+00  -9.130817053363e+01   1.136569418893e+02 
3 1 -1.075397429171e+02   7.963017699676e+01  -1.262037959160e+02 
4 1 -1.290609855310e+02  -1.184346992143e+02   5.607144064943e+01 
5 1 -1.460405947736e+01   2.809596692029e+02  -3.748350043514e+02 
6 1  1.794741869514e+02  -1.788980833010e+02   5.409896312145e+00 
7 1  1.994521258080e+02   1.820047342599e+02   9.742771798960e+01 
8 1  1.641669275126e+02   2.489575166043e+02   1.461529317718e+02 
8
Step 22000
1 1 -9.536960623634e+01   2.705065950295e+02   1.521294942207e+02 
2 1 -2.736070349037e+01   8.844386562749e+01   1.250727523121e+02 
3 1 -2.590974186063e+01  -5.376879072828e+00  -2.620541520454e+02 
4 1 -2.459369876663e+02   1.015992763710e+01   1.124442196758e+02 
5 1 -4.399199442570e+01   1.156584489129e+02  -3.261737731448e+02 
6 1  1.818111117556e+02  -1.100902188433e+02   3.075222953494e+00 
7 1  2.447887435428e+02  -1.168096822212e+02   4.447241668742e+01 
8 1 -2.688175194473e+01   2.776031267434e+02   1.338339499257e+02 
8
Step 23000
1 1 -3.049565715931e+02   4.529420977174e+02   1.885796701563e+02 
2 1 -5.118584019283e+01   2.183344220080e+02   1.009044140840e+02 
3 1  1.041732321660e+02  -9.538874919214e+01  -2.720576708553e+02 
4 1 -2.113778257090e+02   9.994387402055e+01   1.247684196371e+02 
5 1 -4.905464164237e+01  -7.418345137470e+01  -1.121571767179e+02 
6 1  1.165721452603e+02   9.729025523717e+00   3.118669463143e+00 
7 1  1.938923783722e+02  -2.957991367557e+02  -2.378796154503e+01 
8 1 -1.676956161432e+02   1.942032707028e+02   7.304910307182e+01 
8
Step 24000
1 1 -3.665702649055e+02   4.226579325900e+02   1.234080944678e+02 
2 1 -5.166351054884e+01   2.471296180612e+02   4.436275637167e+01 
3 1  2.238333814333e+02  -1.524272895452e+02  -1.675162316520e+02 
4 1 -8.708016262499e+01   1.243591046594e+02   8.477115482690e+01 
5 1 -2.679634723245e+01  -2.017051903884e+02   1.690932533120e+02 
6 1  1.647327224609e+01   1.420905267753e+02   2.260971008355e+00 
7 1  7.486607805017e+01  -3.305299528682e+02  -9.098084103988e+01 
8 1 -2.380286727650e+02   3.270795342271e+01  -4.210789773172e+01 
8
Step 25000
1 1 -2.625047626624e+02   2.405257919551e+02   1.499840148069e+01 
2 1 -3.099572239034e+01   1.678200473425e+02  -3.415884921536e+01 
3 1  2.675995558378e+02  -1.544045195653e+02  -1.525569936429e+01 
4 1  4.009181237477e+01   8.431605638721e+01   1.053630332613e+01 
5 1  1.373847102365e+01  -2.130430689068e+02   3.989152847678e+02 
6 1 -7.377245653726e+01   2.335000796827e+02  -3.285404180549e+00 
7 1 -5.346678688257e+01  -2.474160446961e+02  -1.369000872495e+02 
8 1 -2.315746417978e+02  -1.436035505325e+02  -1.910500165295e+02 
8
Step 26000
1 1 -7.832540952948e+01   4.098199512212e+01  -7.557766941771e+01 
2 1 -3.752636861299e-01   2.516587675061e+01  -1.225107598392e+02 
3 1  2.008057855017e+02  -1.014243162755e+02   1.157367800481e+02 
4 1  1.066810191921e+02   5.298255482542e+00  -6.315447829645e+01 
5 1  5.526848739606e+01  -1.138736309535e+02   4.466471244952e+02 
6 1 -1.165139660969e+02   2.346202280773e+02  -1.543117592293e+01 
7 1 -1.333447677506e+02  -1.118940574200e+02  -1.443634243799e+02 
8 1 -1.604820763076e+02  -2.656207797161e+02  -3.119663104219e+02 
8
Step 27000
1 1  9.617097033713e+01  -1.052656548020e+02  -1.081216144723e+02 
2 1  2.827713413021e+01  -1.101308357358e+02  -1.928928531069e+02 
3 1  4.568174536421e+01  -1.903936227250e+01   1.790165241052e+02 
4 1  8.946476775678e+01  -7.374078013942e+01  -1.025401344044e+02 
5 1  7.879979262677e+01   3.319294401166e+01   2.890205999763e+02 
6 1 -9.602540232723e+01   1.383900026893e+02  -3.272929837636e+01 
7 1 -1.318682203825e+02   1.733986957221e+01  -1.081406916955e+02 
8 1 -5.667131181363e+01  -2.760380373929e+02  -3.277520727395e+02 
8
Step 28000
1 1  1.962617204368e+02  -1.763007437829e+02  -7.373853073915e+01 
2 1  4.572153779827e+01  -1.778746781284e+02  -2.093757029206e+02 
3 1 -1.375726439024e+02   5.232658556830e+01   1.593571154388e+02 
4 1  8.893471029565e+00  -1.141440440084e+02  -9.125468699419e+01 
5 1  6.967702325703e+01   1.566899266354e+02   4.543094106876e+01 
6 1 -2.641481443935e+01  -1.345207534986e+01  -4.891707220170e+01 
7 1 -5.467485718029e+01   9.923545249127e+01  -3.686602923357e+01 
8 1  5.179301103696e+01  -1.707525782757e+02  -2.101415026879e+02 
8
Step 29000
1 1  1.892246158531e+02  -1.753390182909e+02   3.799868666972e+00 
2 1  5.016025818332e+01  -1.580470196153e+02  -1.556688553923e+02 
3 1 -2.818963430612e+02   8.779077989200e+01   7.900593192539e+01 
4 1 -8.656536953722e+01  -8.986579341564e+01  -3.798541459355e+01 
5 1  2.621595361243e+01   2.061595197989e+02  -1.672577447821e+02 
6 1  5.782658891430e+01  -1.598574233670e+02  -5.373060982428e+01 
7 1  5.492526098583e+01   1.157317729795e+02   4.962611796763e+01 
8 1  1.455372342693e+02  -1.093645372064e+01  -2.417828383244e+00 
8
Step 30000
1 1  9.727705306100e+01  -1.283565881403e+02   8.238836709825e+01 
2 1  4.593240425536e+01  -7.554773026021e+01  -4.366079752899e+01 
3 1 -3.258630761324e+02   8.768010849169e+01  -1.959050660370e+01 
4 1 -1.437718247966e+02  -1.237916532368e+00   2.589163490591e+01 
5 1 -3.793101583229e+01   1.613071521093e+02  -2.743773686854e+02 
6 1  1.160729882722e+02  -2.396820881061e+02  -3.841100160846e+01 
7 1  1.340108317363e+02   7.791867633422e+01   1.253929073256e+02 
8 1  2.001151841759e+02   1.288594524581e+02   2.252567356259e+02 
8
Step 31000
1 1 -1.593304446970e+01  -6.930162384087e+01   1.232658187381e+02 
2 1  3.478393812568e+01   2.339946507977e+01   9.755763867742e+01 
3 1 -2.482083371184e+02   6.181887685413e+01  -9.679370362590e+01 
4 1 -1.301639860146e+02   1.190593692913e+02   6.163698665158e+01 
5 1 -1.005898111178e+02   4.548360931708e+01  -2.480348767617e+02 
6 1  1.137222599299e+02  -2.149288270346e+02  -2.263886004241e-02 
7 1  1.255891246791e+02   1.767982179103e+01   1.648402481676e+02 
8 1  1.897072752499e+02   1.947826448026e+02   3.844449322448e+02 
8
Step 32000
1 1 -8.510794538876e+01  -2.020913311165e+01   1.087324225665e+02 
2 1  1.463337167023e+01   9.299320986589e+01   2.259404299855e+02 
3 1 -9.720248404811e+01   2.782528573225e+01  -1.255721692442e+02 
4 1 -5.063960062973e+01   2.139328174935e+02   4.552574203270e+01 
5 1 -1.394685363881e+02  -8.877351763976e+01  -1.335016486002e+02 
6 1  3.869492781805e+01  -1.013803621851e+02   5.727524871365e+01 
7 1  8.786658646301e+00  -3.093475814853e+01   1.515870395867e+02 
8 1  1.156030656467e+02   1.653055296188e+02   3.848661884498e+02 
8
Step 33000
1 1 -7.344771825247e+01   1.218010431640e+01   4.668655990423e+01 
2 1 -1.581027002705e+01   1.042062188147e+02   2.881330224410e+02 
3 1  5.799917765059e+01   1.064508034154e+01  -1.014475351539e+02 
4 1  5.941176671736e+01   2.222639433711e+02  -1.636322562715e+01 
5 1 -1.385016771012e+02  -1.860579267625e+02  -8.578016403947e+00 
6 1 -8.580331739003e+01   4.199866318984e+01   1.202904663185e+02 
7 1 -1.861220665542e+02  -4.423164627410e+01   8.727334697962e+01 
8 1  4.815224469805e+00   5.647280194311e+01   2.311961730120e+02 
8
Step 34000
1 1  7.388265851789e+00   2.984838209850e+01  -3.852799386226e+01 
2 1 -5.817742435106e+01   6.283227701710e+01   2.490813559786e+02 
3 1  1.704930885531e+02   1.683679916723e+01  -4.420809955994e+01 
4 1  1.514127549909e+02   1.113280679314e+02  -8.927891049690e+01 
5 1 -8.341206455616e+01  -2.109382194940e+02   7.547840871548e+01 
6 1 -2.027740400538e+02   1.490290551879e+02   1.661518843059e+02 
7 1 -3.670154143819e+02  -1.639079351205e+01  -9.210487994051e+00 
8 1 -1.161469749295e+02  -7.511661659716e+01   1.792201609059e+01 
8
Step 35000
1 1  1.042299986667e+02   3.849718647587e+01  -1.153523700289e+02 
2 1 -1.100286558323e+02   2.634798978368e+00   1.241086758516e+02 
3 1  2.150918125210e+02   3.356057183224e+01   1.432470064621e+01 
4 1  1.824167627488e+02  -9.231869533150e+01  -1.230816660701e+02 
5 1  2.542399618650e+01  -1.632884132412e+02   9.793271896449e+01 
6 1 -2.385200397348e+02   1.715112961957e+02   1.680581691494e+02 
7 1 -3.892338056063e+02   3.619772010362e+01  -1.096409421912e+02 
8 1 -2.191473927733e+02  -1.679212490324e+02  -1.613891624590e+02 
8
Step 36000
1 1  1.508785987711e+02   4.617822328345e+01  -1.500433522136e+02 
2 1 -1.506533885020e+02  -4.354761071401e+01  -3.929962451104e+01 
3 1  1.932079454268e+02   3.823433017817e+01   4.641674507490e+01 
4 1  1.388631967595e+02  -3.107049141830e+02  -7.929731363947e+01 
5 1  1.478094428593e+02  -6.298144123344e+01   6.452153656102e+01 
6 1 -1.553594060677e+02   1.045491860437e+02   1.064118989635e+02 
7 1 -1.904224646298e+02   8.254997105327e+01  -1.827782163800e+02 
8 1 -2.657656853742e+02  -1.888079700477e+02  -2.412951956899e+02 
8
Step 37000
1 1  1.020332381307e+02   5.452896457365e+01  -1.268262277484e+02 
2 1 -1.445262762655e+02  -5.854182725524e+01  -1.875669770180e+02 
3 1  1.318867487549e+02   1.104643053457e+01   4.374799743641e+01 
4 1  3.963467369549e+01  -4.237908731007e+02   4.358698976916e+01 
5 1  2.293297648662e+02   6.082890860528e+01   1.039891460968e+01 
6 1  1.156996695387e+01  -9.220773154028e+00  -2.195744007910e+01 
7 1  1.385835687848e+02   9.214217625227e+01  -1.996980265205e+02 
8 1 -2.301788524149e+02  -1.175455558304e+02  -2.097330862425e+02 
8
Step 38000
1 1 -3.589721401097e+01   5.597951725933e+01  -5.685000302669e+01 
2 1 -7.105121227567e+01  -4.353054394051e+01  -2.691667960284e+02 
3 1  6.829274641541e+01  -5.188438319720e+01   2.748811010844e+01 
4 1 -7.590479596729e+01  -3.316232926566e+02   2.036266035669e+02 
5 1  2.530305699754e+02   1.772275701436e+02  -1.599187994925e+01 
6 1  1.835611956257e+02  -1.043265515072e+02  -1.932302794685e+02 
7 1  4.463397229763e+02   5.060982085875e+01  -1.436479167012e+02 
8 1 -1.329489152464e+02   5.264536770657e+01  -1.284538232574e+02 
8
Step 39000
1 1 -2.055214398685e+02   4.233338770778e+01   3.623059238179e+01 
2 1  5.337338038820e+01  -1.177583322830e+01  -2.556536353863e+02 
3 1  2.717037540627e+01  -1.286446761172e+02   3.140034375928e+01 
4 1 -1.593532056900e+02  -7.344297416969e+01   3.148227245486e+02 
5 1  2.176386481125e+02   2.495768448318e+02   7.497346968097e+00 
6 1  2.751825893621e+02  -1.208951371762e+02  -3.418750725321e+02 
7 1  5.544511160102e+02  -3.648778412313e+01  -1.278491027109e+01 
8 1 -1.119939242622e+01   2.772027305240e+02  -6.069614502296e+01 
8
Step 40000
1 1 -3.192547040900e+02   1.566049756774e+01   1.394709320681e+02 
2 1  2.025485192406e+02   1.549572159579e+01  -1.616784327957e+02 
3 1  6.193669004054e+00  -1.809190905619e+02   6.454187075792e+01 
4 1 -1.739043433413e+02   2.175658851584e+02   2.883420181547e+02 
5 1  8.414707018145e+01   2.554525308197e+02   4.860805392181e+01 
6 1  2.389101743727e+02  -4.108006707670e+01  -3.759704294032e+02 
7 1  3.811171265765e+02  -1.471441288700e+02   1.475643384772e+02 
8 1  1.669355604731e+02   4.284226426586e+02  -5.370668338031e+00 
8
Step 41000
1 1 -2.984693568897e+02  -1.301755638811e+01   2.330947514792e+02 
2 1  3.165694425700e+02   2.557301708300e+01  -3.113001704029e+01 
3 1 -1.725905909445e+01  -1.724473846541e+02   1.068197877651e+02 
4 1 -1.220200078318e+02   4.079132285934e+02   1.160281731372e+02 
5 1 -1.196261544307e+02   1.775558417024e+02   6.331213126130e+01 
6 1  1.125948864586e+02   9.795286833002e+01  -2.665888829975e+02 
7 1  8.313305347123e+01  -2.385359483483e+02   2.593262800370e+02 
8 1  3.773808920913e+02   3.711904570113e+02   4.008628456879e+01 
8
Step 42000
1 1 -1.363075028047e+02  -2.990785260997e+01   2.743554605188e+02 
2 1  3.065011888825e+02   2.238940555910e+01   8.488713846614e+01 
3 1 -6.310461483335e+01  -9.334532616686e+01   1.191238940237e+02 
4 1 -2.231585293402e+01   3.972143823845e+02  -1.415827349559e+02 
5 1 -2.906971897721e+02   1.408296565401e+01   4.569330887469e+01 
6 1 -4.178297509162e+01   2.403554754394e+02  -5.018179522786e+01 
7 1 -1.906601603471e+02  -2.569825653617e+02   2.486821309508e+02 
8 1  4.856215366295e+02   1.147985839431e+02   3.833291228658e+01 
8
Step 43000
1 1  1.026482805258e+02  -2.667484186528e+01   2.057665820644e+02 
2 1  1.555979911963e+02   1.555311743325e+01   1.473044228014e+02 
3 1 -1.343063451735e+02   3.194163885406e+01   7.148461051022e+01 
4 1  9.419831627153e+01   2.080031219226e+02  -3.850941383887e+02 
5 1 -3.652813051361e+02  -1.966320775371e+02  -6.115871262589e+00 
6 1 -1.600743277071e+02   3.068076938281e+02   1.839212284622e+02 
7 1 -3.549738175882e+02  -1.663301737617e+02   1.080315542814e+02 
8 1  3.814901511212e+02  -2.131482492635e+02   2.086815783657e+01 
8
Step 44000
1 1  3.355570176582e+02  -3.381818215386e+00   2.645285377792e+01 
2 1 -6.676202602032e+01   1.530598829104e+01   1.526909492236e+02 
3 1 -2.066477727015e+02   1.593883197251e+02  -4.503345326604e+01 
4 1  1.788518611692e+02  -3.961621094724e+01  -4.627863508969e+02 
5 1 -3.244408845578e+02  -3.825525599896e+02  -8.952483739660e+01 
6 1 -1.829302862241e+02   2.100499635874e+02   3.512217989889e+02 
7 1 -3.610098952556e+02   2.602613611114e+01  -1.085340853841e+02 
8 1  1.258928847965e+02  -4.638493849119e+02   3.264738406316e+01 
8
Step 45000
1 1  4.507763449143e+02   1.566566015112e+01  -1.947670050804e+02 
2 1 -2.707205109517e+02   2.390151107639e+01   1.160666060672e+02 
3 1 -2.313767216347e+02   2.397822748707e+02  -1.972217403388e+02 
4 1  1.953071767341e+02  -2.176233213418e+02  -3.194636384392e+02 
5 1 -1.722801249189e+02  -4.369716201912e+02  -1.669640511206e+02 
6 1 -1.166785024652e+02  -8.153010007273e+01   4.076499542160e+02 
7 1 -2.291368711547e+02   2.702945489890e+02  -2.895726186777e+02 
8 1 -1.602321363640e+02  -5.010452818091e+02   4.830059464216e+01 
8
Step 46000
1 1  3.645783163648e+02  -4.419597842949e+00  -3.814454445468e+02 
2 1 -3.674078102739e+02   2.961609826462e+01   6.382047767288e+01 
3 1 -1.716923891862e+02   2.397033320350e+02  -3.064987265050e+02 
4 1  1.478337284115e+02  -2.423177647600e+02  -7.316996476562e+01 
5 1  3.522515083180e+01  -3.009231274836e+02  -1.726904979452e+02 
6 1 -2.674779495523e+01  -4.934920491352e+02   3.514604273416e+02 
7 1 -3.803610681112e+01   4.612183492438e+02  -3.187951614980e+02 
8 1 -3.617915932673e+02  -3.226173415275e+02   5.965497104760e+01 
8
Step 47000
1 1  1.477199589443e+02  -6.400086038394e+01  -4.436717458385e+02 
2 1 -3.030284304522e+02   1.904015684288e+01   3.429543602892e+01 
3 1 -3.522974330993e+01   1.610479880417e+02  -2.887101067522e+02 
4 1  3.307206807455e+01  -1.457624346442e+02   1.779463869398e+02 
5 1  2.409922981650e+02  -3.107619778199e+01  -8.874355753901e+01 
6 1  5.877912337883e+01  -7.091961841096e+02   1.816652474772e+02 
7 1  1.338771753414e+02   4.627654187203e+02  -1.747639849464e+02 
8 1 -4.093028061773e+02  -6.252381484354e+01   1.120880361251e+02 
8
Step 48000
1 1 -7.719208158494e+01  -1.311750848417e+02  -3.186033116608e+02 
2 1 -1.163430538241e+02  -1.159878316164e+01   2.061131737155e+01 
3 1  1.345559780726e+02   3.882889407232e+01  -1.403108888119e+02 
4 1 -1.279796983183e+02  -2.424961433437e+00   3.544207798440e+02 
5 1  3.589017583135e+02   2.427699481583e+02   7.927043909389e+01 
6 1  1.130010468965e+02  -4.529173673526e+02  -2.747185253799e+01 
7 1  2.293072362376e+02   2.652362985036e+02   5.976467561082e+01 
8 1 -2.952866880501e+02   1.513393430874e+02   1.489319743878e+02 
8
Step 49000
1 1 -2.433668294638e+02  -1.719508131205e+02  -6.057061977028e+01 
2 1  9.709650722354e+01  -5.470025867414e+01   5.423945790203e+00 
3 1  2.779538475903e+02  -7.776733285472e+01   8.516498621967e+01 
4 1 -2.480442075112e+02   1.262068025659e+02   3.422129517017e+02 
5 1  3.369392173529e+02   4.084806251732e+02   2.648889646165e+02 
6 1  1.004445109944e+02  -1.929974668913e+01  -2.176493174003e+02 
7 1  2.206570947951e+02  -1.799391119806e+01   2.903513019316e+02 
8 1 -1.207115703623e+02   2.792196975667e+02   1.076788022570e+02 
8
Step 50000
1 1 -2.962473760517e+02  -1.394934563321e+02   1.992915699994e+02 
2 1  2.439261626832e+02  -9.808594781952e+01  -2.629792657812e+01 
3 1  3.272127749590e+02  -1.505652518603e+02   3.081451519846e+02 
4 1 -2.495534995339e+02   1.738705246734e+02   1.644974816419e+02 
5 1  1.984832606008e+02   3.897745541166e+02   3.409376017459e+02 
6 1  3.647305546948e+01   3.532277975308e+02  -3.427903708840e+02 
7 1  1.267530133570e+02  -2.909916028939e+02   3.957764366484e+02 
8 1  1.828963368680e+01   3.141572445615e+02   1.048154283452e+01 
8
Step 51000
1 1 -2.302024369698e+02   4.386467814348e-01   3.636165748774e+02 
2 1  2.666878601148e+02  -1.251784103915e+02  -7.930162039722e+01 
3 1  2.511653705851e+02  -1.693977968198e+02   4.155495846807e+02 
4 1 -1.382562759345e+02   1.093340736294e+02  -4.335889054334e+01 
5 1  8.088014629537e+00   2.287525080095e+02   2.176694050650e+02 
6 1 -5.980346943582e+01   5.364314715772e+02  -3.491552872594e+02 
7 1 -4.420725682314e+00  -4.427746500679e+02   2.959855197320e+02 
8 1  1.108138045120e+02   2.386313527996e+02  -1.137274686463e+02 
8
Step 52000
1 1 -1.376086237263e+02   2.062078130299e+02   3.842913540740e+02 
2 1  1.731423355241e+02  -9.842401511479e+01  -1.339214473616e+02 
3 1  8.769679114721e+01  -1.424636286799e+02   3.214962158552e+02 
4 1  2.694078149292e+01  -1.688006455829e+01  -1.864863784313e+02 
5 1 -1.768470789586e+02   1.707720954154e+01  -4.000807192889e+01 
6 1 -1.456371827822e+02   4.506264504384e+02  -2.409837107223e+02 
7 1 -1.160093875514e+02  -4.083229537457e+02   6.070125220400e+01 
8 1  1.615946822552e+02   1.096321766784e+02  -2.367650750308e+02 
8
Step 53000
1 1 -7.890466177988e+01   3.845435050097e+02   2.615017599389e+02 
2 1  2.114424423630e+01  -6.303886036904e+00  -1.540490603360e+02 
3 1 -9.292883579785e+01  -7.928535223392e+01   9.347534905548e+01 
4 1  1.657929251112e+02  -1.400889582196e+02  -2.066625080184e+02 
5 1 -2.862255301816e+02  -1.473405525709e+02  -3.049537428857e+02 
6 1 -1.796501591987e+02   1.913941612491e+02  -7.694017463758e+01 
7 1 -1.676763738829e+02  -2.407135484592e+02  -1.851382950789e+02 
8 1  1.589177685838e+02  -9.979426207459e+00  -2.900974011754e+02 
8
Step 54000
1 1 -4.214244228417e+01   4.142952233628e+02   6.151643148427e+01 
2 1 -1.192181521049e+02   1.162105400396e+02  -1.063050967354e+02 
3 1 -2.231083651844e+02  -1.783059859434e+01  -1.467373274988e+02 
4 1  1.973378268190e+02  -2.023296252738e+02  -9.339897036590e+01 
5 1 -2.832632701973e+02  -2.100353500249e+02  -4.232503992432e+02 