8
Step 0
1 1  2.102812612098e+02  -2.655266881609e+01   2.469150848499e+02 
2 1  2.129669741671e+02  -2.677024908433e+02   1.391703741763e+01 
3 1  4.441614698894e+01   6.526922337478e+01   1.977105477576e+02 
4 1  1.233129568381e+02  -2.027273609915e+02   1.931714386653e+02 
5 1 -2.433787715067e+02   7.851969321387e+01  -1.072090194464e+02 
6 1  3.403742539992e+02   3.416603002083e+02  -3.540540653644e+02 
7 1  5.109895238710e+01   1.241511997057e+02  -1.903199120138e+02 
8 1  7.332657538610e+01   1.823649361654e+02   5.082089555245e+00 
8
Step 1000
1 1  1.808187912589e+02   7.653324631251e+02  -9.997458201881e+01 
2 1  3.389121167685e+02  -9.150054962733e+01  -2.631496143392e+01 
3 1 -1.813442629468e+02  -2.402695067610e+02  -1.893370978574e+02 
4 1  1.197810576759e+02  -3.883358770277e+01   2.356340810184e+02 
5 1 -1.056386706847e+02  -2.407732815569e+02  -3.429012118201e+02 
6 1 -1.651234861736e+02   3.480852530174e+02   1.280906164107e+02 
7 1  1.583680380368e+02  -1.390665079027e+02  -2.210031221873e+02 
8 1 -6.612736340347e+01   4.123209854118e+01   2.916115020872e+02 
8
Step 2000
1 1  8.879634983748e+01  -1.749058337821e+02   1.846078354936e+02 
2 1 -3.834106715830e+02  -6.705140765682e+01   9.720561345613e+01 
3 1  4.549383163300e+02   5.143411817668e+02   9.695432437027e+01 
4 1 -3.544453540379e+02  -5.906525419004e+01  -3.133700503905e+02 
5 1  8.672896971225e+01   1.981851590920e+02   3.881114999977e+02 
6 1  6.069759157180e+01  -3.720394083061e+02  -1.270874480028e+02 
7 1  2.958609743294e+02   1.587952457851e+02   6.891543225417e+01 
8 1 -2.563855785031e+02   3.123315551642e+02  -3.455712273847e+02 
8
Step 3000
1 1 -1.345722130724e+02  -1.105942148726e+02   1.304309522923e+02 
2 1 -2.838423148841e+01  -1.810064367793e+01   1.166137266701e+02 
3 1 -2.455692793877e+02  -3.481603124052e+01  -8.785409373852e+01 
4 1  4.515914400361e+02   3.822437260009e+01   2.235719959627e+02 
5 1 -3.378138808532e+02  -4.310483523087e+02  -2.658915301821e+02 
6 1 -2.945741580033e+02   2.962132571375e+02   1.696759307760e+02 
7 1  8.579255093832e+01   1.904771438526e+02  -5.824805634345e+02 
8 1 -9.111039489959e+01   3.630494495962e+02   5.015325569194e+02 
8
Step 4000
1 1  4.638682574658e+00   6.582186500745e+01   3.253666753349e+02 
2 1 -2.779653333211e+02  -5.844835592025e+01   7.243525820574e+01 
3 1  1.896203168754e+02   3.625696353759e+02  -2.654075948758e+02 
4 1 -4.179494805190e+02   4.692944135040e+01  -5.592046516969e+01 
5 1  4.493494195236e+02   2.694934763952e+02   2.751650424366e+02 
6 1  5.316328594406e+02  -4.023481918884e+02  -5.528897852358e+01 
7 1 -3.523499692479e+02   2.940527685993e+02   2.349970453949e+02 
8 1  2.544375309571e+02   4.286132348088e+00  -3.244471932742e+02 
8
Step 5000
1 1 -3.766531453902e+02   1.079791229964e+01   3.389002131596e+02 
2 1 -4.909540534635e+01   1.600884919392e+02   3.113847924922e+01 
3 1 -3.382995586061e+02  -9.819730176404e+01   7.342426436950e+01 
4 1  4.990762983333e+02  -2.368541578455e+02   5.424521749476e+01 
5 1 -3.734956134881e+02  -1.379414165717e+02  -1.561031145531e+02 
6 1 -1.029100851999e+02   2.346637966312e+02  -1.603080000156e+02 
7 1  9.327426461856e+01  -7.425799513533e+01  -3.301542992393e+02 
8 1 -2.165016880198e+02  -9.042252032041e+01   5.936819592980e+02 
8
Step 6000
1 1  1.461997507541e+02  -2.600967780206e+02   5.221567802998e+01 
2 1 -2.870990869282e+02  -3.717387241363e+02  -5.116991741732e+02 
3 1  2.310468121325e+02   3.285778468221e+02   5.299076016906e+01 
4 1 -1.277085151252e+02   2.750267669894e+02   2.831935391893e+02 
5 1  1.020668226006e+02   8.661035993288e+01  -3.124051317448e+02 
6 1 -3.971353971546e+02   6.142187124359e+01   3.840203667639e+02 
7 1 -2.893965119251e+01  -1.338626169194e+02   1.035805603128e+02 
8 1  1.754270014528e+02   5.730748217966e+01  -1.953163207803e+02 
8
Step 7000
1 1 -3.555668819981e+02  -5.575513904141e+02   3.220255041556e+02 
2 1  2.598115308503e+02   1.137893858021e+02   3.783082501075e+02 
3 1 -6.219151404363e+01  -1.679742036010e+02  -1.205293439546e+02 
4 1 -1.288469176959e+01  -2.334101390871e+02  -1.418918870275e+02 
5 1 -1.146829289207e+02  -1.077297894303e+02   2.373530901478e+02 
6 1  2.411104895912e+02  -1.698210156729e+02  -5.021093506230e+02 
7 1  4.929487905496e+02   9.096831151152e+01   3.758812738454e+01 
8 1 -3.280998717907e+02   6.551719282602e+02   1.120177999182e+02 
8
Step 8000
1 1  3.427342578485e+02  -2.062281562500e+02  -2.212821167089e+01 
2 1 -4.408504364554e+02  -2.843760516368e+02  -5.597621369748e+02 
3 1 -7.943377664799e+01   3.061895505264e+02   9.720577454164e+01 
4 1  9.338760511903e+01  -1.989979210731e+02  -3.231810896234e+02 
5 1  4.123801737304e+02   1.524088411339e+02  -1.550430909605e+02 
6 1 -1.551069488122e+02   8.794547946232e+02   4.731025106517e+02 
7 1 -4.108572962120e+02  -3.716866811134e+02   1.292005943959e+02 
8 1  3.316886967842e+02  -1.441971194820e+02  -1.877828201757e+01 
8
Step 9000
1 1 -2.709085750550e+02   2.196537283855e+02   1.606983060617e+02 
2 1  3.587591775058e+02  -4.859965543005e+01   6.947173431930e+01 
3 1 -3.973027997775e+01  -5.822762197407e+02  -1.831286853782e+01 
4 1 -1.719250960785e+02  -1.507817363983e+00  -1.623582669205e+02 
5 1  5.693155594315e+01   1.470558898572e+02   5.672831309784e+02 
6 1  2.579048660379e+02  -2.221970403722e+02  -4.651579032743e+02 
7 1 -1.294507485321e+02   2.058929222872e+02   1.756084499185e+02 
8 1 -8.673425988998e+01  -2.053688763546e+02  -1.936031420365e+02 
8
Step 10000
1 1  2.384934456849e+02  -2.875420462046e+02  -2.461095176138e+02 
2 1 -3.133149922978e+02  -1.085853631838e+02  -7.583029735743e+01 
3 1 -7.580076204198e+01  -9.152743315820e+01   5.137518146373e+02 
4 1  4.465551492972e+02   3.266043838327e+02   3.185744103973e+02 
5 1  4.533499569166e+01  -9.139185672017e+01  -2.262371394889e+02 
6 1 -1.244686156157e+02   1.418539631172e+02   9.020316876904e+01 
7 1 -9.414822417087e+01  -1.621647422266e+02  -2.455435985356e+02 
8 1  6.565682901943e+02   3.678203009632e+01   5.306113535730e+02 
8
Step 11000
1 1 -3.784156490239e+02   7.265845883709e+02   2.639562011819e+01 
2 1  3.116764652339e+02  -1.991864519963e+02   4.895453186741e+01 
3 1  1.312807770212e+02   1.413696029620e+02  -7.124379248877e+01 
4 1 -4.205173590031e+02  -1.758337750402e+02   3.639704535876e+02 
5 1 -7.018469610866e+01   1.400195032948e+02  -1.568508323477e+02 
6 1 -1.365512955552e+02  -2.623648167064e+02  -1.841044120563e+02 
7 1 -1.759215826635e+01   9.410643965349e+01   5.554091075674e+02 
8 1 -2.661385752943e+01   1.148037065382e+02  -2.767626124803e+02 
8
Step 12000
1 1  1.525871717262e+02  -1.351643085844e+02  -4.343895432996e+02 
2 1 -3.727316092302e+02   2.964795184366e+02  -6.586972003003e+02 
3 1 -3.093101218685e+02   2.515784617477e+02   3.074824259581e+02 
4 1  1.020808426488e+02   8.428958712832e+01  -4.096223398096e+02 
5 1  3.338788960849e+01  -2.674576752654e+02   5.739624234667e+01 
6 1 -4.484897556542e+00  -3.818433039855e+02  -8.615274634391e+00 
7 1  2.052352579322e+02   2.986136817643e+02   6.565423770570e+01 
8 1  6.073976225276e+01   4.980356569336e+02   4.457220171463e+01 
8
Step 13000
1 1 -1.297344616626e+01   3.346206342362e+02   1.730409958975e+01 
2 1  1.671318995266e+02   1.089936233817e+02   3.440353059383e+01 
3 1  6.961261687686e+01   5.637221149719e+01   6.267839890626e+01 
4 1 -1.712155313141e+02  -1.769475135452e+02   2.430271828455e+02 
5 1 -9.899042516318e+01   2.633276092431e+02  -6.063403211049e+01 
6 1  1.730049016051e+02   5.321270286455e+02   1.132864397610e+02 
7 1 -2.943617483255e+02  -2.180384089507e+02   4.315181222955e+01 
8 1  6.474842188142e+01  -7.252794326046e+02  -1.504851073364e+02 
8
Step 14000
1 1 -1.189358504697e+02  -5.318034659860e+01   1.273762860336e+02 
2 1 -1.402351232251e+02  -5.318777457090e+01  -9.171095026791e+01 
3 1  7.155769238636e+01   2.073437376924e+02   3.786274451812e+02 
4 1 -1.405230378087e+01  -4.954216185757e+02  -2.655653625914e+01 
5 1  4.205794036898e+02   1.450828979268e+02   4.505309769538e+02 
6 1 -4.522595216314e+02   4.442438552826e+01   4.907268366326e+00 
7 1  1.148075753747e+02  -1.896540012914e+02  -2.522611642560e+02 
8 1 -2.848030233202e+02   1.434259339841e+02   4.293490988932e+01 
8
Step 15000
1 1  1.137441436513e+02   7.893572092985e+01  -9.283947277895e+01 
2 1 -6.310293482149e+01   1.701658758440e+02   2.289203328770e+02 
3 1 -1.331695226342e+02  -1.898279368907e+02  -1.555112984316e+02 
4 1  4.138709881748e+02   3.401153915008e+02   1.922939244371e+02 
5 1 -3.351478526368e+02   4.302612674856e+01  -5.622187010027e+02 
6 1  1.929945456909e+02  -2.760196425160e+02  -1.861572567444e+02 
7 1 -4.621902475134e+02  -8.320336571833e+01   1.138370337791e+02 
8 1  6.671109980901e+02  -2.615615998153e+00   1.875994768409e+02 
8
Step 16000
1 1 -2.149863769277e+02   1.994011357211e+02   3.634145847435e+02 
2 1  8.964576451466e+01  -6.512452144404e+02  -5.483120949274e+02 
3 1  3.799068486380e+02   2.475907474444e+02  -4.271581481936e+01 
4 1 -3.511920872197e+02  -2.443108962526e+02  -2.099908410905e+02 
5 1 -1.174155860276e+02   1.193971213808e+02   1.840795596218e+02 
6 1 -2.807300326012e+02   1.294138579668e+02  -1.579159471596e+02 
7 1  2.221526115877e+02   2.191613122142e+02   5.955698535214e+02 
8 1 -6.566023408811e+01   3.150755035651e+02   7.749082372913e+01 
8
Step 17000
1 1  2.605238435803e+02  -2.696533931735e+02   1.517141022702e+01 
2 1 -2.123464842054e+02   1.751081549926e+02   2.843327787644e+02 
3 1 -7.545539259946e+02  -1.725676357947e+02   6.843494770136e+02 
4 1  7.766734881985e+01   5.138270201977e+02   1.870488503903e+02 
5 1  2.058351640343e+02  -3.324804105251e+01  -1.129906335883e+02 
6 1  1.805807369474e+02   2.887563188779e+02   6.362145180116e+02 
7 1 -1.268026226984e+02   1.530115789743e+02   1.158846239127e+02 
8 1  3.529748183636e+01  -7.405885637291e+01  -1.584230831153e+02 
8
Step 18000
1 1 -8.156434013799e+01   1.446802723090e+02   1.239663149873e+02 
2 1  3.116224745652e+02  -3.241595102453e+02   6.516187097137e+01 
3 1  2.270971775391e+02   4.571457243373e+02  -5.076836073576e+01 
4 1 -1.560065310756e+02  -3.012189929028e+02   1.510300798739e+02 
5 1 -9.860898750465e+01   2.453780151226e+01   3.820180709616e+02 
6 1 -1.809981263430e+02   1.270381639081e+02   6.129944927779e+01 
7 1 -7.179330865307e+02  -1.238657967081e+02  -4.493474483321e+02 
8 1  6.339756327744e+01  -2.497378316131e+00  -2.131610084735e+02 
8
Step 19000
1 1  1.254261890514e+02  -4.286997308155e+02  -3.487490613455e+02 
2 1 -3.137533495464e+02   4.757174879499e+02  -9.636550178806e+01 
3 1 -1.062059875941e+02  -2.971986857937e+02   2.039267288976e+02 
4 1 -7.379312818251e+00  -2.454550218062e+02  -3.986382135147e+02 
5 1  2.851004207217e+02   2.341285276923e+02  -1.760094154214e+02 
6 1 -4.931078059957e+02  -1.608408068785e+02   2.784980339409e+01 
7 1  1.227151251960e+02  -2.272758127381e+02  -1.348217944886e+02 
8 1 -2.108250143585e+02   4.062189377507e+01   1.168244583272e+02 
8
Step 20000
1 1 -2.644245256177e+02   3.107338716631e+02   1.101068775543e+02 
2 1  5.435280420174e+02  -1.473360150755e+02   5.846640918646e+01 
3 1  2.578654342653e+02   1.437160269544e+01  -2.968355735126e+02 
4 1  4.151284097819e+00   3.037090363311e+02   2.559339243830e+02 
5 1 -3.391997742624e+02   8.701451454860e+01   3.207860163850e+02 
6 1  2.074140415009e+02  -3.523393242686e+02  -6.921132290553e+02 
7 1  9.903084230503e+01   7.087435629754e+02  -1.430521586890e+01 
8 1 -3.113508989469e+02  -2.820317145757e+02   4.834883319365e+02 
8
Step 21000
1 1  2.745245424835e+02  -2.897253940547e+02  -3.552027249069e+02 
2 1 -4.010948301688e+02   7.198741992939e-01  -2.236261928050e+02 
3 1  3.163571759691e+02  -2.305369305532e+01   2.919027436663e+02 
4 1 -3.792515173205e+02  -2.848094283459e+02  -4.667395623718e+02 
5 1  1.862031196148e+02   2.366041754680e+02  -9.728481459744e+01 
6 1 -2.126618597074e+02  -2.835416782368e+02   4.123981364130e+02 
7 1  4.304200835829e+02   1.435939709894e+02   2.356729652046e+02 
8 1 -3.674449829209e+02  -3.588104519176e+01  -5.223603146848e+02 
8
Step 22000
1 1 -2.892830029669e+02   8.022859484741e+02   5.422228236870e+02 
2 1  3.646617993495e+02   1.105901673867e+02   2.949711732910e+02 
3 1  1.714453007249e+01   4.953690714290e+02  -3.458631406273e+02 
4 1  6.564948514129e+02   9.401202854806e+01   3.766496418352e+02 
5 1 -1.244674802749e+02  -5.808429391632e+02   1.174073106246e+02 
6 1  1.656269893905e+02   1.684058788784e+02  -3.663702703614e+02 
7 1 -2.725342436926e+02   3.147391328682e+02  -6.148624709391e+02 
8 1  4.572944989729e+02  -2.700314561629e+02   8.260240088413e+01 
8
Step 23000
1 1  6.285857420257e+01  -8.515080836257e+01  -2.805151393379e+02 
2 1 -2.371261424578e+02  -1.519803921061e+02  -6.923228709632e+02 
3 1  3.874666657483e+02  -3.240976857869e+02   4.349344240147e+02 
4 1 -3.594052287458e+02   1.266155406921e+02  -3.281916224218e+02 
5 1 -2.253507801585e+02   5.605861530108e+02   7.862010667582e+01 
6 1  9.800741250373e+01  -1.850655214236e+02   3.618385504234e+02 
7 1 -2.461608168946e+02  -2.147389906816e+02   1.344883696559e+02 
8 1  1.467744052282e+02   8.581659542136e+02   1.105738321528e+01 
8
Step 24000
1 1  7.386447932582e+01   2.543066607263e+02   2.825719165612e+02 
2 1  1.381968041414e+01   4.159839708545e+02   8.541929106898e+01 
3 1 -2.162711619043e+02   2.418601955573e+02  -3.286608534247e+02 
4 1  1.550764006274e+02  -3.946170233201e+02  -1.678255742876e+01 
5 1  1.393652598103e+01  -4.010154528988e+01   2.658304405216e+02 
6 1 -9.762046842893e+01   4.332887309107e+02  -1.748159700239e+02 
7 1  9.359056793732e+01  -8.024430435404e+01   1.512463222930e+02 
8 1  4.896065848531e+01  -4.029100609384e+02   2.466538739350e+02 
8
Step 25000
1 1 -9.792689799512e+01  -1.960964429792e+02   1.383122439022e+02 
2 1 -1.418783675096e+02  -2.514211163605e+02   9.518975541860e-01 
3 1  4.802169107326e+02  -4.115997657886e+01   2.828516308426e+02 
4 1 -4.611628395400e+02   1.244003204200e+02   2.851201075152e+02 
5 1  4.411621709358e+01   3.443856452595e+02  -9.524364566428e+02 
6 1  3.984598428388e+02  -3.504023077314e+02   1.516577680529e+02 
7 1 -4.077633726388e+01  -4.835718377187e+02  -4.268542911780e+01 
8 1 -4.950443923447e+02   4.828838049632e+02  -1.714556491515e+02 
8
Step 26000
1 1  4.671684033545e+02  -3.348458857399e+00   6.136398381925e+02 
2 1 -4.230625163976e+02   6.541018695411e+02  -9.610883890212e+01 
3 1 -2.530324034738e+02   9.808214467486e+01  -2.529753919202e+02 
4 1  4.613835467022e+02  -6.718088109997e+01  -4.004472926017e+02 
5 1  1.959242380727e+02  -1.812054381954e+02   2.767139863177e+02 
6 1 -4.399744087234e+02  -2.597651468774e+02   8.481607770058e+01 
7 1  1.463659686010e+02   9.330366984190e+01   4.558986455796e+02 
8 1  1.842699549454e+02   2.113145438184e+01  -1.969420157284e+02 
8
Step 27000
1 1 -2.790024283995e+02  -8.633624511886e+00  -2.230781323381e+02 
2 1  3.647466289713e+02  -2.959742978581e+02   5.364894581608e+01 
3 1  2.098142179162e+02   3.236279545244e+01   1.689431900621e+02 
4 1 -2.700565449961e+02   8.249365065608e+01   5.047988260012e+02 
5 1 -3.277485176130e+02  -2.822299470070e+02  -2.246035417125e+02 
6 1  2.320429249632e+02   1.070113617718e+02  -1.770396617637e+02 
7 1 -4.047031711851e+02   1.109208909522e+02  -3.785984077824e+01 
8 1 -1.239916687756e+01   1.950263011250e+01   5.177325785530e+02 
8
Step 28000
1 1  9.193517998999e+01  -2.998055671642e+02   2.636049096594e+02 
2 1 -4.808949247037e+02   3.641328019157e+02  -2.399802074130e+02 
3 1 -3.891492485221e+02   7.251525026480e+01  -2.562605289819e+02 
4 1 -2.537964568600e+01  -3.993391007358e+02  -2.968582330521e+02 
5 1  1.978969785193e+02   1.321579375143e+02  -1.169027141658e+01 
6 1 -2.640685418435e+02   1.863163078839e+01   3.874396526961e+02 
7 1  3.373549166205e+02   2.102250442902e+02   7.960257074916e+01 
8 1  1.930732452642e+02  -2.365559537390e+02  -3.004167470339e+02 
8
Step 29000
1 1 -4.427304364500e+02   1.543026548820e+02  -4.087399970357e+02 
2 1  3.589724793525e+02  -2.833333094918e+02   2.822723672661e+02 
3 1  3.856355791797e+02   5.885803410338e+01   3.435403561299e+02 
4 1  2.858308054461e+01   2.558949966208e+02   5.970345395953e+02 
5 1  1.931031258328e+02   2.415930452063e+02   4.973430254641e+01 
6 1  7.559754988989e+01   6.727438913667e+02  -3.946078628933e+02 
7 1  1.940152607974e+02  -2.342740194495e+02  -4.917281085669e-01 
8 1  1.639927162888e+02  -9.353350474374e+01   1.177321080024e+02 
8
Step 30000
1 1  3.170937118949e+02  -7.729899127840e+02  -2.021183001547e+01 
2 1 -1.135087788043e+02   1.906601515916e+02  -5.948860201270e+02 
3 1 -3.235623657641e+02  -2.036771567332e+02   1.423181489739e+02 
4 1 -2.061103698972e+02   1.141359635973e+02  -1.660287690768e+02 
5 1 -8.179473261283e+01   1.832862150121e+02  -3.825227195400e+02 
6 1  8.970760721146e+01   3.295929285329e+01   4.038267708177e+02 
7 1 -4.920821371084e+02  -1.401501165770e+02   1.093294493601e+02 
8 1 -3.717123714592e+01  -1.657335091055e+02  -4.111893077191e+02 
8
Step 31000
1 1 -1.875101265790e+02   3.774113221497e+02  -3.901184907934e+02 
2 1  1.012755188097e+02  -2.417194638700e+02   5.304533822296e+02 
3 1  1.616543780548e+02   2.822031342055e+02  -7.734864698076e+01 
4 1  1.640782270306e+02   7.592397447867e+01   6.364881812005e+02 
5 1  9.051782822058e+01   2.780500275004e+02   1.079455386173e+02 
6 1 -3.856467853379e+02  -2.775617950390e+01  -1.418486441958e+02 
7 1  5.032090046639e+02  -2.633641958393e+01  -4.940668686931e+01 
8 1 -4.263154245401e+02   5.342487523978e+01   1.182967192180e+02 
8
Step 32000
1 1  2.055206163713e+02  -4.183251728291e+02  -3.601285740496e+02 
2 1 -3.906797930379e+02   5.043839475477e+02   5.129738508178e+01 
3 1 -3.563684678686e+02  -4.772914363239e+02   3.850422471205e+02 
4 1  8.512938134832e+01   1.049582894758e+02  -2.590688204386e+02 
5 1 -2.955621277216e+02  -2.524651284703e+02   4.061915969300e+02 
6 1  3.908923419572e+02  -2.312314207678e+02  -1.707428893148e+02 
7 1 -2.996330070847e+02   2.693211566833e+02   2.831871867142e+02 
8 1  3.896403945119e+02   5.097708152556e+02  -1.447293086206e+02 
8
Step 33000
1 1 -8.860782678226e+01   1.993361231426e+02  -4.242354052937e+01 
2 1 -3.742852306364e+01  -3.828549207013e+02   1.668968490393e+02 
3 1  2.714185174259e+02   4.409910639684e+02  -1.501532480565e+02 
4 1  3.096636209230e+02  -5.200438233994e+02   3.934199036243e+02 
5 1 -3.463519840080e+02  -2.964495559976e+02  -2.598773020430e+02 
6 1 -2.740159091028e+02   2.213346496762e+02  -3.004246894308e+01 
7 1  4.900990248278e+02   2.098816080675e+02  -2.805471707718e+02 
8 1 -1.486631301197e+02  -4.571778581025e+02   5.236987134343e+01 
8
Step 34000
1 1 -2.109209649058e+02  -1.501794930495e+02  -6.135571275002e+02 
2 1  2.672326509970e+02   9.019594246713e+01   1.033335308988e+01 
3 1 -2.649699822287e+02  -1.472997628794e+02   2.331541149695e+02 
4 1 -3.507069373122e+02   4.286583980979e+02  -3.019245435556e+02 
5 1  3.437575763117e+02  -5.887772122353e+01   1.635367853433e+02 
6 1  3.282369736452e+02   1.145899440255e+02  -5.940134088928e+02 
7 1 -2.410646599265e+02  -2.199820475667e+02   1.691288536021e+02 
8 1  2.071650896098e+01  -7.935528101873e+00   2.645420178870e+02 
8
Step 35000
1 1  3.338920791592e+02  -1.062928810800e+02   1.414395821445e+02 
2 1 -3.770241142509e+02   9.918138864082e+00   3.893090512333e+01 
3 1  1.720280225279e+02   3.249419796523e+02  -1.120290537972e+02 
4 1  3.372274249556e+02  -3.492477756427e+02   2.507524559460e+02 
5 1 -3.730133067070e+01   1.230871534574e+01  -2.426762640190e+02 
6 1 -5.899750157698e+02  -1.097282152954e+02   2.426441560001e+02 
7 1  2.556717419740e+02   3.956615936543e+02   2.270105761863e+01 
8 1 -3.095093000831e+02   8.216511310658e+01  -3.950701865471e+02 
8
Step 36000
1 1 -2.155034982590e+02   2.432909262260e+02  -3.713553709647e+02 
2 1  3.242140344014e+02  -1.826646728739e+02   1.866318701416e+02 
3 1 -4.351579284237e+02  -2.130969282542e+02   1.640434500138e+02 
4 1 -7.220063845093e+01   4.526996639998e+02  -3.512989946486e+02 
5 1  1.755190367056e+02  -1.599260563359e+02   3.080273842972e+01 
6 1  2.515299907440e+02   6.202280117415e+02   1.345730843921e+02 
7 1 -1.082943376719e+02  -3.099767365874e+02  -2.394046750581e+02 
8 1 -1.438856707151e+02   2.505436905996e+02   1.414843384495e+02 
8
Step 37000
1 1  3.845943559253e+02  -1.553516970389e+02   2.088387415060e+02 
2 1 -2.862197003424e+02   2.780776834292e+02  -2.326038468435e+02 
3 1  5.338912918179e+02   9.995849163496e+01  -4.509190711970e+02 
4 1  5.662965747589e+01  -2.743641319241e+02   5.155663239206e+01 
5 1  1.526729226143e+02  -1.539583330822e+02  -9.717366115488e+01 
6 1 -4.372744454414e+02  -2.281317731582e+02  -5.285001541889e+01 
7 1 -1.261818616478e+02   1.568793989764e+02   1.270452738460e+02 
8 1  1.889110930628e+02  -4.462170328437e+01  -9.660708963190e+01 
8
Step 38000
1 1 -2.965508835002e+02   3.820452999402e+02   1.755066538335e+02 
2 1  4.425419646925e+02  -4.669719911195e+02   4.890840045197e+02 
3 1 -3.765282033016e+02   8.953101868909e+01   4.092740711874e+02 
4 1  2.367611390979e+02   1.711058020526e+02  -1.917040796838e+01 
5 1 -4.754571255941e+02  -3.285298309615e+02  -9.257211425109e+01 
6 1  9.971474180821e+01   5.583517405203e+02   1.476482063951e+02 
7 1  5.569937491001e+02   8.416881881513e+01  -1.354329338045e+02 
8 1 -2.578033119898e+02  -5.134525950314e+02   3.938302273807e+01 
8
Step 39000
1 1  2.458410650528e+02  -2.501770814969e+02   3.093279014750e+02 
2 1 -2.172525390924e+02   3.929024254000e+02  -3.427911309318e+02 
3 1  5.481593509959e+01  -1.433802607133e+02  -2.430419681697e+02 
4 1 -5.597776599455e+02  -9.903766255242e+01  -1.082567584977e+02 
5 1  3.541980464667e+02   2.817003280950e+02   1.945545586659e+02 
6 1  2.943891175013e+02   1.007487656063e+02  -2.572008677720e+02 
7 1 -3.891529787885e+02  -2.277736625261e+02   4.160683764904e+02 
8 1  2.408308361052e+02  -2.915402570528e+01   4.036582904729e+02 
8
Step 40000
1 1  7.472442357697e+01   2.280803882569e+02  -3.300119540587e+02 
2 1  7.100216017060e+01  -2.596105253219e+02   1.650688909940e+02 
3 1 -5.045502672168e+01   2.921672269741e+02   4.957345896728e+02 
4 1 -1.397931913336e+01   1.267230111460e+02  -1.530001824246e+02 
5 1 -1.539357730415e+02   1.143353874990e+02  -5.503479346427e+02 
6 1 -1.046775910557e+02   2.816100034343e+02   5.686273149738e+02 
7 1  3.993736198148e+02  -1.666422817530e+01  -4.207188819518e+02 
8 1 -2.547640114830e+02  -7.003879484446e+00  -2.205839519072e+02 
8
Step 41000
1 1 -1.654881684331e+02  -6.798631636653e+02   1.563959588331e+02 
2 1  8.198201130013e+01   1.990682575814e+02  -2.845088030890e+02 
3 1 -2.017601965712e+02  -5.687572162404e+01  -1.943648273624e+02 
4 1 -9.958088180010e+01   9.765541905110e+00  -1.879041259594e+02 
5 1  1.331851335347e+02   8.789032731260e+01   4.398633599419e+02 
6 1  5.442023016720e+02   1.833386048554e+01  -2.669110575457e+02 
7 1 -4.900098333800e+02  -3.234872196133e+02   1.807410398606e+02 
8 1  2.016618670915e+01   5.212819048385e+01   1.297258820152e+02 
8
Step 42000
1 1  4.386061728682e+02   2.630427919696e+02  -6.851625814643e+01 
2 1 -2.203760751020e+02  -8.790843093819e+00   2.294940763022e+02 
3 1  5.355564600917e+02   2.012578613153e+02   1.584913302543e+02 
4 1 -2.873416621791e+02  -1.046536104870e+02   1.516109688838e+02 
5 1 -2.023517857483e+02  -4.771429595336e+01  -3.217866185090e+02 
6 1 -2.446220932413e+02  -2.553625157118e+02   2.948625608948e+02 
7 1  2.625104326749e+02   7.708594065788e+01  -8.520454818649e+01 
8 1  4.986867159296e+01   3.002730714832e+02   2.571429288518e+00 
8
Step 43000
1 1 -3.342430940616e+02  -1.567440610737e+02   4.955934988020e+01 
2 1  3.409897964603e+02  -1.219974345720e+02  -1.036184907452e+01 
3 1 -6.966345125875e+02  -1.230152466269e+02  -3.657702807899e+01 
4 1 -2.480165393253e+01   1.932068562637e+02  -3.684387243964e+02 
5 1 -2.049821577252e+00  -2.365605954904e+02   4.729011856452e+02 
6 1  3.285075183162e+02   2.075552283486e+02  -5.234525230510e+01 
7 1  3.297019897390e+01   3.774892558657e+02   9.098219657451e+00 
8 1 -2.881340591483e+02  -4.434867994580e+02   2.562711188846e+02 
8
Step 44000
1 1  3.228983819094e+02  -2.969888145084e+01   5.933121746738e+00 
2 1 -1.839857054413e+02   5.161752000177e+02  -8.747235021225e+01 
3 1  2.341197522053e+02   1.275342127904e+02  -2.045858598589e+02 
4 1 -1.928918183749e+02  -3.543609670321e+02   5.897634200777e+02 
5 1  1.894278941356e+02   2.376963301870e+02  -3.470508742005e+02 
6 1  3.566379868463e+02   1.618373831019e+00  -1.823876850599e+01 
7 1 -3.058519318532e+02  -1.097895269727e+02   5.564991986249e+02 
8 1  1.622527718180e+02  -1.690568817387e+02  -2.901833928449e+02 
8
Step 45000
1 1 -4.811854179066e+02   2.291722019746e+02  -4.585956622634e+02 
2 1  2.033759028220e+02  -3.087636517334e+02   3.732797294841e+02 
3 1 -3.876889328369e+02   1.502340771124e+02  -9.154643219234e+01 
4 1  3.597192719503e+02   4.066655063054e+02  -3.683021418697e+02 
5 1  1.652518701503e+02  -6.185939019492e+02   2.504177806445e+02 
6 1 -1.895452025808e+02   2.080921750956e+02   5.859894679085e+02 
7 1  2.585677437147e+01  -3.592425185859e+02  -1.130035224912e+02 
8 1 -1.961355728112e+02   1.611356630492e+02  -1.397669610674e+02 
8
Step 46000
1 1  4.179562893424e+02  -1.383883326774e+02   5.065600712273e+01 
2 1 -4.936963709042e+02   3.769140023760e+02  -3.891323471527e+02 
3 1  1.910166435857e+02   1.829008888491e+02  -2.672149253142e+02 
4 1 -7.032517781728e+01  -2.746329251367e+02   3.395674833004e+02 
5 1 -1.202504805152e+02   4.785333813540e+02   1.080447071761e+02 
6 1 -1.503512905090e+02  -3.914539883426e+02  -3.468974093102e+02 
7 1  1.108876792158e+02  -2.966811548332e+01  -7.432746768527e-01 
8 1  6.373933810147e+02   1.184322847469e+02   2.569146718217e+02 
8
Step 47000
1 1 -4.135415419736e+02   2.362078511254e+02  -3.567454540685e+02 
2 1  2.343572354622e+02  -2.696831660563e+02   4.954265955182e+02 
3 1  7.069961275303e+01  -3.741463253410e+02  -6.065228347278e+01 
4 1  4.012571344978e+01   2.730917392880e+02  -5.879657762321e+01 
5 1 -2.846358936338e+02  -6.063866985218e+02  -2.600501172155e+02 
6 1 -5.492583378392e+01   4.196510948886e+02   2.961158711321e+02 
7 1  5.843153757542e+02   1.818728231752e+02  -4.191479846037e+01 
8 1 -4.013252943938e+02  -5.979852567447e+02  -5.506523371770e+01 
8
Step 48000
1 1  1.410767599561e+01  -3.449499447150e+02   6.520559587869e+02 
2 1 -4.134498907663e+02  -8.845567679037e+01  -4.722711142008e+02 
3 1 -2.542299563529e+02   3.889189767176e+02  -7.477153014284e+01 
4 1  1.266748748121e+01  -5.835406325593e+02   3.527885507483e+01 
5 1  4.134158695645e+02   4.425239808237e+02  -1.119174505756e+02 
6 1  1.301581835851e+02  -3.973711987318e+02  -2.694680448716e+02 
7 1 -3.239455917449e+02   4.296278444084e+02   8.739839571045e+01 
8 1 -1.063630984276e+02  -1.222906725913e+02   1.471564806359e+02 
8
Step 49000
1 1 -1.292150198730e+02   2.355156715291e+02  -2.232086518298e+02 
2 1  4.674552286308e+01   1.926291595399e+02   3.893712321799e+02 
3 1  2.117733699083e+02  -4.581904628572e+02  -2.593018352419e+02 
4 1  3.289234739368e+02   4.250863200164e+02  -5.164848002007e+01 
5 1 -2.707416224513e+02  -2.025197342396e+02  -1.196319926682e+02 
6 1 -4.024742740715e+02   3.519845280157e+02   4.079531411130e+02 
7 1 -8.772531172117e+01  -1.154226434996e+02   1.079677132987e+02 
8 1  2.195846138983e+02  -1.549860694466e+02  -2.913141412131e+02 
8
Step 50000
1 1  1.051813758639e+02  -4.025244663040e+02   6.763920537015e+02 
2 1  3.704065113390e+00  -1.437419949370e+02  -2.558026018106e+02 
3 1 -1.937927095582e+02   3.389473710188e+02   3.266480071581e+02 
4 1  1.777900305701e+01  -2.126263808914e+02  -1.116637224904e+02 
5 1  9.311726308525e+01  -1.758649907717e+02   1.567403329423e+02 
6 1  1.533340537074e+02  -2.327283191133e+02   5.083698555071e+02 
7 1 -1.113747210607e+02   2.310315321080e+01  -3.900416395083e+02 
8 1  5.963984695478e-01   1.165960955109e+02  -1.166371419331e+02 
8
Step 51000
1 1  2.126240544183e+02   1.532343508544e+02  -9.984701738097e+01 
2 1  1.093733762307e+02   2.230975260571e+02   1.455511018652e+01 
3 1  4.919348186384e+02  -1.953472054130e+02  -2.414103105155e+02 
4 1 -4.067248458175e+02   6.593459461326e+01   4.302155092382e+02 
5 1 -1.556219057230e+02   3.115082369048e+02   5.510577490492e+02 
6 1 -7.293497042846e+01  -1.445194223556e+02  -4.349229482268e+02 
7 1 -9.157817205177e+01   2.186203591765e+02  -1.090302290459e+02 
8 1  2.207251295742e+02  -1.517135317144e+02   1.068238666918e+02 
8
Step 52000
1 1 -4.935274502255e+02  -1.258495555870e+02   9.802522009191e+01 
2 1  9.897032063645e+01  -1.218600302469e+02   4.802466363609e+01 
3 1 -3.000999604497e+02   9.941116137918e+01   3.421626426120e+02 
4 1 -6.500462809784e+01   1.927038135220e+02   1.834771490068e+02 
5 1  1.501094639535e+02  -5.822750411352e+02  -3.542372347840e+02 
6 1  3.084013089691e+02   3.114424784236e+02  -1.818111755953e+02 
7 1  2.317769918668e+02  -2.384712226948e+02   2.067617659694e+02 
8 1 -3.949922741238e+02   3.552970078670e+02  -1.003438746796e+01 
8
Step 53000
1 1 -3.346117466076e+02   8.987205174308e+01  -1.765851179844e+02 
2 1 -1.391362146965e+02   2.708734640114e+02  -7.480888265986e+01 
3 1  2.743589149062e+02   1.512265848152e+02  -2.264750872751e+02 
4 1  3.969164377783e+02  -2.777181525481e+02  -2.054257998623e+01 
5 1  3.702829622207e+02   2.842287205206e+02   2.565114324301e+02 
6 1 -3.399944638911e+01  -2.674414959462e+02  -2.393533601979e+02 
7 1 -3.697701600374e+02   3.603389402666e+02   1.467748742207e+02 
8 1  9.464980193130e+01  -5.118176741269e+02   6.225393338952e+01 
8
Step 54000
1 1  2.581168597280e+02  -2.555325291646e+02  -7.967009887565e+01 
2 1  3.928862536014e+02  -3.198436150353e+02   6.230372133407e+02 
3 1 -4.859477607803e+02  -3.432688647701e+02   1.116515681893e+02 
4 1 -3.673950117858e+02   2.259870829622e+02  -2.695138691780e+01 
5 1 -4.430181939656e+01  -1.525332482229e+02  -1.093604273947e+02 