8
Step 0
1 1 -1.63085447218212186e-02 5.71538539859604410e-03 6.16730094070877446e-03
2 1 -1.69856754912572254e-03 9.30620768858968390e-03 -1.34134743035989133e-02
3 1 -2.69444251818120423e-04 7.49780013862162090e-03 -6.19924649427717068e-03
4 1 4.56207214342048504e-03 1.63624653388967610e-02 1.88504868355723124e-02
5 1 -2.76832238876628060e-03 1.91735204882856093e-02 3.85471838598796732e-03
6 1 -8.05249416750632684e-03 -1.09359132075964489e-02 -8.92822171676664958e-03
7 1 -1.15855081982009552e-02 -5.64321744221356423e-03 1.20246030604634589e-02
8 1 -7.14678496468135280e-03 -2.28319440408336800e-02 -1.73603939755569538e-03
8
Step 1000
1 1 -6.22272186040162979e-03 2.63867298741809987e-03 -4.71286503954708533e-03
2 1 7.21034926565933265e-03 -4.80983007998185118e-03 -1.54067661133224214e-02
3 1 -1.00631139783940345e-02 -2.19962544103549738e-03 -8.34374293274204627e-03
4 1 1.72855472098659597e-02 8.96214578196350732e-03 1.84382531212050997e-02
5 1 1.00567214202387338e-02 9.24728621918017267e-03 -6.35435754180790121e-03
6 1 -4.29627884069127067e-03 4.20141291841231827e-03 3.84167790361338024e-03
7 1 -1.54317803772598891e-02 -1.60335819780597216e-03 4.89286630541020781e-04
8 1 -1.02595978015698440e-02 -1.70566024673378253e-02 4.03839618290791199e-04
8
Step 2000
1 1 6.61246327134384655e-03 -1.18537191120050628e-03 -1.26788729426376822e-02
2 1 1.35611800372577949e-02 -1.64090739031533817e-02 -1.22317992238760113e-02
3 1 -1.75073178508608450e-02 -1.02922381582573729e-02 -8.58583760274925570e-03
4 1 2.12797471413647236e-02 -2.41460583638986948e-03 1.24932495488195953e-02
5 1 1.66635961778914994e-02 -4.41756028993673007e-03 -1.54072083593869424e-02
6 1 2.85010183969448437e-03 1.83534026190142231e-02 1.34182301976067588e-02
7 1 -1.31483414464763169e-02 4.36425037979456133e-03 -1.03505598678297096e-02
8 1 -9.84521625749563284e-03 -3.55444804367530121e-03 2.47172175283123059e-03
8
Step 3000
1 1 1.63368013829444797e-02 -5.27393194209947909e-03 -1.38911344678497323e-02
2 1 1.33027020180803719e-02 -1.85944765227609513e-02 -5.13146343612459928e-03
3 1 -1.83419376644857537e-02 -1.30967989278767388e-02 -6.82295240548163196e-03
4 1 1.36063887677551100e-02 -1.25485300790250422e-02 4.82062774785842543e-03
5 1 1.30998262985590700e-02 -1.58432261253111210e-02 -1.86239131897606852e-02
6 1 1.03180351408113727e-02 2.29370629362212336e-02 1.55496949066904113e-02
7 1 -7.25826831043351224e-03 1.07418881380452729e-02 -1.48872670792699231e-02
8 1 -5.33315386446049731e-03 9.95346245944627415e-03 4.86211893666875939e-03
8
Step 4000
1 1 1.77791280918622903e-02 -9.09743259741595776e-03 -8.12899969371644500e-03
2 1 6.28504393709278762e-03 -1.03603738330420025e-02 3.10505994840657969e-03
3 1 -1.20057888412479965e-02 -9.55961372655354108e-03 -3.46209255206410228e-03
4 1 3.50392029080382730e-04 -1.64573427388624675e-02 -2.01777552993856338e-03
5 1 2.45414166027555641e-03 -1.94762906945115388e-02 -1.38395636181112437e-02
6 1 1.41862814206045428e-02 1.47936749945804628e-02 1.01351805272610965e-02
7 1 -1.33447082281544635e-03 1.45762929730041645e-02 -1.04738886028980759e-02
8 1 1.71929269352364572e-03 1.73094018867720190e-02 7.39333619380988950e-03
8
Step 5000
1 1 1.06807925436845468e-02 -1.17584718395135814e-02 8.07026271674312788e-04
2 1 -3.60063852082333734e-03 1.77843917315232075e-03 9.70126107573634176e-03
3 1 -2.35611763410147881e-03 -2.02497105000820545e-03 7.62396865183817638e-04
4 1 -1.15252400789210355e-02 -1.19821955542963824e-02 -7.18296732934514334e-03
5 1 -8.73529323643641546e-03 -1.38377676375002860e-02 -4.35232358867342160e-03
6 1 1.15668170476156563e-02 1.43830355535601935e-03 1.77860340584361752e-03
7 1 2.45716283325446861e-03 1.31071362620809612e-02 -1.43167424114482310e-04
8 1 8.61702547357222001e-03 1.49860882969018137e-02 9.00281975084619122e-03
8
Step 6000
1 1 4.70377734049414148e-04 -1.19794391426787609e-02 8.37804895842492875e-03
2 1 -1.15522339422934276e-02 1.10058532609959743e-02 1.22639434024029263e-02
3 1 6.60304437720679593e-03 5.97862567504519726e-03 4.93939907105459593e-03
4 1 -1.70317615509018201e-02 -2.38370212257702245e-03 -1.04630392839242334e-02
5 1 -1.47049090284331347e-02 -4.01731844676873982e-03 4.99788028540619489e-03
6 1 3.17902364432148463e-03 -9.83682155913910387e-03 -4.53469551870864032e-03
7 1 3.68395610018821748e-03 6.45981504053716286e-03 1.04355595626120738e-02
8 1 1.24375526387415138e-02 6.02817740565977402e-03 8.33575052933026826e-03
8
Step 7000
1 1 -7.49289032619337297e-03 -8.81385847043192512e-03 1.11870270875079596e-02
2 1 -1.34949020120055212e-02 1.30100567027067824e-02 9.98095831480906061e-03
3 1 1.21121830456209483e-02 1.13783667023807690e-02 7.97793135609118319e-03
4 1 -1.42427989182443340e-02 7.12195810114851259e-03 -1.16760588878572630e-02
5 1 -1.24211383691096994e-02 4.50402752876341052e-03 1.06915202260035157e-02
6 1 -7.53190973629044424e-03 -1.52448423724818108e-02 -6.02929796918310300e-03
7 1 3.14287935501162807e-03 -2.55252153775192142e-03 1.56850189605133618e-02
8 1 1.12274030910724174e-02 -3.51056002075619041e-03 4.76755544681257797e-03
8
Step 8000
1 1 -1.01776969515933093e-02 -2.34490831915320618e-03 8.26733706457889912e-03
2 1 -8.62336750368946844e-03 7.94497023972963283e-03 4.64555387097963148e-03
3 1 1.27207145488541229e-02 1.20901544813026111e-02 8.83924196907748261e-03
4 1 -6.21010822490669200e-03 1.22347207622414359e-02 -1.06862107918535773e-02
5 1 -4.32814047449569476e-03 8.97723368504004318e-03 1.09593602871362779e-02
6 1 -1.61521609389191322e-02 -1.38588665861755864e-02 -3.01807355745491905e-03
7 1 2.15145342923382015e-03 -1.04828119444346050e-02 1.23999820179612769e-02
8 1 5.59689637211643280e-03 -9.16097556529576161e-03 -1.21842960821344471e-03
8
Step 9000
1 1 -7.56214273402379053e-03 6.51717567614286137e-03 1.74678779804949939e-03
2 1 -5.45405669232334805e-04 2.13012479638550935e-04 -7.33677806468468140e-04
3 1 9.25966091945670637e-03 8.08417793492760897e-03 7.02379445459636650e-03
4 1 2.93346699899239621e-03 1.08692259128354077e-02 -7.66296491907975802e-03
5 1 4.26615576935994705e-03 8.90405258840000838e-03 6.84620974973290317e-03
6 1 -1.78211372278027740e-02 -8.15063402147525595e-03 1.63396584305877278e-03
7 1 1.78296467358252434e-03 -1.40574807812120731e-02 3.13751545659713251e-03
8 1 -1.79070911933729843e-03 -8.60855262784415536e-03 -8.42321630422200249e-03
8
Step 10000
1 1 -2.50527852830329141e-03 1.60748228740121325e-02 -4.87186882281449764e-03
2 1 5.85745396714006973e-03 -5.62800559502572590e-03 -3.93879493433138897e-03
3 1 4.14178522389044550e-03 1.40055082050715850e-03 2.80214703686424999e-03
4 1 1.03227202734224588e-02 4.83440507325883211e-03 -3.16449425325706626e-03
5 1 9.22128619816544974e-03 5.64417445596703329e-03 1.44959759948201064e-03
6 1 -1.12774145802701387e-02 -1.26412492576327934e-03 4.54746075530627729e-03
7 1 2.37731224052719443e-03 -1.17002583925597363e-02 -6.39547670565087691e-03
8 1 -7.98450532449652972e-03 -2.58806316415307984e-03 -1.50802822718415323e-02
8
Step 11000
1 1 1.49333141523149576e-03 2.24262892556485148e-02 -8.61327227219929603e-03
2 1 7.34834477435557416e-03 -7.12792216284571876e-03 -4.37327220896004121e-03
3 1 -5.32707345457138692e-04 -5.48380819880551085e-03 -3.10824098274285624e-03
4 1 1.35783922844335270e-02 -1.96952034656755438e-03 1.95978713904575424e-03
5 1 9.02727075713234683e-03 1.31531962187492473e-03 -2.39107108166287637e-03
6 1 -1.17564537833105996e-03 4.78692812848536663e-03 3.72345573980967801e-03
7 1 3.56625978734001958e-03 -5.44241365639438427e-03 -1.14842443238219565e-02
8 1 -1.05765300772620134e-02 5.61566290462000000e-03 -1.84880902297942171e-02
8
Step 12000
1 1 2.20289146465217807e-03 2.02378188043265336e-02 -8.17674244162671510e-03
2 1 4.11344963288029063e-03 -4.53703174972475230e-03 -2.89075853723497200e-03
3 1 -3.60229194669179752e-03 -1.06179894666841284e-02 -9.69887764340813911e-03
4 1 1.16037216610194744e-02 -6.65062412025321965e-03 6.59904419564239474e-03
5 1 5.25943637746803354e-03 -2.30565082946460878e-03 -3.26203530932467041e-03
6 1 7.03319355608902647e-03 8.62608627639535955e-03 -3.72773789939195182e-04
7 1 4.62689137886352665e-03 6.64770335949732517e-04 -1.04907389192584882e-02
8 1 -8.54496492565521605e-03 1.16562830951815171e-02 -1.61498440773379381e-02
8
Step 13000
1 1 -4.35304467061036133e-04 9.66600543074824098e-03 -4.55714858355272829e-03
2 1 -5.57723934096420208e-04 -1.12821742670755104e-04 -9.92735782243655066e-04
3 1 -4.68231329651594939e-03 -1.25365765804646249e-02 -1.46671309182373789e-02
4 1 5.60880651449730070e-03 -8.23270115473962588e-03 9.44499277092842801e-03
5 1 7.82773334555222672e-04 -4.08625558169188434e-03 -1.26831074150502788e-03
6 1 1.05252613206138022e-02 9.48194790529167074e-03 -5.30317146720085675e-03
7 1 4.80103282218571816e-03 3.76082105005546858e-03 -5.73390084018497379e-03
8 1 -3.03983381494251368e-03 1.15580316785750432e-02 -8.21498683206275081e-03
8
Step 14000
1 1 -4.32127762926940752e-03 -3.58625427807574655e-03 -5.43775437458294338e-05
2 1 -3.14699987369077396e-03 3.64316047291186624e-03 1.63960725798249107e-04
3 1 -4.07904350963132160e-03 -1.06479177596602789e-02 -1.41343884971444969e-02
4 1 -2.01980292627293358e-03 -7.23846417870698585e-03 9.51524685975012850e-03
5 1 -2.47261755617026987e-03 -3.61606661306288976e-03 2.16232074758727910e-03
6 1 9.47756743385452273e-03 7.64489148867780743e-03 -8.23881489388806308e-03
7 1 3.47549897270447907e-03 3.65097718894964425e-03 -5.24776013716577480e-04
8 1 3.41150747353967691e-03 4.37923321971507400e-03 3.41469906843618705e-03
8
Step 15000
1 1 -6.40681793235942099e-03 -1.44618324985222278e-02 3.43058876948591123e-03
2 1 -2.22942077571844149e-03 5.11758512810126399e-03 3.05183776520471454e-04
3 1 -2.64046908667342527e-03 -5.75807279866815021e-03 -6.60875357857171417e-03
4 1 -8.91490278045764355e-03 -4.62275854535398097e-03 6.86856899223241973e-03
5 1 -3.92631526624116593e-03 -1.31133920463932579e-03 4.68207008618679119e-03
6 1 5.99822436387893471e-03 4.23660063587066524e-03 -7.42870611586391588e-03
7 1 3.21849297035512751e-04 2.06795894719616824e-03 3.33510254249327507e-03
8 1 8.10187907647711043e-03 -7.07957249523725064e-03 1.69036403933550891e-02
8
Step 16000
1 1 -4.46873211026481768e-03 -1.88942186326011077e-02 5.15093616142668891e-03
2 1 1.11166396431996322e-03 3.95874997409705488e-03 -1.65785031241007773e-04
3 1 -1.41962709301991807e-03 6.43899529159779331e-04 4.77890917391415090e-03
4 1 -1.29164514894080807e-02 -8.88313641921023014e-04 2.55317482427500552e-03
5 1 -3.86361622743177247e-03 1.67683956810647382e-03 4.25986995754660137e-03
6 1 2.13809893016742632e-03 4.37183055561270921e-04 -3.13837799263538006e-03
7 1 -4.52104242996884034e-03 9.38088971384750097e-04 5.16985209850744434e-03
8 1 8.82050830517101467e-03 -1.75298572723230038e-02 2.73767458754747041e-02
8
Step 17000
1 1 1.45161444777873092e-03 -1.57469538154034888e-02 5.39535386002052472e-03
2 1 4.50727616243770494e-03 9.97525364112110229e-04 -7.00250900687564271e-04
3 1 -1.22274821609747960e-03 7.16061373991677078e-03 1.47192759752598594e-02
4 1 -1.26979882805491953e-02 3.83336145052423161e-03 -2.08669598423729015e-03
5 1 -2.94126709406458599e-03 3.82634497427066129e-03 5.01978617600639721e-04
6 1 -8.55217883167244436e-04 -3.10122660612280289e-03 2.72095094632673505e-03
7 1 -1.00905931997767560e-02 1.15527462150799998e-03 4.86568632958390285e-03
8 1 4.92792239189153523e-03 -2.03727542185893652e-02 2.55389525853658116e-02
8
Step 18000
1 1 8.88265096855858811e-03 -8.76319204391031933e-03 4.87044912761146025e-03
2 1 5.73895302733374267e-03 -2.26698687131789232e-03 -9.12749051361339252e-04
3 1 -2.10963892029916245e-03 1.19991659184913377e-02 1.76457605450544112e-02
4 1 -8.69203841390583584e-03 8.80207834640856293e-03 -5.82679078588330471e-03
5 1 -1.78262545748524644e-03 3.85167697712944035e-03 -5.09628146793476150e-03
6 1 -2.44657894733862208e-03 -6.26577530520498489e-03 7.69803328677155958e-03
7 1 -1.41826651612485775e-02 2.23185752797580789e-03 2.85204110586653303e-03
8 1 -2.10240613541836643e-03 -1.34226233555403279e-02 1.18433842777187857e-02
8
Step 19000
1 1 1.38538922530342321e-02 -1.84592172796191074e-03 3.96407049516428033e-03
2 1 3.73718633448082843e-03 -4.33959099231411190e-03 -6.29517397635853833e-04
3 1 -3.16481955375987100e-03 1.30569360636893627e-02 1.22441045194866347e-02
4 1 -2.55947254885542826e-03 1.19111581658291055e-02 -7.68105224697507132e-03
5 1 -6.95758590279405204e-04 1.39143773623882396e-03 -9.54789250853061225e-03
6 1 -2.76087042469531137e-03 -8.89387203535997595e-03 9.63713386021062580e-03
7 1 -1.40067468452547503e-02 3.01942436035250060e-03 5.47791908792140107e-05
8 1 -9.38785815983864992e-03 -1.13665514769208955e-03 -3.70490499116129341e-03
8
Step 20000
1 1 1.30186620078521394e-02 3.41568912546522455e-03 2.51337323152254566e-03
2 1 -8.01506628687604153e-04 -4.38172788985862188e-03 6.65452760864776211e-05
3 1 -2.90105652498301100e-03 9.75722909819896032e-03 2.97614393258882224e-03
4 1 4.05887196993119474e-03 1.09066211088570900e-02 -7.15332372420218656e-03
5 1 3.84855382468143339e-04 -2.65723699335846872e-03 -9.87436865810576228e-03
6 1 -2.41340994353939683e-03 -1.02386525703227187e-02 7.65952870928716598e-03
7 1 -8.48455435586375865e-03 2.79562776241569716e-03 -2.36731760399505652e-03
8 1 -1.32216618207324065e-02 1.12821366798814930e-02 -1.40227155432600340e-02
8
Step 21000
1 1 6.45423734431380298e-03 6.44113295671210756e-03 1.04792264233483627e-04
2 1 -5.75440111001218873e-03 -2.58336113474750889e-03 8.75253495894953888e-04
3 1 -1.54318402797488528e-04 3.75966307907229201e-03 -4.98916485088076594e-03
4 1 9.76905980512652282e-03 5.42897628203703898e-03 -4.50067606440207255e-03
5 1 1.69707427762436731e-03 -6.38500164343003794e-03 -5.50175565437117757e-03
6 1 -2.11252702911392254e-03 -9.24678335904423332e-03 2.75174479416525003e-03
7 1 8.73151841528436307e-04 1.64071250700952584e-03 -3.42096101628149019e-03
8 1 -1.05662451621734987e-02 1.89882191114573579e-02 -1.53507055815689276e-02
8
Step 22000
1 1 -2.82118758939556248e-03 6.99904451427814552e-03 -3.37057752547828982e-03
2 1 -8.60991783582106332e-03 1.60613440746091677e-05 1.43461410615098022e-03
3 1 4.96611463370557563e-03 -2.56864674784929156e-03 -8.43032760561561630e-03
4 1 1.30181452709658731e-02 -2.76232262815270585e-03 -6.14432018994165224e-04
5 1 3.30261062978638676e-03 -7.61508852403333745e-03 1.42374628418915532e-03
6 1 -2.20320940385813294e-03 -5.32331680055686107e-03 -3.00400120835704566e-03
7 1 1.14555279585506400e-02 1.27411180796609851e-04 -2.69372364546363943e-03
8 1 -1.65478014347884600e-03 1.82792037621835636e-02 -9.67451904274765732e-03
8
Step 23000
1 1 -1.11043232135661050e-02 5.45658180972331472e-03 -7.15616978788803735e-03
2 1 -7.69261419821812460e-03 2.08289917366443053e-03 1.48062192892580184e-03
3 1 1.05351387224863653e-02 -7.27170224622268428e-03 -6.79836589423128690e-03
4 1 1.24604243713138767e-02 -1.06593741057080388e-02 3.34320185810954053e-03
5 1 4.80239146096773321e-03 -5.08771969157504299e-03 7.75474894505387945e-03
6 1 -2.42150630596407171e-03 1.20990176265531064e-03 -7.48557446377383275e-03
7 1 1.95363001974375519e-02 -1.14413125215153582e-03 -5.64128127543866097e-04
8 1 1.03220597934786523e-02 1.08931636213502048e-02 -3.21661878162071702e-03
8
Step 24000
1 1 -1.47874853521271568e-02 2.84317751369371312e-03 -9.56555091382560105e-03
2 1 -3.21905738529874169e-03 2.66493558381047458e-03 9.85037776939254274e-04
3 1 1.32328859780175105e-02 -9.09935037836616736e-03 -2.29517198402898713e-03
4 1 8.17093176819384814e-03 -1.46919058006818593e-02 6.21069730539316068e-03
5 1 5.36479283359124048e-03 6.23362018874951108e-04 1.06173119412304798e-02
6 1 -2.08651673250142460e-03 9.00909756206168255e-03 -9.12940902134354131e-03
7 1 2.03893392626074421e-02 -1.85627927781892884e-03 1.95692912302124818e-03
8 1 2.00608431404402723e-02 1.65138339532170395e-03 5.85662478345343727e-04
8
Step 25000
1 1 -1.22180445140319602e-02 4.29804156815143383e-04 -8.88387585623068299e-03
2 1 2.85268745701805103e-03 1.73526472758217401e-03 1.86615074258503780e-04
3 1 1.04275326789004599e-02 -7.94443480231606276e-03 1.78173958083653106e-03
4 1 1.74344737640046111e-03 -1.27265815535494622e-02 7.10625688880946182e-03
5 1 4.14766492448180764e-03 7.26950842374061903e-03 8.70607208376714820e-03
6 1 -5.85178608707407938e-04 1.54395995643464654e-02 -7.52169403080725930e-03
7 1 1.33648345333805454e-02 -2.05634240790859195e-03 3.63866845217001873e-03
8 1 2.05413084351151361e-02 -6.08646364212595339e-03 1.60664324738402260e-03
8
Step 26000
1 1 -5.34592917876029836e-03 -8.44279476320186498e-04 -4.70231598519665894e-03
2 1 7.87452198154393705e-03 2.23489240084492625e-04 -5.49615259122995564e-04
3 1 2.44517952714244733e-03 -4.87354198825408307e-03 2.92984871281618854e-03
4 1 -4.80628035880383778e-03 -6.14951555035676573e-03 5.79686693356044891e-03
5 1 8.60386839699362111e-04 1.16508028661048580e-02 3.23942619953311106e-03
6 1 2.16084651792136304e-03 1.69699339692113010e-02 -3.59137297378426265e-03
7 1 3.17044268593958236e-03 -2.01977704128971942e-03 3.52482130041723496e-03
8 1 1.04363971717978954e-02 -1.03477118419989505e-02 7.60183488545862073e-04
8
Step 27000
1 1 2.29453320448323034e-03 -7.81886947429183150e-04 1.70284128570577639e-03
2 1 9.52353696605071944e-03 -5.37299925623502305e-04 -9.46466099689185266e-04
3 1 -7.92591461221934385e-03 -1.33387629897240055e-03 5.93858797715029834e-04
4 1 -9.54263091403018821e-03 1.65091611484680513e-03 2.80089892170721968e-03
5 1 -3.89821750878272671e-03 1.10079259249404350e-02 -3.02381392498483241e-03
6 1 5.42227210564293158e-03 1.20698335302699619e-02 1.09866194967229926e-03
7 1 -5.84244586282396498e-03 -1.97641268105528452e-03 1.38088261436291639e-03
8 1 -4.05029958704368996e-03 -1.03568206260036041e-02 -7.48026776481415241e-04
8
Step 28000
1 1 7.67728962326353227e-03 3.95657681583693900e-05 8.00497984705083113e-03
2 1 6.99738812403040682e-03 3.76005638099606576e-04 -9.66539845997100482e-04
3 1 -1.64730088723511921e-02 1.57385582693960737e-03 -3.73732259708851227e-03
4 1 -1.08844393841989236e-02 7.63661063538217944e-03 -9.06076902939222865e-04
5 1 -8.59677453102844318e-03 5.15780450074034610e-03 -7.29267316580718954e-03
6 1 7.74583879314477263e-03 3.03360931714351679e-03 5.14529589479875097e-03
7 1 -1.14130591622378236e-02 -1.88361698039891208e-03 -2.13785758936703213e-03
8 1 -1.63078330482055618e-02 -7.13747724103596867e-03 -1.71209999801516391e-03
8
Step 29000
1 1 8.95689635525839800e-03 6.32587658776619511e-04 1.15289242255529247e-02
2 1 1.61071851194691490e-03 2.77760857341513741e-03 -8.40975474249419891e-04
3 1 -1.82827278587692835e-02 3.28806849056640423e-03 -7.41185076367293413e-03
4 1 -8.57871670219177186e-03 9.85174604210136383e-03 -4.26318531969504654e-03
5 1 -1.10537528626852288e-02 -3.34383407999429153e-03 -7.74558758968200891e-03
6 1 7.58403787358818884e-03 -6.53221104149836248e-03 7.60465158832541489e-03
7 1 -1.26621051788925031e-02 -1.40950981726343052e-03 -5.66049944910571815e-03
8 1 -2.01568360398319095e-02 -2.86190921309025046e-03 -1.37043538522233117e-03
8
Step 30000
1 1 6.31300998728749011e-03 1.42148067808949789e-04 1.05114410736032553e-02
2 1 -4.11942694923130709e-03 5.20460650621993020e-03 -9.22208226782200323e-04
3 1 -1.20457225259323706e-02 3.74015541848500988e-03 -7.79515142447732238e-03
4 1 -4.10232074845869911e-03 8.03015869729982457e-03 -6.39406718461946189e-03
5 1 -9.49413442824318353e-03 -1.08271491792204938e-02 -4.45768515954118351e-03
6 1 4.24554434177796397e-03 -1.33327413266525543e-02 8.08392432563667315e-03
7 1 -1.04043722022220623e-02 -1.41674391136521662e-04 -7.47703962190147085e-03
8 1 -1.38598865002624010e-02 4.59696781027731473e-04 2.63310564831718613e-04
8
Step 31000
1 1 1.89465493216547259e-03 -1.65319617152184708e-03 5.63587101563579277e-03
2 1 -7.67813374836581828e-03 5.49214969335146304e-03 -1.41639654775750396e-03
3 1 -1.79551284274271456e-03 3.23977156036827111e-03 -3.67137498163340242e-03
4 1 4.19074321537516467e-04 3.75669855992986348e-03 -6.80554933842111073e-03
5 1 -3.90069775206913294e-03 -1.36151991136740022e-02 6.37778041351652765e-04
6 1 -1.64094148706159021e-03 -1.46971271651196687e-02 6.72967217419294904e-03
7 1 -6.58750407645587472e-03 2.10141752178779435e-03 -6.21674465290849264e-03
8 1 -3.45553109852694352e-03 1.75723681230137842e-03 2.45424688259741203e-03
8
Step 32000
1 1 -1.57499555053222055e-03 -4.11228462554643400e-03 -5.04236902714052843e-04
2 1 -7.52661535799674288e-03 2.04335914899772498e-03 -2.16688414603855885e-03
3 1 7.62838085558146216e-03 2.26900672911660006e-03 3.97523342186735431e-03
4 1 3.39592318245229667e-03 -6.47018803520219184e-04 -5.46456137044737129e-03
5 1 4.00876682017702480e-03 -1.00710789216724612e-02 4.92248345198474224e-03
6 1 -8.36745898819158708e-03 -1.06096842788574938e-02 4.00743910973389624e-03
7 1 -2.69421557901398760e-03 5.00736275375483764e-03 -1.68040749947422226e-03
8 1 4.79422677093967534e-03 1.27976303344197765e-03 4.15589249724540241e-03
8
Step 33000
1 1 -2.24104565457255815e-03 -5.93694025356328835e-03 -5.27842709242088391e-03
2 1 -3.98200236600914931e-03 -4.87557552775612097e-03 -2.61519177658232080e-03
3 1 1.25745261162466121e-02 1.26086210335402929e-03 1.22842923958810229e-02
4 1 4.24293111381201637e-03 -3.37004375294325861e-03 -2.74059373343590483e-03
5 1 1.15497212671713430e-02 -2.22850052430623516e-03 6.25423232244775532e-03
6 1 -1.33112608202165320e-02 -4.13004579309287148e-03 3.96144364143078125e-04
7 1 7.71565122035801809e-04 7.61387748278177009e-03 4.90495620888475436e-03
8 1 8.30021372617708447e-03 3.60382923839748916e-04 4.54195460468396692e-03
8
Step 34000
1 1 -1.16808744107765094e-04 -5.75216820478907653e-03 -7.10045527757664774e-03
2 1 9.45478407021485339e-04 -1.26012602264575467e-02 -1.98125570141604668e-03
3 1 1.13482029428528409e-02 4.65978716967433695e-04 1.67999835145339893e-02
4 1 3.40005909740476956e-03 -3.69040966617417351e-03 7.55226319833586816e-04
5 1 1.53266037815544334e-02 6.08633658990260368e-03 3.88634245858092246e-03
6 1 -1.35452468652641350e-02 1.50305951081068298e-03 -3.73938056589153940e-03
7 1 3.72174950307566565e-03 8.29057687500016523e-03 1.10812282459420309e-02
8 1 7.32618386451674465e-03 5.42259259745517101e-04 3.40471891612582249e-03
8
Step 35000
1 1 2.94098821996857445e-03 -2.82871746772637815e-03 -5.92222024955527029e-03
2 1 4.70971401593657784e-03 -1.64055400934809900e-02 3.39087657738544905e-04
3 1 5.75809448198667893e-03 -7.64489749352426415e-05 1.37741393329601555e-02
4 1 1.97477276259047044e-03 -2.04028475448436546e-03 4.39925654933837409e-03
5 1 1.28808401414743350e-02 1.14122130448220307e-02 -1.19535637247114384e-03
6 1 -8.17422309656824775e-03 4.64594451418912438e-03 -7.94541934960086432e-03
7 1 5.91477610086450431e-03 5.26447082031076836e-03 1.36106962433268953e-02
8 1 3.80875868432164165e-03 2.63332586281483146e-03 1.20594872098276403e-03
8
Step 36000
1 1 4.32299688041387110e-03 2.49782443602366211e-03 -3.07538162649722419e-03
2 1 5.42528335228196872e-03 -1.25995617942813165e-02 4.27987139952869938e-03
3 1 -2.96517988790345440e-04 -4.73565620071485325e-04 4.15946166584885407e-03
4 1 1.07006611080529240e-03 3.33199542069485550e-04 7.59942140579054123e-03
5 1 5.21487889069984639e-03 1.16021006834536519e-02 -6.83843759843594939e-03
6 1 5.34655715745626487e-04 5.20946781451496824e-03 -1.12224904400660529e-02
7 1 6.80250709375859654e-03 -2.07293752735859035e-03 1.05094559359761048e-02
8 1 -1.40614652603360003e-04 5.95839745174799214e-03 -1.22551283782558365e-03
8
Step 37000
1 1 2.13678903956222247e-03 8.82170116351172623e-03 -3.20699374876990805e-04
2 1 2.80668935013789851e-03 -2.31295849268319106e-03 8.72245411683240934e-03
3 1 -3.63522919302043451e-03 -8.65936442395692004e-04 -7.80350366683594740e-03
4 1 1.13819110683764288e-03 1.97550892394219354e-03 9.49620039317918170e-03
5 1 -4.30042976183099123e-03 6.80986629803173073e-03 -1.02686002745815200e-02
6 1 9.00215620364590297e-03 4.18338438265940596e-03 -1.20279976250430402e-02
7 1 5.81354853576171275e-03 -1.17882911809113148e-02 3.00937605438180399e-03
8 1 -3.02290610930417434e-03 8.40400731956509814e-03 -3.12251965183765658e-03
8
Step 38000
1 1 -3.51293077361406955e-03 1.35629468725585265e-02 1.09079539900077500e-03
2 1 -1.71175319247530164e-03 1.02774886829419838e-02 1.14770010228818654e-02
3 1 -3.16758468765100058e-03 -1.32476847522692361e-03 -1.71689157392876102e-02
4 1 1.78401788764147133e-03 1.83775411054443063e-03 8.90232905317728251e-03
5 1 -1.21747238919348091e-02 -9.64189019387546426e-04 -8.77809975413249011e-03
6 1 1.36882974446203339e-02 2.93017337649175954e-03 -9.35412605935610417e-03
7 1 2.81680491224130638e-03 -1.84997699492041763e-02 -5.73501410178939471e-03
8 1 -3.96530836246165863e-03 7.70993024900442931e-03 -4.13832860856961065e-03
8
Step 39000
1 1 -1.02823829671407473e-02 1.34810821187744366e-02 8.83549529425223788e-04
2 1 -5.72371096013295135e-03 1.96581781407952731e-02 1.02162015099932797e-02
3 1 -6.39296158003517008e-05 -1.81144055478973660e-03 -1.87643871562269866e-02
4 1 2.15933316333604417e-03 -3.91197908123248992e-04 5.15344021319238434e-03
5 1 -1.52199396068834428e-02 -9.65878541741500667e-03 -1.48842073667363275e-03
6 1 1.23827131024254692e-02 2.43383081370023837e-03 -3.56416756502429561e-03
7 1 -1.58190862621195635e-03 -1.65111490911587708e-02 -1.23616773459677438e-02
8 1 -2.67720131686346530e-03 3.08598307162565770e-03 -4.51919648581038114e-03
8
Step 40000
1 1 -1.42929478050281000e-02 7.24193784705479734e-03 -2.62345917982261315e-04
2 1 -6.80110089698389257e-03 2.00529890225774124e-02 4.17368076215303072e-03
3 1 3.21063638965869615e-03 -2.20926794858857618e-03 -1.17684293334010311e-02
4 1 1.61214367411105443e-03 -4.33373148119555948e-03 -1.05503912306581841e-03
5 1 -1.18947246072769533e-02 -1.66585499559563505e-02 9.59589735170425159e-03
6 1 6.36904305446201954e-03 2.78929241056560719e-03 4.04122980099241424e-03
7 1 -5.97507101783667418e-03 -6.64037315169703057e-03 -1.41514572303550138e-02
8 1 4.41520028507712563e-04 -4.26547338900502230e-03 -4.93115641534379919e-03
8
Step 41000
1 1 -1.21124336311525631e-02 -3.19719242106848494e-03 -1.15243945643541041e-03
2 1 -3.64014491058605415e-03 1.16854832819583091e-02 -5.33946200444438031e-03
3 1 4.33121092703640017e-03 -2.39827740178871545e-03 -1.23438830599992928e-03
4 1 1.40936357606476529e-04 -8.89401309618834991e-03 -7.80766662243705892e-03
5 1 -3.85026414955490139e-03 -1.71239389570693457e-02 1.91572865056727978e-02
6 1 -5.16337306342554798e-04 3.23771161558378826e-03 1.15223303447627885e-02
7 1 -8.39280465569370963e-03 5.76030879891688101e-03 -1.08849681351966092e-02
8 1 4.21312676835347046e-03 -1.16888735975846005e-02 -5.82529031323135004e-03
8
Step 42000
1 1 -3.65738223631838742e-03 -1.39142509128113347e-02 -7.28900031865496018e-04
2 1 3.14892754397191931e-03 1.30579493474671551e-04 -1.52664538663909374e-02
3 1 2.20712787864315663e-03 -2.28139243869098255e-03 7.37181173402454495e-03
4 1 -1.63297192342282170e-03 -1.17465267926271308e-02 -1.23447391848528296e-02
5 1 5.88633799606235950e-03 -8.46733447884727777e-03 1.95220235264781002e-02
6 1 -4.99313370426070213e-03 2.69991125352297663e-03 1.60828431358489947e-02
7 1 -7.18264775467721862e-03 1.53579726451759310e-02 -5.12607696453105336e-03
8 1 6.90740279145409496e-03 -1.55115957751377469e-02 -6.62075518133614562e-03
8
Step 43000
1 1 8.21680485741975268e-03 -1.93101175809958295e-02 1.32257300148402933e-03
2 1 1.11174755091271362e-02 -9.92183934920709380e-03 -2.05251029915695694e-02
3 1 -2.54919748526364221e-03 -1.74812631106786333e-03 1.06205806900929456e-02
4 1 -2.96227490352084970e-03 -9.69492599717538921e-03 -1.22542742322598337e-02
5 1 1.46608403569571562e-02 5.88912610167231960e-03 9.12398006527409371e-03
6 1 -5.77811272840148341e-03 4.61406448940995524e-04 1.53345231985404888e-02
7 1 -2.08899785781370547e-03 1.74991135919383978e-02 4.20442228525167469e-04
8 1 7.00448408357016994e-03 -1.28147697495539607e-02 -5.49758184076973733e-03
8
Step 44000
1 1 1.93608875909669631e-02 -1.54900316954226618e-02 4.30405263471045699e-03
2 1 1.59966717741653400e-02 -1.49454764949041984e-02 -1.71537183566803537e-02
3 1 -7.71651424782350461e-03 -6.56155813205163536e-04 8.09481884320498515e-03
4 1 -3.46787808999857042e-03 -1.17331643239393488e-03 -7.53664486710238501e-03
5 1 1.84554656676036918e-02 1.96825307118873583e-02 -5.79512798511453917e-03
6 1 -3.49436492219673458e-03 -3.24042590407923195e-03 9.66229662919100042e-03
7 1 5.36687135852847389e-03 1.18008996945699433e-02 4.61060724724481584e-03
8 1 4.11820586262232318e-03 -4.33357605265100379e-03 -4.19564674936821855e-04
8
Step 45000
1 1 2.32280854300884222e-02 -5.42040194618022622e-03 6.75337682404753090e-03
2 1 1.36730326833723621e-02 -1.31876154332123442e-02 -7.28294207157931597e-03
3 1 -1.02590876077556289e-02 1.12640870341220432e-03 2.80115205869264092e-03
4 1 -3.16509415056865110e-03 1.22475404536665083e-02 -4.96793851171290174e-04
5 1 1.30863050668583690e-02 2.42178713639069759e-02 -1.80269695097017603e-02
6 1 -1.55311136137226970e-04 -7.00711510005884268e-03 1.60407757142653085e-03
7 1 1.20161219226086052e-02 2.89975408942030975e-03 7.40444005828452562e-03
8 1 -7.82682855732736013e-04 6.37322185704667591e-03 9.04689947500965028e-03
8
Step 46000
1 1 1.56528424857598734e-02 5.07465755159840388e-03 7.07062659812681196e-03
2 1 4.41772258182293424e-03 -6.54596437910341319e-03 4.22439036390187712e-03
3 1 -8.22847571681491891e-03 3.55043593447690754e-03 -1.18671162878519797e-03
4 1 -2.17505889759088238e-03 2.47961149608714876e-02 6.05286143027374251e-03
5 1 -1.19279181058446753e-05 1.59705712162920531e-02 -2.04997759118789556e-02
6 1 1.81172070419452361e-03 -8.84993214288193851e-03 -6.32873462627223018e-03
7 1 1.39117892281333221e-02 -4.46248805472481379e-03 8.97525227150857731e-03
8 1 -5.91157047187547587e-03 1.50292873274330118e-02 1.96212969559582916e-02
8
Step 47000
1 1 1.64549153354887480e-03 1.15113355700020084e-02 4.31808584232240555e-03
2 1 -7.88324992328022674e-03 1.21336185590204958e-03 1.35099314718307717e-02
3 1 -2.23762320761407372e-03 6.09702829194473401e-03 -1.52294092956917551e-03