8
Step 0
1 1  3.023859026055e+02   2.378816802784e+02  -9.555576813497e+01 
2 1  2.697713000661e+02  -2.546322453998e+02  -6.199506671967e+02 
3 1 -6.255592878208e+02  -1.652719680071e+02  -4.327187349958e+02 
4 1  1.094359229731e+02  -2.812415677186e+02   5.182986855887e+02 
5 1  6.418775273896e+01  -4.157455463467e+02  -2.316845659138e+02 
6 1  2.785438408206e+02   2.531813734805e+02   6.452012672630e+01 
7 1  1.707535445606e+02  -1.773918968688e+02  -4.312858342593e+00 
8 1 -5.187397608193e+02   9.509279551745e+01  -3.168950203061e+02 
8
Step 1000
1 1  1.445422914911e+02  -3.259289995280e+01   7.230228583933e+01 
2 1 -3.734867559252e+01   6.193067755613e+01  -1.622995563098e+02 
3 1 -1.031465625785e+02  -2.686065278450e+01   6.458224582290e+01 
4 1  2.560834968904e+02  -5.687063346482e+02   9.970116610471e+01 
5 1 -8.203576344356e+00   1.673704483759e+02  -1.793704920792e+02 
6 1  1.335737261732e+02   7.399855874691e+01  -1.389347343426e+02 
7 1 -1.518752896463e+02   2.179795711459e+02  -1.614800756050e+02 
8 1 -1.746574513477e+00  -4.791068460556e+01   5.343246351290e+01 
8
Step 2000
1 1 -1.363184054451e+02   2.487065357687e+02  -9.725560294689e+01 
2 1 -5.542881231065e+01   5.651943889793e+01  -1.532875123241e+02 
3 1 -6.059028256002e+01  -7.028341027642e+01   1.069812102704e+02 
4 1  1.265552867700e+02  -2.623070735679e+02  -2.115674861841e+02 
5 1 -3.200583106132e+02   1.202620910649e+02  -5.312789750657e+01 
6 1  1.559509211654e+01   2.346187494689e+02  -1.251060896541e+02 
7 1 -2.573769318864e+02   6.006962714296e+01   2.762130346373e+01 
8 1  6.241355351367e+01  -2.928844123737e+01   3.215885222658e+02 
8
Step 3000
1 1 -3.288521277996e+02  -1.582041864280e+02  -4.442038747092e+01 
2 1  2.746696537538e+02  -2.403420360667e+02  -1.520518036118e+02 
3 1 -5.362069216072e+02  -1.099048305560e+02   1.837139590228e+02 
4 1 -4.287127733090e+01  -1.847438624372e+02   5.551461194255e+02 
5 1 -3.506777972571e+02   3.266845934003e+02  -3.732458024023e+02 
6 1 -1.383390027373e+02  -4.492053418946e+00   1.974643362294e+02 
7 1 -1.774976553638e+02   2.647074973136e+02  -6.198025079365e+02 
8 1 -2.758926100366e+02  -6.138270060757e+01   4.394705843371e+01 
8
Step 4000
1 1  2.320422761897e+02  -1.695328989989e+02   7.992703476944e+01 
2 1 -2.254363447815e+02  -1.783445423171e+02   8.912562439388e+01 
3 1  8.559080012946e+01   2.833328742810e+02   1.882402670098e+02 
4 1  1.793813500992e+02  -3.481395116190e+01   3.454716977353e+02 
5 1  5.471478209805e+01   4.563151234455e+02  -2.897441860905e+02 
6 1 -7.384024663121e+02   2.140818615150e+02  -1.584148818225e+02 
7 1  2.602634974198e+02   1.267770484383e+02   3.314128184450e+01 
8 1  2.726667925961e+02  -4.614747344832e+02  -2.759919463559e+02 
8
Step 5000
1 1 -3.304379740667e+02  -1.980159004945e+02   4.076949442200e+02 
2 1 -1.717414984114e+02  -2.524341002991e+02   2.285779966939e+02 
3 1  1.557528753795e+01  -1.320984026107e+01  -5.336466175079e+01 
4 1 -1.717768329811e+02   3.254072954101e+02   4.494384688332e+01 
5 1 -2.186510765387e+02  -3.092682490542e+02  -2.136913543743e+02 
6 1  8.579078863490e+01   4.460983328022e+02  -1.491004389651e+02 
7 1  2.288528031170e+02   1.678171413915e+02  -2.672984257254e+02 
8 1  3.354722516532e+02  -1.263107137410e+02  -2.245566268908e+01 
8
Step 6000
1 1  2.468376786926e+01  -5.220868152127e+02  -4.730741192087e+01 
2 1  2.307626827825e+02  -4.493280057881e+01   9.690122317268e+00 
3 1 -4.266867007520e+02  -1.317378586874e+02  -1.004603535388e+02 
4 1  3.105373597146e+02   3.315427467211e+02   7.305200158861e+01 
5 1  3.874363182879e+02   1.632925178785e+01  -2.737351787583e+02 
6 1  3.544975030062e+01  -5.183870655958e+01   2.102299767736e+02 
7 1 -1.991487550466e+01   3.189956079875e+02   3.174396801248e+02 
8 1  1.537282025724e+02   5.110909665154e+01   2.623826486043e+02 
8
Step 7000
1 1  6.244518859218e+02   1.747258157230e+01  -7.688646315843e+01 
2 1  3.357680737847e+02  -1.271058959651e+02  -7.272575726435e+01 
3 1 -1.796550878149e+01  -2.023080344490e+02   3.111221275169e+02 
4 1  1.352068506560e+02   1.272622731160e+02  -3.549301137858e+02 
5 1 -3.117340947395e+01   2.097952266942e+02  -7.118854976726e+01 
6 1 -2.308975324410e+02  -3.099717864420e+02  -9.595198874912e+01 
7 1 -9.040352773201e+01   1.286295550823e+02   1.922693052340e+02 
8 1  2.386240366917e+02  -2.567883852256e+02  -5.648867967634e+02 
8
Step 8000
1 1 -1.880117249845e+02   2.109593043922e+01   2.927771116466e+02 
2 1  3.743388521110e+02  -8.783185237585e+01  -3.634163913136e+02 
3 1 -2.484726555513e+02  -4.248436666441e+02  -2.434112984619e+02 
4 1 -3.357720167568e+02   3.560673981518e+02   4.156384087229e+02 
5 1  2.214936398272e+02  -2.684096296006e+02   9.163202984592e+01 
6 1  3.659340278569e+02  -2.644378612185e+02  -2.327043782055e+02 
7 1  4.119254388639e+02   4.778928168082e+02   4.822263742511e+02 
8 1 -1.978656423188e+02   7.068248238752e+01  -3.842526917084e+01 
8
Step 9000
1 1 -1.128398614180e+02   2.944133246113e+02  -1.072276287721e+02 
2 1  2.124412204601e+02  -2.329951423661e+01  -1.452507532104e+02 
3 1 -2.532362206307e+02  -3.117313042751e+02  -3.175973254191e+02 
4 1  1.003666287801e+02  -2.313249411658e+01   1.901812100255e+02 
5 1 -5.921052509225e+01  -3.944253757282e+01   2.689070332081e+01 
6 1  7.563214401996e+01  -1.002928505037e+02   4.239969118787e+02 
7 1  2.790094795695e+02   3.324112162989e+02   2.307890082351e+02 
8 1 -1.732525919014e+02   2.982110978702e+02   4.229328851849e+02 
8
Step 10000
1 1 -8.743700123136e+01  -5.160996674231e+01   3.408058029794e+01 
2 1  1.574991789364e+02  -2.234686751784e+02   9.140433316563e+00 
3 1 -1.805345838812e+02  -2.294075530075e+02   1.120881395724e+02 
4 1 -2.567469996516e+02  -5.559000417750e+02   1.384516896114e+02 
5 1  3.579937313116e+02   1.071237953738e+02   4.087019372236e+01 
6 1  2.219457688739e+01  -2.384476325054e+01   4.261796481079e+02 
7 1  6.333571223353e+01  -1.173071656410e+02  -1.326919716667e+00 
8 1 -1.311183069700e+02   2.861062010792e+02  -1.486806694133e+01 
8
Step 11000
1 1 -2.295562682033e+02   1.850587310304e+02  -6.327108475007e+02 
2 1  2.153726770277e+02  -2.771242753897e+02  -2.207116497034e+01 
3 1  1.472376416835e+02  -2.277753807507e+02   3.271785484643e+02 
4 1 -1.312922656622e+02  -2.609906276604e+02  -9.684066989722e+01 
5 1  1.037153472595e+02  -1.080421788442e+02   1.830012386863e+02 
6 1 -1.279279930310e+02   2.225485749479e+02   2.262565906829e+02 
7 1  8.548972200698e+01  -3.972055543154e+01   2.273524132678e+02 
8 1 -5.321329189195e+02   6.451119335106e+02  -6.355818631009e+01 
8
Step 12000
1 1 -3.831279362027e+02   2.365879228613e+02  -5.343625890364e+00 
2 1 -2.953755733046e+02  -3.108111628110e+01   2.465099550675e+01 
3 1 -2.779407372507e+02   1.231305465232e+01   3.140718246835e+02 
4 1  2.005980623184e+01   1.779101459210e+02   1.207774022005e+02 
5 1 -4.358687106720e+02   1.820550720189e+01  -1.549972166894e+02 
6 1 -1.897745274787e+01   1.231567303406e+02   4.375717069777e+02 
7 1 -1.067665687554e+02   4.236273446867e+01  -2.060326573674e+02 
8 1 -1.422897186891e+02   6.947679337918e+01   3.435486275884e+02 
8
Step 13000
1 1 -4.356789618516e+02  -2.496323477272e+02  -9.907904354131e+01 
2 1 -3.570607539521e+01   2.479581171448e+02   2.231781448794e+02 
3 1 -3.375052758912e+01   4.822885916076e+01   1.662207206303e+02 
4 1  1.372452825911e+02  -5.047604200526e+02  -4.927107964637e+02 
5 1 -2.557652582045e+01   2.307541887270e+02   3.360153537258e+02 
6 1  4.311194655238e+02   4.086067249562e+01   3.702747607382e+02 
7 1  1.194008968059e+01   3.226604789499e+02  -3.425045050693e+02 
8 1  1.370805024854e+02   3.979438858316e+02   2.236275078461e+02 
8
Step 14000
1 1 -5.235967366172e+02   2.932700490082e+02  -1.224816094660e+02 
2 1  2.457411654592e+02  -6.479658643921e+01   5.195699845518e+02 
3 1 -1.774985995265e+02   5.542567313482e+01   3.280672098784e+02 
4 1 -1.123112069982e+02   9.534009425189e+01  -3.797751146499e+01 
5 1  1.658170711668e+02   1.278572314918e+02   3.696168441776e+02 
6 1  3.430323827004e+02  -3.725832862104e+01  -3.219372584349e+02 
7 1  2.241194275207e+00  -1.139057730561e+02   4.054246538863e+01 
8 1  1.285800440806e+02   1.867560461130e+02   2.232055437646e+02 
8
Step 15000
1 1 -1.875332571764e+02  -8.018215245028e+02  -3.061898946211e+02 
2 1  3.621198188974e+02   2.194293473658e+02   8.491194590127e+01 
3 1 -3.649380845090e+02  -2.588418156857e+02  -1.708328563324e+02 
4 1  3.670855075011e+02   2.412227328769e+02  -5.884466782114e+01 
5 1  4.563838715929e+02   4.401779421261e+02  -3.534030726472e+02 
6 1  2.021384720850e+02   3.665524386287e+02   1.644565147448e+02 
7 1  2.741855665025e+02   1.482028234781e+02  -5.912286926384e+01 
8 1  8.653142001434e+01   7.038028901088e+02   4.283170167789e+02 
8
Step 16000
1 1 -1.518106578558e+02  -4.342498383955e+02  -3.818736740200e+01 
2 1 -2.601200670945e+02   4.385685005089e+02   2.858503263023e+02 
3 1 -2.754725484191e+02   9.986480688055e+01  -9.510494862124e+01 
4 1 -2.853833151013e+02  -1.658718061114e+02  -8.550379242932e+01 
5 1  9.228214977963e+01   2.146201827418e+02  -5.583786578112e+01 
6 1 -1.826207298363e+02   1.633139944180e+02  -9.564823174979e+01 
7 1  5.057456295184e+02   3.841441316538e+02   1.978704465295e+02 
8 1  5.124832817071e+02   2.404287957896e+02   4.296731199438e+02 
8
Step 17000
1 1 -9.749885296675e+01   1.510655611310e+02  -4.532121885765e+02 
2 1  9.453923261652e+01  -5.044006337171e+01   1.437815838136e+02 
3 1 -2.809863553596e+02  -4.896562660149e+01  -3.602162214655e+01 
4 1  1.899532995457e+02  -2.256615454884e+02  -2.123555602592e+02 
5 1  1.178806934639e+02   1.768747206178e+02   2.841553012815e+01 
6 1  5.586889070382e+01   3.497430297835e+02  -3.322448787647e+02 
7 1 -4.918617496876e+01   5.783433449234e+02   7.407130896663e+01 
8 1  4.283495349647e+02   1.760263060434e+02   2.754049611660e+01 
8
Step 18000
1 1  3.371785389180e+02  -4.897380919471e+02  -2.110452754358e+02 
2 1 -4.759092803853e+02   2.358904295244e+02   6.599803393833e+02 
3 1 -1.551522169473e+01  -3.034233307773e+01  -2.937815445752e+02 
4 1  2.113365328038e+02  -1.149194269334e+02   1.331922688067e+02 
5 1  2.580278367729e+02  -2.641088149496e+02   3.638923168013e+02 
6 1  1.799714799371e+02   2.029790645478e+02  -4.577576044741e+02 
7 1  9.924851500138e+01   2.181418725738e+02   2.586348883681e+02 
8 1  2.301505162379e+02   1.435045146611e+02   2.623293766106e+02 
8
Step 19000
1 1  1.169712030844e+02  -2.479494416362e+01  -3.148386582370e+02 
2 1 -2.730818340136e+02  -4.941744609174e+02   2.153003979381e+02 
3 1  9.636016493234e+01  -3.166944813517e+02  -1.221897041740e+02 
4 1 -2.071559231582e+02  -8.444380677181e+01  -5.881605300837e+01 
5 1  2.095492251535e+02   7.024251854039e+02  -5.328238202031e+00 
6 1 -3.323459395849e+02   3.892491126058e+02  -1.208335826030e+02 
7 1 -2.910025758710e+02   6.323392626222e+02   2.009287835338e+02 
8 1  3.098953837426e+02   3.852304128010e+02  -1.117549775052e+02 
8
Step 20000
1 1 -4.802087397850e+01   5.457868278286e+02   2.370782511213e+01 
2 1 -1.463111710074e+02  -3.088460184459e+02  -7.589313414523e+01 
3 1  3.349010045995e+01   7.623633104623e+02  -2.262472521841e+02 
4 1 -2.974359359516e+02  -1.251895288853e+02   1.434745297223e+02 
5 1  3.584764735154e+02   6.402833809592e+02  -1.124806340689e+02 
6 1  2.631562565172e+02   2.039350998408e+02  -1.232352565002e+02 
7 1 -4.723154268589e+02  -3.301386443420e+02  -7.228215138667e+01 
8 1  3.742239723492e+02   6.108873585373e+02  -2.315907367408e+02 
8
Step 21000
1 1  2.244169350163e+01   2.468195161956e+02   2.381653379460e+02 
2 1 -2.908275700283e+02   1.016680437589e+02   1.202960596445e+02 
3 1 -2.178243241839e+02   2.854350580582e+02   1.260053587026e+01 
4 1 -2.401074756834e+02  -1.926026167888e+02   2.322012182314e+02 
5 1  8.065766962107e+01   2.585706547532e+02  -1.437031775249e+02 
6 1  8.290766762888e+01   2.825157504981e+02   2.222871283474e+02 
7 1 -1.691040301473e+02  -6.225344207876e+02  -1.774510769492e+02 
8 1  1.327554110608e+02   3.310062086267e+02  -2.201885640363e+02 
8
Step 22000
1 1 -1.228780904938e+02   4.449430988663e+02   1.858250828611e+02 
2 1 -1.120457312504e+01   5.803076201246e+01   2.323782623058e+01 
3 1 -3.097601544016e+02   1.385872556316e+02  -9.060658056544e+01 
4 1 -2.703846212493e+02   7.594590344849e+02  -4.542977819289e+02 
5 1  2.545253803581e+02   1.947749659010e+02  -3.044664115038e+02 
6 1  1.924683804847e+01   9.457747472081e+01  -1.416563153065e+02 
7 1  2.929961410449e+02   2.956845303155e+01  -7.577678126446e+01 
8 1  1.481717731192e+02   1.899316750827e+02   1.071777817089e+02 
8
Step 23000
1 1 -7.581719861195e+00   1.711973016919e+02  -7.870816993282e+01 
2 1  7.003765924072e+01  -7.891559441629e+01  -6.036480158906e+02 
3 1 -3.066670686089e+02   8.786811662889e+01  -2.190442537540e+02 
4 1 -3.996039031487e+01   4.714498542254e+00  -2.458456680167e+02 
5 1 -1.891178049022e+02   7.214050818524e+01  -7.064211559072e+00 
6 1 -1.944553054406e+02  -1.239293303679e+02  -2.375493000103e+02 
7 1 -1.746450663553e+02   5.013644155061e+02   2.884794048219e+02 
8 1  1.992836965688e+02   1.553913702502e+02   2.449267840427e+00 
8
Step 24000
1 1 -5.264596659720e+01  -4.460536659886e+01   2.808032636541e+02 
2 1 -3.623613813030e+02   2.529966989091e+02  -4.853490586420e+01 
3 1 -6.189716904642e+02   1.527190980311e+02  -3.889354220993e+02 
4 1  1.426992374962e+02  -3.557299014384e+02  -2.698622905854e+02 
5 1  4.681357341832e+01   1.979870749100e+02  -3.173054261502e+02 
6 1  3.930843448811e+02  -9.901252851846e+01   1.922378561330e+02 
7 1 -1.773512114072e+02   4.271455339018e+02   2.123741889857e+02 
8 1 -1.676983107680e+02   8.495728870415e+01   5.307460867835e+00 
8
Step 25000
1 1 -4.760952166258e+02  -2.084058063036e+01   2.131372085540e+02 
2 1  3.624522630795e+01   1.882651025091e+02  -1.647477654396e+02 
3 1  3.551127794473e+02  -8.814501999089e+01  -2.086306399221e+01 
4 1 -3.392237845511e+02   1.325056238512e+02  -1.307961845873e+02 
5 1 -9.264507434813e+01  -2.936935630415e+02  -2.817950468161e+02 
6 1  3.040339708064e+02   5.301155961496e+01   4.511857685481e+02 
7 1 -3.813656581591e+02   5.309893050679e+01   5.417961753290e+02 
8 1  2.873994723323e+02   5.049403929540e+01   4.496965046556e+02 
8
Step 26000
1 1 -3.377889574564e+02  -3.753757139144e+02   4.279170248882e+02 
2 1  2.464923956382e+02  -3.032497548539e+02  -5.988665599812e+02 
3 1  2.447059830188e+02  -1.635691907408e+02  -5.207321537718e+01 
4 1 -2.612128278697e+02  -3.213802794684e+01  -8.074523310190e+02 
5 1  9.040033941491e+01  -1.694531587250e+02   2.270109146435e+02 
6 1  4.557808867380e+02  -1.392858990731e+01   5.765763194018e+02 
7 1  2.199133079938e+02   1.945517621610e+02  -9.095352217889e+01 
8 1  7.771832976474e+01   2.619510314361e+02   2.578783606863e+02 
8
Step 27000
1 1  3.278255473498e+02  -1.937395177138e+02  -1.859426539439e+02 
2 1  1.836838945326e+02  -4.068370825616e+02  -4.247397705959e+01 
3 1  2.666591593885e+02  -3.213167797897e+02  -2.634021866384e+01 
4 1 -1.219587212450e+02  -2.061643105206e+02  -3.204124180524e+02 
5 1 -3.262364236451e+02   1.054366484682e+02   3.130376771561e+02 
6 1  2.928938407320e+02   1.244893480707e+01   1.967111643322e+02 
7 1 -1.898206947363e+02   1.584883038305e+02   1.803523299010e+02 
8 1 -3.799456872883e+02   2.384937896902e+02  -2.812294468999e+01 
8
Step 28000
1 1  5.065600837177e+01  -1.959762675543e+02  -2.323654243461e+02 
2 1 -9.610686674637e+01  -1.680243374916e+02   4.002468070853e+01 
3 1  2.425048036485e+02  -3.574163594479e+02  -1.296567299652e+02 
4 1  1.077735218740e+02   4.120830649355e+01   8.782697523388e+01 
5 1 -2.204940712349e+02  -4.251421546988e+02   3.350698203730e+02 
6 1  3.620711621556e+02  -9.616154712013e+02   1.609730320558e+02 
7 1 -3.182279767819e+02   1.913932851875e+02   7.784381667850e+01 
8 1 -1.811641113617e+02   3.863899394304e+02  -4.627011350006e+02 
8
Step 29000
1 1  1.234525472527e+02  -3.378302403463e+02  -5.689708118374e+01 
2 1  4.453013523439e+02  -7.105188754176e+02  -4.196504709552e+01 
3 1  3.425444195681e+02   3.325277794644e+01   1.198775104140e+02 
4 1  1.004041821288e+01  -4.662147415102e+01   1.484974882990e+02 
5 1  1.618724534778e+02  -4.650943154716e+02  -1.648806876975e+02 
6 1  8.441213789474e+01  -4.526795643427e+02   4.560238053019e+02 
7 1 -2.948423492492e+02   1.177775856170e+02  -4.080034739949e+01 
8 1  1.410960929204e+02   2.479799287066e+02  -4.542635312970e+02 
8
Step 30000
1 1  6.848810105179e+01  -1.324196270692e+02  -8.261693030466e+02 
2 1  2.958210265390e+02  -2.582217811692e+02  -1.351441497701e+02 
3 1  2.327849595908e+00   1.511067764551e+02  -2.699113618146e+02 
4 1 -4.039967356567e+01  -9.584586039542e+01   2.345069532239e+01 
5 1  3.529579009623e+02   3.389128978254e+01  -5.803038505756e+01 
6 1  1.731760724319e+02   2.207573899165e+02  -7.164061537135e+01 
7 1 -1.430738693484e+02   4.738108852375e+02  -2.821418086062e+02 
8 1 -3.289910195308e+02  -2.424643223189e+02  -1.744480437530e+02 
8
Step 31000
1 1  4.892854334368e+02  -2.153030693164e+02  -3.924911622267e+02 
2 1  1.548170264640e+02  -2.241856762342e+02   2.403024501427e+02 
3 1  1.691085175685e+02  -2.754185957156e+02  -2.965817896001e+02 
4 1  2.612473358879e+01   3.553015379983e+01   4.031780814902e+01 
5 1 -2.784749080167e+02  -6.177181583725e+01  -5.542941713384e+01 
6 1  3.015170586599e+02   3.955766294201e+02   2.619658357572e+02 
7 1 -3.650272220891e+02   1.108798301328e+02  -1.170673427849e+00 
8 1 -1.214577260658e+02  -1.236165205664e+02  -3.514679701084e+02 
8
Step 32000
1 1 -2.025954085259e+02   1.272380072303e+02  -7.240638978707e+02 
2 1  2.824561598235e+02  -5.659186383311e+02  -6.022539235502e+01 
3 1 -1.510855011733e+02  -1.485706516446e+02  -3.732871391566e+02 
4 1  9.039456403905e+01   1.136268093681e+02   2.314315582329e+02 
5 1  3.976509506778e+02  -1.388763541916e+02  -3.121982840885e+02 
6 1 -3.268160063773e+02   8.994418659568e+01   1.624674304668e+02 
7 1 -3.614630349511e+02   1.788001979276e+02  -5.709061016720e+01 
8 1  2.320710106988e+02  -6.408359303342e+01  -4.245477348571e+02 
8
Step 33000
1 1  1.090192887478e+02  -2.510287020131e+02  -2.851860410985e+02 
2 1  7.674343499279e+01   5.968657970987e+01   2.345191506609e+02 
3 1  5.910796659742e+01  -4.815667555406e+02  -2.434009316582e+02 
4 1 -2.585258330379e+02   1.080020054030e+02  -3.391174303713e+02 
5 1  2.279356494809e+02  -1.685814226102e+02  -4.951258229892e+02 
6 1 -3.266610698932e+02   1.735241308973e+02  -1.968756631861e+02 
7 1 -1.930556530660e+02  -1.684209282205e+02  -2.298256849976e+02 
8 1 -1.010513940633e+02  -6.220004987975e+01   1.978673764787e+02 
8
Step 34000
1 1 -2.214512182066e+02  -2.771784671842e+02  -3.659693225473e+02 
2 1 -3.388265548612e+02  -4.055305179163e+02  -8.240458640843e+01 
3 1 -1.210522776463e+02  -2.305030757326e+02  -3.165593512837e+02 
4 1 -3.513430099825e+02   2.846755415653e+02   1.316650640005e+02 
5 1 -1.246845397095e+02   1.612094815835e+02  -1.359151340318e+02 
6 1  2.639081055504e+02   5.308716052641e+02  -1.816678342249e+02 
7 1 -2.643921635036e+02  -1.114981346034e+02  -8.382376626363e+02 
8 1  3.200660110732e+02   4.328276611872e+02  -2.033390466344e+02 
8
Step 35000
1 1 -4.149991950856e+02  -1.313012684871e+02  -2.856279755307e+02 
2 1  1.257449146485e+02   4.254606065790e+02   1.230078846786e+02 
3 1 -3.186993046838e+02  -1.811488553391e+02  -5.852090458382e+02 
4 1 -7.583975712928e+01  -3.630399382489e+00   3.429525061770e+02 
5 1  6.552732658182e+01   1.850279363551e+02  -3.358782977205e+02 
6 1 -1.082526336326e+02   2.855835576692e+02  -9.073264399332e+01 
7 1 -1.624809990977e+02  -1.517057207766e+02  -1.605489126221e+01 
8 1  9.233613220276e+01  -2.670672627356e+02   1.477577431131e+02 
8
Step 36000
1 1 -2.796673800743e+02   1.909216270589e+01   3.056695176156e+02 
2 1 -5.259589116502e+02   4.063416687379e+01  -2.001758191687e+02 
3 1 -5.931619715648e+02  -2.077113941795e+02   4.204106349559e+02 
4 1  2.462170571829e+01   2.876550865800e+02  -3.616018977837e+01 
5 1  4.541344694607e+01   7.499365248766e+01  -1.001202333045e+02 
6 1 -2.687110240659e+02  -5.183145342484e+02  -2.767021149301e+02 
7 1  9.695881279341e+01   1.205377306608e+01  -1.499264353876e+02 
8 1 -3.035758649105e+02  -2.760578550521e+02  -2.378291115802e+02 
8
Step 37000
1 1 -4.563389447308e+02   3.051086303931e+02  -4.573599061618e+02 
2 1 -3.200572079435e+02  -2.598302909527e+02  -3.576623092505e+02 
3 1 -7.572934974595e+01  -1.508866869554e+02   1.984955789795e+02 
4 1  3.579473183590e+02   5.316413554636e+02   1.113065982542e+02 
5 1  2.394627526337e+02   1.733951466171e+02  -1.311095827131e+02 
6 1  3.242589474673e+01  -6.419250007372e+01   9.438479186130e+01 
7 1 -7.331050459123e+01   3.290772511539e+02  -3.040796760459e+02 
8 1 -1.181439290263e+02  -2.458907055243e+02  -5.665584992569e+01 
8
Step 38000
1 1 -2.925700041638e+02  -1.687130466239e+02  -4.823563075394e+02 
2 1  1.451602401093e+02  -1.090202146053e+00   6.390162380760e+01 
3 1 -5.936547181010e+02   1.829660903191e+02  -1.060781667343e+02 
4 1  3.629884388241e+02   2.765956808695e+02   3.672192449081e+02 
5 1 -6.530495761787e+01  -2.520342541551e+02  -3.086971213040e+02 
6 1  3.952830327257e+01  -1.182087204082e+02  -1.422622854126e+02 
7 1 -9.361742905876e+01   5.580595709112e+01   7.170430816257e+01 
8 1 -1.241934055758e+02   9.275968561211e+01  -2.196763834923e+01 
8
Step 39000
1 1 -1.787631298323e+02  -9.221593827621e+01  -2.934438918363e+02 
2 1 -3.285118807845e+02  -8.806676771246e+01  -1.331102570233e+02 
3 1  1.015838730862e+02  -3.921098853884e+02   3.363153279531e+01 
4 1  2.374924509434e+02   1.340563452570e+02   5.392605561063e+02 
5 1 -3.023709971391e+02  -1.184200394478e+02  -4.817447963570e+02 
6 1  3.599023019827e+02   1.318558280594e+02  -2.358099796850e+02 
7 1  2.545710131611e+02   5.374047920727e+02   3.699443917761e+02 
8 1 -1.429169303894e+02  -2.346749171232e+02   1.269759882058e+02 
8
Step 40000
1 1  2.277376065299e+02   1.603259272398e+02  -3.497966686397e+02 
2 1 -6.262078950401e+02  -2.380232254029e+02  -2.622455470130e+02 
3 1 -3.311827110520e+01   4.653332839579e+01  -6.240684630062e+01 
4 1  4.709483715836e+02   1.984572377595e+02   1.198791163268e+01 
5 1 -2.236306868809e+02  -1.404088678173e+02  -1.127315471215e+02 
6 1  1.960147176522e+02  -1.803170758691e+02   4.759093101028e+01 
7 1  2.046864059577e+02   1.672059256219e+02   3.729595600441e+02 
8 1 -3.358543460649e+02  -3.640029205967e+02   4.754059789971e+01 
8
Step 41000
1 1  1.067087099403e+02   8.205255427507e+01  -1.593421115906e+02 
2 1 -3.070007320132e+02  -6.035881220023e+02   1.351779181677e+02 
3 1  1.520400922571e+02   1.008573028258e+02  -1.141023175253e+02 
4 1  5.435020531142e+02  -3.256169989357e+02  -2.205097527632e+02 
5 1 -3.123953098585e+02  -5.353665490874e+02  -2.044943677323e+02 
6 1  1.099089935356e+02   5.204009825453e+01  -2.822837840910e+01 
7 1 -2.499078131090e+02   1.982797151878e+02   3.822906394988e+02 
8 1 -2.855930096613e+00  -1.112148787209e+02  -2.774181444529e+02 
8
Step 42000
1 1  5.496267008958e+02  -2.118058409109e+02  -2.578164898804e+02 
2 1 -7.669521015047e+00  -3.837985352982e+02   3.272474944914e+02 
3 1  1.927099223881e+02   2.837945112253e+02   7.040603759285e+01 
4 1 -1.104758393485e+02   8.986654738036e+01  -6.721249883711e+01 
5 1 -5.645288242837e+01  -1.958729337188e+02   1.537758720500e+02 
6 1 -2.054220240549e+02   6.634537250568e+01   9.091428571853e+01 
7 1 -1.603431385142e+02  -3.203552194038e+02   2.646780443421e+02 
8 1 -7.385238623039e+01  -1.924270606949e+02  -2.047265299128e+02 
8
Step 43000
1 1  8.883081685818e+01   7.845458127249e+01   2.532090548363e+02 
2 1 -3.066891575919e+02  -2.876626093455e+01  -1.724987280267e+01 
3 1  1.059470559747e+02   1.271186501952e+02  -3.294447766844e+02 
4 1 -2.013612526231e+01  -3.003987987773e+02  -6.177791111943e+02 
5 1 -1.584604482677e+02   1.788553691108e+02   1.512126790451e+02 
6 1 -3.870331217495e+02  -2.202522204739e+01   8.238684834731e+01 
7 1 -4.387216383191e+02  -1.330695325303e+02   3.722224738192e+02 
8 1 -3.998630927707e+00  -3.935525549874e+02  -7.803043780611e+01 
8
Step 44000
1 1  5.266708033470e+02  -5.703077111485e+02   3.363435526033e+01 
2 1 -2.613012931150e+02  -1.464150029643e+02   2.903120429926e+01 
3 1  8.466359767718e+01  -1.526582928309e+02  -2.512394763601e+02 
4 1 -1.318255364758e+02   2.177945650117e+02  -5.514533193319e+01 
5 1 -1.490811000249e+02   5.127906844230e+01  -2.610912060503e+02 
6 1  2.990414328072e+02   1.214430718891e+02   6.083414003187e+02 
7 1 -1.892754669290e+02   1.039498088840e+02   2.527395859704e+02 
8 1  1.720214943705e+02  -6.591233640711e+02   6.247366120787e+01 
8
Step 45000
1 1  8.065722452273e+01   7.818340668123e+01   2.902786132259e+02 
2 1 -3.416545573006e+02   3.364399617878e+02  -3.072720685322e+02 
3 1 -1.779977437665e+02  -1.406053859820e+02  -1.326437963905e+02 
4 1 -2.145072140868e+02   5.830285065887e+01  -3.126388954274e+02 
5 1 -2.616701016621e+01  -4.855099755169e+02  -3.360316268551e+02 
6 1  2.063324625120e+00   4.874346310659e+02  -1.419088826518e+02 
7 1 -1.429896782193e+02  -4.118709947003e+02  -3.574090760521e+02 
8 1 -5.505618236594e+02  -3.435822255462e+01   4.268635723442e+02 
8
Step 46000
1 1  4.523504038679e+02  -3.373395199633e+01  -3.325268148435e+02 
2 1 -1.349037588135e+02   2.617127853871e+00   2.767075081190e+02 
3 1 -7.427416417029e+00  -4.978595190582e+02   5.584038486967e+01 
4 1 -1.742541648736e+02  -2.374306444933e+02   9.864149650183e+01 
5 1 -1.770260863612e+02   4.130225965019e+01  -3.665063064059e+01 
6 1 -5.077622592346e+02   7.734522410252e+01  -8.913285952407e+01 
7 1  5.726646063102e+01  -2.597367316207e+02   2.827707481293e+02 
8 1  8.683737977483e+01  -2.929705094594e+02   1.881327030340e+02 
8
Step 47000
1 1 -1.592411315078e+02   4.839307814236e+01  -2.942529289784e+01 
2 1 -3.269253322858e+02   9.826071162956e+01  -1.531062396059e+02 
3 1 -1.520869056823e+02  -4.242550180536e+02  -3.133431452871e+02 
4 1  2.308719280999e+02  -3.296783655247e+02   2.129997764238e+02 
5 1 -1.468699148593e+02   6.618304959428e+01  -2.631352243016e+02 
6 1  9.762255792902e+01  -3.384954864743e+02  -9.587839627795e+01 
7 1 -2.610056583209e+02   8.831662222617e+01   6.096343712483e+02 
8 1  2.680317556185e+02  -1.318987145315e+01   2.654195070968e+02 
8
Step 48000
1 1  1.306215273815e+02  -3.587893478589e+02   4.423983825863e+01 
2 1 -8.224850582196e+01   1.518977286501e+02  -9.610919607480e+01 
3 1  2.606008512714e+02  -4.958158871815e+02  -1.804350965044e+02 
4 1  1.737584477197e+02  -2.559929021435e+02   1.416411640535e+02 
5 1 -2.587397107240e+02   2.088129179238e+02  -8.561863354114e+01 
6 1  5.008155282331e+02  -5.608641810463e+01  -2.663521024312e+02 
7 1 -1.842992082459e+02  -3.948665888298e+02   2.124799771315e+02 
8 1  3.589319110048e+01  -4.771737938507e+01   1.988787233651e+02 
8
Step 49000
1 1 -1.781937739230e+02   5.330757500809e+01   5.137914731490e+02 
2 1 -3.787127283539e+02  -3.010814826080e+02  -3.840896165663e+02 
3 1  1.739988777686e+01  -2.045024178633e+02  -3.574664374750e+02 
4 1 -2.658226696875e+02  -2.364620798256e+02   1.753589078287e+02 
5 1 -7.689669400650e+00  -6.520599536114e+01   2.921666460947e+02 
6 1  2.542196720118e+02  -3.338385236700e+02   6.163425925521e+01 
7 1  3.098729304392e+02  -9.064238784857e+01  -2.179020198653e+02 
8 1 -7.735031167983e+02   7.689950211116e+01  -4.998387085631e+01 
8
Step 50000
1 1  2.263409761288e+02  -2.069255115802e+02   8.123940384734e+01 
2 1 -2.066272810778e+02  -1.705529265636e+02   2.057656936407e+02 
3 1  1.700641210538e+02  -3.144704113551e+02  -3.417091790232e+02 
4 1 -1.020216202331e+02  -1.929720361482e+02  -2.795699783656e+01 
5 1  3.823382286500e+01  -2.936717814998e+02  -7.655611562172e+01 
6 1 -4.760676557798e+01  -2.535679465219e+02   1.104531592100e+02 
7 1  2.203207969783e+02  -9.255550371453e+01  -4.710152974145e+01 
8 1 -1.071088639107e+00  -1.464993637427e+02   1.701182289243e+02 
8
Step 51000
1 1 -1.894433649177e+02   1.779782426650e+02   9.590532401044e+00 
2 1  8.213054459928e+01  -3.361189877533e+02   1.171389718155e+02 
3 1  3.159282139648e+02  -3.451679065464e+02  -2.590766937955e+02 
4 1  3.190331646495e+02   3.737176644341e+02   6.557139053737e+01 
5 1 -2.078106175669e+02   1.276731716116e+01   9.265396741247e+00 
6 1  3.325447841347e+02   4.878662865790e+01  -8.307856675167e+01 
7 1  2.335970596740e+02   5.639855092450e+01   1.105419820508e+02 
8 1  2.140968920593e+02  -2.588243213038e+02  -7.123190752889e+02 
8
Step 52000
1 1  2.387476143540e+02   1.107560335993e+02  -2.494628260597e+02 
2 1 -7.172207140882e+01  -3.405474427071e+02  -3.297825351138e+02 
3 1  6.383491769825e+02  -7.003134611235e+00   7.486236267065e+01 
4 1  1.810054290122e+02   2.221637901913e+02   1.979646568185e+01 
5 1  2.228021509440e+02  -2.630483222941e+02  -1.447801473496e+02 
6 1  1.283984021190e+02  -4.475658836335e+02  -3.022982597161e+02 
7 1  6.229124294037e+02   1.725447297454e+02   2.930609645859e+02 
8 1 -7.885724688600e+01  -3.042453353436e+02  -2.045821274099e+02 
8
Step 53000
1 1 -3.452525048046e+02   1.275711199512e+02   1.327688453091e+01 
2 1  1.387499070473e+02   1.157091562275e+02   2.442129476325e+02 
3 1 -6.177340654699e+01  -2.303537028919e+02  -3.017986022063e+02 
4 1  2.450454448830e+02  -1.372399457427e+02   2.264628312601e+02 
5 1  2.478599025724e+02  -2.876920137193e+02  -9.210065980678e+01 
6 1 -8.204202535347e+01  -1.211366333517e+02  -2.631066372130e+02 
7 1  5.859249994571e+02  -2.045441488365e+02   1.807872305203e+01 
8 1  2.679164267821e+02  -1.009219759039e+00   4.248617589336e+00 
8
Step 54000
1 1  9.772369074745e+01   2.784609847009e+02  -4.275404118320e+02 
2 1  8.391873036840e+01  -7.958260994612e+01  -1.569833111895e+01 
3 1  1.438592657936e+02   4.616138952113e+02  -8.107423725187e+02 
4 1 -2.328964605107e+01   4.617797023855e+02   3.146508087966e+01 
5 1  1.630857844432e+02  -2.061227616172e+02  -9.549825402756e+01 