8
Step 0
1 1 -3.567806084495e+02   1.250349871688e+02   1.349215040121e+02 
2 1 -3.715941391501e+01   2.035910927754e+02  -2.934454057728e+02 
3 1 -5.894608363078e+00   1.640287187557e+02  -1.356203740973e+02 
4 1  9.980405381862e+01   3.579602250797e+02   4.123904540523e+02 
5 1 -6.056234710672e+01   4.194574330581e+02   8.432933744934e+01 
6 1 -1.761637115772e+02  -2.392440180721e+02  -1.953219266841e+02 
7 1 -2.534551509443e+02  -1.234561750903e+02   2.630611908943e+02 
8 1 -1.563495904539e+02  -4.994924455812e+02  -3.797918227023e+01 
8
Step 1000
1 1 -1.361339426316e+02   5.772601847733e+01  -1.031029368365e+02 
2 1  1.577401811146e+02  -1.052242325570e+02  -3.370524765950e+02 
3 1 -2.201498655673e+02  -4.812101365265e+01  -1.825353353759e+02 
4 1  3.781544065465e+02   1.960640804954e+02   4.033720530886e+02 
5 1  2.200100161309e+02   2.023020729355e+02  -1.390137249364e+02 
6 1 -9.398931694987e+01   9.191394345401e+01   8.404405195542e+01 
7 1 -3.375997114623e+02  -3.507652725201e+01   1.070408088081e+01 
8 1 -2.244483250056e+02  -3.731458024109e+02   8.834764056967e+00 
8
Step 2000
1 1  1.446602814378e+02  -2.593227776793e+01  -2.773745959610e+02 
2 1  2.966767512071e+02  -3.589798765690e+02  -2.675940032643e+02 
3 1 -3.830060634896e+02  -2.251623952379e+02  -1.878316193264e+02 
4 1  4.655351695844e+02  -5.282412098488e+01   2.733137291873e+02 
5 1  3.645480381428e+02  -9.664258062198e+01  -3.370621515735e+02 
6 1  6.235142901185e+01   4.015157860633e+02   2.935494500507e+02 
7 1 -2.876451174150e+02   9.547632437403e+01  -2.264382941843e+02 
8 1 -2.153829361590e+02  -7.776034939694e+01   5.407364090022e+01 
8
Step 3000
1 1  3.573987769569e+02  -1.153773484587e+02  -3.038951354661e+02 
2 1  2.910220501577e+02  -4.067897387995e+02  -1.122605773970e+02 
3 1 -4.012649682544e+02  -2.865175262374e+02  -1.492651338407e+02 
4 1  2.976657786555e+02  -2.745230965183e+02   1.054604521940e+02 
5 1  2.865837557614e+02  -3.466008741557e+02  -4.074337221924e+02 
6 1  2.257267535721e+02   5.017921224742e+02   3.401793173237e+02 
7 1 -1.587885018717e+02   2.349993485722e+02  -3.256874416014e+02 
8 1 -1.166729412816e+02   2.177510288646e+02   1.063681513077e+02 
8
Step 4000
1 1  3.889524323914e+02  -1.990237383407e+02  -1.778374162919e+02 
2 1  1.374973572600e+02  -2.266529934440e+02   6.792912528745e+01 
3 1 -2.626495938638e+02  -2.091348345348e+02  -7.573989637353e+01 
4 1  7.665495816060e+00  -3.600358496719e+02  -4.414269903081e+01 
5 1  5.368904275087e+01  -4.260811104150e+02  -3.027669244907e+02 
6 1  3.103520395726e+02   3.236399357392e+02   2.217264591624e+02 
7 1 -2.919410163465e+01   3.188842882399e+02  -2.291363461495e+02 
8 1  3.761281608882e+01   3.786762732297e+02   1.617433701592e+02 
8
Step 5000
1 1  2.336627655906e+02  -2.572390614182e+02   1.765524325769e+01 
2 1 -7.877085443112e+01   3.890675845765e+01   2.122336412210e+02 
3 1 -5.154457969193e+01  -4.430011479490e+01   1.667888962994e+01 
4 1 -2.521366705627e+02  -2.621334455859e+02  -1.571411488854e+02 
5 1 -1.911012471708e+02  -3.027276339797e+02  -9.521540300639e+01 
6 1  2.530462462754e+02   3.146564125543e+01   3.891035136189e+01 
7 1  5.375513668825e+01   2.867436751949e+02  -3.132061232745e+00 
8 1  1.885139136524e+02   3.278493447482e+02   1.969539013601e+02 
8
Step 6000
1 1  1.029041260381e+01  -2.620731438097e+02   1.832858453033e+02 
2 1 -2.527272129540e+02   2.407740905116e+02   2.682972186503e+02 
3 1  1.444542251134e+02   1.307938717046e+02   1.080588020578e+02 
4 1 -3.726023598517e+02  -5.214804313701e+01  -2.288989965459e+02 
5 1 -3.216980104508e+02  -8.788652477714e+01   1.093381904762e+02 
6 1  6.954722260280e+01  -2.151992860763e+02  -9.920513779094e+01 
7 1  8.059358583771e+01   1.413208094251e+02   2.282978250829e+02 
8 1  2.720952527502e+02   1.318779105873e+02   1.823604862645e+02 
8
Step 7000
1 1 -1.639213072180e+02  -1.928200119328e+02   2.447376144900e+02 
2 1 -2.952267926376e+02   2.846198741536e+02   2.183525532908e+02 
3 1  2.649771705801e+02   2.489235345325e+02   1.745325074644e+02 
4 1 -3.115884679321e+02   1.558064553289e+02  -2.554361204729e+02 
5 1 -2.717361592072e+02   9.853421685353e+01   2.338974541597e+02 
6 1 -1.647749314447e+02  -3.335100850594e+02  -1.319024250576e+02 
7 1  6.875649714251e+01  -5.584129073767e+01   3.431397898297e+02 
8 1  2.456209167934e+02  -7.680021495283e+01   1.042993940995e+02 
8
Step 8000
1 1 -2.226565872640e+02  -5.129935448785e+01   1.808638108715e+02 
2 1 -1.886526576913e+02   1.738114200006e+02   1.016303762809e+02 
3 1  2.782899611257e+02   2.644952536026e+02   1.933753245156e+02 
4 1 -1.358579952296e+02   2.676579175039e+02  -2.337813001325e+02 
5 1 -9.468635112974e+01   1.963941572332e+02   2.397569677833e+02 
6 1 -3.533594140899e+02  -3.031892138371e+02  -6.602613161021e+01 
7 1  4.706715875793e+01  -2.293315613129e+02   2.712733235609e+02 
8 1  1.224428130856e+02  -2.004138622990e+02  -2.665547811814e+01 
8
Step 9000
1 1 -1.654363360954e+02   1.425756830403e+02   3.821432408904e+01 
2 1 -1.193179218868e+01   4.660055412000e+00  -1.605060529082e+01 
3 1  2.025727931726e+02   1.768568545897e+02   1.536589378071e+02 
4 1  6.417520132048e+01   2.377851059492e+02  -1.676420142318e+02 
5 1  9.333031714938e+01   1.947931807738e+02   1.497739327295e+02 
6 1 -3.898714625892e+02  -1.783107085907e+02   3.574612803386e+01 
7 1  3.900576243529e+01  -3.075342792344e+02   6.863915160539e+01 
8 1 -3.917518699865e+01  -1.883285539464e+02  -1.842739673823e+02 
8
Step 10000
1 1 -5.480775954629e+01   3.516674959988e+02  -1.065814487153e+02 
2 1  1.281430088342e+02  -1.231233868380e+02  -8.616867275399e+01 
3 1  9.060947358899e+01   3.063972797256e+01   6.130232597882e+01 
4 1  2.258292498090e+02   1.057618575384e+02  -6.922936438352e+01 
5 1  2.017332727467e+02   1.234771115966e+02   3.171272007232e+01 
6 1 -2.467150137745e+02  -2.765515058903e+01   9.948440175704e+01 
7 1  5.200825224551e+01  -2.559655309237e+02  -1.399132852923e+02 
8 1 -1.746763255970e+02  -5.661883179415e+01  -3.299100181108e+02 
8
Step 11000
1 1  3.266948093965e+01   4.906179712766e+02  -1.884318051938e+02 
2 1  1.607590968054e+02  -1.559369305857e+02  -9.567369414269e+01 
3 1 -1.165399206855e+01  -1.199687929955e+02  -6.799871649779e+01 
4 1  2.970533020352e+02  -4.308702459894e+01   4.287409206811e+01 
5 1  1.974888138890e+02   2.877513248439e+01  -5.230925321130e+01 
6 1 -2.571949125789e+01   1.047232085644e+02   8.145771600371e+01 
7 1  7.801875388143e+01  -1.190632082067e+02  -2.512398100091e+02 
8 1 -2.313818247192e+02   1.228533668781e+02  -4.044623351603e+02 
8
Step 12000
1 1  4.819246416605e+01   4.427409943596e+02  -1.788818802180e+02 
2 1  8.998957833936e+01  -9.925624731283e+01  -6.324087203288e+01 
3 1 -7.880702628443e+01  -2.322888281604e+02  -2.121814990802e+02 
4 1  2.538536052795e+02  -1.454951229963e+02   1.443667134908e+02 
5 1  1.150602302573e+02  -5.044052181478e+01  -7.136326154763e+01 
6 1  1.538645611295e+02   1.887121360444e+02  -8.155139643488e+00 
7 1  1.012220985709e+02   1.454312257684e+01  -2.295049790488e+02 
8 1 -1.869374513396e+02   2.550034871838e+02  -3.533087283114e+02 
8
Step 13000
1 1 -9.523117805294e+00   2.114623565550e+02  -9.969634152943e+01 
2 1 -1.220127779320e+01  -2.468191410270e+00  -2.171799400007e+01 
3 1 -1.024345590227e+02  -2.742615908743e+02  -3.208715420337e+02 
4 1  1.227033702302e+02  -1.801060840972e+02   2.066272818999e+02 
5 1  1.712466387065e+01  -8.939465645671e+01  -2.774672331442e+01 
6 1  2.302602226080e+02   2.074357461466e+02  -1.160170189955e+02 
7 1  1.050317757165e+02   8.227515363238e+01  -1.254400478672e+02 
8 1 -6.650217886267e+01   2.528540495243e+02  -1.797185494072e+02 
8
Step 14000
1 1 -9.453621326414e+01  -7.845617160889e+01  -1.189612775054e+00 
2 1 -6.884664136975e+01   7.970110346298e+01   3.586954477541e+00 
3 1 -8.923687858616e+01  -2.329435668118e+02  -3.092167826186e+02 
4 1 -4.418705220334e+01  -1.583552486117e+02   2.081642244649e+02 
5 1 -5.409323831163e+01  -7.910837345751e+01   4.730490213237e+01 
6 1  2.073399149556e+02   1.672466233735e+02  -1.802398338345e+02 
7 1  7.603318746693e+01   7.987210907701e+01  -1.148047901680e+01 
8 1  7.463325102888e+01   9.580410265433e+01   7.470307327167e+01 
8
Step 15000
1 1 -1.401613963184e+02  -3.163802464369e+02   7.505069087369e+01 
2 1 -4.877284358711e+01   1.119569628646e+02   6.676478823410e+00 
3 1 -5.776531158386e+01  -1.259688556917e+02  -1.445791248131e+02 
4 1 -1.950305494778e+02  -1.011316849332e+02   1.502630839248e+02 
5 1 -8.589565614519e+01  -2.868805324419e+01   1.024292383316e+02 
6 1  1.312226305084e+02   9.268374207546e+01  -1.625171548547e+02 
7 1  7.041068960109e+00   4.524055726701e+01   7.296174702578e+01 
8 1  1.772441009173e+02  -1.548791891304e+02   3.697994644784e+02 
8
Step 16000
1 1 -9.776206206583e+01  -4.133471707563e+02   1.126865805077e+02 
2 1  2.431977545187e+01   8.660522741602e+01  -3.626864648373e+00 
3 1 -3.105705792015e+01   1.408653375960e+01   1.045477785956e+02 
4 1 -2.825720810780e+02  -1.943355995673e+01   5.585558262988e+01 
5 1 -8.452399474945e+01   3.668407277203e+01   9.319280299336e+01 
6 1  4.677500354827e+01   9.564215521833e+00  -6.865802123096e+01 
7 1 -9.890645036107e+01   2.052249049191e+01   1.131004028110e+02 
8 1  1.929654897866e+02  -3.834991564443e+02   5.989186783631e+02 
8
Step 17000
1 1  3.175684248635e+01  -3.444947332406e+02   1.180336851517e+02 
2 1  9.860528692868e+01   2.182277526428e+01  -1.531932779265e+01 
3 1 -2.674995592562e+01   1.566521213619e+02   3.220123148917e+02 
4 1 -2.777927805390e+02   8.386211363757e+01  -4.565046578982e+01 
5 1 -6.434584331910e+01   8.370861479941e+01   1.098174237316e+01 
6 1 -1.870952693314e+01  -6.784526359312e+01   5.952600619801e+01 
7 1 -2.207510260934e+02   2.527384199010e+01   1.064461948509e+02 
8 1  1.078077277501e+02  -4.456929646319e+02   5.587134350729e+02 
8
Step 18000
1 1  1.943249794058e+02  -1.917115869451e+02   1.065503901673e+02 
2 1  1.255505741242e+02  -4.959467377942e+01  -1.996813127481e+01 
3 1 -4.615238639815e+01   2.625047047611e+02   3.860347622185e+02 
4 1 -1.901549651963e+02   1.925622991885e+02  -1.274721930960e+02 
5 1 -3.899834143436e+01   8.426280081339e+01  -1.114909045518e+02 
6 1 -5.352359394049e+01  -1.370758190832e+02   1.684092018489e+02 
7 1 -3.102729269826e+02   4.882615220341e+01   6.239385416851e+01 
8 1 -4.599415539504e+01  -2.936455587831e+02   2.590966834123e+02 
8
Step 19000
1 1  3.030803907854e+02  -4.038306841512e+01   8.672162399070e+01 
2 1  8.175809902407e+01  -9.493685310793e+01  -1.377189712443e+01 
3 1 -6.923648095421e+01   2.856454498393e+02   2.678632051416e+02 
4 1 -5.599335740046e+01   2.605793668430e+02  -1.680377091244e+02 
5 1 -1.522104991022e+01   3.044036182398e+01  -2.088784104719e+02 
6 1 -6.039932113961e+01  -1.945704617041e+02   2.108307357280e+02 
7 1 -3.064243773487e+02   6.605568300722e+01   1.198399574311e+00 
8 1 -2.053773530034e+02  -2.486650538771e+01  -8.105188289580e+01 
8
Step 20000
1 1  2.848081316627e+02   7.472473266282e+01   5.498484666160e+01 
2 1 -1.753449051017e+01  -9.585867833517e+01   1.455805192710e+00 
3 1 -6.346616021139e+01   2.134580487601e+02   6.510884086926e+01 
4 1  8.879558757397e+01   2.386031973864e+02  -1.564926383249e+02 
5 1  8.419447588007e+00  -5.813214161386e+01  -2.160207006809e+02 
6 1 -5.279795854144e+01  -2.239901080110e+02   1.675668405703e+02 
7 1 -1.856158545807e+02   6.115970438112e+01  -5.178960045505e+01 
8 1 -2.892491408386e+02   2.468183187352e+02  -3.067737231602e+02 
8
Step 21000
1 1  1.411987866520e+02   1.409121031090e+02   2.292531211813e+00 
2 1 -1.258885304797e+02  -5.651596590753e+01   1.914784428283e+01 
3 1 -3.376010219439e+00   8.224982080232e+01  -1.091475236764e+02 
4 1  2.137168681022e+02   1.187692399415e+02  -9.846089716042e+01 
5 1  3.712674574480e+01  -1.396841232710e+02  -1.203614279133e+02 
6 1 -4.621556930244e+01  -2.022910719082e+02   6.019968051756e+01 
7 1  1.910186657381e+01   3.589372421184e+01  -7.484006535775e+01 
8 1 -2.311568225301e+02   4.154036110220e+02  -3.358260452383e+02 
8
Step 22000
1 1 -6.171887448350e+01   1.531174855245e+02  -7.373783013007e+01 
2 1 -1.883584204821e+02   3.513726214815e-01   3.138492749742e+01 
3 1  1.086432560885e+02  -5.619406055055e+01  -1.844295407018e+02 
4 1  2.847968270550e+02  -6.043109086781e+01  -1.344187561348e+01 
5 1  7.225092428942e+01  -1.665946265191e+02   3.114717310558e+01 
6 1 -4.819941969429e+01  -1.164577366937e+02  -6.571827205811e+01 
7 1  2.506115845942e+02   2.787363273871e+00  -5.893035691513e+01 
8 1 -3.620148066618e+01   3.998925441531e+02  -2.116486081011e+02 
8
Step 23000
1 1 -2.429283090633e+02   1.193731636596e+02  -1.565549014115e+02 
2 1 -1.682906489219e+02   4.556740329654e+01   3.239143661782e+01 
3 1  2.304763096660e+02  -1.590823949116e+02  -1.487272568815e+02 
4 1  2.725956156461e+02  -2.331941962937e+02   7.313893504610e+01 
5 1  1.050614985385e+02  -1.113035993182e+02   1.696499653514e+02 
6 1 -5.297508195505e+01   2.646891518571e+01  -1.637612587349e+02 
7 1  4.273939330692e+02  -2.503005947198e+01  -1.234138177389e+01 
8 1  2.258148005470e+02   2.383087891076e+02  -7.036968813784e+01 
8
Step 24000
1 1 -3.235045254719e+02   6.219994613672e+01  -2.092647218622e+02 
2 1 -7.042303725751e+01   5.830056300476e+01   2.154958541039e+01 
3 1  2.894946907471e+02  -1.990656934671e+02  -5.021127702844e+01 
4 1  1.787547606228e+02  -3.214135399731e+02   1.358708824920e+02 
5 1  1.173651042458e+02   1.363723644090e+01   2.322740059952e+02 
6 1 -4.564654431525e+01   1.970912404877e+02  -1.997232837741e+02 
7 1  4.460557941913e+02  -4.060965962869e+01   4.281156750116e+01 
8 1  4.388693132183e+02   3.612717030342e+01   1.281248688551e+01 
8
Step 25000
1 1 -2.672930926784e+02   9.402787998456e+00  -1.943517761664e+02 
2 1  6.240799433620e+01   3.796223488288e+01   4.082561680118e+00 
3 1  2.281222216491e+02  -1.737997062831e+02   3.897896118829e+01 
4 1  3.814124597638e+01  -2.784183130750e+02   1.554629612779e+02 
5 1  9.073810328528e+01   1.590344008488e+02   1.904619785661e+02 
6 1 -1.280190131170e+01   3.377707711353e+02  -1.645514433481e+02 
7 1  2.923813177681e+02  -4.498642325164e+01   7.960283191756e+01 
8 1  4.493804105048e+02  -1.331530334916e+02   3.514839399471e+01 
8
Step 26000
1 1 -1.169524257167e+02  -1.847022836194e+01  -1.028721560959e+02 
2 1  1.722702296094e+02   4.889254585209e+00  -1.202388501904e+01 
3 1  5.349297894709e+01  -1.066180524095e+02   6.409604438984e+01 
4 1 -1.051465756168e+02  -1.345324145808e+02   1.268175515924e+02 
5 1  1.882260774373e+01   2.548835966910e+02   7.086864402746e+01 
6 1  4.727265053873e+01   3.712497632472e+02  -7.856815286782e+01 
7 1  6.935949772577e+01  -4.418648591983e+01   7.711220772236e+01 
8 1  2.283161493859e+02  -2.263759881719e+02   1.663046778256e+01 
8
Step 27000
1 1  5.019730250411e+01  -1.710527245691e+01   3.725291007689e+01 
2 1  2.083455863963e+02  -1.175446354372e+01  -2.070575619614e+01 
3 1 -1.733945417020e+02  -2.918109528847e+01   1.299179704847e+01 
4 1 -2.087633030286e+02   3.611694764929e+01   6.127502107255e+01 
5 1 -8.528096395940e+01   2.408194339997e+02  -6.615171312929e+01 
6 1  1.186225732601e+02   2.640506939317e+02   2.403533151305e+01 
7 1 -1.278146778469e+02  -4.323780759853e+01   3.020944834461e+01 
8 1 -8.860805030228e+01  -2.265752602440e+02  -1.636451645452e+01 
8
Step 28000
1 1  1.679553945341e+02   8.655768542257e-01   1.751242449386e+02 
2 1  1.530812488197e+02   8.225842503416e+00  -2.114490779083e+01 
3 1 -3.603785763059e+02   3.443110646138e+01  -8.176108002924e+01 
4 1 -2.381179297335e+02   1.670654638692e+02  -1.982216526654e+01 
5 1 -1.880708855511e+02   1.128368385669e+02  -1.595411738877e+02 
6 1  1.694550387364e+02   6.636600606799e+01   1.125631888873e+02 
7 1 -2.496824984466e+02  -4.120772416029e+01  -4.676972375666e+01 
8 1 -3.567650392279e+02  -1.561459661967e+02  -3.745546211741e+01 
8
Step 29000
1 1  1.959492392459e+02   1.383906495924e+01   2.522172683168e+02 
2 1  3.523754820161e+01   6.076550015720e+01  -1.839794699722e+01 
3 1 -3.999696405063e+02   7.193278717985e+01  -1.621484117870e+02 
4 1 -1.876758360069e+02   2.155257876865e+02  -9.326533288151e+01 
5 1 -2.418219859141e+02  -7.315276610905e+01  -1.694495431801e+02 
6 1  1.659153341513e+02  -1.429046104149e+02   1.663662985882e+02 
7 1 -2.770077690581e+02  -3.083572316210e+01  -1.238342520457e+02 
8 1 -4.409693414940e+02  -6.260973788834e+01  -2.998089522519e+01 
8
Step 30000
1 1  1.381091680975e+02   3.109760863882e+00   2.299578782712e+02 
2 1 -9.012034356710e+01   1.138607219530e+02  -2.017506882930e+01 
3 1 -2.635232195958e+02   8.182305341550e+01  -1.705338468649e+02 
4 1 -8.974611270689e+01   1.756750804463e+02  -1.398824493238e+02 
5 1 -2.077023496448e+02  -2.368645969230e+02  -9.752038888971e+01 
6 1  9.287940274843e+01  -2.916792174876e+02   1.768513064014e+02 
7 1 -2.276155419237e+02  -3.099398280692e+00  -1.635745427447e+02 
8 1 -3.032115264085e+02   1.005674632746e+01   5.760422228609e+00 
8
Step 31000
1 1  4.144920046700e+01  -3.616682825002e+01   1.232954579577e+02 
2 1 -1.679738613853e+02   1.201512791431e+02  -3.098638356361e+01 
3 1 -3.928027763602e+01   7.087619945628e+01  -8.031834980596e+01 
4 1  9.168052329258e+00   8.218496627597e+01  -1.488844084626e+02 
5 1 -8.533522402515e+01  -2.978585218237e+02   1.395261450549e+01 
6 1 -3.589873358844e+01  -3.215277673068e+02   1.472244503681e+02 
7 1 -1.441142513113e+02   4.597252758100e+01  -1.360031797854e+02 
8 1 -7.559635202759e+01   3.844291626118e+01   5.369134469041e+01 
8
Step 32000
1 1 -3.445604009487e+01  -8.996409157567e+01  -1.103114667934e+01 
2 1 -1.646591067931e+02   4.470238963043e+01  -4.740473520171e+01 
3 1  1.668854216954e+02   4.963886203206e+01   8.696583436319e+01 
4 1  7.429231485393e+01  -1.415477385234e+01  -1.195477318126e+02 
5 1  8.769944158911e+01  -2.203241139358e+02   1.076887405368e+02 
6 1 -1.830541694495e+02  -2.321071362917e+02   8.767039538372e+01 
7 1 -5.894111890244e+01   1.095456376081e+02  -3.676212809493e+01 
8 1  1.048828803279e+02   2.799726410485e+01   9.091809717601e+01 
8
Step 33000
1 1 -4.902716004645e+01  -1.298819233797e+02  -1.154756884696e+02 
2 1 -8.711391796296e+01  -1.066625399755e+02  -5.721232207878e+01 
3 1  2.750918095540e+02   2.758377010817e+01   2.687423918033e+02 
4 1  9.282223338846e+01  -7.372615283494e+01  -5.995572973594e+01 
5 1  2.526722433799e+02  -4.875271132734e+01   1.368232942576e+02 
6 1 -2.912092903245e+02  -9.035265108678e+01   8.666415654101e+00 
7 1  1.687946278432e+01   1.665681326754e+02   1.073052985704e+02 
8 1  1.815830507258e+02   7.884065748080e+00   9.936394418079e+01 
8
Step 34000
1 1 -2.555414692473e+00  -1.258396814072e+02  -1.553360399357e+02 
2 1  2.068414852992e+01  -2.756766693481e+02  -4.334375793196e+01 
3 1  2.482636445999e+02   1.019417569133e+01   3.675317719941e+02 
4 1  7.438279590411e+01  -8.073476993712e+01   1.652202023561e+01 
5 1  3.352987722645e+02   1.331502539812e+02   8.502117452333e+01 
6 1 -2.963281825950e+02   3.288230163696e+01  -8.180610203299e+01 
7 1  8.142038881171e+01   1.813722261743e+02   2.424230624738e+02 
8 1  1.602742845165e+02   1.186295846315e+01   7.448473835127e+01 
8
Step 35000
1 1  6.433974241485e+01  -6.188360497407e+01  -1.295598951377e+02 
2 1  1.030340021682e+02  -3.589025677235e+02   7.418191071567e+00 
3 1  1.259693300558e+02  -1.672467547410e+00   3.013356431188e+02 
4 1  4.320193124551e+01  -4.463513137019e+01   9.624215128761e+01 
5 1  2.817930147297e+02   2.496639880098e+02  -2.615070695508e+01 
6 1 -1.788267647262e+02   1.016389223483e+02  -1.738212451381e+02 
7 1  1.293970401470e+02   1.151703683237e+02   2.977600129224e+02 
8 1  8.332388107023e+01   5.760903989942e+01   2.638243483831e+01 
8
Step 36000
1 1  9.457382517126e+01   5.464468702055e+01  -6.727985523122e+01 
2 1  1.186884500398e+02  -2.756395128957e+02   9.363037279263e+01 
3 1 -6.486898142130e+00  -1.036015370788e+01   9.099617956581e+01 
4 1  2.340974284379e+01   7.289377279358e+00   1.662518783417e+02 
5 1  1.140854500110e+02   2.538181432949e+02  -1.496039020544e+02 
6 1  1.169661639518e+01   1.139670723700e+02  -2.455134431564e+02 
7 1  1.488178535419e+02  -4.534947323038e+01   2.299144495887e+02 
8 1 -3.076214473362e+00   1.303513406303e+02  -2.681043731370e+01 
8
Step 37000
1 1  4.674634718591e+01   1.929915858443e+02  -7.015912213484e+00 
2 1  6.140169776957e+01  -5.060039092475e+01   1.908203668726e+02 
3 1 -7.952759154554e+01  -1.894401591720e+01  -1.707165681415e+02 
4 1  2.490010743178e+01   4.321803618311e+01   2.077475465793e+02 
5 1 -9.408012628909e+01   1.489788502110e+02  -2.246452713213e+02 
6 1  1.969393849959e+02   9.151953475200e+01  -2.631354534871e+02 
7 1  1.271824935467e+02  -2.578914165454e+02   6.583585709515e+01 
8 1 -6.613185292493e+01   1.838537341027e+02  -6.831108969444e+01 
8
Step 38000
1 1 -7.685207970604e+01   2.967154041087e+02   2.386323567109e+01 
2 1 -3.744787508290e+01   2.248397222547e+02   2.510813489471e+02 
3 1 -6.929697354683e+01  -2.898184422389e+01  -3.756028700516e+02 
4 1  3.902880350727e+01   4.020438616226e+01   1.947554751443e+02 
5 1 -2.663453712125e+02  -2.109347896242e+01  -1.920377216196e+02 
6 1  2.994576876252e+02   6.410314702871e+01  -2.046393987874e+02 
7 1  6.162299503819e+01  -4.047178513617e+02  -1.254644025941e+02 
8 1 -8.674870470545e+01   1.686694706525e+02  -9.053385351752e+01 
8
Step 39000
1 1 -2.249467940826e+02   2.949244560404e+02   1.932933588377e+01 
2 1 -1.252171247513e+02   4.300602461909e+02   2.234989481251e+02 
3 1 -1.398582621089e+00  -3.962872680131e+01  -4.105068588874e+02 
4 1  4.723954301265e+01  -8.558202467791e+00   1.127413614294e+02 
5 1 -3.329652894315e+02  -2.113044049539e+02  -3.256205045375e+01 
6 1  2.708955330041e+02   5.324470413434e+01  -7.797298251657e+01 
7 1 -3.460727684771e+01  -3.612129665415e+02  -2.704353355974e+02 
8 1 -5.856889937544e+01   6.751178212034e+01  -9.886606680195e+01 
8
Step 40000
1 1 -3.126855707482e+02   1.584312417507e+02  -5.739318733738e+00 
2 1 -1.487870902979e+02   4.386974893678e+02   9.130724949372e+01 
3 1  7.023881187141e+01  -4.833196194819e+01  -2.574569006422e+02 
4 1  3.526872634980e+01  -9.480866509498e+01  -2.308099874551e+01 
5 1 -2.602198513179e+02  -3.644376423863e+02   2.099286082331e+02 
6 1  1.393349986140e+02   6.102110644204e+01   8.840963138501e+01 
7 1 -1.307161067793e+02  -1.452708634526e+02  -3.095901938042e+02 
8 1  9.659095100180e+00  -9.331538877396e+01  -1.078784781987e+02 
8
Step 41000
1 1 -2.649826526179e+02  -6.994469934479e+01  -2.521181733144e+01 
2 1 -7.963513226937e+01   2.556422971195e+02  -1.168109439090e+02 
3 1  9.475352315179e+01  -5.246690524728e+01  -2.700460515574e+01 
4 1  3.083252385617e+00  -1.945735476796e+02  -1.708076407576e+02 
5 1 -8.423189250794e+01  -3.746189169154e+02   4.191022836384e+02 
6 1 -1.129586615264e+01   7.083113422415e+01   2.520730145627e+02 
7 1 -1.836086544037e+02   1.260177724739e+02  -2.381294971729e+02 
8 1  9.217020632605e+01  -2.557164667584e+02  -1.274393673869e+02 
8
Step 42000
1 1 -8.001223173886e+01  -3.044008519135e+02  -1.594608233314e+01 
2 1  6.888881284413e+01   2.856676173600e+00  -3.339828778241e+02 
3 1  4.828514382491e+01  -4.990982311862e+01   1.612724814325e+02 
4 1 -3.572438414080e+01  -2.569777406708e+02  -2.700647809261e+02 
5 1  1.287749022121e+02  -1.852391368352e+02   4.270816035855e+02 
6 1 -1.092343499351e+02   5.906572267620e+01   3.518429545665e+02 
7 1 -1.571341575783e+02   3.359850261541e+02  -1.121427380284e+02 
8 1  1.511126475585e+02  -3.393458259504e+02  -1.448416828285e+02 
8
Step 43000
1 1  1.797583221891e+02  -4.224457557246e+02   2.893381403657e+01 
2 1  2.432160406846e+02  -2.170592128439e+02  -4.490258854318e+02 
3 1 -5.576857073172e+01  -3.824360662143e+01   2.323455161286e+02 
4 1 -6.480542933169e+01  -2.120950492607e+02  -2.680856870596e+02 
5 1  3.207339239740e+02   1.288358973550e+02   1.996045149764e+02 
6 1 -1.264072674842e+02   1.009414858307e+01   3.354720246582e+02 
7 1 -4.570082367700e+01   3.828265796337e+02   9.197977910951e+00 
8 1  1.532364865068e+02  -2.803475985364e+02  -1.202701177577e+02 
8
Step 44000
1 1  4.235564467984e+02  -3.388740704620e+02   9.415938356265e+01 
2 1  3.499577912134e+02  -3.269608839031e+02  -3.752703982397e+02 
3 1 -1.688135082196e+02  -1.435466341517e+01   1.770896448107e+02 
4 1 -7.586646608160e+01  -2.566854111104e+01  -1.648785214879e+02 
5 1  4.037486104628e+02   4.305930052616e+02  -1.267795087691e+02 
6 1 -7.644591619617e+01  -7.089051447649e+01   2.113812194272e+02 
7 1  1.174105759543e+02   2.581672518975e+02   1.008658520458e+02 
8 1  9.009362996201e+01  -9.480526479828e+01  -9.178779747746e+00 
8
Step 45000
1 1  5.081587961539e+02  -1.185816599449e+02   1.477430349226e+02 
2 1  2.991237417767e+02  -2.885043109925e+02  -1.593282875892e+02 
3 1 -2.244371635400e+02   2.464234482115e+01   6.128055892827e+01 
4 1 -6.924248828461e+01   2.679383727735e+02  -1.086831569083e+01 
5 1  2.862879529565e+02   5.298122565777e+02  -3.943744374423e+02 
6 1 -3.397728160004e+00  -1.532940450247e+02   3.509226492588e+01 
7 1  2.628756497822e+02   6.343766694234e+01   1.619862884324e+02 
8 1 -1.712268447335e+01   1.394264179132e+02   1.979182296356e+02 
8
Step 46000
1 1  3.424358679019e+02   1.110178400228e+02   1.546834805207e+02 
2 1  9.664613106740e+01  -1.432054909805e+02   9.241661902207e+01 
3 1 -1.800136445607e+02   7.767257683444e+01  -2.596158665252e+01 
4 1 -4.758357352741e+01   5.424624412432e+02   1.324179208378e+02 
5 1 -2.609460225868e-01   3.493867915885e+02  -4.484718071216e+02 
6 1  3.963485560537e+01  -1.936091925142e+02  -1.384531746512e+02 
7 1  3.043469978528e+02  -9.762546140815e+01   1.963508100224e+02 
8 1 -1.293269108816e+02   3.287944061660e+02   4.292533997315e+02 
8
Step 47000
1 1  3.599827455803e+01   2.518324828356e+02   9.446638681988e+01 
2 1 -1.724611700285e+02   2.654461134346e+01   2.955555908174e+02 
3 1 -4.895228747327e+01   1.333841554129e+02  -3.331724569865e+01 
4 1 -1.252070089876e+01   5.719882115230e+02   2.102348832840e+02 
5 1 -3.324247901931e+02   4.401835722952e+01  -2.672480679505e+02 
6 1  1.870573556754e+01  -1.624119868454e+02  -2.618098859814e+02 
7 1  1.992182396772e+02  -1.670071837459e+02   2.017091840093e+02 
8 1 -2.027529659152e+02   3.738733866908e+02   5.165232472504e+02 
8
Step 48000
1 1 -2.502750807808e+02   2.530446184794e+02  -2.586617477440e+01 
2 1 -3.987063825495e+02   1.465383690608e+02   3.766781594007e+02 
3 1  1.122906858620e+02   1.680420399248e+02   2.419008117388e+01 
4 1  3.254480941249e+01   3.156399572640e+02   1.904296016908e+02 
5 1 -5.244912336655e+02  -2.292718196367e+02  -4.280848814176e+00 
6 1 -5.826804706457e+01  -6.869680038856e+01  -2.962632750118e+02 
7 1 -1.778639448210e+01  -1.359870032381e+02   1.683448393514e+02 
8 1 -2.050983419798e+02   2.417296285016e+02   3.630135488314e+02 
8
Step 49000
1 1 -3.908935086540e+02   1.424361448837e+02  -1.709612361343e+02 
2 1 -4.543690822225e+02   1.676871016950e+02   3.117739124671e+02 
3 1  2.308208843551e+02   1.551331380035e+02   8.659692805545e+01 
4 1  7.776701809004e+01  -2.968758910269e+01   8.741909660484e+01 
5 1 -4.133988898760e+02  -3.682804993143e+02   1.887134246375e+02 
6 1 -1.424813107806e+02   4.731427595402e+01  -2.373392047686e+02 
7 1 -2.646510271083e+02  -4.650689759305e+01   8.772537268415e+01 
8 1 -1.366136860274e+02   1.186898975148e+01   6.520099997535e+01 
8
Step 50000
1 1 -3.204288299208e+02   4.261873098608e+00  -2.842173113657e+02 
2 1 -3.093568310807e+02   8.901077447906e+01   1.607732414163e+02 
3 1  2.451739050727e+02   8.185336316758e+01   9.678615829915e+01 
4 1  1.073748600614e+02  -3.208337779764e+02  -4.386823390417e+01 
5 1 -9.690426451419e+01  -3.242352379346e+02   2.267088425261e+02 
6 1 -1.696106827270e+02   1.382608809493e+02  -1.213885919388e+02 
7 1 -4.196766879804e+02   3.608605817231e+01  -3.490308301642e+01 
8 1 -2.963850255191e+01  -2.050843718345e+02  -2.573461780088e+02 
8
Step 51000
1 1 -1.225625058690e+02  -8.012576027533e+01  -3.037880880606e+02 
2 1 -8.063597767350e+01  -3.774717536261e+01   1.335906130852e+00 
3 1  1.492894050131e+02  -4.255857031948e+01   3.543853477744e+01 
4 1  1.054058391976e+02  -4.558685067653e+02  -1.348180022074e+02 
5 1  2.276399753846e+02  -1.564864802119e+02   1.200188528915e+02 
6 1 -9.968752713241e+01   1.695439789907e+02   5.855325488373e+00 
7 1 -3.761527249907e+02   5.937853249579e+01  -1.729943768661e+02 
8 1  7.562772848040e+01  -3.124815329255e+02  -4.882418342524e+02 
8
Step 52000
1 1  5.532590951158e+01  -7.119063293300e+01  -2.036192099704e+02 
2 1  1.172294585060e+02  -1.347903240359e+02  -1.204626259973e+02 
3 1 -2.848468355142e+00  -1.884487817001e+02  -7.215307560883e+01 
4 1  6.302625729712e+01  -3.906459562861e+02  -1.281597768342e+02 
5 1  4.082280110713e+02   3.192102803468e+01  -3.931191375879e+01 
6 1  5.409687793918e+01   1.366381465084e+02   1.117810954017e+02 
7 1 -1.624662537259e+02   7.867618088156e+00  -2.779527822715e+02 
8 1  1.479891035696e+02  -2.586513792646e+02  -5.015775308511e+02 
8
Step 53000
1 1  1.247698270034e+02   1.072418439432e+01  -2.128421821677e+01 
2 1  2.275230598154e+02  -1.366392904609e+02  -1.807583290415e+02 
3 1 -1.387395763647e+02  -3.046137960804e+02  -1.730220018887e+02 
4 1 -1.601412719981e+01  -2.147428736846e+02  -1.284134143789e+01 
5 1  3.525321470595e+02   1.674176784828e+02  -1.471371846005e+02 
6 1  2.303110694392e+02   6.870477849149e+01   1.776330888216e+02 
7 1  1.105948955961e+02  -9.019252260878e+01  -2.931778911160e+02 
8 1  1.711224420005e+02  -8.488013391398e+01  -3.203707340945e+02 
8
Step 54000
1 1  8.013594550056e+01   1.004685290104e+02   1.752167999375e+02 
2 1  2.369940218106e+02  -2.979388791675e+01  -1.740313692933e+02 
3 1 -1.972948321152e+02  -3.272394314863e+02  -2.111009508246e+02 
4 1 -1.112952228926e+02  -3.388668656443e+01   1.583234736218e+02 
5 1  1.333143437448e+02   2.098897507096e+02  -1.382998994781e+02 