8
Step 0
1 1 1.30169982833796046e-02 -3.90915751393750097e-03 -5.83327556246204196e-03
2 1 -1.05951608021412503e-02 -1.16098773245166681e-02 1.07277371047130848e-02
3 1 -1.07423658785850019e-02 -5.97683642001379991e-03 1.20450904754861900e-02
4 1 -7.73869338668499527e-03 -4.35615425558102953e-04 8.98038550680538977e-03
5 1 1.06189168930768251e-02 -6.56090100612922739e-03 7.74287411624780680e-03
6 1 2.12746455148641357e-02 2.33319900961039550e-02 -7.65252933554583497e-03
7 1 8.78686633003783772e-04 -9.25198569326629930e-03 -1.78440220564071738e-03
8 1 -3.31235227931507732e-03 -1.15627910951489297e-02 1.39304607125808298e-02
8
Step 1000
1 1 1.83770755901969604e-02 -1.11259234585223236e-02 -3.78332340856773032e-03
2 1 1.41806461436694287e-03 -2.19837826578930008e-02 -1.17414614777604839e-03
3 1 -1.42973469913560483e-02 4.68358433332249045e-03 1.00006637114871382e-02
4 1 -9.02350104506104492e-03 4.27581441251629105e-04 -3.63777751933676893e-03
5 1 8.22433566731667169e-03 -2.79463943667339820e-03 1.25305911407372940e-02
6 1 1.85352479982039964e-02 9.26438543854569280e-03 4.07520951473482659e-03
7 1 -5.10777771773278377e-03 -1.14907067923602380e-02 5.54757761444181832e-03
8 1 -3.73263231850390819e-03 -1.97416200402682832e-02 7.61980999674965521e-04
8
Step 2000
1 1 1.59987364532958691e-02 -1.38225351854776562e-02 8.10252454261620094e-04
2 1 1.28612044759157888e-02 -2.00901622070305194e-02 -1.37003586163323126e-02
3 1 -1.34581318489444060e-02 1.37227238329916158e-02 3.51084687299894633e-03
4 1 -8.26124998481862771e-03 1.36673335491364185e-03 -1.40533245908221922e-02
5 1 1.59591425269317577e-03 2.13017541359358277e-03 1.07839481362311720e-02
6 1 8.14921844548983920e-03 -5.28319687459975068e-03 1.42607178464799304e-02
7 1 -8.17058391904062174e-03 -8.84560323209517864e-03 1.15659273852286443e-02
8 1 -3.47870357480681812e-03 -1.94144120326642522e-02 -1.29417852847176704e-02
8
Step 3000
1 1 7.14204892121958652e-03 -1.13368518503304261e-02 6.21502913523603456e-03
2 1 1.72596693549017487e-02 -7.56354752077662961e-03 -2.08719578798971864e-02
3 1 -8.52246380192131850e-03 1.78109907568149081e-02 -3.60349037379795699e-03
4 1 -6.27949037774779006e-03 2.60511914323178963e-03 -1.80406349409582591e-02
5 1 -6.31390874419796196e-03 4.16710109757021004e-03 3.66546085587435289e-03
6 1 -4.42035331538539068e-03 -1.46180443342014740e-02 1.86912520516055412e-02
7 1 -7.60590631764687924e-03 -2.74968628914780498e-03 1.43282416030496764e-02
8 1 -3.63046797352905301e-03 -1.04925678989236330e-02 -2.01291153690353018e-02
8
Step 4000
1 1 -3.71479997405222903e-03 -4.98684655806793612e-03 9.77909591416147722e-03
2 1 1.19565818238279442e-02 6.51977333420978005e-03 -1.78943725299459296e-02
3 1 -1.50687767698658008e-03 1.50185010267907780e-02 -8.19258341415862040e-03
4 1 -3.53979877715525793e-03 3.87881957216217564e-03 -1.42794382368155136e-02
5 1 -1.30503441434803892e-02 2.32004749198749588e-03 -4.26391209434436036e-03
6 1 -1.48581701387440184e-02 -1.57275663625144370e-02 1.54181507725530860e-02
7 1 -4.61998856651280824e-03 3.99807396062000584e-03 1.25978539754084771e-02
8 1 -3.32371322802808584e-03 3.16245867541694995e-04 -1.67516167328199198e-02
8
Step 5000
1 1 -1.25203484626625061e-02 1.14441803438616657e-03 1.05002001979393848e-02
2 1 1.31192625937946684e-03 1.60273971454695380e-02 -8.15935159876733131e-03
3 1 5.42973072156756418e-03 7.58781058278259080e-03 -8.47406666403671162e-03
4 1 1.26908076532086965e-05 4.39410908767959383e-03 -6.49610611942755961e-03
5 1 -1.56579525783371760e-02 -1.19571933285683436e-03 -9.39960636471402419e-03
6 1 -1.90892203595741002e-02 -9.97290688973273207e-03 7.48875276611053655e-03
7 1 -1.15683143464085920e-03 8.81959376024046317e-03 7.05301642129688676e-03
8 1 -1.63433593744739553e-03 7.78342869191309562e-03 -6.64524305248462462e-03
8
Step 6000
1 1 -1.55181490327650530e-02 4.21089705799778790e-03 7.20159751816080301e-03
2 1 -8.50711411668468760e-03 1.70637074135518013e-02 2.20068379086921012e-03
3 1 1.04216781484146523e-02 -6.62881067164252280e-04 -4.68658808413353282e-03
4 1 4.26829437824216042e-03 3.22053952377737577e-03 7.14691952822599512e-04
5 1 -1.16437012029028258e-02 -4.60623229041286133e-03 -9.88238665894858662e-03
6 1 -1.56501864243452915e-02 -2.29345521654451216e-03 -4.81638164984322318e-04
7 1 1.50197795522709365e-03 1.00667975034548756e-02 -1.56420376514179694e-04
8 1 8.32804479887774623e-04 1.05734339832761204e-02 3.85829934733969426e-03
8
Step 7000
1 1 -1.13579423838143321e-02 4.26466825485090784e-03 -3.64719054211537605e-04
2 1 -1.32046149783172934e-02 1.02093172112894173e-02 9.65728722785235208e-03
3 1 1.18303611311024789e-02 -7.09144534570150219e-03 6.95178060402621128e-04
4 1 8.53171653925848504e-03 -3.62612745542946271e-05 4.94600850939686237e-03
5 1 -3.22394796402998606e-03 -5.77950928959185088e-03 -5.58915581330148709e-03
6 1 -7.95391814879702237e-03 3.22775402935698234e-03 -5.70916428350190779e-03
7 1 2.77956611131163637e-03 7.91136824564358902e-03 -6.65603975407503320e-03
8 1 4.52556665643261656e-03 8.50594816616256563e-03 1.06221046505208423e-02
8
Step 8000
1 1 -3.11688448700467129e-03 2.50720008630084127e-03 -9.70290211628811392e-03
2 1 -1.07862163209328440e-02 8.58191570391682898e-05 1.22958662042305187e-02
3 1 9.20618070016141279e-03 -1.02696161463408254e-02 4.80346513070094641e-03
4 1 1.13323802119657865e-02 -4.87587922054025930e-03 5.84898741733329373e-03
5 1 5.65957164771697333e-03 -3.47660025693670265e-03 6.45388905644367003e-04
6 1 1.98172945114035738e-04 4.89303340427139910e-03 -7.38674602003468357e-03
7 1 3.00519424468661134e-03 4.17580716372213320e-03 -1.03786515103037741e-02
8 1 9.01537373882360660e-03 3.84830850428827080e-03 1.20471432922022951e-02
8
Step 9000
1 1 4.87091032571490209e-03 1.96363914949272694e-04 -1.62706241738517429e-02
2 1 -3.34918574454710601e-03 -8.88796215031101983e-03 1.03161362383616534e-02
3 1 3.91221039286302353e-03 -9.57088662516977773e-03 6.02197077719036043e-03
4 1 1.09438706117017184e-02 -9.82292680728153421e-03 4.51210720006466667e-03
5 1 1.16310254193015324e-02 1.75241316891857268e-03 5.59539923722291582e-03
6 1 7.01839850478113651e-03 3.19860120882020692e-03 -6.26181804008264613e-03
7 1 3.02689193198843248e-03 7.54468333608610789e-04 -1.01193201445365713e-02
8 1 1.22170306531521038e-02 -2.53135776371335691e-04 8.54994795147425227e-03
8
Step 10000
1 1 9.76272675725644093e-03 -8.78701860271653137e-04 -1.62291963841824059e-02
2 1 4.06384938049856367e-03 -1.32413810295547510e-02 6.12815709911659987e-03
3 1 -1.73688478393372735e-03 -6.01601671345927593e-03 4.12571544428402652e-03
4 1 6.56286946261603558e-03 -1.24985907851162762e-02 2.75752873210860288e-03
5 1 1.19486056203217898e-02 8.52814090672439525e-03 7.38083594398293574e-03
6 1 1.13626933877954677e-02 2.83636990141866819e-05 -3.97151824174209883e-03
7 1 3.47460760931395584e-03 -1.59044685852284973e-03 -6.45637149847371004e-03
8 1 1.18087317338804575e-02 -2.15815062152327399e-03 2.87551127675706375e-03
8
Step 11000
1 1 1.00649561697902998e-02 6.24704342785141757e-04 -9.17629143462483053e-03
2 1 7.16508728753098827e-03 -1.12088157174118179e-02 1.99246295399053194e-03
3 1 -5.56781401765909546e-03 -1.83388152473182341e-03 -1.80914941647047212e-05
4 1 -1.24318470029292916e-03 -1.04473450779997926e-02 1.89805876831631963e-03
5 1 7.05890917505594927e-03 1.40067501263185772e-02 5.54599799251516250e-03
6 1 1.22112656904415622e-02 -2.43665390927716051e-03 -1.92037310727541247e-03
7 1 4.32444635571061029e-03 -3.32538470480390471e-03 -1.66477281372219457e-03
8 1 6.44666866426185734e-03 -1.78377905402313111e-03 -2.15416198153973396e-03
8
Step 12000
1 1 5.27471028871205269e-03 4.09354928062913986e-03 2.48100073644120589e-03
2 1 5.50023283275895541e-03 -4.02170418914667410e-03 -1.44926330650949758e-03
3 1 -6.35536592217321710e-03 1.12592189392950724e-03 -5.14650614488397495e-03
4 1 -1.11492899232564033e-02 -3.05606356474907555e-03 2.02144883937631879e-03
5 1 6.58174044270288909e-04 1.37483674125851215e-02 1.56127997842666027e-03
6 1 9.39987370541794411e-03 -2.68828070641395503e-03 -6.57109551047324212e-04
7 1 4.89438458984302847e-03 -5.82287494009076523e-03 1.50270814172606573e-03
8 1 -3.54024335106424212e-03 -7.57175048528482678e-05 -5.18844131463992286e-03
8
Step 13000
1 1 -3.03039774100852602e-03 7.74372724970029576e-03 1.52701320598700278e-02
2 1 2.00035480407539197e-03 5.00950406413673988e-03 -3.96442398176656986e-03
3 1 -4.47090929944208258e-03 2.02661471995745773e-03 -9.55427686703113309e-03
4 1 -2.02733383255141661e-02 7.58259901095011471e-03 2.27197149864696380e-03
5 1 -4.00896532560445808e-03 6.09217809073571166e-03 -1.73518028235336965e-03
6 1 3.96488589122327185e-03 -5.97810353886953755e-04 -5.94490809409260531e-05
7 1 3.86338064467667665e-03 -1.02263680097322493e-02 1.85840591992027281e-03
8 1 -1.61519055383900594e-02 1.10641433469739329e-03 -6.16672164897760430e-03
8
Step 14000
1 1 -1.08222389470983473e-02 9.54692430953610512e-03 2.34406695006412411e-02
2 1 -9.99056167093018577e-04 1.18052516678046424e-02 -5.14515106165922866e-03
3 1 -1.44499358459799837e-03 1.27465407468480636e-03 -1.04344828544495026e-02
4 1 -2.22010801903105258e-02 1.68442487289058897e-02 1.56325828633437840e-03
5 1 -5.70594756591304066e-03 -5.94605985275089254e-03 -2.31708501579856079e-03
6 1 -2.29987194137318361e-03 2.65598254141917196e-03 2.73062923755000141e-04
7 1 3.31149844134127598e-04 -1.54146880734871601e-02 3.82232709191439334e-04
8 1 -2.51554448324383881e-02 2.19297629578594713e-04 -5.32404265446100467e-03
8
Step 15000
1 1 -1.34144452875465548e-02 7.63128138104168015e-03 2.00828419401281114e-02
2 1 -2.55685678139872538e-03 1.28296985445744815e-02 -5.05965001381313527e-03
3 1 1.20110769929047761e-03 9.22744330559380378e-05 -5.67933599804358851e-03
4 1 -1.32853243679696316e-02 1.85995736623900364e-02 -3.42786044803686891e-04
5 1 -4.47652831303348847e-03 -1.71766210423173159e-02 -8.91566758744449778e-05
6 1 -7.75308135112585083e-03 5.27072052452377815e-03 6.07678600382982538e-04
7 1 -4.90316958496197792e-03 -1.70998275130213248e-02 -1.09816856766622745e-03
8 1 -2.22319090916809521e-02 -2.42528737242664501e-03 -3.12164784652515679e-03
8
Step 16000
1 1 -9.07933735745179021e-03 1.06521966962192112e-03 7.04454023190966179e-03
2 1 -2.30366124162480418e-03 7.68802229533711683e-03 -4.10671605304949346e-03
3 1 2.51567302019475554e-03 -2.48606606289535027e-04 3.22306098433282427e-03
4 1 2.16777953187787756e-03 1.15409650908287233e-02 -2.68297845344134039e-03
5 1 -1.82442846105689569e-03 -2.03429304062255727e-02 3.57762053883178225e-03
6 1 -1.08750669872679714e-02 5.59773386193716978e-03 9.06092365163250818e-04
7 1 -9.61544083072939267e-03 -1.09688912209417906e-02 -1.04622886053556702e-03
8 1 -9.18994498621403082e-03 -5.62894882289709676e-03 -7.15934762951832022e-04
8
Step 17000
1 1 4.08213841029099380e-04 -9.39843272972328697e-03 -7.76742805391272828e-03
2 1 -4.80283712959824122e-04 -6.95522114288282681e-04 -2.39664168311238797e-03
3 1 1.92516708239814233e-03 9.10027798188420300e-04 1.20544880741476519e-02
4 1 1.75769232926331169e-02 8.89108429531049291e-04 -4.52005157129180875e-03
5 1 6.92258049613046810e-04 -1.32985921986979623e-02 5.91157033809767106e-03
6 1 -1.04112814659673945e-02 3.21030159667617422e-03 1.05144338439416038e-03
7 1 -1.13785113111907182e-02 2.85228285472159540e-03 7.83641833803906738e-04
8 1 5.95546338458922617e-03 -7.44439170951875610e-03 1.17684707016203478e-03
8
Step 18000
1 1 1.16436456981179447e-02 -1.98607244311523531e-02 -1.78891800509110369e-02
2 1 1.37247800597160917e-03 -8.79769688348372783e-03 -2.17937267897873424e-04
3 1 -3.93019121011192317e-04 3.27376620849742983e-03 1.60242096419908851e-02
4 1 2.48284300692723399e-02 -8.07062546453527797e-03 -5.03271442363804888e-03
5 1 2.18559475658087598e-03 -1.55477475018313597e-03 4.01915397659804823e-03
6 1 -6.38143993638098320e-03 -9.15611457369540772e-04 1.01562505587633224e-03
7 1 -9.00044963520370625e-03 2.01868611456265494e-02 3.27770946919212543e-03
8 1 1.74953370061994955e-02 -5.96451930848590148e-03 2.65269306652791840e-03
8
Step 19000
1 1 1.84489079959212418e-02 -2.29594082674134913e-02 -1.82569108521758727e-02
2 1 2.20083912573577857e-03 -1.30707988054134441e-02 1.86633613554070704e-03
3 1 -3.29607484585978106e-03 5.40068290527258993e-03 1.25083935429851582e-02
4 1 1.86756098901051763e-02 -1.21803023550876438e-02 -3.69378568129683036e-03
5 1 2.31212787933942785e-03 9.23578349438576411e-03 -2.62194400956546622e-03
6 1 -5.84319916331766027e-04 -5.24790030892604252e-03 7.98963204746826780e-04
7 1 -3.31134482346183813e-03 3.07665296546560628e-02 5.13260950297916418e-03
8 1 2.12101333336805267e-02 -9.28902265906261099e-04 4.12200484530222174e-03
8
Step 20000
1 1 1.64536863202461754e-02 -1.51933681493152152e-02 -1.01081702538664553e-02
2 1 1.77064365523069904e-03 -1.11264021913547520e-02 3.68549147838317546e-03
3 1 -5.32732494674989943e-03 5.73935913990383968e-03 3.73124505180027349e-03
4 1 5.56098672790531108e-03 -1.06567119512948286e-02 -8.22246476343975333e-04
5 1 1.10493736429187646e-03 1.48510720783647729e-02 -1.13946678966757864e-02
6 1 4.85083977003027220e-03 -8.13458374228163104e-03 4.94661782280627509e-04
7 1 3.54608962084911137e-03 2.40242342295045944e-02 5.58675692740803927e-03
8 1 1.64431388904765913e-02 5.85199518366408527e-03 5.70051452247217257e-03
8
Step 21000
1 1 7.32794290716268486e-03 -1.42401661145260465e-03 -1.55835801387694853e-05
2 1 4.20643862612094064e-04 -4.17372286315370513e-03 5.19529166061614457e-03
3 1 -4.91567272772519721e-03 3.63991840364292487e-03 -5.76881198421910855e-03
4 1 -5.89941494724857685e-03 -5.41368432871485155e-03 2.56304175673169234e-03
5 1 -6.67555779283329829e-04 1.28427476766070567e-02 -1.71338163762206133e-02
6 1 8.20381695358649889e-03 -8.17748308923627043e-03 2.47287923888165142e-04
7 1 9.11701431234940816e-03 8.31948900238827123e-03 4.45344914591505082e-03
8 1 7.50411770084094196e-03 1.13799200327069899e-02 6.68069274948740206e-03
8
Step 22000
1 1 -4.35937226287945890e-03 1.23649346352032279e-02 6.95388314625393009e-03
2 1 -1.25066566378834241e-03 4.04279465810953621e-03 5.71711165421190902e-03
3 1 -1.18434178836463160e-03 -2.45778696337029152e-04 -1.19785710236463006e-02
4 1 -1.12418507820170478e-02 4.64413228510853848e-04 5.13985777776014476e-03
5 1 -2.01088677888519324e-03 5.28678112509943163e-03 -1.49094974346675475e-02
6 1 8.31063846176175250e-03 -5.03225571939829985e-03 1.40569329943635214e-04
7 1 1.11893642112879405e-02 -5.33940433232946241e-03 2.03284701931020573e-03
8 1 -1.22877265022007108e-03 1.26893191507453026e-02 6.11758852911710276e-03
8
Step 23000
1 1 -1.39396530199693263e-02 2.07041141869294780e-02 8.62003122236839128e-03
2 1 -2.33971954792193708e-03 9.98012952863346764e-03 4.61236992915617719e-03
3 1 4.76178854837386919e-03 -4.36024729292128297e-03 -1.24358347594620139e-02
4 1 -9.66214150134790326e-03 4.56846336525914502e-03 5.70320051968645648e-03
5 1 -2.24230184626404315e-03 -3.39094700135513655e-03 -5.12673696119787976e-03
6 1 5.32854644919885257e-03 4.44716568377472477e-04 1.42555282455763144e-04
7 1 8.86287665029257717e-03 -1.35210640270533710e-02 -1.08735459694423082e-03
8 1 -7.66541507794053258e-03 8.87708762856924925e-03 3.33909561260353023e-03
8
Step 24000
1 1 -1.67560327476351315e-02 1.93198162468333247e-02 5.64101966306085941e-03
2 1 -2.36155399794221038e-03 1.12963662620375587e-02 2.02783441458566837e-03
3 1 1.02314885531649032e-02 -6.96749545659691542e-03 -7.65721536100553990e-03
4 1 -3.98045939975546180e-03 5.68449061376376935e-03 3.87491398600146907e-03
5 1 -1.22486877613969900e-03 -9.22000254545151179e-03 7.72930147684222114e-03
6 1 7.52998035144336500e-04 6.49499904305933344e-03 1.03349638212508885e-04
7 1 3.42215006396991324e-03 -1.51086196687616695e-02 -4.15876053739607822e-03
8 1 -1.08803594223751965e-02 1.49509000355065144e-03 -1.92476417449927509e-03
8
Step 25000
1 1 -1.19991685651741047e-02 1.09945034622217896e-02 6.85581266220386225e-04
2 1 -1.41682342822631595e-03 7.67110286402119569e-03 -1.56141086954137472e-03
3 1 1.22320530336184341e-02 -7.05787521223376780e-03 -6.97342426838986999e-04
4 1 1.83260833018443719e-03 3.85411130479947810e-03 4.81617470028918449e-04
5 1 6.27989480909097939e-04 -9.73826024917720870e-03 1.82345329532554376e-02
6 1 -3.37216030855824094e-03 1.06733561238186950e-02 -1.50176774574717808e-04
7 1 -2.44398228030384820e-03 -1.13094589062936474e-02 -6.25774255229852479e-03
8 1 -1.05853438016511366e-02 -6.56415979626704532e-03 -8.73295146901599366e-03
8
Step 26000
1 1 -3.58027710563575945e-03 1.87329884082853941e-03 -3.45467711103004645e-03
2 1 -1.71534115442043174e-05 1.15033949920865033e-03 -5.60000223786141869e-03
3 1 9.17889048815294199e-03 -4.63613480858021329e-03 5.29036166392994178e-03
4 1 4.87642021808666962e-03 2.42184789302828687e-04 -2.88680945457482239e-03
5 1 2.52633853146660243e-03 -5.20519658036304195e-03 2.04163691416956103e-02
6 1 -5.32588706282658038e-03 1.07245584306586584e-02 -7.05363511047165607e-04
7 1 -6.09522787051837781e-03 -5.11470970205099573e-03 -6.59889384943714713e-03
8 1 -7.33568208734140196e-03 -1.21416026052282178e-02 -1.42600702076487416e-02
8
Step 27000
1 1 4.39600284752068252e-03 -4.81172350277190609e-03 -4.94227024467549462e-03
2 1 1.29255597318386263e-03 -5.03411232929289621e-03 -8.81718806155173430e-03
3 1 2.08812578262234077e-03 -8.70294751851515155e-04 8.18289705262603868e-03
4 1 4.08946038948033649e-03 -3.37071237125813241e-03 -4.68713917772527536e-03
5 1 3.60196129410967313e-03 1.51725906353371363e-03 1.32112151518691823e-02
6 1 -4.38934889171879554e-03 6.32584701763825186e-03 -1.49606568755046424e-03
7 1 -6.02773446359949894e-03 7.92610449368238382e-04 -4.94314227006003876e-03
8 1 -2.59046204101010978e-03 -1.26177784642216850e-02 -1.49816419652718264e-02
8
Step 28000
1 1 8.97117996080528876e-03 -8.05875794922990447e-03 -3.37060955052183179e-03
2 1 2.08994470628337927e-03 -8.13070294303270408e-03 -9.57062389007833081e-03
3 1 -6.28848531127377316e-03 2.39186334871025093e-03 7.28425980091435693e-03
4 1 4.06523130974551351e-04 -5.21755723925236038e-03 -4.17127811510908941e-03
5 1 3.18495686973860629e-03 7.16234182989226777e-03 2.07666144579507755e-03
6 1 -1.20742880190413009e-03 -6.14898251891713983e-04 -2.23601350737347854e-03
7 1 -2.49920352274462252e-03 4.53608121242190989e-03 -1.68515685054911025e-03
8 1 2.36747350267956392e-03 -7.80514970047783106e-03 -9.60562881875639055e-03
8
Step 29000
1 1 8.64951187656065774e-03 -8.01479719905127952e-03 1.73693094929351183e-04
2 1 2.29283989787431577e-03 -7.22437494220449627e-03 -7.11566836828168067e-03
3 1 -1.28855633093694771e-02 4.01294192039864522e-03 3.61138398102386470e-03
4 1 -3.95692805893795019e-03 -4.10779138824324003e-03 -1.73632427885577010e-03
5 1 1.19833881603479808e-03 9.42361123011118025e-03 -7.64539985147823058e-03
6 1 2.64327009115667864e-03 -7.30712902090041323e-03 -2.45604170321427236e-03
7 1 2.51064955306263366e-03 5.29013278937614986e-03 2.26842419424867379e-03
8 1 6.65254903871001241e-03 -4.99908460205690693e-04 -1.10519634150500371e-04
8
Step 30000
1 1 4.44656220848673248e-03 -5.86721673894567784e-03 3.76599607029927700e-03
2 1 2.09958347297719118e-03 -3.45330858348841903e-03 -1.99574767302083825e-03
3 1 -1.48952953844418423e-02 4.00788309870665944e-03 -8.95487718511703084e-04
4 1 -6.57185166150989555e-03 -5.65855224524166643e-05 1.18351411423153383e-03
5 1 -1.73383769575735777e-03 7.37339654068232871e-03 -1.25418688176685660e-02
6 1 5.30572983901409900e-03 -1.09559375154510141e-02 -1.75577798430235190e-03
7 1 6.12567384779741809e-03 3.56168521373468033e-03 5.73174603240167880e-03
8 1 9.14732290197034850e-03 5.89020281224226974e-03 1.02965504846560529e-02
8
Step 31000
1 1 -7.28304067359909356e-04 -3.16779725393565633e-03 5.63451619834112218e-03
2 1 1.58998386428276070e-03 1.06959631124167319e-03 4.45938785810225460e-03
3 1 -1.13456748218920302e-02 2.82575872665749572e-03 -4.42446816612034749e-03
4 1 -5.94983341811947813e-03 5.44223817846329477e-03 2.81744447293264541e-03
5 1 -4.59798933664912115e-03 2.07906892664703373e-03 -1.13377458988564630e-02
6 1 5.19827736712828725e-03 -9.82445879818288730e-03 -1.03482883516903063e-06
7 1 5.74071518434015032e-03 8.08149763536256333e-04 7.53489538257092611e-03
8 1 8.67157437707721454e-03 8.90357098611190695e-03 1.75730889574944107e-02
8
Step 32000
1 1 -3.89030877991662421e-03 -9.23765314972890546e-04 4.97019045918610514e-03
2 1 6.68895648090573149e-04 4.25074649800731823e-03 1.03278023514196474e-02
3 1 -4.44315363735712371e-03 1.27190185232878891e-03 -5.73994014650790804e-03
4 1 -2.31475077962955056e-03 9.77893091421342883e-03 2.08099482525439137e-03
5 1 -6.37514710470666636e-03 -4.05786314686007541e-03 -6.10239893949208068e-03
6 1 1.76875633339723670e-03 -4.63412565440709644e-03 2.61806817124789811e-03
7 1 4.01640706066747153e-04 -1.41403673511419177e-03 6.92908738816232217e-03
8 1 5.28424953999762428e-03 7.55616353217333087e-03 1.75923447003706081e-02
8
Step 33000
1 1 -3.35731642771107701e-03 5.56756088352916936e-04 2.13405614563800259e-03
2 1 -7.22692012104637319e-04 4.76329637761738634e-03 1.31706437262200885e-02
3 1 2.65115917217093478e-03 4.86589698839849866e-04 -4.63719615022031503e-03
4 1 2.71572902665100351e-03 1.01597490857743503e-02 -7.47967772389222232e-04
5 1 -6.33095168728277802e-03 -8.50476160305492848e-03 -3.92103608871166359e-04
6 1 -3.92209443505710589e-03 1.91977103202111798e-03 5.49851197936194417e-03
7 1 -8.50769345146779390e-03 -2.02184133413481739e-03 3.98928991243561928e-03
8 1 2.20105302114669010e-04 2.58138809745940903e-03 1.05680438840704168e-02
8
Step 34000
1 1 3.37719767294124068e-04 1.36437817190471840e-03 -1.76112573403401553e-03
2 1 -2.65930688036248794e-03 2.87208154097974957e-03 1.13855807662945185e-02
3 1 7.79328835026564960e-03 7.69614955768894863e-04 -2.02076500702580127e-03
4 1 6.92112078892215179e-03 5.08883815895409819e-03 -4.08096480041861970e-03
5 1 -3.81278957694886718e-03 -9.64204697421694283e-03 3.45013987564463933e-03
6 1 -9.26885997255456721e-03 6.81216118203750200e-03 7.59485064951919645e-03
7 1 -1.67763806588524383e-02 -7.49227908375063091e-04 -4.21014068039107813e-04
8 1 -5.30911179050207790e-03 -3.43360225335846616e-03 8.19220534963544119e-04
8
Step 35000
1 1 4.76438336152375588e-03 1.75971751949911544e-03 -5.27279017085723316e-03
2 1 -5.02944165637666911e-03 1.20437422758084032e-04 5.67304344058351066e-03
3 1 9.83190891186736492e-03 1.53406343745696888e-03 6.54786206376532375e-04
4 1 8.33832294369079782e-03 -4.21991424370598677e-03 -5.62609852666412849e-03
5 1 1.16213821321967158e-03 -7.46396055960845805e-03 4.47653288642282932e-03
6 1 -1.09028199485675520e-02 7.83983091586933252e-03 7.68198748063206923e-03
7 1 -1.77919897428323974e-02 1.65460824707765468e-03 -5.01171915379132558e-03
8 1 -1.00172906572637051e-02 -7.67572882251015779e-03 -7.37714525747017440e-03
8
Step 36000
1 1 6.89670435374028883e-03 2.11081993179308355e-03 -6.85852499221325032e-03
2 1 -6.88640992725513511e-03 -1.99057387099690073e-03 -1.79639719399111455e-03
3 1 8.83159102255377977e-03 1.74770228216579080e-03 2.12172283181322890e-03
4 1 6.34747685533899788e-03 -1.42024114210265676e-02 -3.62470312338368040e-03
5 1 6.75641235002842101e-03 -2.87889988041685127e-03 2.94929808292840453e-03
6 1 -7.10152335022140070e-03 4.77897350877118984e-03 4.86411865466091029e-03
7 1 -8.70426589031827146e-03 3.77338303378647226e-03 -8.35484509363319458e-03
8 1 -1.21482262847366421e-02 -8.63046687638331471e-03 -1.10296731292952865e-02
8
Step 37000
1 1 4.66396880256205772e-03 2.49253472953217276e-03 -5.79726352315890637e-03
2 1 -6.60633785619195273e-03 -2.67596384242509795e-03 -8.57374072635094450e-03
3 1 6.02858140085765076e-03 5.04935532153601976e-04 1.99973360598940803e-03
4 1 1.81171238904155357e-03 -1.93716032849951189e-02 1.99237389898842057e-03
5 1 1.04827298283350946e-02 2.78050699190182313e-03 4.75337392094629598e-04
6 1 5.28866533181872908e-04 -4.21484205674051539e-04 -1.00368093171577816e-03
7 1 6.33469497980288128e-03 4.21184550558019108e-03 -9.12825450498058397e-03
8 1 -1.05215418655752353e-02 -5.37304132767430290e-03 -9.58695998500768559e-03
8
Step 38000
1 1 -1.64087202673639395e-03 2.55883991200451470e-03 -2.59863006800071725e-03
2 1 -3.24777144692119319e-03 -1.98979374384782677e-03 -1.23036920356641745e-02
3 1 3.12168117525208309e-03 -2.37165015053095174e-03 1.25648945712071472e-03
4 1 -3.46963016015069438e-03 -1.51585965464640648e-02 9.30783089713030191e-03
5 1 1.15661004794092494e-02 8.10112345003260841e-03 -7.30993454133457713e-04
6 1 8.39063530123786844e-03 -4.76879681976627445e-03 -8.83261191805695921e-03
7 1 2.04023177294249125e-02 2.31338953769154093e-03 -6.56618778665797598e-03
8 1 -6.07713333815068819e-03 2.40643497237874896e-03 -5.87166138425256837e-03
8
Step 39000
1 1 -9.39444441208709194e-03 1.93507138647172074e-03 1.65611084841269245e-03
2 1 2.43971264245149448e-03 -5.38276740081185864e-04 -1.16860015574099443e-02
3 1 1.24196571205925947e-03 -5.88038532362935608e-03 1.43531878793621138e-03
4 1 -7.28408108516494669e-03 -3.35709957431613469e-03 1.43906377228816551e-02
5 1 9.94832550279356985e-03 1.14082297049690820e-02 3.42705896644973716e-04
6 1 1.25786756875079977e-02 -5.52615165901872932e-03 -1.56272083673403492e-02
7 1 2.53441207491998180e-02 -1.66786715723805934e-03 -5.84401943330578925e-04
8 1 -5.11927464426701435e-04 1.26710169238389465e-02 -2.77443833018540436e-03
8
Step 40000
1 1 -1.45932247885641221e-02 7.15845869705419228e-04 6.37525661193210497e-03
2 1 9.25855135101109894e-03 7.08313912406880754e-04 -7.39036788815727094e-03
3 1 2.83114400145652290e-04 -8.26986391520381087e-03 2.95022756494536451e-03
4 1 -7.94921779248709999e-03 9.94499948713340430e-03 1.31801969806933320e-02
5 1 3.84638689649758302e-03 1.16768090095491200e-02 2.22188819249355060e-03
6 1 1.09206531156166714e-02 -1.87778173821515982e-03 -1.71857169834754853e-02
7 1 1.74209739986609623e-02 -6.72600065530315396e-03 6.74520855788551723e-03
8 1 7.63067271360167061e-03 1.95833228100680545e-02 -2.45494801854540521e-04
8
Step 41000
1 1 -1.36431205610704157e-02 -5.95036264574495626e-04 1.06548284544987701e-02
2 1 1.44704807084445383e-02 1.16895000146578971e-03 -1.42296207548678355e-03
3 1 -7.88916579075587144e-04 -7.88261978983196589e-03 4.88276336966121920e-03
4 1 -5.57756982177431190e-03 1.86458315659283023e-02 5.30368132624167449e-03
5 1 -5.46814609098640689e-03 8.11612883785585090e-03 2.89401581716015356e-03
6 1 5.14674479994655862e-03 4.47745391974437457e-03 -1.21858548860022623e-02
7 1 3.80003589962237074e-03 -1.09035471358912405e-02 1.18538792057877890e-02
8 1 1.72501896405703910e-02 1.69672230640271239e-02 1.83235565257572341e-03
8
Step 42000
1 1 -6.23065534607169635e-03 -1.36709658617120808e-03 1.25408673890433642e-02
2 1 1.40102579226604965e-02 1.02342619864482739e-03 3.88021563167025105e-03
3 1 -2.88453018126605181e-03 -4.26684183588647761e-03 5.44518762262884148e-03
4 1 -1.02006408689553092e-03 1.81567842137521848e-02 -6.47178773224550870e-03
5 1 -1.32878525559693116e-02 6.43736430021975173e-04 2.08865435402846421e-03
6 1 -1.90991186671765384e-03 1.09867182450664770e-02 -2.29382436240452075e-03
7 1 -8.71513103025126773e-03 -1.17467473306429367e-02 1.13673320748954518e-02
8 1 2.21979007839574263e-02 5.24747644882991686e-03 1.75220849883106185e-03
8
Step 43000
1 1 4.69208256818947310e-03 -1.21931473069106775e-03 9.40564993270417635e-03
2 1 7.11242914540140183e-03 7.10937492724746773e-04 6.73332773722870592e-03
3 1 -6.13918185241606965e-03 1.46006154315290473e-03 3.26758220547480579e-03
4 1 4.30583226008483810e-03 9.50788281598228743e-03 -1.76027643579550024e-02
5 1 -1.66971140240686905e-02 -8.98810909089217680e-03 -2.79558242899755332e-04
6 1 -7.31704378097067492e-03 1.40242683523046918e-02 8.40709250624009988e-03
7 1 -1.62259557893883813e-02 -7.60300031206548408e-03 4.93815356732370692e-03
8 1 1.74380250584030734e-02 -9.74306807368023609e-03 9.53889525607294424e-04
8
Step 44000
1 1 1.53384082531364194e-02 -1.54583887970776546e-04 1.20916759106345158e-03
2 1 -3.05171150361434329e-03 6.99641148214198488e-04 6.97954741669562419e-03
3 1 -9.44592941139331399e-03 7.28568615786050373e-03 -2.05849216345854995e-03
4 1 8.17537026223310627e-03 -1.81086845148313883e-03 -2.11540978447521295e-02
5 1 -1.48302865965545018e-02 -1.74865880748142424e-02 -4.09220619007643303e-03
6 1 -8.36179625015738039e-03 9.60144454002004669e-03 1.60544499348814276e-02
7 1 -1.65018666439914440e-02 1.18966220319344251e-03 -4.96112440925567874e-03
8 1 5.75460014709264136e-03 -2.12026894367951663e-02 1.49232136062095715e-03
8
Step 45000
1 1 2.06051170003983125e-02 7.16081852883521000e-04 -8.90285608989125829e-03
2 1 -1.23747127938314168e-02 1.09254497883843802e-03 5.30543810658247374e-03
3 1 -1.05762968137968622e-02 1.09605170814164685e-02 -9.01506274797100014e-03
4 1 8.92754749228883739e-03 -9.94762491167186513e-03 -1.46027752380472400e-02
5 1 -7.87497429900034344e-03 -1.99740990437359198e-02 -7.63197502933141321e-03
6 1 -5.33340806777222228e-03 -3.72676443652343852e-03 1.86337972180508592e-02
7 1 -1.04739126010353085e-02 1.23552419494111151e-02 -1.32364480862435414e-02
8 1 -7.32425726028731409e-03 -2.29029246335824450e-02 2.20783413996488006e-03
8
Step 46000
1 1 1.66649802041695556e-02 -2.02021094664977391e-04 -1.74359815079696279e-02
2 1 -1.67943171884761752e-02 1.35376041072808443e-03 2.91725247854523291e-03
3 1 -7.84810872880301567e-03 1.09569085815828856e-02 -1.40101453666746610e-02
4 1 6.75752244963774475e-03 -1.10764150570126091e-02 -3.34462023555621513e-03
5 1 1.61015182459018301e-03 -1.37552831240574588e-02 -7.89373256863029789e-03
6 1 -1.22264943751631714e-03 -2.25576641851726219e-02 1.60653577058482572e-02
7 1 -1.73864143477109019e-03 2.10824240360377446e-02 -1.45722189638750488e-02
8 1 -1.65375982860187024e-02 -1.47469319176350856e-02 2.72684596687221628e-03
8
Step 47000
1 1 6.75232201441069730e-03 -2.92549782439856893e-03 -2.02803637234145219e-02
2 1 -1.38515171311865432e-02 8.70331071893590377e-04 1.56765429226299454e-03
3 1 -1.61036174809254563e-03 7.36155007625310769e-03 -1.31970224168651371e-02