8
Step 0
1 1  4.052544475837e+02  -1.675809854899e+02  -1.674253473881e+02 
2 1 -3.252733251822e+02  -4.058306801299e+02   3.449496393584e+02 
3 1 -3.298276480734e+02  -2.315521310585e+02   3.857067433746e+02 
4 1 -2.368981464688e+02  -6.011436389706e+01   2.908889807614e+02 
5 1  3.310611029335e+02  -2.496222871887e+02   2.526020779567e+02 
6 1  6.607347117330e+02   6.752227081102e+02  -2.237105605333e+02 
7 1  2.971175608438e+01  -3.328807514274e+02  -4.215876651945e+01 
8 1 -9.995323181877e+01  -4.043738968622e+02   4.440375091108e+02 
8
Step 1000
1 1 -3.053553689525e+02   5.930890017472e+02  -2.295481466478e+02 
2 1  9.383009392807e+01   1.259793381932e+02  -7.368987445823e+01 
3 1  3.533304260267e+02  -1.749566090693e+02  -7.134108373914e+01 
4 1  2.492236389621e+02   6.193920227831e+02   2.307472398567e+01 
5 1  2.594554500853e+01   4.640112056699e+02   3.718619750155e+01 
6 1 -1.897800868555e+02  -2.911453641747e+02  -1.495904342795e+01 
7 1 -1.344069467217e+02  -4.193100152224e+01   4.757712891599e+01 
8 1  2.125877174080e+02  -3.922097787924e+02  -4.363485040703e+02 
8
Step 2000
1 1 -9.580000602869e+01  -3.338847358903e+02  -1.489571914172e+02 
2 1  2.135843466417e+01   8.965014378042e+01   1.964030629090e+02 
3 1  1.037606435195e+02  -8.117774725999e+01   3.943930131879e+02 
4 1  2.761682142817e+02  -3.325017429745e+02  -3.314230007974e+02 
5 1  3.880477676430e+01   1.224094325263e+02   1.559743175138e+02 
6 1 -5.875505994802e+01  -1.431174046223e+02  -7.678741482697e+01 
7 1  4.697652692605e+02  -1.339301556219e+02   2.969530356763e+01 
8 1 -5.144865385530e+02   8.880147824842e+01  -1.412938466242e+02 
8
Step 3000
1 1 -1.106580224910e+02  -1.350320595603e+02  -1.666095986326e+02 
2 1  1.253823342482e+02   1.372186456803e+02  -2.499779231369e+02 
3 1  7.965473937252e+01  -4.219733002338e+02  -5.228219755164e+02 
4 1  2.887082912487e+02   2.938945529808e+02   6.547348506574e+02 
5 1  2.408064492277e+02   1.611690774434e+02  -3.219968633737e+02 
6 1 -5.690905723407e+02  -3.764101764764e+01  -7.012843359757e+00 
7 1 -2.930766367588e+02   4.647908378864e+02   1.734261282167e+02 
8 1  3.436635190571e+02  -2.375768427989e+02  -1.764983452672e+02 
8
Step 4000
1 1 -6.295727965609e+01   9.983822564566e+01  -2.930398047369e+02 
2 1  1.335625645039e+02  -2.987871995593e+01  -3.830920023743e+01 
3 1  2.115522569117e+02  -1.128919913544e+02   1.613775560768e+02 
4 1 -1.362316830122e+01  -1.551075054364e+02  -3.349861011872e+02 
5 1  1.389237590567e+02   2.826849911012e+02   3.185647652152e+02 
6 1  1.386271733744e+02  -2.608310598113e+02  -4.252600722648e+02 
7 1 -2.545576742730e+02  -1.645595264726e+02   9.550335325232e+01 
8 1  4.641368753233e+01  -2.301862691931e+02  -3.635057582447e+02 
8
Step 5000
1 1 -2.710112901897e+01   2.232687711516e+02   1.929552189661e+01 
2 1  2.499816355661e+02  -2.338799970944e+00  -3.526254463560e+01 
3 1 -5.433600405177e+02  -3.542611261867e+02   1.075438789870e+02 
4 1  3.568012202606e+02   2.889116004792e+02   3.312565688210e+02 
5 1  2.916209129443e+02  -2.648802370183e+02  -4.403154524143e+02 
6 1 -1.419006928819e+02   3.472163777147e+02   2.495478229006e+02 
7 1 -2.721587589731e+02   1.862889226293e+02   3.437071655554e+01 
8 1  4.098104906790e+02  -6.670975808234e+02   5.981057833585e+01 
8
Step 6000
1 1  3.068707370563e+02   2.716297848101e+02  -3.942946559683e+02 
2 1  5.400258337400e+02   1.534773253713e+02   2.348045537921e+02 
3 1  3.674369116216e+02  -3.708237189815e+01   2.118068619424e+02 
4 1 -2.234281187011e+02   1.850735503284e+01  -4.829973702023e+02 
5 1 -3.784862442734e+02   2.861067022095e+02   4.860695644908e+02 
6 1 -4.129496485533e+02  -1.379456408694e+02  -8.978967952965e+01 
7 1 -2.235253414716e+02  -1.423084305861e+02   1.665066495160e+02 
8 1 -1.937870125743e+02   2.720689254944e+02  -3.741796095467e+02 
8
Step 7000
1 1  2.414951241022e+02  -1.926204840040e+02  -5.550725460861e+01 
2 1  1.160065323302e+02   1.763690632036e+02   3.494148905365e+02 
3 1 -6.259820130145e+02  -3.250955411956e+02   4.588542009494e+02 
4 1  1.498302060758e+02   1.660450619829e+01  -9.697158443732e+01 
5 1  1.444037742616e+02  -1.244743009192e+02  -8.515791415726e+01 
6 1  1.002490272282e+02  -1.745586561611e+02  -1.302403322278e+02 
7 1  3.471989560335e+02  -1.125189775345e+02  -1.772157311369e+02 
8 1  1.395272233868e+02   2.270159307066e+02   1.407391401189e+02 
8
Step 8000
1 1  2.182206139821e+02   4.163070419860e+02  -3.198403870107e+02 
2 1  2.291867726080e+02   2.995077730754e+02  -2.986675057541e+02 
3 1  1.041388235945e+02  -3.012889763491e+02  -9.382064887020e+01 
4 1 -3.413297734660e+02   3.665364766922e+02  -2.211873172953e+02 
5 1 -4.833535999186e+02   4.741971864976e+02   4.666416920204e+02 
6 1  1.828637054849e+02   2.355950631324e+02   2.589123788880e+02 
7 1 -2.829566951505e+02   5.175450910761e+02   3.854196011115e+02 
8 1  7.836588456362e+01  -2.163292575729e+02  -4.784288270843e+02 
8
Step 9000
1 1  1.698448465390e+00   1.253353043405e+02   2.741536566362e+02 
2 1 -1.784202059563e+02   8.759883652383e+01   1.597777785476e+02 
3 1 -1.360434260367e+02  -4.056381981934e+02  -1.204423837351e+02 
4 1  1.966153463539e+02   1.910144721534e+02  -7.345111796984e+01 
5 1  3.640856932247e+01  -1.836302848132e+02   2.217418117913e+02 
6 1 -1.506956903502e+02  -4.223764869851e+02  -3.282110365654e+02 
7 1 -2.140963404807e+02   3.449725584327e+02  -5.628437347464e+02 
8 1 -1.071095258266e+02  -6.532173122850e+01   6.328398504490e+01 
8
Step 10000
1 1  3.748727174593e+02   1.387350581050e+01  -2.874622733292e+02 
2 1 -1.458217728675e+02   1.697357168283e+02   3.825848306304e+01 
3 1  1.095218224653e+02  -2.555151740680e+02   1.830305559167e+02 
4 1 -5.108211199020e+00   4.440124921551e+02   2.444221518419e+02 
5 1 -4.377997515637e+02  -1.914077476142e+02   1.125004333171e+01 
6 1  2.880217890909e+02  -5.421746025673e+01   4.674011334115e+00 
7 1  7.967217735801e+01  -1.339535792397e+01   2.801754176462e+02 
8 1  3.997194961348e+02   2.841597499760e+00   3.530185566582e+02 
8
Step 11000
1 1 -3.824648072071e+02   4.932292432501e+01   4.876699028680e+02 
2 1  1.290014458726e+01  -4.495982093982e+02   2.582452242906e+02 
3 1  2.289458556055e+02   4.037361458006e+02  -1.980930823966e+02 
4 1 -2.252984253380e+02   2.237554612871e+02  -1.646197568611e+02 
5 1  2.363928738549e+02  -3.865959480545e+02  -1.252578418171e+02 
6 1 -2.267410018588e+02  -4.079560305831e+02  -3.082797909822e+02 
7 1 -1.863467375090e+01   5.740072386540e+02  -8.905686007542e+01 
8 1 -2.040057796753e+02   4.212207707387e+02  -1.339644035358e+02 
8
Step 12000
1 1  6.053838803988e+02  -2.957215063033e+02  -2.745479359753e+02 
2 1 -3.699597960208e+01   5.207676044301e+02   1.748677792079e+02 
3 1 -4.618399214692e+02   9.748715862159e+01  -1.361598506251e+02 
4 1  2.733392435570e+01  -1.313683957685e+02  -3.213876247394e+02 
5 1 -1.192237950680e+02  -1.376618254731e+02  -3.797491418900e+02 
6 1  3.659132282194e+02   4.317155869632e+01   1.654459913909e+02 
7 1  4.113943781273e+02   2.894546560914e+01   2.226838419984e+02 
8 1 -1.497530113403e+02  -2.059462792292e+02   1.245826405038e+02 
8
Step 13000
1 1 -7.059979581916e+01   1.203669379910e+02   3.536130673440e+02 
2 1  4.596738022357e+02  -1.983501332171e+02   5.885242302150e+01 
3 1  9.522397339586e+00   1.398374836085e+02  -3.027110315831e+02 
4 1 -4.040406853673e+02  -4.161754704656e+02   3.874888836799e+01 
5 1  1.975338813358e+02   2.330738121457e+01   1.641469376032e+02 
6 1 -4.994298434751e+02   4.156023236831e+02   2.494226081844e+02 
7 1  4.172929318615e+01  -1.313721193378e+02  -7.028739731985e+01 
8 1 -5.127638558581e+02   5.455923682885e+00  -4.143733907047e+02 
8
Step 14000
1 1 -4.205057964033e+00  -2.326901483154e+02  -2.761337307987e+02 
2 1 -2.018001339387e+02   1.854924534146e+02   3.296830930346e+02 
3 1 -6.071927679669e+02  -5.900119141736e+02  -1.511250298894e+02 
4 1  4.464757650897e+02   1.014037547417e+02  -6.512335262508e+01 
5 1  3.688878113341e+02   3.506052534846e+02  -3.067708429416e-01 
6 1  6.223285983954e+01  -7.548719079014e+01  -5.831935026251e+01 
7 1  1.261156111780e+02  -3.629840703637e+02  -3.461591632097e+02 
8 1 -1.837833968804e+02   9.071519958896e+01   2.099048348629e+02 
8
Step 15000
1 1 -4.886302777353e+01   3.737708564195e+02   7.558946648593e+00 
2 1  7.235063790150e+02  -1.593502379301e+01   1.208293496154e+02 
3 1  2.663151690994e+02   1.549283129535e+02  -7.581848847179e+02 
4 1  2.052281761582e+02   2.951577319585e+02   3.018938445044e+02 
5 1 -4.463376698987e+02   4.300413929286e+02  -1.808568763583e+02 
6 1  4.837255674053e+01  -9.593895689044e+01  -2.911004982273e+02 
7 1 -3.002489375215e+02  -9.493611022731e+01   1.703178725416e+02 
8 1  5.691087915472e+00   1.774773815185e+02   2.254617989760e+02 
8
Step 16000
1 1  2.167755215275e+02  -3.221003326231e+02  -2.227246203552e+02 
2 1 -3.907838319736e+02  -3.049983045553e+02  -4.509916521021e+02 
3 1 -3.551526752319e+02  -2.780310603986e+02  -8.467801772130e+01 
4 1 -7.595004183094e+01  -3.763211904682e+02  -3.081534131332e+02 
5 1  1.113735096259e+02   8.713384527768e+01  -6.115608966190e+01 
6 1  4.054983610357e+02   1.530924984078e+02   2.060301928644e+01 
7 1  2.332847040996e+02   1.908603270433e+02   3.579304713713e+02 
8 1 -3.795503274989e+02  -7.042844557086e+00  -1.764382211383e+02 
8
Step 17000
1 1 -1.103489207686e+02   1.930378185807e+02   1.096712017958e+01 
2 1  3.268624976248e+02   2.700165196531e+02   1.770750855884e+02 
3 1 -1.892389875973e+02   2.281062398632e+02  -5.533407664985e+02 
4 1  4.364615057223e+02   3.235428810378e+02   3.089794269704e+02 
5 1 -1.507461816473e+02  -5.314598374029e+02   1.974897877208e+02 
6 1  4.840165021127e+02   2.524340490271e+02   2.340323280354e+02 
7 1 -3.101218081716e+02   3.178399388887e+02   1.209400849013e+02 
8 1  3.899800026517e+00  -3.838673663561e+02  -3.377391175188e+02 
8
Step 18000
1 1 -1.332293464365e+02  -5.902586257252e+01  -1.379025014928e+02 
2 1 -1.030613461025e+02  -2.244020896589e+02   2.254900903084e+01 
3 1 -9.631806341836e-01   7.958669243926e+01   2.899793040561e+02 
4 1 -1.070533721152e+02  -3.774642943575e+02  -2.367918115947e+02 
5 1 -2.277516967001e+00  -2.674666105538e+01   5.526010701195e+01 
6 1 -1.351496857206e+02   3.141733039388e+02   3.545877275128e+02 
7 1  1.311607552352e+02  -5.544793594887e+02  -3.082696087703e+02 
8 1  5.624032994509e+01   2.979158827385e+02  -2.750207999416e+02 
8
Step 19000
1 1  5.529917901417e+01  -2.392008909338e+01   1.317917979926e+02 
2 1  9.008568433865e+01   5.144981412056e+02   7.783863761563e+01 
3 1 -1.222227131317e+02  -1.076584090313e+02  -2.902589485744e+02 
4 1  5.148631591791e+02   3.989927572387e+01  -5.501158952537e+01 
5 1  1.481048675700e+02  -3.712332996352e+02  -3.303945922044e+01 
6 1  1.024244098236e+02  -3.816621749336e+01  -3.497154472977e+02 
7 1  1.309010645995e+01   2.105615591350e+02  -2.816885679691e+02 
8 1  4.364683689790e+02  -1.889991228131e+02   7.142973811995e+02 
8
Step 20000
1 1 -4.634259962157e+02   1.380900153255e+02   7.323339739754e+01 
2 1  2.051774154247e+01  -4.032388889267e+02   1.858459509228e+02 
3 1  2.609704728984e+02  -2.431393763725e+02   3.778813391509e+02 
4 1 -2.145757578715e+02   9.169740217276e+01   2.815947825340e+02 
5 1 -3.177478141480e+02   4.456253379113e+02   1.674938777172e+02 
6 1 -2.794415121192e+02  -6.787338060734e+02   3.256416613399e+01 
7 1  1.532988584397e+02  -2.681689351028e+01   2.349082837110e+02 
8 1 -2.555521084692e+02   6.134951819503e+01   5.249355824857e+01 
8
Step 21000
1 1  3.220889373911e+02  -3.672599375796e+02   1.037488038163e+02 
2 1 -1.697206452745e+02   3.565876406701e+02  -1.450854086797e+02 
3 1 -6.538021185360e+02   1.896352802889e+02  -1.706701193983e+02 
4 1  1.463982852148e+02  -3.123285063437e+02  -3.753865573953e+01 
5 1  5.747839777533e+02  -2.443936407966e+02  -5.043888338047e+02 
6 1  1.247717270437e+02  -2.293648018415e+01   1.031026947411e+01 
7 1  6.518494360876e+01  -1.236823657381e+02   4.492750215289e+02 
8 1  1.196058402437e+02  -7.547260962013e+02  -2.698236517104e+02 
8
Step 22000
1 1 -3.162161847107e+02   1.513309384469e+02   2.117856156787e+02 
2 1  1.470674959236e+02  -6.955047691062e+01   3.510169812435e+02 
3 1  3.418026169419e+02   6.614062366671e+01  -2.767477524175e+01 
4 1  1.352866075508e+02   6.273902004405e+01   3.790942874699e+02 
5 1 -3.468059898972e+02   1.349439320972e+02   2.118663061759e+02 
6 1  4.070250449014e+02   1.093704201150e+02   4.728405932301e+01 
7 1 -5.919473253710e+02   9.490679895759e+01  -6.236032562457e+01 
8 1  1.313867967211e+02   2.770963981271e+02  -1.936226480297e+02 
8
Step 23000
1 1  3.819698655527e+02  -3.102956195100e+02  -2.714314914837e+02 
2 1 -1.675611245029e+02  -1.065117887143e+00  -6.775547598905e+01 
3 1 -2.968472116286e+02  -1.523090851225e+02  -6.453725672833e+01 
4 1  8.395646709849e+01  -3.789488359855e+02  -3.544741945528e+02 
5 1 -5.023612710319e+01  -7.517023703684e+01  -1.936914954627e+02 
6 1 -2.158962773736e+02   2.624286137756e+02   1.025988370911e+01 
7 1 -1.256911667660e+00  -3.560446015407e+02   1.448309172719e+02 
8 1  1.625266715020e+02   1.632971321169e+01   3.003678543436e+01 
8
Step 24000
1 1 -8.704388813338e+01   1.467432763747e+02   3.142895685823e+01 
2 1  1.311824312100e+02   1.942952075821e+02   4.489076134737e+02 
3 1  3.323859878658e+02   3.073707060856e+02  -1.435242509257e+02 
4 1  2.613593080369e+01   2.851259753537e+02   4.381645317597e+02 
5 1 -1.942473097899e+02   1.539842297208e+01   1.137694117699e+02 
6 1  4.991300078247e+02   8.405411680328e+01  -6.258912721477e+02 
7 1  5.225738788567e+01  -4.205709373352e+01  -5.983902281570e+01 
8 1  7.329336543146e+00  -7.564714985157e+01   2.871149039198e+02 
8
Step 25000
1 1 -3.846582589917e+02  -3.504966684432e+02  -3.201359113161e+02 
2 1 -4.353038333091e+02  -1.256417225456e+02  -2.114572351956e+02 
3 1 -5.112542847245e+01  -2.320433465594e+02  -2.603024781487e+01 
4 1 -3.589625296115e+02  -2.089147269111e+01  -1.003463826553e+02 
5 1  9.330506834486e+01   6.823882269567e+01  -1.297402269782e+02 
6 1 -4.411444445670e+02  -4.353295416062e+02   1.452360886997e+02 
7 1 -1.806169521106e+02  -7.339338932490e+00   5.101067643238e+02 
8 1 -7.368218046808e+02   1.406957369017e+02  -4.426441041700e+02 
8
Step 26000
1 1  3.315281315910e+02   3.545283229371e+02   1.149925825445e+00 
2 1  4.687691411150e+02   2.068894739998e+02   2.246679487238e+02 
3 1  3.137078446356e+02   2.768597279282e+02  -4.222266541252e+02 
4 1  3.957961939903e+02   2.820585633041e+02   6.724714005049e+01 
5 1  6.937537763499e+02  -4.301944975280e+02   3.431947759288e+02 
6 1  5.848498441878e+01  -1.753136240762e+02  -3.020488410181e+02 
7 1  3.914097931626e+02   2.571488884311e+02   9.271064225583e+01 
8 1 -7.480365870672e+01  -5.752286558212e+01  -1.544040599648e+02 
8
Step 27000
1 1 -1.380205514373e+02  -3.522185948122e+02  -2.130363192686e+02 
2 1 -2.561016921369e+02  -8.358622297348e+01  -1.571579303059e+01 
3 1 -4.643627245477e+02  -7.004156298067e+02   1.523139674200e+02 
4 1 -2.823712511969e+02  -3.743246843315e+01   3.299787613823e+02 
5 1 -4.646076140739e+02  -1.603152205633e+02  -2.890225145893e+02 
6 1 -5.362702661717e+02   2.803267167817e+02   1.692652871068e+02 
7 1  9.320714654470e+01   3.000690899721e+02   1.320298640710e+02 
8 1 -1.800730826359e+02  -9.534924973720e+01  -6.057428672690e+01 
8
Step 28000
1 1  6.954737065465e+02   1.763063325871e+02   1.608057690733e+02 
2 1  2.880631156479e+01   2.052374072238e+02   2.151819506787e+02 
3 1  7.838819239059e+01   2.774222709777e+02  -2.095820309183e+02 
4 1  2.680408553391e+02   1.372436229994e+02  -2.970759160889e+02 
5 1  8.829735898403e+01  -1.854550767268e+02   2.594375875720e+02 
6 1 -2.646793218721e+02   2.951281491154e+02   1.554841537093e+01 
7 1  8.439434431383e+02   1.847213516948e+02  -1.581975463148e+02 
8 1  3.391240686320e+02  -4.439894015123e+02   4.162566349360e+01 
8
Step 29000
1 1 -3.280020720321e+02  -1.671568590989e+02   1.960312820922e+02 
2 1 -1.163709392947e+02   4.540760142059e+01   1.481560861458e+02 
3 1 -2.044131839091e+02  -4.684851723039e+02   2.822817011558e+02 
4 1 -3.343227903463e+02   2.193499169023e+01  -3.757406546646e+00 
5 1 -1.364504746383e+02   2.350948234243e+01   3.674444790349e+00 
6 1  1.019141921213e+02   4.629401896423e+02  -1.092738963468e+01 
7 1 -3.018652742411e+01   9.629268920234e+01  -3.470182474433e+02 
8 1 -1.452677881894e+01  -7.228371204924e+01   3.166181479781e+02 
8
Step 30000
1 1  3.083067429981e+02   1.345092424951e-01   3.954897088118e+02 
2 1 -6.567484147701e-01   1.192117592989e+02  -2.455731371086e+02 
3 1 -1.117551225496e+02   3.530165130214e+02  -2.225425727073e+02 
4 1  1.771355033179e+02   3.126487614762e+02  -1.365789781523e+02 
5 1  1.692762098370e+02   8.564742551827e+01  -3.457337146368e+02 
6 1 -1.684213465244e+02  -5.701323298352e+02   6.485193344196e+02 
7 1 -8.505049913192e+01  -9.041225686133e+01  -2.696995650436e+02 
8 1 -3.556134985907e+02   1.004782172046e+02  -1.316652798014e+02 
8
Step 31000
1 1 -2.599917686983e+02   1.304451511453e+02  -9.082596831669e+01 
2 1  1.678963994510e+02  -3.641985170095e+02   4.266417194688e+02 
3 1  7.084232973629e+01  -3.516402816885e+01   9.578400145686e+01 
4 1 -1.373441504906e+02   5.617996626031e+02  -2.144825180621e+02 
5 1  1.420637511518e+02   1.183420465783e+02   3.461553508421e+02 
6 1  6.585086269089e+02  -2.198496070092e+02   5.265635885843e+01 
7 1  6.034688254918e+01  -2.600494248702e+02  -1.308240902671e+02 
8 1  3.971995411182e+00   3.008166697609e+02   4.320590786946e+02 
8
Step 32000
1 1 -2.218738820192e+01  -3.884819133064e+02   4.407884204067e+02 
2 1 -3.232648145578e+02   3.204966265226e+02  -2.151997187072e+02 
3 1 -6.160063703239e+01   9.361560854334e+00  -6.462322094525e+02 
4 1  1.196785664518e+02  -2.111929251931e+02  -5.347960713710e+02 
5 1 -4.201152474716e+02  -2.056522067912e+02   2.488684157572e+02 
6 1 -3.116166003237e+02  -2.312504361981e+02   1.471393096158e+01 
7 1 -2.762303466682e+02   9.655530125287e+02  -1.049542083275e+02 
8 1  7.536326059587e+01  -1.426547329761e+02  -1.636732970961e+02 
8
Step 33000
1 1  4.695565040078e+01   3.064854473414e+02   3.623663668338e+02 
2 1  3.097360299862e+02  -7.376127050979e+02   1.850410675340e+00 
3 1  2.281415094589e+02   8.352355837010e+01   2.834269304787e+02 
4 1 -7.524961708990e+01   4.542908951214e+02   3.601516246271e+02 
5 1  3.411099518685e+01  -2.464792582805e+02   1.203808686963e+02 
6 1  1.781713580838e+02   2.957770352930e+02  -3.330210936085e+02 
7 1  2.803642260943e+01  -1.803989772851e+02  -1.544177725618e+02 
8 1  1.933033661663e+02  -5.716700007763e+02   3.205701197176e+02 
8
Step 34000
1 1 -1.471427459522e+02  -4.473463653907e+02   2.614337200911e+01 
2 1 -2.204364176204e+02   3.363940662312e+02  -2.910603810228e+02 
3 1  1.380381995751e+02  -1.946948050607e+02  -2.225965325753e+02 
4 1 -6.673370662192e+02  -2.078978206913e+02  -2.313954226041e+02 
5 1  8.182522722644e+01   8.791671744733e+01  -4.477644697793e+01 
6 1  1.207536650369e+02   2.865352896219e+02   2.961242474442e+01 
7 1 -5.206735990365e+02  -2.708791208686e+02   3.514687090053e+02 
8 1 -8.836389355944e+01  -8.113814367458e+01  -5.775269348544e+01 
8
Step 35000
1 1  1.066584278945e+02   3.260775762602e+02   3.613356375248e+02 
2 1  2.115983298492e+02  -9.236969325685e+01   3.459745625667e+02 
3 1  5.420546522529e+02   2.697370230678e+02   1.005431102114e+02 
4 1 -7.761886028442e-01   3.580376300623e+02   2.629471532454e+02 
5 1 -6.927773143178e+00  -8.409212993534e+01  -3.401723839293e+02 
6 1 -1.484319045600e+02  -1.543048691214e+02   3.467718612409e+02 
7 1  3.256427968925e+02  -1.656531494617e+02  -3.674098558264e+02 
8 1 -2.038569910383e+01   2.594313694681e+02  -2.762425594866e+02 
8
Step 36000
1 1 -2.265794026181e+02  -2.060762116318e+02  -1.040229976965e+02 
2 1 -3.112139772049e+02   3.544792086346e+02   3.278020629480e+01 
3 1 -7.660892255633e+01  -4.537075233447e+02  -5.060071323484e+01 
4 1 -3.392094820245e+02  -3.278608117923e+01  -3.219852170900e+02 
5 1  5.415742847776e+02   1.756303086973e+02   2.481942451244e+02 
6 1 -4.764479883162e+01   2.722398151305e+01   3.804057677283e+02 
7 1 -2.807528245484e+02  -1.964225619157e+02   8.234336252079e+01 
8 1 -2.413586590821e+01   3.592274959433e+02   3.293941678199e+02 
8
Step 37000
1 1  7.770382928422e+01   1.337666563540e+02  -3.109233224045e+01 
2 1  1.883575312946e-01  -3.817008467840e+01  -7.403976111893e+00 
3 1  4.454428917047e+02   3.251787932579e+02  -2.735525622524e+02 
4 1  3.533224125087e+02   4.506222611461e-01   2.709842040653e+02 
5 1 -4.527741199615e+02  -2.595774575369e+02  -4.305843993499e+02 
6 1 -6.026736327670e+02  -3.241861225400e+02   3.084205920748e+02 
7 1  1.888644115892e+02   1.906832838713e+02  -2.951930462080e+02 
8 1  3.753034857198e+02   2.112817370510e+02  -1.635722719669e+02 
8
Step 38000
1 1 -3.322448555641e+02  -1.389795601271e+02  -2.351220238607e+02 
2 1  1.089061236175e+02  -4.379042532921e+01   5.727004090659e+02 
3 1 -4.359786453221e+01  -4.475445371482e+02  -1.512098527914e+02 
4 1 -2.456941969953e+02  -9.858269837382e+01   1.511189106732e+02 
5 1 -9.825982685866e+00   5.192031216741e+01   3.853143189500e+02 
6 1  3.316816938871e+02  -1.711721803183e+00  -2.349630981987e+02 
7 1 -3.974006560667e+01  -1.363075627405e+02  -1.246466628627e+02 
8 1 -3.160010212995e+02  -4.327444715984e+02   3.500966371410e+02 
8
Step 39000
1 1  3.692049593159e+02   8.784477036386e+00   1.717020267283e+02 
2 1 -4.086969074407e+02   2.152996852103e+02  -1.103144562908e+02 
3 1  1.492987390607e+02   8.918995084189e+01  -2.684979665509e+02 
4 1  2.753831937100e+02  -3.326657104221e+02   3.684674910572e+02 
5 1  6.537560661951e+01   2.497047755337e+02  -3.680661984597e+02 
6 1  2.056344029238e+02  -2.526845993215e+02   5.776293897202e+01 
7 1 -9.789374494501e+01   1.886531028453e+01   1.928146229240e+02 
8 1  2.632682436597e+02   1.102225995672e+01  -3.610566650470e+02 
8
Step 40000
1 1 -2.979993163021e+02  -1.088155115434e+01  -4.682056817423e+02 
2 1  2.090330375561e+02  -4.833047568712e+02   3.726303301941e+02 
3 1 -1.588436851306e+02  -3.154853147304e+02   2.167791054337e+02 
4 1  1.918693401381e+02   5.820064366730e+02  -4.380946123390e+01 
5 1 -1.782158255816e+02  -5.799006410084e+00   1.774874283952e+02 
6 1 -5.560376409221e+01   4.155751846658e+00   3.094248975792e+02 
7 1  7.054544606945e+01  -2.805293748436e+01  -3.224356614566e+02 
8 1 -1.502697416517e+02  -1.343990672581e+02  -3.755351125372e+02 
8
Step 41000
1 1  1.093643558017e+02  -1.650803330927e+02   6.182297948089e+02 
2 1 -2.502352401459e+02   3.324249801386e+02  -3.096145700907e+02 
3 1  7.163448424978e+01   7.564285353140e+01  -4.068628933042e+02 
4 1  2.438858630075e+02  -4.674457546632e+02   9.436289304886e+01 
5 1  2.717509921951e+01   1.903779085444e+02   1.613735142796e+02 
6 1 -6.385074449644e+01  -4.122969084765e+02  -1.235157870778e+02 
7 1 -2.776646885065e+02  -1.561755355624e+02   2.205470200463e+02 
8 1  2.475186955144e+02   1.893426683937e+02  -1.798322332584e+02 
8
Step 42000
1 1  1.123596205839e+02   5.742842454028e+02  -1.950196542308e+02 
2 1  4.282369198700e+02  -2.620184727260e+02   2.913247625752e+02 
3 1  1.971075885553e+02  -1.950335423558e+02   3.224582588331e+02 
4 1  3.471547080556e+01   3.934269588171e+02   1.281609839456e+02 
5 1 -7.227542058535e+02  -3.092929031568e+02   9.458091482497e+01 
6 1 -4.270769374139e+02  -1.154385459049e+02  -5.883700385998e+01 
7 1  6.008973915260e+02   4.698098188520e+02  -4.138927132233e+02 
8 1  1.140141109374e+02   6.669818601160e+01   5.196405657663e+01 
8
Step 43000
1 1  2.534173397815e+01  -3.346947462747e+02   1.996381766831e+02 
2 1 -2.111999511338e+02   2.011338252920e+02  -2.053217537178e+02 
3 1 -4.012042098195e+02  -1.343649978755e+02   2.313546249624e+01 
4 1 -2.284971292369e+02  -2.048341656894e+02  -3.837295169682e+02 
5 1 -1.125201554291e+02   5.436792167101e+02   4.660284604067e+02 
6 1  3.493462159421e+02   2.982496847155e+02  -3.110915366884e+02 
7 1 -1.408550167762e+02   3.808468119957e+02   1.181806158597e+02 
8 1 -1.311203828593e+02  -1.431934827314e+02   3.921754844893e+02 
8
Step 44000
1 1  2.019172992131e+02   1.050384668955e+02  -3.600443254987e+02 
2 1  3.848668758404e+02   1.566591562914e+02   3.119258696877e+02 
3 1  8.905831974531e+01  -2.182218382121e+02  -9.939611586288e+00 
4 1  7.279127557149e+01   3.828336133819e+02   3.762762841832e+02 
5 1 -1.039998962289e+02  -1.709640462780e+02  -4.094294989148e+02 
6 1  2.307816929749e+02   7.902903337812e+01  -1.195250098618e+02 
7 1 -9.605789108347e+01  -2.055638953057e+02   1.147412802436e+02 
8 1  2.811325926066e+02  -2.190230301396e+02  -8.541493778612e+02 
8
Step 45000
1 1 -2.272574642333e+02  -4.597062439465e+02   1.337462822840e+02 
2 1 -9.224966519118e+01  -4.743109256898e+02  -1.940915112454e+02 
3 1 -3.284388265422e+02  -2.423398404379e+02  -1.605060189032e+02 
4 1 -9.014659364492e+01  -1.418206119838e+02  -1.344548875751e+02 
5 1  4.838315694886e+02   1.929084686051e+01   3.423970513886e+02 
6 1  1.372278403855e+01  -1.272816119906e+02   2.145516881008e+01 
7 1 -1.704617337443e+02  -4.168343206920e+02  -4.070195439157e+01 
8 1 -4.856854696733e+02  -7.806950445079e+01  -3.660817433451e+01 
8
Step 46000
1 1  3.289086968085e+02   2.758459754773e+02   3.018045282614e+02 
2 1  2.348243932202e+02   2.629312758936e+02  -1.699765753012e+02 
3 1  6.068641266830e+02  -3.509392936633e+02  -6.791352395352e+01 
4 1 -1.746469021965e+02   1.337668403695e+02   3.512362078265e+02 
5 1 -5.062308258771e+02   4.059607235067e+01  -1.665432499252e+02 
6 1 -2.124860384011e+02   1.331692788178e+02  -2.393825245022e+02 
7 1 -1.092168278625e+01  -5.893877562192e+01  -9.770145196030e+01 
8 1  2.381499356599e+02   3.738886161745e+02   2.610777064261e+02 
8
Step 47000
1 1 -4.797654783442e+01  -1.405542693491e+02  -1.511959651752e+01 
2 1  1.431029370351e+02  -7.234335631057e+02  -1.507992602058e+01 
3 1 -2.808274406738e+02   7.655521773736e+01   1.641172958584e+02 
4 1 -2.515246312089e+02  -1.687489422051e+02  -1.253620180103e-01 
5 1  4.623826988587e+02  -2.096881897345e+02  -1.163620951909e+01 
6 1 -2.634528325287e+01  -3.130642967867e+01   4.290647323956e+02 
7 1  2.954773841262e+02   5.697763034931e+01  -3.138077224434e+02 
8 1 -6.957332006028e+02  -1.835056392423e+02   1.656276360081e+02 
8
Step 48000
1 1  6.697938796966e+01   2.585283462091e+02   1.984667126868e+02 
2 1 -1.909394113710e+02   3.905714392461e+02  -4.776060042387e+02 
3 1 -4.594556740377e+01   2.478060985109e+02   1.864483841677e+02 
4 1 -1.353583119068e+02  -2.604210766351e+02   9.696559202880e+00 
5 1  2.564673762388e+02   4.158371334633e+02  -2.322549122099e+02 
6 1  1.499323348207e+02  -6.094649143063e+00  -1.447502626296e+02 
7 1 -1.871903747064e+02   5.113760766855e+02   3.640769254941e+02 
8 1  3.593994277155e+02  -4.483527361516e+02  -2.350002189365e+02 
8
Step 49000
1 1 -2.493218033899e+01   9.988147250679e+01  -2.746411560708e+02 
2 1  5.024715776863e+02  -2.049520574764e+02   3.093172099765e+02 
3 1 -1.801596775536e+02  -1.419115587383e+02   2.575318545134e+02 
4 1 -9.136262501160e-01   2.625134143091e+02  -5.532276990502e+02 
5 1  2.152853197878e+01  -3.510131732874e+02  -3.098161035600e+02 
6 1 -1.289982062103e+02   4.786469321123e+01   5.293436108411e+02 
7 1 -2.095489791849e+02  -4.355140387378e+01  -4.424293638110e+01 
8 1 -7.214568076632e+00   1.415748744466e+02  -3.341773827943e+02 
8
Step 50000
1 1  1.426827253093e+02  -9.261830695907e+01   2.593614863159e+02 
2 1 -3.100440015996e+02  -1.307166582155e+02  -2.433018014271e+02 
3 1 -6.081554918607e+01   3.823275125035e+02  -1.333324175620e+02 
4 1 -1.355203069561e+02  -1.400379600046e+02  -6.237033562073e+01 
5 1  2.586332090661e+02   3.139555260815e+02   4.602813415620e+02 
6 1  1.338525575218e+02  -1.289322293075e+02   5.985140311683e+01 
7 1  1.597356154332e+01  -2.567346007664e+02  -5.746696672249e+02 
8 1  6.799678394015e+01  -1.030552703822e+02   9.995552240046e+01 
8
Step 51000
1 1  3.105576746387e+02   1.526747862325e+02  -2.965208588714e+02 
2 1  3.374559429028e+02  -1.474281234392e+02   1.746545974116e+02 
3 1  1.274914042956e+02  -2.589759809456e+02   1.011297820779e+02 
4 1 -2.763189269819e+02   1.591488664598e+02  -1.704001482388e+02 
5 1 -2.104681102992e+02  -1.547987262968e+02   9.017101282662e+01 
6 1 -9.787509416641e+01   2.491699690959e+02  -3.004263837591e+02 
7 1 -6.914053140752e+01   4.230546509290e+01   4.029446329196e+00 
8 1  3.236060002846e+02   3.679081954385e+02  -8.964870360665e+00 
8
Step 52000
1 1 -3.234004955000e+02   9.535553585223e+01   5.272710108942e+02 
2 1 -2.012160884265e+02  -2.378721026163e+02  -1.485922128004e+01 
3 1 -1.591100034143e+02   2.457438715903e+02  -9.310294148102e+01 
4 1 -3.041111617459e+02  -2.927540244629e+02   4.030975712179e+02 
5 1  3.922975147884e+02  -2.443029136448e+02  -3.132561467625e+01 
6 1  2.901530590756e+02  -4.598827629227e+02  -3.575944984177e+02 
7 1  3.912004283249e+02  -1.230135560626e+02  -2.824783552803e+01 
8 1 -5.368143174516e+02  -3.380795304141e+02   3.472865089992e+02 
8
Step 53000
1 1  2.882977712723e+02   3.423418356450e+02  -1.297390876359e+02 
2 1  2.121596170237e+02   2.603608492948e+01  -1.432168314234e+02 
3 1  3.059176237355e+02   1.973422483155e+02  -3.098137510193e+02 
4 1  1.992569886648e+02   1.155201188969e+02  -2.105745848802e+02 
5 1  3.079620745489e+02   1.544669658076e+02  -3.016037363874e+01 
6 1 -1.937120432547e+02   3.965342466351e+02   5.350110065981e+01 
7 1 -5.542435295813e+02   1.221966425189e+02   3.115217845755e+02 
8 1  2.145783919403e+02   1.949255682753e+02   1.208063405446e+02 
8
Step 54000
1 1  5.024234522953e+01  -2.242870982048e+02   1.699608589131e+02 
2 1 -2.181010153019e+02   1.251576375389e+02   3.453978793508e+02 
3 1 -4.717150301784e+02  -2.792802847989e+02  -5.146228107805e+01 
4 1  8.913956653071e+01  -5.374559080387e+02   5.561249720308e+02 
5 1 -9.862996853783e+01  -3.749424911105e+02  -4.015709830715e+02 