8
Step 0
1 1 1.01012980291244475e-02 8.76698930961605435e-03 -4.26672132011644660e-03
2 1 9.04712704154579661e-03 -7.15207304295860987e-03 -2.12162422581108762e-02
3 1 -1.98917977515217191e-02 -4.26376521349218409e-03 -1.51645213874872994e-02
4 1 3.86475811308757949e-03 -8.01214103102613692e-03 1.55743162927342461e-02
5 1 2.40224425156572788e-03 -1.23595860692585560e-02 -8.66668385282660936e-03
6 1 9.33067358912683525e-03 9.26150683970064850e-03 9.07260609291608931e-04
7 1 5.84666967024573703e-03 -4.65550622465814821e-03 -1.31756294207653873e-03
8 1 -1.64391710903200212e-02 4.15175907702019457e-03 -1.14208608736975463e-02
8
Step 1000
1 1 3.94805363199320428e-03 5.85012498706545016e-03 1.24851625430127977e-03
2 1 -2.10628384068515173e-03 6.42537095742095211e-03 -1.02890670255851024e-02
3 1 -1.06140724751950712e-02 -5.54807342238984418e-03 -1.10591193219299888e-02
4 1 -1.33266849028558336e-03 -1.15109813750219545e-02 1.88928732852820247e-02
5 1 -1.03110762998596638e-02 -2.03339030703565578e-02 -5.66836013488877365e-03
6 1 3.45814826227882873e-03 1.03775209854498375e-02 -5.36230497244609070e-03
7 1 -1.86456700493900117e-03 -2.93300364510187339e-03 8.17418157110653791e-03
8 1 -2.08541602390388443e-02 6.03206730226998368e-03 1.41273246893176005e-03
8
Step 2000
1 1 -2.66652723678289291e-03 5.52780078775510725e-06 5.70228320386187253e-03
2 1 -1.18790833888581908e-02 1.54049845935222227e-02 2.74551483539716909e-03
3 1 3.49605790685140691e-04 -4.57678063609756255e-03 -2.63372003246665088e-03
4 1 -5.46378736829690719e-03 -9.66937926295907170e-03 1.49757235873926968e-02
5 1 -1.74316006004630007e-02 -1.81175587433137879e-02 -3.08183001568162064e-05
6 1 -2.50623340784328959e-03 8.66406288655382356e-03 -9.07553075075618471e-03
7 1 -1.08183803881027000e-02 -1.23890267524354300e-03 1.51520353675121261e-02
8 1 -1.66547485698267939e-02 2.50840629148829436e-03 1.39270984423064906e-02
8
Step 3000
1 1 -6.50243846203193889e-03 -7.31237822224353566e-03 7.17816618262345427e-03
2 1 -1.47572260229726221e-02 1.48072676667772660e-02 1.19001614159643058e-02
3 1 8.05834530940506902e-03 -1.56622171737880612e-03 6.07129641760398645e-03
4 1 -6.62012142351749936e-03 -4.25888600144466549e-03 5.54925195402165491e-03
5 1 -1.53267927089372862e-02 -8.93867762501889158e-03 5.35030315106801470e-03
6 1 -6.74576812813063812e-03 4.82294528690822063e-03 -7.00258498958025808e-03
7 1 -1.74886803368664683e-02 5.97839550609490259e-04 1.58467749288645661e-02
8 1 -7.52400447880985715e-03 -4.08223893516953922e-03 1.97200756442357551e-02
8
Step 4000
1 1 -5.99936904626000196e-03 -1.36021240188315615e-02 5.34339998988683871e-03
2 1 -8.96531985345415221e-03 6.03810667818792217e-03 1.37417946633558875e-02
3 1 1.01932545314317047e-02 2.61649901214849575e-03 1.14787661449153536e-02
4 1 -4.70076269242409618e-03 1.77554086288406014e-03 -5.40883414586900996e-03
5 1 -6.65184182868853134e-03 7.29873478111542134e-04 7.67379180621408866e-03
6 1 -8.11454224086171141e-03 -5.67418392934770544e-05 7.73276183972188762e-04
7 1 -1.76732380979374160e-02 3.06693141909947795e-03 9.91566471768291942e-03
8 1 1.74419536520976979e-03 -9.59448980879101104e-03 1.51578698887856293e-02
8
Step 5000
1 1 -1.95867393315620397e-03 -1.57171996898392251e-02 1.52338719550480176e-03
2 1 1.54144921567161974e-03 -4.63272860929380120e-03 8.77592944419424044e-03
3 1 7.20301720175047216e-03 6.68654519910919475e-03 1.12948125183040139e-02
4 1 -1.14902978803895438e-03 6.09474363482156133e-03 -1.41202473842041033e-02
5 1 2.53902472498600653e-03 7.02886800589711674e-03 5.61089342680464245e-03
6 1 -6.52369788633015875e-03 -5.04474445530812225e-03 1.09392205754499407e-02
7 1 -1.07997731759347897e-02 6.33266815678896772e-03 9.90497907368309300e-04
8 1 8.63112336941751664e-03 -1.02087554749510211e-02 4.37602038072349136e-03
8
Step 6000
1 1 3.03391969677399087e-03 -1.21115827467823730e-02 -2.23101912285641329e-03
2 1 1.08774316126090415e-02 -1.13596264095240981e-02 1.20913092521099277e-03
3 1 1.93319033347500347e-03 9.18996679407622745e-03 6.07748401983836291e-03
4 1 2.18662857714982785e-03 7.56879496181909681e-03 -1.70850429484064176e-02
5 1 7.76360489940315993e-03 8.69778091493476034e-03 2.16646620353325010e-05
6 1 -3.03244907564984446e-03 -9.08120775164090489e-03 1.81425838817398551e-02
7 1 -6.82441696077289118e-04 9.63056470742706949e-03 -6.79726264127059835e-03
8 1 1.19595414983554062e-02 -4.85292383429529114e-03 -5.99228191808129015e-03
8
Step 7000
1 1 6.20766247540540782e-03 -4.54575767193451073e-03 -4.28073611031073737e-03
2 1 1.38874785165741966e-02 -1.08436906163481197e-02 -4.73406473714467219e-03
3 1 -2.37668591788919425e-03 8.95107329083782467e-03 -1.11258772071308964e-03
4 1 4.05931924579466460e-03 6.30426149789520968e-03 -1.35758299410460026e-02
5 1 7.42151811879342323e-03 6.43895455942368987e-03 -6.69440491203015988e-03
6 1 7.84676956899286364e-04 -1.09060945806555426e-02 1.70128446756044362e-02
7 1 8.48905867890941204e-03 1.11768478429463587e-02 -1.04508261766476634e-02
8 1 1.15594108789545576e-02 4.27759130111004648e-03 -1.15102010467436795e-02
8
Step 8000
1 1 5.86033889717190760e-03 3.79056043407936458e-03 -4.13429570101814595e-03
2 1 8.86788773692609444e-03 -4.34051725893738229e-03 -6.67569452338572216e-03
3 1 -3.66282944387311821e-03 5.62286053394589740e-03 -6.84949658825011881e-03
4 1 4.26615301958027573e-03 3.24836016798712903e-03 -6.70445208771564081e-03
5 1 3.17223617521732821e-03 2.25858646995003888e-03 -1.15044704064760275e-02
6 1 3.43244929493065733e-03 -9.63563606783353517e-03 7.64080912074845651e-03
7 1 1.34413782767400861e-02 9.02566651153951550e-03 -8.97342586492100650e-03
8 1 8.48853470126596961e-03 1.33766564848418409e-02 -1.05654508922410142e-02
8
Step 9000
1 1 1.94737250320238986e-03 1.01284084624445499e-02 -2.54707115280924327e-03
2 1 -5.57808399906237705e-04 3.51303987723796318e-03 -4.54052693565423771e-03
3 1 -1.70073128229021511e-03 -2.82650717290162446e-04 -8.64753784218657423e-03
4 1 3.42413499240919791e-03 -5.84682247497398874e-04 2.12898916882000791e-04
5 1 -1.51110981171868387e-03 -1.68058266746639240e-03 -1.16092563689118664e-02
6 1 3.87908341347088749e-03 -5.42753124201430376e-03 -4.54629155548359060e-03
7 1 1.25883965634487911e-02 2.39828754483088378e-03 -4.17490201800060131e-03
8 1 4.30263941264072067e-03 1.77920431727233465e-02 -5.21383831423800556e-03
8
Step 10000
1 1 -4.22963118393752426e-03 1.24869778824428859e-02 -9.05614369216259894e-04
2 1 -8.76922811333509522e-03 8.16085572708947007e-03 -2.57244698842817171e-04
3 1 2.07077568938734188e-03 -7.85027013810560975e-03 -5.96963338954708839e-03
4 1 2.38390040918819374e-03 -4.64725200827182001e-03 5.46064302521568311e-03
5 1 -3.70370674381909244e-03 -3.76248985553093423e-03 -5.95912118920251341e-03
6 1 1.96705060449227495e-03 6.09954423744593134e-04 -1.37635424390024613e-02
7 1 7.62309455056645654e-03 -8.01843312383715250e-03 7.76979334340380050e-04
8 1 1.67673081641742512e-04 1.41466880529850687e-02 6.78752589449420612e-04
8
Step 11000
1 1 -1.05453327821352395e-02 1.06757477152860086e-02 -3.99963315391748721e-04
2 1 -1.14131937000780722e-02 7.38974285472134874e-03 3.62291997681975057e-03
3 1 5.49930111442075657e-03 -1.55257010838433084e-02 -6.27155780097451380e-04
4 1 1.69962227995571055e-03 -8.67297020074647533e-03 8.23195039672353947e-03
5 1 -2.53488421913686821e-03 -3.18838569029841756e-03 4.39539059082513957e-03
6 1 -1.48887158523626668e-03 7.08012195733069560e-03 -1.55766454171925705e-02
7 1 1.91717800383518983e-03 -1.98793622549779773e-02 3.48371398614621660e-03
8 1 -3.29058271521470149e-03 3.97661763582780187e-03 4.10830803187460774e-03
8
Step 12000
1 1 -1.37067915258676284e-02 6.75397279249545859e-03 -1.36813115733698618e-03
2 1 -7.91362498673556583e-03 2.65161705027998351e-03 5.25000710577870795e-03
3 1 6.69244538935190661e-03 -1.97209341728402203e-02 4.35367345627016549e-03
4 1 1.23493276459466232e-03 -1.18980042369253684e-02 8.33931884530817596e-03
5 1 5.96378014963280345e-04 -2.25177186982210655e-04 1.72400878638745911e-02
6 1 -4.85831666850591783e-03 1.24693637095450033e-02 -1.03484554214628970e-02
7 1 -2.20707130143552206e-03 -2.64404677036541060e-02 3.32043355036258344e-03
8 1 -5.77214968265504693e-03 -8.24746623590202552e-03 3.90125859799202992e-03
8
Step 13000
1 1 -1.04187215006018470e-02 3.10548428447841212e-03 -2.69472643562673362e-03
2 1 -1.78203803097969895e-03 -2.39709201675928794e-03 4.21497987924731188e-03
3 1 4.69203550679306910e-03 -1.61442378674734183e-02 6.17619939025070182e-03
4 1 1.62690543729628951e-05 -1.23473486375034382e-02 6.33304920917379058e-03
5 1 3.28946796096938818e-03 3.71702046772128935e-03 2.64409253078345535e-02
6 1 -5.77258276402889924e-03 1.47757414578970365e-02 -3.20120541602005775e-03
7 1 -3.94344247090889360e-03 -2.00840561573089951e-02 1.33275845798654720e-03
8 1 -7.17997500393817434e-03 -1.79156066673332552e-02 7.96889348011291395e-04
8
Step 14000
1 1 -1.15453483662355323e-03 6.69400386135776790e-04 -2.05633492367626302e-03
2 1 3.26152096331201562e-03 -4.83989568234084126e-03 1.53863720304627579e-03
3 1 -2.51381056167174059e-04 -5.02872986572408358e-03 3.57590453578318472e-03
4 1 -3.04135026110608810e-03 -7.54141658025855085e-03 3.23599875839455887e-03
5 1 3.86900994736273087e-03 6.46084419650522906e-03 2.23382710638157303e-02
6 1 -2.49545705086160049e-03 1.21681844334287134e-02 2.11112198543983443e-03
7 1 -3.51057514146339801e-03 -4.52046304559660782e-03 -8.61949188396677365e-04
8 1 -7.60941429609874459e-03 -1.97982803994314720e-02 -3.21110033964698083e-03
8
Step 15000
1 1 9.61365325386094594e-03 -8.97909549757390881e-04 1.96128224891497973e-03
2 1 5.60536907554156152e-03 -3.92545275543241395e-03 -1.27837092865373510e-03
3 1 -6.85113071156908011e-03 9.74039233816532436e-03 -2.23393837521933258e-03
4 1 -7.60575220300996249e-03 3.39659922970865545e-03 3.42170751218940513e-05
5 1 2.33151581670948361e-03 5.98072923682403060e-03 6.48745962757877378e-03
6 1 3.81645164132222558e-03 4.71649991515158719e-03 4.69033170501832741e-03
7 1 -1.80609352816368481e-03 1.15840447539406911e-02 -2.17289348808945553e-03
8 1 -7.06797111639679947e-03 -1.23146396680347062e-02 -5.76411706198657735e-03
8
Step 16000
1 1 1.59324570460037153e-02 -2.34824622711188530e-03 7.96223495246448955e-03
2 1 5.34824690541977309e-03 -7.67307427563600035e-04 -3.23790537834588643e-03
3 1 -1.27259592892861439e-02 2.28092488354387779e-02 -8.01091828737516068e-03
4 1 -1.13971293361652213e-02 1.80778541014814768e-02 -2.60478114501649970e-03
5 1 -1.14325581763653568e-04 1.64355675788481481e-03 -1.18760361929406786e-02
6 1 9.48273499297994787e-03 -5.70068473354607818e-03 4.84331566074995903e-03
7 1 -1.14423390004704921e-04 2.11930150259129098e-02 -2.29152342415506237e-03
8 1 -5.11497781626643090e-03 -5.53828415455868842e-04 -4.93143771807482128e-03
8
Step 17000
1 1 1.41199175259598200e-02 -4.17799936484881691e-03 1.23297168240845221e-02
2 1 3.48262602839620504e-03 2.75415703968917569e-03 -4.02151343410078743e-03
3 1 -1.44424526828781860e-02 2.55849435665125025e-02 -9.89199572662810035e-03
4 1 -1.14781858745487651e-02 2.79121793805446258e-02 -4.34459702952060423e-03
5 1 -2.23362628963522884e-03 -5.08737956938213384e-03 -2.46090570985789889e-02
6 1 1.08268253891080999e-02 -1.60310368697430747e-02 3.38293524037125166e-03
7 1 2.92020636552063921e-04 1.88678107037388888e-02 -1.38449080796975614e-03
8 1 -1.30907469993624863e-03 9.47426361833753061e-03 -2.73341155287870423e-04
8
Step 18000
1 1 6.43213320697631503e-03 -6.37531212208255604e-03 1.15349339520096055e-02
2 1 1.22001934942743526e-03 4.81309356076131071e-03 -3.68101625084434232e-03
3 1 -9.80164751805357934e-03 1.58481250481896201e-02 -5.68534545348467219e-03
4 1 -6.36911089425026833e-03 2.28931366577508066e-02 -5.09990027744282835e-03
5 1 -3.33693989186269451e-03 -1.10353692594607321e-02 -2.32951896031097332e-02
6 1 6.64869096377536817e-03 -2.10740143311161296e-02 1.39593719249335099e-03
7 1 -1.28095760172237927e-03 8.77486398079605281e-03 1.93608030264453846e-04
8 1 4.00437954376888817e-03 1.35635414989070668e-02 6.45101545077261199e-03
8
Step 19000
1 1 -1.96608325685924739e-03 -8.42530058924670713e-03 4.87637495099787870e-03
2 1 -5.32499144165503617e-04 4.18510819657712078e-03 -2.40881971056088138e-03
3 1 -1.28650447696501382e-04 2.15027827445844538e-03 3.27229778909618463e-03
4 1 2.80858749123070062e-03 7.56146389932022336e-03 -4.92437986962557337e-03
5 1 -3.22219952296455342e-03 -1.25911399589399373e-02 -1.11538875275680426e-02
6 1 -1.25175797858850389e-03 -1.67998141178963278e-02 -1.09237962581999566e-04
7 1 -4.42051255551433996e-03 3.89885689324978905e-04 1.97592179442599315e-03
8 1 9.33951881163039462e-03 1.04942501511615834e-02 1.18343727770496340e-02
8
Step 20000
1 1 -6.97907396352494790e-03 -9.27424575547397025e-03 -5.13125404247114641e-03
2 1 -1.43800654408554151e-03 8.29456591731845714e-04 -4.90719183930205189e-04
3 1 1.10385850903061897e-02 -8.67511218656976356e-03 1.28478154823877741e-02
4 1 1.27838758557714781e-02 -8.34477653553840695e-03 -3.88662518091825986e-03
5 1 -2.04612493735002775e-03 -8.17390643026743267e-03 -1.34724942263710379e-05
6 1 -9.55091072132423224e-03 -6.02942053281227495e-03 -5.87238054982042916e-04
7 1 -7.48926600860463833e-03 -2.79222992299418176e-03 3.39116640738023646e-03
8 1 1.22137364512686676e-02 3.26730099347451869e-03 1.25212194277582751e-02
8
Step 21000
1 1 -6.90270404368702878e-03 -7.71609915053627238e-03 -1.42954250060550077e-02
2 1 -1.70847460422437060e-03 -3.90871757531969372e-03 1.69357847372522035e-03
3 1 1.87358210917293981e-02 -1.35388753177420138e-02 1.74229841046756942e-02
4 1 1.86620090941661126e-02 -1.89695184650867064e-02 -2.02028351621712666e-03
5 1 -2.43010752007278110e-04 4.38492040261597186e-04 5.38351077207424936e-03
6 1 -1.43708132158517771e-02 5.63911447247890298e-03 -1.45387935826378950e-04
7 1 -8.19801856740834042e-03 -2.30457179055951243e-03 3.86840937540565161e-03
8 1 1.05230631186526945e-02 -3.49227355541795832e-03 7.69674288185793164e-03
8
Step 22000
1 1 -2.97492523600513450e-03 -3.28910154050027735e-03 -1.77006989972992891e-02
2 1 -1.82315084276459091e-03 -7.71402918798018769e-03 3.67480335062442178e-03
3 1 1.79596794990875795e-02 -1.19959614661132204e-02 1.33160581844810975e-02
4 1 1.65291677848570344e-02 -2.00597548000134331e-02 6.04989710507004147e-04
5 1 1.60717762673852869e-03 9.59256612084530454e-03 6.12418034174458566e-03
6 1 -1.28108761562763674e-02 1.39151061395815182e-02 5.94235357915041929e-04
7 1 -4.88600719449201314e-03 -5.91559928153872626e-04 3.07089702615968591e-03
8 1 4.49442862887487748e-03 -6.29811293561241287e-03 -3.51125212019369655e-04
8
Step 23000
1 1 1.62148079064360529e-03 3.32161770489710143e-03 -1.30963857599879288e-02
2 1 -2.12556882334110318e-03 -8.27821116202157037e-03 4.90804043360030910e-03
3 1 9.33886329664696153e-03 -6.68835581930182169e-03 2.98997241213070980e-03
4 1 7.92593103083953469e-03 -1.32203611379553918e-02 3.71907502397344613e-03
5 1 2.95931205257864973e-03 1.49760639335701547e-02 4.26731665073453153e-03
6 1 -5.51340057342434436e-03 1.56599841636325780e-02 8.70466033896267707e-04
7 1 2.38705139316486075e-03 5.29668875681347921e-04 1.11125868105560509e-03
8 1 -3.45609281039230189e-03 -4.09982837041630074e-03 -8.24018700445022789e-03
8
Step 24000
1 1 3.69160953968543327e-03 1.02715151530160254e-02 -3.57439831850217158e-03
2 1 -2.51981472982468722e-03 -4.70653102531002655e-03 4.88084686404905051e-03
3 1 -1.64219286061693189e-03 -1.07102715497218244e-03 -8.07607627620561888e-03
4 1 -2.37378322259189757e-03 -4.31488227720662563e-03 6.66590932945647450e-03
5 1 3.47073685504004472e-03 1.34119768439324057e-02 1.81138994031201429e-03
6 1 4.13502635648523454e-03 1.09763407949330666e-02 1.92946356415214120e-04
7 1 1.16214121764823212e-02 1.37487549895820956e-04 -1.43797246027124758e-03
8 1 -1.00428483926699747e-02 1.40184357518475708e-03 -1.28252124480938718e-02
8
Step 25000
1 1 1.70456335727436686e-03 1.45693057276770430e-02 6.10728489056322921e-03
2 1 -2.48685037858125714e-03 1.82454844634913935e-03 3.32889422861576585e-03
3 1 -1.00561065150512538e-02 2.67347291453104300e-03 -1.49199358799488122e-02
4 1 -1.04413210498934348e-02 2.98650583621851628e-03 8.36350151992183884e-03
5 1 3.08014620758977412e-03 5.86638998036529899e-03 5.78608048791389210e-04
6 1 1.22861146318848941e-02 3.66446821646549759e-03 -1.38833982742734403e-03
7 1 1.85521988003102337e-02 -1.65222114070789493e-03 -3.73906967906931145e-03
8 1 -1.20802389323348101e-02 6.94822237173462354e-03 -1.23319335664696401e-02
8
Step 26000
1 1 -3.38895167954092469e-03 1.36224288050876535e-02 1.21695912219717192e-02
2 1 -1.42114947596744669e-03 8.63108563036747711e-03 3.98343199600336968e-04
3 1 -1.27015870978502213e-02 3.80705013994320218e-03 -1.45165896610692027e-02
4 1 -1.35302196869623668e-02 7.24912568219042690e-03 7.65835477934133195e-03
5 1 1.95225534255297770e-03 -3.64445781003816700e-03 1.49172872115102247e-03
6 1 1.52595555522648391e-02 -2.26554711760409847e-03 -3.26674817961504797e-03
7 1 1.80955440785239147e-02 -3.86582296020147572e-03 -4.97726722183430663e-03
8 1 -8.49464124315189167e-03 9.15803008640481836e-03 -7.73252063143084825e-03
8
Step 27000
1 1 -8.72081638559184594e-03 7.77287219922403669e-03 1.23785266649920934e-02
2 1 9.16838748869610752e-04 1.23757676180370375e-02 -3.32679435642828630e-03
3 1 -9.27844315952562962e-03 2.75205946761089386e-03 -8.38524701138657763e-03
4 1 -1.10601307586016342e-02 8.02965053336945900e-03 4.01262800220742767e-03
5 1 3.37368860080303418e-04 -1.09174534745917224e-02 3.87919695607633281e-03
6 1 1.15781697664408510e-02 -4.70784298017320069e-03 -4.51292567312228023e-03
7 1 9.76343019098977437e-03 -5.22011918869071632e-03 -4.67127951497095777e-03
8 1 -1.40168351179560668e-03 6.02712785314907500e-03 -1.78562277052466702e-03
8
Step 28000
1 1 -1.07238738406713399e-02 -2.63724077101335581e-04 7.56741999378679996e-03
2 1 4.07817623374179261e-03 1.07269176887171865e-02 -6.82616730670808185e-03
3 1 -2.88196950162981740e-03 6.58642661246331535e-04 -6.04066142184989151e-04
4 1 -5.33097462205883461e-03 5.88552212333951809e-03 -2.08071666597118383e-03
5 1 -1.54088655472647764e-03 -1.26533766311901635e-02 5.75397985242618194e-03
6 1 3.67466395003603584e-03 -3.77541889135161925e-03 -4.25613632003309875e-03
7 1 -2.12701122131720224e-03 -4.77001418169525036e-03 -2.88608570146016647e-03
8 1 5.72112903172735093e-03 -1.83753032047956886e-03 3.09877139069124731e-03
8
Step 29000
1 1 -7.07919363623243404e-03 -7.62500197681650286e-03 1.00671679408562771e-03
2 1 6.88585103349982717e-03 4.26986366818278042e-03 -8.75568151994998711e-03
3 1 2.52337270831428425e-03 -1.20752954839656811e-03 5.75688261666224780e-03
4 1 5.33234623370499802e-04 2.20468559689722355e-03 -9.08511946526330098e-03
5 1 -3.48183702451675342e-03 -8.30797687687586002e-03 5.08976492227601780e-03
6 1 -4.50222319035702319e-03 -1.30613948102627653e-03 -2.06551392871921584e-03
7 1 -1.29515512873282050e-02 -2.39263716215085348e-03 -1.97979605656477319e-04
8 1 9.72766099329202584e-03 -1.16861808863010022e-02 5.70314718574372118e-03
8
Step 30000
1 1 1.55391099329734491e-03 -1.18841350779681117e-02 -4.12843756509828196e-03
2 1 7.77912374848354488e-03 -4.10959631471660702e-03 -7.98457164913033909e-03
3 1 4.34410940079387169e-03 -1.95745214318748329e-03 8.82476709365567769e-03
4 1 4.38036283137983439e-03 -1.41300621772370134e-03 -1.42665097637859912e-02
5 1 -5.17683523866777507e-03 -6.96362162283710841e-04 1.17878370104791707e-03
6 1 -9.69874459550964206e-03 3.90488623168388940e-04 1.84906073960609861e-03
7 1 -1.82057167638876131e-02 1.17156209844629746e-03 2.54618057409035457e-03
8 1 8.97665891237612971e-03 -1.89028079067916702e-02 6.03427562624374910e-03
8
Step 31000
1 1 1.20377401412664429e-02 -1.16542502661174489e-02 -6.02887573395979783e-03
2 1 5.58323074940791659e-03 -1.09060208374859649e-02 -4.31527339624420293e-03
3 1 2.25272930581630129e-03 -1.32233568602759194e-03 7.89049832957453706e-03
4 1 5.36028865496474514e-03 -3.63062379739262885e-03 -1.44052353067377747e-02
5 1 -6.08193108384547446e-03 6.29540929137638577e-03 -4.85039657636577356e-03
6 1 -1.00912220586888562e-02 -1.57547062222066978e-04 6.61148336543017617e-03
7 1 -1.54977770774892762e-02 4.68128018408345021e-03 4.51242910378011133e-03
8 1 4.33762474224810325e-03 -1.79105407800627739e-02 5.05995633480727913e-03
8
Step 32000
1 1 1.91977868452917963e-02 -7.66242378450409777e-03 -4.62715853985549552e-03
2 1 2.54551668585386703e-04 -1.29401529729419578e-02 1.38160927247064349e-03
3 1 -1.98819145262555232e-03 3.37138935849162335e-04 3.86733899778422732e-03
4 1 3.90206815108938478e-03 -3.67467613793096394e-03 -8.53857426098049259e-03
5 1 -5.50021308822189973e-03 9.48825381636078137e-03 -1.03869223283162664e-02
6 1 -6.31596635011702056e-03 -2.81664409866654334e-03 1.06087835046267086e-02
7 1 -7.73940577712455349e-03 6.86513460947043262e-03 5.13943418085846104e-03
8 1 -1.75987518504589695e-03 -7.83143830316294920e-03 3.96925894854970734e-03
8
Step 33000
1 1 1.76035330444461319e-02 -2.11434752675707235e-03 -1.38032849853032130e-03
2 1 -6.98361398765596879e-03 -9.26257627109372539e-03 7.45668386672979251e-03
3 1 -5.71515876245435542e-03 2.25705835884773033e-03 -1.14331342363751848e-03
4 1 1.32956660267021572e-03 -1.60373385190504454e-03 1.10499243198356020e-03
5 1 -2.89749856832051834e-03 7.62320515937913411e-03 -1.22648310053638694e-02
6 1 -1.13068210457833562e-03 -5.98415220830281636e-03 1.16776563197139392e-02
7 1 4.43830953040619497e-04 6.91342856536871289e-03 4.33613749952042795e-03
8 1 -7.09837616721010339e-03 6.69439225909485881e-03 3.31942028697013690e-03
8
Step 34000
1 1 7.65777293602867924e-03 2.87525033217876430e-03 1.70826381869583119e-03
2 1 -1.35910953417204272e-02 -2.17314736692461423e-03 1.17098030881525213e-02
3 1 -6.59073106511508158e-03 3.62543816821205836e-03 -4.77441322655964336e-03
4 1 -8.79928437280024347e-04 1.63578399759222001e-03 1.10534864683909124e-02
5 1 1.74966559367568399e-03 2.20071078629982412e-03 -8.76438042810665299e-03
6 1 2.50726773444789192e-03 -7.46271643473862302e-03 8.32975695023841292e-03
7 1 6.13720348878797530e-03 4.86217002775189526e-03 2.50189243489137587e-03
8 1 -1.04042542445613277e-02 1.98193340909187214e-02 2.79682630966719692e-03
8
Step 35000
1 1 -5.16511690825832617e-03 5.92272214638636402e-03 3.09526865712153381e-03
2 1 -1.58096553050459630e-02 4.74618715546882425e-03 1.21349659945825961e-02
3 1 -3.42411235557950290e-03 3.87593759904809572e-03 -5.33077536976564025e-03
4 1 -1.73076788042372939e-03 4.46748606075741787e-03 1.71158435352024747e-02
5 1 7.66596128916598174e-03 -3.64559136546441882e-03 -1.08350068529452733e-03
6 1 2.99962741507341568e-03 -5.59690299194873318e-03 9.71506960223864958e-04
7 1 7.92154419946461928e-03 1.49043119751379499e-03 2.99214374743961243e-04
8 1 -1.11333766856776314e-02 2.37937184356502122e-02 1.64179346284352295e-03
8
Step 36000
1 1 -1.53330074252303293e-02 6.53255626754686760e-03 2.28893241539100071e-03
2 1 -1.12072008400537874e-02 8.52373616247906023e-03 8.28717419831593444e-03
3 1 3.61601980282345295e-03 2.83630383005053230e-03 -2.73364984350871719e-03
4 1 -1.03573193056814426e-03 5.19914281754122777e-03 1.57865983263190297e-02
5 1 1.29150805544171257e-02 -6.99903424723583283e-03 7.71195919775227636e-03
6 1 8.14276833168744779e-04 -1.87154620351205901e-04 -8.44497501596287725e-03
7 1 5.99593044912278151e-03 -2.23619955860136343e-03 -1.70863892458315847e-03
8 1 -8.72250199483018060e-03 1.54101862286256872e-02 -7.62789588005416104e-04
8
Step 37000
1 1 -1.78815706132222085e-02 5.20643595129800449e-03 -4.88970087297097545e-05
2 1 -1.28167219894463461e-03 7.85586440474136949e-03 1.61030398012061422e-03
3 1 1.29673462894576066e-02 6.94204992659042770e-04 1.38129108718540580e-03
4 1 6.16851905038957263e-04 2.78283907984686572e-03 8.10709103941942635e-03
5 1 1.45424028887491865e-02 -6.48740534948603464e-03 1.38202381639642852e-02
6 1 -1.94316466491198793e-03 7.40421900235440841e-03 -1.66246208674518912e-02
7 1 2.18625058568100135e-03 -5.64109283649909168e-03 -3.28953427550015415e-03
8 1 -2.49873544663952720e-03 2.14240121920677203e-03 -4.47556437483497514e-03
8
Step 38000
1 1 -1.18797247077258982e-02 3.12707450469617947e-03 -2.55712156077251163e-03
2 1 1.03087748591196866e-02 3.79390580657660648e-03 -5.60576597148287024e-03
3 1 2.01186091738029225e-02 -2.16791415646467841e-03 4.55897986145638659e-03
4 1 2.21321501827644995e-03 -2.46776015960563887e-03 -1.45797561146375422e-03
5 1 1.05227054305567728e-02 -2.94639016539679837e-03 1.37503816818687029e-02
6 1 -2.91048031860035184e-03 1.42908076043576655e-02 -1.91686046140330732e-02
7 1 -1.07077904772857305e-03 -8.38516262418529529e-03 -4.45401492914602754e-03
8 1 6.89557783211573998e-03 -8.43173125045739227e-03 -8.79775264670549888e-03
8
Step 39000
1 1 -2.48602493046532315e-03 1.44117757526518540e-03 -3.90553530385642257e-03
2 1 1.88438585421701332e-02 -1.03990819605995558e-03 -1.08862053378857172e-02
3 1 1.84715692625268789e-02 -5.28633763460755260e-03 4.77055430684967478e-03
4 1 2.79544027120033275e-03 -8.70028004475066619e-03 -8.75776685816238853e-03
5 1 1.65989601108340558e-03 1.41280202793253335e-03 7.22516721335177484e-03
6 1 -9.29844812964172852e-04 1.62347846473290397e-02 -1.44330870203490062e-02
7 1 -1.88379825371328552e-03 -1.00642752723853115e-02 -5.15001627340532994e-03
8 1 1.58476070934770868e-02 -1.27238105453205911e-02 -1.21071149305474884e-02
8
Step 40000
1 1 4.33734444594677249e-03 6.17013852492864193e-04 -3.41450841335929614e-03
2 1 1.90891935506351841e-02 -4.06933401728425299e-03 -1.20872827107317404e-02
3 1 7.35308110974610806e-03 -8.01292446314931690e-03 1.68177276941775455e-03
4 1 1.90409499953743616e-03 -1.28601338694030211e-02 -1.10049531309933460e-02
5 1 -9.35858423924136942e-03 4.44606890447497415e-03 -2.31060355490354721e-03
6 1 3.19532571069241003e-03 1.07586080786932579e-02 -5.47742388970866474e-03
7 1 1.19591881402634700e-05 -9.80454715376002407e-03 -4.98843643452037602e-03
8 1 1.85970266271290111e-02 -1.04180629445277430e-02 -1.20296734699164992e-02
8
Step 41000
1 1 5.71334897581593330e-03 2.60911858958781824e-04 -1.27579415446515748e-03
2 1 1.08771930026101138e-02 -3.99940275381334854e-03 -8.78977771369655013e-03
3 1 -7.92466519461306786e-03 -9.30510807211337200e-03 -3.05406887660687265e-03
4 1 -2.05085038583196377e-04 -1.18948160216168271e-02 -7.92489596126638197e-03
5 1 -1.85844801851202876e-02 4.94743020164625444e-03 -1.03954675026217431e-02
6 1 7.15391358918973479e-03 -6.03723507632132381e-05 4.10124828751711173e-03
7 1 2.95291994377514574e-03 -6.60870320197559213e-03 -3.33122392564089891e-03
8 1 1.29927528046218394e-02 -4.31294332133478654e-03 -6.92979705038209663e-03
8
Step 42000
1 1 2.82971770222021062e-03 -5.31893947544252559e-04 1.68856539592259717e-03
2 1 -4.00856957556536557e-04 -1.24090043711631978e-03 -2.81564652207774539e-03
3 1 -2.11967037245790538e-02 -7.89393611147946872e-03 -6.76051227701895355e-03
4 1 -2.70310783300930753e-03 -5.06616908166880164e-03 -2.16080717241130165e-03
5 1 -2.06762601536893617e-02 3.04347958562209463e-03 -1.30332058510422132e-02
6 1 8.45074583116414875e-03 -1.18659943484776941e-02 1.19895177156804002e-02
7 1 4.51303548304924588e-03 -1.36722210028682309e-04 1.37126901633079966e-04
8 1 3.02956240049359138e-03 2.00718462577539327e-03 2.51232466848031561e-03
8
Step 43000
1 1 -7.42651147743632637e-04 -2.50135048304261790e-03 4.42422268048040922e-03
2 1 -9.59416741012275934e-03 2.60945762836202423e-03 3.13716347613868110e-03
3 1 -2.47044967903784149e-02 -3.09117386282862150e-03 -7.09469957810463826e-03
4 1 -4.50346167928048369e-03 5.63641499604584754e-03 2.67460911171328889e-03
5 1 -1.37586715277243365e-02 -6.14411122478635479e-05 -8.72560129193085225e-03
6 1 5.93776361495452869e-03 -1.91092124275795555e-02 1.61925815523711950e-02
7 1 3.04906246953555405e-03 8.75094544865897064e-03 4.71501280123732668e-03
8 1 -6.32129422400668980e-03 5.69718482290674979e-03 1.32548617900785301e-02
8
Step 44000
1 1 -2.00356906602197843e-03 -5.48357569390354582e-03 5.91606930273578299e-03
2 1 -1.31594730310663106e-02 5.55899268775170673e-03 6.81671515626816084e-03
3 1 -1.66487837880112434e-02 4.47666376763195158e-03 -3.44170169573633630e-03
4 1 -4.63015792526778273e-03 1.69895487396226445e-02 3.97950999991731474e-03
5 1 -2.06969911967841988e-03 -2.84119468724210785e-03 -2.22597796538742859e-05
6 1 5.72134195469638923e-04 -1.67923111190666184e-02 1.55525286035935913e-02
7 1 -1.27297728591612065e-03 1.70114628850626844e-02 8.49299500924722423e-03
8 1 -1.17780009052375519e-02 5.20068623700696651e-03 1.98288824171445402e-02
8
Step 45000
1 1 2.88425601926209374e-04 -8.09071418839728621e-03 5.49645308530594384e-03
2 1 -1.00967406642842993e-02 5.83546443809021195e-03 7.16187089420881103e-03
3 1 -4.81441483904721662e-03 1.25380967575859110e-02 2.61123251842651245e-03
4 1 -2.65274051055597792e-03 2.36333324469412479e-02 1.36235386244436436e-03
5 1 9.38748705822815312e-03 -4.10602272621621127e-03 8.63451787119259677e-03
6 1 -5.27870598738348819e-03 -6.55018150968329771e-03 1.10243658400873620e-02
7 1 -6.43402869058631866e-03 1.94484264977939983e-02 9.10621664433489651e-03
8 1 -1.18986179675941578e-02 9.75163374751432171e-04 1.74166360518254772e-02
8
Step 46000
1 1 5.38862710516226171e-03 -8.36045477446887425e-03 3.12503741090807688e-03
2 1 -3.28700378430282162e-03 2.55844674140069455e-03 4.65392780406643884e-03
3 1 4.63104483029603674e-03 1.71996242979537833e-02 8.14661098802613517e-03
4 1 1.05400608178780929e-03 1.98367383896339879e-02 -3.29833419742157387e-03
5 1 1.63773403843561829e-02 -3.51059165108897654e-03 1.28269165855871524e-02
6 1 -9.00564273879274693e-03 5.14732850308030274e-03 4.67909642937734856e-03
7 1 -9.40889178389618143e-03 1.39315292125303247e-02 5.45806305101383636e-03
8 1 -7.87110401684659386e-03 -4.56182807593925009e-03 7.94583492368137675e-03
8
Step 47000
1 1 1.05806044586191327e-02 -5.06755608811328747e-03 -6.52738596907907038e-04
2 1 2.75628478392577533e-03 -3.64557437031661760e-03 9.21032096300290239e-04
3 1 9.61645583470784916e-03 1.53961066501704484e-02 1.01374669337039799e-02