8
Step 0
1 1  2.209852147101e+02   1.917946593953e+02  -9.334268965389e+01 
2 1  1.979232080888e+02  -1.564652772805e+02  -4.641458788001e+02 
3 1 -4.351711220098e+02  -9.327801916746e+01  -3.317529098862e+02 
4 1  8.454897568221e+01  -1.752809095350e+02   3.407179572357e+02 
5 1  5.255368767338e+01  -2.703895849195e+02  -1.896002856781e+02 
6 1  2.041263311445e+02   2.026131762085e+02   1.984806110702e+01 
7 1  1.279070817130e+02  -1.018481030531e+02  -2.882420940451e+01 
8 1 -3.596383101039e+02   9.082767070276e+01  -2.498531758068e+02 
8
Step 1000
1 1  8.637122447406e+01   1.279826733772e+02   2.731368104676e+01 
2 1 -4.607898761448e+01   1.405672792272e+02  -2.250930206454e+02 
3 1 -2.322031364797e+02  -1.213747176788e+02  -2.419393874742e+02 
4 1 -2.915467216332e+01  -2.518247341429e+02   4.133177387105e+02 
5 1 -2.255745156164e+02  -4.448430214553e+02  -1.240062195820e+02 
6 1  7.565360749040e+01   2.270281201996e+02  -1.173106775248e+02 
7 1 -4.079096951102e+01  -6.416506456789e+01   1.788258562773e+02 
8 1 -4.562246420940e+02   1.319630095156e+02   3.090622483117e+01 
8
Step 2000
1 1 -5.833538345782e+01   1.209312150215e-01   1.247483515990e+02 
2 1 -2.598776697487e+02   3.370135024419e+02   6.006338825373e+01 
3 1  7.648295347359e+00  -1.001258302282e+02  -5.761766311446e+01 
4 1 -1.195307990351e+02  -2.115361655876e+02   3.276225969036e+02 
5 1 -3.813496038160e+02  -3.963562501938e+02  -6.742092607819e-01 
6 1 -5.482864936258e+01   1.895429470278e+02  -1.985445935543e+02 
7 1 -2.366727628456e+02  -2.710336561739e+01   3.314797543177e+02 
8 1 -3.643544797940e+02   5.487618534830e+01   3.046819161941e+02 
8
Step 3000
1 1 -1.422532782943e+02  -1.599722596863e+02   1.570361146179e+02 
2 1 -3.228425447709e+02   3.239373014416e+02   2.603387919067e+02 
3 1  1.762917164975e+02  -3.426409571330e+01   1.328212214454e+02 
4 1 -1.448278181640e+02  -9.317127707166e+01   1.214005003123e+02 
5 1 -3.353029054123e+02  -1.955506696757e+02   1.170481147268e+02 
6 1 -1.475765801466e+02   1.055111527934e+02  -1.531949401934e+02 
7 1 -3.825983322238e+02   1.307888363186e+01   3.466785110211e+02 
8 1 -1.646019888172e+02  -8.930678463156e+01   4.314143724673e+02 
8
Step 4000
1 1 -1.312476726249e+02  -2.975724791158e+02   1.168970948726e+02 
2 1 -1.961335193802e+02   1.320951324151e+02   3.006280416069e+02 
3 1  2.229969390793e+02   5.724092035709e+01   2.511199643677e+02 
4 1 -1.028381748456e+02   3.884335237706e+01  -1.183285921878e+02 
5 1 -1.455217626974e+02   1.596737833164e+01   1.678788730960e+02 
6 1 -1.775211318586e+02  -1.241336262247e+00   1.691689553685e+01 
7 1 -3.866358862430e+02   6.709499078204e+01   2.169241309694e+02 
8 1  3.815760966223e+01  -2.098978155398e+02   3.316073956300e+02 
8
Step 5000
1 1 -4.284973856009e+01  -3.438438048344e+02   3.332700861954e+01 
2 1  3.372214985715e+01  -1.013497991512e+02   1.919902419386e+02 
3 1  1.575797781928e+02   1.462809653010e+02   2.470956269453e+02 
4 1 -2.513722431374e+01   1.333341741686e+02  -3.089074187259e+02 
5 1  5.554602214364e+01   1.537699314458e+02   1.227490254285e+02 
6 1 -1.427183688629e+02  -1.103634338280e+02   2.393163730697e+02 
7 1 -2.362656944902e+02   1.385392281547e+02   2.166903620689e+01 
8 1  1.888223320885e+02  -2.233360518668e+02   9.573381565633e+01 
8
Step 6000
1 1  6.637279621606e+01  -2.649640378949e+02  -4.880781048784e+01 
2 1  2.379646213265e+02  -2.485135547825e+02   2.645205164227e+01 
3 1  4.229223607567e+01   2.010481008789e+02   1.329565870791e+02 
4 1  4.783668239660e+01   1.655818663019e+02  -3.737679923311e+02 
5 1  1.698437062912e+02   1.902805933897e+02   4.739559191002e-01 
6 1 -6.634062356617e+01  -1.986687888068e+02   3.969037229614e+02 
7 1 -1.492971737889e+01   2.106870229463e+02  -1.487031211129e+02 
8 1  2.616378447827e+02  -1.061669908562e+02  -1.310926281407e+02 
8
Step 7000
1 1  1.358044897814e+02  -9.944714355086e+01  -9.364928999488e+01 
2 1  3.038151545394e+02  -2.372264724983e+02  -1.035667207692e+02 
3 1 -5.199455023986e+01   1.958218485741e+02  -2.433998438980e+01 
4 1  8.880537258897e+01   1.379177781592e+02  -2.969972458727e+02 
5 1  1.623599036706e+02   1.408644465018e+02  -1.464529115541e+02 
6 1  1.716630925040e+01  -2.385916785749e+02   3.721885170230e+02 
7 1  1.857143952625e+02   2.445149240458e+02  -2.286318114648e+02 
8 1  2.528842221705e+02   9.358049127867e+01  -2.518076629694e+02 
8
Step 8000
1 1  1.282061221965e+02   8.292575953916e+01  -9.044562595126e+01 
2 1  1.940020054768e+02  -9.495711696195e+01  -1.460435860160e+02 
3 1 -8.013139982276e+01   1.230108287862e+02  -1.498458386087e+02 
4 1  9.333025699269e+01   7.106409167501e+01  -1.466727127390e+02 
5 1  6.939873373405e+01   4.941089893241e+01  -2.516822942527e+02 
6 1  7.509139342634e+01  -2.107979686550e+02   1.671573137669e+02 
7 1  2.940558585560e+02   1.974537179483e+02  -1.963108538850e+02 
8 1  1.857029322494e+02   2.926399455677e+02  -2.311394463562e+02 
8
Step 9000
1 1  4.260249816409e+01   2.215783072919e+02  -5.572205314233e+01 
2 1 -1.220312564434e+01   7.685446655649e+01  -9.933271119013e+01 
3 1 -3.720674971646e+01  -6.183525054724e+00  -1.891814300755e+02 
4 1  7.490950215627e+01  -1.279104246086e+01   4.657571009494e+00 
5 1 -3.305841736679e+01  -3.676596022979e+01  -2.539746876007e+02 
6 1  8.486236902748e+01  -1.187376269272e+02  -9.945882327464e+01 
7 1  2.753952521160e+02   5.246712714573e+01  -9.133396680123e+01 
8 1  9.412846662686e+01   3.892349744873e+02  -1.140626854107e+02 
8
Step 10000
1 1 -9.253127198425e+01   2.731765244898e+02  -1.981204645668e+01 
2 1 -1.918436375087e+02   1.785343279516e+02  -5.627719808177e+00 
3 1  4.530217888991e+01  -1.717396741488e+02  -1.305971482601e+02 
4 1  5.215238103588e+01  -1.016675262821e+02   1.194620105162e+02 
5 1 -8.102566894336e+01  -8.231166194401e+01  -1.303671737714e+02 
6 1  4.303299426727e+01   1.334391965329e+01  -3.011038157952e+02 
7 1  1.667697736623e+02  -1.754185610998e+02   1.699790903401e+01 
8 1  3.668169362083e+00   3.094858589274e+02   1.484901111541e+01 
8
Step 11000
1 1 -2.306993242186e+02   2.335524003203e+02  -8.749962517011e+00 
2 1 -2.496854417192e+02   1.616647589938e+02   7.925830389783e+01 
3 1  1.203077301572e+02  -3.396544065570e+02  -1.372023222381e+01 
4 1  3.718248816925e+01  -1.897378115624e+02   1.800896598296e+02 
5 1 -5.545544065882e+01  -6.975203526494e+01   9.615757605088e+01 
6 1 -3.257191362838e+01   1.548912096646e+02  -3.407689112881e+02 
7 1  4.194193573870e+01  -4.348990717380e+02   7.621290659847e+01 
8 1 -7.198779065288e+01   8.699611669110e+01   8.987709598324e+01 
8
Step 12000
1 1 -2.998622810253e+02   1.477560728722e+02  -2.993048583300e+01 
2 1 -1.731256826387e+02   5.800919460999e+01   1.148539469041e+02 
3 1  1.464100432476e+02  -4.314331544226e+02   9.524493394190e+01 
4 1  2.701651622887e+01  -2.602915994892e+02   1.824385500015e+02 
5 1  1.304690974418e+01  -4.926181652061e+00   3.771598964048e+02 
6 1 -1.062849694192e+02   2.727911807677e+02  -2.263922553949e+02 
7 1 -4.828390609028e+01  -5.784358025751e+02   7.264083476616e+01 
8 1 -1.262768144532e+02  -1.804290984881e+02   8.534749360241e+01 
8
Step 13000
1 1 -2.279294602710e+02   6.793840845063e+01  -5.895229486794e+01 
2 1 -3.898549035600e+01  -5.244097268252e+01   9.221074667122e+01 
3 1  1.026472509678e+02  -3.531860817479e+02   1.351161746155e+02 
4 1  3.559166815367e-01  -2.701218676938e+02   1.385475644045e+02 
5 1  7.196340327162e+01   8.131693211831e+01   5.784458135418e+02 
6 1 -1.262862889366e+02   3.232476053235e+02  -7.003249128484e+01 
7 1 -8.627034650577e+01  -4.393771423609e+02   2.915664037886e+01 
8 1 -1.570756860439e+02  -3.919381622666e+02   1.743347866410e+01 
8
Step 14000
1 1 -2.525765778080e+01   1.464441378036e+01  -4.498625951974e+01 
2 1  7.135200924483e+01  -1.058819751138e+02   3.366063170255e+01 
3 1 -5.499441409508e+00  -1.100130840504e+02   7.822975120072e+01 
4 1 -6.653535402294e+01  -1.649829118398e+02   7.079366219703e+01 
5 1  8.464199268928e+01   1.413433241804e+02   4.886924049816e+02 
6 1 -5.459289594213e+01   2.662023080499e+02   4.618483128470e+01 
7 1 -7.680054574723e+01  -9.889377521977e+01  -1.885678710972e+01 
8 1 -1.664704919301e+02  -4.331252510662e+02  -7.024896166478e+01 
8
Step 15000
1 1  2.103170525538e+02  -1.964348879434e+01   4.290680045613e+01 
2 1  1.226281696784e+02  -8.587678707156e+01  -2.796680914999e+01 
3 1 -1.498815881818e+02   2.130897124314e+02  -4.887167471681e+01 
4 1 -1.663903766395e+02   7.430710468071e+01   7.485639638352e-01 
5 1  5.100636788163e+01   1.308398911419e+02   1.419255876413e+02 
6 1  8.349217921860e+01   1.031824566927e+02   1.026099770452e+02 
7 1 -3.951175036683e+01   2.534231353020e+02  -4.753620105288e+01 
8 1 -1.546253867788e+02  -2.694062964256e+02  -1.261010855124e+02 
8
Step 16000
1 1  3.485529712141e+02  -5.137237760872e+01   1.741891186132e+02 
2 1  1.170031304204e+02  -1.678631757422e+01  -7.083537315517e+01 
3 1 -2.784046998540e+02   4.989959445550e+02  -1.752541596789e+02 
4 1 -2.493340030330e+02   3.954876352123e+02  -5.698456960131e+01 
5 1 -2.501090766756e+00   3.595594763982e+01  -2.598110065097e+02 
6 1  2.074529651952e+02  -1.247133820035e+02   1.059567936827e+02 
7 1 -2.503230509103e+00   4.636377386700e+02  -5.013145780275e+01 
8 1 -1.118999229313e+02  -1.211605587214e+01  -1.078846322340e+02 
8
Step 17000
1 1  3.089002024459e+02  -9.140172718770e+01   2.697361380516e+02 
2 1  7.618910544180e+01   6.025245300219e+01  -8.797829814860e+01 
3 1 -3.159562759027e+02   5.597195757505e+02  -2.164063265194e+02 
4 1 -2.511072698435e+02   6.106323103874e+02  -9.504636974666e+01 
5 1 -4.886484724774e+01  -1.112961584947e+02  -5.383701927279e+02 
6 1  2.368575133950e+02  -3.507095934078e+02   7.400817877943e+01 
7 1  6.388509960024e+00   4.127694468031e+02  -3.028838448100e+01 
8 1 -2.863851287259e+01   2.072676376721e+02  -5.979860579920e+00 
8
Step 18000
1 1  1.407152163701e+02  -1.394721464588e+02   2.523487425776e+02 
2 1  2.669025674783e+01   1.052956274409e+02  -8.052927101039e+01 
3 1 -2.144297866516e+02   3.467080474637e+02  -1.243778059133e+02 
4 1 -1.393364827392e+02   5.008311511168e+02  -1.115700729313e+02 
5 1 -7.300194255746e+01  -2.414198094320e+02  -5.096268282861e+02 
6 1  1.454528315009e+02  -4.610343708638e+02   3.053879603547e+01 
7 1 -2.802339757078e+01   1.919669328889e+02   4.235545967877e+00 
8 1  8.760346152633e+01   2.967284126973e+02   1.411283015684e+02 
8
Step 19000
1 1 -4.301183168759e+01  -1.843195651037e+02   1.066800288880e+02 
2 1 -1.164943726708e+01   9.155724647851e+01  -5.269753841550e+01 
3 1 -2.814474607599e+00   4.704144999955e+01   7.158777292124e+01 
4 1  6.144322323647e+01   1.654214852879e+02  -1.077302282999e+02 
5 1 -7.049177752879e+01  -2.754552691395e+02  -2.440126232317e+02 
6 1 -2.738459996585e+01  -3.675280661187e+02  -2.389789366285e+00 
7 1 -9.670716707817e+01   8.529495171754e+00   4.322706851462e+01 
8 1  2.043198373047e+02   2.295817939624e+02   2.588995395993e+02 
8
Step 20000
1 1 -1.526805915299e+02  -2.028918643563e+02  -1.122559965104e+02 
2 1 -3.145914356581e+01   1.814594941047e+01  -1.073542072618e+01 
3 1  2.414901618825e+02  -1.897846715992e+02   2.810705371473e+02 
4 1  2.796717355205e+02  -1.825579474139e+02  -8.502735961521e+01 
5 1 -4.476289654065e+01  -1.788198370452e+02  -2.947365794684e-01 
6 1 -2.089444396496e+02  -1.319051063714e+02  -1.284695563798e+01 
7 1 -1.638420183387e+02  -6.108537014487e+01   7.418825130115e+01 
8 1  2.671988455656e+02   7.147845845986e+01   2.739256237859e+02 
8
Step 21000
1 1 -1.510098534640e+02  -1.688044271725e+02  -3.127397642587e+02 
2 1 -3.737614969410e+01  -8.551067299793e+01   3.705026834823e+01 
3 1  4.098819215895e+02  -2.961887928064e+02   3.811611014902e+02 
4 1  4.082671429657e+02  -4.149944986147e+02  -4.419756602758e+01 
5 1 -5.316324996486e+00   9.592852065792e+00   1.177745949511e+02 
6 1 -3.143890255398e+02   1.233664147798e+02  -3.180639173521e+00 
7 1 -1.793473361634e+02  -5.041691577490e+01   8.462885402903e+01 
8 1  2.302121327356e+02  -7.640016354782e+01   1.683809717733e+02 
8
Step 22000
1 1 -6.508217955054e+01  -7.195538712302e+01  -3.872366459398e+02 
2 1 -3.988491174853e+01  -1.687591427825e+02   8.039335193493e+01 
3 1  3.929023397574e+02  -2.624346012363e+02   2.913142418435e+02 
4 1  3.616071599297e+02  -4.388455036898e+02   1.323530705542e+01 
5 1  3.516008456517e+01   2.098557311866e+02   1.339781584348e+02 
6 1 -2.802624187363e+02   3.044195616348e+02   1.300003502308e+01 
7 1 -1.068907526376e+02  -1.294150487987e+01   6.718174602133e+01 
8 1  9.832422255906e+01  -1.377832665992e+02  -7.681535595178e+00 
8
Step 23000
1 1  3.547299363265e+01   7.266674041149e+01  -2.865084873996e+02 
2 1 -4.650088349564e+01  -1.811017025515e+02   1.073727718851e+02 
3 1  2.043054966607e+02  -1.463205760808e+02   6.541136530838e+01 
4 1  1.733949008907e+02  -2.892206859151e+02   8.136187946599e+01 
5 1  6.474061130042e+01   3.276300426272e+02   9.335571364982e+01 
6 1 -1.206161827904e+02   3.425921057649e+02   1.904310939483e+01 
7 1  5.222131483712e+01   1.158751973065e+01   2.431090910529e+01 
8 1 -7.560864054901e+01  -8.969158717015e+01  -1.802698513774e+02 
8
Step 24000
1 1  8.076101946512e+01   2.247090398623e+02  -7.819679981682e+01 
2 1 -5.512576675734e+01  -1.029643681603e+02   1.067778605392e+02 
3 1 -3.592610977841e+01  -2.343076752309e+01  -1.766796153095e+02 
4 1 -5.193104822837e+01  -9.439630270565e+01   1.458295161830e+02 
5 1  7.592900703472e+01   2.934126459785e+02   3.962761951280e+01 
6 1  9.046161043710e+01   2.401284488692e+02   4.221070586870e+00 
7 1  2.542406191412e+02   3.007803120558e+00  -3.145839791718e+01 
8 1 -2.197065171185e+02   3.066800945373e+01  -2.805760525402e+02 
8
Step 25000
1 1  3.729058368619e+01   3.187314288841e+02   1.336085381250e+02 
2 1 -5.440460852438e+01   3.991548700007e+01   7.282592828533e+01 
3 1 -2.199965639038e+02   5.848733344327e+01  -3.264021341005e+02 
4 1 -2.284238686370e+02   6.533552732993e+01   1.829675922618e+02 
5 1  6.738408955563e+01   1.283385012150e+02   1.265815774631e+01 
6 1  2.687822567012e+02   8.016725110763e+01  -3.037258914349e+01 
7 1  4.058648327581e+02  -3.614549758607e+01  -8.179930078914e+01 
8 1 -2.642783320039e+02   1.520056539510e+02  -2.697846335312e+02 
8
Step 26000
1 1 -7.413979989365e+01   2.980166851513e+02   2.662330842400e+02 
2 1 -3.109036295893e+01   1.888215064746e+02   8.714519385348e+00 
3 1 -2.778715115507e+02   8.328650339409e+01  -3.175781640993e+02 
4 1 -2.959994343278e+02   1.585884893922e+02   1.675411586074e+02 
5 1  4.270931961408e+01  -7.972948519398e+01   3.263441894124e+01 
6 1  3.338319640085e+02  -4.956317641317e+01  -7.146636459934e+01 
7 1  3.958746372950e+02  -8.457227124951e+01  -1.088872402849e+02 
8 1 -1.858365245328e+02   2.003494243146e+02  -1.691636784758e+02 
8
Step 27000
1 1 -1.907845383693e+02   1.700464462000e+02   2.708039466780e+02 
2 1  2.005760122999e+01   2.707435872487e+02  -7.277998956489e+01 
3 1 -2.029836905981e+02   6.020656460104e+01  -1.834433164793e+02 
4 1 -2.419615145860e+02   1.756639633884e+02   8.778391233115e+01 
5 1  7.380589085322e+00  -2.388401761055e+02   8.486485298915e+01 
6 1  2.532946087136e+02  -1.029930696823e+02  -9.872888078048e+01 
7 1  2.135937095254e+02  -1.142000915525e+02  -1.021931739476e+02 
8 1 -3.066450776095e+01   1.318549496187e+02  -3.906391338993e+01 
8
Step 28000
1 1 -2.346052513619e+02  -5.769468600414e+00   1.655517862463e+02 
2 1  8.921790526728e+01   2.346718413598e+02  -1.493354659540e+02 
3 1 -6.304859506860e+01   1.440906797256e+01  -1.321510223191e+01 
4 1 -1.166252661859e+02   1.287570534358e+02  -4.551965676636e+01 
5 1 -3.370984057280e+01  -2.768168153824e+02   1.258793146643e+02 
6 1  8.039030228043e+01  -8.259450933140e+01  -9.311112253158e+01 
7 1 -4.653243871018e+01  -1.043531836278e+02  -6.313864481277e+01 
8 1  1.251606401291e+02  -4.019949032656e+01   6.779155105957e+01 
8
Step 29000
1 1 -1.548709008651e+02  -1.668115022597e+02   2.202385537500e+01 
2 1  1.506411616321e+02   9.341143452807e+01  -1.915472798684e+02 
3 1  5.520360434200e+01  -2.641701846157e+01   1.259428181839e+02 
4 1  1.166552728141e+01   4.823171424047e+01  -1.987543650241e+02 
5 1 -7.617184447284e+01  -1.817528844956e+02   1.113483426516e+02 
6 1 -9.849474349981e+01  -2.857429934486e+01  -4.518706781135e+01 
7 1 -2.833399562914e+02  -5.234351421735e+01  -4.331182540904e+00 
8 1  2.128111899116e+02  -2.556575585488e+02   1.247672528551e+02 
8
Step 30000
1 1  3.399477507782e+01  -2.599881851101e+02  -9.031746802341e+01 
2 1  1.701832107971e+02  -8.990527963445e+01  -1.746777765752e+02 
3 1  9.503570193559e+01  -4.282300956766e+01   1.930586589303e+02 
4 1  9.582881507006e+01  -3.091221360958e+01  -3.121071880291e+02 
5 1 -1.132531723584e+02  -1.523425420224e+01   2.578814806986e+01 
6 1 -2.121785884029e+02   8.542685502784e+00   4.045174029869e+01 
7 1 -3.982848755099e+02   2.563016170049e+01   5.570257002948e+01 
8 1  1.963815829818e+02  -4.135350775575e+02   1.320113208263e+02 
8
Step 31000
1 1  2.633485896636e+02  -2.549590151600e+02  -1.318931878545e+02 
2 1  1.221438514512e+02  -2.385900653021e+02  -9.440485918267e+01 
3 1  4.928276226423e+01  -2.892862230706e+01   1.726197427799e+02 
4 1  1.172665667234e+02  -7.942683970763e+01  -3.151420746156e+02 
5 1 -1.330538751099e+02   1.377241192104e+02  -1.061117022552e+02 
6 1 -2.207647835849e+02  -3.446643319671e+00   1.446388441217e+02 
7 1 -3.390435155089e+02   1.024119577123e+02   9.871801737635e+01 
8 1  9.489383762698e+01  -3.918273362932e+02   1.106962227871e+02 
8
Step 32000
1 1  4.199883060309e+02  -1.676301758780e+02  -1.012279432286e+02 
2 1  5.568804620452e+00  -2.830905963632e+02   3.022534538057e+01 
3 1 -4.349549075539e+01   7.375559052999e+00   8.460543747129e+01 
4 1  8.536520412482e+01  -8.039056891395e+01  -1.867976433267e+02 
5 1 -1.203276813284e+02   2.075737000123e+02  -2.272337925563e+02 
6 1 -1.381738441889e+02  -6.161947693366e+01   2.320874301326e+02 
7 1 -1.693143042068e+02   1.501879502331e+02   1.124349526834e+02 
8 1 -3.850063571127e+01  -1.713276917405e+02   8.683513133224e+01 
8
Step 33000
1 1  3.851109548760e+02  -4.625539617037e+01  -3.019732600094e+01 
2 1 -1.527799132413e+02  -2.026365720657e+02   1.631292216667e+02 
3 1 -1.250300290697e+02   4.937746857929e+01  -2.501216790901e+01 
4 1  2.908681243888e+01  -3.508474540393e+01   2.417382292165e+01 
5 1 -6.338832310425e+01   1.667721934416e+02  -2.683166366628e+02 
6 1 -2.473583364521e+01  -1.309147751900e+02   2.554710673502e+02 
7 1  9.709650994344e+00   1.512444728881e+02   9.486130134772e+01 
8 1 -1.552905554198e+02   1.464526347470e+02   7.261866769143e+01 
8
Step 34000
1 1  1.675284296721e+02   6.290160038539e+01   3.737153835750e+01 
2 1 -2.973312057100e+02  -4.754175513799e+01   2.561743393955e+02 
3 1 -1.441848478603e+02   7.931339415098e+01  -1.044494211480e+02 
4 1 -1.925011756719e+01   3.578590364179e+01   2.418161580293e+02 
5 1  3.827728137260e+01   4.814475765620e+01  -1.917375851224e+02 
6 1  5.485127723537e+01  -1.632611956301e+02   1.822293652582e+02 
7 1  1.342630646852e+02   1.063692690228e+02   5.473368227646e+01 
8 1 -2.276129613742e+02   4.335858408359e+02   6.118592489466e+01 
8
Step 35000
1 1 -1.129968114675e+02   1.295708750909e+02   6.771492206320e+01 
2 1 -3.458664482530e+02   1.038319218561e+02   2.654755911647e+02 
3 1 -7.490900693232e+01   8.479354832012e+01  -1.166209071609e+02 
4 1 -3.786385775036e+01   9.773480234959e+01   3.744418140783e+02 
5 1  1.677075655585e+02  -7.975428388704e+01  -2.370364985648e+01 
6 1  6.562258696447e+01  -1.224429579071e+02   2.125357291493e+01 
7 1  1.732989305639e+02   3.260603312995e+01   6.545886742128e+00 
8 1 -2.435639093351e+02   5.205331000128e+02   3.591737218821e+01 
8
Step 36000
1 1 -3.354388642179e+02   1.429121628950e+02   5.007477453033e+01 
2 1 -2.451789539124e+02   1.864730315417e+02   1.812977861137e+02 
3 1  7.910734939399e+01   6.204957116002e+01  -5.980381886250e+01 
4 1 -2.265861698158e+01   1.137411933130e+02   3.453620327432e+02 
5 1  2.825420892530e+02  -1.531172609133e+02   1.687138577871e+02 
6 1  1.781386315822e+01  -4.094365282862e+00  -1.847499808186e+02 
7 1  1.311724467356e+02  -4.892114242816e+01  -3.737974451623e+01 
8 1 -1.908214142954e+02   3.371272981588e+02  -1.668748119281e+01 
8
Step 37000
1 1 -3.911935584836e+02   1.139007445632e+02  -1.069715589191e+00 
2 1 -2.803903075180e+01   1.718620594313e+02   3.522847952505e+01 
3 1  2.836855021734e+02   1.518706199077e+01   3.021838446888e+01 
4 1  1.349481524912e+01   6.087992748956e+01   1.773581225754e+02 
5 1  3.181428778267e+02  -1.419244002042e+02   3.023441432183e+02 
6 1 -4.251044365333e+01   1.619814524112e+02  -3.636953786805e+02 
7 1  4.782841311025e+01  -1.234096952767e+02  -7.196485402882e+01 
8 1 -5.466461712022e+01   4.686912434981e+01  -9.791153092108e+01 
8
Step 38000
1 1 -2.598916998255e+02   6.841073581259e+01  -5.594192503951e+01 
2 1  2.255241671983e+02   8.299894596109e+01  -1.226368525363e+02 
3 1  4.401330556847e+02  -4.742726864984e+01   9.973640423618e+01 
4 1  4.841831164700e+01  -5.398697347124e+01  -3.189600510869e+01 
5 1  2.302043076244e+02  -6.445792030317e+01   3.008158990609e+02 
6 1 -6.367232372126e+01   3.126387497650e+02  -4.193498889065e+02 
7 1 -2.342533970259e+01  -1.834414703479e+02  -9.744009557993e+01 
8 1  1.508539539559e+02  -1.844602481174e+02  -1.924676662339e+02 
8
Step 39000
1 1 -5.438655026804e+01   3.152851593796e+01  -8.544105472307e+01 
2 1  4.122454474565e+02  -2.274998077697e+01  -2.381565633480e+02 
3 1  4.041009074024e+02  -1.156487467101e+02   1.043649998986e+02 
4 1  6.115560265218e+01  -1.903352666344e+02  -1.915929006304e+02 
5 1  3.631340005493e+01   3.090774656735e+01   1.580643520620e+02 
6 1 -2.034213375820e+01   3.551669657422e+02  -3.157513841216e+02 
7 1 -4.121168986075e+01  -2.201752710946e+02  -1.126664561978e+02 
8 1  3.466967162137e+02  -2.783576919700e+02  -2.648662958693e+02 
8
Step 40000
1 1  9.488770560927e+01   1.349835815943e+01  -7.469890232720e+01 
2 1  4.176126200085e+02  -8.902446487014e+01  -2.644324281286e+02 
3 1  1.608627132011e+02  -1.752980486111e+02   3.679199598624e+01 
4 1  4.165571999638e+01  -2.813400254241e+02  -2.407543984461e+02 
5 1 -2.047369299993e+02   9.726626109222e+01  -5.054887215663e+01 
6 1  6.990386148494e+01   2.353651292534e+02  -1.198291240230e+02 
7 1  2.616301143986e-01  -2.144932217287e+02  -1.091315881753e+02 
8 1  4.068455272101e+02  -2.279150530973e+02  -2.631721157991e+02 
8
Step 41000
1 1  1.249904365255e+02   5.707945949735e+00  -2.791043728613e+01 
2 1  2.379594012764e+02  -8.749458472716e+01  -1.922931993210e+02 
3 1 -1.733672083021e+02  -2.035670365618e+02  -6.681359806338e+01 
4 1 -4.486627476435e+00  -2.602218511814e+02  -1.733722567640e+02 
5 1 -4.065710497941e+02   1.082344984003e+02  -2.274207345883e+02 
6 1  1.565055427497e+02  -1.320760644572e+00   8.972265057255e+01 
7 1  6.460077169442e+01  -1.445780227287e+02  -7.287689486367e+01 
8 1  2.842413182866e+02  -9.435388433739e+01  -1.516025648051e+02 
8
Step 42000
1 1  6.190548701672e+01  -1.163619743345e+01   3.694059768300e+01 
2 1 -8.769512648597e+00  -2.714707047939e+01  -6.159765303776e+01 
3 1 -4.637184360086e+02  -1.726949508344e+02  -1.478991366040e+02 
4 1 -5.913565396643e+01  -1.108321385076e+02  -4.727178978044e+01 
5 1 -4.523327374651e+02   6.658193706940e+01  -2.851263060499e+02 
6 1  1.848762284387e+02  -2.595913219555e+02   2.622936318709e+02 
7 1  9.873128308266e+01  -2.991059847132e+00   2.999913250014e+00 
8 1  6.627747202591e+01   4.391100274547e+01   5.496190733951e+01 
8
Step 43000
1 1 -1.624691429415e+01  -5.472182604320e+01   9.678833315800e+01 
2 1 -2.098907624523e+02   5.708687661900e+01   6.863145135964e+01 
3 1 -5.404581185295e+02  -6.762534060611e+01  -1.552101230011e+02 
4 1 -9.852183781381e+01   1.233073585697e+02   5.851218992978e+01 
5 1 -3.009972552946e+02  -1.344141846223e+00  -1.908892173473e+02 
6 1  1.298999359850e+02  -4.180505712309e+02   3.542436923199e+02 
7 1  6.670407333315e+01   1.914436692505e+02   1.031499232314e+02 
8 1 -1.382904016207e+02   1.246368147641e+02   2.899754536682e+02 
8
Step 44000
1 1 -4.383190546054e+01  -1.199637065061e+02   1.294253314114e+02 
2 1 -2.878886421188e+02   1.216135974934e+02   1.491286820844e+02 
3 1 -3.642239887832e+02   9.793558224128e+01  -7.529380739064e+01 
4 1 -1.012935605213e+02   3.716788738663e+02   8.705939268766e+01 
5 1 -4.527862686842e+01  -6.215656801562e+01  -4.869752552620e-01 
6 1  1.251652982263e+01  -3.673639236686e+02   3.402413098634e+02 
7 1 -2.784881289891e+01   3.721582877120e+02   1.858005100175e+02 
8 1 -2.576662970833e+02   1.137749585658e+02   4.337947287348e+02 
8
Step 45000
1 1  6.309861701513e+00  -1.769998476360e+02   1.202454240730e+02 
2 1 -2.208855136375e+02   1.276619458278e+02   1.566796240166e+02 
3 1 -1.053245329306e+02   2.742948476564e+02   5.712570573392e+01 
4 1 -5.803377245232e+01   5.170243497463e+02   2.980409645724e+01 
5 1  2.053692344458e+02  -8.982710055095e+01   1.888965933073e+02 
6 1 -1.154817898304e+02  -1.432977487778e+02   2.411790885874e+02 
7 1 -1.407566836995e+02   4.254715278172e+02   1.992159061680e+02 
8 1 -2.603050260215e+02   2.133356397619e+01   3.810222256925e+02 
8
Step 46000
1 1  1.178865245232e+02  -1.829009388777e+02   6.836617048971e+01 
2 1 -7.190949469392e+01   5.597091590037e+01   1.018135720837e+02 
3 1  1.013129632651e+02   3.762746785074e+02   1.782226970393e+02 
4 1  2.305839899170e+01   4.339665931588e+02  -7.215736915209e+01 
5 1  3.582856451500e+02  -7.680090692686e+01   2.806133338073e+02 
6 1 -1.970156596208e+02   1.126076560811e+02   1.023641839013e+02 
7 1 -2.058375037597e+02   3.047788477673e+02   1.194055686459e+02 
8 1 -1.721954550943e+02  -9.979871437565e+01   1.738303366159e+02 
8
Step 47000
1 1  2.314709596043e+02  -1.108624819264e+02  -1.427990527270e+01 
2 1  6.029900147701e+01  -7.975391208567e+01   2.014933872547e+01 
3 1  2.103783643702e+02   3.368192804506e+02   2.217764786765e+02 
4 1  1.178406759747e+02   1.650878642052e+02  -1.549799938851e+02 
5 1  3.431172686314e+02  -3.491874448764e+01   2.153378448679e+02 
6 1 -1.956940640233e+02   2.669443907856e+02  -4.244720897915e+01 
7 1 -1.708995606432e+02   8.704433017420e+01  -2.615093031799e+01 
8 1 -5.662703598480e+01  -1.780984422131e+02  -6.052163993946e+01 
8
Step 48000
1 1  2.682553882879e+02   3.214880450689e+01  -1.055783413651e+02 
2 1  1.076261889823e+02  -2.251654959922e+02  -4.666169144512e+01 
3 1  2.234327314232e+02   1.767046276980e+02   1.543208430003e+02 
4 1  1.880560530384e+02  -1.514856866178e+02  -1.585361592195e+02 
5 1  1.884260314234e+02   1.671329114876e+01   2.050398482240e+01 
6 1 -1.176361830471e+02   2.419527518848e+02  -1.722214246413e+02 
7 1 -3.613186452382e+01  -1.364686703902e+02  -1.722340947722e+02 
8 1  3.231842203477e+01  -1.620581446282e+02  -2.217730731617e+02 
8
Step 49000
1 1  1.812441602542e+02   2.096365299566e+02  -1.747164194976e+02 
2 1  6.529455401554e+01  -2.920929185051e+02  -6.918546441089e+01 
3 1  1.773290458416e+02  -3.233870539639e+01  -2.523884199880e+00 
4 1  1.890441495721e+02  -4.175145024225e+02  -5.184915314188e+01 
5 1 -4.166468829762e+00   6.063344500527e+01  -2.135024820519e+02 
6 1 -5.182302831440e+00   7.863712537280e+01  -2.626179325962e+02 
7 1  1.451641979345e+02  -2.978543917556e+02  -2.410010728328e+02 
8 1  7.085608290824e+01  -5.449546391783e+01  -2.551748175911e+02 
8
Step 50000
1 1 -1.132758778406e+01   3.532728315058e+02  -1.920604455419e+02 
2 1 -1.503982140541e+01  -2.196138692800e+02  -4.020066508642e+01 
3 1  1.189535296033e+02  -2.237576308704e+02  -1.899898101857e+02 
4 1  9.572754085516e+01  -5.166974352187e+02   1.487686050891e+02 
5 1 -1.510938507879e+02   8.471974562625e+01  -3.675763946551e+02 
6 1  9.063747702435e+01  -1.080536577593e+02  -2.877204909259e+02 
7 1  2.864640153693e+02  -3.427451174604e+02  -1.821802214191e+02 
8 1  6.244823907110e+01   9.463989896932e+01  -1.729103170397e+02 
8
Step 51000
1 1 -2.395469048749e+02   3.654060182470e+02  -1.466549559562e+02 
2 1 -7.321437099948e+01  -3.685965023234e+01   2.579057874470e+01 
3 1  7.485306249378e+01  -3.345866098639e+02  -3.229025251730e+02 
4 1 -7.550066555119e+01  -3.739991627243e+02   3.721619715735e+02 
5 1 -2.073203606892e+02   8.343685418723e+01  -3.298099189988e+02 
6 1  1.323287657128e+02  -2.109783441928e+02  -2.395721239247e+02 
7 1  2.960619953183e+02  -2.688215859648e+02  -1.603761124231e+01 
8 1  2.743340837877e+01   2.169656792857e+02  -4.656157886354e+01 
8
Step 52000
1 1 -3.955983538944e+02   2.024230671202e+02  -5.197192695105e+01 
2 1 -7.942471963531e+01   1.710823559968e+02   9.759436210824e+01 
3 1  4.339421084184e+01  -3.230939773556e+02  -3.028965163263e+02 
4 1 -2.661454449696e+02  -1.070087647077e+02   4.670394462120e+02 
5 1 -1.682716702493e+02   5.811817863039e+01  -1.093500734402e+02 
6 1  1.097005065459e+02  -1.723824900947e+02  -1.342230837910e+02 
7 1  1.484793536890e+02  -1.308078831540e+02   1.786542974209e+02 
8 1 -7.022289375821e+00   2.491462510060e+02   4.594872119437e+01 
8
Step 53000
1 1 -3.828136888284e+02  -7.147026804610e+01   6.364060857312e+01 
2 1 -3.832430286275e+01   3.102365657679e+02   1.305715208568e+02 
3 1  7.259751166773e+00  -2.110841683340e+02  -1.079925966492e+02 
4 1 -3.740807982684e+02   1.264190759314e+02   3.088338952502e+02 
5 1 -6.775221720230e+01   1.576181288047e+01   1.764182174694e+02 
6 1  4.385108072994e+01  -1.839213753257e+01   2.389164965233e+00 
7 1 -9.234076951309e+01   1.095062175421e+01   2.980610600076e+02 
8 1 -1.666279263532e+01   1.714789394332e+02   5.962308563492e+01 
8
Step 54000
1 1 -2.173307894192e+02  -3.446365309556e+02   1.652829337388e+02 
2 1  2.471724634143e+01   3.121395143193e+02   8.178558292860e+01 
3 1 -4.780316584218e+01  -6.229761898286e+01   1.781406097550e+02 
4 1 -3.072509027489e+02   2.456900161016e+02  -2.947382645751e+01 
5 1  4.350425246739e+01  -3.212435027218e+01   3.888182841706e+02 