8
Step 0
1 1  3.925936639999e+02  -1.543008928071e+02  -1.440228048609e+02 
2 1 -3.379341087660e+02  -3.925505874471e+02   3.683521818855e+02 
3 1 -3.424884316572e+02  -2.182720383758e+02   4.091092859017e+02 
4 1 -2.495589300526e+02  -4.683427121431e+01   3.142915232886e+02 
5 1  3.184003193496e+02  -2.363421945060e+02   2.760046204839e+02 
6 1  6.480739281491e+02   6.885028007930e+02  -2.003080180061e+02 
7 1  1.705097250055e+01  -3.196006587446e+02  -1.875622399230e+01 
8 1 -1.126140154026e+02  -3.910938041795e+02   4.674400516380e+02 
8
Step 1000
1 1 -1.069118800914e+02   1.765467642278e+02  -1.978306881888e+02 
2 1 -8.622301814605e+01   2.356221189351e+02   1.910290678769e+02 
3 1  2.427862023361e+02  -5.352124071706e+02   3.650643016196e+01 
4 1  7.018343748884e+01   2.190653609487e+02  -1.008947914827e+02 
5 1  1.377790244152e+02  -4.907985493569e+02   2.765303627969e+02 
6 1 -2.719743481865e+02   3.350768440351e+02   1.113317019443e+02 
7 1  4.549492964029e+02  -3.301370081628e+02   3.518453380939e+01 
8 1 -8.866890865423e+01  -8.126121817106e+01   2.575168834235e+02 
8
Step 2000
1 1  1.509617155262e+02  -5.177255399801e+02  -3.175307683389e+02 
2 1 -1.784394415848e+02  -2.413180727711e+02   5.046297890174e+02 
3 1 -9.435162779879e+00  -4.163773379666e+02   3.125419544916e+02 
4 1 -2.235556895902e+02   1.320700406684e+02  -2.295446786516e+02 
5 1 -1.410567980941e+02  -7.516712597301e+01   7.010824683111e+01 
6 1 -1.933428127547e+02  -6.450048432280e+01   1.783648983457e+02 
7 1  4.058261754028e+02   4.542308348553e+01   1.790438362420e+02 
8 1  2.861259089471e+02   1.204733961823e+02   3.107345850170e+02 
8
Step 3000
1 1  1.454933292518e+01   5.439980671998e+02  -5.050378493500e+02 
2 1 -3.566241164209e+00  -3.822642154189e+02  -1.366438028280e+02 
3 1  4.200625789643e+02  -1.469801980006e+02  -1.844247638054e+01 
4 1  8.444562714054e+01  -2.287988238191e+02  -1.037911015111e+03 
5 1  1.159638574238e+02  -2.344537501488e+01   1.738553551471e+02 
6 1  6.299778557428e+01  -2.281530559929e+02   9.440776066582e+02 
7 1  1.139511498255e+01  -2.475722005916e+02   3.558437161232e+02 
8 1 -3.406764583289e+01   9.754388257812e+01  -1.432133462952e+02 
8
Step 4000
1 1  4.050507567888e+02   2.544294715396e+02   4.087632156039e+00 
2 1 -2.709111650713e+01  -7.809874165332e+01  -2.080704363307e+00 
3 1 -1.154795323464e+02  -4.119327049014e+02  -5.885229829592e+01 
4 1 -1.771260568849e+02   4.857641817020e+01   1.734894809759e+02 
5 1 -3.903295023546e+02  -5.347732795079e+02   5.873846196842e+01 
6 1  5.061155800191e+02   9.608180857911e+00   2.103668003229e+02 
7 1  3.550921569356e+02   1.962754660875e+02  -2.416834825046e+02 
8 1  2.181728348357e+02  -1.320789548207e+02  -2.430869298622e+02 
8
Step 5000
1 1  3.832721615099e+02   3.193950475943e+01  -2.879343159329e+02 
2 1 -3.986186747127e+02  -2.184351791835e+02   4.262104178248e+02 
3 1 -1.162159291906e+02  -4.201412970870e+02  -5.947823991422e+02 
4 1 -1.300075134368e+02   6.322683554448e+02  -4.387820035814e+02 
5 1 -8.824765074985e+01  -4.007684747835e+02   3.338617482272e+02 
6 1 -1.406473251315e+01   5.188810347317e+02   2.411990152234e+02 
7 1  1.790865527792e+02  -1.028087817114e+02  -1.506260479680e+02 
8 1 -3.099684425352e+02   3.197647865547e+02   1.126108278525e+02 
8
Step 6000
1 1  1.699075334846e+02  -1.801421791758e+02  -6.104927002748e+02 
2 1 -2.658437324092e+01   1.297178750807e+02  -2.067945638991e+02 
3 1 -2.703261773537e+02   1.648208712579e+02   3.899773821749e+01 
4 1 -3.398496095006e+02  -1.297157817721e+02  -2.799974329490e+02 
5 1 -2.731121527199e+02  -2.523805614916e+02   6.671960588371e+02 
6 1 -4.129938132803e+01  -7.122233828671e+01  -1.919162844161e+01 
7 1 -3.100404696843e+02   1.798020062705e+02  -3.529605881527e+02 
8 1  1.697231697661e+02   6.932060107961e+02  -3.112474755193e+02 
8
Step 7000
1 1 -1.089163653876e+02  -8.366459172845e+01  -1.214627396734e+02 
2 1 -1.047842223556e+02  -2.865752718020e+02   1.491163795161e+02 
3 1 -1.582644442953e+02  -1.718270280068e+02   4.557445755332e+02 
4 1 -2.584645240811e+02  -2.922526211773e+02  -2.488646600218e+02 
5 1 -3.007998616166e+02   3.180870497223e+02   1.090444432004e+02 
6 1  8.006416104678e+00  -1.756603879104e+02  -1.774161314361e+02 
7 1 -3.546898474396e+02   8.931403620551e+01   1.037765647519e+01 
8 1 -8.715219019095e+01   3.942024325267e+01  -2.774303826427e+02 
8
Step 8000
1 1 -1.770042660687e+02   1.460908912320e+02  -7.521501434255e+01 
2 1  1.331647687842e+02  -8.314753987721e+01  -9.978370712285e+01 
3 1  1.639222963409e+02  -1.973948327396e+02  -1.053377132878e+02 
4 1 -3.812740810895e+02  -2.314557769090e+01   4.517469165433e+02 
5 1 -1.882137491440e+02   1.316509246968e+02  -2.066310488705e+02 
6 1 -3.065374494407e+02   4.749838497552e+02  -6.034121297639e+01 
7 1 -9.897623268500e-01   2.468720818945e+02  -3.405308051540e+02 
8 1 -2.181616313547e+02  -3.316851800183e+02  -3.025270914980e+02 
8
Step 9000
1 1 -2.690206849237e+02  -1.392254767062e+02   2.079806334108e+02 
2 1 -3.112840616527e+02   1.926930716956e+02  -1.174167950339e+02 
3 1  2.778347674994e+02   9.885741810378e+01  -7.147651484690e+02 
4 1  3.398068534835e+02  -2.724287695488e+02   8.262629361179e+01 
5 1 -2.127743002060e+02  -1.211677846272e+02  -1.949274622784e+02 
6 1  7.895659558128e+01   8.062579877640e+02   2.646632632869e+02 
7 1 -2.995438877845e+02   7.791264646252e+01   1.333764487043e+02 
8 1  3.414400374647e+02   1.245710251320e+02  -1.514438741089e+02 
8
Step 10000
1 1  1.663601843809e+02  -3.443172412459e+02  -2.500741721693e+01 
2 1 -3.283823187198e+02   4.134640480113e+01  -7.159600295843e+01 
3 1  6.419689606029e+02   3.617549733450e+02  -1.947269302093e+02 
4 1  1.026814971994e+02  -2.035239840244e+02  -6.448854940120e+01 
5 1  2.663016375736e+02   2.086138905457e+02   8.987937601922e+01 
6 1  1.085447134757e+01   7.015605748485e+01  -1.071319647363e+02 
7 1 -2.091750319767e+02  -2.233675874228e+02  -4.480402321224e+02 
8 1  1.697777219967e+02   8.512807772040e+01  -3.153500267238e+02 
8
Step 11000
1 1  1.625844088878e+02  -5.257297781468e+02   3.506426804808e+02 
2 1 -8.903413242832e+01  -7.113248218248e+01  -1.314568507038e+02 
3 1  1.924907618655e+02   1.223419728354e+02  -3.021042311591e+02 
4 1  2.173816708438e+01   1.209901573767e+02  -3.273975294375e+02 
5 1  1.986533846466e+02  -3.703052567559e+02   1.853901495006e+02 
6 1 -1.082141786060e+02   6.482670759655e+01   2.682629823687e+01 
7 1  6.308415664744e+01  -1.558598320138e+02  -2.542102389044e+02 
8 1 -2.774163719421e+02   1.562366227683e+02  -2.168699952882e+02 
8
Step 12000
1 1 -1.634523415953e+02  -3.532886002871e+02   1.840251369289e+02 
2 1 -1.726928528292e+02   9.467588991037e+01  -2.186587062791e+02 
3 1  1.213448966954e+02   2.593578631747e+02  -2.169913485722e+02 
4 1  2.279375254760e+02   5.719836914892e+01  -7.345522137604e+01 
5 1 -8.255377901945e+01  -4.897025129283e+02   1.415229530332e+01 
6 1  3.051267105093e+02   2.453901383410e+01  -1.445683394176e+02 
7 1  9.001843735572e+01   3.671807177667e+02   9.688151144541e+01 
8 1 -1.132057974819e+02   7.625330688510e+01  -4.142580069800e+02 
8
Step 13000
1 1 -3.250756953895e+01   1.854725312781e+02  -5.843941359563e+01 
2 1  2.603086089963e+02  -6.295150628183e+02   4.195882707179e+01 
3 1  1.674972466713e+02  -8.088904470636e+01  -2.095393679715e+02 
4 1  3.489179661096e+02  -9.285232524611e+01   2.747831456650e+02 
5 1  2.059301528108e+01  -3.534301382649e+02   1.178938862825e+01 
6 1  2.747798291283e+02   1.692242252896e+02   5.176996524309e+02 
7 1 -2.274022687285e+02   2.519587804931e+02   5.155533260721e+02 
8 1 -5.530349548823e+01  -4.092727855933e+02  -2.357936732085e+02 
8
Step 14000
1 1  5.794768025417e+01   2.751075673135e+02   1.039405102904e+01 
2 1 -2.633735940371e+02  -2.681105819179e+02  -2.683935816354e+02 
3 1 -1.977547452887e+02  -3.203549742847e+02   2.702845598331e+02 
4 1  2.910374142252e+02  -3.071236835532e+01   2.098801023136e+02 
5 1  1.924414870894e+02  -7.575337373841e+02  -7.966646373850e+01 
6 1  1.615185544045e+02   2.094965443793e+02   6.577145667168e+01 
7 1  1.524332056749e+02  -2.514252896928e+02   1.240005886540e+01 
8 1  1.141027043370e+01  -2.122176945828e+02   3.871757311894e-01 
8
Step 15000
1 1  1.461738157633e+02   4.913827086960e+02   9.511450915998e+01 
2 1  2.368148151786e+02   3.302025252520e+01  -3.630790007831e+02 
3 1 -2.349450019893e+01  -4.154291126953e+02  -1.193879505017e+02 
4 1 -1.867405784052e+01   8.739382118746e+00  -8.503535932173e+00 
5 1  6.982890025882e+01  -1.550957506724e+02   3.466299377703e+02 
6 1 -4.109226365408e+01   3.121807709846e+02   4.183428023831e+02 
7 1 -6.473958869551e+01  -3.299640516572e+02  -1.583509835085e+01 
8 1 -6.605245002196e+01   3.590715037167e+02   9.050712628042e+01 
8
Step 16000
1 1 -3.326020136459e+02   3.930449512611e+01   2.533400756185e+02 
2 1 -2.041572487771e+02  -3.424320965378e+02  -4.774724910801e+02 
3 1  1.487844908160e+02   3.251702678338e+02   2.455773601802e+02 
4 1  3.082230690547e+01  -3.155787914435e+01  -3.464455691733e+02 
5 1  3.146141181835e+02   2.285625320317e+02  -2.796851690293e+01 
6 1 -2.188733739564e+02  -2.796110758375e+02  -2.214164497373e+02 
7 1  1.184616055927e+02  -3.284400998369e+02  -3.461227468120e+02 
8 1 -1.930460549003e+01   1.814824773884e+02   7.496258383454e+02 
8
Step 17000
1 1 -1.787316077452e+02   2.373167576667e+02   2.046327151732e+02 
2 1 -1.039405397013e+02  -1.261793741462e+02  -4.683733719447e+02 
3 1  4.266466757025e+01   2.831444426400e+02   1.195272333002e+02 
4 1 -1.194709060431e+02  -1.067026924008e+00  -5.418257583123e+00 
5 1 -5.106253750488e+02  -1.776890168371e+01   2.307020008806e+02 
6 1 -4.829502123606e+02  -3.586822045570e+02  -3.119532921677e+02 
7 1  1.661780682362e+01  -6.784069149090e+01  -4.260462745111e+02 
8 1 -9.463411492369e+01  -9.843486429969e+01   1.739513925445e+02 
8
Step 18000
1 1 -2.642810747329e+02   2.593238839622e+02  -4.318547690047e+01 
2 1 -2.968648937004e+02  -1.911221297599e+02  -8.483265890871e+01 
3 1  3.287790519277e+02   2.047486898526e+02  -7.567807981929e+01 
4 1  6.504447004576e+02   2.628589071866e+02  -9.596445541520e+01 
5 1 -4.575771997395e+02  -3.103911460185e+01  -1.029573203712e+02 
6 1 -2.458957307164e+01  -5.775421511566e+01  -1.936006144255e+02 
7 1  4.535726260334e+02  -4.070093787141e+02  -2.673533665503e+02 
8 1  2.162555760307e+02  -8.170429400581e+02   8.359514173081e+02 
8
Step 19000
1 1 -5.337259652791e+02   8.042936392533e+01  -5.039970155955e+02 
2 1 -1.645884291950e+02  -8.631713921520e+01   1.496950320156e+01 
3 1 -1.018180660402e+01  -2.713593847567e+02   4.853478129334e+01 
4 1 -3.088155567752e+02  -3.374016187748e+00  -1.750012226172e+01 
5 1 -4.443873434041e+02   1.323830070954e+02  -6.193372073498e+02 
6 1 -1.330023100757e+02  -2.008975444883e+02   9.670520369475e+01 
7 1 -1.442411948802e+02   5.110314956662e+02   2.631649915165e+02 
8 1 -1.671233871879e+02   1.652147426507e+02   8.920909338558e+01 
8
Step 20000
1 1 -2.489222066418e+02   2.727511210138e+02  -5.343933008713e+01 
2 1  2.570551691798e+02   9.382666223190e+01  -2.857512130415e+02 
3 1  8.514132346992e+01  -2.330976724621e+02   1.164397577605e+02 
4 1 -2.611228312276e+02   1.868565136023e+02  -3.258432801788e+02 
5 1 -4.370829165579e+02   1.497111258178e+02  -3.410691830516e+02 
6 1  1.702514399844e+02   3.722136993147e+02   3.225367708435e+02 
7 1  1.997464726737e+01   2.153753279604e+01  -2.171737684085e+02 
8 1  2.974833944508e+02  -3.999624692520e+01  -3.668883399691e+02 
8
Step 21000
1 1 -7.161237166166e+02  -2.156787188725e+02   1.585436929816e+02 
2 1 -1.548425538009e+02   6.925863765593e+02  -1.418760792493e+02 
3 1 -2.696065871741e+02  -3.889089448666e+02   3.626844267358e+02 
4 1  1.634974992617e+02  -1.128454150034e+02  -1.658691332510e+02 
5 1 -1.056335557504e+02  -3.623331638260e+02  -9.452913391090e+01 
6 1  2.438623631562e+02  -4.493354799659e+01   9.403791459024e+01 
7 1  3.735512329955e+01  -2.083630779678e+02   9.211591499942e+01 
8 1 -5.166326655372e+02   2.021381152529e+02   1.551811461860e+02 
8
Step 22000
1 1 -1.183771693473e+02  -3.307850650960e+02   3.001662028212e+02 
2 1  2.620002609921e+02   5.250751986771e+01   3.306265613962e+02 
3 1 -3.669061083524e+01  -5.483927123607e+01   3.072333318980e+02 
4 1 -2.798047441237e+02   1.163653226517e+02   9.665444452648e+01 
5 1 -1.210305866216e+02  -4.171634641634e+02  -1.284661900210e+02 
6 1  7.255302761259e+01  -8.483897217819e+00  -1.009887138435e+02 
7 1  8.709328772072e+01   7.966673596346e+01   9.780721912943e+01 
8 1 -3.191248442132e+02   1.698475137066e+02   5.352910535455e+02 
8
Step 23000
1 1 -8.325909161476e+01  -1.744164725175e+02   2.275641118200e+01 
2 1 -1.475096958504e+02  -3.645362629357e+02   3.303508976581e+02 
3 1  1.046130004791e+02  -8.895790328165e+01  -2.757612063465e+02 
4 1  2.891391087901e+02  -3.155605245235e+02   2.593648343162e+02 
5 1  3.915775280353e+01  -1.207597186547e+01  -4.520073148838e+02 
6 1 -2.046871776474e+02   5.853502796532e+02  -2.475221048901e+02 
7 1  2.068822399357e+02   3.568909353572e+02   1.648892405159e+02 
8 1  1.040345514029e+01   1.063303581333e+02   1.339558218421e+02 
8
Step 24000
1 1  1.707599094571e+02   2.827763047445e+02  -1.804940049145e+02 
2 1 -6.246827885590e+02  -1.988578519467e+00   7.403321455987e+02 
3 1  1.137948107185e+02  -4.557156691809e+01  -1.510723367174e+02 
4 1 -1.750657453293e+02  -5.464673273690e+02   2.944052765862e+02 
5 1 -1.263863244010e+02  -1.687924315860e+02  -5.589736599603e+01 
6 1 -6.773201126866e+02  -1.332259140675e+02  -3.602622792671e+02 
7 1  6.813243708079e+01   2.796444379415e+02  -5.120181336430e+01 
8 1  2.716963365512e+02   1.462972403158e+02   2.143098279487e+02 
8
Step 25000
1 1 -4.034090171820e+02   1.987000777641e+01  -1.146338832823e+02 
2 1 -3.513855162807e+02  -3.700149227568e+02   7.765428956489e+01 
3 1  1.550401599719e+02  -3.935736386770e+00  -3.284981206826e+01 
4 1  2.831852379207e+02   3.217498764292e+01  -2.687782135279e+02 
5 1  3.536330796044e+02  -1.836604830335e+02  -2.739399980021e+02 
6 1 -8.671897190570e+01  -1.172296386669e+02  -1.293916646422e+02 
7 1  8.704033212963e+01   1.805614946841e+02  -6.899244286787e+02 
8 1  4.615353142682e+02   1.911108859851e+02  -8.694048648855e+01 
8
Step 26000
1 1 -4.810921670808e+01  -2.438968321594e+02  -7.351203850953e+01 
2 1  1.539681969587e+00  -7.696454824328e+01  -2.759002351723e+02 
3 1 -2.663023110466e+02  -1.559531237087e+02   5.475792446524e+01 
4 1 -6.127032344666e+01  -2.049120976549e+02  -7.697055541812e+01 
5 1 -2.026426793062e+02   1.031572265592e+02  -2.398428063747e+02 
6 1 -1.216660920788e+02   1.447503193011e+02  -2.680139097694e+02 
7 1  8.989489955242e+01  -2.187795401801e+02  -4.324037722932e+02 
8 1 -1.719284593251e+02  -3.184978675177e+01  -2.791155695293e+02 
8
Step 27000
1 1  5.374947983183e+02   2.214434166995e+02  -1.110657192433e+02 
2 1  1.965798929963e+02  -6.052451738870e+01  -3.735248375720e+02 
3 1 -1.906130377152e+01  -5.586153846076e+02  -2.876227593945e+02 
4 1  1.720525876882e+02   1.758941666060e+02   1.335147446261e+02 
5 1  1.426904596480e+02   6.075834268869e+01   9.614499062724e+00 
6 1 -1.525806847044e+02   7.481178225113e+01  -5.609464204686e+02 
7 1 -2.803365124241e+01   5.820778153974e+01   4.244571928449e+01 
8 1  2.689752635804e+01   1.883262878812e+02  -3.401987733042e+01 
8
Step 28000
1 1  8.551143624819e+01   7.621595548026e+01   2.257370022829e+02 
2 1 -7.091007782745e+02  -4.743607088744e+02  -3.686604091651e+02 
3 1 -1.236797833516e+02  -3.820406532270e+02  -3.941294493479e+02 
4 1 -4.193090340250e+01  -2.232444603042e+02  -7.457166576972e+00 
5 1  2.290445397209e+02   1.067902843289e+02  -2.275471929657e+01 
6 1 -2.544924480580e+02  -2.358568847528e+02  -1.527125150615e+02 
7 1 -3.136069008017e+02  -9.446446280770e+01  -4.933714436700e+01 
8 1  1.879912049801e+02  -7.186742740522e+01   2.287045725004e+02 
8
Step 29000
1 1 -1.618845743429e+02  -1.943608705894e+02  -5.268489336536e+01 
2 1 -2.230024476188e+02   7.300382821072e+01  -1.187640261544e+02 
3 1 -6.740035193616e+01  -1.892254556880e+02  -4.576831749586e+02 
4 1  5.915746875312e+02   6.537213677026e+01   1.272349444966e+02 
5 1 -1.489865913568e+02  -1.672724173608e+02  -3.341815263761e+02 
6 1  1.104001782073e+02  -1.077154486633e+02   1.725950023737e+02 
7 1 -1.165010103804e+02  -4.679987923877e+02   1.317387315848e+02 
8 1  2.471415077876e+02  -3.018780283672e+02   3.828048935750e+02 
8
Step 30000
1 1 -5.950786345855e+02  -4.467777391299e+02   8.094387809615e+01 
2 1 -1.225408184391e+02  -1.975458802116e+01  -8.668073758844e+01 
3 1  9.039969293380e+01   7.986906598964e+00  -5.862623309914e+02 
4 1 -2.521930729739e+02   3.464406859830e+02  -3.051676315238e+02 
5 1 -2.154928234197e+02  -4.657283744478e+01  -9.812254054720e+01 
6 1  1.400089432342e+02  -1.014208237545e+02  -1.370031042426e+02 
7 1  5.385430664163e+02   3.924352839372e+02   2.910416568891e+02 
8 1 -2.126605246376e+02   3.560615947009e+01   2.005361293962e+02 
8
Step 31000
1 1 -1.577227600954e+02  -2.540037541808e+02   4.337885643697e+01 
2 1 -3.398710869734e+02  -1.078991613748e+02  -3.842044207920e+02 
3 1 -1.185398717861e+01  -1.215570788114e+02   1.725390528816e+02 
4 1  1.293565078332e+02  -3.750948420687e+01  -5.639902271710e+02 
5 1 -1.497094785131e+02   2.566829421958e+02   2.148113889866e+02 
6 1  2.173816196329e+01  -3.424390892666e+02  -8.911337898442e+01 
7 1  1.259702438371e+02   9.980505143924e+01   1.303128562220e+02 
8 1 -2.241860489371e+02  -1.646156271358e+02   4.554938255902e+02 
8
Step 32000
1 1 -1.024935881449e+02   1.187219896109e+00  -4.419590279929e+01 
2 1 -1.524136163199e+01   3.722002492348e+01  -4.285632423961e+02 
3 1 -1.442832018744e+02   2.734762325953e+02   1.596352447987e+02 
4 1 -9.332971683519e+01  -8.152511304831e+00  -1.393259861635e+02 
5 1  1.138239001716e+02  -2.673514737272e+02   5.118599920384e+02 
6 1  2.195788177088e+02  -3.495367326768e+02   1.064068717066e+02 
7 1  2.458731391343e+02  -1.303010742321e+01  -2.062055974293e+02 
8 1  4.149440864232e+02  -2.597353586436e+02   1.517826206362e+02 
8
Step 33000
1 1 -1.408654811890e+02  -1.225325151180e+02   3.047394105213e+02 
2 1 -4.203652557671e+02   4.116833080070e+01  -6.494480465880e+02 
3 1  1.599768831719e+02   4.863965718905e+02  -2.353578909383e+02 
4 1  2.930416119726e+02  -2.663456976313e+02  -5.326327934756e+02 
5 1  4.620406843270e+02  -4.128244218305e+02   5.944937460398e+00 
6 1  3.138955806289e+02  -2.538578698537e+02   1.459741825301e+02 
7 1 -1.837641208437e+02  -1.158187846337e+02   2.474789151980e+01 
8 1 -1.476023859630e+02  -1.890727588288e+02   1.795452977902e+02 
8
Step 34000
1 1 -1.427256156618e+02  -3.027180393767e+02  -2.493320374520e+02 
2 1  2.027452830772e+02   1.747749364758e+02  -3.000413722738e+02 
3 1  1.076999086512e+02   1.493409598895e+02   3.413582693098e+01 
4 1  5.996010508193e+01  -2.101254315183e+02   4.284913050938e+01 
5 1  1.597511549784e+01   1.832953816231e+02  -1.438867585613e+02 
6 1  4.892462336919e+02  -6.015118953899e+01   1.544034841202e+02 
7 1 -6.870127495787e+00  -6.172319053589e+02  -3.409872492613e+02 
8 1 -5.816321289949e+02   3.260882641370e+02   2.322311534350e+02 
8
Step 35000
1 1  4.290741046297e+02  -2.317755343769e+02  -1.829323200516e+00 
2 1  8.290511296190e+01   6.216777171906e+02  -3.113367762573e+02 
3 1  1.777719657351e+02   7.538806292052e+01   1.801463842629e+01 
4 1  2.261508157417e+02  -5.336386266286e+02  -1.249560896392e+01 
5 1 -2.353592470067e+02  -4.005433181338e+02  -2.074897794077e+02 
6 1  1.124264165822e+01   1.289058068322e+02  -3.817561638239e+02 
7 1  3.342968497651e+01   3.074576913090e+02  -2.143940954228e+02 
8 1 -5.219529155590e+02  -1.171300296706e+01   4.536438624886e+01 
8
Step 36000
1 1 -7.853868727276e+01   2.421260281332e+01   1.084849769381e+02 
2 1 -6.125341279905e+02   2.395809492969e+01  -2.978946109810e+01 
3 1  1.101885725844e+02  -1.249899145506e+02   2.929757168262e+02 
4 1 -1.779693036485e+02  -1.181738074354e+02  -5.430735344579e+02 
5 1 -2.415999117460e+02  -5.269117681011e+02   1.739804831400e+02 
6 1  1.772534899988e+01  -2.389707669179e+02  -2.475151248625e+02 
7 1  4.261188289059e+02  -9.456363311250e+01  -1.186983174535e+02 
8 1 -1.957450978745e+01  -1.686004399492e+02  -7.995339410041e+02 
8
Step 37000
1 1  3.725092718505e+02   4.617076836910e+02  -2.037959876505e+02 
2 1  1.681802291652e+02  -1.676126802779e+02   2.070091079284e+02 
3 1 -3.725272176947e+02  -3.563987112083e+01   2.946646502708e+02 
4 1 -2.760441852220e+02   4.243716435092e+01  -2.272390405416e+02 
5 1  3.746533504287e+02  -2.824885262047e+02   8.568861387887e+00 
6 1 -3.739082520232e+02   6.896073487412e+02  -4.675109835369e+02 
7 1 -2.480744222787e+02  -4.047207805302e+02  -5.796991996992e+02 
8 1 -4.296008881724e+02  -6.021667650672e+01  -6.477005650740e+01 
8
Step 38000
1 1  1.731206015375e+02  -4.952393168624e+02  -4.224489046117e+01 
2 1  6.704467836966e+02  -1.615492311034e+02   3.775206462873e+02 
3 1 -4.599162257579e+02  -6.173004707324e+01   8.368699164444e+01 
4 1 -1.534242050733e+02  -9.210170108029e+02   2.686540144523e+02 
5 1  3.091759460882e+01   1.991782820878e+02   3.711834971528e+02 
6 1 -3.514113034562e+02  -4.594505394226e+01   1.831281712078e+02 
7 1 -1.286336867604e+01  -2.144821324725e+02  -4.993874073854e+02 
8 1 -1.271429856944e+01   1.089749780121e+02  -5.896519674648e+01 
8
Step 39000
1 1  1.033211635807e+02   2.533940209523e+00   3.150403388054e+01 
2 1  5.190028232400e+02   5.511841142891e+02  -1.892218122142e+02 
3 1  1.219117311984e+02  -4.315965261355e+01  -3.681790530927e+01 
4 1 -4.403622562522e+02   2.648727817861e+01   3.553295884769e+02 
5 1 -1.633529148577e+02   6.522867765156e+02  -1.416469902403e+02 
6 1 -1.210917685345e+01  -2.586088794641e+02   3.651841289315e+01 
7 1 -2.423335729171e+02  -5.291855550799e+01   9.082411374494e+01 
8 1 -2.111701646822e+02  -1.020481564473e+02   2.093893879602e+02 
8
Step 40000
1 1  4.006667763349e+02   5.860345695912e+01   3.628138345654e+02 
2 1 -1.460970597703e+02  -1.069783231593e+02  -1.054025850135e+01 
3 1  4.694144993329e+02  -1.098281698906e+02   5.283733382097e+02 
4 1 -4.798843237072e+02   5.267546969049e+02   5.696624473810e+01 
5 1 -6.967165448851e+01  -2.652701868189e+00   2.470063921469e+02 
6 1 -1.546578761669e+02  -2.536856173843e+02   1.240835575233e+02 
7 1 -3.697515504084e+02  -3.307481591295e+02  -3.398038892280e+02 
8 1 -2.141393645877e+01  -1.879209921014e+02  -2.275268421884e+02 
8
Step 41000
1 1  1.919845384614e+02   9.359121061585e+01  -9.336417731325e+01 
2 1 -3.477508746394e+01   2.403076777756e+02   3.426458490077e+01 
3 1  1.339073619142e+02   2.452084658217e+02  -1.679681388915e+01 
4 1 -3.364103847286e+02  -2.035035215452e+02  -8.470182976032e+01 
5 1  3.387462761675e+02   4.070652208827e+00   1.115379663548e+02 
6 1 -4.176792792245e+01  -1.276609082029e+02   2.394931495574e+02 
7 1 -3.671866252408e+02  -2.896005920011e+02  -6.151277976450e+02 
8 1 -2.299203790379e+02   1.898741654799e+02   8.162557234670e+01 
8
Step 42000
1 1 -2.222760810539e+02  -8.777574776321e+00   1.274943842096e+02 
2 1  1.817138536779e+02  -1.419668949754e+02   1.350668508507e+02 
3 1  6.100234700755e+01  -4.896421528389e+02  -2.082098924642e+02 
4 1 -8.076128157327e+01  -1.255656330958e+02   5.169441781443e+02 
5 1  4.229042039596e+02   2.315344560583e+02  -4.910818879690e+02 
6 1 -1.448785950111e+02  -1.962793515726e+02  -1.007531912055e+02 
7 1 -1.560419503236e+02  -1.227867825704e+02   1.904573637777e+02 
8 1 -3.974584934455e+02   4.453720521150e+02   3.285029756623e+02 
8
Step 43000
1 1 -4.570090042387e+02  -6.992963796998e+01   1.846001420142e+02 
2 1  1.521814239133e+02  -2.591702754742e+01   2.375259651183e+02 
3 1 -4.991874158584e+02  -2.256752996418e+02   1.323979035993e+02 
4 1 -1.803462867912e+01   3.878012316301e+02   1.404293705032e+02 
5 1  4.019275794626e+02  -7.034194873421e+01   1.185231898378e+02 
6 1  2.632374128653e+02  -1.210075336634e+02   1.521933915250e+02 
7 1  2.343494355277e+01   1.596349558687e+02   1.540252978657e+02 
8 1 -1.067659635876e+02   1.694595371984e+02   4.575524022394e+02 
8
Step 44000
1 1 -3.922469394942e+02   6.751814169693e+01   3.542864847283e+01 
2 1 -9.202382106708e+01  -5.309815027100e+01   3.098794922234e+02 
3 1  1.163179720525e+02  -2.417386733866e+02  -6.780725745017e+01 
4 1 -6.945225998161e+01  -2.729356803261e+01  -1.641951633510e+02 
5 1  3.401003921380e+02   4.019088542018e+01  -2.208894085495e+02 
6 1  3.699943044793e+02  -2.440848157216e+01   6.624106179229e+02 
7 1 -1.658207260991e+02   4.175398948454e+02   3.585096511467e+02 
8 1 -9.886915591299e+01  -1.757840848686e+02  -2.212481076506e+02 
8
Step 45000
1 1  1.405514802109e+02  -2.247468546652e+01   4.566582568972e+02 
2 1 -2.017559134377e+01   1.586942118789e+02   3.078807134745e+02 
3 1  1.610626981337e+02   2.161995846618e+02  -1.302326368702e+02 
4 1  2.782014376540e+00  -6.211135886146e+01   1.234863737501e+02 
5 1  3.941785881058e+02  -1.741320960064e+02  -1.418986359234e+02 
6 1 -5.783420790090e+01  -1.929287706334e+02  -1.020357474480e+02 
7 1 -2.874842904711e+02   4.183896982953e+02  -4.374172865317e+02 
8 1 -5.987109274789e+01   2.634620562058e+02  -1.811494747625e+02 
8
Step 46000
1 1 -3.998321789588e+01   1.815260553154e+02   3.289268334823e+02 
2 1  4.132620985093e+02  -1.092979293926e+02   5.275186940081e+02 
3 1  2.681029233076e+02   4.354380311261e+02  -4.612080067114e+01 
4 1 -1.427735890417e+02  -2.005815992613e+02  -1.663030200780e+02 
5 1  2.644774510855e+02  -6.227407314163e+01   5.528428518561e+02 
6 1 -7.353470370141e+02   4.844044809711e+01   1.613921311882e+02 
7 1  2.118250997674e+02  -1.374980801753e+02   1.725642398307e+02 
8 1  9.294284908262e+01   5.100338033443e+02  -5.169164810245e+01 
8
Step 47000
1 1 -3.397133411508e+02  -2.312694288165e+02  -2.180582841819e+02 
2 1  3.398384220966e+01   9.713983370801e+00   1.178585218632e+02 
3 1 -8.228490596968e+01   1.281717516823e+01  -6.706476781368e+00 
4 1 -1.670564980638e+00  -9.731314797776e+01  -2.868584361838e+02 
5 1  2.510228808649e+02   2.884042389020e+02   2.826231021894e+02 
6 1 -1.374417179483e+02   2.246915559864e+02   1.347975958904e+02 
7 1  2.282229006538e+02   2.444764067002e+02  -6.379170007639e+01 
8 1  5.326936967353e+02   2.031543815337e+02  -5.352057874411e+02 
8
Step 48000
1 1 -8.526855590130e+01  -2.691560199286e+01  -5.392044462099e+01 
2 1  1.869475411062e+02   2.166725935679e+02  -1.974501873181e+02 
3 1 -9.390819809437e+01   2.814618282147e+02   4.095297187823e+02 
4 1  2.837209258066e+02   3.345663478614e+02  -4.733629573685e+02 
5 1  6.654337793119e+00  -6.913829468798e+01   3.398757604777e+02 
6 1  1.191983245765e+02   1.538441476572e+02   2.258207408470e+02 
7 1  1.225851391675e+02   3.213556006900e+02  -5.956979858814e+01 
8 1  1.055806521049e+02   2.863679168893e+02   3.374530282842e+01 
8
Step 49000
1 1  1.113339220882e+02   1.487747310314e+02   2.987589871885e+02 
2 1 -1.078250604386e+02   4.160700141129e+02  -1.015842807954e+02 
3 1 -2.821610043551e+02   3.834460979222e+02   5.414994730108e+02 
4 1  4.415183535840e+02   2.977968336916e+02  -3.133850629828e+02 
5 1  2.336384042775e+02  -1.817826867105e+02  -1.078287205119e+01 
6 1 -2.764767602099e+01  -8.181241443644e+01  -2.478365850107e+02 
7 1  1.563981939224e+02   1.816122830548e+02  -1.282296269733e+01 
8 1 -1.067764403149e+02   3.236369620978e+02  -9.578042163968e+01 
8
Step 50000
1 1  4.880458400551e+02   2.629237471186e+02  -1.624633185060e+02 
2 1 -1.531198815775e+02   1.277791336149e+02  -2.989749185450e+02 
3 1 -2.678365127817e+02   1.473879295491e+02  -1.483199111282e+01 
4 1  1.719441295049e+02   2.520065753982e+02   1.878659079197e+01 
5 1 -1.803493701753e+02   1.838847873691e+02  -4.085174571268e+02 
6 1 -2.686221126748e+02  -1.462309128439e+02   1.544026509050e+02 
7 1 -4.771836332597e+02  -2.493627329970e+02   2.834798893977e+02 
8 1 -2.144019095351e+02   6.514859942587e+02   2.494315726338e+02 
8
Step 51000
1 1  3.573250179174e+02   2.204996083496e+02  -2.249575390363e+02 
2 1  1.025127661809e+02   1.027671288466e+02  -1.037847868090e+02 
3 1 -2.083935123320e+02  -1.465000369027e+02  -6.500321823546e+01 
4 1  5.649125980032e+02   1.597924060781e+02   1.522637490413e+02 
5 1  1.428257719178e+02   2.931259830302e+02   1.916393781886e+02 
6 1 -1.308361068707e+02  -1.877377598621e+00  -6.453093184341e+01 
7 1  5.322707441815e+01   3.574899499987e+01  -1.551040896743e+02 
8 1 -2.435824291630e+02  -7.628667234212e+01   9.373424773959e+01 
8
Step 52000
1 1  8.996661337527e+01   1.271927693060e+02  -5.258789687230e+02 
2 1  9.507065045094e+01   2.047636318362e+02  -6.702161037875e+02 
3 1  3.469155376598e+02  -7.526967755999e+01  -6.704153376011e+01 
4 1  7.879680618927e+01  -1.277603120430e+01  -1.258983446246e+02 
5 1 -1.886244501615e+02   1.442784603938e+02  -1.196329554410e+02 
6 1  2.857145390242e+00   1.522655164083e+02  -2.438824818178e+02 
7 1 -1.449117034010e+02   9.347918749020e+01   9.165334137024e+01 
8 1  2.062665089051e+01  -1.085011228849e+02   1.750546724978e+02 
8
Step 53000
1 1  3.854972144767e+02   6.197427034840e+02   8.258848508556e+01 
2 1  1.431628058954e+02  -2.513776353091e+01  -3.604482955995e+02 
3 1  9.063162204207e+01   1.144441855877e+02  -8.958057300549e+01 
4 1 -3.207336965776e+02   1.427572513744e+02   5.771595494967e+02 
5 1 -5.721288772170e+02   8.480445471461e+01   1.745490881891e+02 
6 1 -1.982537959866e+02   2.768408508680e+02   1.350806674055e+02 
7 1 -3.723995410813e+02   9.476141982193e+01  -1.044722180095e+02 
8 1  1.674964829936e+02  -1.638118440640e+02   5.371706622171e+01 
8
Step 54000
1 1  8.153899892492e+01   1.714820428013e+02   6.184368240568e+01 
2 1 -1.673696963177e+02  -7.323402901183e+01  -2.556299700971e+02 
3 1 -4.075551739584e+02  -1.767767198744e+02  -3.490753798572e+02 
4 1  1.303387671783e+02  -7.764297260687e+01   6.708003841007e+02 
5 1  1.380520006612e+02  -2.141272240251e+02  -6.380584967889e+01 