8
Step 0
1 1  0.000000000000e+00   0.000000000000e+00   0.000000000000e+00 
2 1  0.000000000000e+00   0.000000000000e+00   0.000000000000e+00 
3 1  0.000000000000e+00   0.000000000000e+00   0.000000000000e+00 
4 1  0.000000000000e+00   0.000000000000e+00   0.000000000000e+00 
5 1  0.000000000000e+00   0.000000000000e+00   0.000000000000e+00 
6 1  0.000000000000e+00   0.000000000000e+00   0.000000000000e+00 
7 1  0.000000000000e+00   0.000000000000e+00   0.000000000000e+00 
8 1  0.000000000000e+00   0.000000000000e+00   0.000000000000e+00 
8
Step 1000
1 1 -3.370683276206e-04   2.231567247946e-04   6.797596440291e-05 
2 1 -3.503716849094e-04   4.846441917588e-04   3.514819733841e-04 
3 1  1.701318329993e-04  -5.364175754568e-05  -1.130650656137e-04 
4 1 -2.779203183319e-04  -1.246803574272e-05   2.430118443156e-04 
5 1 -2.150267999384e-04  -1.132832350274e-04   7.099196774676e-05 
6 1 -6.136362280785e-05  -1.802663429324e-04  -3.503057944487e-04 
7 1  3.345891820657e-04  -9.209899488660e-05   2.797571120584e-04 
8 1 -4.620747213520e-05   2.440669541869e-04   2.681441185722e-04 
8
Step 2000
1 1  2.576855150116e-06  -1.954105998591e-04   2.308834122092e-04 
2 1 -3.681766371142e-04   5.917329162231e-04   2.797636531368e-04 
3 1  2.606797417525e-06   1.680587203171e-04  -3.873023489874e-04 
4 1 -4.284813750663e-04   1.418777446007e-04   3.336837261441e-04 
5 1 -2.788516964735e-04  -1.004440652309e-04  -1.150418717729e-04 
6 1 -1.538059547823e-04  -6.688323848801e-06  -2.097788282742e-04 
7 1  2.017403604734e-04  -4.912628197707e-05   4.952679617512e-04 
8 1  4.172797572879e-04  -5.471131171788e-05   4.167631629871e-04 
8
Step 3000
1 1 -1.600508856378e-04  -5.255301164520e-05   1.310624345012e-04 
2 1 -3.793549116488e-04   4.053643806463e-04   2.406300398517e-04 
3 1  2.445285490464e-04   8.219968802381e-05   6.266553418987e-05 
4 1 -4.849452572488e-04  -1.285729462607e-04   1.776846438081e-04 
5 1 -4.831281717064e-05  -1.048145498399e-04  -1.488773946903e-04 
6 1 -4.100044274957e-05  -3.123640271860e-04  -2.571465550025e-04 
7 1  1.144769381845e-04   4.512719336981e-05   1.375530824856e-04 
8 1  1.057458598825e-04  -1.473756966175e-04   1.286345731705e-04 
8
Step 4000
1 1 -1.338861835992e-04   1.435855276928e-04   1.121858296478e-04 
2 1 -3.229477520648e-04   1.546446770238e-04   2.628283653754e-04 
3 1  1.313780452966e-04  -4.577258522666e-05   2.752172564734e-05 
4 1 -1.774675448634e-04  -3.437824543850e-04   3.961219220707e-04 
5 1 -1.548725595985e-05   7.333922470504e-05   8.649874256061e-05 
6 1 -8.255028024891e-05  -3.792942053864e-05  -4.110930418903e-04 
7 1 -1.234513240944e-04  -1.459159552057e-04   1.616578418920e-04 
8 1 -1.911835573180e-04   1.955639350144e-05   9.591578362303e-05 
8
Step 5000
1 1 -2.226363160969e-04   2.169211846010e-04  -1.469271103425e-04 
2 1 -2.192371224550e-04   2.593204603034e-04   1.844099991009e-04 
3 1  1.795940380509e-05  -1.515451666039e-04   4.541642351823e-05 
4 1 -9.397065387068e-05  -2.478491847157e-04   3.257589290836e-04 
5 1 -8.472664889273e-05  -3.248387137024e-04  -5.982580124455e-05 
6 1  7.318452441991e-08   6.299230714089e-05  -3.961391808097e-04 
7 1 -1.841411911199e-04  -1.122323948670e-04   2.013934281430e-04 
8 1  3.406975313002e-05  -1.546196572274e-04   1.633965994823e-04 
8
Step 6000
1 1 -2.589546502726e-04   6.534960026960e-05  -2.740527362646e-05 
2 1 -1.065178122363e-04   3.064976822554e-04  -3.368072430701e-05 
3 1  1.499064204456e-04  -1.028981335329e-04   4.961379867482e-05 
4 1 -8.310284532267e-05   1.944088998664e-04   1.426998734502e-04 
5 1 -3.274796295657e-04  -3.250807930138e-05   8.343934337570e-05 
6 1  3.421818141743e-04  -1.163783480323e-04  -1.729430568765e-04 
7 1  2.919535346200e-04  -2.337402231511e-04   2.596603218553e-04 
8 1 -2.212079535785e-04  -8.867032112303e-05   1.302297648559e-04 
8
Step 7000
1 1 -2.947170751941e-05   6.594113227263e-05  -2.057844859051e-04 
2 1 -2.459752228067e-05   1.760203885826e-04   1.758731759437e-04 
3 1  7.207120664838e-05   4.381153166046e-05   8.552590464794e-05 
4 1 -1.451549408158e-04   4.086270674350e-05   3.596032568752e-04 
5 1 -7.824309457329e-06  -1.410240152237e-04  -1.376812525481e-04 
6 1  6.248916223145e-05  -5.678833807116e-05  -2.544874832735e-04 
7 1  2.168327872818e-04  -4.438414760862e-04  -1.071949215989e-05 
8 1 -1.016328764684e-05  -2.416668841904e-04  -1.366536775607e-04 
8
Step 8000
1 1  4.152332107964e-05  -8.510679119256e-05  -1.096457043779e-04 
2 1  6.545801556960e-06   9.595458001201e-05   1.765469167804e-04 
3 1 -1.459421263892e-04  -6.947517500983e-05  -1.029796516946e-04 
4 1 -7.931935986651e-06  -1.482005211777e-04   5.625530160685e-04 
5 1  6.153800893203e-05   8.837575509418e-05  -1.279079909173e-04 
6 1 -1.472108120627e-04  -4.803713365619e-05  -3.519320660794e-04 
7 1 -7.555493817256e-06  -1.747089732552e-04  -8.086384028564e-05 
8 1  1.796586192482e-05  -3.371453125974e-04  -9.482003210627e-05 
8
Step 9000
1 1 -9.901662892036e-05   7.809242488154e-05  -3.335881025396e-04 
2 1 -1.473263752625e-04  -3.684370391065e-05  -1.012548483822e-05 
3 1  2.889230937508e-05  -1.128641639361e-04   2.924772159880e-04 
4 1  1.709748164631e-04  -4.121382360326e-04   2.977162397707e-04 
5 1  7.958406253898e-05  -1.702644285493e-04  -2.038620442365e-04 
6 1 -1.716433175769e-04  -6.770486382948e-05  -2.624804474067e-04 
7 1 -1.614161785729e-05   3.191478920367e-05   4.026025866747e-05 
8 1 -3.969439716109e-05  -3.376660144612e-04  -2.439226082694e-04 
8
Step 10000
1 1 -1.493125269999e-04   2.873140050948e-04  -3.065752467064e-04 
2 1  8.236779806484e-05  -1.428368121305e-04  -2.373305478484e-04 
3 1 -2.621877851688e-05  -1.258939315939e-04   1.878776839913e-04 
4 1  2.945488146097e-04  -1.457805473922e-05   4.107271067296e-04 
5 1  5.669633990551e-05   2.793768200067e-04  -3.834625342883e-05 
6 1  1.373920524489e-04   1.975964969556e-05  -1.096382898081e-04 
7 1  1.347007417636e-04  -7.432232886404e-06  -6.163269987463e-05 
8 1 -5.277889007753e-05  -4.878911408520e-04  -1.784453507881e-04 
8
Step 11000
1 1 -6.128007615566e-05  -1.338313176983e-04  -5.445623865613e-04 
2 1  1.569586688648e-04   1.027330821723e-04  -1.503356200879e-05 
3 1 -6.136533364082e-05   1.630261126165e-05   1.160646932740e-04 
4 1  3.477895274861e-04   7.450872111074e-05   3.248022853284e-04 
5 1 -9.945568081866e-05   3.101546293934e-05  -3.941384330699e-05 
6 1  2.346366782587e-04  -1.351376130462e-04  -3.688772866348e-04 
7 1  9.238825692940e-05  -3.681495011682e-04  -3.658392565900e-05 
8 1  5.107726008235e-05  -4.009536734123e-04  -1.560263621145e-04 
8
Step 12000
1 1  1.589370039491e-04   1.371460306970e-05  -2.165297556565e-04 
2 1  2.409682921160e-04  -2.882869713415e-04   2.171523375804e-05 
3 1  3.245355844798e-06   9.016803247790e-05   1.681223042913e-04 
4 1  1.550578953284e-04   2.138782221628e-04   2.142828713223e-04 
5 1  1.839159041509e-04  -7.757744740412e-05  -1.206285494669e-04 
6 1 -5.949838017397e-05   8.159654708708e-05  -4.548562952432e-04 
7 1  2.576734993762e-04  -3.638474221815e-04  -1.766544817062e-04 
8 1 -1.030925512010e-04  -1.332223201157e-04  -2.022893718206e-04 
8
Step 13000
1 1  1.044267212135e-04  -9.298184094736e-05  -3.706670215772e-04 
2 1  1.414634980606e-04  -2.920960797515e-04  -1.818728022454e-04 
3 1 -1.376125256160e-04  -1.699648788564e-04   1.859010527724e-04 
4 1  6.027018403517e-05  -1.127792018593e-04   3.360721172820e-04 
5 1  3.624155078424e-04  -5.890058698306e-05  -5.235348850079e-05 
6 1 -1.713200254836e-04  -6.207609369389e-05  -3.270566288918e-04 
7 1  2.365273196039e-04  -2.369058939138e-04  -1.096666096673e-04 
8 1 -2.498145432088e-04  -5.580738016239e-05  -3.310298179087e-04 
8
Step 14000
1 1 -1.462339938389e-05  -9.680709130157e-07  -4.958189684054e-04 
2 1  5.944997274867e-05  -2.155012585775e-04  -2.810511926287e-04 
3 1  9.184892837806e-05  -1.814947211099e-04   3.684106847677e-05 
4 1  2.856672810716e-04  -1.435924358201e-04   3.579615292709e-04 
5 1  3.837198517050e-04   2.905953003114e-04  -7.872775807759e-05 
6 1 -1.329375940004e-04   3.448543075805e-04  -1.003114498214e-04 
7 1  6.826671348989e-05  -1.892635740419e-04  -4.542598025607e-05 
8 1 -2.832942663170e-05  -1.584371099996e-04  -1.566566667704e-04 
8
Step 15000
1 1  7.073904196625e-05   1.838618814090e-04  -3.539703559959e-04 
2 1  1.764836078681e-04  -2.136853173204e-04  -1.825837367198e-04 
3 1 -5.213217783500e-05   7.755919308776e-05   6.742243917928e-05 
4 1  3.585016587973e-04  -7.218535858927e-05   3.459407164615e-04 
5 1  4.436723881899e-04   1.879544123161e-04  -1.227435750028e-04 
6 1 -1.884977253404e-04   1.557012940581e-04  -2.951788519633e-04 
7 1  3.276519775569e-05  -1.378622838867e-04  -7.213374361640e-05 
8 1  2.110774213438e-04  -5.187793567757e-04  -1.038399894071e-04 
8
Step 16000
1 1  2.229037189895e-04  -4.806618414649e-05  -4.899227051505e-04 
2 1  2.085066032283e-04  -3.275164642489e-04   1.633073940315e-05 
3 1  9.645134132674e-05   2.182569868754e-04   1.326862509152e-04 
4 1  3.080437429681e-04   3.340583053317e-04   7.700603830124e-05 
5 1  7.094599394046e-06   8.836546378401e-05  -2.062187258530e-04 
6 1  2.635701793654e-04  -1.393429576972e-04   6.067482632889e-05 
7 1  2.899210524261e-05   1.759458869567e-04  -1.760511939723e-04 
8 1  8.244887098795e-05  -3.325909632253e-04  -2.485865183309e-04 
8
Step 17000
1 1 -1.097530323421e-04  -1.014565272463e-04  -1.225390323391e-04 
2 1  5.149172732523e-04  -6.677135084008e-04  -1.981968547369e-04 
3 1 -2.709902760061e-04  -1.090280925248e-04  -1.287511609762e-04 
4 1  1.522074880696e-04   2.409688424341e-04   2.247650648737e-04 
5 1  9.750022842176e-05   1.971401716001e-04  -5.411759894206e-05 
6 1  2.981452732198e-04   1.310538542158e-04  -2.374200285525e-06 
7 1 -1.839242304192e-04  -1.914193976919e-04  -1.862103258233e-04 
8 1 -3.369237286937e-05  -1.983896096924e-04  -1.822525147199e-04 
8
Step 18000
1 1  7.333582616841e-05  -1.045594120071e-04  -2.899446174726e-04 
2 1  3.247339271543e-04  -4.963646914946e-04  -1.727827178284e-04 
3 1 -2.036414114702e-04   6.449105743422e-05   5.182777364771e-06 
4 1  4.278471898213e-04   1.206081613607e-04   9.596495951451e-06 
5 1  2.584176971164e-04   2.142234894916e-04   1.617655426161e-04 
6 1 -9.670423896542e-05   3.133038133377e-04  -8.558042219456e-06 
7 1 -1.734605659750e-04   1.978789328902e-04  -2.141559867245e-05 
8 1  9.290529049784e-05  -1.271147277413e-04  -2.132399007069e-04 
8
Step 19000
1 1 -1.855676612075e-05   3.586443730224e-05  -2.732191684389e-04 
2 1  2.049355269557e-04  -2.549952088625e-04  -1.166091256177e-04 
3 1 -1.289912427667e-04  -1.490217669067e-05  -2.128554032317e-06 
4 1  2.993159826037e-04   6.583861858596e-05  -2.396561590343e-05 
5 1  3.622225609275e-04   1.791225269212e-04   1.016359977237e-04 
6 1  6.890599640633e-05   2.328468372456e-04   4.663979409949e-04 
7 1 -1.109244795453e-05  -1.570815071402e-04  -2.049119331986e-05 
8 1 -2.313371317819e-04  -4.851323361558e-05  -3.216038147844e-04 
8
Step 20000
1 1  1.625073719043e-04  -1.579621458967e-04  -1.720390111394e-04 
2 1  2.497775064296e-04  -3.156537229719e-05   1.310766372796e-06 
3 1 -2.970313854805e-06   3.108359910432e-04   3.751793440997e-05 
4 1  1.701792491867e-04   1.298465217007e-04   4.316156163591e-06 
5 1  4.892550766580e-05   4.369009759603e-04  -1.489880526382e-04 
6 1  9.751687808921e-05   1.053926842160e-04   1.127023999182e-04 
7 1  1.417253352624e-04  -1.345627326404e-04   1.146889445656e-04 
8 1  1.505140322102e-04  -7.562673868292e-05  -2.549483726694e-04 
8
Step 21000
1 1  3.167348113844e-04  -2.352557001194e-04  -9.573790806087e-05 
2 1  9.246440987325e-05  -3.080953457188e-04   8.486663332618e-05 
3 1 -3.714815452445e-04   7.527728626808e-05  -1.917783088890e-04 
4 1 -5.317239660349e-05   1.500970720828e-04  -1.541622978780e-04 
5 1  1.910577221979e-04   3.811603185809e-04   2.076668403869e-04 
6 1  1.356288501124e-04   5.693033881416e-05   2.512222606952e-04 
7 1  1.757899874014e-04  -2.658701080935e-05  -6.595073647817e-05 
8 1 -2.009296454630e-04  -5.790376555033e-05   2.119173805758e-05 
8
Step 22000
1 1  7.876414686574e-05  -4.682223552990e-05  -1.940144634482e-04 
2 1  1.264199963613e-04  -6.478241137212e-04   1.325086503214e-04 
3 1  6.431072405460e-05   8.049201036031e-05  -1.752612743171e-04 
4 1  5.041500869063e-05   3.058910446388e-04  -1.901340124851e-04 
5 1 -1.220535769966e-04   1.296515774070e-04  -5.749164691118e-05 
6 1  1.496515478245e-04   9.666919743628e-05   2.953906620730e-04 
7 1 -1.202208280455e-04   1.934755254040e-04   2.256999582202e-06 
8 1 -2.453545269484e-04   1.599301074894e-04   1.859431681629e-04 
8
Step 23000
1 1 -1.146494694642e-04   6.365092367109e-05   5.502217572839e-05 
2 1  2.127846571715e-04  -1.553625751234e-04   1.779294603126e-04 
3 1 -8.915976919255e-05  -1.808488266544e-04  -9.748846350167e-05 
4 1  1.553877623672e-04   2.561679525488e-04  -2.752703279753e-04 
5 1 -8.478979227948e-05   7.959187406693e-05   2.092121509038e-04 
6 1  1.151648263877e-04  -3.462389619585e-05   4.595474390257e-04 
7 1 -1.328352055292e-04   2.362223434854e-04  -9.609838829147e-05 
8 1 -2.248195620848e-04   2.419809408664e-04   1.376370799184e-04 
8
Step 24000
1 1  1.226158904936e-04   6.398740642443e-05   5.066038607383e-05 
2 1  1.209261679880e-04   1.710781227659e-04   7.725806545676e-05 
3 1 -2.224428954029e-04   1.205618664631e-04  -2.479669010642e-05 
4 1  2.520405036150e-04   3.090628117769e-04  -3.080331983518e-04 
5 1 -5.802523388456e-05   1.023335296137e-04   1.848115885836e-04 
6 1  5.300765423234e-06   2.530876087982e-04   1.997459758435e-04 
7 1  1.568895813799e-04  -2.803747661684e-04  -8.567189441970e-05 
8 1 -5.436286901856e-05   1.628538940404e-04   2.518031183145e-04 
8
Step 25000
1 1  1.035078638023e-04  -9.660330599229e-05   3.097988628443e-05 
2 1  2.620603775656e-05   5.703602199942e-05   2.338947376441e-04 
3 1 -5.353013663052e-04  -5.034974981212e-05  -2.204840132734e-04 
4 1 -1.429495358626e-04   1.917819575300e-04  -3.299743185802e-04 
5 1 -5.328294051728e-05   1.322469596776e-04   9.158739336892e-05 
6 1  1.388150583611e-04   3.100189829890e-04   3.689305485095e-04 
7 1  1.928847226094e-04  -1.499669999974e-04   3.084285493793e-04 
8 1 -5.122260710223e-05  -8.424965815161e-06   1.937490441239e-04 
8
Step 26000
1 1 -1.864409324162e-04  -3.004025520916e-04   1.614376366890e-04 
2 1  1.796407026544e-04   1.313142930738e-05   1.742199582401e-04 
3 1 -8.263725070931e-06  -1.595586473721e-05  -7.484319805510e-05 
4 1 -1.492717763297e-04   3.262830366974e-04  -3.883828910834e-04 
5 1 -5.814547170975e-05   4.887613453990e-05   6.455434593330e-05 
6 1 -9.216824326879e-05  -5.380445665236e-05   5.249499865263e-04 
7 1  7.272713255100e-05   2.433139880141e-05   1.357026132076e-04 
8 1 -2.577708533976e-04   3.673838456418e-04  -1.472058452526e-04 
8
Step 27000
1 1  1.313466419179e-04   1.608754875312e-04   2.273322820715e-04 
2 1 -2.542317149929e-04   8.691239335848e-05   3.280002683125e-04 
3 1 -8.579435941883e-05  -1.372899182036e-05  -2.140022397640e-04 
4 1 -1.582959385492e-04  -5.729794189967e-05  -3.015214670825e-04 
5 1 -1.273934558530e-04  -6.377024419191e-05   1.011645956704e-04 
6 1 -2.354881431735e-04  -2.394216570566e-05   3.143967052117e-04 
7 1 -1.468741641468e-04   8.623550008880e-05   2.967770363343e-04 
8 1 -1.073148228935e-04   2.806445399720e-04   1.882051494048e-04 
8
Step 28000
1 1  1.465714851039e-05   2.355628098065e-04   1.922528580992e-04 
2 1 -8.653323840399e-05   2.043727500181e-04   2.607543931432e-04 
3 1 -2.903260484691e-04  -9.311258309184e-05  -3.381881658651e-04 
4 1 -1.713883978574e-05   1.635264263955e-04  -1.694448788165e-04 
5 1 -1.011641220234e-04   3.048588473634e-05  -5.033943234542e-05 
6 1 -2.881387257796e-04  -9.021012217952e-05   3.395666304650e-04 
7 1  5.705551210372e-05   9.483978559976e-05   1.386297950919e-04 
8 1  2.200960355892e-04   1.207382866922e-04   2.252783033269e-04 
8
Step 29000
1 1 -1.903991651646e-04   1.712664014040e-04   6.848593439750e-05 
2 1 -1.406438104220e-04   1.420939547871e-04   1.946317801662e-04 
3 1 -3.659917371484e-04   1.448687928262e-04   9.640439501922e-08 
4 1  2.130754456456e-05   8.307123074574e-05  -3.260508069036e-04 
5 1 -1.204036872239e-04  -1.604764450351e-04  -2.179200911303e-05 
6 1  1.741993573726e-04  -2.492739073789e-05   6.177224857418e-04 
7 1 -1.374687252696e-05   8.565294190143e-05   1.840646488607e-04 
8 1  1.434835105984e-04   2.362588968495e-04   1.414681474007e-04 
8
Step 30000
1 1  6.768124621885e-05  -2.584593783650e-04   2.718927423066e-04 
2 1 -1.732157706634e-04   1.423285060703e-04   1.797921268250e-04 
3 1 -3.224391416605e-04  -1.178106541958e-04  -3.263076782750e-04 
4 1 -4.116922084510e-05  -5.509151222003e-05  -5.014572708261e-04 
5 1  6.386141005762e-06  -1.441213964060e-04   2.438602973211e-04 
6 1 -2.411761050537e-04   2.248836474142e-04   2.070624230494e-04 
7 1 -2.344807202355e-05  -1.182801187769e-05   1.834711178492e-04 
8 1 -1.547473646730e-04   2.192439994334e-04   9.938805934461e-05 
8
Step 31000
1 1 -2.199807564802e-04   1.447120726922e-04   3.084465137124e-04 
2 1 -1.949572794881e-05   1.347014935778e-04   3.041597497533e-04 
3 1 -3.198088768186e-04  -1.596932656312e-04  -6.264161686089e-05 
4 1 -3.222285593062e-04   3.255379893929e-05  -4.102450059577e-04 
5 1 -1.889124322640e-05  -2.050290487364e-04   8.625107688889e-05 
6 1 -4.127483955237e-04   2.981035877561e-04   2.210203543902e-04 
7 1  9.368569960123e-05  -2.875521696413e-04   1.225229604921e-04 
8 1  6.910851327108e-07   2.207531129074e-04   1.328472615961e-04 
8
Step 32000
1 1 -2.994971031715e-05   1.608080693401e-04   2.930928745479e-04 
2 1 -5.276850522420e-05   3.205926315055e-04   6.657890852564e-05 
3 1 -7.521578866165e-05  -1.559143956366e-04   1.178228258340e-05 
4 1 -3.653033301221e-04   1.000299580732e-05  -4.605495038420e-04 
5 1 -1.253863001702e-04  -4.427915060964e-04   5.463150807535e-05 
6 1 -1.343813000927e-05   2.192306569857e-04   2.389864549417e-04 
7 1  6.352423577825e-05  -1.552198101452e-04   2.781462142093e-04 
8 1 -1.546872582043e-04   2.753220758905e-04  -1.495940858248e-04 
8
Step 33000
1 1 -6.607919332056e-05   2.781149047299e-04   3.706374773750e-05 
2 1 -5.231643235142e-04   2.632665189001e-04   7.731354470435e-05 
3 1  7.856746593089e-06  -1.205933502579e-04  -6.618615156662e-05 
4 1 -2.666883409122e-04  -8.219412613111e-05  -2.351065161906e-04 
5 1  8.202906898504e-05  -6.375163499499e-04   8.398496051685e-05 
6 1 -1.858437079946e-04   9.802473291415e-05   2.291246085753e-04 
7 1  2.374417561622e-04   2.195675213583e-04   3.199239736357e-04 
8 1  1.828421992536e-04   3.516555381492e-04  -3.227213916053e-05 
8
Step 34000
1 1 -1.232387858798e-04  -4.937324637882e-05   5.276532680999e-05 
2 1 -2.163888723856e-04  -1.217744528468e-04   1.541943982728e-04 
3 1 -6.006888159723e-05  -2.044316793959e-04  -1.983621610676e-04 
4 1 -7.361537160358e-05  -1.635211955492e-04  -1.799513608594e-04 
5 1 -1.527753077590e-05  -1.252148951848e-04   4.568616282850e-05 
6 1  6.114226932514e-05   1.149075236709e-04   1.772628527322e-04 
7 1 -1.022362940778e-04   9.875957032858e-05  -7.099911809872e-05 
8 1  3.029225173280e-05   1.753819271957e-04  -8.090553972225e-05 
8
Step 35000
1 1 -2.419308996455e-04   5.317312616712e-05   1.843652735341e-04 
2 1  3.685756815878e-06  -5.071821244100e-06   1.245289615864e-04 
3 1 -1.596808783480e-04  -5.455388299806e-05   1.572472753803e-05 
4 1 -2.442512793665e-04  -2.471576205439e-04  -2.734101069427e-04 
5 1 -1.873480520812e-04   4.851180372558e-05  -1.417393338379e-04 
6 1  1.618420589893e-04   4.124373575219e-05   2.135584399267e-04 
7 1 -1.320598322905e-05   2.464757191832e-05  -1.253407052653e-05 
8 1 -8.956905542315e-05  -2.132722463470e-05  -7.314096178770e-05 
8
Step 36000
1 1  2.681092749938e-05   1.339734245240e-04   8.583766445204e-05 
2 1 -1.826615826799e-04  -6.979277643780e-05   1.241788312498e-04 
3 1 -1.527457722131e-04   2.586304945525e-05   1.514637729403e-04 
4 1 -1.235201232590e-04  -3.293668810353e-04  -2.963640688149e-04 
5 1 -9.035125390029e-05  -2.745454290004e-04   7.364712697025e-05 
6 1  1.263934816608e-04  -1.261422376943e-04   9.227084209724e-05 
7 1 -1.123543677258e-05   3.963596119630e-05  -3.018080894184e-04 
8 1 -3.082669543827e-04   7.903742570313e-05  -1.971647536964e-04 
8
Step 37000
1 1 -1.584536718641e-04   1.767217116736e-04  -5.566676318790e-05 
2 1 -2.168374486930e-04   3.213480624845e-04  -1.264466564616e-05 
3 1  2.173607905904e-04  -1.364338798620e-04   1.008147030291e-04 
4 1  6.942469353474e-05  -2.994753735123e-04  -1.636686597172e-04 
5 1 -3.734667879395e-05  -5.077940169938e-04   2.736811878227e-04 
6 1 -1.683225672458e-05   1.564392516869e-04  -8.669711052949e-05 
7 1  8.846389510742e-06   3.852858831111e-05  -3.711786613331e-04 
8 1  2.270430685620e-04   5.153332874158e-04   1.367783475944e-04 
8
Step 38000
1 1 -2.297270361959e-04  -1.465491005199e-04  -3.732587779232e-06 
2 1 -1.334214351271e-04  -1.202319649542e-04  -3.000828240419e-04 
3 1  3.688901873570e-04  -2.041568821425e-04   1.420867163054e-04 
4 1 -9.700228686634e-05  -8.006155247209e-05  -2.055755827711e-04 
5 1  1.683961617275e-04  -5.157342798323e-04   1.499069980250e-04 
6 1  3.683264143277e-05   2.303131616025e-04   1.348907962361e-05 
7 1  3.826429537763e-05  -1.261577455462e-04  -2.204981433055e-04 
8 1 -3.556405575099e-05   4.054804849669e-04  -1.587832065233e-04 
8
Step 39000
1 1 -9.133154837888e-05   6.078576339236e-05  -7.900432459672e-05 
2 1 -1.129915649959e-04  -2.016010045753e-04  -4.134760625534e-05 
3 1 -4.341584635883e-05   4.873241046889e-05   2.582356198403e-04 
4 1  8.248456431326e-05  -1.357115059942e-05  -5.092860245695e-05 
5 1 -4.813793929194e-05  -5.100351139275e-04  -7.042469087407e-05 
6 1  1.207234672423e-04  -2.173767739858e-04  -1.560643435976e-04 
7 1  1.240910210036e-04  -1.681131174728e-04  -1.396421470128e-04 
8 1 -1.847785897303e-05   5.764754352368e-04  -3.048780818633e-04 
8
Step 40000
1 1 -5.524175462995e-05  -2.168873620361e-05  -1.013555905530e-04 
2 1  1.717317458431e-04  -3.416198450577e-04   9.313926761193e-05 
3 1 -1.142619324238e-04  -4.722836292530e-05   1.441676206285e-04 
4 1 -5.666078198438e-05   4.301344360762e-05   1.626886347726e-04 
5 1  2.636642618431e-04  -1.752755406811e-04   1.508368867355e-05 
6 1  2.943874520061e-05  -1.790967227208e-04  -2.152053523732e-04 
7 1 -2.806441279418e-04  -2.174512550329e-04  -5.183088600208e-04 
8 1 -3.027693692171e-05   1.800632539290e-04  -1.912951608569e-04 
8
Step 41000
1 1 -1.045902371487e-04  -1.789917680409e-05  -6.826585818183e-05 
2 1 -3.505121143380e-05   1.094975244592e-04  -1.098323467929e-04 
3 1  2.156654775595e-04  -8.092325246397e-05   7.247954957468e-05 
4 1  3.421658774745e-04  -1.908759757285e-04   1.938174444218e-04 
5 1  1.483397211016e-04   1.304615906674e-04  -3.700522093392e-05 
6 1  1.585774317188e-05  -5.909597862282e-05  -1.278935088624e-04 
7 1 -1.520112553420e-04  -1.347702015396e-04  -2.528850660748e-04 
8 1  8.811247773680e-05   2.125546393016e-04  -2.325573338318e-04 
8
Step 42000
1 1 -9.747942691993e-05  -9.565633683891e-05  -1.398892699915e-04 
2 1  2.571443469489e-05  -2.194857961761e-04  -2.633919773544e-04 
3 1  2.412440206488e-04   1.213106930371e-04   1.929152463955e-04 
4 1  2.461583604260e-04  -3.179945096766e-04   1.969890125339e-04 
5 1  5.930623718611e-05  -2.118871345616e-04  -8.502516485680e-05 
6 1  1.705507595234e-04   2.867822312872e-06  -1.409496185161e-04 
7 1  1.226630383558e-05   3.427131127786e-05  -2.803343551488e-04 
8 1  8.578284182940e-05   1.852770983870e-04  -1.069482845207e-04 
8
Step 43000
1 1 -4.408380075033e-05  -8.639045692221e-05  -2.221798789272e-04 
2 1 -2.968576727110e-05   3.989774104931e-05  -2.324839173773e-04 
3 1  2.051540555431e-04  -1.396564005577e-05   2.871417055827e-04 
4 1  3.228332049485e-05   3.184200528433e-05  -1.793366130338e-05 
5 1  2.984502201271e-04  -1.448964075286e-04   9.769988870903e-05 
6 1  2.358607834943e-04  -1.165734067019e-04  -2.870628329265e-04 
7 1 -9.970279128172e-05  -1.180340649835e-04  -3.993653531247e-04 
8 1  3.298377393257e-04   2.037701320331e-04   8.790249072998e-05 
8
Step 44000
1 1 -1.308244564305e-04  -4.192081166238e-04   1.289127273027e-04 
2 1  3.020897436445e-05  -9.863405499288e-05  -4.543084273140e-04 
3 1  1.165469037057e-04   3.377448316145e-05   3.405359954813e-04 
4 1  1.206298748688e-04   1.543148258661e-04   2.904158680384e-04 
5 1  2.286776609459e-05  -2.927627194050e-04   5.349624205527e-05 
6 1 -6.769251433305e-05   6.495811684090e-05  -4.542507320124e-04 
7 1 -6.252752839654e-05  -4.694099322707e-04  -2.277718273984e-04 
8 1  1.976698345213e-04   9.794080825659e-05  -1.885218099457e-04 
8
Step 45000
1 1  1.081696468467e-04   9.918125321312e-06  -1.152801571277e-04 
2 1  3.362666567075e-05  -3.614849718806e-04  -2.357785885737e-04 
3 1  2.276321651164e-04   3.084998559990e-04   5.186857545016e-04 
4 1  1.074794081429e-04   3.194782383108e-04   1.928748310883e-04 
5 1  2.642796793398e-04  -1.402041052210e-05   8.685564677711e-05 
6 1  2.864665291125e-04   1.674142962011e-04  -1.595867788103e-04 
7 1 -1.529902524379e-04  -3.653532296566e-04  -3.666268851076e-04 
8 1 -4.649473871976e-05  -3.807487446252e-05  -3.293841184584e-04 
8
Step 46000
1 1 -1.683723761562e-04  -7.414083676735e-05  -3.391252795057e-05 
2 1  8.406506280094e-05  -1.032601693748e-04  -1.459147254147e-04 
3 1  3.478997419455e-04  -5.953940454058e-08  -3.854460039625e-05 
4 1  9.276905391665e-05   5.970075045990e-05   1.921278067965e-04 
5 1  1.802396766780e-04  -2.051246286982e-05  -6.617835695770e-05 
6 1  2.600363871460e-04   1.780397947203e-04  -4.092641721170e-05 
7 1 -8.773814144911e-05  -2.125813676242e-04  -8.366820979771e-05 
8 1  2.366878190537e-04  -8.274351771047e-06   6.344758454182e-05 
8
Step 47000
1 1 -1.866869539104e-05  -1.002874337066e-04  -8.923775580179e-05 
2 1 -8.484070146031e-05  -6.405442289833e-06  -1.991548081711e-04 
3 1  1.504863023280e-04   2.417804158591e-04  -1.879851706396e-04 
4 1  1.130331217032e-04  -2.705258151851e-04   4.692846532035e-04 
5 1  3.545497080459e-04  -9.077789292842e-05  -4.864385084583e-05 
6 1  1.845471843134e-04   2.033761018989e-04  -3.113149506499e-04 
7 1  2.287098761476e-04  -1.038556144836e-04  -1.799210313412e-04 
8 1  1.859229528257e-04   1.035145435591e-04   2.116435511457e-04 
8
Step 48000
1 1  2.943972111546e-04  -1.714763010197e-04   3.910179544723e-05 
2 1 -1.351102709293e-04  -6.326858581178e-05  -1.873872903810e-04 
3 1  3.317631832354e-06   1.516995584047e-04   2.593262851787e-04 
4 1  6.471116838281e-05  -2.399160605283e-05   4.221675113478e-04 
5 1  8.692159835747e-05   8.112907236468e-05  -4.601712622501e-05 
6 1  8.146309351094e-05  -1.374302674833e-04  -2.658067262512e-04 
7 1  6.203920424286e-05  -1.987959615792e-05  -2.549022520752e-04 
8 1  2.180847922808e-06  -2.903897001002e-04   9.140809387044e-05 
8
Step 49000
1 1 -2.156482891834e-04  -2.628248784359e-04   3.889877179806e-05 
2 1  2.849770369407e-04  -9.811114936489e-05  -2.777377693006e-04 
3 1  3.134708074953e-04   4.248527236763e-04   3.213505849615e-04 
4 1 -1.523542823213e-04   5.432179393504e-04   2.184524996358e-04 
5 1  1.856302396408e-04  -5.235558083765e-05  -5.409581491431e-05 
6 1  2.013820726483e-04   1.470038470107e-06  -2.146511693440e-04 
7 1 -8.878475981530e-05  -3.524904535234e-04  -2.706932532334e-04 
8 1 -1.189723370300e-05  -1.732255232779e-04   2.678246908476e-04 
8
Step 50000
1 1 -2.756180723128e-04  -1.954933244109e-05   9.944432266974e-05 
2 1  9.199766606158e-05   8.697714834247e-05  -1.787874388921e-04 
3 1  2.472867466470e-04   1.186077432887e-04   3.018430261483e-04 
4 1  2.956630506765e-05   1.955350908094e-04   8.535941201380e-05 
5 1  7.999208022389e-05   4.029982712773e-05  -2.091727353744e-04 
6 1  1.962567725049e-04  -3.802834296007e-05  -1.909000074683e-04 
7 1  9.523954019947e-05  -2.886881331125e-04   2.058457622372e-04 
8 1 -2.060259931888e-05  -1.802708718094e-05   3.654713610827e-04 
8
Step 51000
1 1  1.910766632159e-05   7.053600588419e-05   9.884613088057e-05 
2 1  4.427916771360e-05   1.634941614042e-05  -2.468567785336e-04 
3 1  7.195380420797e-05   3.676150328805e-04  -8.952515074305e-05 
4 1  1.445139678253e-04  -4.783958839778e-05   3.652352440861e-04 
5 1  1.240737537650e-04   1.728226138757e-05  -1.505692028089e-04 
6 1  4.228204833989e-04   2.816641810082e-04  -1.360413439079e-06 
7 1  1.439826362932e-04  -7.995513593686e-05   6.467986295210e-05 
8 1 -1.649354199910e-05  -1.587635202951e-04   1.864305619618e-04 
8
Step 52000
1 1  1.060986482819e-04  -1.845794159025e-04   1.040978699012e-04 
2 1 -3.455979640892e-06  -5.724105037171e-05  -8.550614144923e-05 
3 1  4.797814348699e-05   2.484100748051e-04  -1.402546001558e-04 
4 1 -1.440914024954e-04   1.181637668099e-04   4.861736355259e-04 
5 1  1.125355346005e-04  -7.117720292218e-05  -1.082928473208e-04 
6 1  1.964152643566e-04   2.040756396018e-04  -1.081227346714e-04 
7 1 -4.123891366327e-04  -4.173703045388e-04  -1.401483172279e-05 
8 1  1.671278479330e-04   2.794528066903e-05   4.264834166518e-04 
8
Step 53000
1 1 -3.768833795228e-06  -2.402046495981e-04   1.944177817014e-04 
2 1  3.652404987552e-05   1.385475091395e-04   1.793174412382e-04 
3 1  2.012427212392e-04   4.476589635712e-04  -2.213366384890e-04 
4 1 -4.859819265990e-05   1.426643287571e-04   2.966209132651e-04 
5 1 -1.243573657877e-04   1.690019861629e-04  -5.148509881995e-04 
6 1 -6.318439174495e-05  -1.306512197606e-04  -2.338368230214e-04 
7 1 -1.580092675505e-04  -2.600026340778e-04   4.121137418062e-04 
8 1  5.807297369186e-05  -2.139281901107e-04   2.513213294531e-04 
8
Step 54000
1 1 -8.912479023256e-05   1.728426499047e-04   1.609508658676e-04 
2 1 -2.864895063990e-04   5.318858985911e-05   2.214114111782e-04 
3 1  3.046598322700e-04   4.577498048149e-04  -1.587156646325e-04 
4 1  7.080447053013e-05   7.418362404509e-05   1.640295614045e-04 
5 1 -1.738862071220e-04   2.008881411287e-04  -4.914301958309e-04 