8
Step 0
1 1  0.000000000000e+00   0.000000000000e+00   0.000000000000e+00 
2 1  0.000000000000e+00   0.000000000000e+00   0.000000000000e+00 
3 1  0.000000000000e+00   0.000000000000e+00   0.000000000000e+00 
4 1  0.000000000000e+00   0.000000000000e+00   0.000000000000e+00 
5 1  0.000000000000e+00   0.000000000000e+00   0.000000000000e+00 
6 1  0.000000000000e+00   0.000000000000e+00   0.000000000000e+00 
7 1  0.000000000000e+00   0.000000000000e+00   0.000000000000e+00 
8 1  0.000000000000e+00   0.000000000000e+00   0.000000000000e+00 
8
Step 1000
1 1 -1.461175091518e-04  -3.094120013312e-04  -1.031035200104e-04 
2 1 -3.672192929160e-04   1.378254532709e-04   2.458914456712e-04 
3 1  1.312541316977e-04  -6.458890689052e-05  -7.581579200460e-05 
4 1  7.218327941252e-05  -1.943293860979e-04   5.489138950677e-04 
5 1  2.578402190052e-04   2.700229475317e-04  -6.717273624418e-04 
6 1 -2.348783189639e-04   1.422277751815e-04  -3.191754369098e-04 
7 1 -1.135052265429e-04   8.847971339634e-05  -1.929700689467e-04 
8 1  1.716404732684e-04  -2.427646121244e-04   1.830295809449e-04 
8
Step 2000
1 1 -2.189869070001e-04  -1.153853139441e-06  -1.463489522763e-04 
2 1 -3.210215305261e-04  -3.871549478155e-05   1.815220362888e-04 
3 1  1.343635686440e-04   1.812777499461e-04   2.685102993299e-05 
4 1  2.016412353809e-04  -5.281741354970e-04   7.029614195109e-04 
5 1  3.233705715687e-05   3.821116484424e-04  -3.596366591590e-04 
6 1 -3.221967326654e-04   5.894222779269e-05  -4.311502796169e-04 
7 1 -1.522697359034e-04  -1.775269198541e-04  -9.714947538538e-05 
8 1 -2.908760819212e-04  -3.058533521363e-04   3.911932007034e-05 
8
Step 3000
1 1 -2.909959213637e-04  -6.137776298959e-05  -1.571828026604e-04 
2 1 -1.631366766907e-04   1.670245836913e-04   3.319318007334e-06 
3 1 -1.019203663896e-04   1.074550575498e-05  -2.295148311832e-05 
4 1  2.568176282359e-04  -2.141692888934e-04   4.780598926069e-04 
5 1  1.445241069182e-05   3.118065087805e-04  -3.418342286177e-04 
6 1 -2.913952184021e-04  -7.326405200442e-05  -4.011956157148e-04 
7 1 -1.925163908253e-04  -4.604491377525e-05   1.455397274289e-04 
8 1  7.776477878819e-05  -2.509826817653e-04   2.428672495534e-05 
8
Step 4000
1 1 -1.984176570061e-04  -1.591167155187e-04  -4.542884115907e-05 
2 1 -1.139432211077e-04   2.490178747286e-04   2.204984632020e-05 
3 1 -3.336128598756e-06   4.622992853923e-04  -1.127996911341e-04 
4 1  8.163867506270e-05   8.560760645907e-05   4.631730433839e-04 
5 1 -4.353973027679e-04   4.248842957239e-04  -3.252693451839e-04 
6 1 -1.779511007231e-05  -2.918223016069e-04  -2.802659093687e-04 
7 1  4.156291654003e-05  -6.517018534552e-05   1.055798664448e-04 
8 1  2.235681592897e-04  -5.791840130957e-04   1.881038310692e-04 
8
Step 5000
1 1  1.815318750855e-05  -2.520814359019e-04  -9.247766829930e-05 
2 1 -1.457762926479e-04   1.238734792551e-04  -7.921009680857e-05 
3 1 -1.020822764673e-04   5.100951639923e-04   4.125364026427e-05 
4 1 -3.055110848327e-05  -7.853792275897e-05   4.297977437370e-04 
5 1 -5.932591621631e-05   4.525228817948e-04  -1.653982645898e-04 
6 1 -3.143061856813e-04  -1.988654557835e-04  -3.545832455449e-04 
7 1 -2.220420909900e-07  -2.208459314810e-04  -1.240730886518e-05 
8 1  2.349244786046e-04  -5.754581679733e-04  -1.286350973425e-04 
8
Step 6000
1 1 -5.818173477354e-05  -2.024265606335e-04  -1.435798929046e-04 
2 1 -1.961124751797e-04   1.796698057837e-04   1.900824220431e-04 
3 1 -7.356606573023e-05   3.410959252703e-04  -3.520701741361e-05 
4 1 -1.293367356284e-04  -8.229412427230e-05   4.306940619210e-04 
5 1 -5.990907393570e-05   2.504016833213e-04  -2.093183165347e-04 
6 1 -4.261505073172e-04  -2.123239953143e-04  -3.669557682443e-04 
7 1 -3.078872431472e-04  -2.133586730401e-04  -1.336924743042e-04 
8 1  2.317843371822e-04  -4.999246131675e-04   2.188688915617e-04 
8
Step 7000
1 1  2.702328047609e-05  -5.493169042614e-05  -2.802123043021e-04 
2 1 -3.116561315662e-04   6.956928941515e-05   1.257720910187e-04 
3 1 -8.758230958228e-06   2.771494312314e-04  -1.147688311436e-04 
4 1 -1.115831842446e-06  -9.193938453292e-05   3.781222787800e-04 
5 1 -1.245761116084e-05   1.720619070922e-04   2.623337330111e-05 
6 1 -4.196174586433e-04   1.860090140613e-04  -3.680599454287e-04 
7 1 -1.791410457902e-04  -2.840861939570e-04  -6.452419455203e-05 
8 1  1.441654518121e-04  -4.759702845766e-04   1.473310986770e-04 
8
Step 8000
1 1 -1.607284473938e-04  -5.517142331001e-05  -1.208085919219e-04 
2 1 -2.299776527493e-04   3.616530389017e-04  -1.129316248223e-04 
3 1  1.360412222095e-04   1.764197284753e-04  -6.378206382516e-05 
4 1 -2.663910423993e-04   5.211770735834e-04   1.191404203754e-04 
5 1  3.695646671178e-05  -6.294013712787e-05   5.832882588548e-06 
6 1 -8.376353833169e-05  -2.451728080649e-06  -7.973191641100e-05 
7 1  2.077467679584e-05  -4.649598751678e-04   7.645706806383e-05 
8 1 -5.351142126133e-05  -3.631091732803e-04   3.445517130091e-04 
8
Step 9000
1 1  8.159073318889e-05  -1.243745458705e-04  -4.064989859351e-04 
2 1 -1.848617358677e-04   3.209325343726e-04   4.142398762516e-04 
3 1  2.657763624671e-04   1.370625418755e-04  -3.440815322642e-04 
4 1 -3.782589765384e-04   4.295118803434e-04   1.304486885888e-04 
5 1 -2.567570190158e-05   1.138409517283e-04   1.064098397642e-05 
6 1  8.695199878040e-06   1.207974758995e-05  -1.314540615915e-04 
7 1  8.089893794503e-05  -6.680637328541e-04  -2.184433267040e-04 
8 1  5.433381853274e-05  -2.364712256160e-04   4.379844733559e-04 
8
Step 10000
1 1  5.129645372630e-05   1.794569483312e-05   2.944514372039e-05 
2 1 -1.887099834837e-04   2.391190482628e-04   2.426007578340e-04 
3 1  6.547117646760e-05   7.352962001026e-05  -2.742210944771e-04 
4 1 -2.882367249466e-04   3.286544738856e-04   2.957864373399e-04 
5 1  2.708411251820e-04  -1.161596610331e-04  -1.516254748748e-04 
6 1 -3.800027927160e-04   2.652679170402e-05  -3.136231053434e-04 
7 1  1.271220113367e-04  -4.801128428979e-04   7.746128897755e-05 
8 1 -6.709916776251e-05  -1.761662722689e-04   2.357632995431e-04 
8
Step 11000
1 1 -1.084028462946e-04   1.303180722562e-04  -2.483065335456e-04 
2 1 -1.922359538602e-04   1.047754130811e-04   1.411905152359e-04 
3 1  2.860631048018e-04  -2.034268441960e-04  -1.190508001523e-04 
4 1 -3.396906253498e-04  -7.920086103302e-05  -3.838536892557e-05 
5 1  5.876507980157e-05  -1.076969248848e-05  -7.657544095345e-05 
6 1 -1.068781112566e-04  -9.901116427405e-05   3.413258118830e-05 
7 1 -5.150000366981e-05   2.895398223634e-05   3.246547183810e-05 
8 1 -1.264759960920e-04  -2.782017741818e-04   2.993855394148e-04 
8
Step 12000
1 1 -4.133471775124e-04   4.521835027951e-04  -1.389871777933e-04 
2 1 -1.409373244708e-04   7.746154287726e-05   2.914840694237e-05 
3 1  1.409000006978e-04  -6.742691301291e-05  -1.350866455841e-04 
4 1  1.022431191745e-04  -1.523138562527e-04   1.337356488333e-04 
5 1  1.011396387136e-04   3.260624351366e-04   2.219256533160e-06 
6 1  2.565977628612e-05  -5.184335440133e-05   4.715827099815e-05 
7 1 -9.047351115669e-05   1.261647306056e-04   1.920917448461e-04 
8 1  1.330417770921e-04  -3.959310798630e-04   2.557819067361e-04 
8
Step 13000
1 1 -1.945138003308e-04   2.189564989783e-04  -2.680719953961e-04 
2 1  1.292661600750e-04   2.400515655852e-04   4.033995023119e-05 
3 1  1.254399282577e-04   1.325844256047e-04   5.070119839024e-06 
4 1  7.975883335722e-05   3.460531892179e-05  -2.479924735396e-05 
5 1 -2.523444358304e-04   1.903638385404e-04   4.367104580122e-05 
6 1  2.243857238915e-04  -1.558648038168e-04  -8.795684258162e-05 
7 1 -3.160259213356e-05   1.206803110324e-04   3.223904847845e-04 
8 1  3.450330424524e-04  -6.131089560492e-04   1.645456480573e-04 
8
Step 14000
1 1 -2.381256243367e-04   2.105818352582e-04  -1.295777973465e-04 
2 1  5.373590095852e-05   4.107670288893e-05   2.803074709019e-04 
3 1  8.918728982240e-05   1.458933611312e-04  -5.133731816298e-05 
4 1  3.779318284968e-06  -7.160329976221e-06  -2.444130529240e-04 
5 1 -2.247944450338e-04   4.142690617599e-05   2.802140227335e-04 
6 1  3.651537605105e-04  -2.263127956495e-04  -3.957942620382e-05 
7 1 -2.848745358263e-05   7.304759470086e-05   2.440367936766e-05 
8 1  3.002454246004e-04  -1.997603406730e-04   1.453190562479e-04 
8
Step 15000
1 1 -4.380891393250e-05  -6.207330726264e-05  -6.530131179259e-05 
2 1  2.424431841718e-04  -1.910176921733e-04  -3.013740797743e-05 
3 1 -1.347667266987e-04   1.376801547556e-05   1.647347001899e-05 
4 1 -2.157119924910e-04   6.901293922301e-05  -8.045433491882e-05 
5 1 -1.161390050401e-05  -3.855076257921e-05   3.525001462562e-04 
6 1  1.545976391792e-04  -4.642198789204e-05   3.606842100384e-05 
7 1  1.832683309879e-04  -4.136491904214e-05   8.248296273045e-05 
8 1  3.943442682390e-05   3.301549548331e-05  -9.852410683416e-05 
8
Step 16000
1 1 -1.252325416256e-04  -2.782031393929e-05  -2.064058267557e-04 
2 1 -2.708567226104e-05   2.406806218421e-04  -3.706544487055e-05 
3 1  5.971487151360e-05  -4.041186563945e-04  -5.672079739187e-05 
4 1 -2.174685041458e-05  -5.308341248846e-05  -5.596198931974e-05 
5 1  1.722340996877e-04   1.154810510621e-04   6.924339454145e-04 
6 1 -7.799888386435e-05   3.384914272061e-04   4.751531914323e-05 
7 1  1.475253823192e-04  -1.897731766981e-04   5.820800106112e-06 
8 1  1.613378349832e-04   1.549282376865e-04   8.207660568279e-06 
8
Step 17000
1 1  2.268647741798e-04   1.143361855300e-04  -2.363221482686e-04 
2 1 -1.436728466105e-04   5.439709647030e-05  -1.992994809655e-05 
3 1  2.300262086542e-04  -8.624321540671e-05   3.667941505134e-05 
4 1 -2.439462485332e-04   7.129181627522e-05  -1.827275609715e-04 
5 1  3.732522897538e-04  -1.096335488497e-04   4.752899561989e-04 
6 1 -2.843116898128e-04   3.365094704209e-04   1.686064779875e-04 
7 1  4.474945974078e-04  -3.138133687746e-04  -3.903387174629e-05 
8 1  1.725311275419e-04   4.739447222033e-05   1.270972648833e-04 
8
Step 18000
1 1  3.119446163215e-04  -1.227207920409e-04  -9.849590105757e-05 
2 1 -4.062784666372e-06   3.213480281188e-04   1.302061194866e-04 
3 1  2.855817995085e-04  -2.345624115366e-04   6.510132809408e-05 
4 1 -2.352130546127e-04   4.242116386161e-04  -7.492795461288e-05 
5 1  1.169453317135e-04  -1.327417639941e-04   3.770261749966e-04 
6 1  1.370656907377e-04   1.765266579423e-04   1.388743255659e-04 
7 1  4.166659505728e-04   2.053827833776e-05  -2.712263886091e-04 
8 1  1.233291691927e-04  -7.189972510555e-05  -5.166114147238e-06 
8
Step 19000
1 1  2.874380911953e-04  -2.327590671442e-04  -4.832789730153e-05 
2 1  2.150145640433e-04  -3.495182426152e-04  -9.684165244552e-05 
3 1  8.107978890077e-05  -1.807691239336e-04  -5.041480257071e-05 
4 1 -3.808824693754e-04   3.455081930511e-04  -1.839495067180e-04 
5 1  5.561642942306e-05  -1.197385907428e-04   4.826036983474e-04 
6 1  2.475305615652e-05   2.119266102099e-04  -4.983692961030e-07 
7 1  1.417105332775e-04  -1.143591895573e-04  -2.264291080658e-04 
8 1  1.858735542657e-04   2.281361529044e-05   2.734731071219e-04 
8
Step 20000
1 1  1.497507534181e-04   4.335349849241e-05   7.563153962943e-05 
2 1  1.367786416443e-04  -4.369093968528e-04  -7.726938735351e-05 
3 1  1.855312707108e-04  -4.288702496397e-04  -2.862109105465e-05 
4 1  5.142285219323e-06   2.834918034897e-04  -2.532830518386e-04 
5 1  2.394257646147e-04  -2.250855076500e-04   5.101556942544e-04 
6 1  3.432927971687e-05   2.735492705601e-04   7.954749765150e-05 
7 1 -4.381992412609e-05   4.560660574711e-04  -1.948181362531e-04 
8 1 -1.275392885882e-04   2.155519707544e-05   5.607621231816e-05 
8
Step 21000
1 1  2.287272933425e-05  -6.924581863120e-05  -2.640683416474e-05 
2 1  4.591004310157e-04  -9.387919290456e-05  -9.001960112529e-05 
3 1  4.310313833564e-05  -1.711167772241e-04   1.463858518060e-04 
4 1  2.014994085341e-04   9.217057694426e-05  -2.641008509987e-04 
5 1 -1.062793670513e-05  -1.166542701678e-04   5.663745857643e-04 
6 1  2.591496888940e-04   9.261491921222e-05   2.623436903937e-04 
7 1 -2.619327182048e-04   3.838804256937e-04  -2.062541531096e-04 
8 1  9.808299850101e-05  -6.919437563444e-05  -1.472765814702e-04 
8
Step 22000
1 1  1.359742830151e-04   1.268830921468e-04   1.226611059705e-04 
2 1  3.034034323573e-04  -1.369154100319e-05  -2.088299468703e-04 
3 1 -4.007016657091e-05  -1.610791493344e-04   1.613644382216e-04 
4 1  2.672305490865e-04  -4.760474965386e-05  -3.952267754476e-04 
5 1  2.439932062981e-04   4.493059262014e-05   4.444344431121e-04 
6 1  2.446135974956e-04   4.241102615745e-05   6.716810317671e-05 
7 1 -7.081376320677e-05   1.113088836706e-04   1.185044842441e-05 
8 1  1.643030138162e-05   1.202768324951e-04  -2.260373069760e-04 
8
Step 23000
1 1  3.369074190335e-04  -2.311530797477e-04  -1.567395999329e-05 
2 1  2.609225108961e-04  -2.051818198504e-04   2.275926265809e-05 
3 1 -2.812826018973e-04  -1.253550276672e-04   4.875688706000e-05 
4 1  5.221695439211e-05  -3.992734359073e-05  -4.090507988085e-04 
5 1  1.447862647690e-04   8.669176086823e-05   4.301948415772e-04 
6 1  3.243837414132e-04   9.153792591561e-05   2.128832917344e-05 
7 1  7.225181263289e-05   2.720210217650e-04   1.938002023187e-04 
8 1 -1.684145180413e-04  -1.252817722047e-04  -3.360885057381e-04 
8
Step 24000
1 1  1.364800781838e-04  -1.230176274154e-05  -4.939916368930e-05 
2 1  3.376585409381e-04  -5.905696708664e-04  -2.353448067557e-05 
3 1  1.082262416439e-04  -1.928250973488e-04   7.589468108579e-05 
4 1 -1.106578909454e-05   7.207193942473e-06  -4.402939915275e-04 
5 1  1.986308512829e-04  -2.558256117862e-04   3.581782567501e-04 
6 1  1.683278840554e-04   7.475628581073e-05   1.280667926479e-04 
7 1 -4.223249432323e-04   4.319907157649e-04  -4.105517823567e-05 
8 1 -1.183725584060e-04   3.351106886681e-04  -2.433064541122e-04 
8
Step 25000
1 1  1.567061441796e-04   8.964110338343e-05  -2.354794548036e-05 
2 1  9.412403516180e-05  -3.440602007035e-04  -5.062913293714e-06 
3 1  2.221712065160e-04  -4.366609847784e-04   1.133378593731e-04 
4 1 -1.098165614606e-04   3.082206130490e-06  -4.923236878152e-04 
5 1  1.433017631996e-04  -4.176286059682e-04   3.635304450491e-04 
6 1  2.131864227773e-05   1.006147184844e-04   9.315791490305e-05 
7 1 -1.274346321977e-04   3.454634027423e-04  -1.248175811717e-05 
8 1 -3.324880149407e-04   3.980483748306e-04  -9.520794000650e-05 
8
Step 26000
1 1  3.827108025727e-04   3.421291072296e-04   3.880728587321e-05 
2 1  7.224639834261e-05  -1.755456229482e-04  -4.574101808343e-06 
3 1 -1.604219149610e-04  -2.146217606518e-04   3.188757450233e-05 
4 1  1.419421715431e-04   1.770963959180e-04  -3.151993836273e-04 
5 1  2.163502428366e-04  -4.381464540218e-04   3.378619319835e-04 
6 1 -1.606781040084e-04   3.487560797786e-04  -2.708147967368e-04 
7 1  7.326093400862e-06   8.832943709624e-05  -2.084291664316e-04 
8 1  1.598299951037e-04   1.897747044207e-04   8.046745763825e-05 
8
Step 27000
1 1  5.758718296141e-05   8.721622021269e-05  -1.553077161663e-04 
2 1  1.567846163029e-04  -2.835077464579e-04  -1.974269000734e-04 
3 1 -2.384847256250e-04  -2.618146310589e-04   1.570925979058e-04 
4 1 -1.584661849247e-04   2.044375977880e-04  -4.785459032568e-04 
5 1  7.899675289265e-05  -4.887892780503e-04   2.754485954662e-04 
6 1  2.680647959767e-04   3.253391140692e-04   3.348009170941e-04 
7 1  8.932807407736e-05  -6.991609811468e-05  -2.347670173371e-04 
8 1 -6.147813054498e-05   3.326527646832e-04   2.414211319907e-05 
8
Step 28000
1 1  7.078739790045e-05  -2.456284874479e-05   1.144133315883e-04 
2 1  1.354697625393e-04  -1.098992877556e-04  -1.574646505707e-04 
3 1 -1.851377764638e-04  -2.966214877090e-04   8.706827502831e-05 
4 1 -1.004362965558e-04   1.833107638036e-04  -4.997668065432e-04 
5 1  7.722098788852e-05  -4.156087884087e-04   3.417713240314e-04 
6 1 -6.398055855202e-05   3.025258187219e-04   1.416307066803e-05 
7 1  1.485875792298e-04   6.675560464245e-05  -2.426759247620e-04 
8 1 -2.980196622584e-04  -7.235393571181e-06  -2.392691749453e-04 
8
Step 29000
1 1 -7.511901946415e-06   1.661574119555e-04   1.724648011347e-04 
2 1  1.430343302168e-04  -2.688593628707e-04  -2.902564664245e-04 
3 1 -2.694182730456e-04  -1.268953540503e-04   2.181825727501e-04 
4 1 -2.005511880084e-04   1.991427971483e-05  -3.470803140022e-04 
5 1 -1.267755762572e-04  -2.872297745206e-04   3.496342372027e-04 
6 1 -1.510294661299e-04  -9.959162331141e-06   9.303428558029e-05 
7 1 -1.272530102435e-05   1.741416805330e-04  -2.581351322785e-04 
8 1 -3.384010709178e-05   1.899358333419e-04  -1.724981290651e-04 
8
Step 30000
1 1 -1.043666792963e-04   4.386919997417e-04   3.417008930725e-05 
2 1  4.101084182057e-05  -5.897422223550e-05  -3.169290974683e-04 
3 1 -2.614740347961e-04  -7.473849958220e-05   2.321034591628e-04 
4 1  7.906542197969e-05   9.846596962061e-05  -2.764515057556e-04 
5 1 -3.077900949017e-04  -1.020320371274e-04   5.429778183481e-05 
6 1  1.827315175727e-04  -5.861526445369e-05   2.574346502101e-04 
7 1  4.972081396271e-05   5.186922275847e-05  -8.892993225711e-05 
8 1 -5.825676760164e-05  -1.272445910847e-04  -3.831045036432e-04 
8
Step 31000
1 1 -1.800015295755e-04   9.638429555317e-05  -4.583741267101e-05 
2 1 -2.037689737143e-04  -1.529002233353e-04  -3.631007684741e-04 
3 1 -4.542970628973e-04   1.734639309606e-04   3.410141008361e-04 
4 1  2.021460040507e-04   7.026314844260e-05  -2.707607755857e-04 
5 1 -8.358397136794e-05  -2.433139941817e-04   3.497577413008e-04 
6 1  2.137882647326e-04  -2.649202586203e-04   1.868101926303e-04 
7 1 -1.079558115447e-04   6.018124936086e-04  -1.163441529948e-04 
8 1  1.637993827957e-04  -8.332218350280e-05  -3.584176319705e-04 
8
Step 32000
1 1 -4.989402302048e-05  -9.913600169060e-05   6.886891843846e-06 
2 1 -1.941903498146e-04  -2.035952739557e-04  -2.442129226476e-04 
3 1 -3.219653404609e-04   1.663639839938e-04   2.189326814793e-04 
4 1  3.007615373267e-04  -4.899634332674e-05  -2.624157638000e-04 
5 1 -1.522712814066e-04   1.579429751709e-04   2.429591112516e-04 
6 1  2.018599080280e-04  -5.414795535264e-05   7.207957796420e-05 
7 1 -2.782480442574e-04  -2.691232781671e-05  -1.736076800639e-04 
8 1 -1.066558237788e-04   9.273529743554e-05  -4.429020332421e-04 
8
Step 33000
1 1 -3.232416054307e-04  -2.822771734114e-05   2.865957319373e-05 
2 1  2.903119545583e-05  -3.169313847267e-04  -7.073551673146e-05 
3 1 -6.802453442848e-04  -2.843424432319e-05   2.071562100858e-04 
4 1  8.598768545403e-05   2.455605972672e-04  -3.920219711235e-04 
5 1  9.933170580425e-05   9.755365171991e-05   2.890764755831e-04 
6 1 -4.115813193837e-05   1.157273762490e-04  -6.363731345606e-05 
7 1 -2.188050408817e-04  -2.963963249342e-04  -3.094924252369e-05 
8 1 -3.335249004296e-04   5.235010989043e-05  -1.890247325122e-04 
8
Step 34000
1 1 -1.066960560551e-04   5.033576033269e-05   1.124953130358e-04 
2 1 -2.132856933308e-04   2.851852482630e-05  -1.171374734071e-04 
3 1 -2.955286003134e-04   2.160628720641e-04   4.939073227802e-04 
4 1 -1.092503440420e-05   1.635990649786e-04  -3.351894678828e-04 
5 1  1.128767953293e-04  -3.262493587006e-04   1.127966538521e-04 
6 1  1.372667144467e-04   1.318385477506e-05   4.375788861880e-05 
7 1 -1.800431478487e-04  -2.715427699358e-04  -2.287586458238e-04 
8 1 -3.997549513225e-04   3.782913772394e-04  -3.928794737885e-04 
8
Step 35000
1 1 -2.107051861223e-04   1.377082206801e-04  -5.157083569622e-05 
2 1 -3.992311364283e-04  -2.920713245051e-05  -1.488815729905e-04 
3 1 -2.962885257589e-04  -1.150201716577e-04   1.177802345634e-04 
4 1  5.285617563203e-06   3.694013301204e-04  -1.310663430538e-04 
5 1  5.018890426929e-04  -5.268321629904e-04   2.145151359739e-04 
6 1 -1.324702301485e-04   4.178968723758e-04  -1.123668971400e-04 
7 1 -9.136269722100e-05  -2.399946273672e-04   1.042222387047e-04 
8 1 -1.390222002389e-04   5.368138185540e-04   1.369705147116e-05 
8
Step 36000
1 1 -5.109166022367e-04  -1.616096956469e-04   8.912425949989e-05 
2 1 -1.662757383527e-04  -2.820793044959e-04  -1.588481463715e-04 
3 1 -1.197033771290e-04  -1.169798968225e-04   1.205934011462e-04 
4 1  2.574332112447e-06   4.235652951958e-04  -9.893487678926e-05 
5 1  2.696471512816e-04  -2.772373948951e-04  -1.751206531693e-04 
6 1 -6.402314393940e-05   1.907536428920e-04  -2.052298872056e-05 
7 1  1.536871544812e-06  -6.956360307785e-05  -4.003907139071e-05 
8 1 -1.503035923508e-04   3.833312554542e-04   2.200330352716e-06 
8
Step 37000
1 1 -2.325220683354e-04  -2.314782546733e-05   3.857581589462e-04 
2 1 -1.886983297809e-04  -4.096503286730e-04  -4.707036624876e-05 
3 1 -4.613982981167e-04   1.248074545075e-04   1.890645058034e-04 
4 1 -9.791182868648e-05   2.323109582307e-04  -5.801268635960e-05 
5 1  1.365930157802e-04   1.449338388201e-04  -4.209822816504e-04 
6 1  3.018336470902e-04   6.839611031099e-05   1.383898023076e-04 
7 1 -3.018375350985e-04  -1.337928710812e-05   6.363940709189e-05 
8 1 -2.509431730357e-04   4.198184778422e-05  -1.517841475069e-04 
8
Step 38000
1 1 -2.765295440738e-04   1.048181071793e-04   2.756776833250e-04 
2 1 -4.789966480631e-05  -3.587243910648e-04   1.226747773423e-04 
3 1 -4.286993493420e-04   1.342641087914e-04   6.401176780961e-05 
4 1  9.791193080303e-05   1.118452308589e-04  -1.195108751537e-04 
5 1 -4.166754755260e-05   1.620387650015e-04  -2.138315625525e-04 
6 1  3.718972139689e-05  -1.353132245724e-04  -2.110572738632e-04 
7 1 -1.665136621355e-04   2.968086515291e-04   7.594107623461e-05 
8 1 -1.791458538727e-04  -2.374053402379e-04   6.469948920354e-05 
8
Step 39000
1 1 -1.522534433190e-04   4.732815463429e-05   4.624544429250e-04 
2 1 -3.485409432113e-04   7.341102386071e-05  -7.731902966421e-05 
3 1 -1.056480191404e-04   6.763635437653e-05   1.304801774473e-04 
4 1  2.039597858135e-04  -2.431310348057e-04  -7.435872138308e-05 
5 1 -2.149750974438e-04   2.801128318444e-04  -2.592329324021e-04 
6 1  1.505619639181e-04   1.252615821845e-04  -4.693520127463e-05 
7 1 -2.379859705075e-04   2.914122775571e-04   6.952491757623e-05 
8 1  1.198594191386e-04  -7.776921587556e-05   1.877400761697e-04 
8
Step 40000
1 1 -1.041447412714e-04  -3.278225614126e-05   3.166963965819e-04 
2 1 -2.794480105647e-04  -9.440105025039e-05  -1.780107721931e-04 
3 1  7.572261608479e-05   2.757150449250e-04   1.346810083893e-04 
4 1  2.259083366805e-04  -2.425532848446e-04  -2.057637345160e-04 
5 1 -3.288224440112e-04  -1.474316406583e-04  -5.446110461881e-05 
6 1  1.802763837245e-04   1.061947614824e-04  -1.153740285381e-04 
7 1  1.137302918073e-05   3.507257720659e-04   3.860452430614e-04 
8 1  1.941224895051e-04   1.154548315444e-04  -5.496333454622e-05 
8
Step 41000
1 1 -2.433888865583e-05   3.468420937853e-05   2.891088087508e-04 
2 1 -3.426478395823e-04  -1.915437959428e-05  -1.188993295972e-05 
3 1 -1.114703655366e-04   2.306357540655e-04   2.340077433966e-04 
4 1  1.434279489901e-04  -7.103536549495e-05  -3.200165778051e-04 
5 1 -1.840138330965e-04  -3.242213831467e-04  -8.863100867399e-05 
6 1  3.105550527602e-05  -3.852238181964e-05  -7.674829183131e-05 
7 1  1.055608687908e-04   5.147567315743e-05   3.001673640969e-04 
8 1  3.495258105607e-05   2.267331541182e-04   6.185387002575e-05 
8
Step 42000
1 1  6.643144919895e-05  -1.418882964415e-04   3.424662206593e-04 
2 1 -3.302426406534e-04  -1.447114986481e-05   5.866219274447e-05 
3 1 -9.446918649919e-05   1.538632532726e-04   2.086121344501e-04 
4 1 -8.674770775096e-06   1.353197530927e-04   1.415002266980e-04 
5 1 -8.594509579169e-05  -4.045408831003e-04  -2.420147056665e-04 
6 1 -8.013210760202e-05  -3.956351467816e-05  -1.215137482965e-04 
7 1  4.602778750581e-06  -2.474544686861e-04   1.900274685310e-04 
8 1  1.804922343033e-04   3.478840308478e-04  -1.777290243185e-04 
8
Step 43000
1 1  3.925701469020e-05   1.588188130022e-04   2.753632817410e-04 
2 1 -9.356467317341e-05   2.438947104857e-04   9.847178891825e-05 
3 1  1.478662201816e-04   1.731895262598e-04   2.226937489578e-04 
4 1  3.014892059262e-04   1.413707399804e-04   4.009604584959e-05 
5 1  1.830580257115e-05  -1.862930632382e-04  -1.220984492068e-04 
6 1 -1.959256842228e-04   4.059586704000e-05   1.259605256386e-04 
7 1  1.318796832281e-04  -3.344677664139e-04   2.203527605962e-04 
8 1 -1.464102686696e-04   1.885051188043e-04  -2.135772498355e-04 
8
Step 44000
1 1 -6.170791593978e-05   5.875958527104e-05   5.589019843868e-05 
2 1 -2.451034998485e-04   1.098412919362e-04   7.554452831537e-05 
3 1  3.238358161363e-04  -1.151703669003e-05  -6.605113666234e-05 
4 1 -7.834789391554e-05  -5.080644039382e-05   1.900987427444e-04 
5 1  1.968207020003e-04  -1.660075067618e-04  -4.621980301887e-04 
6 1  1.862793482436e-04   5.188019001908e-05   2.995030924709e-04 
7 1  2.477016431874e-04  -1.282789725765e-04   1.690015601126e-04 
8 1  5.775306032044e-05   1.455455474666e-04   2.424118005232e-04 
8
Step 45000
1 1 -5.055237490287e-05   1.376818494651e-04   1.583425718917e-04 
2 1 -2.665772682803e-06   3.738203793470e-04   9.365281845796e-05 
3 1  1.366480859777e-04   8.014198610584e-05  -2.968472404912e-05 
4 1  7.912322599438e-05  -1.568327302817e-04   2.497118372798e-04 
5 1  1.585305523291e-04  -1.777880618408e-04  -3.238462639060e-04 
6 1  4.218934795050e-05  -1.794402020803e-04  -4.989300677826e-05 
7 1  2.490806077584e-04  -1.354896988535e-04   1.486739474977e-04 
8 1  2.210762956970e-04   1.130803662213e-04   2.255115654274e-04 
8
Step 46000
1 1  1.333159495583e-04  -1.538391402337e-04   1.446455145037e-04 
2 1 -8.141413276825e-05   8.837382149055e-05  -1.684604350486e-04 
3 1  1.343223642375e-04   7.201713580176e-05   1.715042607609e-04 
4 1  4.173066305911e-05  -2.549591111129e-06   3.125884729378e-04 
5 1  1.299561130822e-05   2.005948362945e-04  -2.117503030434e-04 
6 1  1.735586297933e-04  -1.970839991019e-04  -1.986150829975e-04 
7 1  2.122565454224e-04  -2.752567028778e-04   1.289047177353e-04 
8 1 -1.046979440710e-04  -2.782455164723e-04   2.686266312912e-04 
8
Step 47000
1 1  6.896478140266e-06   1.239569692835e-04   1.182020226379e-04 
2 1  1.191538567618e-04  -1.235271139186e-04  -1.452742990688e-05 
3 1  2.772198489299e-04   4.785748227987e-04   3.516338694467e-04 
4 1  6.305070718037e-05   1.423185619023e-04   2.166966647904e-04 
5 1 -6.209734761973e-05   2.099577459596e-04  -3.626594708231e-04 
6 1  3.297089068142e-04  -2.927557131661e-04  -1.889547332470e-04 
7 1 -1.863263742614e-04  -3.008799198073e-04   1.181718716653e-04 
8 1  1.370023283072e-04  -4.191064663925e-04   2.189804219517e-04 
8
Step 48000
1 1  3.536093955148e-05   8.355297096483e-05   2.276717020586e-05 
2 1  2.289905777420e-05   2.666280843097e-06   2.744306604838e-05 
3 1  1.724840778253e-04   1.289020167655e-04  -1.119643473155e-04 
4 1  4.318553529246e-04  -2.206335760174e-04   6.907868947903e-05 
5 1 -4.124201988242e-05   3.746107039615e-04  -1.050157415968e-04 
6 1  4.122844606579e-04  -5.551880977149e-05  -1.647859995166e-04 
7 1  3.663566137759e-05  -2.671060781061e-04   5.112610167142e-04 
8 1  1.513768632989e-04  -1.958767014444e-04   2.141184051122e-04 
8
Step 49000
1 1  2.866292399684e-04   2.003391476889e-04   7.714808327985e-05 
2 1 -2.623426005773e-04   1.015365956349e-04  -7.611167634300e-05 
3 1  3.650380753024e-04   2.604637296357e-04  -4.384820946300e-04 
4 1  4.623115241162e-04  -6.041569199786e-04   4.292712894719e-04 
5 1 -1.021571825022e-04   2.740480993278e-04  -3.814372704669e-04 
6 1  3.131091281954e-04   5.005815389564e-05  -3.167738499906e-04 
7 1  1.574467514787e-04  -5.894355701701e-05   4.887834186873e-04 
8 1  2.251000716230e-04  -3.695344782822e-04   3.877802508755e-04 
8
Step 50000
1 1  4.261323563536e-04  -1.374149641414e-04  -1.361974528608e-04 
2 1 -3.148557232125e-04  -5.554248887261e-05   5.411359732354e-05 
3 1  1.134337627160e-05   1.570020331126e-04  -1.883202458409e-04 
4 1  4.301794516906e-04  -3.314070335644e-04   3.428415757000e-04 
5 1  1.932211583643e-05   4.850122855691e-05  -1.176479333884e-04 
6 1  7.505984920293e-05  -1.101479730199e-04  -1.692659757641e-04 
7 1 -5.136595984778e-05  -1.778881508092e-04   2.422836960038e-04 
8 1  2.691619648488e-04  -2.284438053547e-04   9.037164498680e-05 
8
Step 51000
1 1  1.542576713009e-04  -6.788946520633e-05   3.165414983474e-05 
2 1  6.023953755852e-05   4.127787896149e-04   1.452599670640e-04 
3 1  5.971909396138e-04   4.238886779519e-05  -2.161705926318e-04 
4 1  1.017435457790e-04   3.221926222224e-05   1.647418986310e-04 
5 1 -6.232083856175e-05  -1.667663427772e-04  -3.027734060356e-04 
6 1 -1.235017555185e-04  -6.394412053858e-05  -3.684566740070e-04 
7 1  4.965948911849e-05  -4.138625546077e-04   3.110837377815e-04 
8 1  1.260649589877e-04  -1.793618137273e-04   2.122893419491e-04 
8
Step 52000
1 1 -8.884824436077e-05  -8.363644014973e-05  -2.709845586879e-04 
2 1 -1.135637842456e-04   1.525869031496e-04  -1.658030865356e-05 
3 1  5.396196481714e-04  -5.155590115970e-06  -5.526590057149e-05 
4 1  2.211146039133e-04  -6.846752595170e-06   1.035413385986e-04 
5 1  2.847922681406e-05  -1.132593147118e-04  -4.431797637961e-04 
6 1 -1.015516045366e-04  -1.968337441561e-04   2.737570744412e-04 
7 1  2.684986181534e-04  -1.236857975991e-04   4.408417546934e-04 
8 1  6.650889147076e-05  -7.065530461685e-05   2.020112817549e-05 
8
Step 53000
1 1  5.007833118699e-05   5.004037039969e-05  -1.129702976826e-04 
2 1  9.879071337500e-05   2.553667681558e-04  -1.606814691230e-04 
3 1  4.985091199174e-04  -1.715818831528e-04  -3.377288894604e-05 
4 1 -6.260452501123e-06  -1.235355997422e-04   1.509891359505e-04 
5 1  1.547483074318e-04  -2.167329280292e-04   1.173510331414e-05 
6 1  1.493593476789e-04   9.285882522615e-05   1.162213961572e-04 
7 1  2.938729925282e-04  -1.199451305289e-04  -1.407189258828e-04 
8 1 -3.712604798545e-06   1.024389366355e-04  -1.525266164223e-04 
8
Step 54000
1 1  9.913103663140e-05  -3.279505241385e-04  -2.900230771263e-04 
2 1  2.876536601891e-04   1.063331524441e-04  -2.267569075609e-04 
3 1  4.697687100373e-04  -2.132885664849e-04  -1.397456779729e-04 
4 1 -1.017377344225e-04  -7.474808839012e-05   4.532218122506e-04 
5 1  1.031928026401e-04  -7.116548258432e-05  -8.221799225631e-05 