8
Step 0
1 1  0.000000000000e+00   0.000000000000e+00   0.000000000000e+00 
2 1  0.000000000000e+00   0.000000000000e+00   0.000000000000e+00 
3 1  0.000000000000e+00   0.000000000000e+00   0.000000000000e+00 
4 1  0.000000000000e+00   0.000000000000e+00   0.000000000000e+00 
5 1  0.000000000000e+00   0.000000000000e+00   0.000000000000e+00 
6 1  0.000000000000e+00   0.000000000000e+00   0.000000000000e+00 
7 1  0.000000000000e+00   0.000000000000e+00   0.000000000000e+00 
8 1  0.000000000000e+00   0.000000000000e+00   0.000000000000e+00 
8
Step 1000
1 1 -1.885070654428e-04   1.914981283573e-04  -1.038904919667e-04 
2 1  1.626826475879e-04  -1.461290952009e-04  -1.566474380114e-04 
3 1 -2.149440172503e-04  -4.275336511799e-06   4.042297931626e-04 
4 1  2.340611965830e-04  -3.434433858651e-04   3.193655907652e-04 
5 1  1.359647562934e-05   9.988327771972e-05  -2.068988790042e-04 
6 1  9.731391596830e-05  -2.941545475963e-04  -2.130509430930e-04 
7 1 -3.711176322042e-04  -1.232446203088e-07  -2.989363135887e-04 
8 1 -2.738900915737e-04  -2.690219319979e-04  -2.705384312209e-04 
8
Step 2000
1 1  1.477972449518e-04  -1.261003596046e-04   1.238818014032e-04 
2 1 -2.392221955312e-05   6.005960709577e-05   1.037790462401e-04 
3 1  1.332802193776e-04  -5.828572202882e-04   2.638906354707e-06 
4 1 -1.478725284098e-04  -3.952255556175e-05  -2.787387131231e-04 
5 1  3.071986880304e-04  -4.700545136532e-04   1.861223263260e-04 
6 1  1.675404188946e-04  -2.381920971163e-04   2.805761216406e-04 
7 1  1.637222373310e-04  -2.489245942558e-04   5.873473736633e-05 
8 1 -2.134109911663e-04   5.622775593846e-05   6.289487947129e-05 
8
Step 3000
1 1  2.566468626378e-04  -3.042824373902e-04   1.223283991521e-04 
2 1 -1.724262472729e-04   2.065891917469e-04   2.088713701416e-04 
3 1  2.019815938860e-04  -5.031827931127e-04  -2.884972306735e-04 
4 1 -3.755758887696e-04   2.745299268317e-04  -5.103128481403e-04 
5 1  2.889793922491e-04  -4.240811289103e-04   1.929269310598e-04 
6 1  6.104301607059e-05   6.906721201159e-05   3.672018117930e-04 
7 1  3.854703114528e-04  -1.197744201014e-04   2.989304457053e-04 
8 1  2.911860891853e-05   2.120758999567e-04   2.916004149587e-04 
8
Step 4000
1 1  4.413427394324e-05  -1.806605665123e-04  -8.042815781858e-05 
2 1 -1.568572890242e-04   1.617325828568e-04   9.217976022816e-05 
3 1 -5.413673385064e-05   1.260226568084e-04  -1.890008041867e-04 
4 1 -2.151876809547e-04   2.736203743510e-04  -1.430045647266e-04 
5 1  2.137597898970e-05   1.202702090049e-04  -9.939430213289e-05 
6 1 -1.307171989529e-04   2.989059515380e-04   2.051827933892e-05 
7 1  1.241710478383e-04   1.254461125713e-04   2.186926086828e-04 
8 1  1.886089363630e-04   5.350583568467e-06   1.874798920035e-04 
8
Step 5000
1 1 -1.771183118594e-04   8.161482986200e-05  -2.046324299941e-04 
2 1  2.967069986172e-05  -4.479367076343e-05  -7.778259367648e-05 
3 1 -2.453921749495e-04   5.337104682776e-04   1.350286355309e-04 
4 1  1.513038839082e-04  -8.652922565670e-06   2.776061084897e-04 
5 1 -1.989633011621e-04   4.281064591870e-04  -1.981782874893e-04 
6 1 -1.710260857066e-04   1.652079758801e-04  -2.784871480955e-04 
7 1 -2.469572953167e-04   1.635792524103e-04  -1.150071198677e-05 
8 1  1.138583757129e-04  -2.301455922178e-04  -9.162658960611e-05 
8
Step 6000
1 1 -1.311612324987e-04   1.969583115945e-04  -8.051985412461e-05 
2 1  2.156651127112e-04  -1.871941298162e-04  -9.765696274401e-05 
3 1 -7.507737820658e-05   2.685319018927e-04   2.688894040558e-04 
4 1  3.239243333517e-04  -2.638591477171e-04   2.143792692516e-04 
5 1 -2.025220994864e-04   1.603075479242e-04   6.229753121266e-05 
6 1 -1.374577200718e-05  -1.773664232641e-04  -1.980577486197e-04 
7 1 -3.058430079602e-04   6.900575417251e-06  -1.091023576514e-04 
8 1 -8.722777901333e-05  -1.253249681350e-04  -2.173174313217e-04 
8
Step 7000
1 1  7.024484550038e-05   7.818441146851e-05   1.546621772407e-04 
2 1  1.635446476934e-04  -9.537478574394e-05   5.008539111897e-05 
3 1  2.568173419161e-04  -2.713121343409e-04   2.916041848187e-05 
4 1  1.395424798173e-04  -2.306268353653e-04  -1.262567229363e-04 
5 1 -4.564959030093e-05  -2.481845938115e-04   3.012952600799e-04 
6 1  1.209091487002e-04  -2.995015295298e-04   8.151975019269e-05 
7 1 -4.441721707613e-05  -8.217739990828e-05  -3.430300557257e-05 
8 1 -1.562186666359e-04   2.093851227477e-04  -7.356298555668e-05 
8
Step 8000
1 1  1.360724820063e-04  -9.419940983523e-05   2.287597953634e-04 
2 1 -8.297580889521e-05   1.203152307870e-04   1.804756351757e-04 
3 1  3.049585582833e-04  -3.905976469675e-04  -2.873729172819e-04 
4 1 -1.611602751922e-04   4.579274049029e-05  -1.885178086136e-04 
5 1  8.482610372679e-05  -2.400003213032e-04   1.472619897431e-04 
6 1  5.990598906448e-05  -4.247760110701e-05   1.816376131310e-04 
7 1  2.139884220723e-04  -5.451538930178e-06   2.034945966414e-05 
8 1  6.144013027901e-06   3.322932203683e-04   1.409947058775e-04 
8
Step 9000
1 1  4.308025176164e-06  -1.164992730861e-04   6.491761261480e-05 
2 1 -2.354539704283e-04   1.945769083506e-04   1.152595250384e-04 
3 1 -1.130032556205e-05   1.615864085480e-05  -2.807282749390e-04 
4 1 -2.301704016987e-04   2.750227119684e-04   1.079674394462e-04 
5 1  9.417142566715e-05   1.243074943968e-04  -2.204984490736e-04 
6 1 -7.437928992529e-05   2.772427409979e-04   2.896166663792e-05 
7 1  2.252328728489e-04   6.944910646509e-05  -6.562047343896e-05 
8 1  2.170921500825e-04   4.858256206561e-05   1.646353348775e-04 
8
Step 10000
1 1 -1.123492521559e-04   2.189513870104e-05  -1.322406212059e-04 
2 1 -1.080273018690e-04   2.228393683031e-05  -1.134406123615e-04 
3 1 -2.935399997982e-04   3.825513042466e-04   4.837827763882e-05 
4 1 -1.763904904436e-05   2.326294715084e-04   2.924829014638e-04 
5 1  3.350895986508e-05   3.227239208085e-04  -3.184939266207e-04 
6 1 -5.490591756501e-05   2.597381588603e-04  -1.188198744396e-04 
7 1  5.940643283733e-05  -1.110386381421e-05  -1.662067157900e-04 
8 1  2.140424698152e-04  -3.111529047599e-04  -2.143760757748e-05 
8
Step 11000
1 1 -4.533148577556e-05   1.530951097190e-04  -1.314990370174e-04 
2 1  1.427669634026e-04  -1.764909403541e-04  -2.817243825032e-04 
3 1 -1.934197009476e-04   2.376525907648e-04   3.086701199904e-04 
4 1  1.873764914649e-04  -2.785246074606e-05   6.286770168370e-05 
5 1 -3.687652524014e-05   3.821976904571e-05  -1.738710307509e-05 
6 1  1.042574562755e-04  -6.164849647301e-05  -7.144939793978e-05 
7 1 -6.939075388083e-05  -1.418961055303e-04  -8.796497266716e-05 
8 1 -1.060688915518e-05  -2.701285951264e-04  -1.939027604025e-04 
8
Step 12000
1 1  9.804458008768e-05   1.292627510837e-04   2.686498196162e-05 
2 1  1.758686934413e-04  -1.520577973610e-04  -1.973310043480e-04 
3 1  1.301254451552e-04  -2.027575048621e-04   2.140121940699e-04 
4 1  1.297852117735e-04  -2.449990282338e-04  -2.611706903407e-04 
5 1 -4.479923864806e-05  -3.501155197280e-04   2.855519537935e-04 
6 1  1.454047337373e-04  -2.648938932651e-04   5.990680200337e-05 
7 1 -7.665447410811e-05  -1.260160752692e-04   1.319339745293e-04 
8 1 -2.219483428572e-04   1.161662309766e-04  -1.519023311378e-04 
8
Step 13000
1 1  9.975349396732e-05  -1.271520217444e-05   9.907082929444e-05 
2 1 -5.930160604696e-05   3.666598777687e-05   8.539905145015e-05 
3 1  2.444510963705e-04  -3.654518532292e-04  -7.181988745794e-05 
4 1 -9.183920620849e-05  -2.257840491644e-04  -2.021462550881e-04 
5 1  3.126612923793e-05  -3.003498885143e-04   1.915468018050e-04 
6 1 -5.712564823278e-05  -9.099782253646e-05   6.901283039131e-05 
7 1 -4.444441483184e-05   2.111761991214e-05   2.337859780255e-04 
8 1 -2.300183578240e-04   3.248703401110e-04   5.613888687995e-05 
8
Step 14000
1 1 -3.203208269407e-05  -1.333788713690e-04  -9.956625168264e-06 
2 1 -2.322752255551e-04   1.264105625679e-04   2.780245162922e-04 
3 1  1.227236474801e-05  -6.912668179307e-05  -1.895086768177e-04 
4 1 -1.769382736882e-04  -2.413812842598e-05   1.644895031682e-04 
5 1  1.102262030316e-04   1.285946795694e-04  -1.643010497911e-04 
6 1 -2.765269788330e-04   2.183973767436e-04  -3.446702698772e-05 
7 1 -4.757639136727e-05   9.979568720649e-05   7.042691788041e-05 
8 1 -7.061572629583e-05   7.331542028364e-05   1.979974697685e-04 
8
Step 15000
1 1 -9.106816558503e-05  -1.397612153446e-04  -1.475764618804e-04 
2 1 -7.094230200128e-05   7.922362671945e-06   1.698881076934e-04 
3 1 -2.516745388240e-04   2.883152197123e-04  -4.308187818775e-05 
4 1 -2.280838339745e-05   1.480833911887e-04   3.112172202231e-04 
5 1  5.824321881269e-05   3.767557454103e-04  -2.877185668303e-04 
6 1 -1.968694151166e-04   2.372720328197e-04  -6.501023298750e-05 
7 1 -4.635066045618e-05   2.800557818846e-05  -1.716350688527e-04 
8 1  9.268271298342e-05  -3.099804171578e-04   1.126684421641e-04 
8
Step 16000
1 1 -9.145980762098e-07  -4.931024146735e-05  -9.562666661857e-05 
2 1  2.448103935164e-04  -1.202626109471e-04  -1.258023380101e-04 
3 1 -2.099344793333e-04   2.666861963683e-04   1.135889531603e-04 
4 1  1.564374436375e-04   1.504534337777e-04   1.905505308513e-06 
5 1 -1.296932915557e-04   1.567472994795e-04  -1.468277911706e-05 
6 1  1.530242843172e-04  -8.693816903871e-05   4.373524552488e-05 
7 1  1.350800121828e-05  -3.575046155561e-05  -1.787394527039e-04 
8 1  1.429124456381e-04  -3.225073408242e-04  -9.173154989762e-05 
8
Step 17000
1 1  7.820792119124e-05   4.052018996461e-05   1.287653009914e-04 
2 1  2.977565687091e-04  -3.533542120022e-05  -2.699757391023e-04 
3 1  6.724606207634e-05  -6.716523127786e-05   4.904363455377e-05 
4 1  1.227020722671e-04   3.716128178464e-05  -3.680921365949e-04 
5 1 -2.611426401639e-04  -1.903717735281e-04   2.727879677011e-04 
6 1  3.811073555624e-04  -3.572645833262e-04   1.365865283326e-04 
7 1  8.140528179497e-05   5.219144453913e-05   7.935766807831e-05 
8 1  8.857262463261e-05   6.150093539386e-05  -1.581314840817e-04 
8
Step 18000
1 1 -3.608215991766e-06   6.033758413146e-05   2.479929957754e-04 
2 1 -8.446298584163e-06   1.746297586647e-04  -8.958842046201e-05 
3 1  2.289207889239e-04  -2.850856371607e-04  -1.389931039872e-04 
4 1 -7.916690193355e-05  -4.861442245167e-05  -2.863471068132e-04 
5 1 -1.354346334007e-04  -2.113528277978e-04   1.869973278421e-04 
6 1  2.043176031206e-04  -2.310601610494e-04   6.616362383322e-05 
7 1  6.361995860097e-05   1.773716086518e-04   2.745718406778e-04 
8 1  1.312103767211e-05   3.799687104883e-04  -8.422285712637e-06 
8
Step 19000
1 1 -1.440945739109e-04   2.871194134092e-05   7.428399479231e-05 
2 1 -3.061753072065e-04   2.106131724651e-04   2.034778284117e-04 
3 1  1.200743195003e-04  -1.659214634320e-04  -1.756996935271e-04 
4 1 -1.837501025498e-04  -3.237420973326e-05   1.504633686173e-04 
5 1  1.802540337420e-04   3.896055404210e-05  -1.281509203259e-04 
6 1 -1.841386384844e-04   1.480018596298e-04  -9.509626162211e-05 
7 1 -3.384762266708e-05   1.154941660797e-04   1.229372509929e-04 
8 1 -2.316245924221e-05   2.723986551984e-04   1.578692432468e-04 
8
Step 20000
1 1 -1.231288088279e-04   7.324142372467e-06  -2.051016421636e-04 
2 1 -2.327450873953e-04  -1.496915544493e-05   2.690606314998e-04 
3 1 -6.190558130667e-05   7.337333098095e-05   1.440856030272e-05 
4 1 -5.758245941039e-05   2.050329559703e-05   3.538786670547e-04 
5 1  3.669036929804e-04   1.505577842515e-04  -2.280041580101e-04 
6 1 -3.402562257460e-04   3.328909709097e-04  -1.562140766847e-04 
7 1 -9.294585504249e-05  -1.177945720307e-04  -2.290396841831e-04 
8 1 -2.366072314344e-05  -9.240470474120e-05   1.015496658255e-04 
8
Step 21000
1 1  7.818595023827e-05   5.642766132153e-06  -2.509178649569e-04 
2 1  8.272256324880e-05  -2.338321607723e-04   5.037992983349e-05 
3 1 -7.047753391176e-05   1.523463022988e-04   2.044940465910e-04 
4 1  1.227562242317e-04   1.671138836251e-05   6.279002589302e-05 
5 1  2.075319614919e-04  -2.458532434200e-05   4.280706319179e-07 
6 1 -1.189766450638e-04   1.333159204803e-04  -6.631553348283e-05 
7 1 -3.410688531495e-05  -2.483464569399e-04  -3.575499066553e-04 
8 1 -2.119719648021e-05  -2.712903340101e-04  -1.175935950876e-04 
8
Step 22000
1 1  2.106508430863e-04   2.095763487499e-05  -1.487281891529e-05 
2 1  2.182179499989e-04  -1.774182332429e-04  -1.720568901337e-04 
3 1  5.576837415816e-05   7.751919086171e-05   1.692290008966e-04 
4 1  1.287166546025e-04  -5.088610374040e-05  -3.015296767554e-04 
5 1 -1.518745886351e-04  -2.152717839105e-04   2.198881055907e-04 
6 1  1.786090547484e-04  -1.788956132794e-04   4.225653378125e-05 
7 1  7.758081075030e-05  -1.037414470142e-04  -8.351521473931e-05 
8 1 -1.645392750272e-05  -9.732552457565e-05  -2.126877400709e-04 
8
Step 23000
1 1  8.855614436305e-05   2.967682414042e-05   2.083240904769e-04 
2 1  2.845592888920e-05   6.451280031321e-05  -1.442343548308e-04 
3 1  9.682765649609e-05   2.438751921207e-05  -3.762511618043e-05 
4 1 -3.130056488236e-05  -8.240473940847e-05  -2.133970229922e-04 
5 1 -3.365228292681e-04  -1.069638018031e-04   1.173301002348e-04 
6 1  2.061325631610e-04  -2.309026510330e-04   5.603951461703e-05 
7 1  1.149228795913e-04   1.394560372179e-04   2.896379459186e-04 
8 1  4.277289296177e-06   1.351012260395e-04  -4.262536429867e-05 
8
Step 24000
1 1 -1.293761485431e-04   1.694164127744e-05   1.450217884906e-04 
2 1 -1.866779210944e-04   1.733198245977e-04   4.764014095470e-05 
3 1 -1.441938896251e-05   1.380466405978e-05  -1.531634448791e-04 
4 1 -1.253504594660e-04  -1.207275197947e-05   2.240928513807e-04 
5 1 -1.695856581272e-04   2.005908425809e-04  -1.737519460059e-04 
6 1 -1.324036400357e-05   1.500457895118e-05   1.983489877495e-05 
7 1  3.924582360118e-05   1.697033416295e-04   3.257478336522e-04 
8 1  2.273667461063e-06   1.139336044838e-04   2.017953236672e-04 
8
Step 25000
1 1 -1.500484535993e-04   4.767289849220e-06  -9.999229821511e-05 
2 1 -1.007069722192e-04  -1.844610516369e-07   1.209440731572e-04 
3 1 -1.399323008393e-04  -3.096205515886e-05  -8.480248476717e-05 
4 1 -7.928909369211e-06   6.551779523917e-05   4.350152151174e-04 
5 1  1.271255168008e-04   3.062247968264e-04  -2.586190624357e-04 
6 1 -1.789449936454e-04   2.506713823721e-04   2.785049304326e-05 
7 1 -6.994425146156e-05  -4.582473094989e-05  -1.647375379265e-05 
8 1 -3.674594890153e-05  -7.898999155158e-05   2.188851920865e-04 
8
Step 26000
1 1  5.495344605517e-05  -1.398812092926e-05  -1.764121126868e-04 
2 1  1.684818767407e-04  -1.898434376688e-04  -3.593576573132e-05 
3 1 -1.098249413473e-04  -1.352711586170e-04   3.290517061511e-05 
4 1  1.494197274088e-04   7.782983851068e-05   1.251517174532e-04 
5 1  2.149370572030e-04   4.640312699525e-05  -2.385134284078e-05 
6 1 -1.053135040094e-04   2.033658720919e-04   5.492318296172e-05 
7 1 -1.159681075595e-04  -2.104257508936e-04  -3.231079993288e-04 
8 1 -6.493785754608e-05  -1.424547508501e-04  -6.219138459953e-06 
8
Step 27000
1 1  2.061060647750e-04  -4.950767999798e-05   4.356968971440e-05 
2 1  2.313710272015e-04  -8.782235523969e-05  -2.204465652201e-04 
3 1  2.433166740947e-05  -1.626917997695e-04   8.627990189846e-05 
4 1  1.070977881302e-04   3.061553310472e-05  -3.216167468882e-04 
5 1  2.950790064292e-05  -2.573761300735e-04   2.252863745238e-04 
6 1  8.348025992242e-05  -6.677701672978e-05   8.529302429421e-06 
7 1 -7.560536301593e-05  -9.156532712316e-05  -2.191328777141e-04 
8 1 -1.325660235539e-05   1.642640980222e-05  -2.106387711495e-04 
8
Step 28000
1 1  7.231064915414e-05  -8.732979522108e-05   2.834919908391e-04 
2 1 -1.817626349598e-05   2.088948603034e-04  -1.644109164777e-04 
3 1  5.815798369120e-05   2.872025504867e-05   6.416543940516e-05 
4 1 -8.324134883833e-05  -6.918662674589e-06  -3.609836620699e-04 
5 1 -1.399003606036e-04  -2.312527132751e-04   1.846199567659e-04 
6 1  1.654718403255e-04  -2.563954150435e-04  -8.958384336486e-05 
7 1  1.100296249216e-05   1.577641412284e-04   1.599637130559e-04 
8 1  9.617397788538e-05   1.443166235920e-04  -1.633623022129e-04 
8
Step 29000
1 1 -1.968955122470e-04  -7.393111258365e-05   1.977941366084e-04 
2 1 -2.398252980650e-04   3.039368754764e-04   8.107943920673e-05 
3 1 -4.078437068685e-05   2.848925851073e-04  -4.798020164756e-06 
4 1 -1.659830022495e-04  -1.812714158022e-05   3.379634943671e-07 
5 1 -4.449989309365e-05   5.928929285650e-05  -3.515926148850e-05 
6 1  9.124902280995e-05  -1.720762011416e-04  -9.437100035831e-05 
7 1  9.284272413554e-05   2.126240796394e-04   3.335887196610e-04 
8 1  1.407231235237e-04   5.091708376449e-05   4.308217361202e-05 
8
Step 30000
1 1 -2.502193791610e-04   2.391186359386e-05  -1.836075025352e-04 
2 1 -1.246928677343e-04   3.311268861323e-05   2.380712963162e-04 
3 1 -7.247049618037e-05   2.640647232234e-04  -8.780463605358e-05 
4 1 -4.888797242843e-05  -2.946302392967e-05   2.237581742069e-04 
5 1  1.764324793260e-04   2.119455520788e-04  -1.112416825551e-04 
6 1 -2.502867014322e-05   6.473066170516e-05   3.964014363873e-05 
7 1  1.213674284108e-04   1.955561827925e-05   8.337807921892e-05 
8 1  3.089210844444e-05  -1.157826209486e-04   1.335819542857e-04 
8
Step 31000
1 1 -1.791617877500e-05   1.392729535997e-04  -4.360622636640e-04 
2 1  1.677562659874e-04  -2.891480463989e-04   1.575671431006e-04 
3 1  6.741697806262e-05  -6.848489194555e-05  -1.182335326632e-04 
4 1  7.854486818783e-05  -8.490139561971e-05   2.472136431882e-05 
5 1  1.732604347490e-04   3.191766182990e-05   4.562367140264e-06 
6 1 -1.020847839620e-04   1.779270237338e-04   1.487910198024e-04 
7 1  5.729540735009e-05  -1.411352762938e-04  -2.640121151398e-04 
8 1 -1.246414123917e-04  -9.714514650851e-05   1.878075856631e-05 
8
Step 32000
1 1  1.905948116584e-04   1.561857290077e-04  -2.620503611311e-04 
2 1  2.019672784575e-04  -2.856507272490e-04  -5.293288562473e-07 
3 1  2.209911106144e-04  -3.576558153174e-04  -4.075710574809e-05 
4 1  4.445832728453e-05  -1.290000289418e-04  -2.451343414200e-04 
5 1 -1.212080043586e-04  -2.064819843052e-04   7.825180419491e-05 
6 1 -1.424731157094e-04   4.848888083665e-05   7.489631895511e-05 
7 1 -8.274731963001e-05  -5.568906925318e-05  -2.630290396022e-04 
8 1 -1.240146515108e-04   7.578737479751e-05  -9.576850731933e-05 
8
Step 33000
1 1  1.282361185643e-04   2.205226572522e-05   1.551699205774e-04 
2 1 -9.862424519264e-05   1.572711027627e-05  -6.538270110750e-06 
3 1  1.531087580674e-04  -2.781891650862e-04   1.028087128457e-04 
4 1 -4.109017261515e-05  -5.762483904522e-05  -1.388953110581e-04 
5 1 -3.576314692274e-04  -1.584427155217e-04  -2.698515952612e-05 
6 1 -1.280660751688e-04  -1.601023087022e-04  -1.062724516521e-04 
7 1 -1.852578965699e-04   1.266440640971e-04   6.921202685294e-05 
8 1  3.513656019306e-05   1.313777176238e-04  -1.801268494138e-05 
8
Step 34000
1 1 -6.758092101170e-05  -1.642029355652e-04   3.843432817954e-04 
2 1 -3.004326156691e-04   2.327115508267e-04   7.524181910901e-05 
3 1 -1.124202078062e-04   8.136552924804e-05   1.736727616151e-04 
4 1 -5.151883486084e-06   1.272506815529e-04   2.588975984607e-04 
5 1 -2.077938917708e-04   1.430962963808e-04  -1.796994003640e-04 
6 1 -1.473191431264e-06  -1.922663905621e-04  -1.625448929329e-04 
7 1 -1.209471739112e-04   1.110696307782e-04   2.841026859639e-04 
8 1  1.373403163091e-04  -3.150965471147e-05   1.566212088140e-04 
8
Step 35000
1 1 -9.863407336355e-05  -1.926223021757e-04   2.296979867576e-04 
2 1 -8.264014694603e-05   1.146892183547e-04  -3.862778535167e-06 
3 1 -2.698325052560e-04   3.104552184183e-04   7.515461177084e-05 
4 1  8.711544967995e-05   2.727460918423e-04   4.203963320160e-04 
5 1  1.993129289583e-04   3.044991215606e-04  -1.301258014084e-04 
6 1  1.947080124130e-04   1.613920042401e-05  -2.438808479871e-05 
7 1  8.651035619505e-05  -1.186073302258e-04   1.000017575040e-04 
8 1  2.957011532367e-05  -1.575458496107e-04   1.609399138220e-04 
8
Step 36000
1 1  7.215971997616e-05  -2.815679392425e-05  -6.878387792136e-05 
2 1  2.819838943553e-04  -1.046876857893e-04  -2.434351247758e-04 
3 1 -1.113551239275e-04   1.669063133314e-04  -1.037115546531e-04 
4 1  4.412301244497e-05   2.232221113349e-04   1.031594806029e-04 
5 1  4.158744916851e-04   9.380128467035e-05   1.067922839736e-04 
6 1  2.666407680598e-04   2.706066798329e-04   1.164344677993e-04 
7 1  2.366459447163e-04  -2.664140708322e-04  -2.188617960596e-04 
8 1 -1.715838602720e-04  -1.569871791019e-05  -5.522891342474e-05 
8
Step 37000
1 1  1.796439404684e-04   1.500082826754e-04  -1.490163658349e-04 
2 1  2.967283483194e-04  -8.187885974790e-05  -3.307579200698e-04 
3 1  1.686725544489e-04  -1.350188495662e-04  -1.656738213294e-04 
4 1 -1.299586888723e-04  -1.437981820788e-05  -3.091583684526e-04 
5 1  2.134339993650e-04  -2.274183902352e-04   2.378989039977e-04 
6 1  9.458246388160e-05   3.085849868403e-04   7.725308950468e-05 
7 1  1.588222591194e-04  -1.222346525696e-04  -2.227316281659e-04 
8 1 -1.956123548553e-04   2.183800357276e-04  -2.315541038701e-04 
8
Step 38000
1 1  4.645125019345e-05   1.534779725787e-04   2.089978100066e-05 
2 1 -6.802956864986e-05   1.258492264935e-04  -7.791038394220e-05 
3 1  1.980051675801e-04  -2.030637234017e-04  -3.857014503835e-05 
4 1 -1.719729059706e-04  -2.589744881471e-04  -3.170610995127e-04 
5 1 -1.449616217574e-04  -2.528533597235e-04   9.478046123411e-05 
6 1 -1.799704886605e-04   8.364238421799e-05  -6.375410026056e-05 
7 1 -7.647024581393e-05   1.578530409632e-04   1.077767952760e-04 
8 1  3.393533704455e-05   1.901086445695e-04  -1.452024895832e-04 
8
Step 39000
1 1 -1.583675465939e-04   1.663850848854e-06   1.438903513293e-04 
2 1 -3.348012925395e-04   1.774728805578e-04   2.505429091372e-04 
3 1 -7.599977793146e-05   3.033604350869e-05   1.211641804205e-04 
4 1  7.514436519139e-05  -3.125927732072e-04   3.966241091138e-05 
5 1 -2.609232146981e-04   4.398376130285e-05  -1.395689316466e-04 
6 1 -2.696394449422e-04  -1.880500041171e-04  -9.243925171019e-05 
7 1 -2.141431739644e-04   2.517339565233e-04   3.235393815813e-04 
8 1  2.708156474947e-04  -1.235275239290e-04   8.004234123713e-05 
8
Step 40000
1 1 -1.603110761505e-04  -1.083773694481e-04   5.869543313586e-06 
2 1 -1.654769602363e-04  -4.677797666064e-05   2.797765658546e-04 
3 1 -2.996363609690e-04   2.465815544563e-04   1.094242554937e-04 
4 1  3.464842882101e-04  -1.394009589528e-04   2.658618233167e-04 
5 1 -9.368986668877e-05   2.706151556098e-04  -1.792523645346e-04 
6 1 -9.125923534642e-05  -2.521109736823e-04   3.068617874477e-05 
7 1 -1.129438777120e-04   7.370304404420e-05   1.076874449638e-04 
8 1  2.422584864884e-04  -3.373085707141e-04   1.385452885723e-04 
8
Step 41000
1 1  3.718751917648e-05  -5.872370622583e-05  -2.367850828485e-04 
2 1  1.829387158602e-04  -2.372443187140e-04   2.290080837075e-05 
3 1 -1.695380158154e-04   1.557701141283e-04  -5.537087300852e-05 
4 1  2.534167553705e-04   1.120305026000e-04   1.018456316488e-04 
5 1  6.078898096251e-05   1.393669830382e-04  -9.939577080642e-06 
6 1  1.362999335865e-04  -1.122852713418e-04   1.154166038821e-04 
7 1  8.721377034484e-05  -1.435316643814e-04  -2.801727407445e-04 
8 1 -1.609475561376e-05  -1.595940070685e-04  -1.775591518051e-05 
8
Step 42000
1 1  1.474141596372e-04   5.996685520000e-05  -2.656997637217e-04 
2 1  2.503610709929e-04  -1.059620246616e-04  -1.485194672376e-04 
3 1  1.880018966903e-04  -1.333268711168e-04  -1.660215621581e-04 
4 1 -1.763877141260e-04   2.384039979145e-04  -1.763344399788e-04 
5 1  1.575513448493e-05  -1.750999959480e-04   1.350421590742e-04 
6 1  1.676773795539e-04   2.862579682799e-05   4.118277032229e-05 
7 1  1.443902533477e-04  -1.593148309932e-04  -3.386570622874e-04 
8 1 -2.121744560882e-04   1.846567435419e-04  -1.320956255978e-04 
8
Step 43000
1 1  1.346141030841e-05   8.575050383948e-05  -3.401840305011e-05 
2 1  1.789529887052e-06   1.677881437022e-04  -3.496149038002e-05 
3 1  3.658878767658e-04  -2.713370131461e-04  -6.940991747888e-05 
4 1 -4.650687462234e-04   1.540110370358e-04  -1.984601173925e-04 
5 1 -9.194079371080e-05  -2.826042234865e-04   1.084913506871e-04 
6 1  1.036030397721e-05   2.592114777945e-05  -6.998150579090e-05 
7 1  9.908981561756e-06   8.061529638703e-06   1.636006375886e-05 
8 1 -1.557127991205e-04   2.570708654576e-04  -1.186363126498e-05 
8
Step 44000
1 1 -1.700979699630e-04  -7.813428269346e-06   1.943758365107e-04 
2 1 -1.849066350504e-04   1.752177241804e-04   1.363739068661e-04 
3 1  1.673747971046e-04  -1.263470009950e-04   1.319286567592e-04 
4 1 -2.694428245185e-04  -3.365058843157e-05  -3.938073963760e-06 
5 1 -5.090532802313e-05  -6.875538787964e-05   1.718856150800e-06 
6 1 -1.166181260001e-04  -3.175543266396e-05  -3.903244461676e-05 
7 1 -1.294995802761e-04   1.516604171462e-04   3.452020647779e-04 
8 1  2.295074461048e-05  -3.683037434089e-06   1.807157031089e-04 
8
Step 45000
1 1 -1.359141931393e-04  -8.847202815378e-05   1.880636026017e-04 
2 1 -7.624775936049e-05  -1.173865249731e-04   7.229322939925e-05 
3 1 -1.744268178331e-04   9.054254450631e-05   2.070141820520e-04 
4 1  1.768220398569e-04  -1.413840732384e-04   9.267521623833e-05 
5 1  1.015828441259e-04   1.915267498230e-04  -3.814471402356e-05 
6 1 -7.926889361556e-05   5.561290007395e-06   8.044074092284e-05 
7 1 -9.871850466563e-05   1.369897161612e-04   2.583853154662e-04 
8 1  7.768877650105e-05  -2.211499371325e-04   1.552817141598e-04 
8
Step 46000
1 1  8.321060197272e-05  -6.200869977089e-05   2.167303938366e-05 
2 1  1.262024214256e-04  -3.111954507606e-04  -1.459968439909e-04 
3 1 -2.781363444019e-04   1.460257800812e-04   7.052157300366e-05 
4 1  3.465317963106e-04  -7.694378944137e-05  -3.649055412758e-06 
5 1  1.519091847110e-04   1.996766636671e-04  -2.424081324681e-05 
6 1  3.382331876149e-05   1.089947609176e-04   7.230971759973e-05 
7 1  5.839891299653e-05   7.916439180207e-06  -1.023657920532e-04 
8 1 -4.238439768912e-05  -8.608597497486e-05  -8.082278706006e-05 
8
Step 47000
1 1  2.059830450741e-04   1.679626076461e-05  -5.890818924543e-05 
2 1  1.067492321488e-04  -9.796889400257e-05  -1.873257647721e-04 
3 1 -6.233503660575e-05   5.068206722620e-05  -1.368204262590e-04 
4 1  8.671676528437e-05   7.081903830117e-05  -7.032287023341e-05 
5 1  4.079503552695e-05  -1.077330195373e-05  -5.108777642256e-05 
6 1  7.501394926082e-05   1.193112425669e-04  -9.960369052156e-05 
7 1  1.513455558832e-04  -1.155559644683e-04  -2.837088121712e-04 
8 1 -1.331367065824e-04   2.150655274049e-04  -2.068281260702e-04 
8
Step 48000
1 1  9.628298623964e-05   4.151982217372e-05   9.064490928605e-06 
2 1 -1.022758189138e-04   3.075740647660e-04   4.645632455138e-05 
3 1  1.746283646212e-04  -2.697636597309e-05  -2.106870389854e-04 
4 1 -2.042050000871e-04   1.354959311813e-04   5.757095195015e-05 
5 1 -6.730281344617e-05  -1.604579527302e-04  -9.347031741758e-05 
6 1  3.059646762054e-05  -2.092257803005e-05  -2.022710781146e-04 
7 1  7.848230705623e-05  -1.512271975068e-04  -1.068567155743e-04 
8 1 -1.448304277044e-05   2.643783196301e-04  -4.226553082497e-05 
8
Step 49000
1 1 -8.974200305352e-05  -1.332950568528e-05   6.957634315841e-05 
2 1 -1.777240130890e-04   4.107133832761e-04   2.439759441356e-04 
3 1  1.462231454766e-04   5.980303094771e-06  -9.162391529028e-05 
4 1 -1.305252562944e-04   4.434566807881e-05   1.882788434401e-04 
5 1 -3.481793116691e-05  -8.112219268592e-05  -4.597964446760e-05 
6 1  1.074208778693e-08  -1.488387809061e-04  -4.663995620367e-05 
7 1 -6.653756349258e-05  -7.714429490116e-05   1.560585682028e-04 
8 1  2.072436985665e-04  -2.474776595078e-05   1.945223696530e-04 
8
Step 50000
1 1 -1.318795220832e-04  -3.880379782596e-05  -7.910275871086e-06 
2 1  2.292385727239e-05   5.373416501767e-05   9.712637468367e-05 
3 1 -8.119540938411e-05   6.685123733797e-05   8.091404993662e-05 
4 1  1.833511974932e-04  -1.367242948125e-04   8.796002562437e-05 
5 1  4.059226544104e-05   1.011221229480e-04   8.409827000501e-05 
6 1  1.895091751200e-05  -7.925533355913e-05   2.083369415703e-04 
7 1 -1.324938449158e-04   7.502399552391e-05   1.563840308377e-04 
8 1  2.551786870335e-04  -2.961299529173e-04   1.699583094366e-04 
8
Step 51000
1 1 -1.326161576482e-05   4.137018978567e-05  -1.496402610571e-04 
2 1  2.263672244951e-04  -3.563046274928e-04  -2.290290948291e-04 
3 1 -2.153452583377e-04   6.700815157619e-06   1.420913329701e-04 
4 1  2.923613283077e-04  -2.193547704743e-04  -1.126537170776e-04 
5 1 -1.254927275673e-05   1.476099319863e-04   1.368119963841e-04 
6 1  1.110658303356e-05   1.252405164489e-04   2.240287099603e-04 
7 1 -6.297852755023e-05   1.724344035626e-04  -6.891387903197e-05 
8 1  1.151490452466e-05  -2.125363778469e-04  -1.389040272592e-04 
8
Step 52000
1 1  7.221926325952e-05   1.287247811234e-04  -1.333478081578e-04 
2 1  1.208228886442e-04  -3.456755474500e-04  -2.881755833672e-04 
3 1 -7.399453597977e-05  -1.545520513573e-04   7.181786420122e-05 
4 1  8.401274182913e-06  -7.380779715977e-05  -1.251207156697e-04 
5 1 -1.530191985590e-04  -9.793290550664e-06   2.383280576678e-05 
6 1 -6.714721772668e-05   2.036196270624e-04  -5.239652230860e-05 
7 1  4.858904670392e-05   8.676412905078e-05  -1.811020008614e-04 
8 1 -2.789655061736e-04   1.003850310210e-04  -3.516433304736e-04 
8
Step 53000
1 1  8.580546730202e-06   8.353969351034e-05   8.093997416378e-05 
2 1 -1.852410741160e-04   2.392625822953e-05   5.193131061852e-05 
3 1  1.906717612080e-04  -1.917890733563e-04  -1.346949376803e-05 
4 1 -3.451598852380e-04   1.785746612818e-04   5.342494901152e-05 
5 1 -1.577776349880e-04  -1.756618860063e-04  -1.057582171252e-04 
6 1 -1.254248990556e-04   2.813920028403e-05  -2.749762286164e-04 
7 1  8.494569880684e-05  -1.288916894302e-04  -1.826341150218e-05 
8 1 -2.697280858650e-04   2.185251361669e-04  -1.540535143192e-04 
8
Step 54000
1 1 -7.128218587319e-05  -8.543531627082e-05   2.320148023895e-04 
2 1 -2.728774360437e-04   2.602152880779e-04   3.700079842280e-04 
3 1  2.424422490329e-04   1.383296156681e-05  -2.015365609102e-05 
4 1 -3.139061924277e-04   2.849902053204e-04   1.390471665513e-04 
5 1  4.914085271741e-05  -1.235179148954e-04  -6.325626516725e-05 