8
Step 0
1 1  0.000000000000e+00   0.000000000000e+00   0.000000000000e+00 
2 1  0.000000000000e+00   0.000000000000e+00   0.000000000000e+00 
3 1  0.000000000000e+00   0.000000000000e+00   0.000000000000e+00 
4 1  0.000000000000e+00   0.000000000000e+00   0.000000000000e+00 
5 1  0.000000000000e+00   0.000000000000e+00   0.000000000000e+00 
6 1  0.000000000000e+00   0.000000000000e+00   0.000000000000e+00 
7 1  0.000000000000e+00   0.000000000000e+00   0.000000000000e+00 
8 1  0.000000000000e+00   0.000000000000e+00   0.000000000000e+00 
8
Step 1000
1 1  5.494868553916e-06  -3.219905419062e-06   6.042568536090e-05 
2 1  5.315933368037e-06   4.678994417770e-06  -3.619297872251e-06 
3 1 -3.249888030789e-06   5.419624482739e-05   5.051265495272e-06 
4 1 -1.231291644226e-05   6.287997280354e-06   2.765331105495e-05 
5 1 -7.406261444200e-05   4.360750605446e-05  -2.349921306435e-05 
6 1  4.420329386820e-05  -2.919732271827e-06  -5.643549315976e-05 
7 1  5.745816975805e-06   1.078805272888e-05  -7.687909210353e-06 
8 1  6.040797847988e-05   1.030139814183e-05   1.292747152314e-07 
8
Step 2000
1 1  2.499958244815e-05   3.210670243018e-05  -1.288286574758e-05 
2 1  4.629170886228e-06  -2.702139361446e-05   4.685027358435e-05 
3 1  4.551673781583e-05  -2.951723524605e-05   7.614165587381e-05 
4 1  2.555876112822e-05  -3.862363445549e-05  -4.297047267224e-05 
5 1  5.503381811898e-06  -5.082162494115e-05   1.853820581443e-05 
6 1 -1.975389869260e-05   7.012313825974e-05   1.238379057631e-05 
7 1  6.506424581830e-05  -3.873148497646e-05  -5.646029125189e-05 
8 1 -1.443908032496e-05   4.391760407290e-05  -1.520874401075e-05 
8
Step 3000
1 1  4.323958505141e-05   8.540426971422e-07  -6.575156947082e-05 
2 1  2.220058922225e-05  -3.962374538715e-05   2.386584283605e-05 
3 1  7.413795298666e-06  -6.963980617017e-05   3.479010880333e-05 
4 1  1.154056077445e-05  -3.112545910968e-05  -4.717145041470e-05 
5 1  7.946358603127e-05  -8.373109171094e-05  -3.932467072284e-06 
6 1 -2.266563786282e-05   6.064724364126e-05   4.183795457458e-05 
7 1  3.828573557337e-05   1.579986775442e-05  -2.480006973456e-05 
8 1 -5.652923739941e-05   5.803736589414e-05  -7.242319008482e-06 
8
Step 4000
1 1  1.947684409817e-05  -3.132016348507e-05  -3.272140883296e-05 
2 1  3.912900978776e-05  -2.685638591574e-05  -2.201647646012e-05 
3 1 -2.046184229019e-05  -5.342897308927e-05  -3.933810325006e-05 
4 1  1.845838425995e-05  -1.268642321506e-05   3.356196750574e-05 
5 1  7.597322489519e-05  -1.170901579326e-05  -1.416637298291e-05 
6 1  1.641679682103e-05  -3.998349514339e-06   3.916009785702e-06 
7 1 -4.076049267075e-05   5.040908556546e-05   1.705655332521e-05 
8 1 -4.635666540585e-05  -2.048531007999e-05   9.840259452114e-07 
8
Step 5000
1 1 -3.359132289724e-05  -9.242579291540e-06   2.554237957461e-05 
2 1  1.014066151735e-05   5.296135529908e-06  -2.724039288755e-05 
3 1  1.752322613352e-05  -9.450233419569e-06  -4.424515695770e-05 
4 1  4.937985898318e-05  -2.205941915092e-05   6.790166642173e-05 
5 1 -6.493993510514e-06   6.976323735645e-05   2.929328591166e-05 
6 1  2.530896738560e-05  -5.741828152546e-05  -2.336992937855e-05 
7 1 -7.080919121227e-05  -4.941840967558e-06   1.970408849878e-05 
8 1  1.241405650876e-07  -9.997175990843e-05  -5.534156218435e-06 
8
Step 6000
1 1 -4.259705258838e-05   1.451362285750e-05   1.897051891807e-05 
2 1 -4.888152848027e-05   2.535559081734e-05  -1.333296579703e-05 
3 1  3.592793845917e-05   3.688705989090e-05  -5.858752860893e-07 
4 1  1.488402594573e-05  -9.394102366742e-06  -2.025436797545e-05 
5 1 -6.796796006721e-05   4.706939180972e-05   4.576536109676e-05 
6 1 -9.262311762524e-06  -4.739965424062e-05   3.019991451160e-06 
7 1 -1.854608283372e-05  -5.741593338390e-05   1.257039434698e-05 
8 1  3.357042635452e-05  -3.846290153919e-05   1.085977489215e-06 
8
Step 7000
1 1 -2.895603177806e-06  -5.477662149031e-06   1.715261552167e-06 
2 1 -5.296901666524e-05   2.401806221900e-05  -1.018824279414e-05 
3 1 -1.821094996589e-05   6.580150469317e-05   1.291199237651e-05 
4 1 -6.905953184917e-05   5.666388914809e-05  -6.915390463957e-05 
5 1 -4.633224570471e-05  -2.470616111128e-05  -1.388936850267e-05 
6 1 -2.892918552700e-05  -5.749655157221e-07   1.606314960776e-05 
7 1  3.485438605657e-05  -3.731111978451e-05   1.609074328833e-05 
8 1  3.080116788632e-05   6.239465299991e-05   2.462953877704e-05 
8
Step 8000
1 1  1.452612304252e-05  -9.101572862684e-06   2.563299620043e-05 
2 1  6.849989445086e-06   1.548382069190e-05   9.807685891509e-06 
3 1 -5.748943142338e-05   4.751131188554e-05   4.172924333797e-06 
4 1 -8.034697346433e-05   8.362270200542e-05   6.839465057365e-06 
5 1  1.764051100316e-08  -4.428325842920e-05  -6.258594234579e-05 
6 1 -1.612954380691e-05   3.162894848170e-05  -8.269635400934e-06 
7 1  4.349863460392e-05   1.867856563011e-06  -1.174668446703e-07 
8 1  1.266038563310e-05   5.034273528283e-05   2.175919354332e-05 
8
Step 9000
1 1 -3.376233740212e-06   3.049714230998e-05   2.432281180728e-05 
2 1  5.719067219063e-05   1.786290492859e-06   4.328287184086e-05 
3 1 -2.893380453290e-05  -1.988316325952e-05   2.715476539563e-06 
4 1  9.388899532967e-06   9.959302660176e-07   7.689242612709e-05 
5 1  1.419381170994e-05  -2.439022577311e-06  -3.393382197688e-05 
6 1  6.077135195160e-06   3.358032283553e-05  -2.039029169145e-05 
7 1  2.334562836500e-05   3.614046240175e-05  -3.103747835034e-05 
8 1 -1.090396248789e-05  -2.204405065649e-05  -1.711909395153e-05 
8
Step 10000
1 1  2.782609326825e-07   4.655784470636e-05  -4.705808618309e-05 
2 1  2.845971799259e-05  -2.343530230519e-05   3.856581990960e-05 
3 1  3.251725530206e-05  -7.830430320042e-05   1.384079827624e-05 
4 1  9.798015105818e-05  -1.216845180080e-04   1.551254604883e-06 
5 1  1.133906001109e-05   4.880931066503e-05   4.820902182652e-05 
6 1  2.713355757676e-05   8.910182521491e-06   2.300517535218e-06 
7 1 -1.261602800496e-05   7.103770284091e-05  -2.954808342466e-05 
8 1 -3.466882573803e-05  -2.310112078399e-05  -4.473318396556e-05 
8
Step 11000
1 1  4.398308083678e-05  -2.111961845309e-05  -6.381447827130e-05 
2 1 -3.885682519833e-05  -3.381739994899e-05  -2.515303303920e-05 
3 1  5.502945797202e-05  -4.722150873642e-05   2.446920557535e-05 
4 1  5.366629505725e-05  -8.824988998543e-05  -9.270579005606e-05 
5 1  3.536279672460e-05   3.082197604079e-05   7.067794805088e-05 
6 1  3.190059526329e-05  -1.673732409711e-05   8.371166829497e-06 
7 1 -4.490550253708e-05   4.095704488751e-05   1.318655944735e-05 
8 1 -2.457248913906e-05   3.068553953658e-05  -1.377572915821e-05 
8
Step 12000
1 1  2.547921679333e-05  -5.495920258352e-05   1.935674503141e-05 
2 1 -2.063305487404e-05  -1.312548098957e-05  -5.592870477539e-05 
3 1  4.137731047739e-05  -2.350389112857e-06   2.256026711553e-06 
4 1 -1.362220346643e-05   3.041882821330e-05  -5.632463366572e-06 
5 1  4.700706136255e-05  -2.488918269077e-05   1.249614962047e-05 
6 1  9.147383534706e-06  -1.304439848310e-05  -7.766511043111e-06 
7 1 -4.226725561122e-05  -4.650421105892e-05   2.123157158760e-05 
8 1  1.015754838736e-05  -4.036886540519e-06   1.587222659787e-05 
8
Step 13000
1 1 -3.779470739963e-05  -1.823142054608e-05   4.679262445043e-05 
2 1  2.294731930975e-05   9.782887357681e-06  -3.071903584908e-05 
3 1  1.313508451392e-05   7.325537888229e-06  -4.276272771657e-05 
4 1 -1.280383854868e-05   5.994619808676e-05   7.622035745168e-05 
5 1 -1.162160541937e-06  -4.178082691109e-05  -3.790351146041e-05 
6 1 -2.161421051536e-05  -2.483544153140e-06   9.996951896295e-06 
7 1 -7.053019101675e-06  -8.022748387239e-05   3.585846908430e-06 
8 1  2.579743217448e-05  -4.657238297090e-05   1.665301481219e-05 
8
Step 14000
1 1 -5.598616709056e-05   1.979331072526e-05  -3.021708823285e-06 
2 1  2.332463643415e-05   1.885949085921e-05   2.416566845990e-05 
3 1 -4.488992815389e-05   3.348581674496e-05  -5.556762340851e-05 
4 1 -4.693143366320e-06   2.652075579438e-05   2.383267637040e-05 
5 1 -7.135678888782e-05  -1.346844917507e-05  -5.073778603394e-05 
6 1 -3.520967063409e-05  -9.250751028111e-06   3.859890536876e-05 
7 1  4.577588418585e-05  -3.156220543485e-05  -7.665745555118e-07 
8 1  1.214995280107e-05  -1.228439211256e-05   1.583320915742e-05 
8
Step 15000
1 1  1.011710426517e-05   1.823064292658e-05  -3.062285529606e-05 
2 1 -1.830555270773e-05   8.027103227270e-06   6.169677500269e-05 
3 1 -8.367305475293e-05   7.363058878319e-05   2.453655827940e-05 
4 1 -3.698017527736e-05   1.670305160577e-06  -8.434572334660e-05 
5 1 -6.662546509486e-05   3.148412462143e-05  -7.288043284596e-06 
6 1 -1.114143061668e-05  -2.961868316114e-05   2.493192251847e-06 
7 1  6.444450463053e-05   4.537595912147e-05   8.099250420807e-06 
8 1 -1.125942014079e-05   4.154115581879e-05   1.225765819463e-05 
8
Step 16000
1 1  4.943704619080e-05   1.961455119860e-05   2.006518296790e-05 
2 1 -3.718631390972e-05   4.690560224234e-06   2.597320332944e-05 
3 1 -2.382098547929e-05   3.215469194302e-05   1.017482334776e-04 
4 1 -5.843562223631e-05  -5.859118722359e-07  -5.608538078862e-05 
5 1  2.308532953730e-05   3.785498540726e-05   5.072866375870e-05 
6 1  1.882806426482e-05  -9.358780706321e-06  -7.176948226643e-05 
7 1  6.985241689915e-06   5.908351570101e-05   1.899537039631e-06 
8 1 -1.189161531803e-05   9.840049993654e-06  -1.670693152292e-05 
8
Step 17000
1 1  2.410606212760e-06   3.781988680322e-05   2.654872692440e-05 
2 1 -1.313314282501e-05   1.573344667831e-05  -3.410336719992e-05 
3 1  6.174673415444e-05  -7.800923437628e-05   3.472786725116e-05 
4 1 -3.869817935058e-06  -2.356893626098e-05   5.047815953298e-05 
5 1  6.230378732088e-05   8.353653421429e-06   4.004146418639e-05 
6 1  2.153500170661e-05   5.452758169518e-05  -4.578325853914e-05 
7 1 -5.889481669044e-05   3.586607296150e-05  -1.516105590019e-05 
8 1 -1.265809402524e-07  -1.856945463516e-05  -3.910432741065e-05 
8
Step 18000
1 1 -1.601764155628e-05   5.392568931536e-06  -3.125390792308e-05 
2 1  1.254184196119e-05   4.913684642230e-06  -2.659186346452e-05 
3 1  5.771459967608e-05  -9.969047408338e-05  -6.990394427615e-05 
4 1  7.005077102997e-05  -3.992062333199e-05   6.310097261541e-05 
5 1  2.357519689148e-05  -1.308620921625e-05  -2.109015957573e-05 
6 1  1.924171675892e-05   6.677785998494e-05   5.267923122091e-05 
7 1 -5.472566426585e-05   1.371901231974e-05  -2.215797343872e-05 
8 1 -5.552022437459e-06   3.336201862377e-05  -1.285663649789e-05 
8
Step 19000
1 1  2.007203090031e-05  -5.612441747557e-05  -3.734453001880e-05 
2 1  2.715679772542e-05  -3.341797416790e-05   1.246480633820e-05 
3 1  5.202785901784e-07  -2.023353489777e-06  -5.946036155633e-05 
4 1  7.872843524570e-05  -1.323015043329e-05   7.705641439811e-06 
5 1 -1.637934800963e-06  -1.632158620339e-05  -3.986387712673e-05 
6 1  1.362712660299e-05  -2.674181690421e-06   7.354728536534e-05 
7 1 -2.931526896492e-06  -3.028221268797e-05  -1.635891317748e-05 
8 1 -1.348332924795e-05   4.653039150709e-05   2.731782045932e-05 
8
Step 20000
1 1  1.390365446838e-05  -5.323308965476e-05   1.953329153552e-05 
2 1  3.090478485546e-05  -4.805531829765e-05  -8.615108238362e-06 
3 1 -1.459611495099e-05   8.092040761916e-05   1.771724345398e-05 
4 1  1.064245536587e-05   2.431691362461e-05  -2.807971054039e-05 
5 1  1.004478605272e-05  -1.431157859239e-05   7.980268266166e-06 
6 1 -2.119897668314e-05  -6.724723404490e-05  -1.006182274115e-05 
7 1  3.699598403750e-05  -6.288556067975e-05   1.251153562294e-05 
8 1  1.263505863474e-06  -3.926321404925e-05   2.478019984363e-05 
8
Step 21000
1 1 -4.104529152858e-05   1.181045658753e-05   3.262328841690e-05 
2 1  1.196603682132e-05  -3.158555621387e-06  -5.079815221752e-05 
3 1  6.104276477984e-06   4.844879085316e-05   2.641937296089e-05 
4 1 -6.601186249534e-05   2.758046942446e-05  -3.781075910064e-05 
5 1 -3.359340297064e-06  -1.022557149587e-05   3.803771006130e-05 
6 1 -5.202984293704e-05  -5.224942161431e-05  -6.442748594911e-05 
7 1  4.255079668809e-05  -2.175815195548e-05   5.515082950797e-05 
8 1  2.841546993881e-05  -8.969836888795e-05  -5.028798279996e-06 
8
Step 22000
1 1 -2.627058550309e-05   3.411476870111e-05  -1.130613512061e-05 
2 1 -2.900320522526e-05   5.127959119946e-05   1.060818033488e-05 
3 1 -1.668799994623e-05  -1.290026092614e-05  -5.514198552051e-06 
4 1 -7.428440318543e-05   1.426223044784e-05  -3.522100797673e-05 
5 1 -5.100834533727e-05   3.172612440378e-06  -3.656663705159e-06 
6 1 -1.313734454932e-05  -9.995621352807e-06  -1.661361166004e-05 
7 1  2.565419237339e-05   3.323374292776e-05   4.356743540037e-05 
8 1  2.537001255497e-05  -1.697828887815e-05  -7.538911857400e-06 
8
Step 23000
1 1  4.123199939915e-05   1.305164934457e-05  -2.183863828618e-05 
2 1 -5.476790817580e-05   5.192035098003e-05   9.988710137584e-05 
3 1 -5.389144115242e-05  -2.046029099553e-05   6.332077807252e-06 
4 1 -1.661792774918e-05   1.994567024660e-06   6.819447002185e-06 
5 1 -5.364986062325e-05   2.087668648711e-05  -4.407436347817e-05 
6 1  5.617945074287e-05   1.529682568140e-05   3.620077579164e-05 
7 1 -1.504147497657e-05   2.130285732226e-05  -4.091269060757e-05 
8 1 -8.528557223853e-06   6.133894666627e-05   7.371593966078e-06 
8
Step 24000
1 1  3.333463583926e-05   1.665781217046e-05   1.078064451746e-05 
2 1 -2.575143420336e-05  -1.961361183900e-06   4.151813399609e-05 
3 1 -2.435086736003e-05  -6.167431811689e-06   2.338300715576e-05 
4 1  3.740068105564e-05  -1.689090196373e-05   5.413157026312e-05 
5 1  1.085954625346e-05   1.891516048980e-05  -1.717379770911e-05 
6 1  4.725402125286e-05   4.239061167466e-05   2.032233197973e-05 
7 1 -4.958615748142e-05  -1.098049813900e-05  -8.292971357466e-05 
8 1 -2.852708846195e-05   4.765335612885e-05   2.163552210065e-06 
8
Step 25000
1 1 -3.077396853590e-05   2.725188751104e-05   2.221465654763e-05 
2 1  2.651562454644e-05  -3.788168731757e-05  -7.999011075376e-05 
3 1  3.762769472010e-05  -1.316089883352e-05   1.306089399441e-06 
4 1  3.287048919181e-05  -2.751004069174e-05   3.819809425187e-05 
5 1  6.044575953090e-05   7.064192464043e-07   2.993027397620e-05 
6 1 -2.614905802864e-05   5.805693657551e-05  -1.571877160759e-05 
7 1 -3.050646947887e-05   1.500531715570e-05  -1.092604391156e-05 
8 1 -1.785846406007e-05   8.613182885039e-06  -1.756435333268e-05 
8
Step 26000
1 1 -3.420211888081e-05  -1.940446964950e-05   2.341981115149e-06 
2 1  6.052684255855e-05  -3.445973064215e-05  -8.095642559675e-05 
3 1  5.798934549525e-05  -1.726041239188e-05  -1.839635921547e-05 
4 1  1.775722808304e-05  -6.300639075674e-06  -1.926477876928e-05 
5 1  5.983922046016e-05  -1.471021019005e-05   4.149942155927e-05 
6 1 -6.263733790223e-05   1.695874441396e-05  -1.960540738705e-05 
7 1  2.386251097869e-05   4.805150687681e-05   7.352214961735e-05 
8 1 -8.141147291550e-06   7.755312080634e-07  -2.342988556459e-05 
8
Step 27000
1 1  3.216281865030e-05  -8.512232058586e-05  -2.485832121679e-05 
2 1  3.775534332434e-05  -4.563969794982e-06   4.562612502739e-05 
3 1  1.461805965807e-05   1.603150286552e-05  -1.251002188263e-05 
4 1  2.321533192156e-05   3.254117838941e-05  -5.364146488687e-05 
5 1 -5.208960511884e-06  -1.253109455574e-05   4.423315785458e-06 
6 1 -9.592302961788e-06  -8.296849968186e-05   4.047833155937e-06 
7 1  5.195890608355e-05  -3.048326414891e-06   5.171988609279e-05 
8 1  3.848679641281e-06  -2.366517885775e-05   5.615620905186e-06 
8
Step 28000
1 1  4.292492649252e-05  -4.075337182921e-05  -2.951105778667e-05 
2 1 -3.085784700002e-05   2.081498161543e-05   8.235066488432e-05 
3 1 -3.021962826609e-05   4.059753091593e-05  -1.249323611092e-05 
4 1  6.434175028394e-06   2.964552421988e-05  -2.405150543099e-05 
5 1 -7.820943790425e-05   1.088347789096e-06  -3.877155941800e-05 
6 1  5.985411193379e-05  -9.533050982980e-05   2.437480380362e-05 
7 1  5.780906631668e-06  -7.664981200280e-05  -4.266328214957e-05 
8 1  3.827362364652e-05  -6.241082554385e-05   4.552303387486e-05 
8
Step 29000
1 1 -1.092225177051e-05   4.817940337022e-05  -1.671280772361e-06 
2 1 -4.630396139377e-05   1.619680135497e-05  -1.613143524801e-05 
3 1 -1.799165228057e-05   6.858154152729e-06  -1.259230348398e-05 
4 1 -4.296069270978e-05  -1.223850661614e-05   1.217080870953e-05 
5 1 -5.920723956219e-05  -2.778324731300e-06  -3.495903577293e-05 
6 1  4.035018938200e-05   8.306250318906e-06   1.906415699647e-05 
7 1 -2.803451839279e-05  -4.667979190631e-05  -3.744347825146e-05 
8 1  4.922376553044e-05  -2.979437407654e-05   3.319608388332e-05 
8
Step 30000
1 1 -2.368694786832e-05   6.352509459280e-05   3.250758447620e-05 
2 1 -2.158248305248e-05   1.018836709977e-05  -4.525319248593e-05 
3 1 -1.220011945101e-05  -2.892709128722e-05   2.527750415612e-05 
4 1 -7.295878547394e-05  -2.645532838112e-05   1.910091452447e-05 
5 1  1.951946054536e-05  -1.586143252745e-05  -6.138575965773e-06 
6 1 -1.583665514770e-05   6.794920859464e-05  -9.280973832515e-06 
7 1 -1.697508277956e-06   7.458373955278e-06   2.076920697620e-05 
8 1  7.806097518185e-07   3.968469863082e-05  -1.971448345427e-05 
8
Step 31000
1 1  1.955574564714e-06   1.396525160492e-05   3.330745541334e-05 
2 1  5.305302686991e-06   1.258339451106e-05   2.689763726157e-05 
3 1 -3.586846866883e-05  -2.459528573699e-05   6.452650388212e-05 
4 1 -1.920257650280e-05  -4.830506362981e-06   1.540900489291e-05 
5 1  8.765188995963e-05  -1.287576900867e-06   3.228911570715e-05 
6 1 -5.758540281055e-05   3.769336204012e-05  -4.729455421455e-05 
7 1  3.369063761893e-05   3.262430022652e-05   2.381632216155e-05 
8 1 -8.977771214068e-05   7.278423495103e-05  -6.700562140211e-05 
8
Step 32000
1 1 -5.653845833605e-06  -2.376573959437e-05  -1.698557796932e-05 
2 1  1.965926633177e-05  -2.636035951395e-07   5.496044015768e-05 
3 1 -2.794474149740e-05   1.111147921179e-05   6.329066903143e-06 
4 1  9.304346514830e-05   1.137609455874e-05   1.321930667260e-05 
5 1  4.521982894545e-05   4.437478120723e-05   4.976820403335e-05 
6 1 -3.566892789122e-05  -1.509877970875e-05  -3.146411186482e-05 
7 1 -3.044284486040e-07   5.475876383684e-05  -3.610637380192e-05 
8 1 -8.554722904099e-05   1.485418540594e-05  -3.111454135300e-05 
8
Step 33000
1 1 -3.033763304372e-05  -1.845765134837e-05  -3.021144933749e-05 
2 1  2.940714757766e-05  -3.480087837393e-05  -2.739361545803e-05 
3 1  4.830212975382e-05   2.053850087900e-05  -7.475459918954e-05 
4 1  9.593783731286e-05  -3.064391231195e-06   9.840631157232e-06 
5 1 -6.013296875004e-05   3.955992157616e-05   9.802659677221e-06 
6 1  3.466735396138e-05  -5.359089396531e-06   4.154236710327e-05 
7 1 -6.555031538793e-05   7.296737085326e-05  -3.479602181127e-05 
8 1  4.271758669353e-05  -3.669262146218e-05   4.776681278304e-05 
8
Step 34000
1 1  7.295927277826e-06  -3.342953145825e-05   6.760196313162e-06 
2 1  2.044705155662e-05  -3.033067180176e-05  -4.304357653275e-05 
3 1  8.040469265315e-05   7.710707121829e-06  -3.144161300538e-05 
4 1 -1.098947300489e-06   8.772079731530e-06  -8.240304943723e-06 
5 1 -5.299298703227e-05  -1.920107409216e-05  -3.284659461619e-05 
6 1  5.103060941925e-05   1.459280285534e-06   5.090997931019e-05 
7 1 -4.183758810361e-05   1.096882840506e-05   2.161345422133e-05 
8 1  8.169053554003e-05  -1.589397034379e-05   3.832109392109e-05 
8
Step 35000
1 1  5.444891095648e-05  -4.431415779552e-05   4.387824024940e-06 
2 1 -1.206482671624e-05   1.536909748552e-05   9.559380896040e-06 
3 1  2.976717019116e-05   1.989037396216e-06   3.359564302333e-05 
4 1 -6.639416725535e-05   3.713165914750e-05  -3.804694225856e-05 
5 1  1.607527870375e-05  -4.763604385568e-05  -3.412550889184e-05 
6 1  5.613316250168e-06  -2.607057505139e-05  -1.383671361960e-06 
7 1  4.225842818362e-05  -9.880584775084e-05   3.915951860069e-05 
8 1  2.674120321888e-05  -9.523714513266e-06  -5.654817347039e-06 
8
Step 36000
1 1  3.221555306415e-05   8.894211860869e-06  -2.872705716405e-05 
2 1 -3.116742556732e-05   4.426501599415e-05   2.882951981710e-05 
3 1 -5.610444295957e-05  -8.055332055663e-06   2.246224646994e-05 
4 1 -5.209290798523e-05   1.237104511491e-05  -3.761326137380e-05 
5 1  4.387945077419e-05  -1.608499918063e-05   3.667212800452e-06 
6 1 -4.730027683324e-05  -2.661604719056e-05  -4.072735946382e-05 
7 1  9.308278235106e-05  -1.137401549422e-04   1.114520178362e-05 
8 1 -2.723984421468e-05  -2.254038307377e-05  -1.089279785782e-05 
8
Step 37000
1 1 -3.085415217225e-05   6.624504854435e-05  -8.227772586368e-06 
2 1  1.964151555174e-06   6.133925194846e-06  -6.133309558790e-06 
3 1 -7.534151622173e-05  -1.525696259069e-05  -2.134911026196e-05 
4 1  4.801580317814e-06  -5.405231691980e-05   1.745952047121e-05 
5 1 -2.275253232211e-06   2.281957454376e-05   2.070691915989e-05 
6 1 -2.392628487394e-05   3.780998059986e-06  -1.707220307134e-05 
7 1  3.167608700019e-05   1.221193333021e-05  -1.503645957782e-05 
8 1 -1.687082918454e-05  -1.343210924365e-05   1.044612880855e-05 
8
Step 38000
1 1 -4.456128124882e-05   4.581396584311e-05   4.401720860916e-05 
2 1  2.222115566542e-05  -3.205028746944e-05  -1.088859096181e-05 
3 1 -3.376754982825e-05   1.862174322197e-06   2.583874105817e-06 
4 1  2.762957279345e-05  -5.371807108254e-05   5.870933064143e-05 
5 1 -3.052053064472e-05   1.793003728753e-05  -3.409169550475e-06 
6 1  3.896297146727e-05   2.925104833149e-06   7.520990348847e-06 
7 1 -6.491519465072e-05   9.557083945969e-05  -2.388040673618e-05 
8 1 -6.835054958243e-06   1.339408323514e-05  -1.360491813095e-05 
8
Step 39000
1 1 -1.851474295415e-05  -1.476619449888e-05   3.010570000767e-05 
2 1 -1.754129640487e-05  -9.776956157695e-06   1.816155373255e-05 
3 1  1.449047595591e-05   1.812747856499e-05   4.065761780982e-05 
4 1  2.226279458320e-05   2.331223823624e-05   3.703321329796e-05 
5 1 -1.194149495613e-06   1.988945852565e-06  -6.563084582102e-06 
6 1  3.981964519469e-05  -1.230651967484e-06  -2.330652247529e-06 
7 1 -9.213329635841e-05   6.695413415015e-05  -2.777394880673e-05 
8 1 -3.524361748801e-05   3.230017736629e-05  -5.116963004941e-05 
8
Step 40000
1 1  1.268226713944e-05  -6.574457884186e-05  -4.812602532582e-05 
2 1 -5.874949565209e-05   3.715370862972e-05   2.215041603034e-05 
3 1  8.554972860355e-05  -5.424093664997e-06   3.347101647722e-06 
4 1  1.293793058937e-05   9.702335828616e-05  -4.179149943523e-05 
5 1  3.799264132921e-05  -3.860323263358e-06   3.804959645707e-05 
6 1 -4.470430187293e-05   4.845243925244e-05  -3.054321926409e-06 
7 1 -1.428287968795e-05  -7.726858536289e-06  -6.584102971186e-06 
8 1 -3.486499125744e-05   3.825472133935e-05  -8.560476463094e-06 
8
Step 41000
1 1  2.305823314660e-05  -4.482338178198e-05  -4.714936643033e-05 
2 1  6.885412057433e-06   1.448971976498e-05  -1.535409942161e-05 
3 1  9.354893590606e-05  -2.806914532921e-05  -6.022795224359e-05 
4 1 -5.956964137760e-06   3.656083995112e-05  -6.668655968505e-05 
5 1  1.140018327210e-05  -5.198981909129e-06   3.651804970323e-05 
6 1 -8.141273679228e-05   6.944014273486e-05   2.565218674676e-05 
7 1  8.141061780599e-05  -4.266799775907e-05   3.161826870244e-05 
8 1  3.564589937562e-05   1.188703737687e-05   8.039526542556e-05 
8
Step 42000
1 1  2.207703503454e-05   9.008060975827e-07   2.452783881187e-05 
2 1  7.760569943505e-05  -3.647289985917e-05  -2.779535429743e-05 
3 1 -4.437940595663e-06   2.257803216382e-05  -2.424774859358e-05 
4 1 -1.680997938694e-05  -4.438665150260e-05  -8.999295032854e-06 
5 1 -2.840341019109e-05   4.909294349995e-06  -4.218912663298e-05 
6 1  5.949538238646e-06  -1.992239880108e-05   2.534497290502e-05 
7 1  5.164842293844e-05  -3.869462977584e-05   3.193388624510e-05 
8 1  5.909839537118e-05  -2.629148185152e-05   4.467849263189e-05 
8
Step 43000
1 1  2.275276639896e-05   3.378758080407e-05   1.961980159563e-05 
2 1  4.848390686598e-05  -2.595583998898e-05  -1.663574733606e-05 
3 1 -1.068485919639e-04   5.639088742999e-05   2.997648427514e-05 
4 1 -4.259944856382e-06  -5.050362454040e-05   2.331057756860e-05 
5 1 -2.188950688203e-05   2.309002503057e-05  -7.308545319652e-05 
6 1  7.841128008200e-05  -1.047991389297e-04  -9.018628085132e-06 
7 1 -1.893351711992e-06  -4.371427221146e-05   2.090102869734e-05 
8 1  2.247793419653e-05  -5.597448481947e-05  -4.071110646192e-05 
8
Step 44000
1 1  1.000381047149e-05   4.105686141225e-05  -2.844848663676e-05 
2 1 -3.119481935306e-05   2.328878502365e-05   3.322304365034e-06 
3 1 -8.207038232350e-05  -1.415606149950e-05   1.587201010526e-05 
4 1  1.021170515783e-05  -1.905628760089e-05   6.808376623431e-06 
5 1  7.952450359975e-06   5.567242700583e-06   4.854693289230e-06 
6 1  3.774540439140e-05  -5.712601624041e-05  -3.039408681750e-05 
7 1  2.451760348503e-06  -1.544037016956e-05   9.947592879614e-06 
8 1 -1.105986810336e-05  -3.979431611505e-05  -3.818785226723e-05 
8
Step 45000
1 1 -1.865704541194e-05   1.676342319171e-05  -8.051442846805e-06 
2 1 -6.145530160466e-05   3.619179147299e-05   2.482446862187e-05 
3 1  3.384897120876e-05  -8.342433584442e-05  -1.363077877762e-05 
4 1 -7.454575201769e-06   8.483689580070e-06  -5.062391415463e-07 
5 1  2.295947440320e-05  -4.682734593072e-05   6.861118341233e-05 
6 1 -3.529257078771e-05   4.699167652003e-05  -2.083182143096e-05 
7 1  9.048991469423e-06   3.227788767095e-05  -2.704909897811e-05 
8 1 -2.274941887041e-05   1.140961883465e-05   1.254025109303e-05 
8
Step 46000
1 1 -4.206624898146e-05  -1.787272100415e-05   4.079863066822e-05 
2 1 -3.984544783877e-05   5.305723372547e-06   2.551733348501e-05 
3 1  8.411113898167e-05  -2.931610486832e-05   6.142301686021e-06 
4 1 -2.975055914697e-05   3.236654450065e-05   2.229829782203e-05 
5 1  2.009087580914e-05  -5.732912778447e-05   2.492595762667e-05 
6 1 -3.378718505955e-05   6.934112027126e-05   3.896793398850e-06 
7 1 -4.038564658577e-05   4.049293009838e-05  -6.923626025205e-05 
8 1 -3.680818539498e-05   4.829776995836e-05   1.416368136577e-06 
8
Step 47000
1 1 -3.478997890685e-05  -3.937427993533e-05   1.718363362299e-05 
2 1  2.439442152364e-06  -3.104998398519e-05  -7.301361151796e-06 
3 1  2.639393641322e-05   8.388642289078e-05   3.230469720429e-05 
4 1  4.031643116254e-06   3.176182714140e-05   2.451207644750e-05 
5 1 -2.972025862343e-06   2.614490044957e-05  -4.494607613695e-05 
6 1  8.745170586555e-06   1.899412637737e-05   3.271135008079e-05 
7 1 -7.949084473892e-05   1.718597211642e-05  -3.661665721650e-05 
8 1 -3.244362213789e-05   5.099259172015e-05  -3.328728312186e-05 
8
Step 48000
1 1  9.323689244730e-06  -3.221022759657e-05  -4.159261238812e-05 
2 1  5.647015912946e-05  -3.673415083270e-05  -3.038623928898e-05 
3 1 -3.603033704428e-05   8.093012453323e-05  -2.720673912112e-06 
4 1  6.833758729662e-05  -1.789573662892e-05  -2.565762593515e-05 
5 1 -4.279778400051e-05   1.165873833556e-04  -2.027569506223e-05 
6 1 -7.187565873638e-06  -1.010525170319e-05   3.191404083011e-05 
7 1 -5.864406958421e-06   9.169403953317e-06   7.211250105261e-05 
8 1  1.911088176367e-05   2.189717352248e-05   9.471792353160e-06 
8
Step 49000
1 1  4.321584002003e-05   5.449002925245e-07  -1.419053498793e-05 
2 1  6.753419388280e-05   3.354743744312e-06  -3.248415690430e-06 
3 1 -2.082864317942e-05  -3.095523360943e-05  -4.415756984160e-05 
4 1  3.109545223363e-05  -3.174590104767e-05  -5.117239717686e-05 
5 1 -3.709810170679e-05   5.199239950038e-05   3.491756627522e-05 
6 1 -4.416770744113e-05  -5.493757112807e-06  -2.169889047522e-05 
7 1  9.051150699638e-05   5.278752224156e-07   8.710628970717e-05 
8 1  4.686913036231e-05  -2.496528554869e-05   5.722265459749e-05 
8
Step 50000
1 1  4.375233242502e-05   2.739535070540e-05   2.301276158803e-05 
2 1  1.583201707558e-05   3.752214159854e-05   7.757529936093e-06 
3 1 -2.563812852177e-06  -5.830539109946e-05  -2.297773677863e-05 
4 1 -5.483671181037e-05   2.063810979751e-05  -1.317093856845e-05 
5 1  1.802584846829e-05  -5.758098603950e-05  -7.747793044190e-07 
6 1  2.179325535184e-06  -2.345092797841e-05  -3.932549692548e-05 
7 1  6.856743792425e-05  -3.676107941114e-05   9.072790627285e-06 
8 1  2.236907953881e-05  -5.609484022934e-05   1.816419496744e-05 
8
Step 51000
1 1  1.862826014029e-05   3.520469288677e-05  -1.371605392359e-06 
2 1 -5.972475181296e-05   2.548023472373e-05  -1.214279530560e-05 
3 1 -2.256484221749e-06  -1.387064108232e-05   2.181818242768e-05 
4 1 -6.670505158710e-05   4.000719922326e-05   3.883225149305e-05 
5 1  5.595871873362e-05  -8.824337618365e-05  -5.336349101214e-05 
6 1  7.938295559038e-05  -3.505619924596e-05   1.350894532610e-05 
7 1 -2.738459302541e-05  -5.164334109031e-05  -5.033268382827e-05 
8 1  9.185686724482e-08  -4.094735637639e-05  -3.424199220117e-05 
8
Step 52000
1 1 -1.761002057170e-05   1.541206858804e-05  -2.494359158341e-05 
2 1 -6.483268578477e-05  -1.846326537612e-05  -1.003626622564e-05 
3 1  6.830008674625e-06   1.475174777793e-05   2.841631598246e-05 
4 1  1.348683798321e-05  -2.620826094723e-05   3.548682126178e-05 
5 1  1.693980489537e-05  -2.380478858572e-05  -2.095989535483e-05 
6 1  6.056632023629e-05  -7.780888665886e-06   4.678941720944e-05 
7 1 -6.502274612898e-05  -7.890809057303e-06  -4.199421453959e-05 
8 1  1.344340805831e-06   9.677714191163e-06  -2.377929218492e-05 
8
Step 53000
1 1 -5.266389758754e-05  -1.419883125177e-05   7.992070145530e-06 
2 1  2.949712259894e-06  -2.934901547034e-05   2.566134581154e-05 
3 1  6.836438671807e-06   1.605788623329e-05   4.479613416469e-06 
4 1  6.529448714070e-05  -7.312532749293e-05  -1.237257953624e-05 
5 1 -3.505166163116e-05   3.472040629109e-05   5.512978738721e-05 
6 1 -3.846097203026e-05   1.520951918506e-05  -1.341207757577e-05 
7 1 -1.300894777998e-05   3.642471973433e-05  -2.194139348700e-05 
8 1 -1.961530212895e-05   3.739837692825e-05  -1.688101939741e-06 
8
Step 54000
1 1 -6.335962402916e-05  -3.705634637497e-05   3.265769225150e-05 
2 1  5.146077827819e-05  -1.115315479160e-06   2.895103423942e-05 
3 1 -1.368087480102e-05   2.597738761136e-05  -2.182550016572e-06 
4 1  2.851442512748e-05  -3.135351357068e-06  -2.795819450496e-05 
5 1 -1.711033268346e-05   4.049454364060e-05   6.089199351972e-05 