8
Step 0
1 1  0.000000000000e+00   0.000000000000e+00   0.000000000000e+00 
2 1  0.000000000000e+00   0.000000000000e+00   0.000000000000e+00 
3 1  0.000000000000e+00   0.000000000000e+00   0.000000000000e+00 
4 1  0.000000000000e+00   0.000000000000e+00   0.000000000000e+00 
5 1  0.000000000000e+00   0.000000000000e+00   0.000000000000e+00 
6 1  0.000000000000e+00   0.000000000000e+00   0.000000000000e+00 
7 1  0.000000000000e+00   0.000000000000e+00   0.000000000000e+00 
8 1  0.000000000000e+00   0.000000000000e+00   0.000000000000e+00 
8
Step 1000
1 1  3.479894548601e-04  -3.224241481981e-04  -2.571991754088e-06 
2 1 -3.016947135002e-05  -2.720376612123e-04   3.174930332685e-04 
3 1  2.902434452740e-04  -2.833879573764e-04  -1.308683905370e-04 
4 1 -9.921224768728e-05  -3.295096034198e-04  -2.864802523902e-04 
5 1  2.596842011102e-04  -1.269988241341e-04   1.699578841934e-04 
6 1  1.797438073833e-04  -1.772258135340e-04   9.921844670884e-05 
7 1  2.229623069485e-04  -2.025097167432e-04   1.914232476805e-04 
8 1 -1.104714665900e-04   1.079425244792e-04   1.291372837605e-04 
8
Step 2000
1 1  1.965996978762e-04   3.277813497264e-05  -1.212810595211e-05 
2 1  2.510696795626e-07  -1.411010973578e-05  -3.635805777279e-05 
3 1  3.327564618843e-04  -3.557544973731e-04   8.523424268983e-05 
4 1  1.671428989005e-04  -2.675223622899e-04  -2.813273716481e-04 
5 1  4.697789168282e-05  -3.781595327822e-04   4.911493244055e-05 
6 1  9.640859576773e-05  -4.395228137313e-05   1.205362975943e-05 
7 1  3.270321851269e-05  -6.035178130075e-05   1.739579647393e-05 
8 1 -4.709325684970e-05   2.990585397232e-04   1.061272398198e-04 
8
Step 3000
1 1 -1.585850823670e-05   6.376309053344e-05   4.951630082252e-05 
2 1  1.480732771484e-04   1.217198300320e-04  -2.182437769692e-04 
3 1  3.024503203457e-04  -2.096395419281e-04  -8.247415006701e-07 
4 1  2.093491958459e-04  -9.795899833665e-05  -2.568489671833e-04 
5 1 -3.124778053789e-04  -2.569944083220e-04   2.901151078266e-04 
6 1  1.017288690288e-04  -2.329262211196e-04   9.474895329136e-05 
7 1  5.502444385927e-05  -4.952290337055e-05   8.494786813764e-05 
8 1 -1.993116762260e-04   4.900456906846e-05  -4.942945200862e-05 
8
Step 4000
1 1  6.373851249413e-05  -8.895301342948e-05   5.838639209924e-05 
2 1  1.035475497228e-04  -3.421481232216e-06  -1.583476207645e-04 
3 1  2.121731447089e-04  -1.499481968458e-04  -1.437237686858e-05 
4 1  1.513869542290e-04   1.123206012274e-05  -3.340731726657e-04 
5 1 -7.454352621133e-05  -1.649762911515e-04   2.642552924683e-04 
6 1 -3.660299775009e-06  -1.916781206313e-04  -2.578331111284e-05 
7 1  1.544050440065e-04  -2.610208349224e-04  -7.419060081019e-06 
8 1 -4.837824232571e-05  -7.510651760412e-05  -2.394663283784e-04 
8
Step 5000
1 1  2.493918429129e-04  -3.259383925887e-04   1.180620573287e-04 
2 1  1.733474740996e-04   3.884548810768e-05  -1.212223761629e-04 
3 1 -2.011247696757e-05  -1.216278923380e-04  -1.517602965312e-04 
4 1  3.278453662451e-05   1.555557400543e-04  -2.035536014036e-04 
5 1 -2.759273188899e-04  -1.879794430616e-04  -1.517993357347e-05 
6 1  4.334928792537e-05  -2.143741382687e-04  -6.865013172537e-05 
7 1 -1.438752136138e-05  -7.602270633305e-05   4.174330191195e-06 
8 1  2.495414652117e-04  -1.721584608841e-04   2.036697636072e-05 
8
Step 6000
1 1  3.785064639852e-04  -8.919059087521e-05  -7.887238231137e-05 
2 1  1.049268573532e-04   8.534157542250e-05  -4.938533989422e-05 
3 1  2.630487454816e-04  -8.794757934792e-05  -1.127573376857e-04 
4 1 -8.413044980335e-05  -2.110794962876e-04  -3.247482700645e-04 
5 1 -2.201208407866e-04  -1.866074167123e-04  -8.874041739727e-05 
6 1 -1.837268925308e-04  -2.346620828643e-04  -7.983589589813e-05 
7 1 -1.451488728627e-05   1.888256824276e-04  -4.979564877358e-05 
8 1  9.612714266112e-05   3.292578182235e-05  -1.625569597984e-04 
8
Step 7000
1 1  1.156961486741e-04   2.608478102700e-04   1.130437320242e-04 
2 1  9.236194615445e-05   3.194798342845e-05  -4.091912615782e-04 
3 1  2.668732178940e-04   7.899966160851e-05  -8.344788590929e-05 
4 1 -2.083296968210e-04  -2.016848929853e-05  -1.060593132234e-04 
5 1  8.556501479351e-05  -1.649930419583e-04   1.567374738335e-04 
6 1 -4.633146163289e-05  -2.932852593430e-05  -9.774567593761e-05 
7 1 -9.085650820395e-05  -4.604993451559e-05  -1.083795891442e-04 
8 1 -2.770437462650e-04   2.032376367396e-04  -2.037596979180e-04 
8
Step 8000
1 1  6.521660328202e-05   2.466703250743e-04  -2.959692537242e-04 
2 1  2.888674087550e-05   9.461385752508e-05  -1.190693577545e-04 
3 1  2.188730502853e-04   3.967509139432e-05  -2.395677785063e-04 
4 1 -1.472021153622e-04  -8.492143294843e-05  -2.162598132823e-04 
5 1 -2.316210787434e-04  -1.531434377125e-04   1.280084253981e-04 
6 1 -3.908675059798e-05  -6.757785412380e-05  -9.616234979133e-05 
7 1 -1.324122458014e-04  -1.507474976308e-04  -2.129035034535e-04 
8 1 -6.080724377675e-05  -1.258992142271e-05  -1.025954635890e-04 
8
Step 9000
1 1  1.011806970858e-04  -6.549564415112e-05  -7.381503360764e-06 
2 1 -5.494906038950e-06   9.848416020756e-05  -1.886686129589e-04 
3 1  8.230613855766e-05  -3.092116787065e-05  -5.848090945706e-05 
4 1 -2.145394302171e-04   1.659118244423e-04  -2.871407291750e-04 
5 1 -1.699745844975e-04  -1.094675053880e-04   1.764797930182e-05 
6 1 -1.072475896153e-04   9.248308012278e-05  -2.164376099349e-04 
7 1  2.286896665732e-04  -1.992694567313e-04  -6.509409587093e-05 
8 1 -1.515435686879e-04   2.083520553843e-04  -3.057290456214e-05 
8
Step 10000
1 1  2.191106692441e-04  -3.516926008795e-06  -1.289775054818e-04 
2 1  1.168274032018e-04   1.013082619637e-05  -1.063544321449e-04 
3 1 -3.386523875036e-05  -7.751832325389e-05  -2.483746099658e-04 
4 1 -1.566588635997e-04   1.644612887888e-04  -8.184239841221e-05 
5 1 -3.885103820923e-04  -9.441455977164e-05   2.034530177806e-05 
6 1 -1.327246081290e-04   1.937491886989e-04  -2.158243995375e-04 
7 1  2.231791940944e-04  -1.830462933647e-04  -9.335937326499e-05 
8 1 -1.591754787430e-04   2.440828841006e-04  -2.373898857500e-04 
8
Step 11000
1 1  8.205208895670e-05   1.610894928034e-04  -3.567427922547e-05 
2 1 -2.950805849087e-05   1.428882225137e-04  -9.778680428102e-05 
3 1 -2.022508872647e-04   6.508588662722e-05  -2.117129333021e-04 
4 1 -1.313792812677e-04   6.608693101528e-05   1.271755681922e-05 
5 1  6.976356078590e-05   5.754522982061e-05   2.689022024092e-05 
6 1 -2.482432862068e-05   2.105513729769e-04  -2.010330068195e-04 
7 1 -1.012356319725e-04   1.285250096649e-04  -1.488443200395e-04 
8 1 -2.293122073307e-04   2.053242062512e-04  -1.811572100884e-04 
8
Step 12000
1 1 -5.732731269475e-05   3.813617269230e-04  -2.759971475462e-04 
2 1 -1.310486623392e-04   2.282086575583e-04  -2.687178915922e-04 
3 1 -1.121180486204e-04   1.862343935552e-06   1.418515974815e-04 
4 1 -1.231832030406e-04   4.058911613722e-07   2.936697612084e-05 
5 1  8.272543226374e-05  -8.272498996171e-07  -7.296902920103e-05 
6 1 -1.395840645679e-04   9.164265157319e-05  -2.499006605410e-04 
7 1 -1.412360875542e-04   1.157816587867e-04  -3.311900909019e-06 
8 1 -1.579271731079e-04   7.972607123889e-05  -2.116405324057e-04 
8
Step 13000
1 1 -1.204519153164e-04   1.414496805400e-04  -1.062471654871e-04 
2 1 -2.140571802823e-04   1.149769463878e-04  -1.821939798508e-04 
3 1 -7.473089005400e-05   1.991953071716e-04   1.223348851609e-05 
4 1 -1.825076172249e-04  -6.887224071194e-05  -1.166090528399e-04 
5 1 -8.722221073676e-05   7.505406159361e-05  -9.659683002473e-05 
6 1  6.154184196040e-05   5.494131386489e-05  -2.460501347373e-05 
7 1  4.293081739789e-05   3.292690427697e-04   4.554789350072e-05 
8 1 -6.303797786638e-05   1.688668579547e-05  -8.742435572473e-05 
8
Step 14000
1 1 -1.232410156041e-04  -1.034572104673e-04   5.215030253151e-05 
2 1  5.497213096510e-05  -1.532486736709e-04  -3.493206489583e-04 
3 1 -1.691106560370e-04   2.468850210423e-04   3.684620019401e-07 
4 1 -3.757561234751e-04   4.162381682501e-05  -9.734661430989e-05 
5 1 -2.311873983468e-04   2.455094430739e-04   6.586243632876e-06 
6 1  1.433796481057e-04   8.528551150441e-06  -5.039182463459e-05 
7 1 -1.061874093581e-05   2.000300227999e-04  -6.305699865493e-06 
8 1  2.220790936221e-05  -6.594151130863e-06  -1.989169445227e-04 
8
Step 15000
1 1 -3.336000557463e-05  -6.126849687984e-05   1.338863586632e-05 
2 1 -1.261139652743e-04   1.234874786294e-04   6.574944783766e-06 
3 1 -3.333114060695e-04   7.444999839978e-05   1.558712934024e-05 
4 1  1.331769454617e-04   1.328872514755e-04   1.671355822548e-04 
5 1 -2.561006565396e-04   4.104449421387e-04  -7.854391532276e-05 
6 1  5.600826613815e-05   3.307111616226e-04  -1.602854223383e-04 
7 1  8.792481416653e-05   2.867633386534e-04  -4.257514252584e-05 
8 1 -2.422666684917e-05   7.840380127218e-05  -2.473491299632e-04 
8
Step 16000
1 1 -1.281394471791e-04   1.190202092480e-04  -1.936862062630e-04 
2 1 -2.048030242394e-04   2.276892065140e-04  -1.613747352229e-04 
3 1 -3.811667008923e-04  -1.600823469732e-05   8.875478368870e-05 
4 1  1.814213613513e-04  -9.526659147342e-05   2.701986396373e-04 
5 1 -1.339341879839e-04   1.003423546809e-04  -3.393715359028e-05 
6 1 -1.392467763208e-04   1.521401704532e-04  -1.450808414528e-04 
7 1  1.421332879626e-04   8.870693963429e-05   9.916363946077e-05 
8 1 -1.722623355095e-04   4.088374190739e-04  -1.616380217926e-04 
8
Step 17000
1 1 -3.039333906680e-04   1.871568372790e-04  -1.063881897709e-04 
2 1 -1.970851826481e-05   1.387706490194e-04  -1.319018775786e-04 
3 1 -2.605607347169e-04  -4.773634954093e-06   8.201502195586e-06 
4 1  1.738523623237e-04  -6.254666991836e-05   2.365906860331e-04 
5 1 -9.181095122661e-05  -3.666406273954e-05  -1.454068009100e-04 
6 1 -8.316760112895e-05   3.412287236726e-04  -1.105612069613e-04 
7 1  8.173900282285e-05   5.973264713490e-05   2.465186169001e-04 
8 1 -1.294748214691e-04   4.007350970892e-04  -9.106473116765e-06 
8
Step 18000
1 1 -1.100924559608e-04  -1.525524972092e-04   3.344669301978e-06 
2 1 -1.653383596582e-04  -5.740045398284e-05  -9.356312418999e-05 
3 1 -2.658449985368e-04   2.984518138487e-04  -1.485686888009e-04 
4 1 -1.499268739161e-04   9.695136481440e-06   2.612474786794e-04 
5 1  2.207081856502e-04  -7.148540013537e-05  -4.425598655581e-05 
6 1 -1.278526373606e-04   3.292385317662e-04  -1.010764649780e-05 
7 1  9.551862617188e-06   8.593054022193e-05   8.539522128275e-05 
8 1 -4.404372049867e-05   3.094446094131e-05   4.490750066871e-05 
8
Step 19000
1 1 -1.628905337874e-04  -1.307923235340e-04   5.181819038075e-05 
2 1 -1.024946578054e-04  -2.369246469423e-04  -4.973826034093e-05 
3 1  1.076595669861e-05   2.912886109314e-04   2.210520781168e-04 
4 1  5.757828430789e-05   1.943361338758e-04   2.943565827171e-04 
5 1  1.307883417146e-04   3.057474360935e-04  -1.139212419865e-04 
6 1 -2.415294326109e-04   3.057055763992e-04  -2.492277562168e-04 
7 1  1.251670911806e-04   1.474311206463e-05   1.020663587000e-04 
8 1 -1.581856169453e-05   5.420632267350e-05   2.444705273849e-05 
8
Step 20000
1 1 -2.432346707884e-04  -5.868069107012e-06   2.571297288758e-04 
2 1  4.992890858755e-05  -4.171341253226e-05  -3.725077321068e-05 
3 1 -2.010969104618e-04   1.468675571871e-04  -1.653579011936e-05 
4 1  3.954618452483e-05  -3.162611508378e-05   3.509470833607e-04 
5 1 -2.169070600602e-04   2.253309477356e-04  -6.709681847963e-05 
6 1 -2.684993561444e-05   1.498284545743e-04  -6.916016226580e-05 
7 1  1.071583724037e-04   9.946275246223e-05   9.857095593362e-05 
8 1  5.011129752774e-05   9.950466121955e-05   3.276047458546e-06 
8
Step 21000
1 1 -1.609524474852e-04   3.167419043583e-04   1.716771752514e-04 
2 1  2.788922495220e-04   2.223904371296e-05   2.882016015667e-05 
3 1 -1.572001210010e-04   7.519708056498e-06  -5.150734565478e-05 
4 1  7.011991243311e-05  -1.029796618339e-04   1.942021278709e-04 
5 1 -4.692532508106e-06   2.385167165380e-04   1.096459051932e-04 
6 1  6.140135475257e-06   2.597993527983e-06  -1.062205992659e-04 
7 1  4.611691246443e-05   2.006469478338e-04   1.614275615325e-04 
8 1 -6.596742438679e-05   9.176193686925e-05   1.645312038671e-04 
8
Step 22000
1 1 -9.596208065483e-05  -1.628490946637e-04   1.987009781323e-04 
2 1  1.482565693997e-04   2.053514735775e-04   1.221947820222e-04 
3 1 -3.987046068905e-04  -8.964234768385e-05  -3.752027677351e-05 
4 1  1.174735050012e-04   6.054027124209e-05  -4.331320993644e-05 
5 1  3.549034112989e-06   1.064927883797e-04   5.133137696658e-05 
6 1  5.389309574100e-05  -4.544573143241e-05  -6.372786569290e-05 
7 1  1.282787728787e-04  -7.159241039655e-05   3.800343586514e-04 
8 1 -1.840171721819e-04  -2.899316442479e-04   2.225752824781e-04 
8
Step 23000
1 1  7.448451976813e-05  -1.953658449192e-04   2.225536933836e-04 
2 1  6.838503125080e-05  -1.287170394071e-05   1.064896959618e-04 
3 1 -2.170428953060e-04   2.180227028910e-04   2.443638963810e-04 
4 1  2.530798903622e-04   1.341332624974e-04   1.380198907144e-04 
5 1  1.739422491769e-05   2.547139012820e-04  -6.767468747587e-05 
6 1  8.466848412370e-05   1.281737803868e-04  -1.631982423776e-04 
7 1  2.128515675356e-05  -2.687814259363e-04   2.997557335998e-04 
8 1  1.620189323752e-05  -3.546270653004e-04   1.130315721633e-04 
8
Step 24000
1 1  5.548354514261e-05  -9.701758131698e-05   3.235353552439e-04 
2 1  1.287818440975e-04  -1.601639476899e-04   1.807371349871e-04 
3 1 -1.737342169229e-04   2.120007888347e-04   1.151204659412e-04 
4 1 -2.686972615984e-04   7.814998521625e-05   6.674910949024e-05 
5 1  1.415939859666e-04   3.970578125108e-05  -3.989535104094e-05 
6 1  6.839695165357e-05   3.890234209504e-05  -8.808889785883e-05 
7 1  1.148937925606e-04  -9.148367830813e-05   1.831151253950e-04 
8 1  1.748621213735e-04  -2.237779493195e-04   1.848428494612e-05 
8
Step 25000
1 1  3.879253977382e-04   1.241507880433e-04   2.127773287119e-04 
2 1  2.224172112804e-04  -8.463815185389e-05   9.755610160218e-05 
3 1 -1.893680883421e-04   1.905057752048e-05   1.906654107842e-05 
4 1 -5.059670211472e-06   9.331834193832e-07   1.501291182895e-04 
5 1  2.196064396682e-04  -7.692325068554e-05  -5.416315481210e-05 
6 1 -5.180485561867e-05   2.248433332034e-04   1.227930006243e-04 
7 1  1.337507679873e-04  -1.533059448513e-04   1.655961167955e-04 
8 1 -2.309412931865e-05  -6.188023592185e-05  -9.542526195917e-05 
8
Step 26000
1 1  2.006133615022e-04  -9.149805401776e-06   1.767325528481e-04 
2 1 -5.745312369249e-05  -9.908652779673e-05   9.033026177583e-05 
3 1 -2.178346093740e-04   1.047363702613e-04   1.063645729103e-04 
4 1  2.491505902817e-04  -1.917020203758e-04   2.601733475457e-04 
5 1  2.595687107118e-05   1.607323158423e-04  -2.578596619639e-04 
6 1  9.437219930463e-05  -6.496403893730e-05   7.332146219022e-05 
7 1  1.150534239182e-04  -5.411729911744e-04   2.409081857157e-04 
8 1  3.755701260492e-06  -1.283083137313e-04   2.691605258283e-04 
8
Step 27000
1 1  9.138121893374e-05  -2.792314623379e-04   6.133577534887e-06 
2 1  1.814832732500e-04   8.787187928347e-05   2.032209190807e-04 
3 1 -1.479510075638e-04   9.402974977105e-05  -1.631753936965e-05 
4 1  2.331558270726e-04  -7.734645322728e-05   1.504103272503e-04 
5 1  1.713563606524e-04   2.853459925948e-05  -2.114576551313e-04 
6 1 -4.805507080925e-05  -1.166887956418e-04   7.459826254765e-05 
7 1  2.145797032152e-04  -2.540983986620e-04   7.497539903580e-05 
8 1 -1.801478697057e-05  -2.535408889135e-04   2.123160249321e-04 
8
Step 28000
1 1  1.233264387729e-04  -3.442742501130e-04   8.775641723622e-05 
2 1  6.540650855402e-05   6.666273473935e-05   2.803932625771e-04 
3 1 -2.965137401312e-04  -1.077057114849e-05  -1.734809517533e-05 
4 1  1.655330822341e-04  -9.312961965087e-05   1.198415176757e-04 
5 1  6.343325230338e-05  -9.102994294758e-05  -1.655717931127e-04 
6 1  9.120347576533e-05  -7.272093421859e-05  -9.225891835464e-05 
7 1  2.911231455685e-04  -2.644147879435e-04   9.032578782498e-05 
8 1 -1.380592716401e-04  -2.423928798577e-04   5.022974289655e-05 
8
Step 29000
1 1  2.028756939907e-04  -1.703500538838e-04   1.630457933531e-06 
2 1  2.329499705634e-04  -2.593328763565e-06   3.020139770711e-04 
3 1  1.576590333561e-05  -1.553401233231e-05   6.700287780246e-05 
4 1  1.650080369083e-04  -6.154288391536e-05  -1.907964712515e-04 
5 1  3.852384795372e-05   1.617568747447e-04  -8.333395694484e-05 
6 1  7.711846910694e-05   7.825404310981e-06  -1.388389865916e-04 
7 1  4.198922985588e-05  -1.486482319397e-04   1.636371810182e-04 
8 1  2.497458787766e-04  -2.681664236799e-04   2.950030150104e-05 
8
Step 30000
1 1 -2.235751916307e-04   4.853461805030e-05  -5.943848813581e-05 
2 1  1.343041687212e-04  -2.355470960682e-04   4.243576145300e-05 
3 1  2.923277060516e-04   6.459615432409e-05  -2.679331268498e-05 
4 1  8.777198520395e-05  -7.123890367177e-05   4.969561320597e-05 
5 1  1.827673374392e-04  -2.628302058358e-04  -1.837899437025e-05 
6 1 -4.987902343216e-05  -1.064104077074e-04  -8.187900585495e-05 
7 1  8.067662964830e-05  -1.714928369914e-04   3.090797612269e-04 
8 1  1.406069285282e-04  -2.590737225366e-04   8.347580062604e-05 
8
Step 31000
1 1 -3.659567764034e-04  -3.037278085751e-05  -1.284237464172e-04 
2 1  3.431367771882e-04  -1.473874879730e-04   1.069770247501e-05 
3 1  1.576134967012e-04  -6.653469086161e-05  -1.576624313009e-04 
4 1  5.590182138349e-05  -7.518196303863e-05  -1.127373151497e-04 
5 1  1.389194124084e-04  -2.638839103581e-04  -8.957754908914e-06 
6 1 -7.141571135968e-05  -1.335366487227e-04  -1.640746239990e-04 
7 1  5.133613457884e-06  -2.765740746625e-04   1.952214941090e-04 
8 1  2.759588993607e-04  -1.750700496333e-04   1.818202493728e-04 
8
Step 32000
1 1 -1.872590768585e-04  -2.618193743171e-04  -1.231399316536e-04 
2 1  4.205866523107e-05   1.899917620129e-04   1.093793774989e-04 
3 1  2.163845852450e-05  -3.489107385025e-04  -2.014311413080e-04 
4 1  1.282440312884e-04  -3.648552713826e-04   2.314839586392e-05 
5 1  1.764562082927e-04  -2.932603416815e-04   1.450837539540e-05 
6 1  9.217724629314e-05  -1.196944032341e-04  -1.046846971330e-04 
7 1 -6.280257326555e-05  -1.367397129075e-04  -6.296552239760e-06 
8 1  1.401498954243e-04   6.790839966654e-06  -1.099972066978e-05 
8
Step 33000
1 1 -7.753470735870e-05  -3.095547946658e-04  -1.073018791063e-04 
2 1  1.426781149979e-04   9.195163612059e-05   2.705064971254e-05 
3 1  2.493804755142e-04  -2.737189389323e-04  -1.502211169874e-04 
4 1  1.202609416703e-04  -1.804852263748e-04  -1.616393061623e-04 
5 1  9.248865876601e-05   6.152435749084e-05  -4.088777687820e-04 
6 1  3.947122170900e-06   5.400355335083e-05  -2.241916497033e-04 
7 1  1.419171248019e-04  -1.711660752603e-04  -5.443518967713e-05 
8 1 -3.217089490763e-05  -2.864397852530e-04   1.258911835431e-04 
8
Step 34000
1 1 -2.979836991673e-04  -4.757735822845e-05  -1.798037220219e-04 
2 1  2.693548404830e-04   3.151665924006e-05   1.556519858399e-04 
3 1  7.750121499350e-05  -1.484771316617e-04  -3.144766815033e-04 
4 1  1.608666548464e-04  -1.284634832823e-04  -2.448271043400e-05 
5 1  1.999745372203e-04  -4.901289877569e-05  -6.599642133756e-05 
6 1 -7.034859614984e-05   8.124254064503e-05   7.995119908943e-05 
7 1  1.105345973023e-04  -7.088783281775e-05  -1.797847020647e-04 
8 1  1.052951346203e-05  -1.997259990631e-04   1.802385979755e-04 
8
Step 35000
1 1  2.709035518226e-05   2.828746368648e-05  -1.180921326000e-04 
2 1 -1.473239331993e-04  -5.740544094603e-05  -2.283628033415e-04 
3 1  2.353018189519e-04  -2.181692064964e-04  -2.040938080327e-04 
4 1  7.200518876884e-05  -2.816361633295e-04  -9.753288866411e-05 
5 1 -3.781170841386e-05  -9.191314455815e-05  -1.128185077274e-04 
6 1  7.752628021666e-05   4.646555663088e-05   1.182985518448e-04 
7 1  1.048588554507e-04  -9.084393111027e-05   7.644431615934e-05 
8 1  9.107856327585e-05  -5.699182592410e-05  -1.834860237053e-04 
8
Step 36000
1 1  8.109247358999e-05   1.811220342071e-04  -9.723228776087e-05 
2 1 -2.550570084654e-04  -1.832165899225e-04  -1.852981392251e-04 
3 1  5.073408804346e-05  -1.687839427165e-04  -2.259754144168e-04 
4 1  1.805987597092e-05  -5.639347246815e-04  -1.229851486329e-04 
5 1  1.212236691892e-04  -1.806688922665e-04   1.958001617454e-05 
6 1 -1.301208324352e-04   6.927932694026e-05   1.183447329353e-04 
7 1 -2.762109532730e-05  -7.788215445299e-05  -8.050501165922e-05 
8 1 -3.044140492554e-05  -8.813272222848e-05  -1.516715041758e-04 
8
Step 37000
1 1  6.021210551500e-05  -1.358565767676e-04  -1.498454339930e-04 
2 1 -2.641798394974e-05  -1.570261794069e-04   1.076040923599e-04 
3 1  6.402783061980e-06  -5.724956337752e-05  -3.058550190647e-04 
4 1  1.673675030401e-05  -1.130918174447e-04  -2.886262421844e-04 
5 1  2.296652603488e-04  -1.456739386015e-04  -1.521594619307e-04 
6 1 -6.848026200324e-05   2.311100040271e-04  -1.703928610114e-04 
7 1 -1.754617614196e-04  -1.548453707970e-04  -8.184945525317e-05 
8 1  3.968314098113e-05  -1.812700198757e-05  -1.936341940519e-04 
8
Step 38000
1 1  3.064370744400e-04  -2.938608549244e-04  -1.094470069578e-04 
2 1 -8.175561859343e-05   2.960192074208e-04   9.123600983483e-05 
3 1 -3.996613953673e-05  -2.135385304273e-05  -2.005508515213e-04 
4 1 -1.007087058974e-04   1.220102914744e-05  -3.366978032774e-04 
5 1  9.401173302407e-06   1.009115922979e-05  -1.460746828234e-05 
6 1  3.910037626951e-05   3.028328481083e-05  -8.549021503537e-05 
7 1 -1.928629661881e-04  -9.647528702309e-05   2.520566761669e-05 
8 1  1.089799916238e-04   1.745503536379e-06  -3.046335310074e-04 
8
Step 39000
1 1  3.053828298941e-04  -1.674218421075e-04  -3.847237864615e-04 
2 1 -2.271274902918e-04   3.069026172771e-04  -1.692106576766e-05 
3 1 -1.511125214640e-05  -9.663535826140e-05  -2.788819250873e-04 
4 1 -2.163635120039e-04  -1.887509176502e-04  -1.306049677193e-04 
5 1  7.777760145664e-05   8.363361857390e-05   6.724622514016e-05 
6 1 -4.671700576001e-05   2.402139011687e-05   1.282062457119e-04 
7 1 -7.718789193367e-05   1.298932827964e-05  -2.622403612034e-04 
8 1 -6.729187422313e-05   1.051086035552e-06  -1.293018606883e-04 
8
Step 40000
1 1  2.680448282094e-05   3.257436773082e-04  -2.467471886012e-04 
2 1 -2.580980974892e-05  -1.029555970519e-06  -6.541102914661e-05 
3 1  8.844468764532e-05  -1.126153959912e-04  -1.196840213381e-04 
4 1 -2.160541592639e-04   1.211920065413e-04  -1.235749122167e-04 
5 1 -1.293140243586e-04  -1.462228736966e-04   1.413761767764e-04 
6 1 -1.814587121851e-04  -8.359943506319e-05   2.004500062645e-05 
7 1 -1.436342428325e-04   6.198718902080e-05  -3.062970996203e-05 
8 1  1.067382135116e-05  -1.635743635210e-06   1.252684501621e-05 
8
Step 41000
1 1 -1.655803690037e-04   3.344159126955e-05  -2.887874867903e-04 
2 1  7.034071218041e-05  -1.940883182042e-05  -8.994957900005e-05 
3 1  6.687041775542e-05   3.534652065942e-06  -1.502428032762e-04 
4 1 -7.541370674384e-05  -2.279378320868e-06  -2.090968547790e-04 
5 1 -7.092723219742e-05  -1.702172239035e-04   6.906635876002e-05 
6 1 -2.077310306925e-04  -1.800449261079e-04  -6.758809612061e-05 
7 1 -2.237086096847e-04   1.868609064173e-04  -2.122688234650e-04 
8 1 -1.709619344959e-04  -6.825664057489e-05  -1.227759555465e-04 
8
Step 42000
1 1  1.364149812307e-04   6.459338240843e-05  -1.003308572490e-05 
2 1 -1.447109574596e-04   2.457388048743e-04   3.055234132556e-05 
3 1  2.982003717386e-04   2.356379104368e-04   4.585894560971e-05 
4 1 -2.363853111753e-04   2.194353987830e-04  -1.582767494958e-04 
5 1 -3.802329171014e-06   4.986069500462e-05  -3.447542975689e-05 
6 1 -2.672207205861e-04  -1.553660451863e-04  -1.024446662061e-04 
7 1 -2.431762384398e-04   1.142300005585e-06  -2.596156587960e-04 
8 1  4.809666588959e-05   1.052006384202e-04  -8.152196342926e-05 
8
Step 43000
1 1 -5.588630452997e-05   7.452224190548e-05  -3.751419095616e-04 
2 1  2.134364515246e-05   3.068637715974e-04   7.075638570257e-05 
3 1  9.865442929106e-05   1.447555043491e-04   7.544764038887e-05 
4 1 -1.601664457317e-04   1.071791404684e-04   4.156294774354e-05 
5 1 -5.676790373747e-06  -2.257652969629e-04   2.920646565302e-04 
6 1 -3.989888236842e-05   9.915262015029e-05  -1.397566100565e-04 
7 1 -2.811621666775e-04   8.360264450069e-05  -2.623243789943e-04 
8 1 -1.015888466714e-04   2.310504899181e-04  -1.012644302199e-04 
8
Step 44000
1 1 -1.887109568726e-04   2.148651311089e-04  -3.299910955549e-04 
2 1  2.205377429891e-05   2.059742051379e-04   2.173624576224e-04 
3 1  5.372308863471e-05   9.152293850689e-05   2.782125973287e-05 
4 1 -3.987626649167e-05   1.288476818525e-04   7.396982139084e-05 
5 1 -1.349958511186e-04   2.733590015469e-05   2.329372589608e-04 
6 1 -2.502337353225e-04   1.840137202122e-04  -1.243199317993e-04 
7 1 -2.326288460970e-04  -8.280491070700e-05   6.202612661724e-05 
8 1  7.651482862320e-05   1.948934642496e-04   3.814672727273e-06 
8
Step 45000
1 1 -3.127434247911e-04   1.645962150657e-04  -2.415457108654e-06 
2 1 -2.929883648676e-04   1.137450232792e-04  -1.930100636452e-04 
3 1  4.151388694062e-04  -1.643181286616e-05   7.200301385810e-05 
4 1 -1.229121659954e-04  -1.207663420568e-05   4.714846063009e-05 
5 1 -1.372684408339e-04  -2.263994314984e-05   2.045270738813e-04 
6 1 -9.098004877115e-05  -1.906792991803e-05   7.012348406582e-05 
7 1 -2.208914705915e-04  -6.898861126169e-05  -1.028878638751e-04 
8 1 -2.750904743810e-04   2.906841595835e-04  -1.005996452233e-04 
8
Step 46000
1 1  1.452968380872e-04   2.985452355538e-04   2.577830332276e-04 
2 1 -1.619069833888e-05   7.666153211286e-05   7.399273651152e-05 
3 1  4.694360538411e-05   2.919402614172e-04  -5.109505631711e-05 
4 1  1.273700011453e-05   5.109997483327e-05   2.236280610112e-05 
5 1 -1.625345138597e-04   4.041188784977e-06   1.196509451226e-04 
6 1 -9.843348617107e-05   2.395605229301e-04   6.771529269719e-05 
7 1 -5.037597350429e-05  -4.710159757955e-06  -5.489439777444e-05 
8 1 -1.980631383159e-04   1.233802739729e-04  -1.556146687014e-04 
8
Step 47000
1 1  4.446720751667e-05   2.381658554597e-04  -1.324310659821e-05 
2 1 -5.854110701504e-05  -9.430065141777e-05   8.804451208896e-05 
3 1 -6.292820080457e-05   2.263354619320e-04   3.325571213219e-05 
4 1 -5.355903032416e-05   8.971037140074e-05   9.634412271709e-05 
5 1 -7.740847278661e-05  -6.937756251536e-05   3.391308043776e-04 
6 1 -1.350024901669e-04   6.468287412378e-05   3.280909633610e-05 
7 1 -1.526967387025e-04   1.383951918486e-04  -1.838199200152e-04 
8 1 -6.883880502878e-05   9.546971240345e-05  -1.981513210298e-04 
8
Step 48000
1 1  1.732260581929e-04  -1.036062863687e-04   1.576563538859e-04 
2 1 -3.094537327155e-04   1.543463570506e-04   7.751744505654e-05 
3 1  1.288860132180e-04   3.535335529977e-04   2.666691507687e-04 
4 1 -2.025951787802e-04   5.983475367940e-05  -4.307049686390e-05 
5 1  1.339835404576e-04   1.823447496190e-04   2.842861722419e-04 
6 1  4.006956141417e-05   1.835362702656e-04   4.387388660928e-04 
7 1 -8.494175029606e-05   4.340086180940e-04  -6.763051288583e-05 
8 1 -8.878059153942e-05   1.214381630094e-04  -1.375085295151e-04 
8
Step 49000
1 1  5.542806992110e-05  -2.657121319387e-04  -5.744519225600e-06 
2 1 -3.184670578369e-04   1.127218407794e-04   9.608199352625e-05 
3 1 -5.600805733998e-05  -5.125097106399e-06   9.711947520743e-05 
4 1 -2.798796528756e-04  -5.496777968094e-05  -1.983671763631e-04 
5 1  1.581607142593e-04   7.725822831800e-05   4.727652711891e-04 
6 1 -1.423849902461e-04   2.099035526101e-04   1.870271129656e-04 
7 1 -1.673641125619e-04   7.576784882630e-05   7.616567477945e-05 
8 1  3.012713261026e-05   4.314837529398e-05   2.434347687259e-05 
8
Step 50000
1 1  1.406807376640e-04  -8.491821662190e-05   3.496506104039e-04 
2 1 -5.632323060582e-05   7.173859742647e-05   1.939697601748e-04 
3 1  6.224361070406e-06  -1.163610495314e-04  -7.148043653963e-05 
4 1 -2.714451071856e-04   1.559904070500e-04  -1.815388391070e-04 
5 1  1.414838790227e-04  -3.620056393702e-05   4.438910746668e-04 
6 1  8.883253539715e-05   2.246280664841e-04   2.366491619208e-05 
7 1 -1.154604481830e-04   1.718107529300e-04  -1.052311556656e-04 
8 1 -4.100405249713e-05   2.284737625600e-04  -9.131044870379e-05 
8
Step 51000
1 1  2.620085501490e-04  -1.189997529431e-04   2.247878231808e-04 
2 1 -5.923893144994e-05   1.419547876976e-04   1.522381311491e-04 
3 1  6.516947814719e-05  -1.869320055107e-04   6.576152534879e-05 
4 1 -3.008414906631e-04   1.808254795784e-04  -1.359365527301e-04 
5 1  1.043270186780e-04   6.379744282938e-05   3.372432767578e-04 
6 1 -9.271953929824e-06   6.226201661671e-05   9.290593357325e-05 
7 1 -8.218813426823e-06  -1.483512458392e-05  -8.055753577347e-05 
8 1  9.839826688359e-05   2.285972450988e-04   4.086551011525e-05 
8
Step 52000
1 1  1.567842624890e-04  -2.270334994056e-04   3.102769264796e-04 
2 1  1.339690493009e-06  -2.888982580670e-04   3.842993141310e-05 
3 1 -2.177401258908e-06  -3.074371701972e-05  -1.832947309505e-05 
4 1  9.179731719853e-06   4.527119152509e-04  -5.838620064353e-05 
5 1  7.782151479397e-05  -9.768262891191e-06   2.852409842773e-04 
6 1  2.046071727728e-04   1.055263962672e-04   1.092656053740e-04 
7 1  2.441179285630e-04   1.281984728774e-04  -2.095439303006e-05 
8 1  1.644104344382e-05   5.476032991178e-04   1.823918702152e-04 
8
Step 53000
1 1  2.509521157072e-05  -2.791257012508e-04  -1.410587762761e-05 
2 1 -6.742189856429e-06  -3.840796878298e-04   1.390358051248e-04 
3 1 -3.260198945270e-04   1.663110812749e-04   3.694408837205e-05 
4 1 -3.318295004657e-05   2.674822912264e-04  -4.270150781845e-05 
5 1  2.869760584339e-05  -1.349719683102e-04   1.867185952882e-04 
6 1  1.814818644476e-04   8.110172609810e-06   5.779660748946e-06 
7 1  6.585909631710e-05   4.138350899830e-05   1.183367991410e-04 
8 1 -3.680981695873e-05   8.677098049134e-05   3.926459901101e-04 
8
Step 54000
1 1  1.492498007091e-05  -1.171156862830e-04   1.980203662961e-04 
2 1  3.126705367762e-05  -2.301942214976e-04  -1.240419099886e-04 
3 1 -1.031241053710e-04   7.880054761085e-06   1.072368197960e-04 
4 1 -1.329713029971e-04   7.929524683562e-05   1.545582489165e-05 
5 1  1.209139889030e-04  -5.117225931330e-05   1.490769688330e-04 