8
Step 0
1 1  0.000000000000e+00   0.000000000000e+00   0.000000000000e+00 
2 1  0.000000000000e+00   0.000000000000e+00   0.000000000000e+00 
3 1  0.000000000000e+00   0.000000000000e+00   0.000000000000e+00 
4 1  0.000000000000e+00   0.000000000000e+00   0.000000000000e+00 
5 1  0.000000000000e+00   0.000000000000e+00   0.000000000000e+00 
6 1  0.000000000000e+00   0.000000000000e+00   0.000000000000e+00 
7 1  0.000000000000e+00   0.000000000000e+00   0.000000000000e+00 
8 1  0.000000000000e+00   0.000000000000e+00   0.000000000000e+00 
8
Step 1000
1 1 -1.811861451979e-04  -5.558049064274e-06   2.202182122463e-04 
2 1 -7.556500953305e-05   3.715097376147e-04  -6.856822530383e-05 
3 1 -1.968212212698e-05   1.290870195280e-04  -2.051162357758e-04 
4 1 -2.731313124073e-04   1.269181857484e-04   2.877403777468e-04 
5 1 -4.144332526040e-04   4.201761723405e-04  -1.005606006678e-04 
6 1  2.314453510630e-04  -6.428890617061e-04  -3.335835864571e-04 
7 1  2.764940935017e-05   5.377164267506e-04   3.297888048400e-04 
8 1  3.774631120240e-04  -1.267891410710e-04  -1.138974449097e-04 
8
Step 2000
1 1 -7.191955842476e-05   4.558351912154e-05   4.056927828649e-05 
2 1 -3.642922235966e-04   2.175964333384e-04   3.125339740650e-04 
3 1  1.658720588468e-04   3.967703769398e-05   1.233055967151e-04 
4 1 -6.414337678415e-05  -1.176863125285e-04   1.425128287414e-04 
5 1 -1.324489714851e-04  -2.635491965009e-04   5.719856706515e-05 
6 1  1.145396762949e-04   3.193958709844e-04  -2.430755363819e-04 
7 1 -3.878803958874e-07  -2.731277379003e-04  -1.017924604979e-05 
8 1 -2.056360566915e-04   2.091676178804e-04   2.976106332897e-04 
8
Step 3000
1 1 -2.263783726728e-04  -2.803781109410e-05   1.498627676472e-04 
2 1  9.476129582707e-05   2.716148729729e-04   3.838309711054e-06 
3 1  9.534143019795e-05  -1.140447421976e-04  -1.482340592397e-04 
4 1  3.973287043486e-07   9.131373968294e-05   1.645668173315e-04 
5 1 -3.202422122617e-04   3.528156661387e-04  -2.663770674705e-04 
6 1 -6.714183099058e-05  -5.872385567395e-04  -8.462208750945e-05 
7 1 -2.215030583308e-05   2.081711756684e-04   1.624168155267e-04 
8 1  1.614730049623e-04  -3.328456588616e-05   1.688826277054e-04 
8
Step 4000
1 1  4.975841356758e-05  -1.218080424991e-04  -2.281335529242e-05 
2 1 -2.721736217449e-04   1.020791738208e-04   1.205199886480e-04 
3 1  2.524501140888e-04   1.596100430542e-04   7.658705110678e-05 
4 1 -2.867302213892e-04  -1.407186502989e-04  -4.975814411030e-05 
5 1 -1.141934124987e-04  -2.360767042114e-04   2.616556341195e-04 
6 1  2.454766683494e-04   6.892368380095e-05  -2.266495597934e-04 
7 1  8.591778480860e-05  -1.782328732610e-04   1.750593363838e-04 
8 1 -8.404343742066e-05   2.789984483971e-04   8.986015069400e-06 
8
Step 5000
1 1 -1.564071319925e-04  -1.925330982822e-05   7.811659493679e-05 
2 1  1.201844269721e-04   2.050518022222e-04   9.317874534348e-05 
3 1  3.439402710882e-05  -3.592409570534e-04  -2.583712593757e-04 
4 1  2.550655174556e-04   7.630696902156e-05   3.922195086586e-04 
5 1 -2.957740175666e-04   6.501033669755e-05  -4.504176620416e-04 
6 1  1.531714828803e-05  -2.401254742511e-04  -1.855896895871e-05 
7 1  4.553983581399e-05   3.304385432818e-05  -1.379307698620e-04 
8 1 -9.770536725930e-09   3.588277777105e-05   3.646861533368e-04 
8
Step 6000
1 1  5.050923290007e-05  -1.009387606779e-04   1.452378071057e-05 
2 1 -1.109484777611e-04   5.473422252933e-05  -8.892343048509e-05 
3 1  2.106433734551e-04   2.170010768782e-04   1.414170091586e-04 
4 1 -4.123701931687e-04  -9.393610279039e-05  -8.145872157802e-05 
5 1  1.465043957579e-05  -7.790905830092e-05   3.408219035413e-04 
6 1  4.094855845540e-04  -1.263956135252e-04  -2.843720579597e-04 
7 1  2.196663478603e-04   5.481762952748e-05   2.961315622748e-04 
8 1 -2.202226731630e-04  -6.176040086506e-05  -2.975135705814e-04 
8
Step 7000
1 1 -5.142444327276e-05   1.509580117720e-05  -8.464798030194e-05 
2 1  4.464359884585e-05   7.205795857451e-05   1.722902451818e-04 
3 1 -1.213303467628e-06  -4.122588153844e-04  -1.351711151041e-04 
4 1  3.194365152112e-04   8.917095935961e-05   1.889499696505e-04 
5 1 -1.022090719556e-05   4.646385836395e-05  -4.457308834515e-04 
6 1 -4.073578000417e-06   1.020940287103e-05  -5.597869338795e-05 
7 1 -7.501908860145e-05  -1.303095561045e-04  -1.581330138477e-04 
8 1 -1.106074461135e-04   4.660399952813e-05   4.842386210295e-04 
8
Step 8000
1 1 -6.391086728396e-06  -1.446437205704e-04   2.533027273846e-05 
2 1  5.462463957383e-05   8.442204359467e-06  -1.997900245584e-04 
3 1  2.076239490678e-04   2.091116560012e-04   1.685593163475e-04 
4 1 -2.054758344050e-04  -7.792262904750e-05  -2.976207876822e-04 
5 1 -6.200826087988e-05   1.408477547031e-04   3.107884357426e-04 
6 1  6.860536599696e-05  -4.643724331675e-04  -1.209644574874e-04 
7 1  3.207212154346e-04   2.619853501145e-04   4.100539674591e-04 
8 1 -1.546304138279e-04  -1.262397232840e-04  -3.650689870536e-04 
8
Step 9000
1 1  8.900323868116e-05  -1.093294212703e-05  -1.718789795331e-04 
2 1 -1.095161402806e-04   1.599329275976e-05   2.554163562452e-04 
3 1 -4.586031528448e-05  -3.831761019653e-04  -1.816061214737e-04 
4 1  1.868514981401e-04   3.648126995395e-06   2.155224684318e-04 
5 1 -1.337479269810e-04  -2.747956712867e-05  -2.606811590513e-04 
6 1 -8.069647855524e-05   1.537960643604e-04  -1.153835010095e-04 
7 1  2.130333095832e-04  -4.447771877419e-05  -6.358793513806e-05 
8 1  2.502213854525e-05   1.426464680722e-04   2.198141147117e-04 
8
Step 10000
1 1 -1.477106947667e-04  -6.929956062501e-05   8.954693279931e-05 
2 1  2.003838916969e-04   5.735278981302e-05  -2.288495759834e-04 
3 1  1.404856810793e-04   7.095021437723e-05   7.322419340596e-05 
4 1 -8.083281354235e-05  -1.770175994759e-05  -1.019465148696e-04 
5 1 -9.040108398472e-05   1.667393229784e-04   7.104151745108e-05 
6 1  2.241389761512e-04  -3.238444504072e-04   7.517124252424e-06 
7 1  1.218583320862e-04   1.945016667787e-04   2.603493433612e-04 
8 1 -2.241630710892e-04  -1.689464271370e-04  -2.696195899453e-04 
8
Step 11000
1 1  2.018786558339e-04  -3.652807800345e-05  -1.767859486994e-04 
2 1 -1.569958635166e-04  -1.578471355713e-06   2.837590225162e-04 
3 1 -2.811185014832e-05  -1.718536732923e-04  -5.033550480132e-05 
4 1  2.926733650101e-06   1.450716129641e-05  -1.293645500597e-05 
5 1  9.808961633029e-05   7.650895692829e-05  -1.597710032523e-04 
6 1  8.880309512614e-05   1.267131319052e-04  -7.997643021426e-05 
7 1  2.067292063862e-05  -8.676390692977e-05   5.365909387379e-05 
8 1 -1.778752802952e-04   2.696249302489e-05   7.584506807651e-05 
8
Step 12000
1 1 -2.127179822636e-04  -2.218847032148e-05   3.133867519775e-05 
2 1  1.962951694533e-04   1.556615338211e-05  -1.081875798192e-04 
3 1  4.251074244120e-05  -6.135388513992e-05  -1.050253413355e-05 
4 1  6.751979433795e-05   1.329729063564e-04  -2.104364384012e-05 
5 1  7.625244043813e-05   1.220192951888e-04  -1.300517512848e-04 
6 1  7.227231159779e-06  -3.131653712002e-04   1.569078853166e-04 
7 1 -1.504181661716e-04   1.439716233511e-04   1.233090929725e-04 
8 1  5.466267385287e-05  -6.097497640592e-05  -7.841831884950e-05 
8
Step 13000
1 1  2.583107741003e-04  -6.480936219363e-05  -1.534768768483e-04 
2 1 -2.040346813078e-04  -2.247911263697e-05   1.454548473944e-04 
3 1  2.714364735300e-05   9.187632201363e-05   9.041446744114e-05 
4 1 -1.846942905759e-04  -1.182084612483e-04  -1.774826676087e-04 
5 1  8.128056008696e-05   2.929738438524e-05   1.763919594536e-04 
6 1 -1.068307417358e-04   7.781337575422e-06  -8.152097004088e-05 
7 1  8.471344267363e-05   1.334816615518e-04   1.486808880274e-04 
8 1  3.135892286277e-05   1.673729628459e-05  -1.871946031321e-04 
8
Step 14000
1 1 -2.212531586744e-04   5.373277557263e-05   6.766828003170e-05 
2 1  1.478673417362e-04   6.989332242324e-05   6.027734828641e-06 
3 1 -5.577892901330e-05  -3.332842538436e-04  -1.666919299666e-04 
4 1  2.391194040900e-04   1.558209527608e-04   3.518077784094e-04 
5 1 -1.384509635611e-04   5.015592587153e-05  -3.637423775352e-04 
6 1  4.934583991547e-05   7.046001302809e-05   4.468886614580e-05 
7 1  2.813545654408e-06   4.276318189072e-05  -4.090660534094e-05 
8 1 -5.169269658603e-05  -9.538680165428e-05   1.225671792246e-04 
8
Step 15000
1 1  2.174222423377e-04  -9.182550980783e-05  -5.681847257329e-05 
2 1 -1.109224392701e-04  -2.799138131846e-05   1.091977662806e-05 
3 1  1.276668379294e-04   2.558521237736e-04   2.222290304742e-04 
4 1 -3.741299710347e-04  -9.847749776418e-05  -4.060299134919e-04 
5 1  9.492837149005e-05   1.904289889312e-04   3.281311123660e-04 
6 1  1.235849238348e-04  -1.399160625801e-04  -1.564087932177e-04 
7 1  8.631073250796e-05   8.732551405683e-05   3.121330026403e-04 
8 1 -1.771103802527e-04  -1.459109415758e-04  -2.216264787288e-04 
8
Step 16000
1 1 -1.573449739062e-04   5.531687138497e-05  -4.321425358498e-05 
2 1  4.171111163017e-05   3.583029388468e-05   1.483022996282e-04 
3 1 -1.090537035200e-04  -4.258897575867e-04  -1.345343804107e-04 
4 1  2.354191194440e-04   2.419060048176e-04   3.171982972430e-04 
5 1  3.621857064207e-05   1.265828609511e-05  -5.192725429221e-04 
6 1  1.601362590150e-05   1.095285584513e-04   2.898730209674e-04 
7 1 -1.900645691228e-04  -5.119199840144e-05  -5.640953914829e-05 
8 1  7.683019185319e-05   5.713588901036e-05   3.672606886034e-05 
8
Step 17000
1 1  8.285636719677e-05  -1.027303629584e-04   9.180395836692e-06 
2 1  2.378926356969e-05  -2.943485867923e-05  -6.110996875362e-05 
3 1  8.177112383167e-05   3.446165798880e-04   1.393302261232e-04 
4 1 -3.271525042952e-04   7.595313614680e-06  -3.629393774632e-04 
5 1  4.258531951277e-05   7.546260663600e-05   4.123933903089e-04 
6 1  3.101067618042e-05  -2.902929142157e-04  -5.471671897607e-05 
7 1  1.750906627203e-05   1.483170990706e-04   1.298323163668e-04 
8 1  9.945189986868e-06  -1.128631279610e-04  -1.757538310710e-04 
8
Step 18000
1 1  2.803247936163e-06   8.239841567441e-05  -8.049100558610e-05 
2 1 -1.281068823919e-04   4.028762915205e-05   2.410683530287e-04 
3 1 -1.033141059137e-04  -3.165286827222e-04  -1.192267152577e-04 
4 1  1.844227636426e-04   6.106039141724e-05   3.026888514675e-04 
5 1  6.741630234601e-05  -5.824178013854e-05  -4.177561100231e-04 
6 1 -7.796101986303e-05   2.747672544057e-04   1.322009042794e-04 
7 1 -3.382079089242e-05   1.491722958058e-05  -1.006464424406e-04 
8 1  1.476945574951e-05  -9.958408215220e-05   9.097950059962e-05 
8
Step 19000
1 1 -5.976960688871e-05  -4.543646800816e-05   1.601121712868e-04 
2 1  1.798755895456e-04  -2.590185881403e-05  -1.571127866146e-04 
3 1  4.389050006164e-05   1.687254053701e-04   5.150720332356e-06 
4 1 -2.008553798576e-04   1.419247612131e-05  -1.399081957514e-04 
5 1 -1.372399313790e-04   1.168388096770e-04   2.935989103351e-04 
6 1  5.740224560288e-05  -1.243297606977e-04  -2.210860420499e-04 
7 1  1.896225282884e-04  -3.288657610712e-05   1.498985379890e-04 
8 1 -6.794784191855e-05  -6.688397934311e-05  -6.739947412545e-05 
8
Step 20000
1 1  1.766067681369e-04   1.411848339178e-05  -1.880998203371e-04 
2 1 -2.783653437067e-04  -1.261324862964e-05   2.611533049796e-04 
3 1 -6.345821744548e-05  -1.125197766110e-04   3.064099945810e-05 
4 1  1.322385016313e-05  -4.877892148454e-05   9.074625002109e-07 
5 1  1.378018397130e-04   1.240779001433e-04  -2.290675010787e-04 
6 1  6.925501593052e-05   6.332854812794e-05   1.310330328441e-04 
7 1 -1.274370466032e-04  -2.017738176510e-05  -1.890413994830e-05 
8 1  2.086452772905e-05   3.780037067097e-05   2.779644377741e-06 
8
Step 21000
1 1 -2.250139630765e-04  -2.572713982610e-05   1.595307806354e-04 
2 1  2.527501507530e-04   4.639189622789e-05  -2.043714945090e-04 
3 1 -1.838697706261e-06  -6.824246023055e-05  -3.498891750961e-05 
4 1 -1.643313494251e-05   2.072211122482e-04   5.636780293500e-05 
5 1 -1.136313552935e-04   5.530572422023e-05   3.503266048789e-05 
6 1 -2.902158535052e-05  -1.916645194430e-04   2.564335738897e-05 
7 1 -3.937224653555e-06   4.444387915193e-05  -1.352066978865e-05 
8 1  1.329628745038e-04  -1.005035098355e-04  -2.885778908423e-06 
8
Step 22000
1 1  2.637153844583e-04  -4.998871066092e-05  -1.487687414163e-04 
2 1 -2.414989197724e-04  -5.761028650887e-05   2.075978618713e-04 
3 1  1.281406571668e-05   1.161868355867e-04   1.490500403160e-04 
4 1 -1.343455265736e-04  -6.796912756294e-05  -2.624830597442e-04 
5 1  1.707186673160e-04  -3.700083559535e-05   1.182779418841e-04 
6 1  1.381640644903e-04   1.062840846830e-04  -1.037316557270e-04 
7 1 -1.652969365564e-04   6.131865171688e-05   7.447673242055e-05 
8 1 -6.136150653091e-05  -6.973900366468e-05  -4.593458972720e-05 
8
Step 23000
1 1 -2.906874544981e-04   9.404775195701e-05   1.091367093267e-04 
2 1  1.974458429301e-04   1.223849933691e-04  -9.264578611159e-05 
3 1 -4.436967622484e-05  -2.766065781358e-04  -2.272669475596e-04 
4 1  2.200075982313e-04   1.626215321153e-04   4.302514789795e-04 
5 1 -1.030049075243e-04   1.262105557141e-05  -3.445016084855e-04 
6 1 -1.200280723684e-04   4.884351240597e-06   1.225903676357e-04 
7 1  1.780792771119e-04  -1.077093831437e-04  -9.404037207474e-05 
8 1 -1.990653979919e-05  -1.759693310545e-05   8.058558517957e-05 
8
Step 24000
1 1  2.443680402136e-04  -8.117635587067e-05  -9.540032357027e-05 
2 1 -1.311264486285e-04  -1.315326029365e-04   1.229263772369e-04 
3 1  3.470998669266e-05   2.881334400919e-04   1.305309749020e-04 
4 1 -3.122974045420e-04  -6.764216173114e-05  -4.898726545556e-04 
5 1 -1.687826418776e-05   1.518754356234e-04   3.866463876665e-04 
6 1  2.194294232699e-04   2.952834256129e-05  -2.255326450696e-04 
7 1  3.004570505560e-05  -9.530635696987e-05   1.531609091756e-04 
8 1 -9.966247023161e-05  -6.273544356387e-06  -5.263396611687e-05 
8
Step 25000
1 1 -2.412903549235e-04   1.172605975276e-04   2.188928485337e-05 
2 1  4.321215644765e-05   1.092865034032e-04  -6.726909849066e-06 
3 1 -1.371025982921e-04  -3.490594009732e-04  -2.659684592555e-04 
4 1  3.106077575042e-04   1.860463539696e-04   5.289666396912e-04 
5 1  4.445587812176e-05   8.698603187629e-05  -4.653323729962e-04 
6 1 -9.977680905237e-05  -5.238443074352e-05   1.634806118565e-04 
7 1 -2.666168619548e-05  -5.866897718567e-05  -9.926192507407e-05 
8 1  7.754527456525e-05  -2.946983844204e-05   1.030457367494e-04 
8
Step 26000
1 1  1.475041195509e-04  -1.112822352202e-04   3.432678824620e-05 
2 1  1.438212520306e-05  -9.579133971579e-05  -3.735949449288e-05 
3 1  9.589763742006e-05   3.454361801080e-04   1.592344049145e-04 
4 1 -2.859852022839e-04  -2.102740199535e-05  -5.046410663701e-04 
5 1 -1.192462997560e-04  -4.301187216698e-05   4.753915925214e-04 
6 1  5.430067520079e-06   4.517337530374e-05  -1.967159467989e-04 
7 1  1.268934725613e-04   1.069560892950e-04   3.501641285959e-05 
8 1  3.010794269451e-05  -1.641458892162e-04  -2.042937058363e-05 
8
Step 27000
1 1 -1.089364140382e-04   1.230331074317e-04  -1.063158617911e-04 
2 1 -9.879909479743e-05   8.328792211280e-05   9.183347624242e-05 
3 1 -1.118894476417e-04  -2.940053915844e-04  -1.258977039347e-04 
4 1  2.931531314656e-04   6.969803676627e-05   4.458661182387e-04 
5 1  1.143434768498e-04  -2.104197444890e-05  -4.427666377571e-04 
6 1 -1.583243414046e-04   2.040699891005e-04   8.003142869281e-06 
7 1  1.341002658573e-04  -8.685885424123e-05  -6.403431014637e-05 
8 1 -8.629780424331e-05  -3.943029804067e-05   1.629975945146e-04 
8
Step 28000
1 1 -2.201823382645e-05  -5.504608706138e-05   1.206995869079e-04 
2 1  1.681877757267e-04  -6.200222893546e-05  -1.108408227764e-04 
3 1  8.136972261200e-05   1.824246512081e-04   5.146200030284e-05 
4 1 -2.070628203218e-04  -1.166387986574e-05  -2.828561875271e-04 
5 1 -1.867825616438e-04   6.799677980432e-05   2.588723879020e-04 
6 1 -1.405487309795e-05  -5.602958589900e-06  -2.358593467072e-05 
7 1  2.865393904328e-04  -8.360042193392e-06  -2.033021136295e-05 
8 1 -7.507595648695e-05  -8.875710307789e-05  -1.059725965306e-05 
8
Step 29000
1 1  9.868698148222e-05   1.374462681735e-05  -1.763884390651e-04 
2 1 -1.966981195509e-04  -3.373922466776e-05   1.585382563028e-04 
3 1 -8.640647512605e-05  -1.498069102000e-04  -1.124605886717e-05 
4 1  5.287753399172e-05  -4.947268493637e-06   1.572550165678e-04 
5 1  1.524299343233e-04   8.035018689381e-05  -1.513751856680e-04 
6 1  8.473697977502e-05   1.228403781097e-04  -5.218241692828e-05 
7 1 -8.106572903981e-05  -3.107108750049e-05   4.529676035086e-05 
8 1 -2.681163584505e-05  -1.253832073545e-05   4.084076931302e-05 
8
Step 30000
1 1 -1.613997705503e-04  -2.835877741866e-05   2.175480141911e-04 
2 1  2.496019079870e-04   1.221664814487e-05  -1.571793094281e-04 
3 1  6.770539024991e-06  -1.906986212383e-05  -1.442651641217e-04 
4 1 -6.897404303361e-06   7.684661368009e-05   6.830735640855e-05 
5 1 -9.582882443745e-05  -1.782849163392e-05   9.029028744065e-05 
6 1 -2.430031958107e-04  -1.477460952967e-04   6.539569956673e-05 
7 1  1.160520494635e-04   1.965372718488e-04  -1.690201718254e-04 
8 1  2.080159754087e-04  -1.208880656268e-04   5.615617406286e-05 
8
Step 31000
1 1  2.320493540070e-04  -3.264169161665e-05  -2.158708064160e-04 
2 1 -2.169300061913e-04  -1.093147638706e-04   1.924657309701e-04 
3 1 -8.176533734631e-05   8.153149845959e-05   1.910093022125e-04 
4 1 -3.049070848032e-05  -1.034267771980e-04  -1.861652516215e-04 
5 1  1.301043246245e-04  -9.029854016023e-05   1.775557753115e-04 
6 1 -1.070452566010e-04   2.627224709532e-04  -2.668716481585e-04 
7 1 -1.508535042544e-06   1.366400778912e-04   3.250121542766e-05 
8 1  8.092174842784e-05  -1.396937765207e-04   7.628940235464e-05 
8
Step 32000
1 1 -2.438319390690e-04   8.005686057835e-05   1.658248416097e-04 
2 1  2.208731680008e-04   9.017457588166e-05  -1.106182209177e-04 
3 1  4.956681623114e-06  -2.090695221004e-04  -2.143639419048e-04 
4 1  1.840021714131e-04   6.473380268316e-05   3.739165656527e-04 
5 1 -1.504506011357e-04  -2.498968555462e-05  -2.878080551948e-04 
6 1 -1.711170606582e-04  -8.110393803865e-05   1.539117014463e-04 
7 1  1.858537456659e-04   4.707867384333e-05  -1.210141857861e-04 
8 1 -9.187170283262e-07  -7.020218818338e-06   6.904072068568e-05 
8
Step 33000
1 1  2.807432897864e-04  -1.062563626414e-04  -1.567927623038e-04 
2 1 -1.495316726125e-04  -1.793843042985e-04   1.087187855231e-04 
3 1 -2.287446082578e-05   2.625732626866e-04   2.353499891133e-04 
4 1 -2.602231939040e-04  -1.300064780584e-04  -4.596214477046e-04 
5 1  6.397130509996e-05   3.169981156636e-05   3.915173088082e-04 
6 1  1.400484263355e-04   2.082269125690e-04  -1.658294062677e-04 
7 1 -5.147135266385e-05  -2.886944852318e-05   1.269078424856e-04 
8 1 -2.282140167989e-06  -6.487324585309e-05  -7.129501386293e-05 
8
Step 34000
1 1 -1.972299832737e-04   6.289533989569e-05   1.167391269684e-04 
2 1  1.171001420179e-04   1.091393594674e-04  -3.524373876594e-05 
3 1 -6.459959362122e-06  -3.110005001488e-04  -2.552813241846e-04 
4 1  1.743073587865e-04   3.254574077928e-05   5.268813188509e-04 
5 1 -5.699053702874e-05   7.196262098822e-05  -4.473426077242e-04 
6 1 -1.357605946888e-04  -1.251796179721e-04   1.661685625748e-04 
7 1 -1.178717944015e-05   6.089304334346e-05  -1.258067090959e-04 
8 1  1.588596967431e-04  -6.799109900756e-06   1.207495119822e-04 
8
Step 35000
1 1  2.172608476140e-04  -1.296460120417e-04  -4.059019260503e-06 
2 1 -4.068310409227e-05  -1.393243037723e-04  -5.845732574563e-06 
3 1 -2.122373437987e-05   3.098219617559e-04   1.816766379825e-04 
4 1 -2.299247165267e-04   1.113580372756e-05  -5.233478739804e-04 
5 1  4.230479243866e-05  -1.124260390106e-04   5.236431918594e-04 
6 1 -1.511255938702e-04  -3.429088231578e-05  -1.354505382444e-04 
7 1 -6.390286522953e-05   2.797131121136e-04   1.660348038511e-05 
8 1  2.561372521589e-04  -1.803934287086e-04  -5.472744197627e-05 
8
Step 36000
1 1 -1.449243170265e-04   1.315940088549e-04  -5.258024907690e-05 
2 1 -6.950469465974e-06   1.016244400662e-04   6.817121818816e-05 
3 1 -2.920977026277e-05  -2.833226252150e-04  -1.347734371071e-04 
4 1  2.607506499502e-04  -8.777102780491e-05   5.494937540803e-04 
5 1  7.680501345991e-05  -2.830944398731e-05  -4.246511262481e-04 
6 1 -1.815180848047e-04   3.859984495356e-05  -6.995061443673e-05 
7 1  2.007271938489e-05   8.650427961832e-05  -4.630079611849e-05 
8 1 -2.996597757933e-05   9.662357801243e-06   1.345711029018e-04 
8
Step 37000
1 1  7.244702037703e-05  -7.431879365126e-05   9.368632859003e-05 
2 1  1.113658550036e-04  -1.192404301188e-04  -5.927063623105e-05 
3 1 -2.390257114912e-05   2.149032888055e-04   5.983461244447e-05 
4 1 -1.911966110912e-04   6.649993279297e-05  -3.650171231693e-04 
5 1 -1.240790202583e-04   2.029677291810e-05   2.974085009642e-04 
6 1 -1.207579112544e-04  -3.396953214896e-05   4.028332134184e-05 
7 1  1.706625925253e-04   2.145468086476e-04   2.285346443197e-05 
8 1  1.058379513993e-04  -2.794516351104e-04  -9.633063411383e-05 
8
Step 38000
1 1  4.969067109818e-05   4.192558894590e-05  -1.370243155303e-04 
2 1 -1.360289047771e-04   2.317593736189e-05   1.459955235798e-04 
3 1 -8.201180814889e-05  -1.130317542183e-04  -1.467571461877e-05 
4 1  1.242507152783e-04  -1.932811340803e-04   3.073824610146e-04 
5 1  1.523160141905e-04   4.157201293075e-05  -2.274981944488e-04 
6 1  6.090682828741e-05   1.337869609887e-04  -8.137960869445e-05 
7 1 -2.626899705532e-04  -8.700994984288e-05   3.125941461190e-05 
8 1  6.191787909462e-05   1.377534755819e-04  -1.271691474866e-05 
8
Step 39000
1 1 -6.328964321884e-05  -5.307400297354e-05   2.027225568994e-04 
2 1  1.192277549955e-04  -8.489425147853e-06  -1.570220128846e-04 
3 1  1.228819328864e-04   2.155142599839e-04  -5.310012920452e-05 
4 1 -1.623623550562e-04   1.462471040531e-04  -1.188364727169e-04 
5 1 -1.326216072837e-04   1.795199766250e-04   8.266314497047e-05 
6 1 -7.222083890072e-05  -3.038419754567e-04   2.765333604302e-04 
7 1  2.554632570219e-04  -1.061974350382e-05  -4.661116156618e-05 
8 1 -6.420677789936e-05  -1.834642089608e-04  -1.760002563720e-04 
8
Step 40000
1 1  1.451033661501e-04   3.023772086091e-05  -2.232646811995e-04 
2 1 -1.842061420468e-04  -3.737039086726e-05   1.600530237039e-04 
3 1 -9.611499147530e-05   5.300703421309e-05   1.516519886067e-04 
4 1 -3.786311705942e-05  -2.071590088537e-04  -7.740987066638e-05 
5 1  2.291413744862e-04  -1.350565325362e-05   1.878264709277e-04 
6 1 -8.229319073773e-05   5.730133810592e-05  -2.044441500503e-04 
7 1 -1.618616518568e-04   1.268384151959e-04  -2.212563672802e-05 
8 1  1.483303708506e-04   4.740147963576e-06   2.085135511770e-05 
8
Step 41000
1 1 -1.969588048116e-04   3.327502993649e-05   2.142891283233e-04 
2 1  1.304161318095e-04   9.910191104280e-05  -1.774237325800e-04 
3 1  9.514998122981e-05  -4.063183444578e-06  -1.846465202556e-04 
4 1  1.298213101234e-04   1.462989555166e-04   2.322248703795e-04 
5 1 -1.639115270328e-04   3.321001703327e-05  -1.986416677080e-04 
6 1 -2.343139795072e-04  -9.510248017702e-05   9.629397473103e-05 
7 1  3.229399523363e-04   9.536376079554e-06  -1.119954229747e-05 
8 1 -1.313273773484e-04  -1.695223940173e-04  -1.745282112093e-06 
8
Step 42000
1 1  2.733079165716e-04  -3.394249295242e-05  -2.450951965199e-04 
2 1 -1.432501262722e-04  -1.243442629270e-04   1.458764566503e-04 
3 1 -7.601309582024e-05   1.662099572629e-04   2.791227602674e-04 
4 1 -1.815791534736e-04  -4.683679936737e-05  -4.146090752404e-04 
5 1  1.229115836835e-04  -4.373329083406e-05   3.004963976488e-04 
6 1  1.375031160956e-04   1.017433195735e-04  -4.487853344357e-05 
7 1 -1.417914868249e-04  -8.784189942633e-05  -3.625562915971e-06 
8 1  1.164379815233e-05   1.197229716823e-04  -5.101875130543e-05 
8
Step 43000
1 1 -2.048906675306e-04   2.659247060060e-05   1.462029280652e-04 
2 1  8.911441773759e-05   9.293766167556e-05  -1.276508008897e-04 
3 1  4.546157851148e-05  -1.233492739713e-04  -2.433875780029e-04 
4 1  2.116971320925e-04   2.439105925683e-05   4.333681550107e-04 
5 1 -7.097959302047e-05   9.500028384053e-05  -3.465296830095e-04 
6 1 -6.637202697032e-05  -2.336192629043e-04   2.196649120355e-04 
7 1  1.741503043520e-04  -2.066207179231e-04  -9.114085258673e-05 
8 1 -1.043261857130e-04   3.298881630494e-04  -7.561947958400e-07 
8
Step 44000
1 1  2.293417745062e-04  -1.013274888979e-04  -1.258060051839e-04 
2 1 -9.230448486160e-05  -1.025628044307e-04   2.580862221969e-05 
3 1 -6.221555857547e-05   2.462378098985e-04   2.042215977235e-04 
4 1 -3.192879565538e-04   4.199811552809e-05  -6.084490069680e-04 
5 1  6.717730574482e-05  -8.529648841301e-05   5.022811838656e-04 
6 1  1.024923255846e-04  -3.261663808980e-05  -4.997853203571e-05 
7 1 -1.221565073403e-04   1.991471426729e-04  -1.083886890692e-05 
8 1  2.460809696587e-04  -1.003977835008e-04   1.643168729086e-05 
8
Step 45000
1 1 -1.498009399436e-04   5.656243927398e-05   7.705000521047e-06 
2 1 -3.994466753885e-05   7.361136110413e-05   1.300600272742e-05 
3 1  4.803451641780e-05  -1.586745359026e-04  -1.933035627225e-04 
4 1  3.226219460310e-04  -5.698366729668e-05   4.663467324179e-04 
5 1  3.625627151366e-05   1.507266992120e-04  -4.225135867827e-04 
6 1 -2.077420636705e-04  -1.488549142789e-04   3.137851723561e-05 
7 1  4.549818674344e-05   4.250155740677e-05  -1.055602443321e-04 
8 1 -1.226863918431e-05   7.910325046764e-06   2.205433455187e-04 
8
Step 46000
1 1  1.260710472766e-04  -1.190306074665e-04   4.817755739061e-05 
2 1  7.452952519452e-05  -9.496650935933e-05  -9.458774905482e-05 
3 1  3.251841699870e-05   2.180490817812e-04   1.161129897355e-04 
4 1 -2.423035501826e-04   2.421302338286e-04  -4.865779058230e-04 
5 1 -2.010639505164e-05  -1.328113854355e-04   4.313093722850e-04 
6 1 -7.539099151910e-05  -8.870519696139e-05  -6.190603992880e-05 
7 1  8.787225960367e-05   1.401061129701e-05   6.457991891886e-05 
8 1  3.030760672712e-05  -2.894117372826e-05  -2.418565459003e-05 
8
Step 47000
1 1 -3.734091087769e-05   5.867929879322e-05  -1.605478959620e-04 
2 1 -1.666073102792e-04  -1.494458787050e-05   1.599065012677e-04 
3 1 -1.522516700908e-05  -1.215828404951e-04  -5.502849646659e-05 
4 1  2.511163477826e-04  -2.686861948037e-04   3.645989770914e-04 
5 1  9.134053493422e-05   3.666467295083e-05  -3.151676137378e-04 
6 1  5.406780954581e-05   1.495664490193e-04  -2.290967877561e-05 
7 1 -1.257782167499e-04  -1.238952696338e-04  -8.379098670513e-05 
8 1 -5.581327755960e-05   2.431828968006e-04   1.400326646451e-04 
8
Step 48000
1 1 -7.076821447442e-06  -1.010233327827e-04   2.022818952239e-04 
2 1  1.514844565640e-04  -4.915470460145e-05  -1.642168755422e-04 
3 1  4.595528577669e-05   1.371309601978e-04  -3.354402127413e-05 
4 1 -2.039410415284e-04   2.088375494757e-04  -3.225904610946e-04 
5 1 -1.074398818794e-04  -3.927066944736e-06   1.766597826894e-04 
6 1  1.741105527738e-04  -2.855055832195e-04   2.353519421215e-04 
7 1 -1.262967330919e-04  -6.813019835104e-05  -8.370842711569e-05 
8 1  1.443509605916e-04   1.795010831419e-04  -2.756731236311e-05 
8
Step 49000
1 1  1.272678768123e-04   3.112226241310e-05  -2.453541260160e-04 
2 1 -2.336144374309e-04  -4.901571776900e-05   2.327937208298e-04 
3 1 -5.567169657552e-05   9.370023708115e-06   7.821043321217e-05 
4 1  1.122911798611e-04  -2.960595804005e-04   8.317666039288e-05 
5 1  2.513613682436e-04  -6.427094438137e-05  -1.100197927050e-04 
6 1 -4.103376653321e-05   1.986108441585e-04  -1.133866440071e-04 
7 1 -1.272618342378e-04   1.094954631550e-04  -3.683466209504e-05 
8 1 -2.506409125965e-05   4.012637748510e-05   1.242018382313e-04 
8
Step 50000
1 1 -1.374756602496e-04  -6.331046316394e-05   2.777704701422e-04 
2 1  2.097377426921e-04   2.657250418578e-05  -1.918527740278e-04 
3 1  1.291761150542e-04  -2.136839538253e-05  -1.803288630040e-04 
4 1  1.245966296822e-05   1.473768563490e-04   6.498788974020e-06 
5 1 -1.765899655579e-04   1.306594434113e-04   4.460972073321e-05 
6 1 -1.025672040267e-04  -2.367776624762e-04   2.088879151232e-04 
7 1 -3.185332655518e-05  -1.338213420005e-04  -8.166670939954e-05 
8 1  1.413285532603e-04   9.836810112183e-05  -5.410355417803e-05 
8
Step 51000
1 1  1.939918935803e-04  -1.940569564121e-05  -2.420256918545e-04 
2 1 -2.021393635731e-04  -9.591049163438e-05   1.798691718005e-04 
3 1 -8.175176306138e-05   6.318096579727e-05   1.979772289578e-04 
4 1  2.780854166934e-06  -6.334036069679e-05  -1.196642234768e-04 
5 1  1.184306797460e-04  -2.453200874039e-04   1.534878164153e-04 
6 1  8.022436836323e-05   2.000554807362e-04  -1.971621968373e-04 
7 1  1.286373882522e-05  -7.606745548337e-05   7.280961511708e-05 
8 1 -2.128846482728e-04   2.167284998253e-04  -2.443358106324e-05 
8
Step 52000
1 1 -2.455730980192e-04   4.390628241819e-05   2.404108978024e-04 
2 1  1.195531932154e-04   1.091218445656e-04  -1.346980150000e-04 
3 1  9.773397141465e-05  -1.006009543261e-04  -2.180008505297e-04 
4 1  1.550128212930e-04   1.175333279709e-05   3.038369277612e-04 
5 1 -2.927514415820e-04   1.461694299227e-04  -2.080287400110e-04 
6 1  1.745129547505e-04  -1.028622122000e-04   6.111750085192e-05 
7 1 -5.164834177664e-05  -3.207064445551e-04   9.986150592779e-06 
8 1  1.754366793901e-05   1.485708066921e-04  -1.093240778583e-05 
8
Step 53000
1 1  2.424835515409e-04  -5.609270321963e-05  -1.320153952786e-04 
2 1 -8.497258039317e-05  -8.973350036123e-05   1.023931929923e-04 
3 1 -7.222704624098e-05   1.401216476868e-04   2.599411155294e-04 
4 1 -2.431287890997e-04   1.059355384045e-04  -4.695885153302e-04 
5 1  1.356868750689e-04  -1.982118971000e-04   2.366041840867e-04 
6 1  1.793102521296e-04   3.898020324934e-05   7.974731550922e-07 
7 1 -1.767238541879e-04  -1.257059422749e-04   1.599642049354e-04 
8 1 -1.994186969537e-05   1.790943446758e-04  -1.510293978523e-04 
8
Step 54000
1 1 -2.124373216092e-04   7.493591310322e-05   9.166622803749e-05 
2 1  7.242101456571e-06   9.429116230052e-05  -4.509890914019e-05 
3 1  7.307325377947e-05  -1.305960045271e-04  -2.448274289911e-04 
4 1  3.027946050352e-04  -1.690035637400e-04   3.904354961068e-04 
5 1 -1.380805935205e-04   1.497923307826e-04  -2.566360653305e-04 