8
Step 0
1 1  0.000000000000e+00   0.000000000000e+00   0.000000000000e+00 
2 1  0.000000000000e+00   0.000000000000e+00   0.000000000000e+00 
3 1  0.000000000000e+00   0.000000000000e+00   0.000000000000e+00 
4 1  0.000000000000e+00   0.000000000000e+00   0.000000000000e+00 
5 1  0.000000000000e+00   0.000000000000e+00   0.000000000000e+00 
6 1  0.000000000000e+00   0.000000000000e+00   0.000000000000e+00 
7 1  0.000000000000e+00   0.000000000000e+00   0.000000000000e+00 
8 1  0.000000000000e+00   0.000000000000e+00   0.000000000000e+00 
8
Step 1000
1 1  2.150592054920e-04  -3.218770983562e-06  -2.503027548354e-05 
2 1 -6.433500945889e-05   1.910376637828e-05   2.324913393299e-05 
3 1  3.694267174145e-05  -9.992567109741e-05  -1.145300731768e-04 
4 1 -1.727056356017e-04  -8.324501615612e-05  -4.321785091387e-04 
5 1 -1.454471665109e-05   3.373167852852e-05   8.874849111988e-05 
6 1  8.648318484565e-05   2.279264570389e-06   7.661987719552e-05 
7 1  9.963840620708e-05   9.876094802014e-05   8.968027509826e-05 
8 1 -2.087718772105e-04   3.119874273863e-04   6.712967263838e-05 
8
Step 2000
1 1 -1.442338761655e-05  -2.821098319977e-04  -1.839980923221e-04 
2 1 -1.633475597165e-04  -2.558093313815e-04   3.587035691145e-05 
3 1 -1.251565517287e-04   3.251461558264e-04  -6.358252148586e-06 
4 1 -7.489272212423e-05  -2.064106223862e-04   2.438611419075e-04 
5 1  1.458370986501e-04   5.753351268590e-04  -5.233288286710e-04 
6 1  2.511878656719e-05   7.822346306718e-06  -2.710321698958e-04 
7 1 -1.184577695850e-04   1.870432895697e-04  -7.984570190339e-05 
8 1 -1.752787376629e-05  -3.134166519140e-04  -7.974897325913e-05 
8
Step 3000
1 1 -2.132120580737e-04  -2.470062114813e-04  -1.268460548197e-04 
2 1 -1.557621402290e-05  -3.326861282309e-04   5.168882516568e-05 
3 1 -1.455875087532e-04   2.764735334251e-04   1.906461399893e-04 
4 1  2.590555891774e-05  -7.597396310457e-05   4.632504859805e-04 
5 1  2.160217121929e-04   3.919278293380e-04  -4.160458050010e-04 
6 1  1.008817147157e-04  -1.386407351673e-04  -2.237501529436e-04 
7 1 -1.632570824222e-04   5.238489438491e-05  -1.173415634600e-04 
8 1  6.524622122884e-05  -5.719771103228e-04  -1.448923274476e-04 
8
Step 4000
1 1 -1.627973717717e-04  -2.246525542116e-05   1.146015123921e-04 
2 1  2.003680166921e-04  -8.063098130907e-05  -1.320518720530e-05 
3 1  3.262123799891e-05  -1.556737935251e-04   1.849890811631e-04 
4 1  1.802151611459e-05   2.111396756660e-04  -1.450399577184e-05 
5 1  7.687237609149e-05  -2.575657957026e-04   1.938618759590e-04 
6 1  1.628085177792e-04  -2.502843950245e-04   1.509338820964e-04 
7 1 -3.882022931174e-05  -6.811524170291e-05   2.959581135193e-05 
8 1  1.878340983162e-05  -1.891438543913e-04  -8.008843432490e-05 
8
Step 5000
1 1  2.159698292220e-06   1.294120141381e-04   2.334519696136e-04 
2 1  1.869269814752e-04   2.900727991439e-04  -8.940895941640e-05 
3 1  1.904664295158e-04  -3.855578007228e-04  -3.171183205443e-05 
4 1 -2.856582890512e-05   3.226288807341e-04  -4.712562129506e-04 
5 1 -1.539048117954e-04  -5.437428085817e-04   4.690076741098e-04 
6 1  1.366601032481e-05  -1.175810653078e-04   3.255109979435e-04 
7 1  4.535344405108e-05   1.154547712998e-06   1.639594688052e-04 
8 1 -2.148451983101e-05   3.342910576233e-04   5.421812937536e-05 
8
Step 6000
1 1  6.375035366320e-05   1.033036737294e-04   6.370167926725e-05 
2 1 -5.568241460736e-05   4.029046135355e-04  -4.806669438634e-05 
3 1  1.392884049422e-04  -1.365773360581e-04  -1.781843150044e-04 
4 1  1.425377362107e-05   1.074404534488e-04  -2.922478193097e-04 
5 1 -2.311216193302e-04  -1.611521121122e-04   1.101584908585e-04 
6 1 -2.364173425393e-04   1.754781873495e-04   5.813567975911e-05 
7 1 -2.092783108177e-05   1.390084680650e-04   1.015213016947e-04 
8 1  3.328510500623e-05   4.068841800167e-04   1.466750931620e-04 
8
Step 7000
1 1  3.111896048917e-05  -5.523495558109e-06  -1.971408691636e-04 
2 1 -2.172292333722e-04   1.113469244515e-04   9.564284666123e-05 
3 1 -4.372218377867e-05   2.400608183135e-04  -7.769193387852e-05 
4 1  1.226950631548e-04  -2.225669392896e-04   2.323263833918e-04 
5 1 -6.516628622516e-05   3.579953174959e-04  -3.335299523438e-04 
6 1 -2.619567651796e-04   3.105974965052e-04  -2.966798787426e-04 
7 1 -1.095347581406e-04   1.244947099402e-04  -9.300511104634e-05 
8 1  1.149306552645e-04   4.987887670222e-05   1.173285222887e-04 
8
Step 8000
1 1  4.816543459105e-05  -6.607082589274e-05  -2.228474791295e-04 
2 1 -9.472297440616e-05  -2.953002193946e-04   1.736858682420e-04 
3 1 -1.302882996512e-04   2.690510173023e-04   9.695789053607e-05 
4 1  1.298826615063e-04  -3.242151918997e-04   3.887141994956e-04 
5 1  1.596845385244e-04   3.843025076002e-04  -2.684829459501e-04 
6 1  2.924694892388e-05   1.184782352616e-04  -2.790287083018e-04 
7 1 -4.698678131900e-05  -4.883281010687e-05  -1.867032852720e-04 
8 1  1.091902325066e-04  -2.271397901715e-04  -1.632864478171e-05 
8
Step 9000
1 1  1.181389139569e-04  -4.303496911036e-05   3.271020449807e-05 
2 1  1.284983096836e-04  -3.732245304537e-04   7.680629739047e-05 
3 1 -3.930207726789e-05  -3.117439142517e-05   6.737645261195e-05 
4 1 -3.885875961158e-05  -1.022434756478e-04   3.615512075625e-05 
5 1  1.886974033564e-04  -3.002746965808e-05   1.690402593835e-04 
6 1  3.094609683724e-04  -1.833846082434e-04   6.982376784149e-05 
7 1  1.406517545786e-04  -1.807897468220e-04  -7.126168368902e-05 
8 1  1.105793673441e-05  -1.200043757342e-04  -1.373498424271e-04 
8
Step 10000
1 1  8.491027517900e-05   1.675925802276e-05   2.669252676522e-04 
2 1  1.379495131181e-04  -3.562236284957e-05  -1.021010984932e-04 
3 1  8.177048849890e-05  -2.236611124533e-04  -1.404748403557e-04 
4 1 -2.151962099064e-04   1.989199806378e-04  -2.648163428700e-04 
5 1  1.325788692246e-07  -3.063149213894e-04   3.641205882819e-04 
6 1  2.233897444371e-04  -2.411192677359e-04   2.908293323235e-04 
7 1  2.421989247883e-04  -1.437053883700e-04   1.011599329373e-04 
8 1 -8.268283760447e-05   1.184968356851e-04  -1.326185928850e-04 
8
Step 11000
1 1 -9.453477842483e-05   6.682445207797e-05   1.964009938981e-04 
2 1 -7.374912362671e-05   3.165642151933e-04  -1.845600574455e-04 
3 1  7.580893661921e-05  -6.647041952000e-05  -2.088364837841e-04 
4 1 -1.641142126552e-04   2.728812163041e-04  -8.969560382832e-05 
5 1 -1.675686010171e-04  -1.345415401190e-04   7.489669222518e-05 
6 1 -1.338777834282e-04   1.917426390117e-06   1.284451580817e-04 
7 1  1.211416363716e-04  -3.043257660659e-05   1.114346969384e-04 
8 1 -1.055244316301e-04   9.329546312769e-05  -1.351389796264e-05 
8
Step 12000
1 1 -2.178644177599e-04   8.912228579998e-05  -9.322426151733e-05 
2 1 -1.961948384755e-04   2.644348902351e-04  -1.164903329499e-04 
3 1 -2.416422198970e-05   1.867337046359e-04   2.880673092580e-05 
4 1  1.006057172961e-04   6.998796080786e-05   2.686520314737e-04 
5 1 -1.188362520733e-04   1.606004296758e-04  -2.873867018791e-04 
6 1 -3.144985521939e-04   2.425379813578e-04  -1.626443073348e-04 
7 1 -1.159042952663e-04   1.978924491619e-05  -4.378664633118e-05 
8 1 -7.682619657797e-05  -1.552935353675e-04   9.255705094113e-05 
8
Step 13000
1 1 -8.824349250405e-05   6.549639765644e-05  -2.538998260835e-04 
2 1 -4.147968167393e-05  -1.134770082841e-04  -7.211952721600e-07 
3 1 -7.724489774116e-05   1.734910494160e-04   3.162816945179e-04 
4 1  2.779535565812e-04  -1.747422789063e-04   2.569594477149e-04 
5 1  6.216639672810e-05   1.343670912811e-04  -2.602768643519e-04 
6 1 -9.177626371418e-05   1.971681697686e-04  -1.968327160973e-04 
7 1 -2.404311433453e-04   2.335631197902e-05  -1.424488191381e-04 
8 1 -3.092693181804e-05  -2.266260432586e-04   8.496217218335e-05 
8
Step 14000
1 1  1.778366488681e-04  -1.955129133380e-05  -1.083206234474e-04 
2 1  1.852204524557e-04  -3.421609596259e-04   6.108902418943e-05 
3 1 -4.367931380050e-05  -7.497336271606e-05   2.805435279794e-04 
4 1  1.340219067778e-04  -2.137278881905e-04  -1.302774564822e-04 
5 1  1.405293858248e-04  -1.427746098762e-04   5.530428679943e-05 
6 1  2.373837803396e-04  -6.074740817622e-05   2.839051742892e-05 
7 1 -1.579029447351e-04   7.459919894238e-05  -2.651535269182e-05 
8 1  3.057327194740e-05   3.261669183110e-05   3.741373825857e-06 
8
Step 15000
1 1  2.549926791479e-04  -1.337638304654e-04   1.438425975196e-04 
2 1  1.751959335841e-04  -1.483563484739e-04   7.086293807171e-05 
3 1 -1.496261651657e-05  -2.072352623375e-04  -7.503821950092e-05 
4 1 -1.810718606966e-04  -3.515850693879e-05  -3.571482589483e-04 
5 1  3.839578336752e-05  -2.207055088036e-04   1.965957835437e-04 
6 1  2.401308807465e-04  -2.202637504450e-04   1.810093534737e-04 
7 1  1.554863454337e-05   1.408235570978e-04   1.778324444097e-04 
8 1  9.708067933044e-05   2.792670191737e-04  -3.396034250036e-05 
8
Step 16000
1 1  2.782513941622e-05  -1.843673665430e-04   1.854933424664e-04 
2 1 -4.624130552690e-05   2.017787776357e-04   6.818169570285e-05 
3 1 -4.372007861506e-05  -6.056701884457e-05  -3.461329650285e-04 
4 1 -2.852768196220e-04   1.512410429668e-04  -1.231712484562e-04 
5 1 -8.503959328086e-05   5.900609741061e-05   1.719017431668e-05 
6 1 -8.032410650054e-05  -1.276287304539e-04   7.859327482152e-05 
7 1  1.148246660772e-04   8.293156241139e-05   2.052046516727e-04 
8 1  1.086979032275e-04   1.524650905907e-04   2.047800744752e-06 
8
Step 17000
1 1 -2.426015011146e-04  -9.172749260059e-05  -1.763328415202e-05 
2 1 -1.612527469260e-04   2.691055344463e-04   3.669082430487e-05 
3 1 -5.035282172169e-05   1.283111971744e-04  -2.274355872201e-04 
4 1 -3.932614029857e-05   1.561019316990e-04   2.173008837380e-04 
5 1 -7.097506271501e-05   3.248178333259e-04  -1.415763322464e-04 
6 1 -2.912744920705e-04   5.587819912401e-05  -8.765697947699e-05 
7 1  1.004942884692e-04  -9.993869851857e-05  -7.452882663196e-06 
8 1  1.628694377508e-05  -1.957387193791e-04   2.053035267593e-05 
8
Step 18000
1 1 -2.402725422016e-04   1.027112564433e-04  -1.881776896863e-04 
2 1 -1.970831658698e-05   1.398255322532e-05  -4.404014415711e-05 
3 1  4.590473746697e-05   8.424732967596e-05   1.149758411072e-04 
4 1  2.578043932877e-04  -4.803834742888e-06   1.754975723176e-04 
5 1  3.192146192368e-05   1.954336230553e-04   3.012940363373e-06 
6 1 -1.088746392943e-04   9.575513014463e-05  -7.076960555645e-05 
7 1  4.253715999707e-05  -1.906667153003e-04  -2.203696438642e-04 
8 1 -1.226280954150e-04  -2.808738177073e-04  -3.891664918041e-05 
8
Step 19000
1 1  1.629315050155e-05   2.307710146381e-04  -1.059453548975e-04 
2 1  1.452066983683e-04  -1.819834987810e-04  -9.973125656408e-05 
3 1  1.690313763251e-04  -1.077705028555e-04   2.649253959881e-04 
4 1  2.229164124667e-04  -1.501001296126e-04  -1.683497341536e-04 
5 1  6.033331638511e-05  -1.852442153351e-04   2.375344468163e-04 
6 1  2.257498837237e-04  -2.324740140565e-05   7.130441300591e-05 
7 1 -1.654307116970e-06  -2.592724552061e-05  -1.800165862617e-04 
8 1 -1.591371706158e-04   4.746547126773e-05  -9.198928657720e-05 
8
Step 20000
1 1  2.155350773656e-04   1.501503287515e-04   1.071689668437e-04 
2 1  6.011432130056e-05  -5.838919933093e-05  -2.525055565249e-05 
3 1  1.551890402522e-04  -1.372491514566e-04   7.844362970954e-05 
4 1 -1.196603625079e-04  -1.283314912802e-04  -2.836021263414e-04 
5 1 -2.190802180587e-05  -3.404882016386e-04   1.629660382992e-04 
6 1  2.692124646228e-04  -1.144567144757e-04   8.298018876966e-05 
7 1 -3.446274820075e-05   2.280751958795e-04   5.899458379019e-05 
8 1 -1.192493955443e-05   3.645504441201e-04  -1.972507958872e-05 
8
Step 21000
1 1  1.524430611903e-04  -8.580929833226e-05   1.616799642209e-04 
2 1 -1.727327750791e-04   1.684589983332e-04   1.398211863338e-04 
3 1 -2.265599884986e-05   6.498729034815e-05  -1.665152621792e-04 
4 1 -3.432683905875e-04   3.520144925518e-05   3.656654480002e-05 
5 1 -8.086109688699e-05  -9.623114368133e-05  -1.935007170924e-04 
6 1 -3.357559420597e-05  -4.990411419837e-05  -8.981927154330e-05 
7 1 -5.651550773933e-05   2.312874986510e-04   1.958340325819e-04 
8 1  1.992178154976e-04   2.194363329157e-04   1.314704501067e-04 
8
Step 22000
1 1 -4.749370780371e-05  -2.442126783162e-04  -9.288823280328e-06 
2 1 -2.049137125114e-04   1.221898691734e-04   1.980114896120e-04 
3 1 -1.841448876384e-04   2.127107971775e-04  -1.544274858940e-04 
4 1 -1.439126189663e-04   1.724261690752e-04   3.661356363822e-04 
5 1 -1.142681481732e-05   2.110734000819e-04  -3.651298583549e-04 
6 1 -2.827759747708e-04   9.894711119966e-05  -2.049101640376e-04 
7 1 -3.593827381443e-05  -8.677764869341e-05   6.040285454509e-05 
8 1  2.369308842375e-04  -2.411240739449e-04   1.686864310293e-04 
8
Step 23000
1 1 -1.331827016639e-04  -1.394578272834e-04  -1.640061562583e-04 
2 1  5.270384500571e-05  -1.862928138955e-04   2.876156877192e-05 
3 1 -1.505814934544e-04   7.877621009671e-05   6.937761688474e-05 
4 1  2.596859135497e-04   1.409845886824e-04   2.423569638124e-04 
5 1  1.037449114121e-04   1.997294185736e-04  -7.903289181902e-05 
6 1 -1.599945783508e-04   1.750058837044e-04  -6.985921209332e-05 
7 1  2.978706197623e-05  -3.787404264047e-04  -1.657500841494e-04 
8 1  1.086180591717e-05  -4.249653070260e-04   3.179842869128e-06 
8
Step 24000
1 1 -5.127214121448e-05   1.456902725299e-04  -7.649764004173e-05 
2 1  2.690061655297e-04  -3.405104078020e-04  -2.205197690033e-04 
3 1  3.194448399843e-05  -1.638692087288e-04   1.907470707806e-04 
4 1  3.794982996902e-04  -3.023355345993e-05  -1.698773563603e-04 
5 1  1.038273445544e-04  -5.692641303608e-05   3.326837538127e-04 
6 1  1.551187534435e-04   1.174281036477e-04   1.684153325982e-04 
7 1  7.163089598656e-05  -2.798700595853e-04  -1.749155075685e-04 
8 1 -2.775172644224e-04  -6.868979019039e-05  -1.971237614988e-04 
8
Step 25000
1 1  4.781318687059e-05   3.092496604929e-04   1.554836272893e-04 
2 1  1.336834025793e-04  -7.662748074507e-05  -2.765863364656e-04 
3 1  1.463106791189e-04  -1.734845534843e-04   5.788723729889e-05 
4 1  6.888247930941e-05  -1.698980542967e-04  -2.950203772984e-04 
5 1 -2.406250778485e-05  -1.624176331039e-04   3.346903095302e-04 
6 1  2.351511036499e-04  -3.907359463913e-06   2.089320518615e-04 
7 1  2.391316433093e-05   1.234461811697e-04   6.667813578877e-05 
8 1 -3.236163869842e-04   3.871266746202e-04  -1.917860080543e-04 
8
Step 26000
1 1  6.371976622089e-05   1.462166315654e-04   2.278026721380e-04 
2 1 -1.863681781378e-04   3.191201683050e-04  -7.392950574952e-05 
3 1  6.486910690593e-05   7.352545482417e-05  -1.386177936544e-04 
4 1 -2.798968781625e-04  -1.457752001256e-04   4.178651938481e-05 
5 1 -1.210922845920e-04   3.680334471792e-05  -9.948249174113e-05 
6 1 -1.738796707809e-05  -9.120093015665e-05   9.171543903759e-06 
7 1 -6.955959519624e-05   3.737299016851e-04   2.572762097941e-04 
8 1 -5.574223086045e-05   3.502754357294e-04   2.223663045006e-05 
8
Step 27000
1 1  6.066562288692e-05  -2.050006053916e-04   2.678771446658e-05 
2 1 -2.422203020501e-04   3.524534472793e-04   1.484089367875e-04 
3 1 -1.014906413200e-04   2.187350244751e-04  -1.459636016316e-04 
4 1 -2.410949725183e-04   7.333737971037e-06   3.421568956622e-04 
5 1 -7.032236427893e-05   2.331989813842e-04  -4.230089226424e-04 
6 1 -2.412637836524e-04  -1.025107698441e-04  -1.540499179611e-04 
7 1 -8.643022388986e-05   2.021033981105e-04   1.381422486280e-04 
8 1  2.668103437997e-04  -1.401757489767e-04   1.890112626421e-04 
8
Step 28000
1 1  9.401400737385e-05  -3.841839182421e-04  -2.139039205955e-04 
2 1  6.625149121748e-05  -1.289196596105e-05   1.460867629233e-04 
3 1 -1.522190115465e-04   2.057037890534e-05   1.895231803053e-05 
4 1  8.088775303784e-05   1.351341087339e-04   1.288209520718e-04 
5 1  4.069906704803e-05   1.009638972352e-04  -2.235008649432e-04 
6 1 -1.180198228928e-04  -5.605285743610e-05  -7.386830839461e-05 
7 1  1.231208202217e-05  -1.420810686607e-04  -1.544391047459e-04 
8 1  3.328751008574e-04  -4.508893011658e-04   1.149576113778e-04 
8
Step 29000
1 1  6.106307396653e-05  -1.943534354208e-04  -2.122174617952e-04 
2 1  3.175038614869e-04  -2.953676992518e-04  -1.681131219105e-05 
3 1 -4.665487573844e-05  -2.612040325979e-04   1.230129486358e-04 
4 1  2.149029192790e-04   1.235593614782e-04  -3.504067337139e-04 
5 1  5.167546464356e-05  -2.229912951383e-04   2.412582831377e-04 
6 1  1.877907295744e-04  -5.790974452895e-07   1.034019135436e-04 
7 1  1.082845123107e-04  -2.379627543690e-04  -2.490027395680e-04 
8 1  1.122231662302e-04  -2.015287999966e-04  -7.991258522580e-05 
8
Step 30000
1 1 -1.310613097420e-04   1.790259846743e-04   4.999878677433e-06 
2 1  1.425952101711e-04  -1.471178481895e-04  -7.844588168483e-05 
3 1  7.588797033872e-05  -1.944927828320e-04   4.407461463755e-05 
4 1 -1.505267353459e-05  -3.542530804141e-06  -4.416664750246e-04 
5 1 -3.171994298453e-05  -3.113840947046e-04   4.027672727381e-04 
6 1  2.604068433730e-04   7.235351444651e-06   1.096194957778e-04 
7 1  6.792809880457e-05  -2.836139984395e-05  -2.288207491473e-05 
8 1 -1.447865868115e-04   2.437228487375e-04  -1.310154900721e-04 
8
Step 31000
1 1 -3.272880443517e-04   3.682752177052e-04   1.494580112783e-04 
2 1 -2.401690934387e-04   1.745884715642e-04   4.868861132842e-05 
3 1  9.977652696383e-05   1.924405852954e-04  -8.406496713790e-05 
4 1 -2.557214649888e-04  -1.225000025016e-04  -7.105203897564e-06 
5 1 -4.747079573905e-05  -3.637976975540e-05   1.200106820852e-04 
6 1  2.537525596627e-06  -4.919511387544e-05  -4.997795398583e-05 
7 1 -7.064158074153e-05   1.661251800767e-04   2.248142913635e-04 
8 1 -2.141334433082e-04   3.070364212448e-04   8.428528303655e-06 
8
Step 32000
1 1 -2.512676218493e-04   2.136572612700e-04   5.884790280262e-05 
2 1 -3.109256167639e-04   1.874738189871e-04   1.647840814891e-04 
3 1  5.886469552032e-05   3.942772742105e-04  -7.790006837569e-05 
4 1 -1.443872283522e-04  -1.324707894140e-04   3.747942549669e-04 
5 1  6.470143641808e-05   2.515898134908e-04  -2.065814837996e-04 
6 1 -2.504522021588e-04  -1.015524348916e-04  -1.249199048787e-04 
7 1 -1.299302781609e-04   1.200843224226e-04   1.646789442310e-04 
8 1 -1.143432379550e-04  -1.074454610068e-05   1.160099378829e-04 
8
Step 33000
1 1  1.000718355197e-04  -9.523439586788e-05  -1.109248712172e-04 
2 1  2.093818896239e-05  -1.264527552578e-04   9.014661726854e-05 
3 1  4.400794410205e-05   9.804855765628e-05   4.607922762420e-05 
4 1  1.700279804408e-04  -3.500654280659e-05   2.232549460935e-04 
5 1  1.416891774526e-04   2.027044557460e-04  -2.195466633066e-04 
6 1 -2.031685985544e-04  -5.360827529535e-05  -9.880509603813e-06 
7 1 -2.345200707993e-05  -3.090515011858e-05  -1.218580881890e-04 
8 1  2.236916363490e-08  -1.967043698173e-04   3.528402308012e-05 
8
Step 34000
1 1  3.716399286435e-04  -2.617075971066e-04  -1.148820998921e-04 
2 1  2.890463778233e-04  -3.007557000683e-04  -6.711164295223e-05 
3 1  5.866581181511e-05  -3.734732728055e-04   1.181660168310e-04 
4 1  2.552568055424e-04   8.829715337439e-05  -1.987479991274e-04 
5 1  2.078238607498e-05  -7.948390396165e-05  -2.053103321856e-05 
6 1  3.539795578473e-05   8.526986841865e-05   1.023649268852e-04 
7 1  1.226581571119e-04  -5.980088247050e-05  -2.491147325159e-04 
8 1  5.093176544983e-05   1.360237523157e-06  -9.487907182547e-05 
8
Step 35000
1 1  2.671037859005e-04  -1.900233509952e-04   6.149773245195e-05 
2 1  1.323681083327e-04  -5.285554038565e-05  -8.647818987823e-05 
3 1  2.500192656198e-05  -4.477901829192e-04   5.166849949478e-05 
4 1  1.440536973367e-05   1.502423290518e-04  -2.815158853533e-04 
5 1 -1.927019339470e-04  -2.020531338334e-04   7.146733698155e-05 
6 1  1.626136614491e-04   1.807927485537e-04   2.774905675018e-05 
7 1  1.273551654138e-04   9.013081307178e-06  -4.314611144918e-05 
8 1  7.152378148292e-05   2.323575922182e-04  -5.001724001015e-05 
8
Step 36000
1 1 -7.710763300975e-05  -2.464655426475e-06   1.956880449455e-04 
2 1 -2.062297094489e-04   3.043424609617e-04   2.099964943483e-05 
3 1 -7.670205561325e-05  -1.491514867977e-05  -6.688297246118e-05 
4 1 -2.022683350611e-04   1.103851533290e-04   8.452706241780e-05 
5 1 -2.170582967541e-04  -1.568431759257e-05  -9.861749837899e-06 
6 1  9.590942348749e-05   1.259700994317e-04  -1.233638234631e-04 
7 1 -1.952068154435e-05  -1.002345657890e-05   2.237800067867e-04 
8 1  7.804344583377e-05   9.729940704874e-05   1.292712375420e-04 
8
Step 37000
1 1 -2.503772940814e-04   1.401991297347e-04   1.176315657555e-04 
2 1 -2.369422434631e-04   2.859318860793e-04   3.194304227976e-05 
3 1 -1.455051559413e-04   4.319348178146e-04  -1.095899479343e-04 
4 1 -1.030058147483e-04  -5.240141524199e-06   3.911257977111e-04 
5 1  3.659962718033e-05   2.078395079302e-04  -5.885785374415e-05 
6 1  4.360939461912e-06  -1.571436798931e-05  -1.121690769525e-04 
7 1 -1.487602940483e-04  -1.299854289630e-04   1.908665275157e-04 
8 1  2.597039496609e-05  -2.468769304343e-04   1.647017086938e-04 
8
Step 38000
1 1 -7.753325686086e-05   1.689672340852e-04  -7.248126737821e-05 
2 1  8.557499237131e-05  -9.370319569365e-05  -1.313288285893e-04 
3 1 -9.004375280652e-05   3.942219853745e-04  -5.482914287338e-05 
4 1  1.474104707383e-04  -1.147711307090e-04   2.275459070082e-04 
5 1  3.017534058451e-04   1.556739748743e-04   3.846254654119e-05 
6 1  1.204873411351e-05  -8.347748979617e-05   6.873724112499e-05 
7 1 -1.180963194980e-04  -1.484115866194e-04  -1.036175132474e-04 
8 1 -7.743745084635e-05  -3.041909679800e-04  -6.451498532932e-05 
8
Step 39000
1 1  1.727326984271e-04   9.651941621466e-05  -1.405011506241e-04 
2 1  3.022423401134e-04  -3.345444321841e-04  -2.345966620620e-04 
3 1  3.224528820842e-05  -4.120108160447e-05   2.155586600684e-05 
4 1  1.796869787445e-04  -1.335080983718e-04  -1.776885384208e-04 
5 1  2.592277760730e-04  -1.101714084793e-04   1.302702812600e-04 
6 1  3.265168173182e-05  -2.800505521244e-05   1.735107339155e-04 
7 1  3.235505428131e-05   3.686731273304e-05  -2.615567672643e-04 
8 1 -1.187372312513e-04   4.742264387663e-05  -3.019326683532e-04 
8
Step 40000
1 1  1.578370854822e-04  -3.201429398540e-05  -2.536884432279e-05 
2 1  1.016477043560e-04  -1.276785699775e-04  -5.835662525155e-05 
3 1  7.662443866153e-05  -3.420185817890e-04   5.349899209519e-05 
4 1 -4.838201935163e-05  -4.687035336271e-05  -3.064038545763e-04 
5 1 -5.990641525269e-05  -2.449761226587e-04   5.241392204727e-05 
6 1 -4.687253225475e-05   3.136112545323e-05   5.455012978940e-05 
7 1  1.458412695219e-04   2.224743820834e-04  -6.068024582436e-05 
8 1 -1.418600192727e-05   3.525526226987e-04  -2.182163620118e-04 
8
Step 41000
1 1 -9.322763758155e-05  -1.407234149341e-04   8.841102318188e-05 
2 1 -2.401071636968e-04   2.305801747259e-04   2.393766681265e-04 
3 1  6.686081191560e-06  -1.996755986730e-04   4.546849077357e-05 
4 1 -2.042602228492e-04   5.702334864651e-05  -7.290253775129e-05 
5 1 -3.027674395731e-04  -8.581771923906e-05  -9.966613311172e-05 
6 1 -1.568105047288e-04  -2.012782982645e-05  -1.210316026584e-04 
7 1  1.253566521555e-04   1.580870821402e-04   2.345491391790e-04 
8 1  1.435753931682e-04   1.932836036621e-04   1.307731660857e-04 
8
Step 42000
1 1 -2.485376106381e-04  -1.418867247194e-04   2.861543711607e-05 
2 1 -2.555728668537e-04   2.552613566100e-04   2.926089949951e-04 
3 1 -5.644390399384e-05   1.321842505977e-04   3.645702331556e-05 
4 1 -6.621441947946e-05   6.980954263479e-05   1.207424853058e-04 
5 1 -2.244215944112e-04   1.540216279354e-04  -1.083081381707e-04 
6 1 -1.295091556622e-04  -1.290976973259e-04  -1.088027101938e-04 
7 1  6.419869518056e-06  -8.358354591179e-05   2.232240708741e-04 
8 1  1.663339812066e-04  -2.339731748880e-04   3.412551616421e-04 
8
Step 43000
1 1 -1.285518752761e-04  -1.141681432737e-05  -1.269267312195e-04 
2 1  6.530508340021e-05  -6.994775639235e-05   2.145649876250e-05 
3 1  1.288847383905e-06   2.192637379600e-04   3.260354753548e-05 
4 1  1.565897539471e-04  -1.314676298308e-05   1.380327988223e-05 
5 1  4.868881946327e-05   1.852099499206e-04   4.119196215537e-05 
6 1  5.038359092730e-05  -1.360810163462e-04   6.773317349049e-05 
7 1 -1.110023386605e-04  -1.797527068351e-04  -9.224462719397e-05 
8 1 -1.111304653165e-06  -3.777626814548e-04   1.661607273898e-04 
8
Step 44000
1 1  8.759910750356e-05   1.456520504390e-04  -1.566966401536e-04 
2 1  2.795517985862e-04  -2.962660754023e-04  -2.290995949808e-04 
3 1  1.257561759777e-04  -6.403759573795e-06   5.630871945251e-06 
4 1  1.277860757386e-04  -7.861251514845e-05  -1.588109563775e-04 
5 1  2.072934512870e-04   1.940565148186e-06   1.350368755254e-04 
6 1  1.917458575026e-04   6.293330532368e-06   1.543042303518e-04 
7 1 -1.493418180425e-04   4.973477335952e-06  -3.027113348704e-04 
8 1 -1.891668393575e-04  -5.645475469412e-05  -1.692140787145e-04 
8
Step 45000
1 1  1.452660652929e-04   1.640043929249e-04   6.542315412895e-06 
2 1  1.156612358172e-04  -1.315499097121e-04  -1.382120124714e-04 
3 1  1.561576289632e-04  -2.161920968168e-04  -5.395155973444e-05 
4 1 -1.320551505094e-04  -1.950034875806e-05  -7.186065547843e-05 
5 1  1.256251590437e-04  -1.509858194082e-04   4.286629035694e-05 
6 1  1.327597549975e-04   1.550955799973e-04   2.591152445127e-05 
7 1 -8.488365501416e-05   2.084751649349e-04  -1.297276131623e-04 
8 1 -1.930826034326e-04   3.204563605739e-04  -2.525249309566e-04 
8
Step 46000
1 1  5.260253589599e-05  -2.664748239895e-06   1.824169422269e-04 
2 1 -1.666688309789e-04   1.797558138343e-04   1.500553005374e-04 
3 1  2.338544545101e-05  -1.430130049262e-04  -1.005369081256e-04 
4 1 -2.557889578840e-04   1.191282922919e-04   1.702479915362e-04 
5 1 -4.506529659783e-05  -1.078312491624e-04  -9.972431955758e-05 
6 1 -5.222498571951e-05   1.493837034570e-04  -1.420775289384e-04 
7 1  4.893161327741e-05   1.213863400953e-04   2.090444669275e-04 
8 1 -1.385100038782e-05   3.085625234371e-04  -1.200746137269e-05 
8
Step 47000
1 1  4.662259621686e-06  -1.988440719285e-04   1.662251809385e-04 
2 1 -1.678081609766e-04   2.178693947010e-04   2.166084603325e-04 
3 1 -1.531629160599e-04   1.026800705830e-04  -7.203857270493e-05 
4 1 -3.773225631455e-05   1.699970385799e-04   1.928137096563e-04 
5 1 -1.107679274140e-04   3.889729867459e-05  -1.009400385745e-04 
6 1 -1.491426065090e-04   5.063819284900e-06  -1.281676635557e-04 
7 1  1.650737118542e-04  -1.780918535954e-04   2.876586295033e-04 
8 1  1.460324694094e-04  -1.408382785236e-05   2.140086866993e-04 
8
Step 48000
1 1  5.833124558511e-05  -2.080930781955e-04  -1.809745684532e-05 
2 1  8.236418313757e-05  -3.763312952822e-05  -5.952002012990e-05 
3 1 -1.928385476245e-04   2.150962926696e-04   3.367954267032e-05 
4 1  2.694051626182e-04   3.370882892651e-05  -6.157515397418e-05 
5 1 -4.528861078737e-05   9.988581914726e-05   8.860678100000e-06 
6 1 -6.803515369178e-05  -1.092099077442e-04   3.056754946392e-05 
7 1  1.640688049385e-04  -3.039232361523e-04   2.176698053268e-05 
8 1  1.266416850840e-04  -2.116312040302e-04   1.357114701287e-04 
8
Step 49000
1 1  6.287031212059e-05   1.100623466688e-05  -1.578315057345e-04 
2 1  1.822684326442e-04  -1.988908331792e-04  -3.175093853308e-04 
3 1 -5.382357846592e-05   7.804005704666e-05   1.289246624866e-04 
4 1  2.786703920740e-04  -1.770866884155e-04  -2.129310223245e-04 
5 1  4.643257183256e-05   2.774286445005e-05   4.626772369015e-05 
6 1  6.851934021789e-05  -8.126606510696e-05   1.084580647508e-04 
7 1  2.053250777559e-05  -7.353004219257e-05  -2.436028559422e-04 
8 1 -9.257148683179e-06  -9.232527430950e-05  -1.213615251339e-04 
8
Step 50000
1 1 -7.265696726047e-05   2.520709379609e-04  -1.047264928698e-04 
2 1 -5.033095826791e-05  -2.155718120104e-05  -1.881809145560e-04 
3 1  1.184383762765e-04  -1.260340821831e-04   1.115960726522e-04 
4 1 -2.290887703736e-05  -2.357856224854e-04   1.425252489633e-06 
5 1  8.499986075450e-05  -6.111680737460e-05  -3.069467231628e-05 
6 1  9.989199286381e-05   2.748208479425e-05   1.922274160372e-05 
7 1 -1.653104129958e-04   2.418128898851e-04  -1.914107264098e-04 
8 1 -7.475240130836e-05   8.709420251059e-05  -2.087581057492e-04 
8
Step 51000
1 1 -1.970973628054e-04   2.608940370015e-04   6.920005276714e-05 
2 1 -2.924585285153e-04   2.437620805527e-04   1.989010819803e-04 
3 1  1.416351193318e-04  -1.580377171079e-04  -2.395502881360e-05 
4 1 -2.574597077434e-04  -6.037005372199e-05   3.093431925664e-04 
5 1  6.387138344409e-05  -4.994819383534e-05  -5.747862714427e-05 
6 1  1.556262759576e-05   9.011088864149e-05  -7.683781842650e-05 
7 1 -2.307884298234e-04   2.624634344855e-04   7.224561196211e-05 
8 1  1.304446551419e-06   3.548714131307e-05  -2.379069253860e-05 
8
Step 52000
1 1 -1.064279967016e-04   6.012906306775e-06   1.679941677430e-04 
2 1 -1.486671785889e-04   1.841798407729e-04   3.587544603071e-04 
3 1 -9.289347205044e-06   9.691929896083e-07  -1.598746529749e-04 
4 1 -1.455954063418e-04   1.781850531714e-04   2.532456240659e-04 
5 1 -1.025155791096e-05   4.980828947425e-05   6.879212054173e-05 
6 1 -6.657506826535e-05   6.992965447884e-05  -2.666354660034e-05 
7 1 -9.154344479543e-05  -2.331993510255e-05   1.858990494064e-04 
8 1  9.078664547804e-05  -1.541325669736e-04   1.630646848778e-04 
8
Step 53000
1 1  1.368459380559e-04  -2.661789178853e-04   9.328946423277e-05 
2 1  2.680340348454e-04  -1.936649848436e-04   7.429331682088e-05 
3 1 -1.545790446427e-04   1.464822013821e-04  -1.509361882551e-04 
4 1  1.313983889327e-04   2.315252442701e-04  -1.616010191800e-04 
5 1 -1.205071182736e-04   1.225337234860e-04   1.903439712304e-04 
6 1 -6.175987925855e-05   2.075445273652e-05   8.608738375496e-05 
7 1  1.540376461385e-04  -2.502438680116e-04   2.080463535626e-05 
8 1  4.585197290915e-05  -1.592837747233e-04   8.433758811511e-05 
8
Step 54000
1 1  2.280462852806e-04  -2.737565354937e-04  -5.899683878073e-05 
2 1  4.194269780745e-04  -4.172593586964e-04  -2.874801626712e-04 
3 1 -9.236433200326e-05   1.064083498885e-04   1.877160931360e-05 
4 1  1.689236755513e-04   5.478439830194e-05  -4.252854649814e-04 
5 1 -1.819520086571e-04   7.645620446287e-05   9.370395939907e-05 