8
Step 0
1 1  0.000000000000e+00   0.000000000000e+00   0.000000000000e+00 
2 1  0.000000000000e+00   0.000000000000e+00   0.000000000000e+00 
3 1  0.000000000000e+00   0.000000000000e+00   0.000000000000e+00 
4 1  0.000000000000e+00   0.000000000000e+00   0.000000000000e+00 
5 1  0.000000000000e+00   0.000000000000e+00   0.000000000000e+00 
6 1  0.000000000000e+00   0.000000000000e+00   0.000000000000e+00 
7 1  0.000000000000e+00   0.000000000000e+00   0.000000000000e+00 
8 1  0.000000000000e+00   0.000000000000e+00   0.000000000000e+00 
8
Step 100
1 1 -1.870935510665e-04   2.863248187762e-05  -1.890947124297e-04 
2 1 -1.438939543842e-04  -9.528111085810e-05   4.534731404121e-04 
3 1 -1.071962915307e-04   1.722956767222e-04   3.896345392961e-05 
4 1 -1.636921941476e-04   1.312109085036e-04   2.715689733442e-04 
5 1  2.424630659778e-04   3.345215488704e-05   5.397510913477e-05 
6 1  2.789778591788e-05   1.353669804939e-04  -2.197776050756e-05 
7 1  3.810921064043e-04  -2.407453311251e-04   1.789021657882e-04 
8 1  1.017783663805e-04  -2.079073135302e-04   2.828407874889e-04 
8
Step 200
1 1 -1.302505462031e-04   3.360521959551e-04   4.180581092970e-05 
2 1  3.672196738936e-04  -2.057585514785e-04   1.294368984683e-05 
3 1 -6.241095187751e-05   1.376053926155e-05   3.104553977235e-04 
4 1 -2.083704589752e-05   2.600423932031e-04  -3.783227336051e-04 
5 1 -1.485641900526e-04  -2.287514294657e-04   6.267206400403e-04 
6 1  3.570376986491e-04  -2.432410706692e-04   2.072479469635e-04 
7 1  5.365451024674e-05   3.880609425274e-06   1.084731033597e-04 
8 1 -1.587095865559e-04   1.285432523148e-04  -4.861450257987e-05 
8
Step 300
1 1 -4.503235280589e-05   2.599580267443e-04   1.622458332227e-04 
2 1  4.046219861316e-04  -7.589498905027e-05  -3.448117887979e-04 
3 1  4.921459361573e-05  -3.164540483757e-05   1.863593492827e-04 
4 1  1.028947637814e-04   6.234704479725e-05  -4.956029241379e-04 
5 1 -3.628411628664e-04  -1.048847360384e-04   3.738447006815e-04 
6 1  2.117204367942e-04  -3.889483583240e-04   1.374647334356e-04 
7 1 -2.696056265777e-04   2.640255553072e-04  -1.936834550341e-05 
8 1 -2.698444826194e-04   2.815896036864e-04  -2.882651018761e-04 
8
Step 400
1 1 -8.804144467867e-05  -5.822907885372e-05   6.420436804682e-05 
2 1 -2.236019127122e-06   1.050749148927e-04  -1.985948719996e-04 
3 1  1.317176271315e-04   1.014391681874e-06  -3.226225525331e-05 
4 1  1.301363671873e-04  -1.931463966964e-04   3.648427019293e-05 
5 1 -1.719598660493e-04   1.990804450363e-04  -3.177539924434e-04 
6 1 -1.263832746496e-04  -1.886440611311e-04  -1.666203020620e-04 
7 1 -3.255717092621e-04   2.907084268461e-04  -1.344256566847e-04 
8 1 -1.211793530421e-04   6.931704095970e-05  -1.583088351067e-04 
8
Step 500
1 1 -1.248957630423e-04  -2.632569664500e-04  -8.291923547230e-05 
2 1 -3.006451816647e-04   1.131228331740e-04   2.003701702617e-04 
3 1  1.131278832245e-04  -5.031936317920e-05  -5.961881603963e-05 
4 1  5.939372240868e-05  -1.609934880961e-04   4.459747360834e-04 
5 1  2.097332857384e-04   2.303741895445e-04  -5.605944264647e-04 
6 1 -1.960324998539e-04   1.066714664284e-04  -2.635769289797e-04 
7 1 -1.051101744486e-04   8.319844210733e-05  -1.577760963118e-04 
8 1  1.383232335825e-04  -2.041051433241e-04   1.468588366438e-04 
8
Step 600
1 1  1.132138319790e-06  -1.799163511812e-04  -8.913317554208e-05 
2 1 -1.596127704703e-04  -1.342010106158e-05   3.174715084806e-04 
3 1  6.844076266860e-06  -1.654526262315e-04   3.594314834190e-05 
4 1 -4.983823327466e-05   1.278059018912e-04   1.803689288806e-04 
5 1  3.545681561095e-04  -7.138087180559e-05  -1.193223115683e-04 
6 1  4.449178838252e-05   2.107195717295e-04   5.337397758772e-06 
7 1  1.604561664294e-04  -1.105748707303e-04  -6.737831040562e-05 
8 1  2.737525224990e-04  -1.658936368821e-04   2.466997743312e-04 
8
Step 700
1 1  1.844635459956e-04   4.631229850017e-05   2.247645305276e-05 
2 1  1.497843962600e-04  -5.144303530305e-05   2.655409703131e-05 
3 1 -9.452216347884e-05  -1.510875694025e-04   3.139538079180e-05 
4 1 -1.109195590436e-04   2.990164923288e-04  -3.594689144809e-04 
5 1  1.044849470370e-04  -3.011912005879e-04   3.823223084515e-04 
6 1  2.120630880544e-04   9.973347566578e-05   2.708196513903e-04 
7 1  2.285842760834e-04  -1.097497975633e-04   6.901210029381e-05 
8 1  1.925911360369e-04   1.239326524760e-04   4.946861637609e-05 
8
Step 800
1 1  1.879634813929e-04   1.691435347739e-04   7.663521721572e-05 
2 1  1.801201234305e-04   6.518145097792e-05  -2.674173544647e-04 
3 1 -9.548217897945e-05   4.850671639103e-05  -8.946237825171e-05 
4 1 -6.402600788692e-05   1.034626665172e-04  -4.092315800561e-04 
5 1 -2.445775909828e-04  -1.467069121022e-04   3.490054947974e-04 
6 1  4.576470581050e-05  -2.944561883577e-05   1.498179904908e-04 
7 1  7.891677089897e-05  -1.317041016983e-05   1.401938953659e-04 
8 1 -1.156226780548e-05   2.668468898228e-04  -1.696597643554e-04 
8
Step 900
1 1 -6.629369101561e-06   1.112789227514e-04  -4.469459502498e-06 
2 1 -7.962034474222e-05   1.297304836294e-04  -1.896319832040e-04 
3 1  7.943277849012e-06   2.133382761780e-04  -1.307202947589e-04 
4 1  6.044262076421e-05  -2.625366790984e-04   1.068614771117e-04 
5 1 -2.863389841910e-04   1.924735508662e-04  -5.662141980107e-05 
6 1 -2.322150295811e-04  -3.277103975371e-05  -2.068573898899e-04 
7 1 -9.479732570243e-05  -1.896980539375e-05   8.084072930420e-05 
8 1 -1.810166912639e-04   6.862324787278e-05  -1.537097767288e-04 
8
Step 1000
1 1 -1.501358995565e-04  -7.466882057532e-06  -9.724951974988e-05 
2 1 -2.396994250760e-04  -2.198480767824e-05   1.302279297957e-04 
3 1  1.117744725682e-04   1.276579414469e-04  -8.311298948689e-06 
4 1  1.381170451987e-04  -3.810830913391e-04   5.104762619545e-04 
5 1  1.116414224184e-05   2.760535227163e-04  -2.468058473416e-04 
6 1 -2.333971866775e-04   4.583126404916e-05  -3.113142319999e-04 
7 1 -1.082935739130e-04  -1.285827852747e-04  -5.905054056268e-05 
8 1 -2.171937500748e-04  -2.085146263404e-04   3.017708071606e-05 
8
Step 1100
1 1 -6.358228944134e-05  -5.297653448116e-05  -4.937394021080e-05 
2 1 -7.463602017432e-05  -2.278969065498e-04   2.605423415829e-04 
3 1  9.645092224163e-05  -9.419489566413e-05   1.110194147854e-04 
4 1  6.604414067529e-05  -1.025306421442e-04   3.080891112646e-04 
5 1  2.657055645078e-04   1.130373548611e-05  -3.790493852416e-05 
6 1  6.401913830607e-05   8.081419521555e-05  -8.021156083956e-06 
7 1  1.707015106674e-05  -1.452657860221e-04  -1.471365468291e-04 
8 1 -1.139197098538e-04  -2.154155191467e-04   1.287458242652e-04 
8
Step 1200
1 1  1.138222995473e-04  -2.225282535598e-05   1.067003743350e-04 
2 1  1.830890895858e-04  -1.853040786215e-04   3.401676913004e-05 
3 1 -4.266006131100e-05  -1.373660584984e-04   5.650231626967e-05 
4 1 -1.001823544250e-04   2.864818528214e-04  -1.847075136403e-04 
5 1  1.531012684917e-04  -2.395727707113e-04   1.732367564079e-04 
6 1  2.881270265363e-04   2.567141669042e-05   3.097592188699e-04 
7 1  1.056277556948e-04   2.522010638796e-05  -9.100648389236e-05 
8 1  6.325551470608e-05   1.436636819642e-05   4.675510269447e-05 
8
Step 1300
1 1  1.188601691249e-04   8.695424675397e-07   1.815483896279e-04 
2 1  1.934252649661e-04   1.063531234378e-04  -2.592563431537e-04 
3 1 -1.693082271625e-04   7.168088320800e-05  -8.432288580043e-05 
4 1 -1.674398428495e-04   3.871175013783e-04  -3.251381889692e-04 
5 1 -1.829671680286e-04  -1.570712206515e-04   3.924292612149e-05 
6 1  1.712177640616e-04  -5.550469816193e-05   2.310400700355e-04 
7 1  4.459343698169e-05   2.047983583974e-04   5.944330419078e-05 
8 1  1.968340227465e-04   1.372453093814e-04  -6.419684896089e-05 
8
Step 1400
1 1 -6.703034723991e-05  -2.093543118706e-05   6.894889895274e-05 
2 1 -2.063564737609e-05   2.896772444926e-04  -2.670211379101e-04 
3 1 -1.434541230547e-04   2.255702681435e-04  -8.652869302925e-05 
4 1 -2.821699931942e-05   1.262331974767e-04  -2.544016182550e-05 
5 1 -3.039360011248e-04   1.122348358989e-04  -2.353415408010e-04 
6 1 -1.077853154931e-04  -8.312391717563e-05  -1.179747163646e-04 
7 1 -8.895251475154e-05   1.700536364526e-04   1.558019860693e-04 
8 1  1.811455486236e-04   7.376638776933e-06  -5.118171742466e-05 
8
Step 1500
1 1 -1.905769054301e-04  -3.713712889130e-05  -1.192644616581e-04 
2 1 -1.462687676126e-04   1.070767518957e-04   1.962579234414e-07 
3 1  2.064739992039e-05   4.794334408154e-05   7.761600178060e-05 
4 1  1.756615893124e-04  -2.087995569677e-04   2.054903745555e-04 
5 1 -2.536422378945e-05   1.858371061350e-04  -2.141475033539e-04 
6 1 -1.959169211232e-04  -3.750293398981e-05  -2.659694798233e-04 
7 1 -1.368281287086e-04  -4.032994493070e-05   1.035880744820e-04 
8 1  1.050607724001e-05  -1.225713707964e-04   3.457550764013e-05 
8
Step 1600
1 1 -7.802934556249e-05  -2.792588769461e-06  -1.837294758003e-04 
2 1 -4.053431589997e-05  -2.245106520198e-04   2.259485776730e-04 
3 1  1.554288021993e-04  -2.839239895011e-04   1.785096864223e-04 
4 1  1.856809624184e-04  -3.023616574631e-04   3.037068372550e-05 
5 1  3.381148815839e-04  -1.946980602797e-05   1.199505930145e-04 
6 1 -4.010595143809e-05   3.436941800434e-05  -4.038304917872e-05 
7 1 -5.092767443445e-05  -1.623621446390e-04  -3.648034138195e-05 
8 1 -1.767885613734e-04   1.781744765147e-06   4.307344188446e-05 
8
Step 1700
1 1  1.258666506184e-04   4.136479717586e-05  -7.901626641786e-05 
2 1  9.382201855094e-05  -2.688058028038e-04   1.992899761491e-04 
3 1  1.269554692074e-04  -3.266068026172e-04   5.173552239965e-05 
4 1 -4.783397270545e-05  -1.289630223066e-04  -2.617402843089e-04 
5 1  3.487013351150e-04  -1.885556405378e-04   3.256493275990e-04 
6 1  8.272814426900e-05   5.643115940274e-05   2.182207510430e-04 
7 1  6.487645410184e-05  -5.448356356502e-05  -1.177349239563e-04 
8 1 -2.034840119145e-04   2.256788857843e-04  -4.306720332637e-05 
8
Step 1800
1 1  1.605781323777e-04   2.129372257732e-05   5.091974263434e-05 
2 1  4.270971996182e-05   5.171290132500e-05   2.532143189711e-05 
3 1 -1.176327804939e-05   3.698725919455e-05  -1.586410433162e-04 
4 1 -2.655111615742e-04   8.726217339472e-05  -2.179702504135e-04 
5 1 -2.873299503093e-05  -6.681909846976e-05   1.243284159828e-04 
6 1 -3.232027154126e-06  -1.487520062452e-05   1.519952250537e-04 
7 1  1.009757551617e-04   1.190830840247e-04  -7.038397662779e-05 
8 1 -3.341548996006e-05   1.800086355815e-04  -8.911076905920e-05 
8
Step 1900
1 1 -4.288809111110e-06  -5.386399518158e-05   6.466834115812e-05 
2 1 -9.785580963799e-05   3.304999045213e-04  -7.568354968583e-05 
3 1 -8.948649224698e-05   3.885339774981e-04  -1.793265461238e-04 
4 1 -1.897485964210e-04   1.486166605942e-04   1.126116779772e-04 
5 1 -3.843547141777e-04   1.795447739342e-04  -2.094153186325e-04 
6 1 -1.211096644305e-04  -1.291534442999e-04  -1.247884683515e-04 
7 1  6.190272474750e-05   1.203253883079e-04   3.274649764732e-05 
8 1  1.676468531474e-04  -1.628120893000e-04  -1.011805414977e-05 
8
Step 2000
1 1 -1.438671433748e-04  -7.964425335126e-05  -8.757018184064e-06 
2 1 -8.391364270801e-05   1.997670135742e-04  -4.409523047323e-05 
3 1 -2.615862936067e-05   2.810340721236e-04   1.730373808083e-05 
4 1  1.114613880305e-04   6.680228590123e-05   2.653926259132e-04 
5 1 -3.458774057616e-04   1.976859838095e-04  -2.274856484465e-04 
6 1 -2.272197717684e-05  -1.547970975619e-04  -2.087588677341e-04 
7 1  2.360101620789e-05  -3.825007850413e-05   7.084239079299e-05 
8 1  1.913594051080e-04  -3.709164807823e-04   1.051710620765e-04 
8
Step 2100
1 1 -9.373374307641e-05   1.236220033310e-05  -3.403222371613e-05 
2 1  8.468241717086e-05  -1.791474095518e-04   1.074234920389e-05 
3 1  7.558530670383e-05  -1.691950672509e-04   1.697151025677e-04 
4 1  2.789414093993e-04  -1.471943501158e-05   5.278553449442e-05 
5 1  7.336817444697e-06  -5.688611512752e-05   6.879455772786e-05 
6 1  2.092625812246e-04  -9.373225325697e-06   8.169488224439e-06 
7 1  6.877267284884e-06  -1.275116598117e-04   1.579306112142e-05 
8 1  1.750630020877e-05  -1.134681817079e-04   1.194485218265e-04 
8
Step 2200
1 1  4.910745536187e-05   1.383206162668e-04   3.755793102864e-05 
2 1  1.440839582815e-04  -3.230205084160e-04   1.148662793312e-05 
3 1  7.147854743951e-05  -4.047704890269e-04   7.919047417153e-05 
4 1  1.015259382074e-04  -1.139743876205e-05  -1.716618288064e-04 
5 1  2.831809595410e-04  -2.540529687784e-04   2.437363000865e-04 
6 1  2.356841880621e-04   2.065903214699e-04   1.930211287905e-04 
7 1 -3.485679027851e-05  -3.584847204923e-05  -5.108306493048e-05 
8 1 -1.569844092894e-04   3.421077032581e-04   2.722911774001e-05 
8
Step 2300
1 1  9.263101329695e-05   1.387021665117e-04   1.122316471645e-04 
2 1 -3.340850884539e-05  -6.470497016555e-05  -1.020601073209e-05 
3 1 -3.940538121755e-05  -1.304266660964e-04  -1.174999348492e-04 
4 1 -1.914612619882e-04   3.510945123540e-05  -4.659202180751e-05 
5 1  2.455694741398e-04  -1.339809826961e-04   4.602239790517e-05 
6 1 -5.507391268176e-05   2.750784163311e-04   5.864654613652e-05 
7 1 -1.060658118662e-04   7.296448929470e-05  -5.367147619132e-05 
8 1 -1.423983428686e-04   4.148530232270e-04  -6.076395500558e-05 
8
Step 2400
1 1  2.291710004654e-05  -2.364725394555e-05   9.016760632522e-05 
2 1 -2.141061338916e-04   2.369884122813e-04  -2.141622368340e-05 
3 1 -1.205259724563e-04   3.124454494317e-04  -1.341085615193e-04 
4 1 -2.029088982311e-04   4.036857329472e-05   2.468270174395e-04 
5 1  2.951847965883e-05   1.473754159888e-04  -2.408820387905e-04 
6 1 -3.348948087602e-04   9.769710100295e-05  -2.140328396153e-04 
7 1 -1.176408206261e-04   1.307369677382e-05  -6.294459898065e-06 
8 1  2.575352090126e-05  -3.313254895915e-05  -8.266693877608e-05 
8
Step 2500
1 1 -9.807386873980e-06  -1.880935916913e-04  -7.528335892429e-06 
2 1 -1.093535539113e-04   1.844166820718e-04  -5.166550478370e-05 
3 1 -7.560205419166e-05   3.732381103951e-04   6.679456042087e-05 
4 1  1.100568878014e-04  -1.601430781321e-05   2.306243867048e-04 
5 1 -9.944730486897e-05   2.304575747955e-04  -1.970621443567e-04 
6 1 -2.253028339840e-04  -1.583463045940e-04  -2.139590545096e-04 
7 1  4.559242750016e-06  -1.308067199499e-04   2.956857923523e-05 
8 1  1.373530840677e-04  -4.651642801750e-04  -7.917407133271e-05 
8
Step 2600
1 1  5.560669951992e-05  -1.612921322313e-04  -8.331757931221e-05 
2 1  1.869190367854e-04  -1.220031428701e-04  -1.027220525717e-04 
3 1  3.388837899013e-05  -1.536862052599e-05   2.032075288896e-04 
4 1  3.342737222525e-04  -7.938297295558e-05  -1.540098346094e-04 
5 1 -7.211710190727e-05   2.837786914179e-05   1.350739960928e-04 
6 1  1.790963909701e-04  -2.181584618747e-04   1.154549633225e-04 
7 1  1.770930489472e-04  -1.088597498139e-04   3.520268833592e-05 
8 1  6.551942981084e-05  -3.265466808911e-04  -8.057024450363e-05 
8
Step 2700
1 1  8.826537833262e-05   4.642989132757e-05  -9.695108465592e-05 
2 1  2.757583593333e-04  -2.280583870398e-04  -8.258733409537e-05 
3 1  7.729101564711e-05  -3.587758192513e-04   5.150886441812e-05 
4 1  1.182292410723e-04  -9.166168309771e-05  -3.987877013685e-04 
5 1 -2.973279799459e-05  -1.708562450845e-04   2.906694592975e-04 
6 1  3.715384246303e-04  -2.987030652120e-05   3.584560283993e-04 
7 1  2.029267337749e-04   1.118674531135e-04   3.880778195654e-05 
8 1 -7.855269316527e-05   2.090722349303e-04  -3.143443799179e-05 
8
Step 2800
1 1 -2.330530171313e-05   2.073869400969e-04  -8.982846119055e-05 
2 1  6.611724416339e-06   2.665889650557e-05   6.335666062858e-05 
3 1  2.522599693339e-05  -2.462272732221e-04  -2.184288973212e-04 
4 1 -3.166666915973e-04  -5.230037129755e-05  -1.351054049822e-04 
5 1 -7.294791960164e-05  -1.107532835204e-04   3.774586105083e-05 
6 1  8.170997921721e-05   1.392088545016e-04   1.820083177572e-04 
7 1  5.198560471883e-06   2.505430155648e-04   4.351317540303e-05 
8 1 -9.389608873233e-05   4.256873096884e-04   9.955761693564e-05 
8
Step 2900
1 1 -1.667222650391e-04   1.349258309652e-04  -7.971360087125e-05 
2 1 -2.725540518251e-04   2.681603694275e-04   2.066806652448e-04 
3 1 -3.148065851281e-05   1.264516451526e-04  -2.390017383512e-04 
4 1 -4.129897830386e-04  -1.154370101241e-06   2.950098383521e-04 
5 1 -1.166183041854e-04   8.624576571471e-05  -2.768220636187e-04 
6 1 -3.328255695270e-04   3.133851480013e-05  -1.923063081475e-04 
7 1 -2.361199152389e-04   9.812721663711e-05   1.055626179399e-05 
8 1  4.317862050990e-05   2.634780520928e-05   1.994486870240e-04 
8
Step 3000
1 1 -1.492924603076e-04  -9.045759206999e-05  -1.674859090600e-05 
2 1 -1.784460223288e-04   1.227038418756e-04   1.567605698750e-04 
3 1 -2.474848620412e-05   2.578308787416e-04   5.893607632898e-05 
4 1 -1.795337093251e-05   4.111258842134e-05   2.874364951841e-04 
5 1 -3.779127269888e-05   1.186241628420e-04  -2.079843119073e-04 
6 1 -3.289307559387e-04  -2.379144466902e-04  -2.848591266946e-04 
7 1 -2.557201578269e-04  -1.584141552570e-04  -6.334481365344e-05 
8 1  1.437572346581e-04  -4.331610637230e-04   1.198178246441e-04 
8
Step 3100
1 1  6.848440577391e-06  -2.127731222868e-04   1.100359840313e-04 
2 1  1.575937921536e-04  -2.233747720888e-04  -6.236740193057e-05 
3 1  9.020607868030e-06   2.972017746771e-05   3.219278455378e-04 
4 1  3.721847658343e-04   8.533743500034e-05  -1.541252614082e-04 
5 1  1.210339129213e-04  -5.163545867509e-05   1.564556168575e-04 
6 1  1.016082335486e-04  -2.918530890727e-04  -1.911772770768e-05 
7 1 -8.782024505291e-06  -1.794596016091e-04  -1.007131337071e-04 
8 1  5.507412867226e-05  -2.883772038937e-04  -9.271285010125e-05 
8
Step 3200
1 1  7.986247078289e-05  -1.020878658335e-04   1.882220351922e-04 
2 1  2.622362776604e-04  -2.696578695826e-04  -1.913119757336e-04 
3 1  1.982943572575e-05  -1.810322979179e-04   2.194078122610e-04 
4 1  2.544516376525e-04   1.196015295800e-04  -4.087633493431e-04 
5 1  1.901221093560e-04  -1.610710304599e-04   3.249488037067e-04 
6 1  4.117695631574e-04   6.605382594835e-06   1.984821670776e-04 
7 1  2.574914570674e-04   4.169249998061e-05  -3.119022328486e-05 
8 1 -1.338827298138e-04   3.040715296886e-04  -1.974611887006e-04 
8
Step 3300
1 1 -1.697629275821e-05   9.983389821558e-05   1.037420341109e-04 
2 1 -5.355815930677e-06   7.213039342788e-05  -6.738908331903e-05 
3 1  3.277952533007e-05  -8.207129946768e-05  -1.242297356076e-04 
4 1 -1.955504895321e-04   9.015291659566e-05  -1.323027134393e-04 
5 1  9.837983553314e-05  -4.558396882624e-05   9.425683924969e-05 
6 1  2.225544239062e-04   3.423708622150e-04   7.889572098989e-05 
7 1  2.741810006703e-04   1.710168117016e-04   8.874367889471e-05 
8 1 -2.020626068994e-04   5.698123753979e-04  -6.218471866738e-05 
8
Step 3400
1 1 -9.437529913357e-05   1.669948848026e-04  -8.667076396888e-05 
2 1 -2.621021090681e-04   3.336517188560e-04   1.446681293499e-04 
3 1  7.803625072969e-05   1.365076433449e-04  -2.975521351459e-04 
4 1 -3.586655434832e-04  -3.341372519718e-05   2.709359247039e-04 
5 1 -4.764658703765e-05   1.316828245437e-04  -2.069180571391e-04 
6 1 -2.067381337789e-04   3.373377946311e-04  -1.610895997195e-04 
7 1  3.623507423205e-05   2.674072723057e-05   1.162891595289e-04 
8 1 -6.629717173326e-05   1.638129077016e-04   1.410555621665e-04 
8
Step 3500
1 1  2.455460867501e-05   5.433951829856e-05  -1.881414043082e-04 
2 1 -1.588104159588e-04   1.435642676120e-04   1.691686717117e-04 
3 1  9.531037600797e-05   1.252439207193e-04  -1.244878407609e-04 
4 1 -6.380693035834e-06  -1.769087065095e-04   2.633531960888e-04 
5 1 -1.157721773586e-04   1.347367727725e-04  -2.145485765368e-04 
6 1 -3.525702641168e-04   2.387746870447e-05  -1.568145345052e-04 
7 1 -2.121362379530e-04  -1.595336419973e-04   3.547735784611e-06 
8 1  1.284184706670e-04  -3.884089860689e-04   1.469362560543e-04 
8
Step 3600
1 1  2.220347625923e-04  -8.269633899106e-05  -9.465611367729e-05 
2 1  1.353000476601e-04  -2.501214635426e-04  -1.007694983169e-05 
3 1  2.208941186011e-06  -1.049111807867e-04   1.431802242861e-04 
4 1  4.061818640679e-04  -1.970916968752e-04  -5.740510472889e-05 
5 1 -9.728737813592e-05  -1.271507217337e-05  -6.525748527945e-06 
6 1 -9.123257036087e-05  -2.170300433838e-04   7.071739921967e-05 
7 1 -2.478531484756e-04  -1.030417266977e-04  -1.220911014722e-04 
8 1  1.923311761624e-04  -4.260303552491e-04  -5.008331308808e-05 
8
Step 3700
1 1  2.279470769029e-04  -9.638358787906e-05   8.546568343196e-05 
2 1  2.039288484588e-04  -3.198433341189e-04  -1.494954591892e-04 
3 1 -1.580315601867e-04  -2.100563513900e-04   1.753522879910e-04 
4 1  3.481618843490e-04  -2.774214130344e-05  -1.547599162150e-04 
5 1 -5.759194907698e-05  -9.403496780093e-05   9.213313846233e-05 
6 1  2.216956697893e-04  -1.487227233531e-04   1.803776520262e-04 
7 1 -7.313025039978e-05   1.031405166834e-04  -1.072259893710e-04 
8 1  9.165648576134e-05   7.391691434289e-06  -1.881536553120e-04 
8
Step 3800
1 1 -5.449382453750e-06  -2.778147420913e-06   1.552339898613e-04 
2 1 -2.182038245398e-05   3.152233074474e-05  -9.282465586563e-05 
3 1 -2.142362900647e-04  -9.638930593691e-06  -3.579484235774e-05 
4 1 -1.183416917897e-04   2.113538900548e-04   1.313231662215e-04 
5 1 -1.180966493303e-05  -2.151704246859e-05  -2.076624540729e-06 
6 1  2.422642911349e-04   6.563329601456e-05   2.129595193124e-05 
7 1  1.315554584407e-04   1.221598612092e-04   2.957594440540e-05 
8 1 -5.674578434222e-05   3.104183066234e-04  -8.510420267823e-05 
8
Step 3900
1 1 -2.164416547466e-04   7.218123671620e-05   5.604594375481e-05 
2 1 -1.861224617003e-04   3.425781131170e-04   2.436250804358e-05 
3 1 -6.732686595927e-05   2.476284403855e-04  -1.955903647504e-04 
4 1 -4.374057218678e-04   2.869974295167e-04   3.384870050120e-04 
5 1  6.476053977471e-05   5.736999523210e-05  -6.026554443894e-05 
6 1  1.905197431865e-05   1.239728844742e-04  -1.585803980294e-04 
7 1  1.941468868720e-04  -1.160299300393e-04   1.165958245614e-04 
8 1 -1.276470920891e-04   1.432055627676e-04   1.189735726781e-04 
8
Step 4000
1 1 -1.783793244697e-04   5.616363347375e-05  -7.280052163893e-05 
2 1 -3.932245437092e-05   2.091129013378e-04  -2.668401508519e-06 
3 1  1.516766018738e-04   2.143232564391e-04  -8.382699741516e-05 
4 1 -2.652411966459e-04   8.535092106392e-05   5.967195760467e-05 
5 1  1.394515601652e-04   2.076605586714e-06   6.453141803355e-05 
6 1 -1.533092381163e-04  -1.936910173746e-05  -8.265579703852e-05 
7 1  9.306387724676e-05  -2.604632810285e-04   5.658478223627e-05 
8 1 -9.380152195766e-05  -1.814904017754e-04   1.497156923531e-04 
8
Step 4100
1 1  5.155288141193e-06  -5.098582170650e-06  -7.482800858418e-05 
2 1  1.931101348720e-04  -1.867190459112e-04  -1.245370649600e-04 
3 1  2.037264984816e-04  -8.371839754653e-05   1.794047642388e-04 
4 1  1.411549782704e-04  -2.325468168007e-04  -4.175503333662e-04 
5 1  1.214360968016e-04  -9.787064901966e-05   1.896959532440e-04 
6 1 -1.269857018370e-04  -1.350289152653e-04   1.486041236649e-04 
7 1 -5.750977276598e-05  -1.772517529050e-05  -4.589440798635e-05 
8 1 -8.014400182877e-06  -2.013206389323e-04  -2.899930487121e-05 
8
Step 4200
1 1  6.316800546992e-05  -3.212172671451e-05   2.902402289387e-05 
2 1  1.412564223080e-04  -3.293072910872e-04  -9.984462904352e-05 
3 1  3.162350656107e-05  -2.726314614615e-04   2.797707885621e-04 
4 1  2.957721672964e-04  -3.547005863695e-04  -4.595457236939e-04 
5 1 -7.671185573950e-06  -5.837399557421e-05   8.002243052258e-05 
6 1 -1.891279290912e-05  -5.999792539423e-05   1.974915113326e-04 
7 1 -1.239033107872e-04   3.765642691949e-04  -4.132485737602e-05 
8 1  6.215520086507e-05   6.299457524284e-05  -1.660798485212e-04 
8
Step 4300
1 1 -5.100154788902e-05  -1.840239913284e-05   7.783280841891e-05 
2 1 -1.543425243506e-04  -5.033834892450e-05   1.385115734568e-04 
3 1 -1.495998901176e-04  -1.258778430856e-04   7.942499691760e-05 
4 1  9.070324114733e-05  -1.401215225990e-04   2.193366468366e-05 
5 1 -1.387435398061e-04   1.033775788169e-04  -1.704341469817e-04 
6 1  1.823294339592e-05   8.229582296881e-05  -2.811104029213e-05 
7 1 -6.691823730301e-05   4.010805062639e-04   4.469419915531e-05 
8 1  7.861137504817e-05   2.043131306744e-04  -6.455008903971e-05 
8
Step 4400
1 1 -1.083492740606e-04  -1.742491600489e-05  -9.751446168526e-06 
2 1 -2.698895005304e-04   2.741869099761e-04   3.283130749640e-04 
3 1 -1.122145262131e-04   1.537172762618e-04  -2.229978141112e-04 
4 1 -1.443153780157e-04   2.114739477675e-04   4.116693043226e-04 
5 1 -1.474994782772e-04   1.657581706756e-04  -2.315511750197e-04 
6 1  2.127866562740e-06   7.302344682062e-05  -2.326774034772e-04 
7 1  3.712546572943e-05  -5.998730129973e-05   5.083705114948e-05 
8 1  4.016510582850e-05   3.830689781734e-05   1.516032985202e-04 
8
Step 4500
1 1  3.478320226499e-05  -4.383088812440e-05  -1.293649501563e-04 
2 1  1.825215258278e-06   2.369308503365e-04   2.004625918390e-04 
3 1  9.411162040854e-05   2.157632498802e-04  -3.133419699013e-04 
4 1 -1.252711616397e-04   3.446738490984e-04   2.208065825313e-04 
5 1 -3.828167538860e-05   1.822086704977e-05  -4.489404981743e-06 
6 1  3.387556359537e-05  -7.903137035899e-05  -1.380751172023e-04 
7 1  7.665916647952e-05  -4.865728565414e-04  -6.961198734373e-05 
8 1 -2.169910484791e-05  -1.543681612774e-04   1.979778971301e-04 
8
Step 4600
1 1  2.040367076074e-04  -4.489542151064e-05  -1.353104425238e-04 
2 1  3.270558175139e-04  -8.096222754160e-05  -1.400010309323e-04 
3 1  2.071577054726e-04   6.588752539335e-06  -1.059028806218e-04 
4 1  4.540928224327e-05   1.307037523215e-04  -2.438875846761e-04 
5 1  6.371790117307e-05  -1.675560142966e-04   2.168744430882e-04 
6 1  1.018529394861e-04  -1.479343072923e-04   1.311842211221e-04 
7 1  1.840020861225e-05  -3.552947156485e-04  -1.497841087688e-04 
8 1 -5.844985365140e-05  -7.259278047153e-05   9.238433928872e-06 
8
Step 4700
1 1  1.475074424983e-04   2.026382553415e-05  -2.179222655235e-05 
2 1  2.592131857972e-04  -2.615015375033e-04  -3.169463540766e-04 
3 1  8.324911183994e-05  -2.034091364327e-04   1.810439357539e-04 
4 1  9.365502413240e-05  -1.908309655532e-04  -3.193198050487e-04 
5 1  6.798860859098e-05  -1.638315882429e-04   1.406533513781e-04 
6 1  8.713894307158e-05  -8.926611461735e-06   2.199007907611e-04 
7 1 -6.303482621496e-05   1.822146285474e-04  -3.143273101283e-05 
8 1 -4.706417881740e-05   1.610645585302e-04  -1.815900690668e-04 
8
Step 4800
1 1 -8.322114731676e-05   9.763316120251e-05   8.839601651428e-05 
2 1 -1.469009858209e-04  -1.101750726802e-04  -1.491441830665e-04 
3 1 -1.314908740706e-04  -1.836286349862e-04   2.656353649627e-04 
4 1 -2.276905090784e-05  -2.702860736967e-04   8.824502555276e-05 
5 1  1.003024634555e-05   3.971426719045e-06  -1.204551546191e-04 
6 1 -4.428740273752e-05   1.763289363984e-04   2.070829766454e-05 
7 1 -6.944450007718e-05   4.581000172801e-04   1.815944025146e-04 
8 1 -1.426492453679e-05   1.942022376630e-04  -1.507723271842e-04 
8
Step 4900
1 1 -1.830026410734e-04   8.862307924002e-05   1.115632371895e-04 
2 1 -3.912839881578e-04   1.298470138782e-04   1.254758570679e-04 
3 1 -2.023219186408e-04   5.912702273917e-06   9.522025599646e-05 
4 1 -9.164009696339e-05  -3.937444633302e-05   4.016201622336e-04 
5 1 -1.719599840622e-05   1.093083461254e-04  -2.106293226495e-04 
6 1 -1.587472634451e-04   1.748986709092e-04  -1.997822686813e-04 
7 1  7.336734371181e-06   1.297831259221e-04   2.167536592983e-04 
8 1 -2.707086624574e-06  -3.458529554750e-05   3.505372252205e-05 
8
Step 5000
1 1 -2.026629813410e-05  -2.120690509562e-05   8.561910670679e-05 
2 1 -1.837102241537e-04   1.507039925892e-04   1.713180674238e-04 
3 1 -8.906622859608e-05   1.531899538951e-04  -1.257546587432e-04 
4 1  1.450699322293e-05   2.184891701948e-04   2.025408397016e-04 
5 1  1.611276238049e-05   5.124060374518e-05  -2.118467272903e-05 
6 1 -1.133177343080e-04  -7.878390019614e-06  -1.738908636970e-04 
7 1  7.803004484733e-05  -3.831742303541e-04  -1.312771345923e-05 
8 1 -7.427165201100e-06  -2.143607599443e-04   1.313977951516e-04 
8
Step 5100
1 1  1.665194284761e-04  -1.194183962088e-04   7.191317066792e-05 
2 1  1.907084239289e-04  -1.762642683286e-05  -1.984520216266e-05 
3 1  4.974902953329e-05   1.578773368177e-04  -1.746569093496e-04 
4 1  1.490835710569e-04   1.988215170461e-04  -2.019318798406e-04 
5 1  5.714704308015e-05  -2.301712792232e-05   1.778971639528e-04 
6 1  5.967347115297e-05  -1.428995927507e-04   3.340551378732e-05 
7 1  6.038242937751e-05  -4.249843135566e-04  -2.610934246846e-04 
8 1  2.244317093562e-05  -1.152603866235e-04   4.151841532217e-05 
8
Step 5200
1 1  9.571590624340e-05  -8.308412591690e-05   5.388813588471e-05 
2 1  2.671057848620e-04  -1.023705958861e-04  -1.531252470354e-04 
3 1  8.457226596329e-05   7.919619050901e-05  -4.330259485558e-05 
4 1  1.056727783033e-04  -7.249941688236e-05  -2.473023145410e-04 
5 1  5.113071614175e-05   3.631232477274e-05   1.285055539720e-04 
6 1  1.806776769779e-04  -7.799133287236e-05   1.567777020828e-04 
7 1 -2.746845634764e-05   7.836575587936e-05  -2.282367868876e-04 
8 1  9.835015134899e-05   9.044825825055e-05  -8.267410177575e-05 
8
Step 5300
1 1 -1.509853082161e-04   6.357150738055e-05  -2.041401283318e-05 
2 1  1.250363247641e-05   3.295935027794e-06  -4.356048292425e-05 
3 1  4.359394236143e-05  -3.877745837303e-06   8.138283718815e-05 
4 1 -8.057281451757e-05  -2.727108422686e-04   7.978439020305e-05 
5 1 -3.686115618786e-06   1.430453466858e-04  -6.802159867599e-05 
6 1  1.232445826065e-04   7.892555320122e-05   9.459712879345e-05 
7 1 -8.520094902885e-05   5.294611842260e-04   5.833749087500e-05 
8 1  1.377747858191e-04   9.214892836502e-05  -7.043526569686e-05 
8
Step 5400
1 1 -2.195377895468e-04   1.534418756810e-04  -1.287598094493e-04 
2 1 -1.677416666083e-04   1.026464210383e-04   1.389467873443e-04 
3 1  1.407946236006e-05  -7.776557264590e-05   5.753175785683e-05 
4 1 -1.719942162391e-04  -1.642058829826e-04   2.426838855139e-04 
5 1 -7.361359583567e-05   9.312347832701e-05  -1.260038992196e-04 
6 1 -5.334210899293e-05   1.187823613029e-04  -7.750633356429e-06 