8
Step 0
1 1  0.000000000000e+00   0.000000000000e+00   0.000000000000e+00 
2 1  0.000000000000e+00   0.000000000000e+00   0.000000000000e+00 
3 1  0.000000000000e+00   0.000000000000e+00   0.000000000000e+00 
4 1  0.000000000000e+00   0.000000000000e+00   0.000000000000e+00 
5 1  0.000000000000e+00   0.000000000000e+00   0.000000000000e+00 
6 1  0.000000000000e+00   0.000000000000e+00   0.000000000000e+00 
7 1  0.000000000000e+00   0.000000000000e+00   0.000000000000e+00 
8 1  0.000000000000e+00   0.000000000000e+00   0.000000000000e+00 
8
Step 1000
1 1 -9.807739334310e-05   1.403559772898e-04   1.339215729345e-04 
2 1 -2.314609266069e-04   2.673893769144e-04   1.126130933469e-04 
3 1  1.699751408314e-04   4.232496545973e-04   1.846581041541e-04 
4 1 -3.905618281331e-04   7.790669314211e-05  -1.173252771737e-04 
5 1 -3.420353144648e-04   1.487295957827e-04   1.910030668039e-04 
6 1 -9.168439324764e-05  -1.571542016246e-04  -2.681131488116e-04 
7 1 -1.217021262105e-04   1.859978182523e-04   5.913828533115e-05 
8 1  2.759676822635e-05   8.535853373740e-05   6.786583505544e-06 
8
Step 2000
1 1 -1.770110606701e-04   2.696925086747e-04   1.298631734515e-04 
2 1 -1.188340128981e-04   1.704170018130e-04  -4.133979372765e-05 
3 1 -2.211330552358e-05  -2.739750342623e-05   1.643051536293e-04 
4 1 -2.356266530539e-04   7.807272061435e-05   9.537134910305e-05 
5 1 -7.745458402112e-05  -2.343430577963e-05   2.996882105666e-04 
6 1  1.478261120576e-04   1.249869459941e-04  -2.824475822033e-04 
7 1 -2.030993707755e-04   1.018135238540e-04  -4.582212953782e-05 
8 1 -2.673088286590e-04   1.990819428286e-04  -1.096055911895e-05 
8
Step 3000
1 1 -2.605312443337e-04   2.789345598266e-04  -6.479990538231e-05 
2 1 -1.247829536119e-04   1.075993271317e-04   2.417489654899e-04 
3 1  2.269298246861e-05  -7.090667809616e-06   2.722845939448e-05 
4 1 -2.892069251571e-04   9.856596424754e-05   2.516814016788e-05 
5 1 -1.703863293124e-04  -5.618047898401e-05   2.346613265236e-04 
6 1  2.162769398952e-05   1.962612242815e-04  -1.407889029934e-04 
7 1  9.720588812833e-05  -3.951513651998e-05   5.304675844045e-05 
8 1 -1.482661573328e-04   2.398361274666e-04   2.047395904679e-04 
8
Step 4000
1 1 -6.299737357692e-05   4.613782369912e-06  -3.339221651546e-07 
2 1 -1.605084542815e-04   3.747043856551e-04   1.203798443666e-04 
3 1 -1.615429059611e-05  -1.856813220884e-04  -3.255434830228e-05 
4 1 -2.733261517813e-04   3.489611055701e-04   4.876796158369e-05 
5 1 -3.648779015303e-05  -2.011218386549e-04   1.196989199726e-04 
6 1  7.648094750250e-05   3.297880497696e-04  -5.137504956625e-05 
7 1  2.114534011903e-04  -1.888525853391e-05   1.165312279258e-04 
8 1  6.035290545728e-05   1.950161460509e-04   1.789247040766e-04 
8
Step 5000
1 1 -1.681919470245e-04  -1.240663014532e-05   1.516182927346e-04 
2 1 -1.439063098217e-04   1.835164731546e-04   1.676830226718e-04 
3 1  2.181637894712e-05  -1.357089271260e-04  -8.896114262656e-05 
4 1 -3.877309230571e-04   3.773122734665e-04   3.626170284639e-04 
5 1  2.297527485552e-05  -1.045738144220e-04   6.419618762348e-05 
6 1  1.012301299963e-04   6.253232307339e-05  -2.236113002600e-06 
7 1  3.259765920552e-04   3.334181329282e-05   2.789201816662e-05 
8 1 -4.700763149517e-05   1.076722516374e-04   8.746950349084e-05 
8
Step 6000
1 1 -1.233573467400e-04   8.276573955566e-05  -5.424145223449e-05 
2 1 -2.393885532329e-04  -8.462306102493e-05   3.447746649000e-04 
3 1  1.931681214057e-05  -1.191206188476e-04   5.452843175696e-05 
4 1 -1.829861682210e-04  -2.070923684180e-04   3.197033861619e-04 
5 1  2.344681560144e-04  -1.881799649732e-06   1.721896147169e-05 
6 1  9.575341523347e-05   1.147557831058e-04  -8.626224012568e-05 
7 1  1.592010561888e-05   1.109979795179e-04   1.035030886038e-04 
8 1 -1.228225336979e-04   1.273007877117e-04   1.602858905320e-05 
8
Step 7000
1 1 -2.343184805117e-04   1.469087328908e-04   3.943328368382e-05 
2 1 -1.717744865996e-04  -9.181966025330e-05   9.848221929649e-05 
3 1  8.489528353289e-05  -2.041523180897e-04   3.285634086086e-04 
4 1 -1.735534504181e-04  -2.637772179730e-04   2.341692034546e-04 
5 1  1.616595177902e-04  -7.064936133765e-05   1.003843570657e-04 
6 1  1.842678594578e-04   1.117025601162e-04  -1.032242267988e-04 
7 1 -5.642877067683e-05   3.054634471390e-04   1.775312149363e-04 
8 1 -1.799816491802e-05   5.471080395383e-05   8.711846120117e-05 
8
Step 8000
1 1 -1.664139304407e-04   5.124031668307e-05  -7.799954250255e-05 
2 1  3.001520059354e-05  -8.566589878363e-05  -5.270954945098e-05 
3 1  1.746226832926e-04  -9.549384276413e-05   2.725415421600e-04 
4 1  9.778794532482e-06  -3.004268152881e-04   2.502068656092e-05 
5 1 -5.209949513770e-05   5.447735175402e-05   1.235714588648e-04 
6 1  2.404746231213e-04  -5.448532792900e-05   3.716846041073e-05 
7 1  2.127636981918e-04   1.916039378225e-04   2.580862061550e-04 
8 1 -3.800820205271e-05   5.775480118033e-05   5.382836518301e-05 
8
Step 9000
1 1 -2.061006979588e-04  -1.603707232283e-04   2.239846823755e-04 
2 1  2.775146053485e-05  -1.339493915282e-04  -2.568685739907e-05 
3 1  8.469157066574e-06   1.442664365501e-04   2.488149204861e-04 
4 1  7.730042719625e-05   2.122346603474e-05   6.954235368252e-05 
5 1  8.775828210987e-05   5.753233607807e-05   3.424708588328e-04 
6 1  3.998347975707e-04   1.073269961577e-05  -1.509493373244e-04 
7 1  2.191212232617e-04  -1.372877536645e-04   1.596226842561e-04 
8 1  5.916358861352e-05   8.883092489972e-06  -6.112004850316e-05 
8
Step 10000
1 1  4.659300627339e-05  -2.591666652302e-04   5.064807789690e-05 
2 1  2.557404846723e-07  -5.262004622299e-06   6.468501258767e-05 
3 1 -7.316829163717e-05  -1.912215830336e-04   2.563933119409e-04 
4 1  3.197419555874e-04   6.039381193852e-05   2.848008124185e-04 
5 1 -8.722667108567e-05  -3.958973893478e-05  -6.450743208846e-05 
6 1  1.776907122033e-04  -4.508874839846e-05  -1.357654955514e-04 
7 1  8.382157842797e-05  -1.356642085530e-04   1.130052200907e-04 
8 1  7.710060614440e-05  -1.514320988597e-04  -5.166144035751e-06 
8
Step 11000
1 1  5.718285900966e-06  -1.164153813270e-04  -1.304850903480e-05 
2 1 -1.442044795998e-04  -5.836477731475e-05   1.270460944666e-04 
3 1  4.755639205896e-05  -3.339769396109e-04   2.552009884218e-04 
4 1  2.811851798505e-04  -3.469142436882e-04   7.980997571220e-05 
5 1  8.248114243608e-05  -1.675657095518e-04  -2.267063371722e-05 
6 1 -1.273620537055e-04  -3.986745283515e-05  -6.950755867062e-05 
7 1  9.904941811831e-05  -2.355269315681e-05   2.103353578573e-04 
8 1 -1.560770314067e-06   8.688870418468e-05  -4.538709017661e-05 
8
Step 12000
1 1  6.668104399200e-05  -6.249598873110e-06  -5.619057023385e-05 
2 1  1.984532805298e-04  -2.318096002361e-04  -1.524323387181e-04 
3 1  3.149825285656e-04  -2.848554940346e-04   6.722601320200e-05 
4 1 -2.255435854013e-05  -1.101051565080e-04   2.101687715775e-04 
5 1  3.262949077026e-04  -3.032695457291e-04   2.270740581892e-05 
6 1 -1.275475918295e-05   9.353485115989e-05  -2.119418004156e-05 
7 1  2.491071950050e-05  -1.185978827520e-04   1.801643349851e-04 
8 1 -6.532993958743e-05  -1.432665641104e-05  -7.682108839297e-05 
8
Step 13000
1 1 -5.966238154124e-06  -1.122145729841e-04  -1.117832550666e-05 
2 1  8.075370046424e-05  -4.082670832784e-06   1.334213286239e-04 
3 1  3.413122250058e-04   3.782209237526e-07  -6.970724968550e-06 
4 1  1.313394563013e-04  -1.623556421278e-04   1.299932960775e-04 
5 1  3.514112247322e-04  -6.369193551318e-05  -2.315258706991e-06 
6 1  1.069140292820e-04   1.588004036513e-05   8.723099979779e-05 
7 1 -4.810174907961e-05  -1.487797734973e-04  -1.076092958038e-04 
8 1  1.179346243719e-04  -2.085213216326e-04  -2.044231393580e-05 
8
Step 14000
1 1  1.618364026452e-04  -1.742294158067e-04   9.256170859220e-06 
2 1  8.491316559300e-05  -1.777771849037e-04  -6.337803321377e-05 
3 1  2.967724960572e-04   1.083080276650e-04   1.934916758444e-04 
4 1 -2.207251503541e-05  -3.248215642169e-06   1.590342803462e-06 
5 1  2.542411936259e-04   8.620039188095e-06  -2.814641534651e-05 
6 1  5.896214443431e-05  -2.174124721760e-04  -1.020089867443e-04 
7 1  1.409775284279e-04  -3.312105628749e-04  -6.543407536541e-05 
8 1 -6.784103142570e-05  -2.235365027520e-04  -2.452457984204e-05 
8
Step 15000
1 1  2.652264922293e-05  -1.066420537312e-04   2.469747581101e-04 
2 1  2.853677628271e-04  -1.311582596334e-04  -5.354177689571e-05 
3 1  8.948146461301e-05  -2.639064199881e-04  -3.100466204068e-05 
4 1  1.961166604212e-04  -1.112706872574e-04   5.226815713435e-05 
5 1 -2.092394766602e-04  -1.671672808899e-05   8.163702046119e-05 
6 1  2.947346474163e-05  -6.799644363981e-05  -1.677059668069e-04 
7 1  2.284797838910e-04  -2.667417052141e-04  -1.598269230749e-05 
8 1 -2.006977124372e-04  -8.886446832650e-05  -2.063176635049e-04 
8
Step 16000
1 1  2.790271779358e-04  -5.508130527204e-05  -8.083002843640e-05 
2 1  2.367838396034e-04  -1.087220610827e-04  -9.169277699979e-05 
3 1 -1.125427282098e-04  -1.922638240891e-04  -9.066269583134e-05 
4 1  2.778750527237e-04  -1.753295317954e-04  -6.291648731562e-05 
5 1 -1.446208446515e-04  -2.802499502269e-05   1.062342677572e-04 
6 1  2.459258519891e-04  -1.987479497383e-04   3.903493853162e-06 
7 1 -1.011639834850e-04  -2.242991485529e-04   2.135167242503e-06 
8 1 -1.773708637041e-04  -1.645899663687e-04  -1.534381492699e-04 
8
Step 17000
1 1  1.279585045443e-04   4.247596321505e-05  -1.854404265334e-04 
2 1  2.635237223271e-04   3.675168273804e-05  -5.333028297372e-05 
3 1  4.552868068683e-05  -2.165895842257e-04   1.845160111293e-04 
4 1  3.937639744823e-04   4.372093429487e-06  -3.043503989375e-05 
5 1  1.741201188413e-04  -1.284875791919e-05  -6.961718312006e-05 
6 1 -2.854728077079e-05   8.042632626951e-06  -1.636938497646e-04 
7 1  5.198905161794e-05  -2.121594205703e-04   1.045490370837e-04 
8 1 -1.553859638889e-04  -2.078445616050e-04  -1.873145013730e-04 
8
Step 18000
1 1  2.732156599816e-04  -1.348199982657e-04  -9.367139471277e-05 
2 1  5.465037948703e-05  -6.640236174948e-05  -1.261955833159e-04 
3 1  2.003762623734e-05   3.476853453636e-04   1.789579458249e-04 
4 1  3.150151633556e-04   5.090482575718e-05  -1.516293100103e-04 
5 1  5.053787533452e-05   3.553007698080e-05  -2.050931056933e-04 
6 1  2.156974663427e-04  -2.295831709596e-05  -8.655439149706e-05 
7 1  8.530415146757e-05  -2.708595542467e-04   1.938880683034e-04 
8 1  1.497371461267e-05  -3.301067265795e-04  -2.532647839994e-04 
8
Step 19000
1 1  5.551551748999e-05  -2.157668859112e-05   9.391038406833e-05 
2 1  2.915581160186e-04  -3.056801897336e-04  -1.574328212947e-04 
3 1 -1.022856152809e-04   2.735536242573e-04   5.685292395569e-05 
4 1 -1.891286097989e-04  -1.101723643603e-04  -8.156997297791e-05 
5 1  2.854674262822e-06   1.203860328365e-04  -2.885408537219e-04 
6 1  1.770700769556e-04  -1.252697216780e-04   8.433759721816e-05 
7 1 -8.607260675657e-05  -1.599861235772e-04  -2.793436091392e-05 
8 1 -7.279565652560e-06  -2.536982836030e-04  -2.137589831593e-04 
8
Step 20000
1 1  3.808467980622e-04  -1.780171834598e-04   5.230157794535e-05 
2 1 -1.811736539592e-05  -1.227113224282e-04  -2.045264087302e-04 
3 1 -3.648834522078e-04   9.229553125462e-05  -2.039299277632e-04 
4 1  1.559088799358e-05  -3.556041576755e-05   1.875161204607e-05 
5 1  1.898970204311e-05   5.452390702907e-05  -1.596969223659e-04 
6 1 -1.070089872494e-04  -9.891561565676e-05   1.283445173090e-04 
7 1  8.347681577646e-05  -1.616237723077e-04   9.910785892503e-05 
8 1 -2.092776837022e-04  -2.593932353585e-04  -2.859964055197e-04 
8
Step 21000
1 1  1.360379701394e-04   5.570360327755e-05  -2.692398524331e-04 
2 1  7.464922888263e-05   7.478660463208e-05  -2.165597281671e-04 
3 1 -2.248395557262e-04  -1.556284931167e-05   1.099023326962e-04 
4 1  3.973536560093e-04  -1.637066018214e-04   1.372765828791e-04 
5 1 -1.371697929433e-04   2.204841483513e-04  -2.561956704912e-04 
6 1  1.336014105619e-05  -8.585164316056e-05   9.542843920677e-05 
7 1  6.875163961784e-05  -2.084571422092e-04   1.556065750978e-05 
8 1 -2.405578321970e-04   9.553710526256e-05  -1.738748066813e-04 
8
Step 22000
1 1  6.482828640800e-05  -1.241663214151e-04  -2.466200372787e-04 
2 1 -4.566175756648e-05   2.082374913042e-04  -8.191542645249e-05 
3 1 -1.764378025971e-04   1.084257402215e-04  -1.458507997929e-04 
4 1  3.341305251410e-04   1.033323533605e-05  -1.126348045714e-04 
5 1 -4.270504245962e-05  -5.689331833825e-05  -1.427961191683e-04 
6 1 -6.136396527030e-06  -9.571916376292e-06   5.081702265587e-05 
7 1  1.705015354487e-04  -1.174014138001e-04   1.403066326027e-04 
8 1 -8.867605480736e-05   1.153065153937e-04  -1.025075040046e-04 
8
Step 23000
1 1  6.506750084551e-05   4.733737530145e-06  -4.797541948110e-05 
2 1  5.884259045826e-05   1.300782845799e-04  -9.940207587226e-05 
3 1 -3.746146851439e-04   1.151772271105e-04  -1.654279237374e-04 
4 1  1.768610677012e-04   9.234063200820e-05  -9.796595087322e-05 
5 1  1.810006690537e-04  -1.078366080926e-04  -1.042913872295e-05 
6 1 -5.136586570228e-05   1.741121189097e-04   8.979079743062e-06 
7 1  2.026297064876e-05   1.234010540162e-05   1.378960677978e-04 
8 1 -2.954832302066e-04   4.372770012594e-05  -2.164085925021e-04 
8
Step 24000
1 1 -1.913137837555e-04  -1.864240502044e-04  -8.564199366900e-05 
2 1 -6.982994968364e-05  -7.056621544566e-05  -6.725515654397e-05 
3 1 -2.701800816323e-04   2.275965775074e-04  -9.578587726700e-05 
4 1  8.102639491597e-05   1.676238386760e-04  -2.661601912490e-04 
5 1 -8.989660013005e-05   2.069061767324e-05  -5.012605787745e-05 
6 1 -1.909759233586e-04   9.135397671116e-05   5.906537388519e-05 
7 1 -8.063007430830e-05  -2.931964178177e-04   1.424953768884e-04 
8 1 -5.435040934113e-05  -6.316613344851e-06  -4.041055484930e-05 
8
Step 25000
1 1 -3.265916514847e-04   8.523674015685e-06  -7.857137342715e-05 
2 1 -2.420353389658e-05  -6.964848431388e-05  -2.360362301139e-04 
3 1 -8.616536653152e-05   2.251509128751e-04  -1.525758795762e-04 
4 1  3.543624342072e-05   3.086709939306e-05  -1.467930389048e-05 
5 1 -1.251245860171e-04  -8.125945465730e-05   9.273784015130e-05 
6 1 -1.093165537258e-04   9.553001644568e-05  -1.895460047595e-05 
7 1 -1.693762308996e-04   7.855886433161e-05   1.253292764510e-04 
8 1 -7.183602000252e-05   1.201426973738e-04  -1.697244555051e-04 
8
Step 26000
1 1 -5.295824156720e-04   2.320159965734e-04  -1.331569738347e-04 
2 1  1.972026042226e-04  -2.501063920114e-05  -7.191564447886e-05 
3 1 -1.305544344059e-04   9.192374837307e-05  -2.145514236621e-04 
4 1  1.603919998284e-04  -6.985761296910e-05  -6.207776964183e-05 
5 1  2.098929178618e-05   1.328246301280e-04   1.591218687951e-04 
6 1 -1.619793711480e-05   5.844648756646e-05   1.335533809279e-04 
7 1  1.855598019165e-05   1.978269765014e-04   2.845922692669e-05 
8 1  9.731961322032e-06   2.752951188938e-04   9.101023504384e-05 
8
Step 27000
1 1 -8.087413742665e-05   9.474538383413e-05   1.581720288997e-04 
2 1  4.041886043911e-06   4.222973220638e-04  -9.139298481071e-05 
3 1 -1.580465223313e-04  -1.266969707213e-04  -2.213613632328e-04 
4 1  2.726032369758e-04  -1.110404920909e-04  -2.083324800048e-04 
5 1 -3.635390012182e-05   2.719429575009e-04   1.038139007996e-04 
6 1  5.493948935092e-05   1.183032486121e-04   1.578629501181e-04 
7 1 -4.304313702853e-05   2.362014870687e-04   9.624576940309e-05 
8 1 -1.434562113864e-04   2.783692919944e-04   3.510201373113e-05 
8
Step 28000
1 1 -1.832680523568e-04  -5.420936166880e-05   1.623787061530e-04 
2 1 -1.332444193157e-04   1.985906871165e-04  -6.366606430174e-05 
3 1 -1.893003623166e-04   6.385714998844e-05  -1.119919992316e-04 
4 1  1.005234107760e-04   2.803483031949e-05  -1.814637663477e-04 
5 1 -2.579673451723e-04   2.921826918819e-04   1.304566309763e-05 
6 1 -1.049244181401e-04  -3.445432332657e-05   9.095385561982e-05 
7 1 -7.854565219636e-05   2.094278970197e-05   1.106720938743e-04 
8 1 -1.972180454842e-04   7.732596469632e-06   1.322253444062e-04 
8
Step 29000
1 1 -1.234673732235e-04  -9.949362433286e-06   1.755379296844e-04 
2 1  2.910672657042e-06   1.010410796191e-04  -2.129545962871e-05 
3 1 -2.688614717934e-04   2.369049906053e-04  -4.932025417408e-05 
4 1 -2.903399863740e-04   1.145618507918e-04  -2.095977837210e-04 
5 1 -1.023646659695e-04   1.233679388043e-04   1.130335848382e-04 
6 1 -7.644676534485e-05   1.587989483120e-04   1.522939686555e-04 
7 1 -4.481450826071e-05   6.254221696096e-05   7.762322496420e-05 
8 1 -1.775883510383e-04   2.633624610835e-05  -4.440653443263e-06 
8
Step 30000
1 1  7.143861314211e-06   3.644244863458e-04   1.439572910903e-04 
2 1  3.817733082240e-05  -1.514544448778e-05  -6.932497356794e-05 
3 1 -3.534770229555e-04  -6.678711840712e-05  -1.299893859458e-04 
4 1 -1.952581443380e-04   1.493303109463e-05  -6.066371663936e-05 
5 1 -4.830236556027e-05  -4.817141198387e-05   2.872719053334e-04 
6 1 -9.983850640767e-05   3.714257942049e-04   1.821205076500e-04 
7 1  4.742820014017e-05   1.573187028532e-05   2.563540074282e-04 
8 1 -1.126454403134e-04   2.381929808323e-04  -1.026759224986e-04 
8
Step 31000
1 1  1.593681304336e-04   4.847519341038e-04   3.243189495070e-04 
2 1  2.996682739090e-06  -2.676850109368e-05   1.395664169791e-05 
3 1 -1.578324778234e-04   1.772969368756e-04  -6.204926792212e-05 
4 1 -2.717765647181e-05  -1.260712415789e-04   2.026400135522e-05 
5 1  5.052493875240e-05   1.259313479532e-04  -2.976860996589e-05 
6 1 -3.127145703534e-05   5.949750455632e-04   2.208533282104e-04 
7 1  1.559260751622e-06  -6.065375838900e-05   2.054855820820e-04 
8 1  5.314301336749e-06   3.586900704758e-04   5.666040657616e-06 
8
Step 32000
1 1 -1.483066556214e-05   1.826073871756e-04   1.753287394128e-04 
2 1  1.710496143365e-06   1.755729985334e-04   2.349520512291e-04 
3 1 -2.096546505902e-04   1.255867693403e-04  -6.418540356681e-05 
4 1 -1.713728503088e-05   1.354092380098e-04   6.456308730048e-05 
5 1  4.665022364456e-05   3.131882594621e-05   3.563069650778e-05 
6 1 -1.641709163391e-04   2.678813421736e-04   2.235074368543e-04 
7 1 -3.326614817244e-05  -9.404974228164e-05   1.940222163504e-04 
8 1 -5.300783332626e-05   2.396155497299e-04   9.347830526520e-05 
8
Step 33000
1 1  2.069307972158e-04  -2.201515519240e-04   2.652859920880e-04 
2 1  7.489227202312e-05   3.579583364820e-04   2.937595080047e-04 
3 1 -4.555797872016e-04   5.326557434992e-05  -1.057465114497e-04 
4 1 -2.085099777777e-04   1.695023233238e-04   3.477154921867e-05 
5 1 -1.684865778215e-04   9.166768710517e-05  -8.054351463049e-05 
6 1 -1.443574173388e-04   1.418508974197e-04   5.451689430451e-05 
7 1  6.474840372441e-05  -1.082128370925e-04   5.018937435119e-05 
8 1 -1.781521407658e-04   9.577876842664e-05   1.078384700507e-04 
8
Step 34000
1 1  1.263431266725e-04   1.255363626783e-04   3.586132028999e-05 
2 1 -7.021472674333e-05   1.973612349162e-04   2.688863657298e-04 
3 1 -2.534358085083e-04  -3.057863236946e-05   1.067240114947e-04 
4 1 -1.851129074469e-04  -1.774318484074e-04   1.006506003517e-04 
5 1 -1.842676181274e-04   2.097495485605e-04   1.422442987825e-04 
6 1  2.043382812889e-05   6.790405841481e-05   2.575598282726e-04 
7 1 -1.184513985818e-04   2.902490016665e-05   2.134120087676e-05 
8 1 -8.400360502545e-05   6.193738819071e-05  -2.460182263827e-05 
8
Step 35000
1 1 -8.294301882718e-05   2.418815015603e-04   1.033477596809e-04 
2 1  2.174349871658e-04  -6.689168831834e-05   1.283047765593e-04 
3 1  2.017869196097e-04   1.274464608997e-04   1.351060762785e-04 
4 1 -7.710006140722e-05   1.729999629013e-04  -3.011782340642e-05 
5 1 -5.586479090550e-05   2.259195245402e-04   1.233010915544e-04 
6 1 -2.982752833020e-05  -4.303217197237e-05   4.963807870568e-05 
7 1  1.414152773605e-04   1.340755501633e-04   4.849564094099e-05 
8 1  1.695960694407e-04   4.269676444325e-05   1.721584953730e-04 
8
Step 36000
1 1 -3.088335260962e-04   2.331506588550e-04   1.160114537109e-04 
2 1  3.684325521888e-04  -2.890584803434e-05   1.402495730600e-04 
3 1  1.885804677752e-04   1.460575304665e-04   1.858928362122e-04 
4 1 -2.810184326843e-05   1.088726390749e-04  -6.295316418592e-05 
5 1 -2.849187477776e-05   3.992266147953e-06   3.228603516217e-04 
6 1 -5.366269841124e-05  -2.279389120064e-05   3.895410927569e-05 
7 1 -6.593351211056e-05   4.128550710483e-05   9.523636860147e-05 
8 1  1.939028963912e-04   1.235883074221e-04   1.206174129662e-04 
8
Step 37000
1 1 -7.226607644013e-06  -1.817818254664e-04   1.437311446244e-04 
2 1 -3.601770397049e-06   1.694071500122e-04   2.769936932873e-04 
3 1  1.469113834854e-04  -6.618447719468e-05   2.063030871236e-04 
4 1 -5.499307598947e-05  -3.343772221834e-05  -5.295572705178e-05 
5 1 -9.596363770754e-05   1.996790501570e-04   2.396107845100e-04 
6 1  8.328263193347e-06  -6.864198495573e-05  -1.717921221487e-04 
7 1 -1.464591199958e-04  -1.170765517367e-04  -6.969174522195e-05 
8 1  2.157374355667e-04   2.183692141577e-04   4.764627650380e-05 
8
Step 38000
1 1 -1.774267602325e-04  -6.094616004487e-05  -8.058811248919e-06 
2 1  1.187834503722e-04   6.067477054957e-05   7.201934569026e-05 
3 1  1.410750230119e-04  -2.612136557307e-04   1.873928653996e-04 
4 1 -1.389714155296e-04  -3.014621211789e-05   1.850143752179e-04 
5 1 -4.895926579480e-05  -8.255743089784e-05   9.563438362608e-05 
6 1 -2.255546022602e-04   1.753830595219e-06  -1.928592783117e-04 
7 1 -1.450983817493e-05  -1.959851171854e-04  -1.466296785466e-04 
8 1  2.969901766264e-05   4.276075277221e-05   1.616534341695e-04 
8
Step 39000
1 1 -2.611085562176e-04  -1.199163046393e-04  -7.124106418940e-05 
2 1  2.236999842262e-04   4.498436255589e-05   2.442360165021e-04 
3 1  1.899659633722e-04  -2.404014841322e-04   2.591963305667e-05 
4 1  1.020013453886e-04   1.415154069441e-04   1.011306226462e-04 
5 1  1.018307112703e-04  -8.013882059446e-05   1.646586074225e-04 
6 1 -4.891625410070e-05   1.650284649390e-04  -1.222595806447e-04 
7 1  5.891631141020e-05  -1.637225461232e-04  -1.716792085781e-04 
8 1  2.392613021908e-04   2.221515877383e-05   6.324287857261e-05 
8
Step 40000
1 1  3.916692047590e-05   1.161036735770e-04   1.310343377915e-04 
2 1 -6.016245240163e-05  -3.865282759396e-06  -5.619130602420e-05 
3 1  3.767961949687e-04  -1.385380659948e-04   6.395784858138e-06 
4 1  3.027673715979e-05  -1.794455394909e-06   3.066797391331e-04 
5 1 -2.507273148776e-05   1.011181375272e-04   2.467131558406e-05 
6 1  1.134787324373e-04  -2.749406830673e-06   1.894826767000e-05 
7 1  3.382102203950e-04  -5.007406107880e-05  -1.233803826766e-05 
8 1  1.454742932202e-04   1.399911338649e-04   8.223493859532e-05 
8
Step 41000
1 1  9.383800672085e-05   1.979744821660e-04   1.258572123062e-04 
2 1 -2.172104354957e-05  -4.245737578807e-04   2.736928037934e-06 
3 1  1.663634905837e-04  -1.959835304791e-04  -6.951920108053e-05 
4 1 -7.740846265108e-05  -2.926311185368e-04   1.506231195931e-04 
5 1  1.797234284156e-04  -1.861553250851e-04   1.033776438637e-04 
6 1 -1.523610651069e-05   2.252682528403e-04  -2.571317207093e-05 
7 1  2.163647156579e-04   1.055041115627e-04  -1.866812093256e-04 
8 1  1.725656689357e-04   7.231533572912e-05  -1.549609079268e-04 
8
Step 42000
1 1 -7.576324383013e-05  -1.272274060547e-04  -6.089530095598e-05 
2 1  3.489452640326e-05  -1.988020979692e-04   1.102738363085e-04 
3 1 -6.461736154325e-05  -1.559860074583e-04  -3.820237175422e-06 
4 1 -1.011224222891e-04  -2.277568406519e-04   5.109010268159e-05 
5 1  6.691648951420e-05  -1.305711806112e-04   5.183001503629e-05 
6 1 -1.179305500485e-04   5.357027347802e-05  -2.447139117750e-04 
7 1 -1.364248140671e-04  -8.065885349926e-05  -1.213210437291e-04 
8 1  1.861415667162e-04  -2.262330395487e-04  -2.650041631616e-05 
8
Step 43000
1 1  1.620439951174e-04  -4.742409270268e-04  -1.442665211707e-04 
2 1 -9.043932516110e-05  -8.305894087411e-05   5.955964805128e-05 
3 1 -9.576473689772e-07   7.284850932260e-05   1.373114024883e-06 
4 1 -7.184741838843e-05  -1.350249734697e-04  -4.186499554062e-05 
5 1  1.863395732522e-04   8.202903353090e-06   8.680259034042e-05 
6 1  1.264411018569e-04  -8.471905146576e-05  -1.637736541583e-04 
7 1  5.432656210135e-05  -6.094065738520e-05   4.714250836682e-05 
8 1  2.296399128556e-04  -6.300938873272e-05  -1.561872144899e-04 
8
Step 44000
1 1  3.197967546090e-04  -2.168510643906e-04  -1.458746786125e-04 
2 1  6.306636196048e-05   6.134386249751e-05   1.022028012215e-04 
3 1 -4.155651825889e-05  -3.495758953606e-05   3.155835407620e-05 
4 1 -2.265396506421e-04  -9.401865433436e-05  -1.504464399567e-04 
5 1  3.126693459178e-04   6.601638741061e-05   1.658400048007e-04 
6 1  1.851043370733e-04   1.483660168341e-04  -2.382688860232e-04 
7 1  2.465035412433e-05  -8.372762443522e-05   2.726321045561e-06 
8 1  4.301962513147e-04  -1.885898005024e-04   1.329405438356e-04 
8
Step 45000
1 1  1.171885532013e-05  -2.360201891741e-04  -2.393160170077e-04 
2 1  2.056692766025e-05  -5.796326637940e-05   7.542150848920e-06 
3 1  7.999584945571e-05  -2.717946359185e-04   7.516829945210e-05 
4 1  3.100504464970e-06  -7.934856217799e-05  -3.130161342590e-05 
5 1  5.619863042999e-05  -8.442963993896e-05   1.583428775882e-04 
6 1  2.789350442247e-04   6.205158578383e-05  -2.760026651425e-04 
7 1  1.293179849528e-04   7.887361266370e-05  -1.248127950419e-04 
8 1  2.396436445924e-04  -1.215910921574e-05  -6.920122405747e-06 
8
Step 46000
1 1  5.053608812440e-05  -1.545464551527e-04  -1.616873727228e-04 
2 1 -4.538859041350e-05  -1.452671383522e-04  -5.252265414153e-05 
3 1  2.123486625272e-05  -6.470581169037e-05  -7.345761095316e-06 
4 1 -1.477206818425e-04  -1.095521338529e-04  -1.304979136191e-04 
5 1 -7.646466001103e-06  -7.870812977010e-05   5.191506745428e-05 
6 1  2.513940962231e-05  -1.163846181572e-04  -2.675189158459e-04 
7 1  2.899244568529e-05  -1.256583702802e-04  -1.561450129524e-04 
8 1  3.569465882044e-05  -1.082041970177e-04   3.585156869463e-05 
8
Step 47000
1 1  6.501884209310e-05  -1.423140162547e-04   7.748489430864e-06 
2 1 -7.023265113237e-05  -3.575632487660e-04  -2.147679037673e-04 
3 1  1.482507886918e-04  -1.241174861126e-04  -8.406054542468e-05 
4 1 -2.835253998696e-04   3.599423928798e-05  -1.307335337398e-04 
5 1 -2.885033081216e-05  -1.081540741701e-04  -1.588111864668e-04 
6 1  1.975782696021e-05  -2.387787100341e-04  -1.540580688172e-04 
7 1  2.142530489911e-05  -2.298247562222e-04  -2.824529329957e-04 
8 1 -2.243359540081e-05  -2.431122108625e-05   1.584399178319e-05 
8
Step 48000
1 1  9.383521689000e-05   7.208231165534e-06  -1.554174045206e-04 
2 1  1.214560126094e-04  -8.438635109548e-05   3.639189615298e-05 
3 1  2.717004025818e-05   1.654189330500e-06   3.885441359132e-07 
4 1 -5.464074200546e-05   1.281979491067e-04   4.873111896095e-06 
5 1  7.673315666786e-05  -1.236211308268e-04  -1.987269519799e-05 
6 1  5.693883315280e-05  -7.256189952022e-05  -3.211231097998e-04 
7 1 -1.985023633584e-05  -5.507430266231e-05  -1.979137131528e-04 
8 1  7.264949249908e-05  -1.856430075004e-05   1.253527550191e-04 
8
Step 49000
1 1 -1.009782755992e-04   1.866064766054e-04  -4.184666014063e-04 
2 1  6.232110676755e-05  -1.747604981026e-04  -4.323927342386e-05 
3 1  2.368971609574e-04  -1.343641021741e-04   4.765447913167e-05 
4 1 -1.310198693222e-04  -3.874313637302e-05   1.181612978049e-04 
5 1  1.987460587820e-04   3.948079974885e-05  -6.476645523704e-05 
6 1 -2.193020066973e-04  -1.906414214283e-05  -3.873709038146e-04 
7 1  1.008162443928e-04  -2.211376515128e-04  -1.933844756804e-04 
8 1  3.297649323712e-04   6.639601068611e-05   2.254723368643e-04 
8
Step 50000
1 1 -3.536367293078e-05   1.532463189911e-04  -1.604752697030e-04 
2 1 -3.288958880732e-04  -1.462413832359e-05  -2.620142811783e-04 
3 1  3.187279625391e-04  -4.176562565692e-05   4.572188422728e-05 
4 1 -1.193463615101e-04   1.472620994771e-05   8.310033986410e-05 
5 1  9.714698616277e-05  -4.122560410825e-05  -5.417517199665e-06 
6 1 -1.288795728040e-04  -1.707032410547e-04  -3.313278360244e-04 
7 1 -8.994940198658e-05  -3.687803828781e-04  -1.340395402831e-04 
8 1  1.539210241248e-05   1.208325493269e-04  -2.250869586341e-05 
8
Step 51000
1 1 -1.778446724605e-04   1.716991963980e-04  -8.612452542238e-05 
2 1 -2.306609725691e-06  -8.122256196147e-05  -1.800320440181e-04 
3 1  7.419115315180e-05  -8.259448958806e-05  -2.236692347057e-04 
4 1 -1.713154186923e-04   2.028685933644e-05  -5.189451676663e-05 
5 1 -7.569909833005e-05  -1.438961456351e-04   5.065950905373e-05 
6 1 -1.588607711836e-04  -3.877595625622e-05  -5.144289350336e-04 
7 1 -5.528652026123e-05  -2.988712265423e-04  -1.515951531095e-06 
8 1 -2.319961310966e-05  -2.146937626844e-04   1.854807600958e-05 
8
Step 52000
1 1  4.892550284447e-05   2.272198409905e-04  -1.199370219435e-04 
2 1 -9.668132133555e-05  -1.159427825431e-05  -1.157770553727e-04 
3 1  1.324756926671e-04   7.959232026370e-05  -5.339095092204e-05 
4 1 -1.167035603107e-05  -4.978575251732e-05   1.321186291578e-04 
5 1 -9.557858092852e-06  -1.301576466980e-04   8.652548916609e-05 
6 1 -1.912574353610e-04  -1.251207846998e-04  -3.553078109217e-04 
7 1 -2.028843982240e-04  -5.527163518007e-05  -1.687617028185e-04 
8 1 -7.588932579814e-05  -2.150361062096e-05  -1.114510512059e-04 
8
Step 53000
1 1 -1.349615345494e-04   2.078983185809e-04  -3.288699378952e-04 
2 1 -2.167754392778e-04   8.459788530126e-05   1.986753045574e-05 
3 1  9.171809037344e-05   1.814073958631e-04   9.974459373311e-05 
4 1  1.249631125257e-04   7.111229817743e-06   1.333477175107e-04 
5 1  6.230275337810e-05  -7.132552026822e-05   2.463020052539e-05 
6 1 -1.247250941704e-04  -1.751442111996e-05  -1.364086365116e-04 
7 1 -1.292021590602e-04  -4.759881009564e-05  -1.011224505443e-04 
8 1  6.172407122256e-05  -2.110895052899e-04  -2.417221865300e-05 
8
Step 54000
1 1 -3.053023370392e-05   1.318336307718e-04  -9.059178827403e-05 
2 1 -1.881488091864e-04   1.927140662278e-04  -1.628160277798e-04 
3 1 -3.005110486202e-05   2.494625190486e-04   9.624820052462e-05 
4 1  8.016483706802e-05   1.667797114973e-04   2.118205066105e-05 
5 1  2.697292580294e-04  -1.097410986832e-04   1.050272298193e-04 