8
Step 0
1 1  0.000000000000e+00   0.000000000000e+00   0.000000000000e+00 
2 1  0.000000000000e+00   0.000000000000e+00   0.000000000000e+00 
3 1  0.000000000000e+00   0.000000000000e+00   0.000000000000e+00 
4 1  0.000000000000e+00   0.000000000000e+00   0.000000000000e+00 
5 1  0.000000000000e+00   0.000000000000e+00   0.000000000000e+00 
6 1  0.000000000000e+00   0.000000000000e+00   0.000000000000e+00 
7 1  0.000000000000e+00   0.000000000000e+00   0.000000000000e+00 
8 1  0.000000000000e+00   0.000000000000e+00   0.000000000000e+00 
8
Step 1000
1 1 -1.126287395779e-04   2.203058598774e-05  -1.320657329369e-04 
2 1 -1.091338323144e-04   2.317214299076e-05  -1.127139401457e-04 
3 1 -2.934377744632e-04   3.814655829293e-04   4.678007146616e-05 
4 1 -1.849849191077e-05   2.331880765504e-04   2.939293385645e-04 
5 1  3.444970533455e-05   3.217434586330e-04  -3.191547858145e-04 
6 1 -5.514708570360e-05   2.603564806422e-04  -1.183576665033e-04 
7 1  5.987178648855e-05  -1.107607765093e-05  -1.665359001873e-04 
8 1  2.139088215749e-04  -3.103745849596e-04  -2.032601721856e-05 
8
Step 2000
1 1 -1.237017541863e-04   7.364682285993e-06  -2.047462246850e-04 
2 1 -2.340726571403e-04  -1.411418552735e-05   2.698287364506e-04 
3 1 -6.137733926981e-05   7.251500972717e-05   1.391374538490e-05 
4 1 -5.820542285773e-05   2.035515489642e-05   3.546366193067e-04 
5 1  3.667424848557e-04   1.498361669396e-04  -2.284923312896e-04 
6 1 -3.402903461503e-04   3.330358976877e-04  -1.565364815740e-04 
7 1 -9.299884528009e-05  -1.173759992726e-04  -2.283328452926e-04 
8 1 -2.424972323057e-05  -9.117725304144e-05   1.025224536913e-04 
8
Step 3000
1 1 -2.512996298362e-04   2.411269793168e-05  -1.824082990628e-04 
2 1 -1.253083619260e-04   3.355572229575e-05   2.375610653796e-04 
3 1 -7.252643141452e-05   2.646065793376e-04  -8.698584978521e-05 
4 1 -4.962114322862e-05  -2.843843335287e-05   2.237233244108e-04 
5 1  1.759115060368e-04   2.114359148772e-04  -1.114053228745e-04 
6 1 -2.472871435434e-05   6.424267833767e-05   3.903551226787e-05 
7 1  1.213432762310e-04   2.041374912546e-05   8.468979233386e-05 
8 1  3.122940243770e-05  -1.156421925957e-04   1.341347664673e-04 
8
Step 4000
1 1 -1.611516647197e-04  -1.075560997279e-04   6.869288963906e-06 
2 1 -1.663327383979e-04  -4.585226557745e-05   2.801126249526e-04 
3 1 -2.989595845534e-04   2.454086583112e-04   1.103499222466e-04 
4 1  3.458692639869e-04  -1.408358599832e-04   2.650580496250e-04 
5 1 -9.481531404802e-05   2.705672527694e-04  -1.792901604656e-04 
6 1 -9.228969368584e-05  -2.532887671522e-04   3.115669453314e-05 
7 1 -1.135901189726e-04   7.496459371400e-05   1.091506734808e-04 
8 1  2.427218402911e-04  -3.371166000667e-04   1.389144774476e-04 
8
Step 5000
1 1 -1.325109822629e-04  -3.903403032396e-05  -7.836098072275e-06 
2 1  2.182955261545e-05   5.551078214105e-05   9.769826767117e-05 
3 1 -7.844672464068e-05   6.641964388691e-05   8.078663459108e-05 
4 1  1.819941560926e-04  -1.353468949099e-04   8.768907366319e-05 
5 1  3.950266315259e-05   9.983474804695e-05   8.423546782821e-05 
6 1  1.807003011159e-05  -7.932978303771e-05   2.073161067827e-04 
7 1 -1.317000060449e-04   7.402729732406e-05   1.566402866178e-04 
8 1  2.546530714471e-04  -2.959049429749e-04   1.701749574127e-04 
8
Step 6000
1 1 -4.053763208505e-05  -1.530479523246e-04   1.728301526063e-04 
2 1 -8.951385400834e-05   5.449725618194e-05   2.860549720909e-04 
3 1  1.423400515637e-04   3.941859174252e-06  -5.758877388066e-05 
4 1 -2.891610090230e-05   2.194306963145e-04   8.629742650712e-05 
5 1  5.682746938969e-05  -1.351875281127e-04   7.319886445749e-05 
6 1 -2.247053037754e-05  -1.087633933959e-04   8.515086739965e-05 
7 1  2.278072429218e-05  -3.348922766438e-04   1.156910596041e-04 
8 1  1.640430684203e-04  -1.637360909305e-04   2.650777388712e-04 
8
Step 7000
1 1 -1.165574135198e-05   8.960646164390e-05   6.714574480423e-05 
2 1  3.041640546154e-05  -9.581981638645e-05   2.346282207221e-04 
3 1  2.733484584682e-04  -2.720874297690e-04  -1.879753414267e-04 
4 1 -1.437526576176e-04  -1.615158038757e-04  -6.227872141191e-05 
5 1  1.804536373712e-04  -2.444817717299e-04   2.184771969835e-04 
6 1 -1.815303743737e-04  -7.455828750214e-05   2.519026700474e-04 
7 1 -6.124256211393e-05  -2.452504840288e-04   1.943974605343e-05 
8 1  2.555985117813e-05  -2.326536438089e-05   2.808124391721e-04 
8
Step 8000
1 1 -3.902686299532e-05  -1.657910178097e-05   1.341888635537e-04 
2 1  1.183961357074e-04   2.534979258684e-05   2.812172343808e-04 
3 1  3.469806672228e-04   1.457933286386e-05  -2.690580037076e-06 
4 1 -1.882048479630e-04   2.117921456015e-06  -3.907915644398e-04 
5 1  1.621164120963e-05  -1.262723323535e-04   1.998263777240e-04 
6 1  1.218447822396e-04  -2.879028257348e-04   2.355750685302e-04 
7 1  3.130600737414e-05  -1.075972266257e-04  -4.875782103800e-05 
8 1  1.814727990431e-04  -2.689537563834e-04   2.236156746008e-04 
8
Step 9000
1 1  7.668176062707e-05   1.032291424023e-04   1.429165352439e-04 
2 1  9.203658951593e-05   2.082994611861e-05   1.032335126380e-04 
3 1  9.340702459346e-05  -4.632656452330e-04  -1.278561457341e-04 
4 1 -2.176323299810e-04  -1.111470948960e-04  -2.888384133249e-04 
5 1 -1.495376879292e-04  -2.767989749713e-04   2.992649394873e-04 
6 1  1.612932313293e-04  -3.023028961964e-04   1.946015685055e-04 
7 1 -1.402434865024e-04   1.192639050153e-04  -4.179140031772e-05 
8 1  4.351862262390e-05  -2.511633027289e-04   4.767737079150e-05 
8
Step 10000
1 1  1.346095888835e-04   1.833466361665e-05  -5.974030327570e-05 
2 1 -3.416420629275e-05   1.115029205908e-04   4.436845045725e-05 
3 1  2.978761937703e-04  -2.281175263007e-04  -3.222647369656e-05 
4 1 -1.787261857595e-04  -5.633325245318e-05  -2.831148898764e-04 
5 1  8.238705113581e-05  -2.983742127963e-04  -4.241894241770e-05 
6 1  7.755831145942e-05  -7.631172736801e-05   2.076274143208e-04 
7 1  5.476542547491e-05   1.017946622727e-04  -3.309170275820e-05 
8 1  1.074668681448e-04   5.764657849909e-06  -8.469375104503e-05 
8
Step 11000
1 1  7.883783872698e-05  -8.763016800167e-05  -1.115639385546e-04 
2 1 -1.350613528787e-04  -5.717336156051e-05  -4.846411705072e-05 
3 1  2.189649646664e-04  -3.008381682797e-04  -6.209973527668e-05 
4 1 -3.634005195886e-04  -2.561457978204e-05  -2.435080477693e-04 
5 1 -3.208591234154e-05  -4.124877362525e-04   1.690920809542e-05 
6 1 -1.594235347242e-04  -9.334230325224e-05   1.512246008193e-04 
7 1 -5.850233357867e-05  -2.153752098709e-05  -2.977027885301e-04 
8 1  2.399737556455e-05   1.847002739712e-04  -1.327111105031e-04 
8
Step 12000
1 1 -1.830201646661e-04   1.662415036029e-04  -2.651630861138e-04 
2 1 -9.721868822309e-06  -1.213268415025e-05  -8.698779328936e-05 
3 1  3.681662172882e-04  -2.916471460822e-04   4.533825448675e-05 
4 1 -1.118311779352e-04  -3.553247932563e-05  -2.114930256983e-04 
5 1  5.629330111843e-07  -2.298358106092e-04   1.384597491166e-04 
6 1  1.369915812157e-04  -2.394407826064e-05  -8.117579392042e-05 
7 1 -1.030149357403e-04   3.327695390809e-04  -3.025412199558e-04 
8 1  8.187890313262e-05   3.718038893211e-04  -3.991031569706e-05 
8
Step 13000
1 1 -2.080283469127e-04   3.078492272020e-07  -6.699652941925e-05 
2 1 -1.927513851892e-04  -5.069157114248e-05  -1.361131193753e-04 
3 1  2.449528801455e-04  -6.052398590897e-05   6.084303936081e-05 
4 1 -2.617137279893e-04   1.810218035744e-05  -3.172065821707e-04 
5 1 -2.855739317066e-04  -4.548479754784e-05   1.566384203624e-04 
6 1  5.701371676746e-05  -2.129003085565e-04  -1.261150591322e-04 
7 1 -3.104302641348e-04   2.239602878777e-04  -2.855286424167e-04 
8 1  1.666377094174e-05   2.167872453231e-04  -1.922466584932e-04 
8
Step 14000
1 1  2.393478683739e-05   1.702461799393e-04  -4.650127973651e-05 
2 1 -1.637960312502e-04  -1.372943177191e-04  -3.417810229673e-04 
3 1  8.495612754551e-05  -7.695390029265e-05   1.081231846491e-04 
4 1 -2.014085469697e-04  -6.411450784398e-05  -6.717701070607e-05 
5 1 -1.346960035018e-04  -1.079323137505e-04   1.593036002892e-04 
6 1  2.909119805632e-05   9.290638921931e-05  -4.509212963127e-05 
7 1 -5.802229945050e-05   3.835843637217e-04  -3.502656769119e-04 
8 1 -7.733599707858e-05   3.205613597831e-04  -2.412651215247e-04 
8
Step 15000
1 1  1.804274109927e-04  -6.712990649237e-05   3.625695291587e-05 
2 1 -2.345046411671e-04   1.327764063081e-04  -2.354968266181e-04 
3 1 -1.547606275590e-04   4.848018703839e-05   6.424831118615e-05 
4 1 -1.933237258356e-04   1.743653322759e-04  -7.525686004351e-05 
5 1 -2.094834539112e-04  -2.465305365733e-04  -1.197955671216e-05 
6 1 -4.037624024137e-05   5.783761346081e-05   4.276164716108e-06 
7 1  4.328816699963e-05   1.970177956853e-04  -1.906360129504e-04 
8 1 -3.317669659726e-04   2.687260412043e-04  -1.812252820497e-04 
8
Step 16000
1 1  2.523620397939e-04   8.774516577916e-05   1.349098476649e-05 
2 1 -1.664802509111e-04  -1.364217253448e-04  -7.178193934960e-05 
3 1 -2.773600852436e-04   1.867826800625e-04   1.318867810552e-04 
4 1 -2.510132171052e-04   2.017971275180e-04   1.360281620764e-04 
5 1 -4.851589645513e-05  -8.560009063560e-05   5.035729656214e-05 
6 1  1.006634228669e-04   9.506824209927e-05   9.601343421955e-05 
7 1 -4.183690470001e-05   1.655032218858e-04  -1.962910028497e-04 
8 1 -1.896403350562e-04   2.178846047738e-04  -2.559562091387e-04 
8
Step 17000
1 1  7.558755353043e-05   2.047692143617e-05   4.696009109978e-05 
2 1  1.839158764819e-05  -6.436089250521e-05   2.644885888804e-05 
3 1 -3.461137188335e-04   4.615342648834e-04   2.020638724248e-04 
4 1  9.640815201217e-05   1.294266804057e-04   4.788104416865e-05 
5 1 -7.678596246617e-05  -4.553903970141e-05   1.565652821113e-04 
6 1  4.841052869179e-05  -1.142154964738e-04   1.178243890811e-04 
7 1 -8.137769774322e-05   2.285592771840e-04  -9.743719732169e-05 
8 1 -2.060642580328e-05   3.917897166070e-04  -1.176157444098e-04 
8
Step 18000
1 1 -2.873185858239e-05  -5.493150047117e-05   1.375351550574e-04 
2 1  7.351085116581e-05  -8.680735221698e-05  -8.211677673660e-05 
3 1 -2.726233634361e-04   1.797419185970e-04   2.952632115015e-04 
4 1  4.117826734291e-05   2.551047686556e-04  -3.537958847109e-05 
5 1 -1.706472340231e-04   1.520900093148e-04   1.717008514208e-04 
6 1  2.017267712487e-05  -3.059390240224e-04  -3.762821149024e-05 
7 1 -8.269445711080e-05   7.296096849876e-05  -1.046029444007e-04 
8 1 -2.764381572921e-05  -2.126489520905e-05   1.640946357785e-04 
8
Step 19000
1 1 -1.298980194344e-04   1.773127509539e-04   3.586319643626e-04 
2 1  1.252481355216e-04  -8.770630469015e-05  -2.499595181621e-04 
3 1  1.000970621007e-04   1.525816564491e-04   3.282645913636e-04 
4 1  1.277595711387e-04   3.746968260804e-04   1.134867581744e-04 
5 1  4.937361060734e-07  -6.327506195651e-05   1.624756671718e-04 
6 1  1.395411142748e-04  -1.411558642111e-04   7.832249270067e-05 
7 1  2.017327986609e-04   1.095998973095e-04   7.134219202242e-05 
8 1  2.469613231724e-05   1.083710474596e-04   2.738738618089e-04 
8
Step 20000
1 1 -1.199806944931e-05  -1.217355647912e-05   4.005739041960e-04 
2 1 -9.851250737463e-05  -1.176543785842e-04   2.204376583802e-05 
3 1 -1.146693591128e-04   2.428934213387e-05   1.123153102084e-04 
4 1  2.612530211740e-04   1.322343846799e-04   2.314132753429e-04 
5 1 -5.003664974426e-05  -1.525190829541e-05  -1.375264403847e-04 
6 1 -5.133326407861e-05   6.150505557314e-08   6.854390845231e-05 
7 1  2.098895549254e-04  -2.958721192939e-04   2.941296100008e-04 
8 1 -3.747629011820e-05   1.949305818407e-05   1.559188657579e-04 
8
Step 21000
1 1  6.436334474255e-05   1.889936491527e-04   2.900854336552e-04 
2 1 -3.482205304310e-05  -1.097732209679e-04  -1.134425063238e-05 
3 1  4.813078106009e-06  -5.362279964207e-05   1.428290906229e-04 
4 1  1.754411285044e-04   9.915389355215e-05   8.802009600266e-05 
5 1  1.590002813794e-04   1.739523557352e-04  -1.283559911266e-04 
6 1  3.121088808726e-04  -5.845655207407e-05   9.420341706129e-05 
7 1  2.460429139055e-04  -1.553574900173e-04   2.941364091515e-04 
8 1  2.170141504110e-04  -3.412177553539e-05   2.605458917527e-04 
8
Step 22000
1 1  5.180388278117e-05   9.479586584651e-05   2.277811933206e-04 
2 1 -1.567190401454e-05  -2.737085310045e-04   1.074676790738e-04 
3 1 -2.122147552121e-04  -6.701499245797e-05   1.179245398454e-04 
4 1  1.466814432403e-04  -2.247013125301e-04  -8.894089466031e-05 
5 1  4.110969102060e-05   1.413760377882e-04  -2.489939667910e-04 
6 1  1.436084283960e-04  -3.741372447029e-05   8.274794347174e-05 
7 1 -2.386628884323e-05  -1.465564876760e-04   2.486615325750e-04 
8 1  2.208732645832e-04  -4.648165169088e-04   2.864642867770e-04 
8
Step 23000
1 1 -9.556214126696e-06   7.580896404240e-05   6.308351078991e-05 
2 1  1.118479149865e-04   3.153089550928e-06   1.077614158179e-04 
3 1 -4.066896889235e-05   5.257783671302e-05   7.821793295229e-05 
4 1  2.917924505197e-04  -7.721047966322e-05  -3.614212234744e-05 
5 1  1.482044209954e-04   1.446886105587e-04  -2.334438370142e-04 
6 1  1.968484506505e-04  -2.289354416439e-05   3.541871159704e-05 
7 1  3.077911849852e-04  -1.976127524267e-04   2.632072983103e-04 
8 1  3.334434912915e-04  -3.075452647839e-04   3.457270763477e-04 
8
Step 24000
1 1 -1.707073845378e-04   5.169656721488e-05  -9.998597921328e-07 
2 1  2.556505854406e-04  -1.426576443982e-04   1.128491336788e-04 
3 1  6.021452022622e-05  -2.604546977522e-04   2.312363865401e-05 
4 1  9.569200744249e-05   8.042312096326e-05   1.456339045513e-05 
5 1 -3.343186745886e-05  -3.570430825348e-05  -3.273728241352e-04 
6 1  1.765458050118e-04  -1.038302784985e-04   1.222953510506e-05 
7 1  2.306556002794e-04  -1.746609888363e-04   1.050049412548e-04 
8 1  9.815266065574e-06  -1.832884199436e-04   2.072964335777e-04 
8
Step 25000
1 1 -3.570933426004e-06  -4.275916763419e-05  -8.426766485934e-05 
2 1  1.034415037876e-04  -2.080444044270e-05   2.430827807543e-04 
3 1  1.890749805306e-04  -1.109753288012e-05  -1.284518692554e-04 
4 1  2.080536159533e-04  -1.130528350705e-05   1.869493959303e-04 
5 1 -6.314707619673e-05  -9.082098068303e-09  -4.657213823443e-04 
6 1  1.950418942719e-04   3.125883068283e-05  -2.404807423979e-04 
7 1  1.440850262492e-04  -2.997693941676e-04   8.611721613911e-05 
8 1 -7.428420064021e-05  -1.910231307184e-04   8.399149237080e-05 
8
Step 26000
1 1 -1.010449262589e-04   9.036019410233e-05  -2.551078074648e-04 
2 1  7.117680035313e-06  -7.030348170201e-06  -1.739261444186e-05 
3 1  1.162673394701e-04  -7.050555441323e-05  -8.739393023390e-05 
4 1  1.182242885493e-04  -2.769479062940e-04   1.107045557644e-04 
5 1 -9.041640593387e-05   1.613788756700e-04  -1.775649788317e-04 
6 1 -6.316685310714e-05   5.556941047798e-06  -1.516639364915e-04 
7 1  1.012855421962e-04  -4.438837907905e-05   1.064118832675e-06 
8 1  1.609313643543e-04  -1.958001154661e-04  -1.500420204688e-04 
8
Step 27000
1 1 -5.535516260503e-06  -3.014630751247e-05  -1.847152087145e-04 
2 1 -3.314542987695e-05   1.191348426614e-04  -4.526419322501e-05 
3 1 -7.614588682807e-05  -1.670008461564e-04  -5.374803976771e-06 
4 1  1.942554463904e-04  -1.330623967272e-04   7.023458101574e-05 
5 1 -5.278184511872e-05   1.142566533483e-04  -3.133074219230e-04 
6 1 -2.950958965348e-06   4.145178937400e-05  -1.059140166627e-04 
7 1 -7.820405256802e-05   2.314899129794e-05  -2.024205662318e-05 
8 1 -7.015573255303e-05  -8.406446887487e-05  -3.111837588449e-04 
8
Step 28000
1 1 -1.515996774635e-04  -9.440566020396e-05  -4.185244832448e-04 
2 1 -1.652140919357e-04   3.369551682437e-04  -1.037422748060e-04 
3 1  8.597235483851e-05  -1.470885269291e-05  -1.965246391698e-05 
4 1  2.304689964342e-04  -6.286937070972e-05   1.680214080734e-04 
5 1 -1.909597038252e-04   7.820479369962e-05  -2.798392477132e-04 
6 1  1.806095416209e-04   2.059416913945e-04   4.214102987517e-05 
7 1 -1.856491243585e-05   1.182276025427e-04  -7.073884987383e-05 
8 1 -1.571002753389e-04   5.698146638796e-05  -2.414864809065e-04 
8
Step 29000
1 1 -8.009357098444e-05  -3.902287634829e-05  -2.314577917708e-04 
2 1 -7.622776805760e-05   1.440897899099e-04   1.193869449387e-04 
3 1 -6.422935653010e-05  -2.908473745125e-04  -2.091331104757e-04 
4 1 -1.432135544368e-04  -1.567068036036e-04  -5.856651098874e-05 
5 1 -3.233163320349e-04   1.863811965617e-04  -3.353898073567e-04 
6 1 -1.690232943935e-04   1.022256077577e-04   1.416894023884e-05 
7 1 -2.195321175593e-04   1.171641785728e-04  -5.316578424625e-05 
8 1 -2.525852164184e-04   2.312149167481e-04  -4.336716335486e-04 
8
Step 30000
1 1 -1.780329847617e-05  -8.096745526893e-05  -4.982656706572e-04 
2 1 -6.550276927283e-05   2.116571761785e-04  -1.939336761283e-05 
3 1  5.101274496076e-05   7.396436342622e-05  -1.457131050736e-04 
4 1  2.964266011107e-05   2.695929702022e-05   2.637876832674e-04 
5 1 -1.010850484384e-04   1.330403154669e-04  -3.027374528205e-05 
6 1 -2.970788383271e-05   5.555239142520e-05   9.760578643211e-05 
7 1 -3.901460163301e-05   3.907638078643e-04   1.162547850817e-04 
8 1 -1.529596911166e-04   2.517334274471e-04  -1.956644478318e-04 
8
Step 31000
1 1 -5.994013268769e-05  -5.413429834416e-05  -8.324292111168e-05 
2 1 -2.370766796908e-05   8.787259648330e-05  -1.136158368490e-04 
3 1 -9.638522496314e-05  -1.617273349364e-05  -9.707525915891e-05 
4 1 -2.283167747436e-04  -3.408024990625e-04   6.308726876071e-05 
5 1 -4.378631526212e-04   4.592777490564e-05  -2.968480317781e-05 
6 1 -1.485137316250e-04   3.339924826253e-04   2.039564723087e-04 
7 1 -1.274965789754e-04   3.688794792625e-04   1.733362314332e-06 
8 1 -1.108517710790e-04   9.064943027481e-05  -9.666205861583e-05 
8
Step 32000
1 1  5.678519237612e-05  -2.572960237690e-04  -1.684726173486e-04 
2 1 -5.063648840731e-05   3.677664567291e-04  -7.765373238151e-05 
3 1 -1.392678966623e-04   1.252059542121e-05  -8.226250830481e-06 
4 1 -1.353426818451e-05  -1.667245438862e-04   1.584363960175e-04 
5 1 -6.654975944420e-05   6.911229397932e-05   1.852496757567e-04 
6 1 -1.305575010915e-04   2.090072379490e-04   2.977337611074e-04 
7 1 -9.523383201516e-05   2.720786479825e-04  -5.296956131058e-05 
8 1  1.708613642078e-05   1.842226546701e-04  -1.832817442110e-04 
8
Step 33000
1 1  3.371450111660e-05  -1.399798766638e-04   1.230358653949e-04 
2 1 -2.107132352247e-04   2.688083955179e-04   1.960228860124e-06 
3 1 -7.762276453326e-05  -2.370029400607e-04   9.303169449471e-05 
4 1  4.027199530285e-05  -1.077497834397e-04   2.667043543326e-04 
5 1 -2.280267693867e-04  -8.972960412265e-05  -3.571955311231e-05 
6 1 -6.689606480901e-05   1.945221145546e-04   2.383685613890e-04 
7 1 -4.287261522633e-05   1.600757420928e-04   1.091119579020e-04 
8 1 -2.018277881396e-04  -3.404733414355e-05  -1.596391916213e-04 
8
Step 34000
1 1  3.364329392240e-04  -7.905976538607e-05   7.674924172843e-05 
2 1 -9.187122326416e-05   1.170048887005e-04   1.765603893641e-04 
3 1 -2.240791772620e-05   8.133677509682e-05  -1.475512675905e-04 
4 1  1.200602150103e-04  -4.549831524515e-05   1.553190196250e-04 
5 1 -4.116496271892e-05  -2.252877721397e-04   3.862919986465e-04 
6 1  6.226759495310e-05   9.902838535203e-05   3.950862147911e-04 
7 1  5.577350158582e-05   1.338961699349e-04   1.339663356128e-04 
8 1 -8.701509516188e-05  -2.281805281659e-05  -1.349170685695e-04 
8
Step 35000
1 1  5.868460875514e-06   6.820762303331e-05   1.703448218526e-04 
2 1 -9.556832472116e-05  -1.731490386618e-04   2.626974265834e-04 
3 1 -9.768872255986e-05   1.230345738836e-04   7.871338004117e-05 
4 1  1.162423325137e-04  -7.482075941900e-05   9.525782887611e-05 
5 1  2.815023224746e-04  -1.946242485047e-04   3.246987469440e-04 
6 1  2.457890132667e-05  -2.107436927696e-04   1.007000386893e-04 
7 1  1.021781816812e-04   8.850206423978e-05   2.131862335106e-04 
8 1 -3.992196161128e-05  -6.200837705349e-05   4.972072499426e-05 
8
Step 36000
1 1  1.002660266640e-04  -6.530266875732e-06   3.821998044997e-04 
2 1  1.480179671605e-04  -1.068622612658e-04  -1.931624526828e-04 
3 1 -1.080049102390e-04  -5.756344965746e-06  -4.859760196980e-06 
4 1  4.444737135137e-05  -1.166169445230e-04   9.221084547211e-05 
5 1 -2.972364048193e-05  -2.695633579514e-04   1.250962819027e-04 
6 1  3.377147629514e-04  -1.854889721405e-04   3.610423159289e-04 
7 1  8.114250078300e-05  -3.788634548095e-05   1.834776474164e-04 
8 1 -8.767785830508e-06   3.770299213948e-05   5.562308203675e-06 
8
Step 37000
1 1 -1.435032606997e-04  -6.762246767518e-05   2.261894283885e-04 
2 1  2.871454010678e-06   1.012101038321e-04   5.203066675067e-08 
3 1 -5.929487882010e-06  -5.215818672728e-05   1.117943479803e-04 
4 1  1.838822863278e-04   2.194346833787e-05   2.301151314756e-04 
5 1  1.071966065344e-04  -4.839377983479e-04   2.573627066765e-04 
6 1  4.147593782065e-04   1.067030472067e-05   2.055343473322e-04 
7 1  2.553705049073e-04  -2.300255073329e-06   4.588468224258e-06 
8 1  6.156826044389e-05  -2.368106531809e-04   1.351484894904e-04 
8
Step 38000
1 1  1.056742828952e-04   1.452987402321e-06   2.806413862800e-04 
2 1 -1.070390858097e-04  -4.610215000761e-05  -1.569489201855e-04 
3 1  9.811134551621e-05  -1.186885502362e-04  -1.530682513162e-04 
4 1 -5.676936617065e-05   2.055452885920e-05  -8.673295966586e-05 
5 1  4.450393588658e-05  -2.380736656946e-04   1.163602264837e-04 
6 1  4.222930155180e-05  -6.074563146480e-05   5.270448803267e-06 
7 1  2.809062395125e-04  -1.566639934963e-04   3.633653030186e-05 
8 1  2.481483227172e-05  -2.411716076226e-04   3.272870416054e-04 
8
Step 39000
1 1 -1.880523986833e-04  -2.579049917203e-05   9.416805796910e-06 
2 1 -1.307713637549e-05  -2.136166419735e-04   1.446547905952e-04 
3 1 -2.842761270968e-05   2.236678638104e-05   2.618744155934e-06 
4 1 -8.650065446908e-05   5.710965389761e-05  -1.046446454778e-04 
5 1  1.246157080867e-04  -8.289349129432e-05   7.535150699865e-05 
6 1  2.628781920071e-04  -8.564971005222e-05  -4.865707077870e-05 
7 1  3.198787589006e-04  -1.067643675789e-04  -1.636500671420e-04 
8 1  2.341862771781e-04  -4.928229457158e-05   1.556206089641e-04 
8
Step 40000
1 1 -2.274248433658e-04  -4.492647166622e-05  -1.955206506827e-06 
2 1 -1.876984886391e-05  -3.070069933029e-04  -1.251216968638e-04 
3 1 -2.775728883906e-04  -1.131013845203e-05  -6.397481978979e-05 
4 1 -1.256097247953e-04   1.743831590680e-04  -2.565026541661e-04 
5 1  4.457472595883e-05  -1.140213863298e-05  -4.061658986343e-05 
6 1  5.494898871586e-05   6.666301376281e-05  -2.373765154024e-04 
7 1 -3.539312487117e-05  -2.869885421814e-04  -5.087321359750e-05 
8 1  1.005533456367e-04  -1.969799322217e-04   2.369019209077e-05 
8
Step 41000
1 1 -1.119650448903e-04  -1.243588563755e-04  -1.816425240438e-04 
2 1  7.719282119428e-05  -2.766110701307e-04  -3.975019660544e-04 
3 1 -3.356303194357e-04  -1.377037306110e-04   3.405475353478e-04 
4 1 -6.035132842856e-05   3.351085793676e-04  -1.465153694705e-04 
5 1  1.656124477856e-04   2.547394973045e-04  -2.758795279402e-04 
6 1  2.993364337550e-04   1.274744688447e-04  -3.347516463431e-04 
7 1 -5.319700471802e-05  -2.466720933779e-04  -1.147210064690e-04 
8 1  1.060284446043e-04   1.366904032220e-04   1.902093812955e-04 
8
Step 42000
1 1 -1.036035176935e-04  -1.677244713571e-04  -2.573349285345e-04 
2 1 -1.415354571219e-04  -1.280478940038e-04  -2.680307901032e-04 
3 1 -2.066845055167e-04  -4.618370783593e-05   1.418916537471e-04 
4 1 -2.035092587812e-04   2.418071515959e-04  -6.054343807232e-05 
5 1 -5.638970759392e-05   8.697983100197e-05  -1.025662760623e-04 
6 1  1.056757836698e-04  -4.075442024381e-05  -2.702388416192e-04 
7 1 -1.645301508896e-05  -8.222581699565e-05  -2.569830399943e-04 
8 1 -2.793948170434e-04   2.556044633846e-04   2.811709949716e-05 
8
Step 43000
1 1  2.853756437829e-05  -1.036247662718e-04  -2.365543635944e-04 
2 1  4.199869319598e-05  -2.418340233877e-04  -2.221194614282e-04 
3 1 -1.137265439588e-04   2.678892757010e-05  -6.904045084484e-05 
4 1 -1.238653647438e-04   2.979805398970e-04   4.032603461544e-05 
5 1  1.153309655514e-04   2.963337683428e-05  -5.948226313735e-05 
6 1 -8.032911923908e-05   2.712528756527e-04  -6.431376046434e-04 
7 1 -1.579689383440e-05  -5.985685238782e-06  -1.123556572558e-04 
8 1 -4.413432777250e-04   2.084513282156e-04   3.326901625207e-05 
8
Step 44000
1 1 -2.433092626834e-04  -1.884155005745e-04  -3.565124680063e-04 
2 1  1.998670208095e-04   3.664930075384e-05   1.789360941229e-04 
3 1 -2.005682184872e-04   1.906068038874e-04   2.022827696935e-05 
4 1 -1.948508331552e-04   1.699026117411e-04  -1.172433488527e-04 
5 1 -1.792773112082e-04   6.032282301901e-05   4.667974697027e-05 
6 1 -8.618882416832e-05   1.060928062478e-04  -3.991190805562e-04 
7 1 -1.630885326433e-04   6.250731675251e-05  -1.394280126103e-04 
8 1 -2.219458183365e-04   1.684883424654e-04  -9.115415101303e-08 
8
Step 45000
1 1 -8.195041322197e-05  -1.064366050681e-04  -1.404277074456e-04 
2 1  2.608461282437e-04   1.053673142461e-04   3.517989541583e-05 
3 1 -5.343801286288e-06   1.237209028177e-04   1.901246976899e-04 
4 1  4.215558899626e-05   1.734902271728e-04  -3.213773514483e-04 
5 1 -2.634888699377e-04   1.524199699460e-04   9.196542855052e-05 
6 1 -1.138405846245e-04   2.876542102962e-05  -1.899215722691e-04 
7 1 -3.835360034454e-04  -6.411806511754e-05  -1.519456388743e-04 
8 1 -1.286896320227e-04   3.608650917534e-04  -1.244208747522e-05 
8
Step 46000
1 1 -1.002670272892e-04  -8.753798011506e-05  -1.921096296319e-04 
2 1  7.081985530457e-05   1.709247918864e-04   6.791170519247e-05 
3 1 -1.054684039330e-04  -2.511892887678e-06   2.650047328498e-04 
4 1 -1.435623388145e-04   2.355608997854e-04  -1.564359315129e-04 
5 1 -1.237762545584e-04   4.055114356481e-05   1.051944410336e-04 
6 1 -1.137372192544e-04   2.264777248636e-04   4.310277622976e-05 
7 1 -2.875568061881e-04  -1.692809393236e-04   7.308967272480e-05 
8 1  1.961763762012e-05   2.185863132168e-04   1.131033270163e-04 
8
Step 47000
1 1  5.570147419453e-05   1.180148310716e-04   1.589756491785e-04 
2 1  5.401592629158e-05   4.291468975353e-05   1.698101278898e-04 
3 1  1.003878141771e-04  -1.281203065172e-04   1.262739418786e-04 
4 1 -3.336265876216e-05   2.379215661548e-04   6.793846379554e-05 
5 1 -1.087770402951e-04  -2.544558335161e-05  -1.322994171655e-04 
6 1 -3.139607593810e-04   1.931268158529e-05  -3.281390120746e-05 
7 1 -6.425894658571e-05  -1.223723625901e-04   1.097021944292e-04 
8 1 -6.990600252918e-05   1.412535472859e-04   4.296653224488e-05 
8
Step 48000
1 1  1.419956193268e-04   7.042360837784e-05   3.915481152554e-05 
2 1  1.678796747553e-04   1.447937182277e-04   1.564732480915e-04 
3 1 -7.362329015465e-05  -8.876749504267e-05  -3.281395286266e-05 
4 1  1.421117468835e-04   1.679372378500e-05   3.346128810121e-04 
5 1 -1.067704733740e-05   1.655562895475e-04   1.138988518794e-04 
6 1 -1.347525577232e-04   4.432346166429e-06   2.146113056692e-05 
7 1  7.420751823591e-05  -1.244934133229e-04   4.357776737820e-04 
8 1 -2.601813663225e-05   1.702706464043e-04   3.296593123811e-04 
8
Step 49000
1 1 -5.902014803105e-06   5.531473714775e-05   6.976075265769e-05 
2 1  2.103616719800e-04   2.438718488042e-04   1.603405104419e-04 
3 1 -1.059844976926e-04  -2.627291858302e-06   1.334627284491e-04 
4 1  1.474733268093e-04  -2.169889132622e-04  -1.259908958933e-05 
5 1 -3.802775153000e-05  -9.219421586931e-05   2.879604438454e-04 
6 1  3.702322742733e-05   3.098550844480e-05  -5.416871957919e-05 
7 1 -9.919244670217e-05  -1.553725980625e-04   3.585285098119e-04 
8 1  9.446861940645e-05  -8.938026708267e-06   2.574361186628e-04 
8
Step 50000
1 1  1.453489724741e-04   1.027114159059e-04  -7.122128778003e-05 
2 1  1.688538352483e-04   3.249851451592e-04   3.935923704384e-05 
3 1  2.264050003662e-04  -2.064013322179e-04   1.952340668500e-04 
4 1  1.414871926269e-04  -2.957101070037e-04  -6.464075221986e-05 
5 1  3.599495516925e-05  -8.550741996977e-05   3.785242734033e-04 
6 1  1.982284193661e-05   6.323150703139e-05   3.216080736020e-04 
7 1 -1.320957120318e-04  -7.764301721222e-05   3.717243743833e-04 
8 1  2.450110486968e-04   1.000935970113e-04   1.037424276340e-04 
8
Step 51000
1 1 -1.564494170313e-04  -8.741188476716e-05   1.279363851655e-04 
2 1 -4.430327693486e-06   2.956198856680e-04  -7.957898575994e-05 
3 1  1.294863306060e-04  -2.849590761787e-04  -2.067770009835e-05 
4 1  6.378146094942e-05  -3.417758296802e-04   1.083750137190e-04 
5 1  3.237827372533e-04  -1.193745644134e-04   2.084758107346e-04 
6 1 -1.716573316284e-05   1.154071961012e-05   3.007956021169e-04 
7 1 -2.835260955065e-05  -7.209416438514e-05   8.874377880358e-05 
8 1  1.546442402942e-04   5.445536265395e-05  -6.145661720482e-05 
8
Step 52000
1 1  1.962952153501e-04   4.480316170324e-05  -1.426972979040e-05 
2 1  3.544879823419e-05  -2.841370307038e-05   5.827461769793e-05 
3 1  2.153316475444e-04  -1.420436771076e-04  -2.512590514094e-04 
4 1  3.059632396951e-04   2.790546177299e-05   1.250018490768e-04 
5 1  1.832375139330e-04   5.593724596853e-05  -6.711309381332e-05 
6 1 -1.157454908765e-04  -1.226132043998e-04   2.799690111373e-04 
7 1  1.245370049401e-04  -9.866958101946e-05   1.761700994861e-04 
8 1  5.211628322841e-05   9.602119009997e-05  -5.763321167423e-05 
8
Step 53000
1 1 -9.905427858129e-05  -1.677564576911e-04   3.569096443541e-05 
2 1 -2.610678425575e-04   1.700665824907e-04  -1.634812330465e-04 
3 1  1.705698588930e-06  -2.628411490873e-04  -2.635480334997e-04 
4 1  3.251001359299e-04  -1.963130178011e-04   1.190208300613e-04 
5 1  3.985407876331e-05  -3.369264574733e-07   1.231851495359e-05 
6 1  1.527159223287e-04  -3.153529747131e-05  -1.941938816899e-05 
7 1  4.148900427644e-05   3.775846456267e-05   2.205708600260e-04 
8 1  1.544850980406e-04   4.971790509607e-06  -2.558907208772e-04 
8
Step 54000
1 1  3.682296102970e-04  -3.665784500868e-05  -3.030956711564e-05 
2 1 -1.752771545852e-04   2.306795387492e-04  -2.108796127278e-04 
3 1 -1.046818468838e-04  -1.088351982814e-05  -2.880093533995e-05 
4 1  1.209379973332e-04  -1.907788005575e-04  -1.353945759438e-04 
5 1 -4.960648251866e-05  -5.648432210598e-05  -1.977929352109e-04 