8
Step 0
1 1  0.000000000000e+00   0.000000000000e+00   0.000000000000e+00 
2 1  0.000000000000e+00   0.000000000000e+00   0.000000000000e+00 
3 1  0.000000000000e+00   0.000000000000e+00   0.000000000000e+00 
4 1  0.000000000000e+00   0.000000000000e+00   0.000000000000e+00 
5 1  0.000000000000e+00   0.000000000000e+00   0.000000000000e+00 
6 1  0.000000000000e+00   0.000000000000e+00   0.000000000000e+00 
7 1  0.000000000000e+00   0.000000000000e+00   0.000000000000e+00 
8 1  0.000000000000e+00   0.000000000000e+00   0.000000000000e+00 
8
Step 1000
1 1 -1.230820717279e-04   1.663806314912e-04   1.692211499387e-04 
2 1 -2.662839645776e-04   3.164131875948e-04   9.831758182061e-05 
3 1  1.725041283748e-04   5.271501931915e-04   3.296662887991e-04 
4 1 -3.213249394721e-04   1.134650192077e-04  -1.238756622168e-04 
5 1 -4.282359845641e-04   8.490618893717e-05   1.444522268262e-04 
6 1 -1.746358680303e-04  -1.695600817730e-04  -3.273304331691e-04 
7 1 -1.440793439343e-04   2.176167847760e-04   8.291555763878e-05 
8 1  2.520443324776e-05   1.063496842551e-04  -6.371528220539e-06 
8
Step 2000
1 1 -2.680394588610e-04   3.791146615811e-04   1.782624027861e-04 
2 1 -8.181063784369e-05   2.332634535844e-04  -1.107359418947e-04 
3 1 -2.663520364521e-04  -9.827195013635e-05   3.324674164903e-04 
4 1 -1.054027651532e-04   1.865521938789e-04   1.580187480612e-04 
5 1 -1.450708411078e-04  -1.071662879717e-04   3.284985227068e-04 
6 1  2.350477590236e-04   1.588542253055e-04  -4.132544357248e-04 
7 1 -2.822266909333e-04   1.561692278303e-04  -6.410064107818e-05 
8 1 -3.795780446686e-04   2.905707201452e-04  -5.290779429270e-05 
8
Step 3000
1 1 -3.919792099602e-04   3.864515975301e-04  -5.301226052710e-05 
2 1 -2.641111427850e-04   2.414627958093e-04   3.867523328271e-04 
3 1 -6.176365532377e-05  -4.634034961092e-06   8.253197131645e-05 
4 1 -2.754703125790e-04   1.535984909834e-04   4.194403786061e-05 
5 1 -2.385643696023e-04  -1.945962503026e-04   1.659564208895e-04 
6 1  7.301823452679e-05   2.885482431954e-04  -1.570792050769e-04 
7 1  1.394111687175e-04  -5.036999231308e-05   1.117573879023e-04 
8 1 -2.108244522551e-04   3.394071236506e-04   2.937902770223e-04 
8
Step 4000
1 1 -1.075692533220e-04  -6.731579566921e-06   6.037910103003e-05 
2 1 -3.000050584543e-04   5.734604138781e-04   2.100404854479e-04 
3 1 -4.213434068989e-05  -2.704130735372e-04  -8.165374552768e-05 
4 1 -3.196852366787e-04   5.480121772061e-04   1.067932108740e-04 
5 1  6.602584202782e-06  -2.494216680459e-04   6.625047164049e-05 
6 1  1.035724443237e-04   3.696163490206e-04  -4.826534312965e-05 
7 1  3.260099017530e-04  -2.832317811139e-05   1.774241591027e-04 
8 1  7.816257262562e-05   3.120947826541e-04   2.446397863116e-04 
8
Step 5000
1 1 -3.085051514496e-04   1.673122418935e-04   1.345177966429e-04 
2 1 -1.650019871718e-04   6.438071655311e-05   3.395975749992e-04 
3 1  6.069791132709e-05   2.402499896354e-05  -5.975818891128e-07 
4 1 -2.770453060453e-04   1.422901455253e-04   3.880913121941e-04 
5 1  4.836969933422e-05  -3.004777414437e-05  -2.349110309913e-04 
6 1  1.871350305999e-05   4.080304063044e-05   2.131526881018e-04 
7 1  3.705254433335e-04   2.282774313653e-05   5.624538136666e-05 
8 1 -1.199643225537e-04   1.594647687985e-04   9.302128752141e-05 
8
Step 6000
1 1 -2.181911590322e-04   1.942365652183e-04  -1.022994189579e-04 
2 1 -2.026672735657e-04  -1.943858753305e-04   5.807357812783e-04 
3 1 -4.358681101856e-05  -2.267827578656e-04   2.686925522144e-05 
4 1 -7.703723590292e-05  -4.420771922945e-04   3.907256287791e-04 
5 1  4.333480660751e-04   9.232916679487e-05   3.089075183512e-06 
6 1 -1.581871827186e-04   1.699548071359e-04  -1.975567707459e-04 
7 1 -1.567978065258e-05   2.143159854268e-04   1.075925890491e-04 
8 1 -4.896027160335e-05   1.488385084685e-04  -3.996318090051e-05 
8
Step 7000
1 1 -3.175851591810e-04   2.060285394007e-04   1.203017036434e-04 
2 1 -1.180989888113e-04   1.986883013450e-06   5.143116950649e-05 
3 1 -9.989527005723e-05  -3.450419397771e-04   3.808924290261e-04 
4 1  1.489160148362e-04  -1.971008255302e-04   3.966579646952e-04 
5 1  1.237020804633e-05  -1.879717245498e-04  -8.892749218431e-05 
6 1  1.597657954054e-04   5.954150907214e-05  -1.547269582855e-04 
7 1  2.678993311048e-05   4.063962213444e-04   3.443119245058e-04 
8 1 -1.548530449705e-05   3.845727277317e-05   1.307353922717e-04 
8
Step 8000
1 1 -3.756569673294e-04   3.427342920064e-04  -9.412074552908e-05 
2 1  6.747956796686e-05  -2.978721490276e-04  -1.391055101066e-04 
3 1  6.851154975931e-06  -2.209208902585e-04   5.055775944686e-04 
4 1  3.247179249569e-04  -3.315543734414e-04   2.739247382372e-05 
5 1 -2.707222565778e-04   2.108694001530e-04   1.505889317464e-04 
6 1  4.946932257549e-04  -1.863198355968e-04   1.525867806873e-04 
7 1  3.666047027804e-04   1.881591150072e-04   3.716476518622e-04 
8 1 -1.127034436986e-04  -1.216796427251e-05  -9.125674433854e-05 
8
Step 9000
1 1 -2.142120254736e-04  -1.469433298230e-04   1.191268688476e-04 
2 1  1.720270005007e-04  -7.771566451705e-05   9.255946150323e-06 
3 1 -7.633584937329e-05  -7.076650274175e-06   3.885714833103e-04 
4 1  3.130844875770e-04   6.823613326160e-05   2.590264271996e-04 
5 1 -6.072101955086e-05  -5.813688812226e-05   9.507943197853e-05 
6 1  4.038098947948e-04   3.020546813442e-05  -2.259634413455e-04 
7 1  2.240476262402e-04  -2.147081611836e-04   3.758786320319e-04 
8 1  9.446175648116e-05  -9.307109434242e-05  -4.083289290766e-05 
8
Step 10000
1 1  1.435188795629e-04  -3.815949537830e-04   3.190463784807e-06 
2 1  3.262155144232e-04  -3.338567149476e-04   2.602970067498e-04 
3 1 -1.916805473608e-04   1.398576532558e-05   1.866631154933e-04 
4 1  2.597042049756e-04  -2.937258181108e-04   4.676534550447e-04 
5 1 -4.909049954943e-05   8.181735473696e-05  -1.600048415000e-05 
6 1  9.802684107594e-05   3.810008400788e-05  -1.208237498138e-04 
7 1  6.036050877218e-05  -2.211113493647e-04  -2.374965960592e-05 
8 1  2.646900860543e-04  -1.575506043834e-04  -1.836640408936e-04 
8
Step 11000
1 1  4.451263108646e-05  -2.828527470779e-04   1.304203588683e-04 
2 1  1.232018611878e-05  -3.493956877219e-04  -8.286583725318e-05 
3 1 -8.805633547702e-05  -4.321336002353e-06   4.377219232513e-04 
4 1  1.631511961619e-04  -3.972511062184e-04   2.695535046672e-04 
5 1  3.673264393741e-04  -1.247706785806e-04   5.011026977369e-05 
6 1 -1.584318927255e-04  -1.457482648094e-04  -8.276100207081e-05 
7 1  1.533052744187e-04  -1.476798273501e-04   1.689567094668e-04 
8 1  6.528417125527e-05   1.280637256991e-05  -2.012320022758e-04 
8
Step 12000
1 1  1.547361980398e-04  -2.916801380236e-04  -1.859069777915e-04 
2 1  1.554894270793e-04  -2.308918249571e-04  -5.471057190641e-05 
3 1  1.880104619318e-04  -2.427559817641e-04   1.001559194942e-04 
4 1  2.145841497906e-04  -1.326845177688e-04   4.683546791394e-04 
5 1  1.834677444478e-04  -4.036004818428e-05   1.296829751355e-05 
6 1  1.334332837437e-04   9.677924199527e-05   1.019913928080e-04 
7 1  5.295466423085e-05  -2.856193341113e-04  -1.922299907626e-05 
8 1  7.290964102486e-05  -2.728483251710e-04  -7.014146841444e-06 
8
Step 13000
1 1  1.609518168597e-04  -2.354818770503e-04  -6.915740745613e-05 
2 1  2.264617573304e-04  -1.308478851005e-04   7.952124468074e-05 
3 1  6.669766612304e-05  -1.831576931664e-05   4.091024674266e-05 
4 1  4.569940884063e-04   1.073801040645e-04   2.969010700268e-04 
5 1  2.257171666138e-04  -1.827054441931e-05   5.260479704416e-05 
6 1  2.189956782316e-04  -9.523903321351e-05   5.331379186096e-05 
7 1 -8.520975109656e-05  -3.665388749740e-04  -1.302550462767e-04 
8 1  2.409671726801e-04  -4.199504161855e-04   1.360930360224e-05 
8
Step 14000
1 1  3.704657945041e-04  -3.017588745067e-04  -5.619814959778e-05 
2 1  3.765159227406e-04  -4.954685195483e-04   1.156006394813e-04 
3 1  3.033176186504e-04  -1.454626961686e-04   1.297410331793e-04 
4 1  1.103563644542e-04   4.748478340502e-04  -7.478263898937e-05 
5 1  1.866419055878e-05  -3.959426775519e-04  -2.276633121409e-04 
6 1  2.118817415575e-04  -3.496799578675e-04   5.178990820534e-05 
7 1  2.148943585592e-04  -4.309821144060e-04  -1.396543188390e-04 
8 1 -2.568703875203e-04  -2.351925392819e-04   6.201085637576e-05 
8
Step 15000
1 1  1.583953373832e-04  -3.480014650478e-04   1.934233492319e-05 
2 1  4.516598175726e-04  -3.266744650110e-04   8.801488175774e-05 
3 1  1.707882257532e-04  -2.979452941256e-04  -9.727555413757e-05 
4 1  2.564630726061e-04  -6.768425857426e-06   1.612414464652e-04 
5 1  1.078489408001e-04  -1.824287548224e-04  -7.816821400638e-05 
6 1  2.208867987771e-04  -4.401065317359e-05   5.649166016782e-05 
7 1 -1.378254049943e-05  -3.683361683524e-04  -1.630715087402e-04 
8 1 -3.281292091844e-04  -4.330863477214e-05  -1.579918425181e-04 
8
Step 16000
1 1  2.249987553104e-04  -1.709714220407e-04  -1.355090892222e-04 
2 1  3.644293869004e-04  -4.281450184384e-04  -2.704945246869e-04 
3 1  1.299918845368e-04  -1.145527841963e-04  -2.287591477132e-05 
4 1  2.470406480054e-04  -2.975874410214e-04   1.226762265390e-05 
5 1  3.314510916875e-04   2.523786652116e-05  -1.302571196684e-04 
6 1 -1.559455849804e-04  -9.307808657677e-05   4.942752367820e-05 
7 1 -8.624569571157e-05  -3.302616140308e-04   1.674743792362e-04 
8 1 -2.063282917592e-04  -2.730133958418e-04  -5.207223033766e-05 
8
Step 17000
1 1  1.924519946802e-04   5.860043538772e-05  -1.369451783658e-04 
2 1  1.272452498813e-04   3.405440850255e-05   2.886760381651e-05 
3 1  1.820900538600e-04   6.159472128756e-06  -3.717811799734e-05 
4 1  5.521214228881e-04  -4.319427999649e-04  -1.980919183725e-04 
5 1  1.722078828200e-04   1.117765887733e-04  -2.577135269427e-04 
6 1  2.170860495576e-04  -2.874315433954e-04   1.123001133309e-04 
7 1  1.172787942942e-05  -7.918438733179e-05   1.560202669299e-04 
8 1 -3.025001126081e-04  -3.492962649400e-04  -1.569967586594e-04 
8
Step 18000
1 1  4.313448209481e-04  -8.537721273669e-05  -2.624539100202e-04 
2 1  3.221415732416e-04  -1.605912893115e-04   1.419561804500e-04 
3 1  1.104689536684e-04   3.798402230938e-04   1.671011668238e-05 
4 1  1.648992149424e-04  -1.843991655592e-04  -1.003037350770e-04 
5 1 -1.580713507569e-04   1.678237732488e-04  -4.198914568840e-04 
6 1  3.665889624534e-04  -6.066867982410e-04   7.270626098735e-06 
7 1 -5.904280728129e-05  -2.081289148304e-04   2.159950616964e-04 
8 1 -4.735739128125e-05  -3.558578001149e-04  -3.509042897182e-04 
8
Step 19000
1 1  1.685382640174e-05  -5.145875242429e-05   5.399518312243e-06 
2 1  3.414169940719e-04  -2.404897571535e-04  -9.397418437011e-05 
3 1  1.690959100269e-04  -1.762250261924e-05  -2.311214105783e-04 
4 1  2.532325878993e-04  -6.267189485737e-05  -1.645770035324e-04 
5 1 -1.664282645918e-04   8.319151885800e-05  -2.242180664745e-04 
6 1  2.341567094549e-04  -4.011056443747e-04  -2.009750227764e-05 
7 1 -7.575867788128e-05  -6.588956608033e-05  -7.475217525291e-05 
8 1 -2.907845246376e-04  -1.565637952276e-04  -1.323011593375e-04 
8
Step 20000
1 1  1.026633385881e-04   7.866684406113e-05  -3.548266327022e-04 
2 1  2.406054486697e-04  -4.085815497110e-04   9.318341096927e-05 
3 1 -1.783329731511e-04   8.442674757092e-05  -2.525855839837e-04 
4 1  2.972275451722e-04  -2.578335388609e-05  -2.365294952440e-04 
5 1 -1.187802157374e-04  -2.016201427505e-04  -1.423726502345e-04 
6 1  1.856170353238e-05  -1.304426495158e-04   6.417257410594e-05 
7 1 -3.399041013584e-04  -1.142332403598e-04  -5.229816943644e-05 
8 1 -5.211118127136e-05  -6.934175484080e-05   8.239416339431e-09 
8
Step 21000
1 1 -2.007693443764e-05   2.861490788004e-04  -2.012879052732e-04 
2 1  1.161447993586e-04   1.850616548306e-04  -1.220869149642e-04 
3 1  7.242759079845e-05  -1.856727899920e-04  -6.728131143128e-05 
4 1  3.279682934798e-04   1.966250276567e-04  -1.113930676447e-04 
5 1  1.822895581631e-04  -1.233417232828e-04  -3.347938718581e-04 
6 1 -2.673192458189e-04  -1.993630790610e-05   3.641387050701e-04 
7 1  2.373554353034e-05  -3.711277128012e-04  -8.336612860289e-05 
8 1 -2.161746450993e-04   2.844380855876e-04  -3.416827516665e-04 
8
Step 22000
1 1  6.289702024192e-05   1.696667254773e-05  -2.414496265683e-04 
2 1  2.345425986780e-05   4.122189996501e-04  -1.625033019335e-04 
3 1 -6.338409484719e-05   1.777063841768e-04  -1.381182805469e-04 
4 1  1.052904180288e-04   3.135382796392e-05  -1.706363086720e-04 
5 1 -1.519839567633e-04   5.286547320925e-05  -1.561952988714e-04 
6 1 -2.776214182837e-04   2.570988746699e-04   1.497754954717e-04 
7 1  2.443587090359e-04  -6.332892161261e-04  -2.850496764819e-05 
8 1  6.295675682105e-05  -9.775920440745e-05  -1.458004484241e-04 
8
Step 23000
1 1  3.388047562221e-04  -1.789970253406e-05  -1.973645912792e-04 
2 1 -1.687423068443e-04   3.139133274279e-04  -2.320871392018e-05 
3 1 -2.382917751338e-04   1.230168217769e-04  -2.114064666827e-04 
4 1 -3.412918699069e-04   1.156273076061e-04  -1.135655099128e-04 
5 1  2.197539012541e-04   1.452976023587e-04  -2.940999721996e-04 
6 1 -3.342388881538e-04   1.894026610824e-04   1.075751138865e-04 
7 1  1.512131750812e-04  -1.738567612677e-04  -1.175212112748e-04 
8 1  1.961939720546e-04  -6.594439722243e-05  -1.730694721122e-04 
8
Step 24000
1 1 -1.987139390831e-04  -1.690996866027e-04  -1.800967585629e-04 
2 1 -4.690917513640e-05   1.083106460771e-05  -1.577819922104e-04 
3 1  1.454061209697e-04   4.809074150388e-05  -2.721526553349e-04 
4 1 -1.842133666570e-04   8.276169026117e-05   2.178497637417e-05 
5 1 -3.330173723791e-04   3.173675833684e-04  -4.070540571978e-04 
6 1 -2.989418482207e-04  -1.525961668131e-04   5.508108039223e-04 
7 1  2.043358834846e-04   1.990629462141e-04   2.659782140553e-05 
8 1 -2.770036710681e-04   1.823823511431e-04  -3.230328351998e-04 
8
Step 25000
1 1 -1.373433900441e-04   3.706060525261e-04  -1.658065011613e-05 
2 1 -1.853518328387e-04   9.068291515941e-05  -1.467653297581e-05 
3 1  2.811842053705e-05   1.280817820178e-04  -4.410475144824e-04 
4 1  2.072267205224e-04   6.144108003550e-05  -7.219078615357e-05 
5 1 -3.005256137236e-04   2.927214053119e-04  -6.386036870307e-05 
6 1 -1.840686272423e-04  -2.211538058347e-04   2.578197949726e-04 
7 1 -3.715131731868e-04   3.828936380404e-04  -2.022662842059e-04 
8 1 -2.638614296283e-05   1.019545719608e-04  -1.506903518060e-04 
8
Step 26000
1 1 -3.872534847397e-05   1.601799984344e-04   1.361306279004e-05 
2 1 -1.683100506653e-04   4.453714923772e-04  -1.276925467334e-04 
3 1 -3.205012120316e-04   3.106749759264e-04  -1.635290452970e-04 
4 1  1.269257755030e-04   6.352169417697e-05   4.106604967302e-05 
5 1 -3.394959839894e-04   4.561595450067e-04  -1.504906328039e-04 
6 1 -8.446917871868e-05  -7.292202410075e-05   3.151128401165e-04 
7 1  1.060116756723e-05   1.773869334478e-04  -2.019392805669e-04 
8 1  4.105759844479e-05   4.797709512661e-05  -5.289900424006e-05 
8
Step 27000
1 1 -2.022316590922e-04   1.520582662869e-04  -1.150359508485e-04 
2 1  1.829799395977e-05   2.220916881171e-04  -6.236779782392e-05 
3 1 -4.707746859150e-04   2.355708610204e-04  -1.397903212114e-04 
4 1  1.651551984967e-04   1.720089673643e-04  -2.274398068708e-04 
5 1 -2.844891164292e-04   4.675450685278e-04  -8.993026176424e-06 
6 1  1.678097790189e-04   2.363239462109e-04   2.841384262536e-04 
7 1 -5.196054524903e-05   1.591867723235e-04  -6.821510312413e-06 
8 1 -7.216389858288e-05  -2.586154685491e-05  -2.093286885700e-04 
8
Step 28000
1 1 -2.432339933994e-04  -2.950983920349e-04   1.042046069558e-04 
2 1 -1.773154641030e-04   1.569073984061e-04   9.487180663315e-06 
3 1 -2.728627579845e-04   2.396014797522e-04  -9.269236704029e-05 
4 1 -2.669147821141e-04   1.011728391174e-04  -4.036265886199e-04 
5 1 -4.790903860825e-05   2.635329846718e-04   9.723506614205e-05 
6 1 -5.069128958506e-05   2.010266398871e-04   3.219912128416e-04 
7 1 -8.611148143629e-05   5.665522826549e-05   1.120049013737e-04 
8 1 -2.961563999170e-04   5.155440935684e-04  -2.247360545975e-04 
8
Step 29000
1 1  1.221247645996e-04   8.813715132385e-05   1.408827306365e-04 
2 1 -1.921582226548e-04   3.685196764583e-04   3.360189774669e-04 
3 1 -1.180707007545e-04   7.796622393735e-05  -1.934296849784e-04 
4 1 -3.459607767024e-04   1.080252595884e-04  -1.772974264226e-04 
5 1  1.719824502452e-04   1.611967271355e-04   2.065179565008e-05 
6 1 -5.505713173606e-04   6.167877605247e-04  -1.318011023589e-04 
7 1 -5.550084799162e-05  -1.171281964653e-04   7.044945998082e-05 
8 1 -2.843257133188e-04   3.053425468054e-04  -6.875638247344e-05 
8
Step 30000
1 1 -1.845818756452e-04   3.403335330621e-04  -5.969079408027e-06 
2 1 -2.003304878173e-04   1.405733649811e-04   2.385348319856e-04 
3 1 -2.762024603837e-05  -6.663358679045e-05  -2.408808155879e-04 
4 1 -5.219267049817e-04   3.008946518543e-04  -9.974848103541e-06 
5 1  3.685443757455e-05   9.539665363465e-06  -6.347241301085e-05 
6 1 -2.092555763699e-04   1.851602957236e-04   1.391726673975e-04 
7 1 -4.354205467555e-05   1.110632801291e-04   2.403813750436e-04 
8 1 -3.828578681181e-05   6.339083086483e-04   1.785774055946e-04 
8
Step 31000
1 1 -1.443455734025e-05   1.299312579092e-04   6.090243318181e-05 
2 1 -3.834123346590e-04   3.016459098095e-04   2.193665509576e-04 
3 1  5.821785809265e-05   1.439457201040e-04  -2.173729707614e-04 
4 1 -2.652263917535e-04   1.402329602085e-04   6.601510175438e-05 
5 1 -7.342743817041e-05  -1.133998033611e-04  -3.685634106763e-04 
6 1  2.730557261050e-05   1.298322184565e-04   3.536009397005e-04 
7 1  1.735595251401e-04   1.924948933670e-04   9.946953567360e-05 
8 1 -8.748787616354e-05   6.711475923242e-04   1.000791190109e-04 
8
Step 32000
1 1 -2.043385989156e-04  -1.237510739132e-05  -6.357350845034e-06 
2 1 -7.953333275503e-05  -9.617900050925e-05   3.917389802819e-04 
3 1 -4.011660326566e-04   3.203326045594e-05  -3.038787606051e-04 
4 1 -1.306926451509e-04   3.670719251503e-05  -3.694378550462e-05 
5 1  1.506362645561e-04   2.624235856321e-04   9.185113495346e-05 
6 1 -1.044604125903e-04   6.265573245202e-05   2.663773211401e-04 
7 1 -5.764318804280e-05   3.331408497277e-04  -1.320656772963e-04 
8 1 -3.874650798836e-05   4.971071767059e-04   4.176958261248e-04 
8
Step 33000
1 1 -3.813527284834e-04  -1.543104515672e-05   2.911874454485e-04 
2 1  2.849111846468e-04   6.607877726867e-05   3.418407851519e-04 
3 1 -1.045254809730e-04  -5.609325500857e-05  -1.435010486679e-04 
4 1 -2.928146782203e-04  -8.943523439606e-05  -1.069337600238e-04 
5 1 -4.039921533103e-04   4.064425880026e-04  -3.073144551245e-04 
6 1 -5.319095888603e-05   9.960150644147e-05   3.301591330705e-04 
7 1  5.764282201628e-05   5.196433932929e-05  -1.190362884590e-04 
8 1 -7.176007737184e-05   1.512797593515e-04   2.849941452209e-04 
8
Step 34000
1 1 -3.928767670728e-05   1.475937268944e-04   3.715949355631e-04 
2 1  5.420081646235e-05   3.444303168150e-04   1.655804682079e-04 
3 1 -2.504951170707e-04  -9.405277204872e-05   1.273192662572e-04 
4 1 -3.654346582024e-04  -7.365069137891e-05  -1.454325139396e-04 
5 1 -1.738708975959e-04  -2.279380718914e-04   1.560034220707e-04 
6 1 -9.373280759145e-05   1.486406534596e-04   1.818785118650e-04 
7 1  1.938413510385e-04   2.590584035882e-04   5.798685410752e-05 
8 1  1.927220063772e-05   3.013027305522e-04   1.412577296948e-04 
8
Step 35000
1 1 -2.070775401383e-06   1.736512288515e-04   6.238456447643e-05 
2 1 -1.508875677962e-04   2.671721437825e-04   1.386550230446e-04 
3 1  2.803590978169e-04   1.665662619213e-05   6.985824522479e-05 
4 1  2.733789307758e-05  -2.266706062055e-04  -1.860143568480e-05 
5 1 -2.284382183630e-04  -3.279930850310e-04   2.798689914309e-04 
6 1 -1.195048763399e-04  -7.365928128451e-05   1.197698255854e-04 
7 1  3.111498859157e-05   2.849571114780e-04   1.710343737637e-05 
8 1  2.964846544039e-04   4.255580216266e-04   1.358402686724e-04 
8
Step 36000
1 1 -1.000618045185e-04  -7.208204230159e-05   1.839698441462e-04 
2 1 -1.404383397566e-04   1.067992918532e-04   1.683511898600e-05 
3 1  1.238580950488e-05  -2.598381566341e-04  -5.888278314767e-05 
4 1 -6.721436513269e-05  -1.038648081685e-04   1.055283790221e-04 
5 1 -6.106226086814e-05  -1.603657090906e-04   2.547532939418e-04 
6 1  2.208404658392e-05   1.787197886151e-04   6.120745190754e-05 
7 1 -5.896525699333e-05   7.048349453356e-05   2.895921117017e-04 
8 1  4.359728771706e-04   2.079452702390e-04   9.880005778200e-05 
8
Step 37000
1 1  2.753959628857e-05  -3.478293789560e-05   1.176682355022e-04 
2 1  9.663652656748e-05  -6.389263924215e-05   9.281890603037e-05 
3 1 -2.393380403376e-04   1.938404861411e-05   2.559028369384e-04 
4 1 -5.089652116261e-05  -6.942705120106e-05   1.489337242024e-04 
5 1 -8.087539776114e-05  -2.187851360290e-04   6.758115650653e-05 
6 1  5.302481124190e-05  -3.927575066293e-04   1.085042356201e-04 
7 1  2.695075134265e-04  -1.416574153932e-04   2.560535681743e-04 
8 1  5.212392887655e-05   2.583350905212e-04  -3.404057957286e-04 
8
Step 38000
1 1  2.489469847780e-04   1.350983908770e-04  -1.390622117359e-04 
2 1 -7.789215493421e-06  -2.948937802970e-05   4.258895746110e-04 
3 1 -1.751664276279e-04  -1.060355126766e-04   1.369806789963e-04 
4 1 -1.329830445920e-04  -3.074960206773e-04   2.912783450421e-04 
5 1  1.135913700442e-04  -2.755411776681e-05   1.705876809646e-04 
6 1  1.248278933258e-05  -1.221783243180e-04   3.778302517276e-05 
7 1  2.972292023498e-05  -2.146775469426e-04  -3.258187694185e-05 
8 1 -1.041455931672e-05  -1.720205480605e-06   6.061711287316e-05 
8
Step 39000
1 1 -2.350842194697e-04  -3.127118307060e-04  -9.537815251281e-06 
2 1  7.152791576578e-05   2.195547678085e-04   9.630679682108e-05 
3 1  1.042231041812e-04  -2.471798099728e-04   7.019476821526e-05 
4 1  2.740413375316e-05  -1.641874264183e-04   2.725875710972e-04 
5 1  4.116115182573e-04  -3.294140307024e-04   3.649732961232e-04 
6 1  1.245236664252e-05   7.472228292144e-05  -2.747146108381e-05 
7 1  6.278576738347e-05  -2.959134191082e-04  -3.294416105376e-04 
8 1  2.868368790527e-04   1.446588098287e-04   2.176287265909e-04 
8
Step 40000
1 1 -4.662325696303e-05  -1.091420197962e-04   5.796241057958e-05 
2 1  7.401283259449e-05  -6.532063485265e-05  -1.703705411179e-04 
3 1  2.213367768217e-04  -1.069043114421e-04   1.838281829314e-04 
4 1 -4.508517794957e-05  -1.848441281665e-04   2.072852856351e-04 
5 1  4.530755711282e-04  -4.260920267791e-04   1.582634037435e-04 
6 1  1.362426975466e-04   2.734656823810e-04   2.077144610323e-04 
7 1  4.095988489441e-04  -3.529774724938e-04  -1.939935173438e-04 
8 1 -7.044886555834e-05   9.923029299862e-05   1.865049525019e-04 
8
Step 41000
1 1 -2.637870975370e-04  -2.267658312443e-04  -2.633536980857e-04 
2 1  1.366759228239e-04  -4.344608744862e-04  -7.526474089510e-05 
3 1  8.443005296907e-05  -2.742641324172e-04   2.058888857624e-04 
4 1 -1.764596776058e-04   3.430504686755e-05   9.420933171618e-05 
5 1  3.432060071105e-04  -4.490113036652e-04   1.282062073690e-04 
6 1  3.576668455952e-04  -1.439536906426e-04  -1.349889109478e-04 
7 1  9.448452823685e-05  -2.703419872759e-04  -1.637792031264e-04 
8 1  2.579712922593e-04  -2.700869729694e-05   4.335128398642e-04 
8
Step 42000
1 1 -2.310534070464e-04  -2.256781364142e-04   1.240567614166e-04 
2 1  3.457063587828e-04  -2.246385299791e-04  -6.998222513884e-05 
3 1 -1.714701830489e-04  -1.652096462198e-04   2.718193932804e-04 
4 1  3.056031802088e-05   3.024918862866e-06   1.737689369152e-04 
5 1  5.336158385710e-04  -1.859385070702e-04   1.947136235644e-04 
6 1  1.369432962724e-04  -8.823533463313e-05  -1.133573607435e-04 
7 1 -1.004140573658e-04  -4.812024910501e-04  -4.815038518726e-04 
8 1  1.007739548178e-04  -2.224540624720e-04   1.691742158908e-04 
8
Step 43000
1 1  7.973729970162e-05  -8.825797933130e-05  -1.519820285824e-05 
2 1  5.010891753655e-05  -5.496321233154e-04   4.205517264268e-06 
3 1  1.705967389072e-04  -1.704111490101e-04  -1.042929508494e-04 
4 1  2.344613279875e-04  -4.075035857055e-04   3.625397168498e-04 
5 1  1.686415832996e-04   2.502205598682e-04   9.410668421228e-05 
6 1  3.818800673425e-04  -8.452996816777e-06  -2.500470175138e-04 
7 1  2.826625215227e-06  -1.293809051185e-04  -8.485725611238e-05 
8 1 -7.634827840621e-05  -4.290458565949e-04   6.127881210922e-05 
8
Step 44000
1 1 -1.708273884388e-04   1.198639718787e-05  -4.555319140616e-05 
2 1  4.029103558202e-04  -3.082266322394e-04   2.076032724014e-05 
3 1  3.963956689081e-05  -1.911243209998e-05  -1.064156677196e-04 
4 1  4.712088798525e-04  -5.099652265927e-04   4.504893467990e-05 
5 1  1.259230237471e-04   9.009766865199e-05  -4.112177273666e-06 
6 1  2.612405543777e-04  -2.838401847243e-04  -1.491842513469e-04 
7 1 -7.719751998697e-05   1.123541820473e-04  -1.625980982753e-04 
8 1  2.045407185630e-04  -3.248354700716e-04   2.792652873472e-04 
8
Step 45000
1 1  4.500792389583e-05  -2.734788542349e-04  -7.285770330581e-05 
2 1 -1.401196283702e-04  -6.574040065777e-05  -1.015457432175e-04 
3 1  1.201223271849e-04  -3.047534407710e-04  -2.338227889764e-04 
4 1  1.794997189824e-04  -6.770033876623e-04   9.290725183002e-05 
5 1  1.945196595934e-04  -1.848842329567e-04   1.904640792449e-04 
6 1  1.811547407838e-04  -1.371278239890e-04  -3.998937273778e-04 
7 1  2.253516737745e-04   5.318383357992e-05  -2.830801617322e-04 
8 1  3.027229412933e-04  -4.680589130732e-05   3.855099046787e-04 
8
Step 46000
1 1  8.520313682569e-05  -2.474674110396e-04   7.493937596973e-05 
2 1  1.072087651985e-04  -1.346080565346e-04  -1.801622836446e-04 
3 1  2.022243922603e-04   2.241211793448e-05   1.055149630306e-04 
4 1  2.223172299162e-04  -1.785317548689e-04   1.003348805406e-04 
5 1  8.445456726658e-05  -4.326462790502e-04  -8.271443813146e-05 
6 1 -2.044942977720e-04  -9.695090725107e-05  -4.270063821777e-04 
7 1  4.447703917540e-05  -1.848999942639e-04   1.182565069048e-05 
8 1  1.292381482433e-04  -1.050102546303e-04  -1.448025764311e-04 
8
Step 47000
1 1  1.605691936361e-05  -2.576450382559e-04  -1.055974656944e-04 
2 1  1.197745983752e-04  -4.007380192290e-04  -2.140941303994e-04 
3 1  2.021724113730e-04  -1.094654491214e-04   4.041735433795e-04 
4 1 -1.816140344964e-04   4.256009600603e-04  -2.361360870189e-04 
5 1  1.830337907334e-04  -6.123262610865e-04  -1.108375846684e-05 
6 1  5.818794909812e-05  -8.450515342600e-05   1.448942676962e-04 
7 1  7.912509949440e-06  -3.678063347773e-04  -2.421518682907e-04 
8 1 -4.339276073554e-05   8.810102397876e-05  -3.206621519027e-04 
8
Step 48000
1 1 -3.075730651443e-04  -5.108593277441e-05  -6.614647955275e-06 
2 1  2.459026875056e-04   1.776975754277e-04  -1.082320107236e-04 
3 1  6.612749416737e-04  -4.569571131204e-05   6.878571174440e-05 
4 1 -1.051771838229e-04   7.063356783251e-05  -6.734514621932e-05 
5 1  2.257768424184e-04  -4.770714924678e-04  -2.567023139100e-04 
6 1  1.465468912448e-05   7.058067278115e-05  -1.449566304730e-04 
7 1  2.287450352675e-05  -3.483687556214e-04  -7.244501126807e-05 
8 1  1.141837132716e-04   2.776161915231e-04  -1.061104128306e-04 
8
Step 49000
1 1  4.480605615536e-05  -1.630287937271e-04  -2.451449274167e-04 
2 1  1.635803473276e-04  -1.158225941291e-04  -1.763813417339e-04 
3 1  2.296000550370e-05  -6.054895057254e-06  -2.026552719468e-04 
4 1 -1.053744274738e-04  -2.011289463782e-04   1.385953579233e-04 
5 1  3.153794158263e-04  -4.105145960857e-04  -2.244031900217e-04 
6 1 -2.090563494301e-05   2.738104011386e-04   1.739242058671e-04 
7 1  4.889527516675e-05  -2.443029164181e-04  -1.669828052533e-04 
8 1  1.041627583691e-04   3.170600981612e-04  -9.886766903605e-05 
8
Step 50000
1 1  2.529978502702e-04  -1.703763349086e-04   2.902782983026e-05 
2 1  1.357314913664e-05  -1.543095995775e-04  -1.571189380235e-04 
3 1  3.660273842425e-04   2.861305853894e-04  -9.671848230948e-05 
4 1 -3.497141482433e-04   6.416183957011e-05   3.611481151238e-04 
5 1 -8.797097442724e-06  -1.212010864408e-04  -1.269419562591e-04 
6 1  3.149639347418e-06  -4.916582173154e-05  -2.262842889865e-04 
7 1 -2.625223251906e-04  -9.446894882800e-05  -6.110442610548e-04 
8 1  9.031024442112e-05  -5.795057469655e-05  -1.580704365366e-04 
8
Step 51000
1 1  2.355235832988e-05  -1.262294883420e-04  -2.028530198117e-04 
2 1  3.135212663189e-04  -2.288591876463e-04  -2.193257295465e-04 
3 1  1.899969965754e-04   3.005646057321e-04   2.757992134711e-04 
4 1 -2.989438882627e-04   8.330568435832e-05   1.984524878728e-04 
5 1  1.542265859939e-05   4.164494891946e-04  -2.982542275451e-04 
6 1 -2.076488843873e-04  -1.846878548011e-04  -2.633817675235e-04 
7 1 -3.662237668110e-04  -2.192645160509e-04  -2.316873227440e-04 
8 1 -3.675630579177e-05  -7.877846243675e-05   1.829758882623e-05 
8
Step 52000
1 1 -3.365882696345e-05   1.761345487247e-04   3.676245873362e-05 
2 1  2.697743087112e-05  -3.692875157407e-05  -1.581674983800e-04 
3 1  4.177367849297e-04   5.215037100850e-04   6.876892454661e-05 
4 1 -8.093902922773e-05   9.369714884879e-05  -2.604782733077e-04 
5 1 -2.857365380928e-04   3.958438604861e-04  -1.993483458452e-04 
6 1 -1.279985641367e-04  -1.076719790712e-04  -4.818419990053e-04 
7 1 -8.337705440269e-05  -8.393458539349e-05  -1.353796722137e-04 
8 1 -8.507907205319e-06  -2.199575818559e-04   3.305054540348e-04 
8
Step 53000
1 1  1.292790746840e-04   3.037540364224e-04  -7.901581999720e-05 
2 1 -9.976588090761e-05  -1.379432334528e-04  -5.350449901280e-04 
3 1 -4.859412766898e-05   3.307390125050e-04   3.158158705175e-04 
4 1 -1.385599679983e-05  -1.990044028017e-05  -2.637612920104e-05 
5 1 -9.442706992072e-05   2.909469751282e-04   2.233942567489e-05 
6 1  2.242271142094e-04   1.956055895053e-04  -2.464050976050e-04 
7 1 -1.012083246144e-04   1.611962785965e-04  -8.708025607321e-05 
8 1 -2.054579158288e-04  -2.278485598287e-04   4.515727996200e-05 
8
Step 54000
1 1  1.525471761581e-04   2.074587510641e-04   3.397510984748e-05 
2 1  1.997939981977e-04   3.857919675112e-05  -1.742153378711e-04 
3 1  1.392407586424e-05   2.513811786209e-04  -1.140419844285e-04 
4 1 -9.916903951867e-05   2.117216720203e-04  -1.654994104007e-04 
5 1 -4.260336953920e-05   8.848495023200e-05   1.312362068890e-05 