8
Step 0
1 1  0.000000000000e+00   0.000000000000e+00   0.000000000000e+00 
2 1  0.000000000000e+00   0.000000000000e+00   0.000000000000e+00 
3 1  0.000000000000e+00   0.000000000000e+00   0.000000000000e+00 
4 1  0.000000000000e+00   0.000000000000e+00   0.000000000000e+00 
5 1  0.000000000000e+00   0.000000000000e+00   0.000000000000e+00 
6 1  0.000000000000e+00   0.000000000000e+00   0.000000000000e+00 
7 1  0.000000000000e+00   0.000000000000e+00   0.000000000000e+00 
8 1  0.000000000000e+00   0.000000000000e+00   0.000000000000e+00 
8
Step 1000
1 1  1.876816027084e-05   1.499443503782e-04   2.881609136286e-04 
2 1  2.209549914249e-04   3.563314568174e-04  -1.095322534591e-04 
3 1  2.444105276774e-04  -4.670090205478e-04  -5.353435083092e-05 
4 1 -3.551823726415e-05   3.889738823035e-04  -5.896502882408e-04 
5 1 -1.979919188578e-04  -6.428611696784e-04   5.732223145046e-04 
6 1  1.628918964026e-05  -1.334953496508e-04   3.910916653706e-04 
7 1  5.088283116195e-05   1.628834065520e-05   1.982162325721e-04 
8 1 -2.304956554066e-05   4.241110843913e-04   6.400970871151e-05 
8
Step 2000
1 1  1.117036539988e-04   2.580046313501e-05   3.577188683992e-04 
2 1  1.710019082368e-04  -5.443831474984e-05  -1.482947148682e-04 
3 1  1.984159721569e-04  -2.402243810826e-04  -8.111287945915e-05 
4 1 -2.969001952587e-04   2.356417932492e-04  -4.726188701723e-04 
5 1 -4.063907241762e-05  -4.601432910222e-04   4.788239040370e-04 
6 1  3.074824209559e-04  -3.397004690088e-04   4.017786332474e-04 
7 1  3.096461113404e-04  -1.919842229424e-04   1.450083198224e-04 
8 1 -1.546449476720e-04   1.916385445793e-04  -1.686338146214e-04 
8
Step 3000
1 1  3.708727764982e-04  -1.909187395217e-04   2.298146312445e-04 
2 1  2.387111834270e-04  -1.617020255320e-04   7.578049227877e-05 
3 1  4.016542871648e-05  -2.905586223726e-04  -8.594838410013e-05 
4 1 -3.316603822467e-04  -1.015204145245e-04  -6.299319632678e-04 
5 1  2.913927267566e-05  -2.941246481291e-04   3.691187778613e-04 
6 1  3.346570707317e-04  -3.367722613072e-04   2.626361866334e-04 
7 1 -2.839085838615e-06   2.290024875292e-04   2.741960897798e-04 
8 1  2.156793313402e-04   3.691811039204e-04  -7.176064327725e-05 
8
Step 4000
1 1  2.721886386082e-04   2.612857571094e-04   1.981624503783e-04 
2 1  2.039542494412e-04  -1.552944418613e-05  -6.615350676763e-05 
3 1  2.039319719040e-04  -2.566094686487e-04   2.080842709117e-04 
4 1 -1.220110009832e-04  -2.132835942075e-04  -5.961287058049e-04 
5 1 -9.520406215718e-05  -4.951115084730e-04   2.877533482895e-04 
6 1  4.167540308386e-04  -1.423786882971e-04   1.298757393453e-04 
7 1 -6.869396870352e-05   3.574804374201e-04   1.085261074577e-04 
8 1 -5.731489501929e-05   4.599085378156e-04  -9.534667120716e-06 
8
Step 5000
1 1  1.064917970112e-05   5.274979698581e-04   2.450688301820e-04 
2 1  3.377541353409e-04  -8.906162070010e-05  -5.002571688663e-04 
3 1  8.547610856322e-06  -3.392601742193e-04   2.329480349617e-04 
4 1  2.797621692726e-04  -1.230244847065e-04  -4.408254233990e-04 
5 1 -1.546473913885e-04  -2.848444606445e-04   5.016964352752e-04 
6 1  3.903405748742e-04  -3.005285123163e-07   2.782676067427e-04 
7 1  6.205128658773e-05   1.857826091302e-04   1.336710139134e-04 
8 1 -5.002528883412e-04   4.685337083907e-04  -4.002611768886e-04 
8
Step 6000
1 1 -6.533403667682e-05   1.809665222911e-04   2.671509099019e-05 
2 1  3.262633992129e-04  -5.410315893947e-05  -1.108542753281e-04 
3 1 -6.310205203995e-06  -3.569937556142e-04   5.557047709692e-05 
4 1  6.041123033950e-05   6.902387211629e-05  -4.948552087041e-04 
5 1 -1.530673998421e-04  -5.030917843455e-04   3.081295619109e-04 
6 1  3.622422695449e-04  -1.857307851558e-05   1.600945222518e-04 
7 1  6.166592438141e-05  -1.411555486342e-05   2.393745715653e-06 
8 1 -1.659289943851e-04   2.383508589551e-04  -1.717675939051e-04 
8
Step 7000
1 1  3.378045685545e-04  -2.807900389095e-04   1.227100209815e-04 
2 1  2.400852778150e-04  -1.670445587831e-04  -1.273676255443e-04 
3 1 -1.109114549555e-04  -2.975474805776e-04  -4.874543514328e-05 
4 1  1.662922768138e-05   8.359773645352e-05  -2.447378964745e-04 
5 1 -1.372539377923e-04  -3.706557488147e-04   1.057501703315e-04 
6 1  3.348263341949e-04   1.636172499585e-04   7.440597145487e-05 
7 1  2.421089582902e-04  -3.291489457861e-05  -5.483624091244e-05 
8 1  3.745781349645e-05   3.652433105647e-04  -2.188566691335e-04 
8
Step 8000
1 1  2.343265477996e-04  -2.311637828330e-05   1.057835891626e-04 
2 1  2.119125403489e-04  -1.561748419837e-04  -1.583432250864e-04 
3 1 -4.626995297729e-05  -1.884487850685e-04   1.954572144802e-04 
4 1 -2.399017211309e-05  -2.550544242226e-04  -3.039907585908e-04 
5 1  1.028995473936e-04  -3.381021050389e-04  -1.035262599860e-04 
6 1 -3.838940778155e-06  -1.953284847904e-05   2.252787495552e-04 
7 1  2.146378854440e-04   2.574250869033e-04  -2.446800599057e-05 
8 1 -1.193197725007e-04   4.224879325820e-04  -4.814562184628e-04 
8
Step 9000
1 1  1.520334415287e-04   2.898574975704e-04   5.128122384529e-05 
2 1  2.285947820017e-04  -1.475167637978e-04  -1.246579829125e-04 
3 1 -7.200300703793e-05  -1.922386413258e-04  -4.226423741152e-05 
4 1  2.376135337872e-04  -2.247856034141e-04   1.517514073017e-05 
5 1  1.646518449858e-04   4.791038981543e-05   4.920959517799e-05 
6 1  8.948385360786e-05   2.445411345706e-04   6.854756703615e-05 
7 1 -1.785978720240e-04   3.231484210599e-04  -2.660886023432e-04 
8 1 -2.986855404557e-04   3.397594708136e-04  -4.559586380822e-04 
8
Step 10000
1 1  8.871306340568e-06   1.962233297060e-04   3.973455279512e-05 
2 1  1.354140164989e-04   3.249674289569e-05  -3.330103806680e-04 
3 1 -3.004077363992e-04  -7.325440980755e-05   1.487073123815e-04 
4 1  4.594121961514e-04  -1.425728784276e-04   1.026610139820e-04 
5 1  2.810034411707e-05  -2.489037208714e-04  -1.208310692170e-04 
6 1  2.938006227263e-05   3.292920113427e-05  -1.232404732185e-06 
7 1 -1.690755717645e-04   2.701091277378e-04  -1.284135643529e-04 
8 1 -2.075677704255e-04   1.996668774904e-04  -5.376936089275e-04 
8
Step 11000
1 1  3.445903239049e-05   7.594820612975e-06  -1.199110168860e-04 
2 1  1.443321608168e-04  -3.692639891128e-04  -3.653461248787e-04 
3 1 -1.497924156874e-04  -2.598928806727e-04   2.898640605031e-04 
4 1  1.529948671637e-04   1.890573541275e-05  -2.617250565820e-04 
5 1 -2.321394256177e-04  -3.505587245219e-05  -1.335162700310e-04 
6 1  1.676516442383e-04  -1.432443425094e-04   1.225179530972e-05 
7 1  3.372091577183e-04   2.286487019527e-04  -1.362436863632e-04 
8 1 -2.231040547781e-04   2.587424860018e-04  -3.074448403571e-04 
8
Step 12000
1 1  1.335600116844e-04  -1.921542987684e-04  -5.368402284749e-05 
2 1  8.808958066915e-05  -2.966411257605e-04  -1.505338812571e-04 
3 1 -2.786476560947e-04  -1.768988233796e-04   7.836623650956e-05 
4 1  2.780535960585e-04  -2.654378185154e-05   1.435355689775e-04 
5 1 -1.100825020276e-04  -1.583006443795e-05  -2.568642901183e-04 
6 1  1.174847693096e-04   1.635324504902e-04  -2.235136708167e-04 
7 1  2.033733070540e-04  -1.678582961456e-05  -8.043057072709e-05 
8 1 -2.306099360287e-04   3.795476808652e-04  -3.907137887010e-04 
8
Step 13000
1 1  1.887323622038e-04   5.168749622852e-06   7.819184121492e-05 
2 1  2.809198324411e-04  -2.148128086588e-04  -2.402205651277e-04 
3 1 -2.215613097424e-04   2.645683080811e-04   2.044843849460e-04 
4 1  2.487361327593e-04  -8.699677366491e-05   1.524734257367e-04 
5 1  1.513673533022e-04   9.958819310013e-05  -3.085304144911e-04 
6 1 -2.704481707702e-04   2.943485093966e-04  -2.486715328881e-04 
7 1 -1.820169871857e-04   1.895505168077e-04  -1.968629367965e-04 
8 1 -2.733888698814e-04   2.526879468681e-04  -4.186136834169e-04 
8
Step 14000
1 1 -1.079335173522e-04   2.907256375977e-04   1.067748388602e-04 
2 1 -9.028236720275e-05  -2.810208932056e-05  -2.713574446095e-04 
3 1 -2.052625751666e-04   2.249169719875e-04   2.365317217642e-04 
4 1  2.225721101079e-04  -2.744279621717e-04   1.591882848368e-04 
5 1  2.515526437952e-04   3.221963676380e-05  -3.632422328626e-04 
6 1 -3.636547337943e-04   2.570960824496e-05  -3.336362898968e-04 
7 1 -2.154018954753e-04   1.503113292288e-04  -5.702124173492e-05 
8 1 -2.678182907720e-04   2.837053125906e-04  -3.629043837229e-04 
8
Step 15000
1 1  4.930228366521e-05  -1.045769755359e-04  -2.774078198004e-04 
2 1 -2.141925242958e-04  -1.064156057130e-04  -2.045901995287e-04 
3 1 -3.197937732082e-04   2.640289778262e-04   7.187602525458e-05 
4 1  1.737786243186e-04  -1.477706787012e-04   4.352786929316e-04 
5 1 -6.753708616202e-05   1.622072878648e-04  -5.670048704574e-04 
6 1 -5.065499927873e-06   8.557299178967e-05  -1.372743356701e-05 
7 1 -1.394967975219e-05   1.769809198149e-04  -4.933406758695e-06 
8 1  7.752001576344e-06   1.906796641779e-05  -3.429374665424e-04 
8
Step 16000
1 1 -2.191792807630e-04  -1.741854844939e-04  -4.183156547609e-05 
2 1  3.865976522786e-06  -2.644059226465e-04  -2.122038327498e-04 
3 1 -4.538675885589e-04   1.647555257801e-05  -6.042354865459e-05 
4 1  2.600803440481e-04  -6.460968628898e-05   3.631880076151e-04 
5 1 -7.770298827876e-05   2.750882474609e-04  -3.973832383492e-04 
6 1  8.695800251448e-05  -2.393174119269e-06  -1.436090447856e-04 
7 1 -1.571739980635e-04   7.595756996166e-05  -1.278118288024e-04 
8 1  9.919650322856e-05  -6.629201427439e-05  -4.445271323505e-05 
8
Step 17000
1 1  1.554094323172e-05   2.853713890616e-05  -1.888781418043e-05 
2 1 -7.381103439587e-06  -4.436910331953e-04   1.268778317355e-04 
3 1 -2.319031209723e-04   3.372199663704e-04   1.968505348735e-05 
4 1  3.195641853925e-04   2.345112285055e-04   1.659991802492e-04 
5 1 -9.212740733876e-05   9.541483861189e-05  -5.338036770118e-04 
6 1 -1.019382068059e-04   4.231729874736e-05  -9.781110626448e-05 
7 1 -1.851351128472e-04   1.053390086568e-04  -4.555369579231e-05 
8 1 -2.068963372534e-04   1.493311480339e-04  -1.766737303385e-04 
8
Step 18000
1 1 -2.700529065949e-04   2.140609468757e-04   1.454719931924e-04 
2 1  3.278942834988e-05   7.626169383265e-05   6.676036329724e-05 
3 1 -2.267509127450e-04   1.479995421364e-04   8.452470205734e-05 
4 1  2.379091882321e-04   2.546149260440e-04   5.024662080048e-04 
5 1  3.473380607155e-05   1.888718557274e-04  -5.777009296765e-04 
6 1 -1.184958340362e-04   9.520181968758e-05   4.561330213643e-05 
7 1 -2.862459350158e-04  -8.261185728715e-05  -8.114181794304e-05 
8 1 -3.872985211855e-04   1.651645484658e-04  -4.025939275391e-04 
8
Step 19000
1 1 -3.071648855447e-04  -1.759824723249e-05  -5.429650292751e-05 
2 1 -2.113020793554e-04   9.693962562721e-05  -2.270409467324e-04 
3 1 -2.431009193186e-04   3.898243495318e-04   4.866054742252e-05 
4 1 -1.496023020333e-05  -2.084385057538e-04   3.380329769868e-04 
5 1 -4.239455979027e-05   2.818953492843e-04  -5.086593612146e-04 
6 1 -2.957607477861e-04   2.432050744598e-04  -1.085761259612e-04 
7 1 -5.615089316715e-05  -1.920297709814e-04   2.337032765423e-04 
8 1  1.683106081703e-04  -6.310087199884e-05   7.544797454977e-05 
8
Step 20000
1 1 -1.587100014585e-04  -2.089969276100e-04  -8.574016995320e-05 
2 1 -4.669837378333e-04  -8.398877969860e-05   3.858929772958e-05 
3 1 -4.227635896016e-04   3.047960653542e-04  -1.474744873362e-04 
4 1  9.016624494751e-05  -2.760880942048e-04   4.035781825477e-04 
5 1  1.366662212579e-04   2.705711030641e-04  -5.384292032713e-04 
6 1 -3.774282650897e-05   5.189484890948e-05   3.912698483235e-05 
7 1  1.436875129249e-04  -4.812126930545e-05   2.824884874035e-04 
8 1 -1.526652206199e-05  -1.885156158528e-04   1.550362189381e-04 
8
Step 21000
1 1 -1.122561729119e-04  -3.505491893591e-04   1.693131932377e-05 
2 1 -9.311829948801e-05  -1.161467766016e-04   2.531699922568e-04 
3 1  6.524648001792e-06   5.197556475404e-04   1.793626416826e-05 
4 1  1.724278634734e-05  -1.135387981305e-05   4.751167922036e-04 
5 1 -3.444607997769e-04   5.534747847034e-04  -7.498375658795e-04 
6 1  9.250639428142e-06  -3.373415757198e-04   4.369532682756e-05 
7 1  1.035238419712e-04  -8.199999138314e-05   3.008530793811e-04 
8 1  2.236956437174e-05  -4.472867948801e-05  -5.991972322646e-05 
8
Step 22000
1 1 -2.417761974667e-04   2.129538480161e-04   2.650903308828e-04 
2 1 -1.333319555808e-04   2.159302482248e-05   3.166052920409e-04 
3 1 -5.588021646550e-05   3.305937248733e-04  -1.655451178680e-04 
4 1  1.512000976707e-04  -3.240194035223e-05   3.904766621457e-04 
5 1 -2.516905418057e-04   5.371756377515e-04  -3.528012541333e-04 
6 1  2.331007503658e-05  -3.311504814188e-04   2.829101557823e-06 
7 1 -1.717641264521e-04  -1.308971545807e-04  -5.838110294466e-05 
8 1 -2.146133909767e-04   1.654153825992e-05   2.340039441766e-04 
8
Step 23000
1 1 -2.075810670919e-04   7.341834529421e-05   7.568838983983e-06 
2 1 -2.628511138083e-04   3.260458152635e-04   2.922460255363e-04 
3 1 -2.700409086749e-04   3.970644836741e-04  -8.026765628403e-05 
4 1  1.196883161161e-04  -3.289565924120e-05   3.885398916084e-04 
5 1 -2.523167555621e-04   3.537488611664e-04  -4.521239349480e-04 
6 1  9.123846528567e-05  -1.862242546220e-04  -9.155668123466e-07 
7 1  3.609305318556e-05  -1.702506451103e-04   6.635986496473e-05 
8 1 -5.015240837676e-05  -1.454575577166e-04   4.578513390060e-04 
8
Step 24000
1 1 -3.971947811903e-04  -1.035991003012e-04  -2.628604019731e-05 
2 1 -2.542628295332e-04   1.546449533781e-04   7.283004638665e-05 
3 1 -1.860866795070e-04   1.334674392152e-04  -6.558544285874e-05 
4 1  1.727225003637e-04  -7.115352342586e-05   3.407467546152e-04 
5 1 -1.062298838185e-04   2.005998649541e-04  -4.491108058165e-04 
6 1  3.413405130831e-05  -1.817841680475e-04   1.809837850088e-04 
7 1  1.657779107198e-04  -3.398077278786e-04   4.266371373692e-04 
8 1  6.657153468962e-05  -2.291753298237e-05   4.262797053618e-04 
8
Step 25000
1 1 -2.166472873695e-04  -5.060653019870e-04   1.795510600069e-05 
2 1 -1.144620322949e-04   1.772724588285e-04   3.102082917710e-04 
3 1  1.286179163947e-04   2.655294671183e-04  -7.101905491016e-05 
4 1  7.243605923861e-06  -3.988368212458e-05   2.965894956984e-04 
5 1 -1.123670684849e-04   2.056149775703e-04  -3.999532568544e-04 
6 1 -6.026550701316e-05  -5.564028125276e-05   3.754295661062e-05 
7 1  2.675844916415e-04  -5.971490449306e-04   4.140404616045e-04 
8 1  1.502534779665e-05  -1.110842684571e-04   3.009246668184e-04 
8
Step 26000
1 1  2.879834061084e-04  -3.040881697576e-04   2.774074135337e-04 
2 1 -2.048744623561e-04   4.438025776763e-04   5.910512571528e-04 
3 1  1.155454110488e-04   2.491953123131e-04  -2.098047323135e-04 
4 1 -2.833311201764e-04   2.273842095328e-05   5.235257395510e-04 
5 1  4.688740768512e-05   3.193900065415e-04  -3.795661164835e-04 
6 1 -4.080248760230e-04   1.287235800776e-04  -2.451588934158e-04 
7 1  1.454466932622e-04  -4.244769214179e-04   2.523490006014e-04 
8 1  3.147545601104e-04  -2.991987884264e-04   3.445802709928e-04 
8
Step 27000
1 1 -2.482978503172e-04  -2.049773189599e-05   5.524722593564e-05 
2 1 -5.835769524037e-05   2.592985494696e-04   3.943339013928e-04 
3 1  3.370788068777e-04   1.386444238797e-04  -2.859733894753e-04 
4 1 -1.854209204972e-04   2.226051799398e-05   4.810706984655e-04 
5 1 -7.530569238985e-05   3.265123041662e-04  -4.717976027183e-04 
6 1 -1.749033276314e-04  -3.841108907826e-04   1.890541323998e-04 
7 1  1.222007986335e-04  -2.635779022770e-04   3.154248760999e-04 
8 1  6.046824842071e-05   1.594923431507e-04   3.611173821826e-04 
8
Step 28000
1 1 -1.560149503723e-04   2.705271225450e-05   4.247136076995e-05 
2 1 -4.853736719405e-04   3.820353409289e-04   3.928284397760e-04 
3 1  3.438566996338e-04   1.171714549003e-04  -3.837982924474e-04 
4 1  2.326147719813e-04  -2.331418348209e-04   4.043064074920e-04 
5 1 -9.559745017852e-06   1.158472198716e-04  -4.855990070163e-04 
6 1 -3.052350785193e-05  -4.600548131442e-04   1.605470398153e-04 
7 1 -2.128520010884e-05  -2.370368213415e-04   4.689841703803e-04 
8 1  1.357535432651e-04  -5.327166126849e-05   4.355558706599e-04 
8
Step 29000
1 1  1.150865030831e-04  -3.376712760461e-04   2.059365852797e-05 
2 1 -8.307161668328e-07   2.663489313665e-04   3.094405405577e-04 
3 1  5.480410668915e-05  -3.420599250481e-06  -4.240370334214e-04 
4 1  1.761140100428e-04  -3.112368313042e-04   4.159645208331e-04 
5 1  6.943245753165e-05   1.236941223164e-04  -2.998635307278e-04 
6 1 -2.034112263306e-04  -2.649076309005e-04   1.219180549688e-04 
7 1  2.997939173594e-05  -1.166567648021e-04   9.088567086713e-05 
8 1  4.021130897598e-04  -3.588954984498e-04   6.560477137871e-04 
8
Step 30000
1 1 -6.157889723835e-05  -1.605781007447e-04   6.449838637583e-05 
2 1  4.162338751700e-04   1.529457484034e-04   3.791494668918e-04 
3 1  2.147501958364e-04   5.948059250264e-05  -2.471331485590e-04 
4 1 -1.071232958935e-04  -2.342920459083e-04   3.296828389511e-04 
5 1 -2.159994376215e-04   3.655427779518e-04  -4.615877538583e-04 
6 1 -1.366471912274e-05  -7.429457835715e-06   1.217935066012e-04 
7 1  2.239460577008e-04  -3.365956780087e-04   3.298017177688e-04 
8 1  3.122283016840e-04  -4.919242176774e-04   3.287576434520e-04 
8
Step 31000
1 1  1.500283389365e-04  -3.284145359592e-04   2.894241622403e-04 
2 1  1.321295001642e-04   3.360556318759e-04   2.191566601742e-04 
3 1  3.665264454793e-04   4.014852539157e-05  -1.683911553850e-04 
4 1 -1.782638881179e-04  -1.422152918325e-04   8.879274440540e-05 
5 1 -4.931651929486e-05   6.119366648249e-05  -1.832326441762e-04 
6 1 -1.933907322481e-04  -4.066670725482e-06  -8.045937546402e-05 
7 1  1.890808594246e-04  -1.039901709048e-05   3.487931097139e-04 
8 1  1.220529852045e-04  -8.133262893311e-05   1.347959744913e-04 
8
Step 32000
1 1  1.636963160720e-04   1.377024183897e-04  -2.793601246891e-05 
2 1 -2.201963700732e-04   4.238475455413e-04   3.363532090998e-04 
3 1  6.015600814202e-04  -3.529395567971e-05  -3.266303823309e-04 
4 1 -2.729803429445e-07  -4.055988325781e-04   1.027059390012e-04 
5 1  7.855659321015e-05  -7.790219271084e-05  -1.106420502085e-04 
6 1 -2.981819727311e-04   2.942370031423e-05  -2.840589612053e-05 
7 1  9.016553991720e-05  -1.853575193509e-04   2.150014143645e-04 
8 1  2.341603253417e-04   1.018706379348e-05   2.941540442476e-04 
8
Step 33000
1 1  1.721182484571e-04  -9.740120151256e-05  -1.567395574548e-04 
2 1 -1.276353040854e-05   3.180589052089e-04   1.861704023617e-04 
3 1  5.787559610230e-04  -3.949987257364e-04  -5.417756707494e-04 
4 1 -1.827673947520e-04  -2.480588079595e-04   1.438319887044e-04 
5 1 -1.660760022012e-06  -1.409640773073e-04  -1.262693189011e-04 
6 1 -1.503683626631e-04   4.728001810451e-05  -1.339215120065e-04 
7 1  9.511152705379e-05  -2.538054628514e-04   4.819291469313e-04 
8 1  2.950046838079e-04  -4.140102849564e-04   2.868746489058e-04 
8
Step 34000
1 1  4.538987300066e-04  -1.141793513529e-04  -1.917986132368e-04 
2 1  2.017166936999e-04   2.977929350862e-04   1.970034073884e-04 
3 1  4.690949375576e-04  -4.561542951367e-05  -1.757553530290e-04 
4 1 -2.709660822679e-04  -3.520274214967e-04   2.089745003103e-04 
5 1 -1.641160486191e-04  -1.231315151997e-04  -2.582466582233e-04 
6 1  2.121278149559e-05  -1.955638855355e-04   3.862520419224e-05 
7 1  4.091883058505e-04  -1.422015296119e-04   1.066312441509e-04 
8 1  1.907547846945e-04  -1.955670479675e-04   4.460083197938e-05 
8
Step 35000
1 1  4.500181746408e-04   5.753421294955e-05  -3.638518222854e-04 
2 1  1.944013048806e-04  -1.054697989087e-04   3.696637785140e-04 
3 1  2.945738204858e-04  -3.529347770198e-05  -4.310212423655e-04 
4 1 -1.229642658331e-04  -3.158474725533e-04   1.939710637694e-04 
5 1  5.663892720544e-05   3.005880595309e-04   3.560000063636e-05 
6 1  4.269087822030e-07  -5.929329586530e-05   6.992882256432e-05 
7 1  4.211213993387e-05   5.991194612698e-06  -1.940412026953e-04 
8 1  7.776857889054e-06  -1.547861095052e-04   9.357278464949e-05 
8
Step 36000
1 1 -1.474467257963e-04  -4.581161867043e-06  -2.139983498510e-04 
2 1  2.859934092655e-04   3.996941936958e-04   1.643107289335e-04 
3 1  5.384686185379e-04  -1.470048323373e-04  -3.005138054885e-04 
4 1 -1.119955228274e-04  -3.046875261332e-04  -4.713522628350e-06 
5 1 -1.187414078479e-04   9.429513956155e-05  -6.480147229736e-05 
6 1 -1.126644026762e-04   1.196461758908e-04   8.135540464261e-05 
7 1  1.721687771792e-04   1.169402949002e-04  -3.659558992584e-04 
8 1  1.152923722175e-04  -1.447801058535e-04   1.902842601171e-04 
8
Step 37000
1 1  1.972746976687e-04   2.305162609138e-05  -2.201511883858e-04 
2 1  4.490639468857e-05   3.662296645158e-04  -1.372797899288e-04 
3 1  4.706444897958e-04  -1.083331500583e-04  -1.188593111072e-04 
4 1 -1.679262055843e-04  -2.955892666256e-04  -4.598959533026e-05 
5 1 -3.945747709494e-06  -2.542328940070e-04   4.701349481372e-05 
6 1 -6.077956979047e-05  -3.335382521059e-05   1.112748841461e-04 
7 1  2.019659353777e-04  -1.376770932669e-04  -3.489655468605e-04 
8 1 -3.659617827947e-05  -6.835718031370e-05   6.020099988568e-06 
8
Step 38000
1 1  2.567866959460e-04   6.502261583484e-05  -5.839117081575e-04 
2 1  2.861070645969e-04   1.739110295073e-04  -3.793361802389e-05 
3 1  5.140689513427e-04  -2.383489413115e-04  -2.681010863316e-04 
4 1 -1.200100637491e-04  -8.118796207539e-05   1.219175040729e-05 
5 1 -2.172320342015e-04  -3.017624038616e-04   2.762873651500e-04 
6 1 -9.263043681030e-05  -2.863773074624e-04  -8.513393574007e-05 
7 1  1.870482030350e-04  -6.630635896664e-05  -2.881642677726e-04 
8 1  1.600145920655e-04   1.394051943558e-05   3.600202652032e-05 
8
Step 39000
1 1  1.581446863732e-04  -1.596337600556e-04  -3.321064384546e-04 
2 1  4.213571916268e-04  -8.831283427204e-05  -6.787524130522e-05 
3 1  2.584418621501e-04  -2.278759966314e-04  -1.645538805071e-04 
4 1 -1.652763612827e-04   3.614856160719e-05   2.207875016753e-05 
5 1  1.631431799915e-04   1.760549422232e-04   2.890491677439e-04 
6 1 -8.045847660013e-05   6.905309961288e-05  -2.865594390822e-05 
7 1 -2.477798181501e-04  -1.097908181352e-04  -5.728959424623e-04 
8 1  6.770992141060e-05  -7.877377821084e-06  -1.142402062530e-04 
8
Step 40000
1 1  2.092347860026e-04   1.410559745638e-04  -3.575414081935e-04 
2 1  2.737728543907e-04  -5.312646762070e-05  -7.440651815502e-07 
3 1  1.472297278362e-04   5.339149103762e-05  -1.928676081850e-04 
4 1  1.719318459880e-05  -2.049186004998e-05   1.280106499946e-04 
5 1 -1.317395712606e-04   3.779531494988e-04   1.259882632885e-04 
6 1 -6.366414967936e-05  -5.426026482829e-05  -1.724395948030e-04 
7 1  2.350977661400e-05   1.901118457192e-04  -1.373013254304e-04 
8 1 -1.378300724432e-04   1.225774681371e-04  -4.840152432076e-04 
8
Step 41000
1 1 -5.924584142226e-05   2.293478284338e-04  -5.902044791559e-04 
2 1  3.593120518128e-04   3.340204146657e-05   9.184094025691e-05 
3 1 -6.687105806952e-05   7.391247893517e-06  -1.889894740713e-04 
4 1 -5.773401709312e-05  -1.540811714155e-04  -2.174251457724e-05 
5 1 -1.152162315687e-04   1.827192292482e-04   1.338832476573e-04 
6 1 -5.636636017130e-05  -1.407871452782e-04  -5.204029030607e-05 
7 1 -1.390292132671e-04   5.310633830206e-05  -3.922936729688e-04 
8 1 -1.213823369141e-04   1.785979756534e-05  -9.771245171793e-05 
8
Step 42000
1 1  7.308344842186e-05  -1.523999610305e-04  -5.103645629623e-04 
2 1  8.130195820477e-05   2.811290982844e-04  -9.167407446312e-05 
3 1  1.028367646349e-04  -1.465218430010e-04  -1.987931314796e-04 
4 1 -1.135883472199e-04  -1.795522075815e-04   5.538633595424e-06 
5 1  1.745190072171e-04  -6.637979689234e-05   3.878970722375e-04 
6 1 -1.098172941195e-04  -9.692232154815e-05   1.951806587343e-05 
7 1 -2.965909694015e-04   4.833243326661e-05  -6.346392210888e-04 
8 1  1.995247223862e-04   1.847431253972e-04  -1.828311690382e-04 
8
Step 43000
1 1  2.059675443522e-04  -2.367086263838e-04  -2.817078191320e-04 
2 1  1.983511738493e-04  -8.277394313390e-05  -3.063605153429e-04 
3 1  1.339871586518e-04  -8.690372802197e-05  -3.307045936945e-05 
4 1  7.330913836805e-05   1.031421990067e-04   6.060278367832e-05 
5 1  2.489604437611e-05  -2.330282682891e-05   4.143671665538e-04 
6 1 -3.504336146623e-04   2.320737193303e-04  -3.757714237923e-05 
7 1 -8.395909760960e-05   6.193322454384e-06  -3.731391313762e-04 
8 1 -2.331882781119e-04   1.193302489797e-04  -4.162676791680e-04 
8
Step 44000
1 1 -9.621222851814e-05  -1.106705703990e-04  -3.691271164287e-04 
2 1  1.587931919881e-04  -2.675932876422e-04  -2.478698098827e-04 
3 1 -4.010728891487e-05  -1.141995655827e-04   3.139395582640e-04 
4 1 -3.749900110061e-04   7.348509740445e-04  -1.881968698722e-04 
5 1  1.675407997298e-04   9.975369427618e-05   2.483961080822e-04 
6 1 -5.173835253808e-05   2.862332952485e-04   1.706561700123e-06 
7 1 -2.068397364245e-04   4.406465274668e-05  -5.814573250226e-04 
8 1 -2.470275588851e-05   2.199948118117e-04  -1.317706946561e-04 
8
Step 45000
1 1 -3.658028183226e-04   7.386678044825e-05  -8.698739767725e-05 
2 1  2.480150403760e-04   1.919932570956e-04  -1.199764057791e-04 
3 1 -1.856138447120e-04  -1.329815484335e-04   1.384698183907e-04 
4 1 -4.131884447204e-04   4.407582910138e-04  -1.889651572519e-04 
5 1  3.420047848455e-05  -4.580893158200e-05   3.499511962133e-04 
6 1 -1.437828454798e-04   3.242148316738e-04   7.179649505477e-06 
7 1 -1.906607192883e-04   2.105945023318e-05  -4.690549769034e-04 
8 1  2.974309460107e-05   1.911663674933e-04  -3.063246158020e-04 
8
Step 46000
1 1 -7.183564021371e-05   3.544101191878e-05  -2.880818793031e-04 
2 1  5.032999244792e-05  -1.906086244059e-04  -7.384638830318e-05 
3 1 -2.752978745442e-04  -8.365320685871e-05  -2.469648136336e-04 
4 1 -2.128682830479e-04   3.762947787610e-05   5.355514702644e-05 
5 1  1.357834609749e-04   9.215900742893e-05   4.455434030824e-04 
6 1 -1.241527706954e-07   4.321990679033e-04   1.533116572119e-04 
7 1 -8.925282416143e-05   1.284691669566e-04  -3.508931316558e-04 
8 1 -3.077948402976e-04   6.007697375286e-05  -3.310425576705e-04 
8
Step 47000
1 1 -3.140386738871e-05  -1.247999172475e-04  -7.944012747666e-05 
2 1  8.698351942444e-05  -3.418502337323e-04  -8.004943342137e-05 
3 1 -1.778557082392e-04   4.738564660159e-05  -2.910190558432e-05 
4 1 -2.459359261268e-04   3.350056180299e-05   4.431004239906e-05 
5 1 -4.425421456243e-05  -1.350228136355e-05   3.438268755191e-04 
6 1  4.134967102892e-06   1.882321063704e-05   2.671117384427e-04 
7 1 -2.931948143014e-04   4.576541392853e-04  -5.519117080276e-04 
8 1 -1.127527721364e-04  -4.091003795061e-05  -2.015604253442e-04 
8
Step 48000
1 1 -1.370900872119e-04  -2.004431951303e-04  -8.431194473114e-05 
2 1  1.472915491631e-04  -2.066436186611e-04  -3.917712741306e-05 
3 1 -3.717470154661e-04   4.833313924185e-05   1.874162219566e-04 
4 1 -1.896484058152e-04   2.729476631237e-04  -4.032870798030e-05 
5 1  1.920906060826e-04   2.307652598388e-04   5.129944460367e-04 
6 1 -1.360210732419e-04   1.130548357913e-04  -2.020607555042e-04 
7 1 -8.094910007088e-05   3.030066635119e-04  -4.926127524103e-04 
8 1 -1.466169726071e-04   3.061450155291e-04   7.217463706855e-05 
8
Step 49000
1 1 -1.760651025843e-04   1.152937952769e-04   1.656710204913e-04 
2 1 -5.999613093037e-05  -3.710897976489e-05  -9.383522205405e-05 
3 1 -5.182118304876e-04   1.641709006792e-05   3.479364932179e-04 
4 1 -2.469850076667e-04   3.684066660575e-04  -2.183820809320e-04 
5 1 -1.099734898914e-04   1.929198087988e-04   2.644796747987e-04 
6 1 -1.813239108826e-04   1.397776814571e-04  -1.186710278379e-04 
7 1  2.543813517754e-06   3.184413497885e-04  -2.350097146299e-04 
8 1 -2.753085742309e-05   1.169748973223e-04   1.653459649169e-04 
8
Step 50000
1 1 -3.429199553046e-04   4.552935558695e-05   1.890317564085e-04 
2 1 -8.568570024285e-05  -2.456658364433e-04  -2.374592443738e-04 
3 1 -5.619159325246e-04   5.955926728350e-05   3.612264586352e-04 
4 1 -1.683264845670e-04   3.806538724323e-04  -2.369297573920e-04 
5 1  2.407820190305e-05  -5.602552794364e-05   4.847740721093e-04 
6 1  2.154015816593e-04   2.325153342349e-04   3.693908710021e-04 
7 1 -1.153745969560e-05   2.387137615545e-04  -2.984165364154e-04 
8 1 -3.103172196249e-04   1.958071293221e-05  -2.924916688196e-04 
8
Step 51000
1 1 -3.642802182621e-04   6.890742877865e-05   3.043477732304e-04 
2 1  1.006388957070e-04  -5.894308434537e-05  -6.101640354097e-06 
3 1 -1.863376231361e-04  -2.867244346509e-04   1.256753641589e-04 
4 1 -2.050340485159e-04   2.956211303866e-04  -2.157207671161e-04 
5 1  1.761108298671e-04  -3.091705826176e-04   3.130952493853e-04 
6 1  1.048001239252e-04   3.186972002007e-04   5.650209158337e-05 
7 1 -1.521914141339e-04  -1.715868300920e-04  -5.531990683799e-05 
8 1 -2.573803545847e-04   2.257703810280e-04   1.797555574652e-04 
8
Step 52000
1 1 -2.054283819065e-04  -1.397665558745e-04   1.473435763655e-04 
2 1 -2.745465450546e-05  -1.318579416543e-04   1.596086110305e-04 
3 1 -5.431571875134e-04   1.636646077731e-04   4.801088275591e-06 
4 1 -2.010354152835e-06   1.574973799543e-04  -9.357272282484e-05 
5 1  2.012134023926e-04  -4.028837124644e-04   6.450461490602e-05 
6 1  1.076170858194e-06   1.713113385270e-04   2.155950780505e-04 
7 1 -7.864717160097e-05   7.155746555404e-05   5.705295902586e-05 
8 1  3.327861559978e-05   1.903694484951e-04   2.451452674767e-04 
8
Step 53000
1 1 -6.528975806563e-05   1.732537023211e-04   3.401777806785e-04 
2 1 -1.463608245801e-04  -1.157151462063e-04   3.115136544524e-04 
3 1 -6.352638110971e-04   1.326501919501e-04   1.753979823572e-04 
4 1 -3.335410692502e-04   3.259576053535e-04   2.132801188639e-05 
5 1  2.268853242010e-04  -2.616907416644e-04   2.052970759650e-04 
6 1  1.040689806056e-04   1.669503124607e-04   8.785780947038e-05 
7 1 -1.501493583252e-04   3.119879637790e-05  -1.462739836148e-04 
8 1  1.822943163086e-04   3.206526147826e-04   1.089180028489e-04 
8
Step 54000
1 1 -4.234983040436e-04   4.038516297469e-05   2.553341467654e-04 
2 1 -1.655860298415e-04  -1.355149980722e-04   1.494486655682e-05 
3 1 -2.203011451037e-04  -1.117705155730e-04   4.239373557491e-04 
4 1 -2.213891017710e-04   4.574717696197e-04  -1.723252113422e-04 
5 1  2.955033350016e-04   1.790869480454e-04   5.857027978529e-05 