8
Step 0
1 1  0.000000000000e+00   0.000000000000e+00   0.000000000000e+00 
2 1  0.000000000000e+00   0.000000000000e+00   0.000000000000e+00 
3 1  0.000000000000e+00   0.000000000000e+00   0.000000000000e+00 
4 1  0.000000000000e+00   0.000000000000e+00   0.000000000000e+00 
5 1  0.000000000000e+00   0.000000000000e+00   0.000000000000e+00 
6 1  0.000000000000e+00   0.000000000000e+00   0.000000000000e+00 
7 1  0.000000000000e+00   0.000000000000e+00   0.000000000000e+00 
8 1  0.000000000000e+00   0.000000000000e+00   0.000000000000e+00 
8
Step 1000
1 1  1.537125778876e-04  -4.450058091505e-05  -1.257017316417e-04 
2 1  1.033659106219e-04  -1.744102001355e-04  -1.822269283744e-06 
3 1 -1.155040454807e-04  -1.190304801368e-04  -1.513414107899e-05 
4 1  1.242037886175e-04  -1.244177833391e-04  -2.623194985472e-05 
5 1  1.324566960312e-04  -1.553086562410e-04  -1.272776465789e-04 
6 1  7.334571562515e-05   1.977314749311e-04   1.487373859008e-04 
7 1 -1.513764769938e-05   6.415537722662e-05  -1.517399286619e-04 
8 1 -2.082182316313e-05   1.145562335734e-04   2.504868838878e-05 
8
Step 2000
1 1  1.535918848221e-04  -4.916112836048e-05  -6.051506317886e-05 
2 1  4.394717294353e-05  -9.895977490911e-05   5.790673311280e-05 
3 1 -6.641316516544e-05  -6.987764439221e-05   9.388210962292e-06 
4 1  4.854087627363e-06  -1.466238032909e-04  -7.560688791556e-05 
5 1  2.640031027377e-05  -1.737090227600e-04  -8.612755155533e-05 
6 1  9.788505802271e-05   1.378598299964e-04   7.667965874475e-05 
7 1  4.718975064825e-05   8.003269939542e-05  -1.041524526455e-04 
8 1  2.796031192687e-05   1.860249135973e-04   2.585231951010e-05 
8
Step 3000
1 1  8.611549731746e-05  -4.593019152418e-05   2.656406944156e-05 
2 1 -4.085364813398e-05   2.190339498237e-05   1.031995791212e-04 
3 1  1.125475678018e-05   6.950677106797e-06   3.207359568211e-05 
4 1 -1.217499915442e-04  -1.027023430873e-04  -9.950247153030e-05 
5 1 -8.884075006743e-05  -1.206904081248e-04  -8.210110344398e-06 
6 1  7.673591351957e-05   1.166369814486e-05  -1.802108463922e-05 
7 1  7.926191207255e-05   6.923299027822e-05  -6.271880796031e-06 
8 1  7.192576784735e-05   1.727659106815e-04   2.857070060464e-05 
8
Step 4000
1 1 -1.218363736226e-05  -3.554998848620e-05   9.058208649818e-05 
2 1 -1.049555111535e-04   1.215819503701e-04   1.137465906046e-04 
3 1  8.688617376844e-05   7.100523088620e-05   4.665260160981e-05 
4 1 -1.935856400498e-04  -1.540498093125e-05  -9.982202520162e-05 
5 1 -1.515475335694e-04  -2.260562856288e-05   7.274538273200e-05 
6 1  1.712300566880e-05  -1.180174199320e-04  -8.409889224797e-05 
7 1  7.503025400827e-05   2.782826680925e-05   8.925624955972e-05 
8 1  8.925185301481e-05   8.223541302798e-05   2.548586525218e-05 
8
Step 5000
1 1 -9.291119153352e-05  -1.771895428474e-05   1.024450658663e-04 
2 1 -1.156243971793e-04   1.506984301410e-04   8.429761035567e-05 
3 1  1.304878659986e-04   9.405708504930e-05   4.845852126448e-05 
4 1 -1.776228946831e-04   7.294419211030e-05  -8.446395395410e-05 
5 1 -1.324167919537e-04   7.542119132069e-05   1.213793821635e-04 
6 1 -5.525998786112e-05  -1.904759115963e-04  -9.277035083628e-05 
7 1  4.546908675047e-05  -3.152539999820e-05   1.344710902033e-04 
8 1  7.149433703345e-05  -3.809361398336e-05   1.016559694208e-05 
8
Step 6000
1 1 -1.236610934575e-04   7.735988964491e-06   6.327885706434e-05 
2 1 -7.052137589827e-05   1.028011576313e-04   2.556729372375e-05 
3 1  1.268866136218e-04   7.134875736699e-05   3.640393575768e-05 
4 1 -8.404097714236e-05   1.235439917550e-04  -6.001459626111e-05 
5 1 -4.643816129362e-05   1.332310136461e-04   1.190643067908e-04 
6 1 -1.093795855088e-04  -1.763486960486e-04  -4.968080859979e-05 
7 1  9.964635885430e-06  -8.601333111473e-05   1.102902998226e-04 
8 1  2.651084483819e-05  -1.295233219700e-04  -1.703631076875e-05 
8
Step 7000
1 1 -1.001216271124e-04   3.786926194231e-05  -1.557355709274e-06 
2 1  4.953575837299e-06   1.115508551440e-05  -3.971465309094e-05 
3 1  8.031165465555e-05   1.898460533325e-05   1.398953944640e-05 
4 1  4.365273542291e-05   1.167560396441e-04  -2.822063569524e-05 
5 1  5.998499348473e-05   1.312800759372e-04   7.012244536577e-05 
6 1 -1.219890581156e-04  -8.548429198564e-05   1.390204255455e-05 
7 1 -1.451027028135e-05  -1.124412756154e-04   3.113181577566e-05 
8 1 -2.696082461730e-05  -1.508732133220e-04  -4.720394473315e-05 
8
Step 8000
1 1 -4.195093869671e-05   6.508744155065e-05  -5.782204042394e-05 
2 1  7.135606461656e-05  -7.309084062764e-05  -8.439321310092e-05 
3 1  1.078059346111e-05  -3.484385099198e-05  -1.050020993336e-05 
4 1  1.487768822252e-04   5.846070533371e-05   1.145441200990e-05 
5 1  1.330427006472e-04   7.659018235164e-05  -1.280345646008e-06 
6 1 -8.626580567702e-05   3.858890263477e-05   5.834977937683e-05 
7 1 -2.031145969386e-05  -9.683480069959e-05  -6.365768204365e-05 
8 1 -6.703931896640e-05  -9.638506092156e-05  -6.620621694566e-05 
8
Step 9000
1 1  2.050154502268e-05   7.868751927071e-05  -7.910368841885e-05 
2 1  9.600035886288e-05  -1.090262573500e-04  -9.065764002071e-05 
3 1 -5.510123994561e-05  -6.525220306813e-05  -2.764137145040e-05 
4 1  1.867835453769e-04  -2.322050383068e-05   5.628285026287e-05 
5 1  1.383451566636e-04  -2.056227678660e-06  -6.278912815184e-05 
6 1 -1.443624064717e-05   1.399610513494e-04   5.797375208291e-05 
7 1 -1.077894652102e-05  -4.242860113541e-05  -1.288064333164e-04 
8 1 -7.814459457413e-05   2.323908965328e-06  -6.221886015298e-05 
8
Step 10000
1 1  6.120917223132e-05   6.885653820291e-05  -5.819904978938e-05 
2 1  7.009321974216e-05  -8.481060951443e-05  -5.921375829746e-05 
3 1 -9.477863954447e-05  -6.225297472047e-05  -3.177728284646e-05 
4 1  1.446489089291e-04  -9.163380813585e-05   9.710645062846e-05 
5 1  7.659542314228e-05  -6.868734454844e-05  -8.942859766167e-05 
6 1  6.723876892236e-05   1.762930018755e-04   1.416140897702e-05 
7 1  3.489874439027e-06   3.046649395935e-05  -1.346077676877e-04 
8 1 -5.752499001580e-05   9.361804221585e-05  -3.267540786949e-05 
8
Step 11000
1 1  6.916122717666e-05   3.281795547964e-05  -9.468774461813e-06 
2 1  1.152328674899e-05  -2.037115705517e-05  -6.779149736235e-06 
3 1 -9.783819598729e-05  -3.258360164203e-05  -2.354925830816e-05 
4 1  4.421914122284e-05  -1.177762368410e-04   1.198100529254e-04 
5 1 -1.941565176511e-05  -9.616057057748e-05  -7.402732412156e-05 
6 1  1.281467792966e-04   1.352156468272e-04  -4.746810618473e-05 
7 1  1.137187891668e-05   9.284767025784e-05  -7.928299187516e-05 
8 1 -1.573602490826e-05   1.315021449151e-04   1.319336702965e-05 
8
Step 12000
1 1  5.083854504708e-05  -2.082709520442e-05   3.985483960753e-05 
2 1 -4.600338325560e-05   4.454397460168e-05   4.158355754439e-05 
3 1 -6.902668693063e-05   5.756078851973e-06  -9.496966020872e-06 
4 1 -6.907794920308e-05  -9.213528872390e-05   1.108736698226e-04 
5 1 -1.021159601388e-04  -7.737186407842e-05  -2.910482952744e-05 
6 1  1.447730044972e-04   3.905723389801e-05  -9.033885321048e-05 
7 1  7.007532915736e-06   1.189633318985e-04   1.132874042301e-05 
8 1  2.813782103315e-05   9.752810643711e-05   5.728883968236e-05 
8
Step 13000
1 1  2.307512554683e-05  -7.380172058194e-05   6.509133030093e-05 
2 1 -7.097200026377e-05   7.382004277257e-05   6.303511612180e-05 
3 1 -2.502009846022e-05   3.322791221408e-05   1.596112984158e-06 
4 1 -1.470715899432e-04  -2.796349341675e-05   6.529529103454e-05 
5 1 -1.328987447553e-04  -2.709884474983e-05   2.025478445578e-05 
6 1  1.099395423153e-04  -6.608136477477e-05  -8.623689704287e-05 
7 1 -7.593480813764e-06   9.800292674870e-05   9.596657850679e-05 
8 1  5.531788059474e-05   1.017818786920e-05   8.079196665256e-05 
8
Step 14000
1 1  1.427663014357e-06  -1.052046747780e-04   5.600396844144e-05 
2 1 -5.142432598151e-05   5.542917193322e-05   4.921739060965e-05 
3 1  1.465845670014e-05   3.919790722613e-05   4.127664871922e-06 
4 1 -1.603200878048e-04   4.571074456274e-05  -7.595232528439e-06 
5 1 -1.008192752049e-04   2.673487713228e-05   4.957407459502e-05 
6 1  3.571069956380e-05  -1.335253559987e-04  -3.180978286390e-05 
7 1 -2.425425191349e-05   3.962091464465e-05   1.375104066618e-04 
8 1  5.587492711421e-05  -8.477881271654e-05   7.318601330839e-05 
8
Step 15000
1 1 -7.829333808213e-06  -1.002776410714e-04   2.005280735649e-05 
2 1 -1.218463139563e-06   5.279738687458e-06   1.063980363886e-05 
3 1  3.682089806716e-05   2.630987028720e-05  -1.257319877096e-06 
4 1 -1.094754347106e-04   9.766674887270e-05  -8.523984158928e-05 
5 1 -2.616626827278e-05   5.731346032472e-05   4.701884061870e-05 
6 1 -5.154988542169e-05  -1.370244518563e-04   4.922924415620e-05 
7 1 -3.336511447549e-05  -3.063214763473e-05   1.198330399927e-04 
8 1  3.239467255758e-05  -1.381036491053e-04   3.732355947054e-05 
8
Step 16000
1 1 -8.823083737005e-06  -5.829972174927e-05  -2.219068513813e-05 
2 1  4.861144207454e-05  -4.367992873742e-05  -3.052378427070e-05 
3 1  3.929899890510e-05   7.101491699204e-06  -8.326214135996e-06 
4 1 -2.212238310556e-05   1.077534786498e-04  -1.400017338704e-04 
5 1  5.187321106851e-05   5.183586375675e-05   1.823485352238e-05 
6 1 -1.212568591847e-04  -8.105234289183e-05   1.180053744296e-04 
7 1 -2.905364246933e-05  -8.308367835577e-05   5.398031918148e-05 
8 1 -2.230013957069e-06  -1.217195748609e-04  -1.169295162357e-05 
8
Step 17000
1 1 -1.108717019399e-05   5.665067062041e-06  -4.888073491833e-05 
2 1  6.761322873308e-05  -6.028791550685e-05  -5.198041004008e-05 
3 1  2.984706442819e-05  -5.500061917852e-06  -8.857227755627e-06 
4 1  6.224794986396e-05   7.465944222381e-05  -1.503434707045e-04 
5 1  9.627847909645e-05   1.695088903538e-05  -1.790659087317e-05 
6 1 -1.497138455248e-04   3.030386595076e-06   1.391443409435e-04 
7 1 -1.219308260045e-05  -9.721038681715e-05  -2.855380649331e-05 
8 1 -3.134581460583e-05  -4.231764361216e-05  -5.324112054833e-05 
8
Step 18000
1 1 -2.102573970179e-05   6.679782958253e-05  -4.904965094216e-05 
2 1  4.256152502107e-05  -3.386657462604e-05  -4.178757151804e-05 
3 1  2.056249637164e-05  -6.058118442137e-06   2.064199030044e-06 
4 1  1.109548720629e-04   1.446993790145e-05  -1.102875760515e-04 
5 1  9.025645016364e-05  -2.604085742732e-05  -4.001702092027e-05 
6 1 -1.281798728223e-04   7.407111377133e-05   9.826097604666e-05 
7 1  1.015807976837e-05  -7.037691246241e-05  -9.142712076453e-05 
8 1 -4.247222131905e-05   6.229305342160e-05  -7.046663456369e-05 
8
Step 19000
1 1 -3.601020381014e-05   1.007226903932e-04  -2.633818121084e-05 
2 1 -1.454318477041e-05   1.904961424799e-05  -4.725386847992e-06 
3 1  2.009209483193e-05   1.883088540790e-06   2.187251528911e-05 
4 1  1.107595304983e-04  -4.780112775292e-05  -3.309474097222e-05 
5 1  4.338611345705e-05  -5.270508749389e-05  -3.551342422562e-05 
6 1 -6.517929824621e-05   1.013370531017e-04   9.992785777222e-06 
7 1  2.843083344625e-05  -1.798097809618e-05  -1.099131589499e-04 
8 1 -3.241787409675e-05   1.418331604057e-04  -5.777059053656e-05 
8
Step 20000
1 1 -4.549745673222e-05   9.402055583125e-05   4.890541177520e-06 
2 1 -7.193965744329e-05   6.516612414848e-05   3.967855689792e-05 
3 1  2.772245892980e-05   8.408074558359e-06   4.066794502330e-05 
4 1  7.028710709647e-05  -8.869278857316e-05   5.308546622622e-05 
5 1 -1.556329570524e-05  -4.735274850989e-05  -6.824897221680e-06 
6 1  1.716166554278e-05   7.738788452199e-05  -8.790533763295e-05 
7 1  3.551519829038e-05   3.478171546659e-05  -8.093876509815e-05 
8 1 -7.529625205366e-06   1.579520438969e-04  -2.306405488530e-05 
8
Step 21000
1 1 -3.799239356392e-05   5.111944513455e-05   2.754712306214e-05 
2 1 -9.547085955138e-05   7.412129148595e-05   6.773094254810e-05 
3 1  3.393464098681e-05   3.717569312957e-06   4.627389029146e-05 
4 1  1.298098422853e-05  -9.496929717766e-05   1.167680527409e-04 
5 1 -5.491739952413e-05  -1.126709023148e-05   3.000293872102e-05 
6 1  9.105634013910e-05   1.975811337823e-05  -1.519953922075e-04 
7 1  3.008156221498e-05   6.480330271312e-05  -2.275860318019e-05 
8 1  1.991571226667e-05   1.026588601528e-04   1.647416196902e-05 
8
Step 22000
1 1 -9.271469100567e-06  -7.753184563568e-06   3.157293248832e-05 
2 1 -6.752505203827e-05   3.591410619741e-05   6.332654769928e-05 
3 1  2.664169333683e-05  -1.348122136273e-05   3.077282253322e-05 
4 1 -3.561472332004e-05  -6.746835798529e-05   1.365712630521e-04 
5 1 -5.727492595547e-05   3.754803141547e-05   5.413399367456e-05 
6 1  1.326582311079e-04  -3.927601183478e-05  -1.533067614842e-04 
7 1  1.652434347128e-05   6.116352305313e-05   3.529828700448e-05 
8 1  3.748757117391e-05   1.400403880570e-06   4.300063720818e-05 
8
Step 23000
1 1  3.246000983439e-05  -5.604855686182e-05   1.911545377754e-05 
2 1  2.832361952900e-06  -3.186528808517e-05   2.611613826293e-05 
3 1 -6.826942126551e-07  -3.380556079424e-05  -4.434902840515e-06 
4 1 -5.964224881146e-05  -1.897446289614e-05   1.093698443318e-04 
5 1 -2.731094908050e-05   7.343802641658e-05   5.109340805803e-05 
6 1  1.298860371073e-04  -6.979832811248e-05  -9.057143893289e-05 
7 1  2.013015377747e-06   2.920424483751e-05   6.731951332338e-05 
8 1  3.778509402097e-05  -9.979946054444e-05   4.623511444477e-05 
8
Step 24000
1 1  6.870226649365e-05  -7.289300971970e-05   1.285140286415e-06 
2 1  8.240963041051e-05  -9.164812236670e-05  -2.747261562224e-05 
3 1 -4.319190596405e-05  -4.358537890625e-05  -4.704105305477e-05 
4 1 -5.724581193004e-05   3.216983333663e-05   5.019332443365e-05 
5 1  1.300512036326e-05   7.589951491786e-05   2.055110732451e-05 
6 1  8.588926877103e-05  -5.883242627870e-05   9.044403974345e-06 
7 1 -7.680164135707e-06  -1.303455121611e-05   6.241022859376e-05 
8 1  2.106632617713e-05  -1.563001083170e-04   2.782636491635e-05 
8
Step 25000
1 1  7.990675433152e-05  -5.309377586612e-05  -9.617549597260e-06 
2 1  1.297651089378e-04  -1.067540671124e-04  -7.223227859166e-05 
3 1 -8.439171635581e-05  -3.248810389378e-05  -7.802233094697e-05 
4 1 -3.751609763996e-05   6.908708246330e-05  -1.525045016448e-05 
5 1  3.794471628570e-05   3.980333612144e-05  -2.329218846222e-05 
6 1  1.752383878403e-05  -1.547553092556e-05   1.022988163689e-04 
7 1 -1.132519183674e-05  -4.414359766052e-05   2.835284603402e-05 
8 1 -5.589272377343e-06  -1.455848292735e-04  -2.644879169808e-07 
8
Step 26000
1 1  5.642512957521e-05  -9.729868279761e-06  -7.438969202511e-06 
2 1  1.169552418385e-04  -6.282585851299e-05  -8.685904500010e-05 
3 1 -1.028116536639e-04   2.816453031007e-07  -8.064088898674e-05 
4 1 -1.353964753861e-05   8.159900453382e-05  -6.230555466714e-05 
5 1  3.263144327968e-05  -2.118837243064e-05  -5.885841654751e-05 
6 1 -5.096707523156e-05   3.509816940676e-05   1.496980744486e-04 
7 1 -1.212151154178e-05  -4.949449311722e-05  -1.393326491957e-05 
8 1 -3.149644885652e-05  -7.650172699867e-05  -2.271268192788e-05 
8
Step 27000
1 1  4.952164225754e-06   3.281650364721e-05   4.058861565008e-06 
2 1  4.465894645351e-05   2.295576676758e-05  -6.375648612975e-05 
3 1 -8.260752907579e-05   4.235160613822e-05  -4.899230592192e-05 
4 1  4.593074215103e-06   6.816125859010e-05  -7.801622412454e-05 
5 1  1.569312579790e-06  -8.002765838608e-05  -6.806217282906e-05 
6 1 -9.685368514496e-05   6.506669285120e-05   1.328552672952e-04 
7 1 -1.461600509779e-05  -2.732907123434e-05  -4.156987713583e-05 
8 1 -4.655369560825e-05   1.697288482827e-05  -2.881437568219e-05 
8
Step 28000
1 1 -5.250301554517e-05   5.103137031066e-05   1.373263057626e-05 
2 1 -5.629590062624e-05   1.082841492386e-04  -1.280983818913e-05 
3 1 -2.323858299907e-05   7.281173636531e-05   8.061979999634e-06 
4 1  1.385692123242e-05   3.499943908224e-05  -6.538301994645e-05 
5 1 -3.434762096033e-05  -1.084615409471e-04  -4.558241153456e-05 
6 1 -1.068745979755e-04   5.816876205487e-05   6.210526614940e-05 
7 1 -2.092906059711e-05   1.088375845721e-05  -4.098717401490e-05 
8 1 -4.475575909901e-05   9.306007773233e-05  -1.752217126370e-05 
8
Step 29000
1 1 -8.864255154131e-05   3.424680542872e-05   1.088234501530e-05 
2 1 -1.381430052088e-04   1.460333553971e-04   4.259686897533e-05 
3 1  5.674570998853e-05   7.391734173373e-05   6.902578261420e-05 
4 1  1.697272815878e-05  -6.612369522489e-06  -3.892306351816e-05 
5 1 -5.051763606861e-05  -9.051933011375e-05  -1.947125714884e-06 
6 1 -8.138557199911e-05   1.787032543277e-05  -2.878003625339e-05 
7 1 -2.811370283928e-05   4.611282906257e-05  -1.417917353749e-05 
8 1 -2.602139853303e-05   1.223083866125e-04   2.533118640332e-06 
8
Step 30000
1 1 -8.487088656454e-05  -9.004788715299e-06  -6.915657285177e-06 
2 1 -1.596215820406e-04   1.102432743865e-04   7.737414991640e-05 
3 1  1.260349840782e-04   4.043105221539e-05   1.081019468977e-04 
4 1  1.783105940085e-05  -4.421867586912e-05  -1.525830818814e-05 
5 1 -3.355480288662e-05  -3.077636908261e-05   4.174665566253e-05 
6 1 -3.359158539643e-05  -3.490969375716e-05  -9.910015791350e-05 
7 1 -2.904085971816e-05   6.070513441197e-05   2.324696242985e-05 
8 1  4.017260811342e-06   1.001552479812e-04   1.858247466516e-05 
8
Step 31000
1 1 -4.103510041242e-05  -5.499929395817e-05  -3.110689685588e-05 
2 1 -1.064258397959e-04   1.152672601906e-05   7.700958338450e-05 
3 1  1.535887603821e-04  -1.689776838932e-05   1.064110873792e-04 
4 1  1.796154398260e-05  -6.762438790867e-05  -4.241647719128e-06 
5 1  1.022876851886e-05   4.701942108901e-05   6.452465772772e-05 
6 1  1.643139089333e-05  -7.293429578872e-05  -1.198739073036e-04 
7 1 -1.682742421849e-05   4.619925636292e-05   5.060808270906e-05 
8 1  3.585245025859e-05   4.565082697853e-05   2.133643366764e-05 
8
Step 32000
1 1  2.342015688650e-05  -7.643960704268e-05  -4.601044865938e-05 
2 1  8.645786269566e-07  -1.060190340620e-04   4.381791769569e-05 
3 1  1.221007807632e-04  -7.386149723717e-05   6.063604026556e-05 
4 1  1.581283545553e-05  -7.081538039909e-05  -4.399315073140e-06 
5 1  5.727270237664e-05   1.098155546936e-04   5.569641528877e-05 
6 1  5.032555598849e-05  -7.605499744130e-05  -8.571262915193e-05 
7 1  1.000760699810e-05   6.699385663291e-06   5.223857657566e-05 
8 1  5.879072232880e-05  -1.091885996114e-05   9.827993983115e-06 
8
Step 33000
1 1  7.739535881652e-05  -5.603224281578e-05  -3.767560313492e-05 
2 1  1.140062002677e-04  -1.834921521894e-04  -4.679344210810e-06 
3 1  3.733642852362e-05  -1.029776801839e-04  -1.414920731603e-05 
4 1  8.883273750401e-06  -5.305559515727e-05  -4.959793466205e-06 
5 1  7.896117644677e-05   1.289923575762e-04   2.033936745479e-05 
6 1  5.886344484831e-05  -4.106565423855e-05  -1.625546491489e-05 
7 1  4.427126931228e-05  -4.249255950526e-05   2.492137072582e-05 
8 1  6.385882845252e-05  -4.455134968702e-05  -8.193724101155e-06 
8
Step 34000
1 1  9.340621267040e-05   3.199023333505e-06  -3.399824442909e-06 
2 1  1.786114234562e-04  -1.757782982546e-04  -4.428135940896e-05 
3 1 -7.078869465255e-05  -8.757579564456e-05  -8.937561082302e-05 
4 1 -2.861235186854e-06  -1.950386863847e-05   6.081056152650e-06 
5 1  5.782434013738e-05   9.353796973396e-05  -2.272055692515e-05 
6 1  4.505847406990e-05   1.617005886797e-05   5.350221950063e-05 
7 1  7.090711006216e-05  -8.050699726606e-05  -2.024190789865e-05 
8 1  4.666256916148e-05  -4.793487813923e-05  -2.071741895120e-05 
8
Step 35000
1 1  6.200043565643e-05   7.653576795243e-05   4.390081951421e-05 
2 1  1.609329941380e-04  -7.726336303202e-05  -5.607585732478e-05 
3 1 -1.584225593492e-04  -3.076976105230e-05  -1.340155488043e-04 
4 1 -1.532783930850e-05   1.988497401237e-05   3.280183063010e-05 
5 1 -7.010348338436e-07   1.657681755991e-05  -5.058762882706e-05 
6 1  2.172358910557e-05   6.806076292067e-05   9.000864391871e-05 
7 1  7.385550586243e-05  -8.913614657063e-05  -6.276085226982e-05 
8 1  9.873285218192e-06  -3.250133648377e-05  -1.929082477289e-05 
8
Step 36000
1 1 -2.474681364702e-06   1.283034336859e-04   8.041774908008e-05 
2 1  6.618392668865e-05   7.108597376681e-05  -3.661962916004e-05 
3 1 -1.866715059576e-04   4.422100356540e-05  -1.278073039711e-04 
4 1 -2.177210699903e-05   5.321157135198e-05   6.692334466518e-05 
5 1 -6.852477884410e-05  -6.931705236177e-05  -4.841557246678e-05 
6 1  4.648905527066e-06   8.905712700493e-05   7.706770705563e-05 
7 1  4.567522164395e-05  -6.117220050482e-05  -8.243803611089e-05 
8 1 -3.597641679144e-05  -1.866912311595e-05  -4.816724524768e-06 
8
Step 37000
1 1 -6.737572161954e-05   1.292846847502e-04   8.343154363565e-05 
2 1 -6.106711357700e-05   1.985850389114e-04  -5.168633202159e-07 
3 1 -1.405578175770e-04   1.030643866429e-04  -7.138456336992e-05 
4 1 -1.681817841874e-05   7.030808416163e-05   9.062001934878e-05 
5 1 -1.086911701886e-04  -1.263067180978e-04  -1.780698141145e-05 
6 1  4.010927282962e-06   6.901219619978e-05   2.380036862763e-05 
7 1 -6.740888870852e-06  -4.827310404680e-06  -6.918584650933e-05 
8 1 -7.505915614909e-05  -2.192384097303e-05   1.295099813417e-05 
8
Step 38000
1 1 -9.777463832091e-05   7.244012123530e-05   4.447012030977e-05 
2 1 -1.580374403366e-04   2.389394990648e-04   2.811163300490e-05 
3 1 -3.811472360351e-05   1.166467150071e-04   1.278364925645e-05 
4 1 -8.052485188482e-07   6.616262973035e-05   8.565064795567e-05 
5 1 -9.575833334168e-05  -1.289466823201e-04   2.298405437611e-05 
6 1  1.772786937239e-05   1.885312542988e-05  -3.977392207413e-05 
7 1 -6.345152759408e-05   5.895472720518e-05  -2.786912682883e-05 
8 1 -9.182435015447e-05  -4.173314551464e-05   2.149929137575e-05 
8
Step 39000
1 1 -7.589882480760e-05  -2.128753236081e-05  -2.310923449345e-05 
2 1 -1.763955271147e-04   1.657401603663e-04   3.029448501995e-05 
3 1  7.651477508534e-05   7.671117872248e-05   9.018962707149e-05 
4 1  1.869871580891e-05   4.256542461149e-05   4.457767987275e-05 
5 1 -3.158901393119e-05  -7.686488586435e-05   4.900808148335e-05 
6 1  3.186451416840e-05  -3.519596165845e-05  -7.863982591807e-05 
7 1 -9.973475924387e-05   1.047866988866e-04   2.431788232067e-05 
8 1 -7.721739850651e-05  -6.052762530974e-05   1.368051252002e-05 
8
Step 40000
1 1 -1.198764704574e-05  -1.113518462807e-04  -8.773692377200e-05 
2 1 -1.081325883886e-04   9.464452929457e-06   3.523037671709e-06 
3 1  1.529659474767e-04   1.354075418796e-06   1.298621478034e-04 
4 1  3.001556747132e-05   7.532724664476e-06  -2.199625519309e-05 
5 1  5.324034237046e-05   4.722396459776e-06   4.311556832844e-05 
6 1  2.933072055467e-05  -6.600705013044e-05  -7.145352646324e-05 
7 1 -9.851369288801e-05   1.136232325790e-04   6.621353447930e-05 
8 1 -3.358554534311e-05  -5.533128570130e-05  -6.588034048602e-06 
8
Step 41000
1 1  6.057444440970e-05  -1.580527595571e-04  -1.154069470157e-04 
2 1  8.953732427662e-06  -1.549834989993e-04  -3.565475152499e-05 
3 1  1.592887265138e-04  -7.298146310738e-05   1.187475496545e-04 
4 1  2.378699395553e-05  -2.711096421743e-05  -8.807248089450e-05 
5 1  1.152750037705e-04   7.710977758425e-05   6.498772589230e-06 
6 1  1.233032572328e-06  -6.078076538847e-05  -2.225265470899e-05 
7 1 -5.950482235467e-05   8.172725191616e-05   8.295445860199e-05 
8 1  2.451557029210e-05  -1.437713766514e-05  -2.595105480603e-05 
8
Step 42000
1 1  1.035022092942e-04  -1.430167575013e-04  -8.897344645717e-05 
2 1  1.122504215267e-04  -2.468610439495e-04  -6.079137280249e-05 
3 1  9.856283384365e-05  -1.103408414362e-04   6.637355350032e-05 
4 1 -6.864495583012e-07  -5.023478469179e-05  -1.253312918181e-04 
5 1  1.221293210496e-04   1.078170240566e-04  -4.069785743697e-05 
6 1 -4.607307307728e-05  -2.749144681316e-05   4.198943325159e-05 
7 1  1.017956736134e-06   2.142078655901e-05   7.216031112192e-05 
8 1  7.592169914384e-05   5.249022786191e-05  -3.033812998526e-05 
8
Step 43000
1 1  9.431485022651e-05  -7.625212626831e-05  -1.819926571542e-05 
2 1  1.499627735342e-04  -2.220851699030e-04  -5.222305770502e-05 
3 1  4.961417099587e-06  -9.400789415260e-05  -2.537623630728e-06 
4 1 -3.331621075511e-05  -5.551830092563e-05  -1.174852649316e-04 
5 1  6.982619717458e-05   8.661676608143e-05  -7.058799195717e-05 
6 1 -9.183818725451e-05   1.154604844518e-05   8.688773442881e-05 
7 1  5.780218864226e-05  -4.519663005410e-05   4.220997657374e-05 
8 1  1.014729295882e-04   1.158490744953e-04  -1.406352236810e-05 
8
Step 44000
1 1  3.764662095366e-05   1.126087201511e-05   6.405249313634e-05 
2 1  1.072964677456e-04  -9.392357913132e-05  -9.488007224388e-06 
3 1 -7.585447836975e-05  -3.360336993769e-05  -6.064301522352e-05 
4 1 -5.730286981668e-05  -4.262849256586e-05  -6.776227041713e-05 
5 1 -1.533555728450e-05   2.824588728854e-05  -6.389032620307e-05 
6 1 -1.105999239271e-04   3.368481340423e-05   8.882044416920e-05 
7 1  8.802998126634e-05  -9.439361688658e-05   5.816812275840e-06 
8 1  9.093952332436e-05   1.410631963979e-04   1.639516845627e-05 
8
Step 45000
1 1 -3.758008175183e-05   8.276359050740e-05   1.168960996555e-04 
2 1  1.152105734264e-05   7.480563306795e-05   4.771968667876e-05 
3 1 -1.085340116868e-04   4.075045726240e-05  -8.852607346023e-05 
4 1 -5.754904954609e-05  -1.729407172228e-05   1.485400241999e-06 
5 1 -9.081144506695e-05  -3.679108967989e-05  -2.060796355119e-05 
6 1 -8.664929969991e-05   2.877257747736e-05   4.658012295578e-05 
7 1  8.147945292824e-05  -1.096031566382e-04  -2.578193592567e-05 
8 1  4.731391945374e-05   1.087616688321e-04   4.470719985219e-05 
8
Step 46000
1 1 -9.374316354618e-05   1.130437302359e-04   1.127955744779e-04 
2 1 -8.404253225545e-05   2.029759546270e-04   8.998659467326e-05 
3 1 -8.408482490228e-05   9.307899498330e-05  -8.139530288636e-05 
4 1 -2.939337616222e-05   9.600563849106e-06   5.938815085076e-05 
5 1 -1.206592346147e-04  -7.667001220671e-05   3.962481127461e-05 
6 1 -2.407193257509e-05   3.597520995837e-06  -1.855980964902e-05 
7 1  4.401582741442e-05  -8.759130551565e-05  -4.620070432683e-05 
8 1 -1.324334608725e-05   2.794183053993e-05   5.389824842730e-05 
8
Step 47000
1 1 -1.048149536057e-04   9.939763976778e-05   5.286934706252e-05 
2 1 -1.295623081220e-04   2.319852123673e-04   9.494789649506e-05 
3 1 -2.270119096761e-05   9.929670511770e-05  -4.895198365171e-05 
4 1  1.784638570661e-05   2.720187176239e-05   8.366136006157e-05 
5 1 -9.337188968633e-05  -7.339432119955e-05   8.693087041934e-05 
6 1  5.446707712556e-05  -2.370304541289e-05  -7.480632082598e-05 
7 1 -6.075918992846e-06  -3.820316295822e-05  -5.454174321594e-05 
8 1 -6.812917809386e-05  -6.770026320814e-05   3.642723018549e-05 
8
Step 48000
1 1 -6.825386069954e-05   5.870541980391e-05  -3.372615705635e-05 
2 1 -1.043542182370e-04   1.531320189619e-04   5.908509024129e-05 
3 1  3.917459406252e-05   5.847904637257e-05  -8.242772447664e-06 
4 1  6.465261051971e-05   3.009107066548e-05   7.126124807544e-05 
5 1 -2.529764136051e-05  -3.143066453135e-05   9.628186225672e-05 
6 1  1.176882253180e-04  -3.466628709141e-05  -9.634321934229e-05 
7 1 -4.649276807259e-05   2.039583332559e-05  -5.284772192781e-05 
8 1 -9.736183011793e-05  -1.361072529799e-04  -1.785417951960e-06 
8
Step 49000
1 1 -4.304646581426e-06   1.427493671464e-05  -1.039952357834e-04 
2 1 -2.415712676031e-05   8.128892263799e-06  -1.494750580147e-06 
3 1  6.900938526257e-05  -8.054442076494e-06   2.494025357701e-05 
4 1  8.958417854271e-05   2.005560695583e-05   3.711240626139e-05 
5 1  4.858888166863e-05   2.543881501296e-05   6.079255636322e-05 
6 1  1.392048419984e-04  -2.084257533393e-05  -7.474436698393e-05 
7 1 -6.060415814380e-05   6.810550500761e-05  -4.277487935465e-05 
8 1 -9.068717572780e-05  -1.459291426377e-04  -4.468105324846e-05 
8
Step 50000
1 1  5.503655089840e-05  -1.698351375108e-05  -1.217263371956e-04 
2 1  6.872470880881e-05  -1.326367596290e-04  -6.025048819022e-05 
3 1  5.441870089672e-05  -6.834653619503e-05   4.184713718417e-05 
4 1  7.902891430159e-05   4.746703944574e-06   4.403911844527e-06 
5 1  9.233823547579e-05   6.720362958462e-05  -4.808903371178e-06 
6 1  1.091042594355e-04   1.136142582503e-05  -2.197944680330e-05 
7 1 -4.422357026061e-05   8.956529031413e-05  -2.482611913340e-05 
8 1 -5.037270521892e-05  -9.250946544875e-05  -7.241439606595e-05 
8
Step 51000
1 1  8.315815309606e-05  -3.074208712074e-05  -7.630234972606e-05 
2 1  1.266189099789e-04  -2.043437373488e-04  -9.256540692339e-05 
3 1  8.006370368372e-06  -9.536728436190e-05   4.175901652692e-05 
4 1  3.446570198560e-05  -6.215695262699e-06  -8.960911589296e-06 
5 1  8.731505396656e-05   7.244125464890e-05  -7.150893206681e-05 
6 1  3.866424384612e-05   4.442021846006e-05   3.626183927038e-05 
7 1 -6.867330370774e-06   7.872649395524e-05   9.150527927426e-08 
8 1  9.478950004975e-06  -1.649017200026e-06  -7.049867847556e-05 
8
Step 52000
1 1  7.126125125210e-05  -3.394765738388e-05   1.114778673564e-05 
2 1  1.206480256699e-04  -1.780225939006e-04  -8.702817102395e-05 
3 1 -4.130287423462e-05  -7.908994802135e-05   2.961728972962e-05 
4 1 -2.676596563917e-05  -6.918684939806e-06  -5.713414650219e-07 
5 1  4.046456674163e-05   3.797990400201e-05  -1.089480866005e-04 
6 1 -4.439514238988e-05   5.944868625155e-05   7.353105651796e-05 
7 1  3.214749199120e-05   4.084538676216e-05   2.890783890530e-05 
8 1  6.715664458550e-05   8.288562105962e-05  -3.755606466841e-05 
8
Step 53000
1 1  3.060649506343e-05  -3.776340971850e-05   9.720461454339e-05 
2 1  5.474393938119e-05  -7.186087628113e-05  -5.037622615076e-05 
3 1 -6.486296249322e-05  -2.956495612673e-05   1.313619184063e-05 
4 1 -7.918074331844e-05   1.197084684493e-06   1.612769745358e-05 
5 1 -2.093478591109e-05  -1.918588479700e-05  -9.917226387840e-05 
6 1 -1.073196285746e-04   4.612634739479e-05   7.512187717418e-05 
7 1  5.248266271826e-05  -8.760825178148e-06   5.521138432872e-05 
8 1  1.005560849372e-04   1.209638763244e-04   1.346990024588e-05 
8
Step 54000
1 1 -1.482702182184e-05  -4.667222015669e-05   1.372566758801e-04 
2 1 -3.821803165881e-05   6.032712903531e-05  -2.682220541768e-06 
3 1 -4.957459682920e-05   2.882549408409e-05  -6.544824749069e-07 
4 1 -1.011146507261e-04   1.113037624747e-05   2.111908333833e-05 
5 1 -6.390548819350e-05  -6.966041266026e-05  -4.593209774791e-05 