8
Step 0
1 1  0.000000000000e+00   0.000000000000e+00   0.000000000000e+00 
2 1  0.000000000000e+00   0.000000000000e+00   0.000000000000e+00 
3 1  0.000000000000e+00   0.000000000000e+00   0.000000000000e+00 
4 1  0.000000000000e+00   0.000000000000e+00   0.000000000000e+00 
5 1  0.000000000000e+00   0.000000000000e+00   0.000000000000e+00 
6 1  0.000000000000e+00   0.000000000000e+00   0.000000000000e+00 
7 1  0.000000000000e+00   0.000000000000e+00   0.000000000000e+00 
8 1  0.000000000000e+00   0.000000000000e+00   0.000000000000e+00 
8
Step 1000
1 1 -2.068821832689e-04   9.253034121531e-05  -2.340693698028e-04 
2 1  3.497118851706e-05  -5.988879439492e-05  -9.076672268649e-05 
3 1 -2.900111833523e-04   6.292882354390e-04   1.238361757644e-04 
4 1  1.822044241534e-04  -2.879806620007e-06   3.649618872442e-04 
5 1 -2.338102337604e-04   5.207422400541e-04  -2.277303546030e-04 
6 1 -2.045008056894e-04   1.977038984528e-04  -3.265957506964e-04 
7 1 -2.850563728429e-04   1.884897505895e-04  -1.529482860255e-05 
8 1  1.476425126935e-04  -2.840612200874e-04  -1.117724428294e-04 
8
Step 2000
1 1 -1.540489578365e-04   2.446720398486e-05  -1.848932982831e-04 
2 1 -1.600076799956e-04  -1.926255956809e-05  -1.426374851490e-04 
3 1 -3.864009905771e-04   5.370571905118e-04   2.123375022118e-05 
4 1 -9.001402838064e-07   3.259468754070e-04   4.813929655833e-04 
5 1  4.882851222645e-05   3.842727834176e-04  -4.701772986512e-04 
6 1 -6.855709822747e-05   3.590796298376e-04  -1.562590765365e-04 
7 1  1.063230916231e-04  -4.616466204910e-05  -2.299271199028e-04 
8 1  2.360230295186e-04  -3.646197431663e-04  -1.056937351524e-05 
8
Step 3000
1 1 -9.736652374955e-05  -2.115210928327e-04  -2.232482433286e-04 
2 1 -2.349961587308e-04  -5.094756783759e-05   2.690986770914e-04 
3 1 -2.497362372205e-04   4.512893520538e-04  -8.573259817494e-05 
4 1 -7.623417390797e-05   1.614397963985e-04   4.395551078874e-04 
5 1  1.126589020834e-04   5.416768050678e-04  -3.781482673524e-04 
6 1 -2.885476407754e-04   3.543680987820e-04  -7.920847055130e-05 
7 1 -4.528067566487e-05   1.099326101049e-05  -2.661617064162e-04 
8 1  1.333505514245e-04  -3.530816194606e-04   1.579764157130e-04 
8
Step 4000
1 1 -1.669318465515e-04   1.192516904482e-05  -3.025584904039e-04 
2 1 -4.478863928865e-04  -5.257658511036e-05   4.005187315668e-04 
3 1 -2.876563007203e-05   1.343154981422e-04   5.461387521825e-05 
4 1 -8.423621493939e-05   2.270886091086e-05   5.264042747140e-04 
5 1  5.562358882160e-04   1.042553456862e-04  -4.040058814200e-04 
6 1 -5.522389807428e-04   5.736839549449e-04  -2.571773306634e-04 
7 1 -1.295629464935e-04  -2.069562738251e-04  -3.869019250466e-04 
8 1  4.068297446057e-06  -5.055043954247e-05   2.195048501409e-04 
8
Step 5000
1 1 -3.143793999157e-04   4.186056429491e-05  -8.830880645360e-05 
2 1 -3.233657774594e-04  -3.227882213714e-06   1.944337972095e-04 
3 1 -1.171806789999e-04   1.620880740545e-06  -1.710056465894e-04 
4 1  9.672936490413e-05   1.579873865288e-04   5.721001315038e-04 
5 1  2.288396212255e-04   3.526700568302e-04  -2.974056042359e-04 
6 1 -2.912501291314e-04   3.660825850180e-04   6.099839928963e-05 
7 1 -7.251043565172e-05  -5.321540301924e-05  -2.246529868311e-05 
8 1 -8.021126807551e-05  -5.579811824913e-05   3.049602542903e-04 
8
Step 6000
1 1 -3.723285727655e-04   2.943488757189e-05  -2.192261951912e-04 
2 1 -3.311470406339e-04   5.552604570803e-05   4.086959131847e-04 
3 1  1.758340824293e-04   1.301698281834e-04  -6.977160982616e-05 
4 1 -1.293349835901e-04   1.228182408950e-04   1.412146582830e-04 
5 1  2.295494790588e-04   3.080075977258e-04  -2.433872373439e-04 
6 1 -1.144740345477e-04   7.673159285089e-05   5.458119585220e-05 
7 1  1.062998102508e-04   3.603003685636e-05   1.034662662966e-04 
8 1  1.283604308638e-04  -2.118544116480e-04   3.549653928054e-04 
8
Step 7000
1 1 -1.731557008025e-04  -1.227736512769e-04   1.560331935456e-04 
2 1 -1.698540683827e-04   7.284743288881e-05   1.982628028637e-04 
3 1  4.498730885135e-05   1.859319413849e-04  -6.232895654610e-05 
4 1 -7.311296784520e-05   2.954094067567e-04   4.200172677194e-04 
5 1  7.066319997488e-05   4.769921194238e-04  -2.457402730917e-04 
6 1  1.362492015482e-04  -1.064472458506e-04   2.475706050797e-06 
7 1  2.485801811306e-05  -5.769837844548e-05   9.943854868593e-05 
8 1  1.454452169976e-04  -1.035671592796e-04   4.165121077000e-04 
8
Step 8000
1 1 -2.087349512820e-04  -6.913288200014e-05  -7.020763323426e-05 
2 1 -1.914198619568e-04  -7.820509817664e-05   4.334843893050e-04 
3 1 -4.956351015061e-06   2.319316440239e-04   1.161313290966e-04 
4 1 -1.784008313521e-06  -4.676435811900e-04   1.790290743746e-04 
5 1 -3.968774351829e-06   3.615512422215e-04  -1.511738173997e-04 
6 1 -2.798067551777e-04  -3.326595016891e-04  -2.150884414767e-05 
7 1 -7.328625742848e-05   2.078673872212e-04   1.660201163307e-04 
8 1  3.494783113143e-04  -3.017851011506e-04   2.360658000481e-04 
8
Step 9000
1 1 -3.059579587324e-04   4.172222115668e-07   2.539047415090e-04 
2 1 -1.492294309972e-04  -2.089300110995e-04   6.117466434539e-05 
3 1  6.820036015306e-05   7.924209566099e-05   1.282864466385e-04 
4 1  5.134489691412e-05  -1.872080062111e-04   1.262300856193e-04 
5 1  1.980069976117e-05   3.823794399685e-04   1.316239307641e-04 
6 1 -4.416176679937e-05  -4.699251486861e-05  -4.828307019145e-05 
7 1 -1.441936357613e-04   2.262714291837e-04   3.276826079355e-04 
8 1  2.024483839143e-04  -3.168827981218e-04   3.976635032736e-04 
8
Step 10000
1 1 -2.005904956379e-04  -2.421802290011e-04  -1.036203956781e-05 
2 1 -1.215683825980e-04   1.804436658437e-04   1.451349791728e-04 
3 1  1.179543580495e-04   2.692507169518e-04   1.544351273417e-04 
4 1  6.335017634993e-05  -1.584424949425e-04   5.145747171140e-05 
5 1 -1.716225004121e-04   1.515735169508e-04   2.356165874237e-04 
6 1  1.846433289055e-04  -1.310481876185e-04   2.370154676236e-04 
7 1 -2.195965065513e-04  -6.134535837411e-06   2.086148998379e-04 
8 1  4.898615274430e-04  -4.581814429486e-04   3.444600222902e-04 
8
Step 11000
1 1 -5.809887221276e-05  -2.301634095947e-04   1.675706075467e-04 
2 1  1.578435248883e-05   6.561243584562e-05   2.314825662195e-04 
3 1  2.157497211281e-04   3.035469798812e-04   2.610986028861e-06 
4 1 -1.931674137735e-04   2.345523484612e-04  -1.497930536793e-04 
5 1 -3.140105393826e-05   2.133584376596e-04   4.252131441921e-04 
6 1  6.975181638970e-05  -1.851426127598e-04   1.402181606000e-04 
7 1  1.115308803161e-04  -2.996053889525e-04   1.263474327012e-04 
8 1  4.783698324750e-04  -3.224112093383e-04   5.049806707761e-04 
8
Step 12000
1 1  2.963261670946e-04  -5.273624444080e-04   1.594113028597e-04 
2 1 -1.166580746665e-04   2.766371553734e-04   4.880149569953e-04 
3 1  2.084034270643e-04   2.890959659095e-05  -1.949055122620e-04 
4 1 -3.620111742158e-04   2.252395547345e-04  -2.993568957698e-05 
5 1 -6.142427391187e-06  -4.193770488155e-04   3.354597027371e-04 
6 1  8.447526044268e-05  -6.975119642059e-05   4.393920908203e-05 
7 1  5.905402020312e-05  -5.512557781513e-04   1.035662677649e-04 
8 1  2.851644799186e-04  -9.348155979384e-05   3.502912966813e-04 
8
Step 13000
1 1  2.484359906148e-04  -3.335881012930e-04   2.119070694915e-04 
2 1 -3.545350993172e-05  -1.267427549627e-05   2.833923145783e-04 
3 1  3.066988634650e-04  -1.628704628686e-04  -1.902994472421e-04 
4 1 -4.286280369617e-04   1.820374304450e-04  -1.569696366717e-04 
5 1  2.600193455972e-04  -2.259860026117e-04   4.883974999353e-04 
6 1 -9.657215318004e-05  -3.207356749234e-05   4.666034120417e-04 
7 1  8.279174813377e-05  -3.042230416645e-04  -2.267228723904e-04 
8 1  4.518407106794e-05  -3.504121897434e-06   3.981087687833e-04 
8
Step 14000
1 1  6.396279668040e-05  -1.533635767270e-04   2.449996693993e-04 
2 1 -6.351587014231e-05   1.855973982056e-04   1.884472384064e-05 
3 1  4.293365957663e-04  -5.481107916487e-04  -1.737599510678e-04 
4 1 -3.236779424510e-04   7.969404252056e-05  -2.367041757068e-04 
5 1  2.840367700929e-04  -2.698377265413e-04   4.553799559313e-04 
6 1 -1.580451326027e-04  -1.095947651442e-04   2.051796951512e-04 
7 1  1.441582553845e-04  -4.464799316031e-04   1.853692497456e-04 
8 1 -5.601487253047e-05  -6.812988772029e-05   4.708744588505e-04 
8
Step 15000
1 1  3.774282045290e-04  -5.752779211334e-05  -4.349860932889e-05 
2 1 -1.272066350055e-04   3.666906943259e-04   3.915976904939e-04 
3 1  6.875168603145e-04  -2.310403166233e-04  -1.710865864214e-04 
4 1 -1.004532083186e-04   1.272262646225e-04  -2.461363838401e-04 
5 1 -1.719242107331e-05  -1.813148037855e-04   2.641749394581e-04 
6 1  5.642586368774e-05  -5.666250712805e-06   2.983220995100e-04 
7 1  1.093386879791e-04  -1.666578926222e-04   5.221801759116e-05 
8 1  2.156542364127e-04  -3.645685316714e-04   4.066043850011e-04 
8
Step 16000
1 1  1.423048329815e-04  -5.526816108622e-06   3.294699111732e-04 
2 1  3.121296312651e-04   7.719654653619e-05   1.866068053040e-05 
3 1  4.428671401211e-04  -1.444705785580e-04  -1.553243954406e-05 
4 1 -3.027602651766e-04   1.803072008132e-05  -4.537405457346e-04 
5 1 -2.568328208973e-05  -3.197283073723e-04   2.264103263533e-04 
6 1  2.498253270827e-04  -5.640446657480e-04   1.070384170060e-04 
7 1  1.130983604174e-05  -4.967611151703e-05  -5.610228361387e-06 
8 1  3.338461971866e-05  -3.940839855780e-04   4.208011693572e-04 
8
Step 17000
1 1  2.179840619665e-04  -1.526781114167e-04   1.307697290315e-04 
2 1  2.265822887109e-04  -3.857660431712e-05   1.668168046731e-04 
3 1  3.960295644460e-04  -1.375244362057e-04  -1.310270163474e-04 
4 1 -1.003673019545e-04  -1.391863699626e-04  -5.677773793268e-04 
5 1 -2.821412988509e-04  -2.899006991931e-04   3.412837258707e-04 
6 1  3.870066630490e-04  -4.037749815177e-04  -7.044350149168e-05 
7 1 -1.829590789921e-04   2.247026845760e-04   1.449164175471e-04 
8 1  7.268984905353e-05  -1.895364065551e-04   2.146415570919e-04 
8
Step 18000
1 1  1.485547352219e-05   1.177114145505e-04   1.628634621586e-04 
2 1  3.692145797407e-04  -8.824080480963e-05  -9.949516143986e-05 
3 1  1.020892742008e-04  -3.127014022287e-04  -9.556828886275e-05 
4 1  6.524706421804e-05  -3.534839980527e-04  -3.582420656061e-04 
5 1  8.983834072409e-05  -2.132127860171e-04   5.107040022371e-04 
6 1  1.391268158483e-04  -3.722699199441e-04   5.148643660082e-05 
7 1 -2.710241093212e-04   3.331887312632e-05   6.322418490712e-06 
8 1 -9.342360898532e-05  -6.321076132278e-05   4.842573914939e-06 
8
Step 19000
1 1  8.839040831380e-05   2.231059678908e-04  -9.119789125764e-05 
2 1  2.024321895515e-04   3.180284432142e-04  -9.160328987782e-05 
3 1  4.925957374992e-04  -2.282583672340e-04   8.440381677737e-05 
4 1  9.486389878665e-05  -3.396593869826e-04  -6.265869365887e-04 
5 1 -1.060908273798e-04  -3.040768230145e-04   4.849346108056e-04 
6 1  9.412164539080e-05  -2.643040590066e-04  -1.131122176272e-05 
7 1 -6.412271121953e-05   1.436256181641e-04   6.199031874235e-05 
8 1  1.250327703018e-04  -3.371803898406e-05  -1.028442744690e-04 
8
Step 20000
1 1  2.479697300958e-04   1.698840475633e-04  -9.081082822627e-05 
2 1  1.607663031443e-04   4.042817470829e-04  -5.767658889963e-06 
3 1  1.796526027360e-05  -2.842898428973e-04  -8.660616371869e-05 
4 1 -1.125114624720e-05  -1.552021233678e-04  -4.471409019501e-04 
5 1  1.192488923554e-04  -4.309581265800e-04   4.967464352166e-04 
6 1  1.925581402155e-04  -1.809989111427e-04  -2.270836896311e-05 
7 1  5.366410939870e-05  -2.429022250194e-04  -2.200943835829e-04 
8 1  2.902451943131e-05   6.269821125117e-07  -8.414075193707e-05 
8
Step 21000
1 1  4.014100473561e-04   1.854453151324e-05  -1.596793696018e-04 
2 1  1.119264962766e-04   9.309455268456e-05  -2.001049174685e-04 
3 1  3.763657151136e-04  -2.978494786596e-04   9.019268839545e-05 
4 1 -3.946977329996e-04   1.742030578748e-04  -4.702753930644e-04 
5 1  8.803885500519e-05  -4.822852616112e-04   2.572898934166e-04 
6 1 -2.095747110512e-04   4.945790199873e-05  -2.526643024456e-04 
7 1  3.001434946978e-04  -1.540054382356e-04  -6.164199841691e-05 
8 1  7.613666442408e-05   1.818593607346e-04  -2.366933075154e-04 
8
Step 22000
1 1  1.527807956277e-04   2.031412457200e-04  -1.787542728964e-04 
2 1  5.365401319451e-05  -2.634585237514e-04  -2.376728605151e-04 
3 1  3.120592460084e-04  -5.804672919464e-04  -1.970355634204e-04 
4 1 -3.630370509715e-04   1.598312807476e-04  -4.007922815094e-04 
5 1  1.568283049613e-04  -7.154290426145e-04   6.026051565645e-04 
6 1 -2.430968122867e-04   3.048716690828e-04  -5.214932246104e-05 
7 1 -1.121620344251e-04   1.239825275959e-04  -3.988964093330e-04 
8 1 -1.090949404691e-04   6.723786498960e-05  -9.676743118027e-05 
8
Step 23000
1 1  1.358707387755e-04   2.462167721160e-04  -1.788109474550e-04 
2 1  1.516287855933e-04   8.355595918692e-05  -3.461339187928e-04 
3 1  4.042805340158e-04  -2.758962280764e-04   1.151874731486e-04 
4 1 -2.350171901768e-04   2.009680471016e-04  -3.116498014104e-04 
5 1  7.820778967570e-05  -6.693686911208e-04   3.155948670571e-04 
6 1 -3.144294391279e-04   3.299466897321e-04  -1.046723887768e-04 
7 1 -1.003966404539e-04   2.106307203345e-04  -5.972000240196e-04 
8 1  2.169048809156e-04   1.399154011941e-04  -2.231121574058e-04 
8
Step 24000
1 1  2.073879422442e-04   3.875661265093e-04  -3.526060897550e-05 
2 1  1.042249581509e-05   1.946870678179e-04  -5.401627877802e-04 
3 1 -6.333741237001e-05  -3.865357244536e-04   4.031145273970e-05 
4 1 -7.768391222841e-05   1.487872038903e-04  -2.852086665408e-04 
5 1  6.516521783937e-05  -2.341705409280e-04   4.837802943795e-04 
6 1 -1.244954113245e-04   2.122010667581e-04  -8.005781220128e-05 
7 1  1.527281541352e-04   1.832289385822e-04  -4.111629563672e-04 
8 1  7.419558418664e-05  -9.608446881051e-05  -3.578872167938e-04 
8
Step 25000
1 1 -7.689097331427e-05   2.025737378995e-04  -2.016486868772e-04 
2 1  3.075903364796e-04  -1.737233616617e-04  -5.623695890778e-04 
3 1 -2.156489709247e-04   1.007102367226e-04   7.553954777973e-05 
4 1  1.234965261063e-04   1.093732881385e-04  -3.339303725329e-04 
5 1 -1.197392569540e-04  -3.362029841867e-05   3.522755353820e-04 
6 1  2.514768578295e-04   1.101395106801e-04  -1.752713767526e-05 
7 1 -7.620837286091e-05   2.345871860921e-04  -4.887067172369e-04 
8 1 -3.404314692192e-05  -1.091913162661e-04  -5.278784156304e-04 
8
Step 26000
1 1  4.433422746315e-05   4.878168717772e-05  -4.091265130331e-05 
2 1  8.728222922533e-05  -9.401399118848e-05  -5.204907468397e-04 
3 1 -2.045982608832e-04  -1.096674007864e-04   2.891642976867e-04 
4 1 -1.304889313855e-04   1.352386333183e-05  -4.331651669978e-04 
5 1 -7.420886251467e-05   1.156484427938e-05   4.355388997297e-04 
6 1  2.704261551125e-04   8.465111778193e-05   1.323780002552e-04 
7 1 -3.057204523067e-04   6.507219879804e-04  -4.323544326742e-04 
8 1 -2.362854336745e-04  -1.413056603996e-04  -7.336819034676e-04 
8
Step 27000
1 1 -1.513970956266e-04   2.800672380196e-04  -9.147220403980e-05 
2 1  3.411938055007e-04  -3.433700664421e-04  -5.808436845875e-04 
3 1 -1.561299219837e-04  -1.726819462621e-05   2.682330837767e-04 
4 1  1.282215689744e-04   3.067453289175e-05  -3.797924758265e-04 
5 1 -1.309426531836e-04   1.425758762625e-04   4.822755416853e-04 
6 1  2.240902644903e-05  -2.264496227917e-05  -2.031165846659e-04 
7 1 -2.386839620261e-04   6.364132947417e-04  -3.586964973499e-04 
8 1 -3.916548549109e-04   1.098677636155e-04  -6.373351115454e-04 
8
Step 28000
1 1 -2.183334519230e-05   4.218777717006e-04  -1.539972923677e-04 
2 1 -2.239472402225e-04  -2.564400180022e-04  -4.049562743941e-04 
3 1 -2.534115423658e-04   1.529446576208e-04   3.817063266327e-04 
4 1  1.031844380125e-04   9.858658262342e-05  -3.054074337417e-04 
5 1 -8.869601972198e-05   5.037940947929e-05   3.179965948552e-04 
6 1  3.227855096669e-04   1.805066432004e-04  -1.835832389961e-04 
7 1 -2.847282358054e-04   3.522498331403e-04  -7.656210501650e-05 
8 1 -9.197838424684e-05   2.456268949799e-04  -5.549458634499e-04 
8
Step 29000
1 1  1.568916938198e-04   1.997735227840e-05  -2.213467607616e-04 
2 1 -1.005369737518e-04  -1.277402679604e-04  -3.496543454293e-04 
3 1 -3.648615908339e-04   2.773654250266e-05   2.924171082905e-04 
4 1  1.651175368843e-04   3.980253516007e-04  -3.160277509104e-04 
5 1  2.487307290251e-04  -7.959095128316e-05   4.408957291404e-04 
6 1  2.207809218515e-04   3.610939940660e-04  -1.953099561419e-04 
7 1 -1.848388422043e-04   3.591284807760e-04  -4.434520492297e-04 
8 1 -3.481297243720e-04   3.159388770316e-04  -4.205535575757e-04 
8
Step 30000
1 1 -1.419764237635e-04   1.249242031367e-04  -2.452873124884e-04 
2 1 -1.248827087534e-04  -4.734241208738e-04  -1.030918367925e-04 
3 1 -2.598695810796e-04   7.979250565729e-05   2.117629174481e-04 
4 1 -1.080297149150e-04   2.689539839613e-04  -2.562960636903e-04 
5 1  2.049653954863e-04  -1.431740590734e-05   3.870436407560e-04 
6 1  1.301325790970e-04   3.751774733723e-04  -2.164626865028e-04 
7 1 -2.246167741256e-04   1.350739658232e-04  -2.065018549025e-04 
8 1 -4.223066769112e-04   4.996557346414e-04  -2.515746361847e-04 
8
Step 31000
1 1  4.603871018956e-05  -5.490409543934e-05   1.418724564961e-04 
2 1 -8.718937336443e-06  -2.445228197188e-04  -1.718334307110e-04 
3 1 -3.289509974972e-04  -1.918049176228e-04   1.874551742796e-04 
4 1 -1.650296631455e-04   5.627806430753e-04  -1.846387276640e-04 
5 1  1.638186266901e-04  -4.661336990349e-06   2.016548914878e-04 
6 1 -1.387130839894e-05   3.400033199639e-04  -2.573692396711e-04 
7 1 -1.390972970538e-04  -6.565438336425e-05  -3.177640311816e-04 
8 1 -6.411917329859e-04   5.376191625464e-04  -2.427875340262e-04 
8
Step 32000
1 1 -2.560858272816e-04   5.180027371073e-04  -3.236674008603e-05 
2 1  1.604675265641e-05  -2.639823793572e-04  -7.442848570974e-05 
3 1 -4.806933800472e-04   1.341492775580e-04   3.834795442905e-04 
4 1 -9.177591644955e-05   3.738414798855e-04  -8.134360042035e-05 
5 1  1.771561772797e-04  -1.870543900726e-04   1.009165102893e-04 
6 1  4.726810816040e-05   1.267468437827e-04   1.329492657413e-04 
7 1  4.406102411802e-06   3.092870104773e-04  -4.120151314615e-04 
8 1 -2.586052350401e-04   4.618850370902e-04   7.422866764946e-05 
8
Step 33000
1 1 -1.675510988862e-04   7.906958400079e-05   1.981979890570e-04 
2 1 -2.301863329967e-04  -2.286581779603e-04  -3.560908402151e-04 
3 1 -2.085411760418e-04   8.772973846235e-06   1.493212792363e-04 
4 1  5.306210679338e-05   3.943376239624e-04   7.862706704417e-05 
5 1 -2.310716799242e-05  -6.620812837194e-05   9.482363936212e-05 
6 1  2.373240107185e-04   3.540623268051e-05   7.033159919763e-05 
7 1 -1.790431575288e-04   6.041640391989e-04  -5.110602083931e-05 
8 1 -4.612940261499e-05   1.768768763917e-04  -1.742390705361e-04 
8
Step 34000
1 1 -3.769358960323e-04   1.003450992579e-05   3.552448755542e-04 
2 1  1.977431348602e-05  -2.328580769792e-04  -2.659867538300e-04 
3 1 -5.391501765553e-04   1.191436587607e-04   3.168388018233e-04 
4 1  2.235252709619e-04   2.639591107765e-04   6.233762951743e-05 
5 1 -1.756619724879e-04   1.382110897657e-04  -2.197078546039e-05 
6 1  1.055024964886e-05   1.484804989982e-05   5.553605049173e-05 
7 1  7.558015352775e-05   5.281585313174e-04  -1.466543332080e-05 
8 1  1.567971964627e-04   1.635227591389e-04   6.206576922680e-05 
8
Step 35000
1 1 -4.624742500562e-05   9.598112018371e-06   4.290508048192e-04 
2 1 -1.067875550840e-05  -5.738992973804e-04  -1.017188703741e-04 
3 1 -5.846831066604e-04   2.667045644148e-04   2.700612014073e-04 
4 1  2.433382977397e-04   1.168339792163e-04  -3.891730525127e-05 
5 1 -2.759351610387e-04   6.003818020044e-04   6.169884233218e-05 
6 1  2.563107456294e-04  -3.114348234436e-04   7.110478615755e-05 
7 1 -4.017242793658e-04   3.249702631703e-04   1.156795545702e-04 
8 1 -1.363675741961e-04  -1.994986101742e-04  -1.962818232774e-04 
8
Step 36000
1 1 -1.266037345106e-04   1.116177957461e-04   4.741418485701e-04 
2 1 -9.720159131217e-05   7.618200642321e-05  -6.098551611673e-06 
3 1 -5.622771992958e-04   2.223127159866e-04   3.838363193333e-04 
4 1  2.251624150344e-04   1.800743515778e-05  -5.512602323863e-05 
5 1 -3.382217103501e-04   1.416476249289e-04   7.433479350815e-05 
6 1  1.076018829211e-04  -8.805432742727e-05  -4.176224406471e-05 
7 1 -1.297074353255e-04   2.453935836324e-04   4.375781015906e-04 
8 1  1.037574304770e-04  -1.270430956278e-04  -8.169389837794e-05 
8
Step 37000
1 1  8.842287012049e-05   3.065995380485e-05   3.154215226268e-04 
2 1 -3.407378991285e-04  -2.420837608311e-06  -6.226410729422e-05 
3 1 -3.822847941936e-04   1.888873372326e-04   3.725618749786e-04 
4 1  2.943964032933e-04  -1.432828079792e-05   1.580533228112e-05 
5 1  1.388779907713e-04  -1.372339227384e-04   3.176661304597e-04 
6 1 -8.443815850429e-05   7.900547685464e-05  -9.666917942016e-05 
7 1  2.889486539275e-05   1.634190398274e-05   3.320251876075e-04 
8 1  4.241366925691e-05   1.207265331284e-04   2.781069773501e-05 
8
Step 38000
1 1 -5.671120310846e-05  -3.059587402226e-05   2.375009965674e-04 
2 1 -3.685856717501e-04   8.801286601210e-05  -3.272324873676e-05 
3 1 -1.100002569580e-04   2.431823847994e-05   2.397256437189e-04 
4 1  1.553771342294e-04   1.241906235893e-04   1.155424658734e-04 
5 1 -4.522181661981e-05  -2.155499143083e-04  -4.467408573833e-05 
6 1  1.023393377442e-04   8.850303841470e-05   1.610467551860e-04 
7 1  2.190117486904e-04  -1.473123277258e-04   7.117666816142e-04 
8 1  1.537304761239e-04   3.179631594861e-04   2.997280716109e-05 
8
Step 39000
1 1 -2.518258144913e-04  -2.166188753325e-04   3.507720775585e-04 
2 1 -1.170232276845e-04  -3.038557353832e-04   1.053213568418e-04 
3 1 -4.711826133682e-04   7.174657860253e-05   3.653341440666e-04 
4 1 -5.128468517456e-05   2.997695334657e-04  -5.332310325341e-06 
5 1  4.995001083094e-04  -4.288158969704e-04  -8.303938968712e-05 
6 1  1.261133952410e-05   9.845670184722e-05   1.836862572480e-04 
7 1  1.120204718976e-04  -4.164032767954e-04   2.709351382708e-04 
8 1 -1.048112185563e-04   3.752360838818e-05   1.534159789749e-04 
8
Step 40000
1 1  6.340156177577e-05  -9.652251174102e-06   4.710793138545e-04 
2 1 -3.393957479176e-04   3.089693488129e-05   1.896857017187e-04 
3 1 -2.769167475274e-04  -8.936030972410e-05   2.218661941962e-04 
4 1  1.726525714230e-05   3.074656135848e-04   2.653322699095e-04 
5 1  3.253985323509e-04  -5.577102899298e-05  -2.717002239574e-04 
6 1  2.281057194409e-05  -1.271444160835e-04   9.444525906949e-05 
7 1  2.352265250260e-04  -2.943767092660e-04   4.141581785536e-04 
8 1 -1.175942058005e-04  -1.152535038565e-04   1.797119323025e-04 
8
Step 41000
1 1 -2.629377891585e-04  -5.159092101768e-05   3.908754029923e-04 
2 1  5.597320822080e-05  -1.896711773023e-04   9.803927405947e-05 
3 1 -1.350820545106e-04  -1.765305054221e-04   7.177287240417e-05 
4 1  5.834336199694e-05   1.008646619220e-04   2.561369073524e-04 
5 1  1.776414170170e-04   7.763770246079e-05  -3.850935966213e-04 
6 1  1.218597231209e-04   1.036797594361e-04   1.556105395786e-04 
7 1  1.505404692285e-04  -2.907633784902e-04   4.248572812152e-04 
8 1 -5.941309814580e-05  -4.790837759236e-04   4.792905544559e-04 
8
Step 42000
1 1 -1.336068243479e-04   8.226383248475e-05   3.473525360146e-04 
2 1 -1.987750875040e-04   3.893632222528e-05   1.136394977584e-04 
3 1  4.186485543488e-05  -9.239512683402e-05   5.077391899613e-05 
4 1  1.455570148103e-04  -2.648496693899e-04  -9.650016669703e-05 
5 1  1.844369457457e-04   1.655537742085e-04  -1.947583028309e-04 
6 1  4.401613131294e-04  -1.620102569300e-04   1.010099031327e-04 
7 1  1.763549749787e-04   1.692256895959e-04   3.980463323991e-04 
8 1  1.882180422181e-04  -4.351414529053e-04   5.839616343856e-04 
8
Step 43000
1 1  1.938543718105e-05  -4.848192528730e-05   4.356324171592e-04 
2 1 -9.083864675948e-05  -2.757920111147e-04   9.253011254065e-05 
3 1 -7.660143345227e-05  -2.919688223685e-05  -2.461016694724e-04 
4 1  1.857727468717e-04  -5.626710632451e-04   1.480539400592e-04 
5 1 -1.816016938110e-04   1.013920093386e-04  -3.953430004327e-04 
6 1  3.471435055970e-04  -2.349392566957e-04  -1.974535420438e-04 
7 1  2.756334452145e-04   1.507365509879e-04   7.708495321031e-04 
8 1  5.857835858760e-05  -5.258234292490e-04   4.783484510697e-04 
8
Step 44000
1 1  1.135375810541e-04  -1.743739127473e-05   2.804316208923e-04 
2 1 -1.231040863054e-04  -2.569746200750e-04   1.533501700923e-04 
3 1 -1.790760303148e-04   1.156615400709e-04   1.028821871974e-04 
4 1  3.934930811515e-04  -2.792805640505e-04  -5.990238424865e-05 
5 1 -2.010228942149e-04   9.384016987144e-05  -2.168297861100e-04 
6 1  1.984777047713e-04  -4.709172247812e-04  -3.796580044147e-04 
7 1  1.570670368462e-05  -5.261181275221e-05   5.329110048668e-04 
8 1  2.245220161935e-04  -3.845168051849e-04   3.765113707867e-04 
8
Step 45000
1 1  1.906898690016e-04  -7.200655880555e-05   3.814467015167e-04 
2 1 -1.586034888113e-04  -4.184121732140e-05   1.108149889484e-04 
3 1  1.730899959974e-04   4.093827860177e-05   1.144732212353e-04 
4 1  3.985672152129e-04  -4.307690973619e-04  -1.126965761347e-04 
5 1 -3.242413223064e-04  -2.218915998134e-05  -3.099906806870e-04 
6 1  9.787810971528e-05  -3.993148485014e-04  -1.043311333078e-04 
7 1  2.207597954166e-05  -1.027197527244e-04   6.289786356755e-04 
8 1  9.638490368930e-05  -3.472191457983e-04   3.339264721913e-05 
8
Step 46000
1 1  1.857032351443e-04   1.924877410215e-04  -4.653329301089e-05 
2 1 -1.538141555445e-04  -8.103100904452e-06   3.290018075639e-04 
3 1  2.790923941248e-04  -6.090564259717e-05  -3.069085966293e-04 
4 1  5.285461538113e-04  -4.431671310551e-04  -1.728262135782e-04 
5 1  6.056975275679e-05  -1.678928404927e-04  -3.821909347407e-04 
6 1  9.152621910931e-06  -6.482814330489e-05  -8.905706529553e-06 
7 1  1.497212866525e-04  -2.289715685908e-04   6.979256022295e-04 
8 1  2.169800980086e-04   8.826898474207e-05   1.379787251123e-04 
8
Step 47000
1 1  1.863686211695e-04  -9.631439185926e-05   1.453721833364e-04 
2 1 -2.878947087633e-04   3.472302263751e-04   6.812229829516e-05 
3 1  3.274793734313e-04  -4.031387568768e-04  -3.232462368518e-04 
4 1  3.155479635992e-04  -5.393555139686e-04  -1.418422615360e-04 
5 1 -1.625958285642e-04  -4.977964430944e-04  -4.617289480465e-04 
6 1 -1.459899294848e-04  -2.210593335523e-04   1.656127700513e-04 
7 1  3.321541190015e-04  -4.032245160717e-05   4.965925276410e-04 
8 1  2.960598507305e-04   5.176235646976e-05   3.667023608523e-05 
8
Step 48000
1 1  2.650593767707e-04  -9.367030722470e-05  -1.051491246103e-04 
2 1  1.515590023947e-05   2.683466469748e-04   1.231333928301e-04 
3 1  4.069406037962e-04  -1.184374283309e-04  -8.821381889606e-05 
4 1  3.357481096446e-05  -1.740570705723e-04   1.358314873165e-04 
5 1  2.135816064551e-04  -4.480659128153e-04  -4.280384961003e-04 
6 1 -2.596961549678e-04  -1.617832728945e-04  -9.092024296467e-05 
7 1  2.502463018809e-04  -3.241463561609e-04   7.446289392914e-05 
8 1 -3.991116489450e-05   4.432822837206e-05  -1.666475081937e-04 
8
Step 49000
1 1  1.055122231086e-04  -1.442527160197e-04  -1.820659852762e-04 
2 1  2.340915130618e-04   2.751695954040e-04   2.022220720085e-04 
3 1  4.578933847209e-04  -3.001160997372e-04   2.890650245768e-05 
4 1 -1.388926537008e-04   1.351095309821e-04  -2.092997535647e-04 
5 1 -9.360593883569e-05  -3.359720200869e-04  -4.512500637030e-04 
6 1 -3.618818024695e-04  -3.836825328716e-04   7.984883238447e-05 
7 1 -5.347537859437e-05  -3.904773920120e-04   1.327301957515e-04 
8 1  1.982924922239e-04   3.569794320727e-05  -1.131030899865e-04 
8
Step 50000
1 1 -2.384270778639e-05  -1.421461072728e-05  -2.371416341430e-04 
2 1  3.315488486804e-04   1.927097900472e-04  -5.065526283316e-05 
3 1  5.809563363991e-04   9.542445799112e-05  -8.089667851767e-05 
4 1 -4.871554905921e-05  -2.193552070076e-04  -8.528316561674e-07 
5 1 -8.311186450120e-05   4.305920947366e-05  -4.325148573014e-04 
6 1  1.284872040197e-05  -2.957256928842e-04   1.138077730870e-04 
7 1  2.387626719655e-04   3.913924073039e-06   5.134202527348e-06 
8 1 -8.213016678403e-05  -1.246610899973e-04  -3.619575792177e-04 
8
Step 51000
1 1  3.555878339762e-04   1.495576395523e-04  -3.298017338603e-04 
2 1  9.024674482603e-05  -3.560461016324e-05  -7.594100089132e-05 
3 1  3.796410808886e-04  -2.336091032820e-04  -1.530025506971e-04 
4 1  9.547613010204e-05  -4.357115906298e-04   1.164127574832e-04 
5 1 -1.329811451374e-04   4.919812415736e-04  -2.155292419433e-04 
6 1 -3.104741619624e-05  -2.321407456864e-04  -1.624593903836e-04 
7 1  3.970962225475e-05   7.641346269570e-05  -7.090731043699e-05 
8 1  6.012522936074e-05  -3.927244722903e-05  -1.390732986883e-04 
8
Step 52000
1 1  4.650325170639e-04  -1.785861510195e-04  -2.850127274339e-04 
2 1  2.480421263831e-04   7.215409120434e-05  -2.512798089923e-04 
3 1  1.500604227850e-04   2.132185971154e-04  -2.949221377961e-04 
4 1  1.806432905952e-04  -4.667658093514e-04   1.330043032044e-04 
5 1 -3.546139186668e-04   5.030946745545e-04  -1.090392207295e-04 
6 1 -7.100142369717e-05  -1.792757139883e-04  -4.386093890933e-04 
7 1 -1.225967035689e-04   1.285332985345e-04  -2.698938371337e-04 
8 1  6.334273248110e-05  -3.639782911381e-04  -1.109049248475e-04 
8
Step 53000
1 1  5.007399072980e-04   1.510655412386e-05  -2.664125535248e-04 
2 1  5.925234890731e-05   5.749274004340e-05   1.647745342964e-04 
3 1  1.259339194236e-04   2.214510324489e-04  -3.770878271283e-04 
4 1  1.332203921060e-04  -3.081651919009e-04   1.484008244502e-04 
5 1 -5.327854795744e-04   4.346899716291e-04  -2.365628162747e-04 
6 1 -3.637938052247e-04  -3.575168189181e-04  -7.319893853023e-04 
7 1 -8.402785539241e-05   6.237021403690e-05   7.920883538076e-05 
8 1  9.651590017400e-06  -2.732284405625e-04  -9.458987936718e-05 
8
Step 54000
1 1  2.753925042676e-04   6.951640995642e-05  -3.658572333257e-04 
2 1  5.241920232393e-05   3.432436648345e-04   4.865380270516e-06 
3 1  2.058299596354e-04   1.308703151274e-04  -2.953367771520e-04 
4 1  1.856269676371e-04  -1.834354950038e-05  -1.591852305432e-04 
5 1 -4.826919229899e-04   4.513383120493e-04  -3.015375735145e-04 