8
Step 0
1 1  0.000000000000e+00   0.000000000000e+00   0.000000000000e+00 
2 1  0.000000000000e+00   0.000000000000e+00   0.000000000000e+00 
3 1  0.000000000000e+00   0.000000000000e+00   0.000000000000e+00 
4 1  0.000000000000e+00   0.000000000000e+00   0.000000000000e+00 
5 1  0.000000000000e+00   0.000000000000e+00   0.000000000000e+00 
6 1  0.000000000000e+00   0.000000000000e+00   0.000000000000e+00 
7 1  0.000000000000e+00   0.000000000000e+00   0.000000000000e+00 
8 1  0.000000000000e+00   0.000000000000e+00   0.000000000000e+00 
8
Step 1000
1 1  1.345676473008e-04  -5.633311220076e-05  -4.706873334042e-09 
2 1  2.779936168846e-04  -3.053303754535e-04  -2.657351908357e-04 
3 1 -1.410433997497e-04   9.922989745594e-05   4.877338928604e-05 
4 1  8.235562251102e-05   7.172899795602e-05  -2.084036511337e-04 
5 1  1.249722426918e-04   1.063365141604e-04   7.643067764086e-05 
6 1 -7.508523519964e-05  -6.458196009713e-05   2.573716758672e-04 
7 1 -7.970289530574e-06  -1.371751077323e-04  -1.895683357228e-05 
8 1 -4.142992342649e-05  -4.067158967309e-04  -2.382454483226e-04 
8
Step 2000
1 1  2.180765565560e-04   4.097336577186e-05  -2.569200277273e-04 
2 1  1.563671839802e-04  -3.321406220389e-04  -4.382260113881e-05 
3 1 -1.731894372434e-04  -1.836031224870e-04   1.203215981664e-04 
4 1  2.124917532448e-04  -1.230249156166e-04  -6.889472501976e-05 
5 1  3.905792094127e-04  -9.632388890465e-05  -6.077595781440e-05 
6 1  1.890666597279e-04   4.334691951291e-04   1.449556447404e-04 
7 1 -4.893311879571e-05  -2.362953878200e-06  -2.734522302211e-04 
8 1 -3.776124198685e-05  -3.807193896313e-05  -1.887601451774e-05 
8
Step 3000
1 1 -3.426760776946e-05   3.508071204255e-05   1.046478314678e-05 
2 1  1.565407704522e-04  -9.597990241580e-05  -1.854720452841e-04 
3 1 -5.140822356966e-05   1.326020325097e-04   3.301568021316e-06 
4 1  1.193574630031e-04   1.607916144000e-04  -2.530142736191e-04 
5 1  5.729807185050e-05   1.646763442680e-04  -4.950324645063e-06 
6 1 -2.435147818570e-04  -8.792247840732e-05   2.463504394748e-04 
7 1 -9.087343051796e-05  -8.292844817237e-05  -4.231321288078e-05 
8 1 -3.439896243269e-05  -1.780042134041e-04  -1.828787365856e-04 
8
Step 4000
1 1  2.218967118715e-04  -5.975080022034e-05  -1.467253966919e-04 
2 1  5.535979310336e-05  -2.823379681459e-04   4.975988808524e-05 
3 1 -1.118430518877e-04  -6.652068919127e-05   1.389956244704e-04 
4 1  4.591357900034e-05  -1.025168626787e-04  -2.141009424082e-04 
5 1  1.925250559907e-04  -1.065192894602e-04   6.039245404483e-05 
6 1  1.582896719499e-05   2.561930285742e-04   1.973411841011e-04 
7 1  7.704615869940e-06   7.284579082773e-05  -1.270097272470e-04 
8 1  7.898201177204e-05   6.310225738002e-05  -5.702971828251e-05 
8
Step 5000
1 1 -7.928793686320e-05   1.238958124278e-04   2.943824902159e-05 
2 1  5.182131910669e-05   1.528438258976e-05  -1.740609692077e-04 
3 1 -3.792397699980e-05   9.614738731026e-05  -1.584651848612e-04 
4 1  5.962279264526e-05   1.301254650213e-04   5.976867051763e-05 
5 1  1.319215749205e-05   7.175647508507e-05  -9.523834771897e-06 
6 1 -3.009716415735e-04  -2.448688058554e-05   2.007426823927e-04 
7 1 -6.998878546838e-05   3.761490585948e-05  -1.170135438765e-04 
8 1  2.336386322762e-05  -1.775710245777e-05  -1.465069463706e-04 
8
Step 6000
1 1  1.594477119396e-04  -2.085922355461e-05   1.847086087652e-06 
2 1 -1.466320617682e-05  -1.711114146501e-04   6.073199720281e-05 
3 1 -1.114596481169e-04   4.122217310149e-05   1.626134803339e-04 
4 1 -1.690173432787e-04  -1.387237144482e-05  -1.493830218141e-04 
5 1  1.385408391743e-04  -1.257692145652e-04   1.297957461908e-04 
6 1  1.101350944063e-04   2.171743056274e-04   1.163551447061e-04 
7 1 -3.331648667175e-05  -2.332183727001e-05  -3.695824244726e-05 
8 1  9.858416789065e-05  -6.190173097201e-05  -1.073507689490e-04 
8
Step 7000
1 1 -1.349154362596e-04   1.880251517398e-04   4.541106026839e-06 
2 1 -3.813331285100e-05   8.084681204292e-05  -8.604638654214e-05 
3 1 -1.043028598961e-04   4.401191434514e-05  -8.598349299985e-05 
4 1  9.693512165124e-05   1.203792547806e-04   1.526495748517e-04 
5 1  2.698720485926e-04  -1.930068809026e-05  -1.086723822071e-04 
6 1 -1.041815138350e-04   2.461237979636e-04   4.176335386338e-05 
7 1 -3.310927267371e-04   2.589066236596e-06  -1.636468374654e-04 
8 1 -3.646184206872e-05  -8.272365564627e-06   1.089429876013e-05 
8
Step 8000
1 1  1.013433229390e-04  -7.296681352445e-05   7.878548295221e-05 
2 1  1.110284335809e-05  -1.464076140844e-04   1.413886013964e-05 
3 1 -3.586098769274e-05   1.815581257120e-04   1.954860447887e-04 
4 1 -1.449457970523e-04   1.341633585985e-05  -3.414194361716e-04 
5 1  4.092269374403e-05  -4.771684877286e-05   2.350645415097e-04 
6 1 -1.579309322551e-04   5.577153195421e-05   1.410750016933e-04 
7 1 -1.131309812224e-04  -1.222017659691e-04   7.498988500103e-05 
8 1  2.041250804396e-04  -1.099628813050e-04  -6.108523612593e-05 
8
Step 9000
1 1 -5.562178254536e-05   1.589157868272e-04  -5.577615094643e-05 
2 1 -6.219857306279e-05   5.127102027542e-05  -2.567220618254e-05 
3 1 -9.170782408548e-05  -2.906898523943e-05  -1.348516226774e-04 
4 1  1.877017247914e-04  -6.653042026372e-05   3.062761608686e-04 
5 1  5.171279757938e-05  -1.306319608852e-04  -7.113858745635e-05 
6 1 -1.568633318838e-04   2.630723509685e-04   6.464380762803e-06 
7 1 -1.001172213398e-04   9.664172168337e-05  -2.394231750383e-04 
8 1  1.171759621012e-04   2.003594144937e-04   6.546737091143e-05 
8
Step 10000
1 1  3.047476271715e-06  -1.607256564012e-05   1.974904077986e-04 
2 1  1.498404565164e-05  -2.127705992729e-05  -2.626182899323e-05 
3 1 -2.181967316089e-05   2.036372335035e-04   3.287216683938e-05 
4 1 -1.631279282041e-04   6.741303972664e-05  -1.207016718263e-04 
5 1 -2.225470958764e-04   9.197563909359e-06   1.512078030904e-04 
6 1 -9.083641819977e-06  -5.448486809439e-05   9.785355094316e-05 
7 1  5.724299777796e-06  -1.899509139133e-04   1.222246578197e-06 
8 1  7.115929914293e-05  -1.489412015843e-04  -6.727047729252e-05 
8
Step 11000
1 1  2.491685788999e-05   7.785045890298e-05  -7.780844847767e-05 
2 1 -3.876598074589e-05  -3.486354017195e-05   4.142876190652e-05 
3 1 -6.574116398220e-05  -5.473686477040e-05  -1.391309047113e-06 
4 1  8.312002348936e-05  -1.255526354332e-04   1.737924569626e-04 
5 1  2.190358190216e-04  -1.532419104782e-04  -8.754583256653e-05 
6 1  1.562021419620e-04   2.980023688809e-04  -3.619771587282e-05 
7 1 -1.502237505175e-04   1.334236160898e-05  -2.344864981455e-04 
8 1 -2.184706764086e-05   1.730385154024e-04   1.868063248231e-04 
8
Step 12000
1 1 -7.814618170644e-05   1.148388809692e-05   1.524380268435e-04 
2 1  2.045455611884e-05   2.071174966167e-05  -8.753505974487e-05 
3 1 -1.242465373893e-05   2.039163003405e-04  -2.264341098077e-05 
4 1 -6.483461774881e-05   1.537755400403e-04  -1.000916664548e-04 
5 1 -1.016581044865e-04   1.347602854758e-05   8.172844447993e-05 
6 1 -2.212373031725e-04  -1.161725319418e-04   1.381280656656e-04 
7 1 -9.471558756518e-05  -2.301205540005e-04  -1.976936372962e-05 
8 1  1.275139812456e-04  -8.711134165959e-05  -3.715224682631e-05 
8
Step 13000
1 1  1.234845538925e-04  -1.953146079183e-05  -1.004110794631e-04 
2 1 -7.197901676558e-05  -1.221720540572e-04   6.259241188480e-05 
3 1 -2.874389862438e-05  -2.059539866924e-05   7.317641691296e-05 
4 1  2.849248453849e-05  -1.653217103054e-04   5.034907680557e-06 
5 1  1.429962172572e-04  -2.607434449448e-04   1.182873465767e-04 
6 1  4.301758198163e-05   1.476830912748e-04  -3.053883569612e-05 
7 1  1.067899909988e-04   1.204359585779e-04  -1.803264082067e-04 
8 1  1.102591179073e-04   1.730873615939e-04   1.172987982071e-04 
8
Step 14000
1 1 -1.477584858571e-04   1.130573180926e-04   1.771964283363e-04 
2 1  2.795668814766e-06   1.389113709004e-04  -1.766165772207e-04 
3 1  1.506254221099e-06   1.659998175185e-04  -1.675115902145e-04 
4 1  8.936070969027e-05   4.444981249439e-05   1.618639395716e-04 
5 1 -2.609787225996e-04  -1.577772868933e-06   6.121820422977e-05 
6 1 -2.244675879224e-04  -1.777972659737e-05  -5.068076082324e-05 
7 1  4.206699074274e-05  -6.942494738269e-05  -1.954590334088e-04 
8 1 -5.075236175028e-06  -1.239133809251e-04   5.196236504122e-05 
8
Step 15000
1 1  1.631691467528e-04  -1.024963866106e-04  -2.870090395267e-05 
2 1  2.229139272178e-05  -1.513264790374e-04   4.607210126268e-05 
3 1  1.896370114493e-05  -6.403323422123e-05   1.627103255384e-04 
4 1 -6.153391916362e-05  -1.654003463487e-04  -1.355530072981e-04 
5 1  6.641189209944e-05  -1.013615985596e-04   8.234197171072e-05 
6 1  2.230434611742e-04   1.342773544870e-04  -1.117537589750e-04 
7 1  8.420499013240e-05  -8.251772931321e-05   4.356938686321e-05 
8 1  8.063352456992e-06   6.838429078709e-05   1.374032941780e-04 
8
Step 16000
1 1 -1.829049964201e-04   1.264721586435e-04   1.760299659170e-05 
2 1 -2.287325270184e-06   1.541961070523e-04  -1.531566988985e-04 
3 1 -8.149453407737e-06   3.938805631110e-05  -1.340247272815e-04 
4 1  1.442052400532e-04   5.804125452396e-05   1.500242322480e-04 
5 1 -3.507374022927e-05   5.102825197922e-05  -9.761269569175e-05 
6 1 -1.724786111680e-04  -3.002109483063e-05  -1.622224144574e-05 
7 1 -9.688654009303e-05  -1.028014166484e-04  -1.050467467118e-04 
8 1  4.068358272610e-06   1.769596262176e-04   1.075763694206e-05 
8
Step 17000
1 1  1.287951793213e-04  -1.396419548476e-04   2.838521437950e-05 
2 1  4.240813804537e-05  -1.570828524935e-04   3.978042291322e-05 
3 1  1.747820098845e-05   4.450949971554e-05   1.723448229031e-04 
4 1 -1.317885496292e-04  -1.837317777352e-05  -2.676563387086e-04 
5 1  1.096172088425e-05  -1.484671327183e-04   1.985424863793e-04 
6 1  7.240485891305e-05  -9.157859906028e-05   9.871445891288e-05 
7 1  9.636894342063e-05  -5.395487092191e-05   1.030468809305e-05 
8 1  9.010317937009e-05  -6.920210007348e-06   3.585026972060e-06 
8
Step 18000
1 1 -1.197184494507e-04   1.393674270058e-04  -6.090725735384e-05 
2 1 -2.534245951560e-05   1.222087950002e-04  -8.270956687188e-05 
3 1 -1.972946793774e-05   1.931264553383e-05  -2.052105649222e-04 
4 1  2.490821440631e-04  -8.285110373479e-05   3.111195996543e-04 
5 1  4.623220810751e-05  -8.110656730989e-05  -9.696013840087e-05 
6 1 -1.628021199578e-04   1.560452079715e-04  -1.139012304079e-04 
7 1 -4.966111475672e-05   1.464067828566e-04  -2.548548524904e-04 
8 1 -5.082404841524e-05   1.028902785325e-04   1.391457035229e-04 
8
Step 19000
1 1  9.026075503433e-05  -1.117718930998e-04   1.563084256987e-04 
2 1  6.224194692297e-05  -1.158763475010e-04   1.180318965115e-05 
3 1  4.213792979384e-05   9.011295003155e-05   9.003684539774e-05 
4 1 -1.292811571303e-04  -4.283490725384e-05  -2.204127193372e-04 
5 1 -1.638099096598e-04   6.906693082089e-06   1.636076565843e-04 
6 1  1.777713132285e-05  -5.931699114869e-05  -1.203456261737e-06 
7 1  1.541130607729e-04  -1.773097225792e-04   1.778452408245e-04 
8 1  1.221675411254e-05  -1.851561016215e-04  -3.858377441827e-05 
8
Step 20000
1 1 -2.824694080063e-05   1.157344094957e-04  -1.708572989131e-04 
2 1 -3.646238897834e-05   1.470775597058e-05  -5.477091237138e-05 
3 1  3.919360347017e-07  -7.522814563604e-05  -5.987364301108e-05 
4 1  1.769831607947e-04  -1.485426204491e-04   1.886192400688e-04 
5 1  1.675507384654e-04  -1.812573885894e-05  -1.244950284124e-04 
6 1  8.944181987592e-05   1.046723395292e-04  -7.987329025834e-05 
7 1 -1.173286007102e-04   7.637035064237e-05  -8.035494970752e-05 
8 1 -4.925967210169e-05   3.955864717835e-04   5.273719619677e-05 
8
Step 21000
1 1 -3.336558590749e-05  -4.396268668499e-05   1.683239581336e-04 
2 1  1.149083094441e-05   2.873601827064e-05  -9.133031088776e-05 
3 1  4.651467025632e-05   1.523141690766e-04   9.888341381601e-06 
4 1 -6.270772660059e-05   1.313116588612e-04  -1.065240802853e-04 
5 1 -1.861023869649e-04   1.315165414995e-05   8.740985761105e-05 
6 1 -1.466696036074e-04  -2.525271311630e-04   1.803005154415e-04 
7 1 -5.957675794451e-05  -8.282082745872e-05   2.531097530988e-05 
8 1  7.792011026519e-05  -2.097673020248e-04  -7.271279298165e-05 
8
Step 22000
1 1  8.151053608929e-05  -2.234047575123e-05  -1.529650489478e-04 
2 1 -9.937307717567e-06  -4.819888167068e-05   4.213992732444e-07 
3 1  2.508843744870e-05  -7.517612712544e-05   9.240822498988e-05 
4 1  6.451514503651e-05  -1.903518982768e-04   4.554713181594e-05 
5 1  1.820174510935e-04  -1.894451287443e-04   8.920332050988e-06 
6 1  7.273524849239e-05   2.028220555436e-04  -1.023259493985e-04 
7 1 -2.508413793621e-05   2.482940490546e-04  -1.305877432091e-04 
8 1  6.973051268362e-05   1.584085922607e-04   1.530590440530e-04 
8
Step 23000
1 1 -1.339815825012e-04   6.759883091467e-05   1.623626375558e-04 
2 1  9.638072603327e-06   1.270835376584e-04  -9.007346798217e-05 
3 1  1.820544383645e-05   1.457457116194e-04  -8.474315085759e-05 
4 1  1.580375710310e-05   8.700955221489e-05   4.129411323305e-05 
5 1 -2.279431078701e-04   9.274967637678e-06   2.408700116690e-05 
6 1 -3.242221625698e-04  -8.217356981681e-05   8.784887417959e-05 
7 1  6.100223791091e-05  -7.734997946353e-05  -4.140715746812e-05 
8 1  1.706995105077e-05  -1.898384742827e-04  -8.898100364392e-05 
8
Step 24000
1 1  1.895426671030e-04  -9.562210447199e-05  -1.191102221733e-04 
2 1  3.059737174594e-05  -1.757469681387e-04   9.030022667633e-05 
3 1  1.965472991882e-05  -1.330521304457e-04   1.694701918165e-04 
4 1 -6.528066541985e-05  -2.671529591721e-04  -8.928144719009e-05 
5 1  1.630208632280e-04  -1.236992446331e-04   6.615195823708e-05 
6 1  2.624920292621e-04   1.635406016575e-04  -5.333072943427e-05 
7 1  5.974674434552e-05   7.662205129321e-05   6.212581053144e-05 
8 1 -1.200602588637e-05   2.434350531691e-04   3.343341607787e-05 
8
Step 25000
1 1 -1.612556011364e-04   1.076510823019e-04   8.668490698035e-05 
2 1 -4.140068756255e-05   1.764569506426e-04  -1.164578714688e-04 
3 1 -2.386174950268e-05   1.115132184314e-04  -2.091329372066e-04 
4 1  1.238489731680e-04   1.231107979862e-04   1.758549712058e-04 
5 1 -7.957048747561e-05   1.281416567584e-04  -6.058280814578e-05 
6 1 -1.748485823081e-04  -2.166795158567e-04   7.467559223218e-05 
7 1 -2.785781210392e-04  -5.349894611440e-06  -2.976144297527e-05 
8 1 -1.368349367429e-05   2.068410740787e-05  -1.315393366011e-04 
8
Step 26000
1 1  2.074465461186e-04  -1.883475775617e-04  -6.167463038977e-08 
2 1  5.654947128423e-05  -2.081194699961e-04   9.930938105976e-05 
3 1  1.777658957307e-05  -6.110344636491e-05   2.447938350433e-04 
4 1 -9.416782684600e-05  -1.351834188514e-04  -2.339448745256e-04 
5 1  9.012181203191e-05  -1.638957490367e-04   1.534774361987e-04 
6 1  1.998996452817e-04  -7.173435405875e-05   5.808048795617e-05 
7 1 -4.298561711144e-05   1.338686977437e-04   8.670399636716e-05 
8 1  1.740472899081e-04  -1.047410921146e-06  -5.280379548533e-06 
8
Step 27000
1 1 -1.496849004810e-04   1.728231139569e-04  -2.943549718124e-05 
2 1 -6.851185327533e-05   1.969971334129e-04  -1.062718814202e-04 
3 1  1.139658424612e-05   8.715352889425e-05  -1.293173506844e-04 
4 1  1.747647664336e-04   2.362888891839e-05   2.055428401837e-04 
5 1 -3.669198110099e-05  -4.488507841965e-05  -8.523254156571e-05 
6 1 -2.526661252558e-04   4.622022539014e-05  -6.823579992876e-05 
7 1 -9.214799957911e-05   1.184486779276e-04  -1.688702826819e-04 
8 1 -4.420670783876e-05   8.343260333927e-05  -7.614107838067e-06 
8
Step 28000
1 1  1.310238884086e-04  -1.470877100363e-04   9.201883549910e-05 
2 1  5.998176663992e-05  -1.260692620522e-04   5.745349732891e-05 
3 1  6.409063419847e-05  -2.558339261072e-05   1.851972470434e-04 
4 1 -1.835221370082e-04  -4.794736891042e-05  -1.966026275420e-04 
5 1 -6.961402604697e-05  -4.213829598241e-05   7.774519058938e-05 
6 1  1.499053339910e-04  -1.153513347145e-04   1.058116957712e-04 
7 1  1.623995537308e-05  -9.844499333799e-05   1.766632824649e-04 
8 1  8.586988158622e-05  -1.021356139585e-04  -6.577331414748e-05 
8
Step 29000
1 1 -8.057579329582e-05   1.453505099303e-04  -1.498913493736e-04 
2 1 -6.663046382546e-05   1.210513662683e-04  -5.567374352008e-05 
3 1  1.458339083113e-06  -4.598130982822e-06  -1.246991400889e-04 
4 1  1.226226492338e-04  -5.246433934145e-05   1.783596611525e-04 
5 1  1.522660098267e-04   7.203284228293e-05  -1.124999782818e-04 
6 1  1.816115142840e-04   6.347618393276e-06  -2.581458784290e-05 
7 1 -3.316162714418e-04   5.232466729425e-07  -7.165691186827e-05 
8 1 -1.008425171420e-04   4.003493169203e-04  -6.826157922833e-05 
8
Step 30000
1 1  3.438154153054e-05  -1.160880653358e-04   2.065164530881e-04 
2 1  4.080312832051e-05  -2.410248214107e-05  -3.620984923054e-06 
3 1  2.754417584679e-05   6.879458344343e-05   4.524071442781e-05 
4 1 -1.330554878607e-04   1.167217395667e-04  -1.661321256615e-04 
5 1 -1.482880410878e-04   3.911351214849e-05   7.402777179500e-05 
6 1  2.171191332720e-05  -2.598169271630e-04   1.863997889131e-04 
7 1 -6.867492214808e-05  -1.916721587236e-04   1.709951699972e-04 
8 1  8.775808892030e-05  -2.108052463238e-04  -1.351854256566e-04 
8
Step 31000
1 1  2.157706691392e-05   6.289202430368e-05  -1.742436592785e-04 
2 1 -3.856518373353e-05   2.704081295202e-05  -1.342752055508e-05 
3 1 -5.297143472393e-07  -4.332789663370e-05   1.628406154329e-05 
4 1  1.069758374069e-04  -1.176275142178e-04   5.486731868544e-05 
5 1  2.071144083658e-04  -1.104209699966e-04  -1.432945366616e-05 
6 1  9.454211721947e-05   1.558024479263e-04  -1.545899977011e-04 
7 1  1.106393186137e-05   1.545912554271e-04  -9.936370257921e-05 
8 1 -1.174026973701e-04   2.999269898756e-04   8.015304996389e-05 
8
Step 32000
1 1 -1.058114360284e-04   3.637509716910e-05   1.726410882513e-04 
2 1 -5.646454347088e-06   1.060409220489e-04  -2.664832136757e-05 
3 1  1.978603992378e-05   1.218339938000e-04  -3.111476804149e-05 
4 1 -3.876187736051e-06   1.834988515036e-04  -3.377177315050e-05 
5 1 -2.458727157332e-04   5.620780141055e-05  -2.937151723658e-05 
6 1 -1.717813747983e-04  -2.063516261389e-04   1.152618752854e-04 
7 1  3.447046668184e-05  -2.205207678562e-04   1.187826792630e-04 
8 1 -7.169629387783e-05  -2.605328629985e-04  -1.240064360184e-04 
8
Step 33000
1 1  1.157196032420e-04  -3.285029305973e-05  -1.800975486648e-04 
2 1 -4.738758724200e-06  -1.021019572783e-04   5.750524528775e-05 
3 1  2.183408074148e-05  -1.185559190902e-04   1.137889724645e-04 
4 1  5.382097392097e-06  -1.859417610544e-04  -6.973290077568e-05 
5 1  1.655896653875e-04  -6.404372741248e-05  -1.746501781625e-05 
6 1  4.430785719448e-04   1.966599538801e-04  -3.898056548084e-05 
7 1  8.920897080702e-06  -2.772957777640e-05   3.349374376940e-05 
8 1 -1.265079350902e-04   3.559890226294e-04   2.706540591322e-05 
8
Step 34000
1 1 -1.788963927953e-04   9.013290852235e-05   1.455255273228e-04 
2 1 -6.788013831848e-05   2.130178167144e-04  -1.111729200383e-04 
3 1  1.607927993952e-05   1.537409846558e-04  -1.866181242453e-04 
4 1  1.255224791880e-05   1.777242533127e-04   1.094218730151e-04 
5 1 -2.050027356670e-04   2.385406189085e-04  -7.427492756427e-05 
6 1 -1.282702405371e-04  -2.201681950811e-04   1.521733308301e-04 
7 1 -1.882307979095e-04  -2.482300967027e-04   5.606642380636e-06 
8 1 -2.085608067595e-05  -1.103179992587e-04  -1.654131224867e-04 
8
Step 35000
1 1  1.488406048220e-04  -1.283917768862e-04  -6.295288282993e-05 
2 1  3.739948012465e-05  -1.484788942195e-04   7.116693184646e-05 
3 1  2.941035022388e-05  -1.224848969385e-04   1.578850133502e-04 
4 1 -9.327518670091e-05  -1.006871686014e-04  -1.483445491724e-04 
5 1  1.868672887847e-04  -8.531544411903e-05   8.996447286813e-05 
6 1  2.854043098200e-04  -2.290623945083e-05   3.312419016803e-05 
7 1  2.425263325144e-05   5.141429053590e-05   2.251962716799e-05 
8 1  7.456163332603e-05   1.481405737429e-04   3.479695084030e-05 
8
Step 36000
1 1 -2.141895532014e-04   2.005560340348e-04  -1.546742349781e-05 
2 1 -1.001674810130e-04   2.239616511424e-04  -9.783492936467e-05 
3 1 -2.976006732289e-06   1.177490024629e-04  -1.486461354618e-04 
4 1  1.719735377628e-04   1.771058231904e-04   1.604499949490e-04 
5 1 -9.610716183940e-05   4.015083291762e-05  -1.024874674807e-04 
6 1 -1.886806418016e-04   7.260448443661e-07  -3.699429339388e-05 
7 1  6.926214038460e-06  -8.245854489673e-05  -6.686026232913e-05 
8 1 -2.270332421083e-04  -3.435648795309e-05  -4.688243365447e-05 
8
Step 37000
1 1  1.143483494247e-04  -1.470655630054e-04   3.757153009972e-05 
2 1  7.057621223103e-05  -1.498303600047e-04   7.696315616982e-05 
3 1  4.742987306188e-05  -1.199266441451e-04   1.807830465921e-04 
4 1 -1.093809127769e-04  -2.469636528568e-05  -1.710130924129e-04 
5 1 -9.181304363211e-06  -8.533387993587e-05   2.496758973281e-05 
6 1  2.323382424350e-04  -1.757053428444e-05   6.584204992540e-05 
7 1  1.536828428094e-04  -1.046965832082e-04   1.180830454789e-04 
8 1  2.744214619529e-06  -1.973563560382e-05   5.046341071306e-05 
8
Step 38000
1 1 -1.306721553003e-04   1.688813602265e-04  -1.188879561246e-04 
2 1 -5.978843824359e-05   1.434814994622e-04  -7.853258901655e-05 
3 1 -6.867714195814e-06   5.474842149414e-05  -1.452133015372e-04 
4 1  1.132259796546e-04   4.302586031677e-05   9.586986023664e-05 
5 1  4.843071423175e-05   5.423817760053e-05  -5.523763966908e-05 
6 1  1.613193510585e-04   1.816021505265e-04  -4.086109830866e-05 
7 1 -2.610249213168e-04  -2.420723090168e-04  -9.788133695677e-05 
8 1 -2.272237752758e-04   4.063560030372e-04  -4.489097579838e-05 
8
Step 39000
1 1  5.304394184722e-05  -1.490377409202e-04   1.483593088510e-04 
2 1  6.224726079484e-05  -8.165815216051e-05   4.635501814098e-05 
3 1  2.560236462386e-05  -6.812315911250e-05   4.462754286669e-05 
4 1 -1.084556949293e-04   5.416181764779e-05  -1.120684166493e-04 
5 1 -9.965981515111e-05  -2.640987025686e-05  -9.518008666899e-06 
6 1  1.146106901706e-04  -1.946940683502e-04   1.453892026077e-04 
7 1 -3.765408825020e-05  -9.884571229005e-05   9.549837700823e-05 
8 1  1.450585482304e-04  -7.352511487310e-05   3.750846747636e-05 
8
Step 40000
1 1 -5.181531807159e-05   1.028299203789e-04  -1.663964606708e-04 
2 1 -3.540889369994e-05   5.219590409803e-05  -5.901826991131e-05 
3 1 -1.409426935631e-05  -6.531055707591e-05  -8.422206613820e-05 
4 1  1.220161969833e-04  -5.242837025880e-05   7.970723837791e-05 
5 1  1.617942521621e-04  -8.653514995718e-05  -2.663963884424e-05 
6 1  9.350931854684e-05   2.136462203838e-04  -1.731924547007e-04 
7 1 -1.279504124012e-04   1.689646160443e-04  -1.349037443652e-04 
8 1 -7.379631770019e-05   3.262796316648e-04   1.370021554794e-04 
8
Step 41000
1 1 -3.433875245036e-05  -8.174784607215e-05   2.145626769377e-04 
2 1  5.759243910841e-05  -1.713708614512e-05   3.619000803538e-05 
3 1  2.776305964478e-05  -4.599716184992e-05   4.264435747449e-05 
4 1 -6.438099198192e-05   1.432278386319e-04  -3.382971993419e-05 
5 1 -2.262600575916e-04  -1.379609026534e-05  -1.181645634219e-05 
6 1 -1.170058052807e-04  -1.452001621411e-04   8.642222423764e-05 
7 1  6.060367280327e-05  -1.650682319494e-04   1.986711501442e-04 
8 1  7.252132879289e-05  -3.880639046198e-04  -5.470931081341e-05 
8
Step 42000
1 1  5.582562283683e-05   3.167754878551e-05  -1.747840230453e-04 
2 1  1.729180815216e-05  -5.495409620945e-05   3.305629348193e-05 
3 1 -6.244017223083e-06  -1.320043046328e-04   5.314682625153e-05 
4 1  6.443464074373e-05  -9.085346319945e-05   4.241261619273e-06 
5 1  1.371719488888e-04  -1.268173093842e-04  -2.051439730032e-06 
6 1  3.069593202509e-04   2.831957568095e-04  -8.869073696415e-05 
7 1 -9.911558036213e-05   2.756842243019e-05  -6.780802793536e-05 
8 1 -8.257555087216e-05   3.587353103727e-04   1.876503629410e-05 
8
Step 43000
1 1 -1.026288773923e-04   2.378371841141e-05   1.873114937090e-04 
2 1  1.525005381178e-06   1.006876418117e-04  -4.718149050778e-06 
3 1 -6.004029800057e-06   5.294637506426e-05  -6.860196483620e-05 
4 1  7.077125774632e-07   1.292860489037e-04   8.769361874409e-05 
5 1 -2.393730075005e-04   9.266395510904e-05  -9.293768316436e-05 
6 1 -9.943094955294e-05  -1.082818452551e-04   1.313868554384e-04 
7 1 -8.668267479058e-05  -3.113329238886e-04   7.099766656805e-05 
8 1 -7.650656748020e-05  -1.571669609412e-04  -1.427651402391e-04 
8
Step 44000
1 1  1.139335128266e-04  -7.279715433655e-05  -7.632032338524e-05 
2 1  6.282864506522e-05  -1.085628140215e-04   3.994002003277e-05 
3 1 -2.364300436424e-06  -1.361338000708e-04   9.607516594661e-05 
4 1 -4.517809985502e-05  -1.422828556701e-04  -5.247396928838e-05 
5 1  1.721728488259e-04  -1.167726931777e-04   1.041203421048e-05 
6 1  2.892667065145e-04   9.399183376329e-05  -1.152842643276e-05 
7 1 -3.867031435395e-05   1.908618164046e-04  -7.377117569255e-05 
8 1  5.288971584927e-05   1.539496617022e-04   1.021491079646e-04 
8
Step 45000
1 1 -1.616328897144e-04   1.524831173451e-04   7.414073150783e-05 
2 1 -5.111985865190e-05   1.989098191535e-04  -4.138105429000e-05 
3 1 -1.857466254036e-05   6.505554527049e-05  -1.281261528221e-04 
4 1  7.432643393719e-05   9.902930761510e-05   1.363233800404e-04 
5 1 -1.281303169407e-04   1.121833649672e-04  -2.862785271640e-05 
6 1 -2.043997836179e-04   2.625573100165e-05  -2.650928419382e-05 
7 1 -1.214875228246e-04  -1.457366369797e-04   1.371442763607e-05 
8 1 -1.205174896740e-04  -1.571666823095e-04  -1.593666741349e-04 
8
Step 46000
1 1  1.473095859996e-04  -1.329426338201e-04   8.863497984549e-07 
2 1  1.171439409465e-04  -1.701649577164e-04   8.339403822006e-05 
3 1  4.752106990610e-05  -1.988887183447e-04   1.764041487474e-04 
4 1 -6.097194389890e-05  -3.950888218527e-05  -7.646114830571e-05 
5 1  3.259601663264e-05  -1.400525924834e-04   2.897454733203e-05 
6 1  1.723905089812e-04   4.666665130010e-05  -3.128253275888e-05 
7 1  2.345792598800e-04   1.277000581751e-04   1.500718639968e-04 
8 1  5.861611415998e-05  -9.208999814184e-05  -1.517242878988e-05 
8
Step 47000
1 1 -1.936023136599e-04   2.395742445847e-04  -6.581220070365e-05 
2 1 -9.636408033282e-05   2.242197100331e-04  -8.143824311304e-05 
3 1 -4.696599389642e-05   1.256261505148e-04  -1.559836443122e-04 
4 1  1.181577558007e-04   5.173844424831e-05   2.641351734659e-04 
5 1 -6.980170125132e-05   5.992510064032e-05  -5.645260579399e-05 
6 1 -1.598299109926e-04   1.784675906533e-04  -1.225081556186e-04 
7 1 -9.188299692253e-05  -1.297809683366e-04  -4.675796408037e-05 
8 1 -1.862489991623e-04   8.897145919293e-05  -2.080591340774e-04 
8
Step 48000
1 1  9.753501804488e-05  -1.652982085939e-04   1.375013143152e-04 
2 1  1.083195445389e-04  -1.587019034628e-04   9.565632300837e-05 
3 1  1.253922342180e-05  -1.226396776432e-04   1.543195075207e-04 
4 1 -1.854425670854e-04  -5.067691811553e-05  -1.307201619078e-04 
5 1 -6.258873754716e-05  -1.136142196816e-05   1.902887965985e-07 
6 1  1.951763432488e-04  -1.144097548160e-04   1.586405656351e-04 
7 1  1.375165066076e-04  -4.387409527023e-05   1.468176640804e-04 
8 1  1.850462531055e-04  -2.678807873086e-04  -7.522429810007e-06 
8
Step 49000
1 1 -9.547888265064e-05   2.003994405839e-04  -1.636247922154e-04 
2 1 -7.108403393373e-05   1.539009328103e-04  -7.860540369761e-05 
3 1 -5.970742978934e-05   1.055339776078e-04  -1.290451378109e-04 
4 1  5.119318697128e-05  -1.183184079528e-05   7.192102867532e-05 
5 1  1.029345397019e-04   9.208523147266e-05  -2.848191634602e-05 
6 1 -3.538530561964e-05   2.169540121416e-04  -1.239861559084e-04 
7 1 -8.464978707506e-05   1.235424228933e-04  -1.213388197504e-04 
8 1 -1.269560599737e-04   8.344290577288e-05  -1.624792229062e-05 
8
Step 50000
1 1  3.795499451603e-05  -1.309582641040e-04   1.916240154118e-04 
2 1  7.801715094660e-05  -6.615895458799e-05   5.092919491235e-05 
3 1  3.451654706504e-05  -5.095056944730e-05   5.534537495884e-05 
4 1 -9.165352478571e-05   8.198780616168e-05  -5.174689103112e-05 
5 1 -1.477676140990e-04   7.167765879887e-05   1.454874326521e-05 
6 1 -2.213960311263e-04  -2.405043333473e-04   1.045890247659e-04 
7 1  2.627644631820e-04   3.530209064704e-05   1.692377931599e-04 
8 1  9.579115903113e-05  -5.044080323018e-04  -2.403179271948e-05 
8
Step 51000
1 1 -2.176561574268e-05   1.037590237941e-04  -2.090198670199e-04 
2 1 -1.439309879888e-05   4.447423396954e-05  -8.761011119688e-05 
3 1 -2.230194466793e-05  -3.891335977195e-06  -5.507235435843e-05 
4 1  6.146764648333e-05  -5.642271469437e-05   5.271815097370e-05 
5 1  2.014942179481e-04  -2.006329504094e-05   6.872194780610e-05 
6 1  5.827844456720e-05   2.340872702180e-04  -2.108497531418e-04 
7 1  1.090986929036e-04   3.692552969545e-04  -8.705681920689e-05 
8 1 -2.080884856952e-04   1.171770676759e-04   8.485347880595e-06 
8
Step 52000
1 1 -7.364963296741e-05  -1.086597290056e-05   1.628545383420e-04 
2 1  1.380133009068e-05   3.087550799232e-05   1.690769310168e-05 
3 1 -1.229960922871e-05   1.244278142407e-05   7.302830008475e-06 
4 1 -3.093544462372e-05   1.023458834159e-04   1.008469916683e-04 
5 1 -2.522420537914e-04   2.306247594363e-05  -7.832445393943e-05 
6 1 -8.802259428089e-05  -1.264055993524e-04   1.051470247104e-05 
7 1  1.025869497461e-04  -1.321257207879e-04   1.797384267515e-04 
8 1 -4.349979012606e-06  -3.622921913633e-04  -7.261249744120e-05 
8
Step 53000
1 1  1.070066939027e-04  -3.739206667728e-06  -1.810605226897e-04 
2 1  6.357786118409e-05  -8.158557830225e-05  -6.539431637784e-07 
3 1 -4.301925553539e-06  -1.041957724312e-04   8.437123558659e-05 
4 1 -2.280741625568e-05  -1.315178452796e-04  -6.883145421559e-05 
5 1  2.531015208685e-04  -5.284654912931e-05  -2.773584210967e-05 
6 1  1.423525758283e-04   1.673775058654e-04  -7.318435123312e-05 
7 1  4.217600972309e-05   3.887787763974e-04  -1.078924213234e-04 
8 1  5.338068434657e-05   8.887952576487e-05   1.448536604416e-04 
8
Step 54000
1 1 -8.589325413387e-05   6.303448969808e-05   7.525930942355e-05 
2 1 -3.375541717519e-05   1.038638008060e-04  -1.755002941955e-05 
3 1 -4.556872161278e-05   8.340248723703e-05  -4.762668008422e-05 
4 1  6.107529625128e-08   9.109112261968e-05   5.298564684484e-05 
5 1 -5.322702551219e-05   1.129251610686e-04  -5.989416754221e-05 