8
Step 0
1 1  0.000000000000e+00   0.000000000000e+00   0.000000000000e+00 
2 1  0.000000000000e+00   0.000000000000e+00   0.000000000000e+00 
3 1  0.000000000000e+00   0.000000000000e+00   0.000000000000e+00 
4 1  0.000000000000e+00   0.000000000000e+00   0.000000000000e+00 
5 1  0.000000000000e+00   0.000000000000e+00   0.000000000000e+00 
6 1  0.000000000000e+00   0.000000000000e+00   0.000000000000e+00 
7 1  0.000000000000e+00   0.000000000000e+00   0.000000000000e+00 
8 1  0.000000000000e+00   0.000000000000e+00   0.000000000000e+00 
8
Step 1000
1 1 -1.931613798154e-04  -1.137746613155e-04   1.252819716957e-04 
2 1 -2.715656988573e-04   2.409028511306e-04   3.367566857160e-04 
3 1  3.096605025076e-04   6.081950569054e-06   2.691505226889e-04 
4 1 -8.649586599921e-05   9.109015343964e-05  -2.860408793477e-05 
5 1 -1.792706897008e-04   3.093443567453e-05   2.047773221104e-04 
6 1 -1.233795985284e-04  -3.694744911883e-06  -1.477110315697e-04 
7 1 -2.467226739797e-04   2.327966773995e-05   1.529894777140e-04 
8 1  3.014455838247e-05  -1.456739432694e-04   3.306682259009e-04 
8
Step 2000
1 1  1.055007127870e-04  -2.025909642553e-04  -5.554225854708e-05 
2 1  1.874704465484e-04  -2.962056969593e-04  -4.009052253182e-05 
3 1  1.787200646249e-05   1.038947686524e-04   1.787103686314e-04 
4 1  1.379560904158e-04   1.781939197262e-04  -3.482122689006e-04 
5 1  2.102724369595e-04   2.675302364200e-04   6.880668613473e-05 
6 1 -2.854523945308e-06  -2.596195070507e-05   2.605429696437e-04 
7 1 -1.850134001099e-04   6.400723755428e-05  -1.510348410355e-04 
8 1  2.498022338903e-04  -2.406449441584e-04  -9.475199110958e-05 
8
Step 3000
1 1  2.537604409546e-04  -1.274863526580e-04  -1.240321377932e-04 
2 1  3.430375432134e-04  -3.423934924844e-04  -2.649283981175e-04 
3 1 -1.950636570354e-04   1.573671714452e-04  -1.529360615082e-04 
4 1  1.277214670594e-04   4.077939976736e-05  -3.133675437263e-04 
5 1  2.568189298829e-04   2.063201085222e-04  -2.216321177151e-04 
6 1  6.485599531289e-06  -5.306812726872e-05   3.339894137359e-04 
7 1  9.017625049949e-05   1.120807688549e-04  -2.326859177700e-04 
8 1  3.015300539813e-04   3.048685308778e-05  -3.440840073219e-04 
8
Step 4000
1 1  2.814853869415e-05   5.509142929353e-05  -3.131814170637e-05 
2 1  1.703859694927e-05   1.217535352583e-04  -3.721469495563e-05 
3 1 -9.460898600928e-05   1.114180274328e-04  -3.202095452946e-04 
4 1 -1.178139128677e-04  -7.086227754442e-05   1.783495574739e-05 
5 1 -1.254090638491e-05   4.877025874934e-06  -2.616915644776e-04 
6 1 -6.643570570844e-05  -1.173598708119e-04  -1.137517934926e-05 
7 1  3.286442971862e-04   6.031273710718e-05   1.563160690789e-05 
8 1  1.779405658260e-04   2.862189719583e-04  -1.227416410057e-04 
8
Step 5000
1 1 -2.815160848263e-04   1.911296539947e-04   5.745440249462e-05 
2 1 -2.939325496485e-04   4.125621514587e-04   2.917466865813e-04 
3 1  1.404330243165e-04  -4.642237950204e-05  -1.052741287545e-04 
4 1 -2.361325334253e-04  -1.998757974790e-05   2.027239985766e-04 
5 1 -1.871051376042e-04  -1.045456082561e-04   5.498302426144e-05 
6 1 -5.279385958584e-05  -1.545823183122e-04  -2.937808826951e-04 
7 1  2.900008256837e-04  -7.575837160781e-05   2.378518250193e-04 
8 1 -4.318239027015e-05   2.196177232141e-04   2.208040626521e-04 
8
Step 6000
1 1 -2.856049959735e-04   1.841052995913e-04   8.766860678621e-06 
2 1 -1.710931022745e-04   1.197020411043e-04   2.554901956210e-04 
3 1  2.066975437399e-04  -1.954894902216e-04   2.465759101596e-04 
4 1 -3.320129914172e-05   5.515333243595e-05   3.990709643551e-05 
5 1 -4.894873779924e-05  -5.149480101460e-05   3.493861802300e-04 
6 1  7.510134721299e-05  -8.453884269718e-05  -1.755962262620e-04 
7 1  1.425793233945e-05  -1.414177012413e-04   1.033193337564e-04 
8 1 -2.371919001148e-04  -3.628004999587e-05   2.127506923039e-04 
8
Step 7000
1 1  6.638776640642e-06   6.587657374736e-05  -1.020768855989e-04 
2 1  1.705313128753e-04  -3.582065507427e-04  -1.022901845765e-04 
3 1  5.104818810983e-05  -1.765964869369e-04   3.391898270323e-04 
4 1  2.332936182023e-04  -7.718636606824e-06  -1.689311414481e-04 
5 1  1.791511903841e-04   5.261630591408e-05   2.364117391780e-04 
6 1  1.547134455050e-04   6.037149344089e-05   1.087185527873e-04 
7 1 -2.318869881901e-04  -4.345620713393e-05  -2.414784344172e-04 
8 1 -2.810139830540e-04  -1.668700910242e-04  -1.149923005065e-04 
8
Step 8000
1 1  2.405337441753e-04  -6.647985209241e-05  -1.002645957657e-04 
2 1  2.353065653052e-04  -3.757726083123e-04  -3.139668852672e-04 
3 1 -1.148411301653e-04   6.542005124931e-06   9.439321715999e-05 
4 1  2.017650790139e-04  -1.256428492432e-04  -7.160218019741e-05 
5 1  1.742262296088e-04   6.401200701174e-05  -1.666874715019e-04 
6 1  6.618076494321e-05   1.461673293531e-04   1.448044321310e-04 
7 1 -2.368889625905e-04   1.053637467712e-04  -3.442513425524e-04 
8 1 -1.240472443339e-04  -9.978526123686e-05  -2.937728161902e-04 
8
Step 9000
1 1  1.890495046721e-04  -1.389812466512e-04   4.837530892369e-05 
2 1 -4.783905100136e-05   9.118714705816e-05  -1.276412517295e-04 
3 1 -1.184619433321e-04   1.561256100526e-04  -1.907422665821e-04 
4 1 -9.005231916675e-05  -8.496062777536e-05   2.158422600412e-04 
5 1 -6.133209942452e-05  -3.796944132006e-05  -3.726650786403e-04 
6 1 -8.388967109436e-05   9.519118261182e-05  -7.002508330930e-05 
7 1 -4.256654661642e-05   1.174866584475e-04  -3.185022142024e-05 
8 1  1.373207101629e-04  -1.756861420914e-05  -6.266722842286e-05 
8
Step 10000
1 1 -2.976572715414e-06  -1.262142820080e-04   1.776233084977e-04 
2 1 -2.574865216673e-04   4.354158414951e-04   1.779845256322e-04 
3 1 -2.284040481471e-05   1.082136898935e-04  -2.294842264515e-04 
4 1 -2.463741347692e-04   1.226136873706e-04   2.772467439146e-04 
5 1 -2.331630315997e-04  -1.327405633988e-04  -1.365305623454e-04 
6 1 -1.100106005137e-04   1.019616981008e-06  -1.708899504066e-04 
7 1  1.317460141316e-04  -2.834744857275e-05   3.479470250582e-04 
8 1  2.895308288366e-04  -3.376606226437e-05   2.872621095977e-04 
8
Step 11000
1 1 -7.421186225970e-05  -3.948237691236e-05   1.298972168952e-04 
2 1 -8.807769460109e-05   2.303284686249e-04   1.922397635393e-04 
3 1  3.139382027538e-06  -5.016950882301e-05  -6.525684613767e-05 
4 1 -5.017943662745e-05   2.420816153344e-04   1.022703369719e-06 
5 1 -1.513867437664e-04  -8.839779464207e-05   2.423986244710e-04 
6 1 -2.402434299499e-06   7.133414636767e-06   1.194826983037e-05 
7 1  1.264351984326e-04  -1.515592015641e-04   3.512448142570e-04 
8 1  1.885758012022e-04  -4.454043761566e-05   3.025230317970e-04 
8
Step 12000
1 1  1.467464925704e-06   7.565692588555e-05  -4.162751067147e-05 
2 1  2.249426169069e-04  -2.389254105845e-04  -8.265952623531e-05 
3 1 -6.362048079889e-05  -9.966490029998e-05   5.763283924033e-05 
4 1  2.413435567536e-04   7.825639564010e-05  -2.453918518042e-04 
5 1  6.285026417542e-05   8.031175642388e-05   3.111499884106e-04 
6 1  7.594220882383e-05   1.020774892306e-04   2.056568745370e-04 
7 1 -1.447425719495e-05  -1.024132198313e-04  -1.855872830599e-05 
8 1 -8.222797133709e-05   5.423742427336e-05  -4.865587577821e-05 
8
Step 13000
1 1  4.525400596769e-05   1.374397264188e-04  -1.313531010166e-04 
2 1  2.390347061574e-04  -3.779057625756e-04  -2.558067683611e-04 
3 1 -7.742929120008e-05   1.884631449391e-05   2.461055519913e-05 
4 1  2.349038761215e-04  -2.160796347798e-04  -1.252736307210e-04 
5 1  1.677211083753e-04   1.962194158584e-04   2.503033384747e-05 
6 1  2.371979307902e-05   1.193629305889e-04   1.100055755901e-04 
7 1 -1.163916662277e-04   4.845215335401e-05  -3.185751095135e-04 
8 1 -2.622627469116e-04   1.570612883836e-04  -3.415559408258e-04 
8
Step 14000
1 1 -2.974971541749e-05   8.398345842793e-05  -3.998865380265e-05 
2 1 -7.094075848779e-05  -5.364257149756e-05  -8.997572240031e-05 
3 1  4.475471615435e-05   1.300340013725e-04  -4.699598459781e-05 
4 1 -7.688579066885e-05  -2.938220621963e-04   1.763494831412e-04 
5 1  9.969112514357e-05   1.107788876189e-04  -2.318693469347e-04 
6 1 -6.351460602093e-05  -4.418475714256e-05  -1.430424550671e-04 
7 1 -6.683317305995e-05   1.167851651061e-04  -2.228964325260e-04 
8 1 -1.745947158233e-04   9.108092454077e-05  -2.447261043206e-04 
8
Step 15000
1 1 -9.981171602690e-05  -5.002017905289e-05   9.814617197885e-05 
2 1 -2.839355007348e-04   2.890998502760e-04   1.871480305802e-04 
3 1  1.723849970641e-04   7.378432446317e-05  -1.785222365519e-05 
4 1 -3.113287044772e-04  -3.851288191378e-05   2.049800636431e-04 
5 1 -1.217026526380e-05  -1.054203394556e-04  -1.668170671457e-04 
6 1 -4.705874885610e-05  -2.534727776732e-04  -1.760746404978e-04 
7 1  7.404494935983e-05   5.151716466452e-05   9.728680987479e-05 
8 1  8.602247372129e-05  -1.057742568850e-04   8.671577270013e-05 
8
Step 16000
1 1 -4.515468543278e-05  -1.393469167874e-04   8.467689413766e-05 
2 1 -1.178038576714e-04   2.411260560514e-04   2.082263286754e-04 
3 1  1.220896882427e-04  -7.558606177796e-05   8.108818069386e-05 
4 1 -1.916244572055e-04   2.687269908049e-04  -1.172375203971e-04 
5 1 -5.401436642359e-05  -2.180777231748e-04   6.793920702432e-05 
6 1  4.990356375983e-05  -2.615391769956e-04   7.603876178358e-05 
7 1  1.477520208498e-04  -2.162814438644e-05   2.288080002877e-04 
8 1  2.493638325872e-04  -1.987111398814e-04   2.480883571008e-04 
8
Step 17000
1 1  5.380361837462e-05  -8.754544406006e-05  -9.220847403091e-05 
2 1  1.927818291503e-04  -7.825052666959e-05  -3.137508405051e-05 
3 1 -7.187598913748e-05  -1.250574625813e-04   1.211177766835e-04 
4 1  1.127405833004e-04   2.715402145881e-04  -3.665035853290e-04 
5 1 -4.409079538227e-05  -1.040187781118e-04   1.292980137536e-04 
6 1  7.831664305137e-05  -1.966154726233e-05   2.539830799871e-04 
7 1  6.935340635967e-05  -7.439744686235e-07   4.618652034012e-05 
8 1  1.543436747533e-04  -6.357838436863e-05   1.035447035002e-04 
8
Step 18000
1 1  4.007433314622e-05   6.098116953581e-05  -2.308897205620e-04 
2 1  2.285181565590e-04  -2.478185031443e-04  -1.813887273626e-04 
3 1 -1.691153887782e-04  -3.437440657800e-05   5.851962931426e-05 
4 1  2.292006057907e-04  -3.768528338000e-05  -1.881758044070e-04 
5 1 -4.054724347823e-05   9.652807029231e-05  -3.268311293849e-05 
6 1 -1.841038742264e-05   2.260734245007e-04   7.856810993375e-05 
7 1 -8.639836649670e-05   4.623313000135e-05  -1.659805726358e-04 
8 1 -9.222193040432e-05   1.421246728733e-04  -9.352575545648e-05 
8
Step 19000
1 1 -7.032978220874e-05   1.502745534235e-04  -1.475417785706e-04 
2 1 -4.586809519334e-05  -1.061461154400e-04  -2.555358268332e-05 
3 1 -3.523829436521e-05   4.467512790489e-05  -2.410671985196e-05 
4 1  5.760294659674e-05  -3.064211575337e-04   2.082256930465e-04 
5 1 -2.817537062773e-05   1.530736074035e-04  -1.356651671266e-04 
6 1 -1.171548690494e-04   2.033626135720e-04  -2.360520686385e-04 
7 1 -1.656504931088e-04   3.133942319217e-06  -1.173777551564e-04 
8 1 -2.389951012750e-04   1.785277297064e-04  -7.874403972127e-05 
8
Step 20000
1 1 -9.413567842779e-05   7.613948291528e-05   1.063961540851e-04 
2 1 -2.477403325012e-04   9.987804964651e-05   2.149728095041e-04 
3 1  1.577316444253e-04   6.616176510859e-06  -4.889934889133e-05 
4 1 -1.353206946519e-04  -2.339315328180e-04   3.259327637951e-04 
5 1  3.262142315857e-05   3.670354341922e-05   3.498673174789e-06 
6 1 -8.129559455908e-05  -4.437497586324e-05  -2.622333530719e-04 
7 1 -9.359024448564e-05  -9.707670093637e-05   1.058891642358e-04 
8 1 -1.582192904499e-04   2.870645473504e-05   7.856892349998e-05 
8
Step 21000
1 1  4.871175240318e-05  -9.447918535239e-05   2.873492652925e-04 
2 1 -1.060862433799e-04   1.127866238288e-04   1.781136685281e-04 
3 1  1.381185241656e-04  -5.126887911749e-05  -3.954700996822e-05 
4 1 -9.216463254708e-05   9.363574249700e-05   5.140415844617e-05 
5 1  9.450356547914e-05  -5.717162159926e-05   1.924328195945e-04 
6 1  5.571990947269e-05  -1.962645845312e-04   4.963073084190e-05 
7 1  6.099672699725e-05  -1.023806811565e-04   1.784878468240e-04 
8 1  4.274813293967e-05  -1.035281068569e-04   1.090513937724e-04 
8
Step 22000
1 1  1.906682795832e-04  -1.818831590323e-04   2.148603738718e-04 
2 1  1.814943503813e-04  -1.170336226074e-08  -1.401267708237e-04 
3 1 -9.707730883801e-05   7.403673200846e-06  -5.322757042826e-05 
4 1  1.055538010936e-04   3.211277432696e-04  -2.103177018371e-04 
5 1  5.466026436171e-05   8.376032224410e-06   1.370234901241e-04 
6 1  1.406349039189e-04  -4.906783839802e-05   2.905923153857e-04 
7 1  1.641499194730e-04   2.837036217847e-05  -1.278679989513e-05 
8 1  1.644033822199e-04  -7.403961986859e-05  -6.025205531304e-05 
8
Step 23000
1 1  1.291067147025e-04  -8.020161144633e-05  -3.444054027413e-05 
2 1  2.274589796250e-04  -1.033711403568e-05  -3.517884319359e-04 
3 1 -2.446612824321e-04   1.247363837037e-04  -7.647532367851e-05 
4 1  1.703205725449e-04   2.227339103384e-04  -1.046134181731e-04 
5 1 -8.679173860863e-05   1.087564730740e-04  -1.200220191391e-04 
6 1  9.848717564156e-05   2.213737538036e-04   1.339070266628e-04 
7 1  1.371442191325e-04   1.333497686237e-04  -2.107270405276e-04 
8 1  1.274441497590e-04   3.123218712237e-05  -1.991019223814e-04 
8
Step 24000
1 1 -8.394322956403e-05   1.202592322611e-04  -2.085443705015e-04 
2 1 -2.701358651423e-05   1.005731131110e-04  -1.702938290071e-04 
3 1 -8.186732793463e-05   1.105836392225e-04  -4.414587471123e-05 
4 1  5.923544363299e-06  -7.741736546474e-05   1.826197356060e-04 
5 1 -1.703204056509e-04   2.756734148984e-05  -2.293631748536e-04 
6 1  1.819323190084e-06   2.627691283694e-04  -2.159749669741e-04 
7 1  1.345743335623e-06   5.967836346649e-05  -1.311346958987e-04 
8 1  2.482286300396e-05   4.325972023855e-05  -9.331684613994e-05 
8
Step 25000
1 1 -1.830291045258e-04   2.151897086708e-04  -1.526103344895e-04 
2 1 -2.386152992619e-04   1.066620209225e-04   2.016545061868e-04 
3 1  2.016925696278e-04  -6.257811832052e-05   4.198623825492e-05 
4 1 -1.631732526394e-04  -2.685775287965e-04   2.002241214994e-04 
5 1 -5.513436667385e-05  -1.976687410353e-04  -2.465703374630e-05 
6 1 -5.053087132612e-05  -7.234289323302e-06  -2.757054769496e-04 
7 1 -1.478504963136e-04  -1.004513376883e-04   1.360932352861e-04 
8 1 -1.567666833729e-05  -4.866620015170e-05   1.395605672253e-04 
8
Step 26000
1 1 -4.737783462728e-05   1.118733965930e-04   1.653366877530e-05 
2 1 -1.392102674675e-04  -9.916536385536e-05   3.155371195935e-04 
3 1  2.181471534907e-04  -1.663482284275e-04   9.151401755083e-05 
4 1 -1.118281246038e-04  -2.007934518300e-04  -8.607072338470e-05 
5 1  1.647236482881e-04  -2.650899950509e-04   2.018743791275e-04 
6 1 -6.323511249254e-05  -2.693230513004e-04   4.614856715872e-05 
7 1 -2.030065428248e-04  -1.132647510541e-04   2.238987485955e-04 
8 1  1.384233044147e-05  -9.821907879335e-05   1.857205154852e-04 
8
Step 27000
1 1  1.193033839005e-04  -7.070939208280e-05   7.030635702006e-05 
2 1  1.068972952559e-04  -2.917123835476e-04   6.641551400632e-05 
3 1 -7.912780833676e-05  -3.101546072482e-05   5.314420943824e-05 
4 1  6.603614259457e-05  -1.697144271207e-06  -2.348497736830e-04 
5 1  2.384888958999e-04  -2.277439943331e-05   1.076733585806e-04 
6 1 -9.920928697468e-05  -2.179277315818e-04   3.075614891478e-04 
7 1 -1.120236511199e-04   5.153660938952e-05  -1.551250516775e-06 
8 1  1.297359725352e-05  -3.404902960295e-05  -2.878171190342e-05 
8
Step 28000
1 1  7.533729525443e-05  -1.503716617577e-04  -3.423819236033e-05 
2 1  1.673318136742e-04  -1.960949664799e-04  -1.982812869641e-04 
3 1 -2.910611326186e-04   1.765271090645e-04  -5.834197440889e-06 
4 1  1.054243774587e-04   1.338305268992e-04  -1.264779236722e-05 
5 1  5.873359634136e-05   2.729724989391e-04  -1.826182533100e-04 
6 1 -1.309031609892e-04   3.971879651908e-05   1.528904012944e-04 
7 1  8.221550742291e-05   1.515665565926e-04  -2.378945096336e-04 
8 1 -6.932094589866e-05   4.204703439955e-05  -2.216684017812e-04 
8
Step 29000
1 1 -1.140301182144e-04  -8.291858356241e-05  -1.127403763086e-04 
2 1  1.005600011861e-05   1.206283841781e-04  -1.694265399320e-04 
3 1 -9.766715355665e-05   1.482547376430e-04   5.146557787738e-06 
4 1 -4.565922504595e-05   1.358702382590e-04   2.207404949946e-04 
5 1 -1.931780251771e-04   2.562215181845e-04  -2.282584821704e-04 
6 1 -5.676244085842e-05   1.437471603059e-04  -1.844542979173e-04 
7 1  2.401612898253e-04   2.021594533099e-05  -1.479206429343e-04 
8 1 -1.515563600568e-04   3.122806844462e-05  -1.233207941276e-04 
8
Step 30000
1 1 -1.743849252407e-04   1.763931973418e-05  -1.752926886557e-05 
2 1 -9.594596096380e-05   3.042319196265e-04   4.474171287559e-05 
3 1  2.828687027455e-04  -1.300608335454e-04   6.270923405394e-05 
4 1 -1.663371084972e-04   5.140602320152e-05   4.504099505201e-05 
5 1 -2.476245814517e-04  -5.288236875902e-05   8.217960962390e-05 
6 1  1.166231704997e-04  -1.954616224863e-05  -2.168769237450e-04 
7 1  2.143176757761e-04  -1.603650921431e-04   1.744815934523e-04 
8 1 -1.220941419746e-04  -6.193640776859e-07   1.669252443169e-04 
8
Step 31000
1 1 -1.636437045618e-05   3.923973135746e-05   1.464321265940e-04 
2 1 -7.280208371354e-06   1.631469577789e-04   1.334195241605e-04 
3 1  3.484731095159e-04  -3.087702479050e-04   5.495660928831e-05 
4 1 -8.110251293103e-05  -4.990040250381e-05  -3.366724352685e-04 
5 1 -5.831883815440e-05  -2.461564184380e-04   3.248224965482e-04 
6 1  2.131458206738e-04  -1.689157915907e-04   9.355818449856e-05 
7 1 -5.408605327226e-06  -9.692890112861e-05   3.083923957395e-04 
8 1  1.661043596663e-05   4.898225247332e-05   3.008941253281e-04 
8
Step 32000
1 1  1.450827574570e-04  -4.407444145611e-06   1.573847645659e-04 
2 1  9.775443828206e-05  -9.777377763285e-05   2.570783934045e-05 
3 1 -1.846405483392e-05  -1.248606788187e-04  -4.669548088477e-05 
4 1  1.037521613387e-04  -1.122906283992e-04  -3.331482365943e-04 
5 1  1.564830066716e-04  -7.375008393319e-05   1.269367256536e-04 
6 1  1.022551773608e-04  -4.527186974426e-05   2.759042579397e-04 
7 1 -2.373961286079e-04   1.666103301857e-04   6.180889388386e-05 
8 1  1.433061554700e-04   1.171570679566e-04   1.179465022287e-04 
8
Step 33000
1 1  1.099748666096e-04  -2.942937121519e-05  -1.166982367495e-05 
2 1  2.828656472955e-05  -1.632625746698e-04  -6.629391497543e-05 
3 1 -3.685477201617e-04   2.178911700722e-04  -1.302562843044e-04 
4 1  1.636270964355e-04  -8.111968611463e-05   1.489720316855e-04 
5 1  1.808976381113e-04   2.044093493769e-04  -2.686368026617e-04 
6 1 -9.589360854597e-05   2.023344647773e-04   3.321839763827e-05 
7 1 -2.570355905747e-04   2.564660368213e-04  -2.681105506806e-04 
8 1  1.495724200961e-04   5.970399388008e-05  -1.689535412886e-04 
8
Step 34000
1 1 -2.903341092802e-05  -4.311821524275e-06  -1.450838048993e-04 
2 1 -1.157607383841e-04  -6.694306306672e-06   2.660287248595e-06 
3 1 -2.713489160447e-04   2.983235639651e-04  -9.780088843646e-05 
4 1  6.377486518708e-05   4.534789860823e-05   4.938805671785e-04 
5 1  3.710465720899e-05   1.727791683006e-04  -3.103398947175e-04 
6 1 -1.391530239073e-04   2.275526242061e-04  -3.185412279205e-04 
7 1 -3.942913886138e-05  -1.464058201687e-05  -2.831937124574e-04 
8 1  5.219415482188e-05  -9.148595006094e-05  -2.541326641687e-04 
8
Step 35000
1 1 -5.695370732092e-05   3.284508693927e-05  -8.283296687709e-05 
2 1 -1.098294298307e-04   1.209974309661e-04   1.093128034180e-04 
3 1  1.196761152205e-04   4.658837241989e-05  -3.312992532700e-06 
4 1 -3.238053428466e-05   1.580503927297e-04   2.318952622805e-04 
5 1 -8.934326452856e-05  -1.475527163585e-04   8.066260686507e-05 
6 1  1.661874508908e-05  -1.840556321608e-05  -2.902658624573e-04 
7 1  1.991123917656e-04  -3.444829999822e-04   7.555907458571e-06 
8 1 -4.646232271592e-05  -1.322607992165e-04  -1.002796542017e-04 
8
Step 36000
1 1  4.112453818376e-05   4.361476566818e-05   7.073828108639e-05 
2 1  4.749876340976e-05   5.107604175755e-05   6.784627774855e-05 
3 1  3.031966057974e-04  -1.860370426039e-04   4.050601313703e-05 
4 1 -2.048570086167e-05   1.152653277915e-04  -2.927513920488e-04 
5 1 -8.393311682225e-05  -3.182117620043e-04   3.894942204142e-04 
6 1  1.452396769744e-04  -2.181878193941e-04   1.033387898328e-04 
7 1  2.247632371655e-04  -3.071647163676e-04   2.378346652226e-04 
8 1 -7.285240387348e-05   1.398719648787e-05   8.048724835687e-05 
8
Step 37000
1 1  8.435659473529e-05   3.623965322282e-05   9.197875565759e-05 
2 1  1.297234325373e-04  -1.098659039122e-04  -8.783776608097e-05 
3 1  9.004214451934e-05  -1.228273167766e-04   2.638545827946e-05 
4 1  2.430617107269e-05  -8.293899213432e-05  -3.782717941516e-04 
5 1 -3.585594927362e-06  -8.132715755549e-05   1.970988549543e-04 
6 1  4.853840327671e-05  -1.165064873229e-04   3.631064885704e-04 
7 1  3.096797916871e-05   9.149898733651e-05   1.605089068680e-04 
8 1 -3.714655432364e-05   1.451063083892e-04   1.078377376398e-04 
8
Step 38000
1 1 -1.171002810052e-05   3.417990079285e-05  -5.138255126199e-05 
2 1  1.078603864812e-05  -1.574183278446e-04  -1.535850971252e-04 
3 1 -1.892487812235e-04   7.541231999155e-05   3.639376733223e-05 
4 1 -3.674445427078e-06  -2.414637130447e-04   7.870288924918e-05 
5 1  3.472626281645e-05   2.780810278341e-04  -2.592018062900e-04 
6 1 -1.679723569595e-04   1.401699641762e-04   1.751020457406e-04 
7 1 -1.693504539233e-04   3.989796722130e-04  -7.728802314305e-05 
8 1  5.612533381073e-06   4.128527843922e-05   1.386602547470e-05 
8
Step 39000
1 1 -1.042056152945e-04   2.439621889586e-05  -1.419516425411e-04 
2 1 -1.486700624764e-04  -4.723894470995e-05  -4.086062884699e-05 
3 1 -1.647140116926e-04   7.655065380252e-05   8.450199562674e-05 
4 1 -7.480074264078e-05  -1.586794303257e-04   4.460474508983e-04 
5 1  1.268435119092e-06   2.992199049871e-04  -3.979566896468e-04 
6 1 -2.193579292014e-04   2.039720392834e-04  -1.918508010619e-04 
7 1 -1.825021226144e-04   2.648137189808e-04  -1.676037628169e-04 
8 1  1.835543570679e-05  -2.017737081774e-04  -4.896503192618e-05 
8
Step 40000
1 1 -4.087776697875e-05  -2.990851911519e-05  -3.461747412650e-06 
2 1 -1.143051174322e-04   8.954807236278e-05   1.054570097067e-04 
3 1  8.191348708568e-05  -1.185378638877e-04   7.291528487482e-05 
4 1 -8.237614864574e-05   1.302569121749e-04   2.162118885751e-04 
5 1 -3.449516301607e-05  -4.349884123973e-05  -4.930604912295e-05 
6 1 -7.504892304898e-06  -1.347547307593e-05  -2.667815752928e-04 
7 1 -2.517337048538e-05  -1.425404191395e-04  -3.387515251667e-05 
8 1  5.876992584536e-06  -2.548573482689e-04  -5.375559420217e-06 
8
Step 41000
1 1  9.561546394547e-05  -1.113298483793e-04   2.300971383246e-04 
2 1  1.011317347136e-04   1.247040049342e-04   9.686597972168e-05 
3 1  1.660021073928e-04  -1.625787659925e-04  -4.815880767679e-05 
4 1 -1.055802778902e-05   3.394122753906e-04  -3.090363788083e-04 
5 1 -5.655251512222e-06  -2.959333961849e-04   3.382258535476e-04 
6 1  2.406957345145e-04  -2.260257440439e-04   9.896630048961e-06 
7 1  1.308511594422e-04  -3.519391059344e-04   1.158915180535e-04 
8 1 -8.806182320165e-06   9.025261058203e-06   7.474352843005e-05 
8
Step 42000
1 1  8.701419857041e-05  -1.306126221034e-04   2.459531921199e-04 
2 1  2.389484972164e-04   6.416866419424e-05  -5.831864279604e-05 
3 1 -3.598523804421e-05   1.094895837207e-04  -1.601958435457e-04 
4 1  4.173557276346e-05   2.223969234067e-04  -4.345096651711e-04 
5 1  7.057864226933e-05  -1.250957866962e-04   2.880179370151e-04 
6 1  2.440425938886e-04  -1.549764692897e-04   2.406204360145e-04 
7 1  1.560589948458e-04  -1.514962844403e-04   9.199913099473e-05 
8 1 -1.433174246414e-05   3.020931996743e-04   7.978213454923e-05 
8
Step 43000
1 1 -9.414267534194e-05  -2.558819004723e-05  -5.011674824165e-05 
2 1  1.284097373496e-04  -6.963467596123e-07  -1.673986468047e-04 
3 1 -2.015623119582e-04   3.647872330510e-04  -1.061840975975e-04 
4 1  1.219059385103e-05  -1.379229639886e-04  -3.569266432665e-05 
5 1  1.098404105891e-04   2.163920564385e-04  -9.364583016069e-05 
6 1  5.997641854785e-06   9.447664538928e-05   1.312241571040e-04 
7 1  7.188548383614e-05   1.881285932155e-04  -3.675507040458e-05 
8 1 -1.375387305972e-05   2.736202571798e-04  -1.140949242886e-05 
8
Step 44000
1 1 -2.064567155003e-04   1.336186641004e-04  -3.650750480734e-04 
2 1 -9.938393649550e-05  -2.061816244256e-05  -8.602970793675e-05 
3 1 -3.898861021571e-05   1.813720160055e-04   8.505068914594e-05 
4 1 -3.237744971018e-05  -3.866821630978e-04   2.890240795090e-04 
5 1  4.668973410352e-05   2.237474995850e-04  -2.960570392806e-04 
6 1 -2.096128537316e-04   1.782088952852e-04  -1.292037125254e-04 
7 1 -2.891450084367e-05   2.764909513735e-04  -7.330311124797e-05 
8 1 -9.793784994332e-06  -3.258296302959e-05  -1.067053443067e-04 
8
Step 45000
1 1 -6.991233906408e-05   1.848597194208e-04  -3.383548973590e-04 
2 1 -1.942078330354e-04  -1.391211335031e-05   1.132598704410e-04 
3 1  2.511342259498e-04  -3.124126786050e-04   1.964930752842e-04 
4 1  4.937874766371e-06  -2.723623887005e-04   8.890186274295e-05 
5 1 -8.602311916731e-05  -1.486167293468e-04  -9.765316677948e-05 
6 1 -2.038068274497e-04  -1.238317730166e-05  -1.726992168207e-04 
7 1 -9.322707737002e-05   6.053026498382e-05   1.926452201103e-05 
8 1  5.152088029777e-07  -2.249980921842e-04  -1.009089227168e-04 
8
Step 46000
1 1  1.617339265696e-04   5.367248173683e-05   1.150262272591e-05 
2 1 -1.053927576829e-04  -1.018803071282e-05   2.377399605192e-04 
3 1  2.362606508688e-04  -5.199679464233e-04   8.888379336781e-05 
4 1  1.034121282166e-04   7.689160723432e-05  -2.840916276170e-04 
5 1 -1.779197428978e-04  -3.925769309074e-04   1.765815454692e-04 
6 1 -4.590871521499e-05  -2.003308408136e-04   1.801962151941e-05 
7 1 -1.179836774453e-04  -1.807013123290e-04   7.900623497582e-05 
8 1  2.038834148084e-05  -9.037444894637e-05   7.261365906431e-06 
8
Step 47000
1 1  1.943321435601e-04  -1.384463344720e-04   2.993251093549e-04 
2 1  8.904473473207e-06  -1.862389032897e-05   1.773540332465e-04 
3 1 -1.169358283868e-04  -1.359002730962e-04  -1.136182358650e-04 
4 1  1.325990277163e-04   3.069325507756e-04  -1.998829201653e-04 
5 1 -1.397524458861e-04  -1.319729782356e-04   1.543218077273e-04 
6 1  8.249442124666e-05  -1.110776919958e-04   1.234128109207e-04 
7 1 -9.228950924874e-05  -2.142023661641e-04  -5.533478048097e-06 
8 1  4.093854776706e-05   1.312761483570e-04   1.075438404677e-04 
8
Step 48000
1 1 -2.294799495667e-06  -1.860909660684e-04   2.368766232911e-04 
2 1  3.453274680513e-05  -3.852896768928e-05  -7.248943193204e-06 
3 1 -3.469367045831e-04   4.069938271503e-04  -1.782898358458e-04 
4 1  2.510608619986e-05   2.222441981033e-04   2.930032029587e-04 
5 1  2.920576403193e-06   3.369537119738e-04  -7.337913588767e-05 
6 1  1.146001578201e-04   1.447345105440e-04  -1.204708819354e-05 
7 1 -7.226362701843e-06  -7.862707509875e-05  -1.292158351436e-04 
8 1  4.149298389287e-05   1.094117496512e-04   9.141390406607e-05 
8
Step 49000
1 1 -1.515513461058e-04  -3.073042105131e-05  -3.065035619465e-05 
2 1  2.203443978389e-05  -6.585766933981e-05  -1.633519837735e-04 
3 1 -1.242135975298e-04   4.627548640553e-04  -5.567055902009e-05 
4 1 -1.254962190545e-04  -2.978752616289e-05   5.085954391684e-04 
5 1  1.263174171672e-04   4.234148874481e-04  -1.403214029282e-04 
6 1  1.020287132835e-04   2.366977326035e-04  -1.564571146811e-04 
7 1  8.548583890526e-05   5.987062486602e-05  -1.176645986776e-04 
8 1  9.057178408307e-06  -1.097056814442e-04  -2.517984883148e-05 
8
Step 50000
1 1 -5.348870109753e-05   1.664156030277e-04  -1.471003569474e-04 
2 1  4.300682815871e-05  -7.224595681180e-05  -1.815179057210e-04 
3 1  2.773125932887e-04  -7.221585889755e-06   8.408118954541e-05 
4 1 -1.752557766978e-04  -1.701695589796e-04   9.895632866989e-05 
5 1  1.372532879684e-04   1.810123263164e-05   4.215327156461e-05 
6 1  6.711380485119e-05   6.918348796149e-05  -5.519464696610e-05 
7 1  1.019603528381e-04   1.285686820156e-04   3.564083547060e-05 
8 1 -4.321775594892e-05  -1.908048096354e-04  -1.121268498449e-04 
8
Step 51000
1 1  1.462261609013e-04   1.909852034528e-04  -3.908256088669e-06 
2 1  5.336937923534e-05  -1.821296050534e-05  -6.374895166914e-05 
3 1  3.198452966768e-04  -4.011791281301e-04   8.931382800436e-05 
4 1 -7.618454392916e-05  -1.015034946275e-04  -4.239668221079e-04 
5 1  5.404893130685e-05  -3.693365116665e-04   1.698635281830e-04 
6 1 -2.386139735521e-05  -1.130353411663e-04   1.722547014199e-04 
7 1  2.971601978303e-05   1.396804431209e-04   1.594320105990e-04 
8 1 -7.330221324838e-05  -2.034103473400e-06  -6.740222389626e-05 
8
Step 52000
1 1  1.668953514972e-04   9.888453680965e-06   1.584202738125e-04 
2 1 -1.024062020211e-05   8.403765430060e-05   7.498075463768e-05 
3 1 -8.042608722345e-05  -2.529289502409e-04   3.022367544525e-06 
4 1  8.925594377781e-05   4.043821770538e-05  -3.695306111656e-04 
5 1 -2.534933382848e-05  -2.758464374842e-04   6.551202379033e-06 
6 1 -1.377644996295e-04  -8.326177419088e-05   1.937188785832e-04 
7 1 -3.460313284714e-05   8.400756196215e-05   1.197074223006e-04 
8 1 -4.858477916922e-05   1.955333089405e-04   5.728119289332e-05 
8
Step 53000
1 1 -2.686415869058e-05  -1.888346638707e-04   9.437577137236e-05 
2 1 -8.122955460354e-05   1.528680907315e-04   9.634012144356e-05 
3 1 -4.213463093521e-04   1.997833373363e-04  -3.330334253009e-05 
4 1  1.863723172322e-04   9.622301793089e-05   1.762829860864e-04 
5 1 -3.432947543220e-05   1.352019045434e-04  -2.488328088598e-04 
6 1 -1.473745507681e-04   6.118246834120e-05  -5.620441071376e-05 
7 1 -5.210111778607e-06  -4.737289918998e-05  -3.052995431324e-05 
8 1  1.879827718583e-05   1.185697475552e-04   1.087707076216e-04 
8
Step 54000
1 1 -1.960793533993e-04  -1.945628295366e-04  -1.245258116418e-04 
2 1 -3.201325079041e-05   1.121245204203e-04  -2.384448462306e-05 
3 1 -2.514197961028e-04   3.625291847504e-04   1.647009786967e-05 
4 1  1.299721820689e-04   4.642160744947e-05   4.509473492764e-04 
5 1  8.139170190821e-07   3.234201991816e-04  -2.133381474960e-04 