8
Step 0
1 1  0.000000000000e+00   0.000000000000e+00   0.000000000000e+00 
2 1  0.000000000000e+00   0.000000000000e+00   0.000000000000e+00 
3 1  0.000000000000e+00   0.000000000000e+00   0.000000000000e+00 
4 1  0.000000000000e+00   0.000000000000e+00   0.000000000000e+00 
5 1  0.000000000000e+00   0.000000000000e+00   0.000000000000e+00 
6 1  0.000000000000e+00   0.000000000000e+00   0.000000000000e+00 
7 1  0.000000000000e+00   0.000000000000e+00   0.000000000000e+00 
8 1  0.000000000000e+00   0.000000000000e+00   0.000000000000e+00 
8
Step 1000
1 1  8.525728944772e-05   1.621923392847e-05   2.667152991417e-04 
2 1  1.386583941173e-04  -3.678908332819e-05  -1.022021857141e-04 
3 1  8.204791390158e-05  -2.234414411704e-04  -1.400810739251e-04 
4 1 -2.148541673209e-04   1.987283301146e-04  -2.652632867098e-04 
5 1  4.860890821988e-07  -3.057379589242e-04   3.637214277299e-04 
6 1  2.238426704019e-04  -2.419102905509e-04   2.908999176487e-04 
7 1  2.419029698322e-04  -1.436463933244e-04   1.009772292465e-04 
8 1 -8.236343730408e-05   1.180451156565e-04  -1.329408257171e-04 
8
Step 2000
1 1  2.161032327661e-04   1.499647062934e-04   1.068860104181e-04 
2 1  6.087111767590e-05  -5.921267111559e-05  -2.610398685191e-05 
3 1  1.553949647230e-04  -1.376961838454e-04   7.897931846672e-05 
4 1 -1.181160545055e-04  -1.289581778563e-04  -2.851177556635e-04 
5 1 -2.186213181607e-05  -3.403801620279e-04   1.642487504092e-04 
6 1  2.696618944657e-04  -1.143617269425e-04   8.355652933097e-05 
7 1 -3.417313116812e-05   2.273527872565e-04   5.845236969741e-05 
8 1 -1.267259971142e-05   3.646064635360e-04  -2.089179238191e-05 
8
Step 3000
1 1 -1.299499263945e-04   1.771614808825e-04   4.189883250486e-06 
2 1  1.435849804729e-04  -1.482757049137e-04  -7.859130112310e-05 
3 1  7.540932782123e-05  -1.949085263709e-04   4.411185523920e-05 
4 1 -1.401501539418e-05  -3.026339891789e-06  -4.428742306396e-04 
5 1 -3.136678169003e-05  -3.111164715320e-04   4.028414381218e-04 
6 1  2.603878160694e-04   7.481595963521e-06   1.097292437519e-04 
7 1  6.813882144420e-05  -2.972966720399e-05  -2.338460665143e-05 
8 1 -1.439138348814e-04   2.421624334550e-04  -1.314696264184e-04 
8
Step 4000
1 1  1.591444104777e-04  -3.254912110017e-05  -2.527229053909e-05 
2 1  1.030792193632e-04  -1.291246382718e-04  -5.948254962412e-05 
3 1  7.680487648599e-05  -3.412763214610e-04   5.411476962467e-05 
4 1 -4.762372225430e-05  -4.825146611860e-05  -3.065697875200e-04 
5 1 -5.859304802553e-05  -2.448230076033e-04   5.177524554864e-05 
6 1 -4.643320334766e-05   3.137305387691e-05   5.594145659286e-05 
7 1  1.458397231895e-04   2.230347101699e-04  -6.157681601201e-05 
8 1 -1.444081958207e-05   3.525662928109e-04  -2.193896028614e-04 
8
Step 5000
1 1 -7.140984141505e-05   2.505177321143e-04  -1.054314778011e-04 
2 1 -4.917897812875e-05  -2.343258105758e-05  -1.882396569796e-04 
3 1  1.165250865314e-04  -1.244885416803e-04   1.121906982458e-04 
4 1 -2.129646828060e-05  -2.361563645287e-04   2.658206715976e-07 
5 1  8.413540896005e-05  -6.098030967214e-05  -3.094180518714e-05 
6 1  1.003544700483e-04   2.725825757381e-05   2.042031471872e-05 
7 1 -1.639448440237e-04   2.399043684592e-04  -1.923423731357e-04 
8 1 -7.480588506727e-05   8.674151953571e-05  -2.094240845669e-04 
8
Step 6000
1 1  3.479406911919e-06  -1.670543610717e-04   1.522994195353e-04 
2 1  1.457696619550e-04  -2.318493077937e-04  -2.100190922412e-04 
3 1 -1.738395856963e-05  -8.471918676811e-05  -8.473640841578e-05 
4 1  1.365720703851e-05  -8.724057560997e-05   6.816249837771e-06 
5 1 -3.141788641144e-04   8.543739451231e-05  -4.123339942898e-05 
6 1  2.664876249680e-05   1.539009504116e-04  -1.605289900416e-04 
7 1  1.774602786621e-04   7.215273681803e-07  -1.467897759267e-04 
8 1 -6.478216246189e-05   2.358492076755e-04  -3.053206395367e-04 
8
Step 7000
1 1 -4.816142086369e-05   1.738612087533e-04  -2.488301947792e-04 
2 1 -9.054788978374e-05   1.963871888389e-04  -9.659854313659e-05 
3 1 -2.266860554278e-04  -1.468200053816e-04   1.176071740637e-04 
4 1  1.850416348452e-04  -1.509532766862e-04   2.513709890527e-04 
5 1  4.634109386547e-05  -4.776337286843e-05  -1.528934970403e-04 
6 1 -1.998611852577e-04   1.069970432269e-04  -3.361984539399e-04 
7 1 -2.981353057725e-06  -1.824517369831e-05  -6.837389006027e-05 
8 1 -2.340334262123e-04   3.014591679438e-04  -2.352348454272e-04 
8
Step 8000
1 1 -7.070811099695e-05  -1.379218088473e-04   9.995151914613e-06 
2 1  2.069643672898e-05  -1.498914972136e-04  -1.606857251542e-04 
3 1 -2.438543636192e-04   2.646499199565e-04  -1.427942940915e-05 
4 1 -1.652246997834e-04  -5.549918701053e-05   1.640450441602e-04 
5 1 -2.840196341301e-05   1.261488496810e-04  -2.589720598531e-04 
6 1  4.795814333531e-05   8.326773771698e-06  -9.929943287636e-05 
7 1 -1.354992004409e-04   7.814402305041e-07  -1.268344082042e-04 
8 1 -6.228334121954e-05   1.354242775137e-05  -1.420539362640e-04 
8
Step 9000
1 1 -1.510179914886e-04   7.278603147420e-05   4.700192708403e-05 
2 1 -2.092961947925e-05   1.540157551256e-04  -1.390752375484e-04 
3 1 -4.693670557138e-04   1.734252232991e-04   2.188963771321e-04 
4 1  3.953776388569e-04  -7.273413288085e-05   4.173864516941e-04 
5 1 -2.319787271775e-04   3.824123729598e-04  -2.745678035036e-04 
6 1 -2.066004830815e-04   2.736289333294e-05  -2.512054614515e-04 
7 1  7.224967641817e-05  -1.303385958493e-04  -6.918499362048e-05 
8 1 -1.896892000332e-04   1.689970826553e-04  -1.886009657769e-04 
8
Step 10000
1 1 -7.482671972545e-05  -1.444565646140e-04   7.561464845240e-05 
2 1 -6.872988987456e-05   1.269016638276e-04  -2.922106160260e-05 
3 1 -5.093126805459e-04   2.296582248379e-04   5.906634589068e-05 
4 1  1.526812663990e-04   2.886211834818e-05   2.243539706486e-04 
5 1  1.622400691360e-04   1.121145921457e-04  -1.734229854229e-04 
6 1 -1.446043803483e-04   7.276880357829e-05  -1.949265678094e-04 
7 1 -4.927346761692e-05  -1.108763263957e-04   1.376336814668e-04 
8 1 -2.351543584995e-04  -2.108347667217e-04   4.343005748359e-05 
8
Step 11000
1 1 -1.512434449989e-04  -7.818170033825e-06   1.468840893876e-04 
2 1 -1.119736258959e-04  -1.142558677604e-04   9.392835302541e-05 
3 1 -1.444881234846e-04   3.282654372172e-04   2.873647258108e-05 
4 1 -6.633490137930e-05   3.023743612090e-05   3.459298695408e-04 
5 1 -3.098013019399e-05   2.281030620258e-04  -2.017156240693e-04 
6 1 -1.014145130236e-05   3.953604681613e-05  -1.183980618483e-04 
7 1 -1.144248059477e-04  -4.476518922705e-05   1.055925966069e-04 
8 1  7.559445400782e-05  -1.193006611363e-04  -4.620192142292e-06 
8
Step 12000
1 1 -9.908349369121e-05  -5.807509539994e-05   3.338513299395e-05 
2 1 -1.255533870369e-04   2.925740051465e-04   7.717445704922e-05 
3 1 -3.522925622310e-04   8.525449491518e-05  -2.963095383468e-05 
4 1  3.892666114003e-04  -2.057338534193e-04   3.922601387349e-04 
5 1 -3.478592205746e-05   3.522735625009e-04  -2.065464944113e-04 
6 1 -2.801190503963e-05  -5.258961364487e-05   5.083503106986e-05 
7 1  3.736816812535e-05  -3.086297516646e-04   2.888715468082e-04 
8 1 -2.282007743211e-04  -1.699149915090e-04   2.608442623063e-04 
8
Step 13000
1 1 -7.523417787091e-05  -9.470468197816e-05   1.934991294819e-04 
2 1 -2.184903252637e-05   1.255872503786e-04   2.098019308818e-04 
3 1 -2.676371024818e-04   7.197335959973e-05  -8.240684760200e-06 
4 1  8.377604901797e-05   5.170165247047e-05   3.617882961427e-04 
5 1  1.754078034198e-04   1.680438578820e-04  -6.002928290533e-05 
6 1 -5.757387254705e-05   1.668289901319e-04  -1.162009470065e-04 
7 1  1.643247139558e-04  -1.302797589953e-04   2.458279972168e-04 
8 1 -5.167408857896e-05  -3.417603347405e-04   7.630322594591e-05 
8
Step 14000
1 1 -2.053958075770e-04   2.340037417016e-04   1.714787110206e-04 
2 1 -8.982190094143e-05   1.615503849559e-05   1.085342830632e-05 
3 1  8.027579915146e-05   1.562814710563e-05  -1.163654221055e-04 
4 1  1.876759681000e-04  -9.032026023352e-05   4.299060757082e-04 
5 1  2.271583561371e-04   1.647910034185e-04  -5.845108787682e-05 
6 1 -7.662066703926e-05   1.137063000850e-04   4.352254117810e-06 
7 1 -4.096237235106e-05  -3.240787285621e-04   4.195892810844e-04 
8 1  1.556254714339e-04  -3.043007106482e-04   2.694636750973e-04 
8
Step 15000
1 1  2.211537388719e-06  -1.474659373950e-04   2.120975051925e-04 
2 1  1.225672740336e-05   3.550805367487e-04   1.888214830600e-04 
3 1 -1.016485985135e-04  -1.539342689842e-04  -2.341164742324e-04 
4 1  1.724151216254e-04  -2.159101218231e-04   2.226042257805e-04 
5 1  1.835366801411e-04   2.215901394522e-04  -8.312237129771e-05 
6 1  8.266052932593e-05  -1.180545456389e-04   8.899824058258e-05 
7 1  1.473972020918e-04  -2.316819053355e-04   1.841425442691e-04 
8 1  1.349514214710e-05  -2.028583949024e-04   1.634848341179e-04 
8
Step 16000
1 1 -1.023438150293e-04   1.448551231986e-04   7.157968552938e-05 
2 1  8.270062822908e-05   7.674239190091e-05   2.085897772235e-04 
3 1  2.865966827978e-04   7.700071077290e-06  -1.657940460350e-04 
4 1  2.857573467944e-05  -1.935755610614e-06   6.432431733326e-05 
5 1  2.617990029113e-04   2.354098740873e-04   1.570086451073e-05 
6 1 -5.205135511065e-06  -7.427209697716e-05   1.425142608156e-04 
7 1  1.423254744508e-04  -1.003181116665e-04   2.119919845473e-04 
8 1  1.333865910225e-04  -2.450441562362e-04   2.619483844099e-04 
8
Step 17000
1 1  7.307239750476e-05   7.173277829224e-05  -2.605304683058e-05 
2 1 -6.757908754416e-05   2.156323718566e-04   3.085945845369e-04 
3 1  1.995371842959e-04  -1.757826616927e-04  -2.539239537874e-04 
4 1  4.879296292042e-05  -3.581226957905e-04  -7.470333611676e-06 
5 1  2.263607967602e-04  -1.219874150836e-04   1.846395159767e-06 
6 1  1.086931551996e-04   5.731297030884e-05   4.961706284920e-05 
7 1 -1.841610988933e-05  -2.322944777001e-04   1.386478451937e-04 
8 1  8.539900819687e-05   1.554324013623e-06  -2.488341543746e-06 
8
Step 18000
1 1  6.005538093179e-05  -2.186373672053e-04  -1.293857997745e-04 
2 1  2.231492733448e-04   2.352403955270e-04   3.151191722106e-04 
3 1  1.583490331875e-04  -1.262109614886e-04  -2.033104221175e-04 
4 1  3.832153152906e-05   9.015573519492e-05  -3.373460846034e-05 
5 1  3.550542963023e-05   7.927016491956e-07  -1.420710764933e-04 
6 1 -2.059395560082e-05   1.290773652211e-04  -1.362747365770e-05 
7 1  1.193903926280e-04  -3.571444614796e-05   1.300602817591e-05 
8 1  1.164958892552e-04  -1.473741676782e-04  -6.509881245417e-05 
8
Step 19000
1 1  3.152689245098e-05   6.955611159798e-05  -1.782817240525e-04 
2 1  1.089046779433e-06   5.221285541429e-05  -3.999498819258e-05 
3 1  3.002646615824e-04  -2.095700273631e-04  -2.588504497048e-04 
4 1 -1.007501482039e-04  -3.711721975768e-04  -1.700167132584e-05 
5 1  3.083603906604e-05  -2.267514317270e-04   2.219866366558e-05 
6 1 -1.784500953110e-04  -2.185543846620e-06  -7.160894177568e-06 
7 1  7.203008059941e-05   2.732646117215e-04   4.572426311800e-05 
8 1  1.041183873366e-04  -8.322688574239e-05  -1.353986338088e-04 
8
Step 20000
1 1  1.162781571501e-04  -4.508402610720e-04  -1.914642395097e-04 
2 1  2.790057347655e-05   1.882655457547e-04   1.489257878011e-04 
3 1  2.413225267872e-04   1.241576748098e-04  -1.354626831295e-04 
4 1 -8.263438273585e-06  -8.563378530935e-05  -1.428512660388e-04 
5 1  3.098408782546e-06   2.482201639651e-04   2.147387927076e-06 
6 1  3.365785866983e-05   6.407211902446e-05  -1.610183044917e-04 
7 1 -4.908295516233e-05   1.072963363106e-04  -1.281638298526e-04 
8 1  5.798258970729e-05   8.918598872271e-05  -4.614066481895e-04 
8
Step 21000
1 1 -9.811904225034e-05  -1.419143755155e-04  -3.271953718206e-04 
2 1  2.239855300971e-05   1.646349634726e-04   9.052859825130e-05 
3 1  6.585267839823e-05  -3.127827843761e-04  -1.905496105844e-04 
4 1  7.992883399981e-05  -1.263530707558e-04  -3.581242320508e-05 
5 1 -8.757057260745e-05   3.218746642873e-05   1.737408044740e-04 
6 1 -2.159104398364e-04   1.858133993331e-04   3.021268693545e-05 
7 1 -5.246681471329e-05   8.306904284693e-05  -2.669565243621e-04 
8 1 -2.166325042183e-05   2.812384708876e-04  -3.169206608169e-04 
8
Step 22000
1 1  3.007057881097e-04  -2.003401440762e-04  -5.886827431349e-05 
2 1 -2.727457355703e-04  -5.260334200028e-05  -1.473201969426e-04 
3 1  1.430837992242e-04   1.196716690736e-05  -2.567999902799e-04 
4 1 -1.174401290870e-04  -2.042763845265e-07  -1.054878911110e-04 
5 1  2.788815475548e-05  -3.248822498026e-05   2.874298013128e-05 
6 1 -1.970848221437e-04   1.656347352674e-04   3.938949611410e-05 
7 1  3.614527074907e-05   2.258252147405e-04  -6.002116578218e-04 
8 1 -1.409478568609e-04   1.795218219206e-04  -4.640443243672e-04 
8
Step 23000
1 1  3.894553155142e-05  -2.652019195078e-04  -3.362514465038e-04 
2 1  4.322526588989e-05   3.165009524315e-05  -3.186624010081e-05 
3 1 -4.775161547601e-05   1.495510765342e-04   3.982444850441e-06 
4 1 -1.798711967801e-04   1.391746374888e-05  -7.226263414124e-05 
5 1  1.341283231219e-04  -7.618050322876e-05   2.785137681493e-04 
6 1 -2.279057486793e-04   9.154691871299e-05   3.352204688505e-06 
7 1 -1.433810433070e-04   4.964627541528e-04  -9.448645475862e-05 
8 1 -1.651370499623e-05   2.506230483455e-04  -3.330488570985e-04 
8
Step 24000
1 1  2.372959017510e-05  -6.816794942642e-05   4.765072524174e-05 
2 1  4.083251440879e-05   1.285791154736e-04  -2.394612607252e-04 
3 1 -2.850744367842e-04   6.919288544374e-05  -7.090289812218e-05 
4 1 -8.140545947662e-05   5.848937071869e-05  -1.377359651131e-04 
5 1 -5.355144372843e-05  -2.355837605129e-04   2.563959716121e-04 
6 1 -9.565721046492e-05   3.811992452325e-05  -7.940063988451e-05 
7 1 -6.403119541859e-06   2.981808782592e-04  -1.752242064182e-04 
8 1 -8.105977465095e-05   2.113279332879e-04  -2.639473582510e-04 
8
Step 25000
1 1  1.527369233560e-04  -2.250747272558e-04  -7.396706299657e-05 
2 1 -1.838041166321e-04   2.677049291631e-05  -1.490451649977e-04 
3 1  2.324782534570e-05   2.473557277408e-04   2.044625683207e-04 
4 1 -1.688267797295e-04   1.638695642994e-04   1.478834818021e-05 
5 1 -8.199116802011e-05  -1.887875836407e-05   1.297801496566e-04 
6 1  2.413571055253e-05   8.337060394253e-06   1.941555167311e-04 
7 1  1.550775079303e-05   2.400893890062e-04  -1.013921822139e-04 
8 1 -1.439566943182e-04   3.049720456790e-04  -9.277019310464e-05 
8
Step 26000
1 1 -8.098647055986e-05   2.046820526769e-04   1.300106075026e-04 
2 1  5.443422444335e-05  -7.022929193099e-05   1.073935665864e-05 
3 1 -1.103042057812e-04   1.316675563310e-04   8.636171511637e-05 
4 1 -3.535607651005e-04  -6.175577226685e-05  -1.596102241978e-04 
5 1  8.434877174234e-05  -1.681166188993e-04   2.497018645908e-04 
6 1 -1.449125154402e-04  -1.102489060629e-04  -7.220819190231e-06 
7 1 -5.123661902896e-05  -6.030377262049e-05   1.285918422170e-05 
8 1  1.181400353874e-04   1.241026642180e-04   1.101314476610e-05 
8
Step 27000
1 1  1.530255431587e-04  -5.637846941124e-05   2.782656325706e-04 
2 1  2.101232302204e-04   3.201393833255e-05  -6.518810148881e-05 
3 1 -2.032769752735e-04   1.806993239286e-04   1.045404140828e-04 
4 1  4.727682186422e-06   2.418006335754e-04  -7.241669744924e-05 
5 1  1.432583420872e-04  -1.145002164505e-04   4.153822149203e-04 
6 1 -6.816334538424e-05   3.301500654755e-05   4.327252387610e-05 
7 1  1.444306365065e-04  -9.842338761578e-05   1.465109302428e-04 
8 1  5.281997560928e-05   2.611964256447e-04   2.608136021536e-04 
8
Step 28000
1 1 -1.750590999501e-04   9.004713478806e-05   3.391914016337e-04 
2 1 -9.073325788877e-06  -1.819676991263e-04  -4.010707835583e-05 
3 1 -5.153624424777e-05   4.255241531002e-05   3.299988099422e-04 
4 1 -1.524330671769e-04   1.819448931057e-04  -7.134576090769e-05 
5 1  1.344983869009e-04  -3.061955851208e-04   2.531223763085e-04 
6 1  1.294675246928e-04  -1.496974891861e-04   6.012733047546e-05 
7 1  1.210290038480e-04  -3.215299680315e-05  -5.655771785215e-05 
8 1  7.811283451753e-05  -8.938259780561e-05   3.721509762312e-04 
8
Step 29000
1 1  5.421717062135e-05   1.397787568514e-05   4.089792508967e-04 
2 1  2.013346888991e-04  -1.792981365675e-04   1.028564902036e-04 
3 1 -6.262805471950e-05   1.643567786201e-04  -3.143617051117e-05 
4 1  9.254200307629e-05   6.925429227592e-05  -9.223249006832e-05 
5 1  2.625252347637e-04  -1.478532640013e-04   2.859754803226e-04 
6 1  4.488679056078e-05  -1.298733016354e-04  -7.890897914793e-05 
7 1  6.895351062837e-05  -1.344905983541e-04   6.818822289752e-05 
8 1  1.682188597440e-04   4.161187358440e-05   3.573435752576e-04 
8
Step 30000
1 1 -1.600561162184e-04  -4.259176064901e-05   8.469037246602e-05 
2 1  5.710190899432e-06  -2.231483482727e-04  -2.425136730688e-05 
3 1 -1.891395291484e-04   2.523742097831e-05   2.926642588129e-04 
4 1  5.970054741036e-05  -4.895288084639e-05   1.496971546153e-04 
5 1  1.637997541982e-04  -7.662870396948e-05   1.525051138230e-04 
6 1  3.027331979228e-04  -1.298959030431e-04  -1.743348668586e-04 
7 1  1.536628018921e-04  -1.619192518931e-04   1.700344476791e-04 
8 1  8.538082579609e-05  -2.166170823282e-04   4.018126883176e-04 
8
Step 31000
1 1 -1.475257113794e-06   6.902579883733e-06   2.138982112912e-04 
2 1  6.827774104350e-05  -2.613270694549e-04  -1.181619444826e-04 
3 1  7.872570063907e-05   6.422782308369e-05   1.895133826409e-04 
4 1  2.352444199340e-05   1.895580299346e-04  -2.673838860589e-04 
5 1  2.075664640476e-04  -8.557747250612e-05  -1.207001500335e-04 
6 1  8.397648099108e-05  -1.564369440448e-04   3.757609425489e-06 
7 1  2.040621219514e-04  -9.417359278763e-05   4.963445686002e-05 
8 1  2.728807510615e-04  -5.514185512258e-05   4.692583187591e-04 
8
Step 32000
1 1 -2.313372736002e-04  -1.613399336599e-04  -3.874055414974e-05 
2 1  1.287197595838e-04  -3.388416529033e-04   8.285219151851e-05 
3 1 -8.183123433418e-05   5.480785272005e-05   2.920178085482e-04 
4 1 -1.136763160809e-05   5.264377517643e-05   3.251298511933e-06 
5 1  2.999136241381e-04  -1.625219117361e-04  -1.524848873694e-04 
6 1  9.447670958366e-06   1.035568375006e-04  -3.127614166721e-04 
7 1  2.208177453214e-04  -2.858461577222e-04   7.565063603343e-05 
8 1  1.356032976489e-04  -1.230634058525e-04   2.652989473282e-04 
8
Step 33000
1 1 -9.936713084596e-05  -1.222826659137e-04  -5.073059349787e-05 
2 1  9.359896956057e-05  -1.835287564410e-04  -1.483417547499e-04 
3 1 -2.496213286865e-05  -7.003215910970e-05   7.191775215908e-05 
4 1 -6.302099776249e-05   2.083788143808e-04  -2.125430552923e-04 
5 1 -4.028007821940e-05   3.027911015794e-04  -2.242293622494e-04 
6 1  2.463814911321e-04   3.091889700034e-05  -4.943938946988e-04 
7 1  1.753372873418e-04  -4.219917796311e-04   5.239283913743e-05 
8 1  8.132025745124e-05  -1.848608672664e-04   2.763808140116e-04 
8
Step 34000
1 1 -8.534783319887e-05  -1.204657410662e-04  -2.313967701798e-04 
2 1  4.519437032360e-06  -9.509933370421e-05   3.105404082895e-05 
3 1  1.009223275742e-04  -9.598761170770e-05   1.915850643345e-05 
4 1  6.907044990731e-05   1.708940100010e-04  -1.739939792320e-04 
5 1 -5.749635727351e-05   1.276614316615e-04  -1.942285256972e-05 
6 1 -1.522812749437e-04  -2.209629653040e-04  -2.322617763946e-04 
7 1 -2.878191568856e-05  -5.887896840482e-05  -2.581935581310e-04 
8 1  2.294065042588e-04   4.581497426131e-05   1.879554740436e-04 
8
Step 35000
1 1 -1.241261446097e-04  -2.184455219560e-04  -4.785098363848e-04 
2 1 -7.121371955756e-05  -1.248677550741e-04   1.026522372405e-04 
3 1 -2.260483349045e-04   8.275918107083e-05  -2.487699506205e-04 
4 1 -2.268503293901e-04   1.467427762720e-04  -1.944930279403e-04 
5 1  6.318475972511e-05   2.706353791504e-04  -4.069977780703e-04 
6 1 -1.504420871158e-04   7.538428759276e-05  -2.655466520059e-04 
7 1 -2.450779124290e-05  -1.038823014524e-04  -1.898525585695e-04 
8 1 -1.269281322862e-05  -2.291122530211e-04   1.233259609611e-04 
8
Step 36000
1 1 -1.669810420561e-04   7.829278379457e-07  -2.015963856343e-04 
2 1  5.487065258269e-06  -3.431034254259e-05  -1.508992481362e-04 
3 1  1.072876348432e-04   3.885581641086e-05  -3.009812595729e-05 
4 1  3.094361641954e-05  -8.083846129030e-05  -1.442812854518e-04 
5 1 -2.619636691514e-04   1.866527479550e-04  -2.673866673153e-04 
6 1 -2.597821346056e-04   3.638357338275e-05  -3.015814498104e-04 
7 1 -2.926037820383e-04  -3.877383264382e-05  -2.189381969502e-04 
8 1  4.859041424576e-05   2.673683780174e-04  -2.753400928092e-04 
8
Step 37000
1 1 -1.453484465291e-04  -1.850063945421e-04  -6.316013507780e-04 
2 1 -1.418401684925e-04   1.347317114984e-04   4.647992747018e-05 
3 1 -4.265035859327e-05   6.756167385783e-05  -1.016273375676e-05 
4 1 -1.282758043881e-05   6.991766452887e-05  -3.079450750386e-04 
5 1 -3.163577260424e-04   1.361580038775e-04  -2.936448004410e-04 
6 1 -3.514617978859e-04   9.412192516813e-05  -1.643528164764e-04 
7 1 -2.888364046757e-04   1.258738611949e-04   6.355663255171e-06 
8 1 -9.529232784922e-05  -1.480756401362e-04  -1.068679741472e-04 
8
Step 38000
1 1 -1.622434871449e-05   7.548837923585e-05  -1.904872468211e-04 
2 1 -1.416124969666e-05   2.767150284333e-04  -9.612021332185e-05 
3 1 -3.119432941634e-05  -1.370359612758e-05  -1.410382395046e-04 
4 1  1.702484798826e-05  -2.006991097908e-04   1.025038766064e-04 
5 1  7.555824219644e-06   2.527204654958e-04  -2.041859485636e-04 
6 1 -1.969922909436e-04   1.321227250958e-04   6.200060196789e-05 
7 1 -1.903184449481e-04   5.370568741576e-05  -2.023226823056e-04 
8 1 -2.959466406613e-04   2.145906022771e-04  -2.187377793315e-04 
8
Step 39000
1 1 -6.270375694269e-05  -1.891918051672e-05  -3.620804671833e-04 
2 1 -2.967304015348e-04   3.141687862434e-04  -5.375104856002e-05 
3 1  7.630358651523e-05  -7.736059414222e-05  -9.195772911502e-05 
4 1  1.544640866517e-04  -1.162339969928e-04   1.451783116557e-05 
5 1 -3.657502504065e-04   1.444139123658e-04   6.085768365522e-05 
6 1 -4.046527511508e-04  -1.446155694786e-05   3.843587591773e-05 
7 1 -3.215392313584e-04   2.019192117382e-05   2.055560064754e-04 
8 1  6.958841567008e-05   1.867638829051e-04   1.962736361824e-05 
8
Step 40000
1 1 -4.265095226873e-05   7.658507328053e-05   3.636257337197e-05 
2 1 -1.502586898826e-04   3.246546092830e-04   4.526191214074e-05 
3 1 -1.063616485759e-05  -9.423562165246e-05  -1.012814232336e-04 
4 1  1.102575677264e-04  -4.060690516313e-05   2.936276808019e-05 
5 1  9.576958369084e-05  -9.961851418631e-07   2.408303826215e-04 
6 1 -4.049593948163e-05  -3.211830110151e-05  -7.489942866250e-05 
7 1 -5.397833731038e-05   2.999996615677e-04   8.449695135429e-05 
8 1 -1.882492086899e-04   2.661265947850e-05  -2.759795768147e-04 
8
Step 41000
1 1 -2.154661747848e-05   5.119580367152e-05   5.770897124737e-05 
2 1 -6.570673549417e-05   2.814444282694e-04   4.967863444755e-05 
3 1  2.108761966033e-04   4.482153558900e-05  -1.793050030274e-04 
4 1  2.800795232106e-05  -3.551339372394e-04   4.349259205387e-04 
5 1 -5.751503303332e-05   2.850638846266e-05   1.352029513478e-04 
6 1 -4.120530493305e-04  -1.060646968066e-04   6.409784400328e-04 
7 1 -9.919665406174e-05   2.464022324324e-04   1.895485265101e-04 
8 1  3.514719494983e-05   7.031456685603e-05   1.434648108154e-04 
8
Step 42000
1 1  3.786863096200e-05   4.330374688924e-05  -5.751450857480e-06 
2 1 -1.827170751376e-04   2.238725698280e-04   9.968184785201e-05 
3 1  2.389029768020e-04   6.206371306296e-05  -4.679667826545e-06 
4 1  1.144491353709e-04  -2.056984986841e-04   3.249985437037e-04 
5 1 -4.528902896182e-05   5.290710085518e-06   2.068486589713e-05 
6 1  3.912768228499e-05   7.768885763624e-05   4.980018732126e-04 
7 1  4.243278282682e-05   8.610561766693e-05   9.250945857691e-05 
8 1  8.840110613406e-05  -5.566644826357e-05  -4.179439472810e-05 
8
Step 43000
1 1  6.745608179238e-05   1.424033313857e-04   2.986501205169e-04 
2 1  9.813699862587e-05   2.004339754494e-04   1.517942408886e-04 
3 1  6.707995624037e-05  -2.164985924621e-04  -1.497635997732e-05 
4 1  4.633014250241e-05  -1.992233651689e-04   1.826683525381e-04 
5 1 -7.225241832131e-05  -2.732007072752e-04   3.734901562241e-04 
6 1 -1.090886640572e-05  -1.665844455029e-05   3.936506654638e-04 
7 1  1.083855726591e-04   2.807186308704e-04   4.063161205469e-04 
8 1 -1.596241161909e-05   1.222632137655e-05   6.058583899205e-05 
8
Step 44000
1 1 -8.315568507255e-05  -3.283323402116e-05   1.075501520879e-04 
2 1 -1.509899416574e-04   1.611850285548e-04   1.138260675258e-04 
3 1  2.099212600519e-04  -1.632482985130e-04  -5.545210760693e-05 
4 1  4.488034463386e-05  -2.488518869614e-04   3.437959604598e-04 
5 1  1.559973899107e-04   3.841904382791e-05   1.757743572527e-04 
6 1  2.425804931773e-05  -1.914733330585e-04   2.264625494033e-04 
7 1  2.414266320241e-04   1.812885093206e-04   6.234219596974e-05 
8 1  3.895319176435e-04  -2.339076411406e-04   2.987918874792e-05 
8
Step 45000
1 1  1.512326717237e-04   9.377362989079e-05   2.956288924617e-04 
2 1 -3.510756995506e-05  -4.407130887563e-05  -4.940347662923e-05 
3 1  2.425441832633e-04   2.679458688650e-04  -2.167725360033e-04 
4 1 -1.338961291708e-05  -3.299133167472e-04   3.287672071191e-04 
5 1  1.867277687773e-04  -1.340736591742e-04   7.210309752207e-05 
6 1  1.745070053203e-04  -1.702746575290e-04   4.536271911180e-04 
7 1  2.071806271313e-04   1.396763032054e-04   1.502788897265e-04 
8 1  1.249211215388e-04  -9.573933505562e-05   8.546458580087e-05 
8
Step 46000
1 1 -6.940672595453e-05  -1.149626509904e-04   4.864528251260e-05 
2 1 -1.079374322877e-04  -7.592026320233e-05  -1.348467272474e-04 
3 1 -4.577336615897e-05   6.370878304767e-05  -1.858946464466e-04 
4 1  2.879849981735e-05  -8.207687649702e-05   1.394257965036e-04 
5 1  1.824723963756e-04  -2.337735504781e-04   1.348926108434e-04 
6 1  2.351056997899e-04  -1.017236841535e-04   1.440317011512e-04 
7 1  3.092639649784e-04   8.362893949004e-05   6.318523148796e-07 
8 1  2.145424858835e-04  -7.587671698908e-05  -1.341112685184e-05 
8
Step 47000
1 1  8.999543276765e-05   4.360576473328e-05   1.211271430229e-05 
2 1 -2.649395793236e-04   1.823664446121e-05  -2.436178993286e-05 
3 1  2.789017004498e-04  -5.835307516672e-05  -8.462637303876e-05 
4 1  1.820105888598e-05   4.676238066055e-05  -2.987225255186e-05 
5 1  1.484127931183e-04  -1.193159173847e-04  -9.226988815980e-05 
6 1  3.076078015824e-04  -2.031768478365e-04   7.718024270339e-05 
7 1  1.627923997293e-04   1.905790721368e-04  -2.052345555837e-04 
8 1  9.815501476781e-06  -2.073533064214e-04  -1.484064283429e-04 
8
Step 48000
1 1 -8.572612017175e-05  -9.969660081182e-05  -1.810409723233e-06 
2 1 -3.321390608327e-04  -3.213662582315e-04  -3.121824377554e-05 
3 1 -5.202285254982e-05   2.325805646420e-04  -3.281219586867e-04 
4 1 -8.991261280358e-06  -1.411861930028e-04  -3.781320042246e-05 
5 1  1.349515185310e-04  -4.303440329598e-05  -1.224993693613e-04 
6 1  3.241473965791e-04  -1.477889030353e-04   2.917064074673e-04 
7 1  2.083149018738e-04   3.303504552748e-05  -3.565165204071e-04 
8 1 -2.168282940762e-06   2.256425132043e-05  -1.900074931200e-04 
8
Step 49000
1 1 -2.872509114755e-05  -1.402040210807e-04  -3.045494031126e-04 
2 1 -8.374255775708e-05  -1.295541723151e-04  -2.205903472279e-05 
3 1  3.369571587414e-05   1.625790080492e-04  -1.149239249502e-04 
4 1 -2.532857613160e-05   6.054140906711e-05  -9.001519378297e-05 
5 1  7.452846255679e-05   1.634675095676e-05  -2.279976172047e-04 
6 1  1.049160406371e-04   1.427738223864e-04  -2.121601597782e-04 
7 1  2.386923634740e-04  -3.545688827387e-06  -3.190120303362e-04 
8 1  1.740481732952e-05  -2.226311834729e-04  -2.879581497013e-04 
8
Step 50000
1 1  9.148899009164e-06  -1.162168569406e-04   5.281478157593e-06 
2 1 -2.267755414240e-04  -7.071222871377e-05  -1.948046107229e-04 
3 1 -2.339345582310e-05   2.315926027805e-05  -5.928770922790e-06 
4 1 -2.638727542137e-04   1.247775146615e-04  -2.273588864665e-04 
5 1  6.539374390931e-05  -1.515454621033e-05  -4.079325421991e-05 
6 1  1.065364990569e-04  -8.781839150708e-05  -2.387712026034e-04 
7 1 -4.713947037015e-05   2.858336906929e-04  -5.658594249496e-05 
8 1 -1.507845093900e-04  -9.951782381455e-05  -2.984660133257e-04 
8
Step 51000
1 1  1.847727669646e-05  -1.108357532351e-04  -2.326276671229e-04 
2 1  1.129541047332e-04  -2.398904444426e-04  -7.335867330485e-05 
3 1 -1.117305932338e-04   2.740651440358e-04  -6.150601577202e-05 
4 1 -1.664078782491e-04   1.345322325423e-05  -7.972441478029e-05 
5 1  2.433275129769e-05   1.582961906407e-04  -3.199614935929e-05 
6 1  6.732556845319e-05   5.768919044368e-05  -2.163806258681e-04 
7 1 -1.247873225617e-05   1.642964141305e-04  -3.816534248327e-04 
8 1  4.553225986211e-05  -1.967414448790e-04  -2.148679600354e-04 
8
Step 52000
1 1  7.939319240731e-06  -7.587555963935e-06   9.736901887172e-05 
2 1  1.980572889696e-04  -7.667185773863e-05   1.869376554292e-04 
3 1 -8.917356337758e-05   2.887953632206e-04  -6.692287756856e-06 
4 1 -1.344328617828e-04   1.831033250516e-04  -1.169769407325e-04 
5 1 -8.197943940011e-05  -4.761545204715e-05  -1.621111441775e-04 
6 1 -8.717011668475e-05   8.639478699090e-05  -7.144988009956e-05 
7 1 -1.104997093339e-04   3.087811271120e-05  -2.562492643351e-04 
8 1 -3.272772369668e-04   9.954873128244e-06   1.684438879168e-04 
8
Step 53000
1 1 -2.993818016624e-05  -8.814442505941e-05  -1.661468361956e-04 
2 1  1.941147303240e-04  -1.024504105667e-04  -7.077733975563e-05 
3 1  3.434566051716e-06   1.157096988183e-04   1.279929360352e-04 
4 1 -1.321665709004e-04   4.639665654096e-04  -2.765950885085e-04 
5 1 -2.132533273215e-05   7.946561351605e-05   9.256915329850e-05 
6 1 -2.778022603990e-05   1.071892467399e-05  -3.093789450640e-05 
7 1 -1.229771699482e-04  -6.571831620753e-06  -3.420368421987e-05 
8 1 -1.014035743664e-04  -1.085921487445e-04   4.081173815280e-05 
8
Step 54000
1 1  3.137724360253e-05   6.300282723643e-05   9.490165175299e-05 
2 1  3.146058929336e-04  -2.030486392965e-05   1.932682095412e-04 
3 1 -6.580403752324e-05   4.482170591281e-04   2.620382680331e-04 
4 1 -9.741269116465e-05   1.019018746399e-04  -1.820518049544e-04 
5 1 -1.854777189391e-04   2.098126495582e-04   7.606822923331e-05 