8
Step 0
1 1  0.000000000000e+00   0.000000000000e+00   0.000000000000e+00 
2 1  0.000000000000e+00   0.000000000000e+00   0.000000000000e+00 
3 1  0.000000000000e+00   0.000000000000e+00   0.000000000000e+00 
4 1  0.000000000000e+00   0.000000000000e+00   0.000000000000e+00 
5 1  0.000000000000e+00   0.000000000000e+00   0.000000000000e+00 
6 1  0.000000000000e+00   0.000000000000e+00   0.000000000000e+00 
7 1  0.000000000000e+00   0.000000000000e+00   0.000000000000e+00 
8 1  0.000000000000e+00   0.000000000000e+00   0.000000000000e+00 
8
Step 1000
1 1  2.347788395188e-04   6.604894998035e-05  -1.554380952721e-05 
2 1  4.741571845189e-04  -5.254809130575e-04  -2.748447915583e-04 
3 1 -2.079517683763e-04  -1.307746827040e-06   3.344797760661e-04 
4 1  6.690236972971e-05   1.144442503374e-04  -5.479210960887e-04 
5 1  4.184496153199e-05   7.199654294741e-05   2.583616514163e-04 
6 1  5.788440631827e-04  -2.039292965532e-04   1.826525034271e-04 
7 1 -1.801109740415e-04   2.708723099590e-04  -2.853367861567e-04 
8 1  4.187779173155e-05   8.524280838954e-05  -3.370881459113e-04 
8
Step 2000
1 1  3.344506742241e-04   2.595623451513e-04  -1.184465383433e-04 
2 1  3.508753620993e-04  -3.081242560232e-04  -1.684730628902e-04 
3 1 -2.023859567360e-04   1.255150946258e-04   1.662876235202e-04 
4 1  1.771966222717e-04   2.396213116729e-05  -4.006832405496e-04 
5 1 -1.011162232991e-04  -8.990649329861e-05   3.614469731820e-04 
6 1  1.528383404645e-04   3.173004637520e-04   2.495545716352e-04 
7 1 -1.244223600146e-04   1.143019299573e-04  -1.531358224971e-04 
8 1 -1.061678614883e-04   2.419161971261e-04  -6.720012681242e-05 
8
Step 3000
1 1 -1.930830087458e-05   3.059765841782e-04  -1.021105629229e-04 
2 1  2.710490187084e-04  -7.858057616997e-05  -3.323771804094e-04 
3 1 -1.044888557824e-04  -3.145244766452e-04   1.822219991275e-04 
4 1  2.138525511653e-04   3.956198427900e-04  -4.982557043590e-04 
5 1  2.165275890679e-04  -3.753596026030e-04   2.666529951420e-04 
6 1  2.356514062606e-05   3.527210262930e-04   4.183789262265e-04 
7 1  6.796492484284e-05   2.257108979086e-05  -2.573075871256e-04 
8 1 -2.335352207687e-04   3.486428796852e-04  -1.860619040242e-04 
8
Step 4000
1 1  4.640650395484e-05  -3.233565699827e-05   3.698754236217e-05 
2 1  1.842702481337e-04  -2.730580616007e-04   1.267450376027e-06 
3 1 -1.762034879327e-05  -1.711348653122e-04  -2.094360937926e-04 
4 1  5.237343047666e-05   4.780957813060e-04  -2.917398135139e-04 
5 1  7.932955660378e-05  -1.223034906617e-04   2.094555535585e-04 
6 1  1.412688435209e-04   2.844104359899e-04   5.083083028268e-04 
7 1  2.621715300784e-04  -1.466483943797e-04  -2.144312638841e-04 
8 1 -1.771476870841e-04   2.424866127933e-04  -3.741066957891e-06 
8
Step 5000
1 1  3.276951471848e-04  -3.143666653108e-04  -2.746935636382e-05 
2 1  6.814205349723e-05  -2.897803334866e-04   1.602180132097e-04 
3 1 -3.271500754331e-05  -2.288908879356e-04  -1.366091332629e-04 
4 1 -1.859379482667e-04   1.105190494947e-04  -3.581431671905e-04 
5 1  4.541816376086e-04  -2.641067589701e-04  -5.401352702620e-05 
6 1 -8.920448994942e-06   2.938241726194e-04   3.188880720686e-04 
7 1  1.258412338035e-04   7.901599453638e-05  -1.328792900948e-04 
8 1  2.071270482738e-04   3.423817395463e-04  -3.306137933334e-05 
8
Step 6000
1 1  1.311575332523e-04  -2.710132084540e-06   2.594068883510e-04 
2 1  1.080511360628e-04  -1.590908514059e-04   1.882772462680e-05 
3 1  1.018371744250e-04  -2.550126576526e-04   1.012795133262e-05 
4 1 -2.980489796180e-05  -3.861489906929e-06  -3.639339674711e-04 
5 1  1.874849132974e-04   3.418515953669e-06  -1.078186748702e-04 
6 1  1.676096747221e-04  -3.759512478633e-05   4.390059611681e-04 
7 1  4.885703532704e-05   4.890223763572e-04  -1.454763195749e-06 
8 1 -1.199552526785e-04   6.216081929267e-04   6.839160072039e-05 
8
Step 7000
1 1 -5.050027399741e-05   5.033411730261e-04   1.505817392922e-04 
2 1  1.511149466969e-04  -2.965518815061e-04  -8.100606590770e-05 
3 1  2.962924861685e-05  -9.689049681026e-05   1.205657134401e-04 
4 1  3.398378511910e-04  -3.688894769094e-04  -2.586842054756e-04 
5 1  1.700636898759e-04   1.199770877056e-04   1.013889530031e-04 
6 1  4.576742702472e-05   9.762303035798e-05   2.945879425433e-04 
7 1 -8.739740472597e-05   5.516789501381e-04   3.449826432101e-05 
8 1 -2.080973610088e-04   3.945893998491e-04  -2.923994224682e-04 
8
Step 8000
1 1 -2.517031053512e-04   1.438502469473e-04   4.064513880554e-04 
2 1  2.259552490364e-04  -1.083806409206e-04  -3.475832595923e-04 
3 1 -1.706626118617e-04  -1.474229684390e-04   8.622264797502e-05 
4 1  2.948674913652e-04   5.420487130920e-05  -2.676610132994e-04 
5 1 -1.140645526355e-04   4.941599148050e-05   1.550346505764e-04 
6 1  3.212564786824e-04  -1.020813973822e-04   2.562723906864e-04 
7 1 -1.469514485890e-04   4.894256861164e-04   1.818086283112e-04 
8 1 -7.613608583795e-05   2.149273639162e-04  -1.082766630862e-05 
8
Step 9000
1 1 -6.702293402700e-06  -2.465016371680e-04   7.003945602648e-05 
2 1  1.086007974744e-04  -2.973837195299e-04   5.930435417877e-07 
3 1 -4.540964722184e-05  -2.923947117212e-05   2.206397969828e-04 
4 1  1.069509284317e-04  -2.547162500794e-04  -5.085489611220e-04 
5 1 -3.891314903734e-04  -2.559366495792e-05   6.764225653558e-05 
6 1  2.929049564221e-04  -2.008051472626e-04   2.418606523428e-04 
7 1  1.020734265165e-04   3.338423765245e-04   1.069374117228e-04 
8 1  2.795637320643e-04   3.021773785001e-04   1.649165715687e-05 
8
Step 10000
1 1  1.332131379868e-04  -1.589979390279e-04   5.193146321335e-04 
2 1  1.687299338085e-04  -3.289905030935e-04  -1.013769097108e-04 
3 1 -1.657500936587e-04   1.030361090280e-04   1.022956101814e-04 
4 1  1.243614289709e-05  -6.846255783328e-05  -2.037453865183e-04 
5 1 -3.319602293888e-05   9.815278985134e-05   1.068897715369e-04 
6 1 -6.868289498526e-06   1.122741015576e-04   1.169963180034e-04 
7 1  1.417057188670e-04   2.448934874289e-04   1.960556867257e-04 
8 1  1.757159034020e-04   3.638822801930e-04  -1.020165497789e-04 
8
Step 11000
1 1  1.806161633470e-04  -2.875671099730e-04   2.587299821076e-04 
2 1  7.484937643992e-05   1.296501006772e-04   8.178108826199e-05 
3 1 -3.386697770541e-05   1.891509782135e-04  -3.352499330922e-05 
4 1 -6.425108187483e-05  -2.141575898568e-04  -1.925916714534e-04 
5 1 -5.294183000997e-05  -1.240522306000e-04   1.960378512414e-04 
6 1  3.543006797092e-05   1.485338141848e-04   2.456545580502e-04 
7 1 -4.081733115755e-04   1.904488571468e-04  -7.032147130740e-05 
8 1  6.038405033758e-05   3.435252073405e-04  -8.068749527941e-05 
8
Step 12000
1 1  4.875252143081e-05   6.509346713569e-05   4.911007447092e-04 
2 1 -9.902522132497e-05   5.278200833510e-05  -1.552627796619e-05 
3 1 -6.224598337288e-05   2.247083111304e-04  -1.942508844758e-05 
4 1 -4.782401050614e-05   3.828807784706e-06  -1.268216754038e-04 
5 1  1.968520559124e-04  -8.324705561269e-05   1.622277405367e-04 
6 1 -2.024521614040e-04   1.185376712900e-04   2.815960531348e-04 
7 1 -2.170455584259e-04   7.625647080591e-05  -1.428410216783e-04 
8 1  2.032708737300e-05   3.876149303174e-04  -1.278596944605e-05 
8
Step 13000
1 1  2.244698661622e-04  -3.895537051513e-04   1.493699509284e-04 
2 1 -2.265618701467e-04   1.720766748600e-04  -4.076623356535e-05 
3 1 -5.976223565247e-05  -2.176492455528e-04  -3.158276645836e-05 
4 1 -2.695931793870e-04   1.673591381800e-04  -8.886322310078e-05 
5 1 -1.927847847762e-04  -2.803837974944e-04   2.102386154833e-05 
6 1  9.771578252587e-06  -1.276180707771e-04   2.795226538450e-04 
7 1  1.942602838069e-04  -1.045446864593e-04   3.832476833729e-05 
8 1 -2.635026936678e-05   2.087699246649e-04   5.363506431325e-05 
8
Step 14000
1 1  1.528014359954e-04  -3.578020875643e-04   2.240712263996e-04 
2 1 -2.113888987132e-04   3.518915175407e-06   2.377416573971e-04 
3 1  1.223465512070e-04  -2.553331867016e-04  -2.433440307325e-04 
4 1 -1.376044214445e-04   1.789683174565e-04  -1.787958209614e-04 
5 1 -2.370388249795e-04  -1.223224238302e-04  -1.439243514067e-05 
6 1  1.690556485370e-04   8.970606005500e-05   3.482573333947e-04 
7 1  3.613044455428e-05  -1.001420150436e-04  -1.943067140657e-04 
8 1 -4.767697231510e-05   2.886424700540e-04   2.919767966176e-04 
8
Step 15000
1 1  1.792926492242e-04  -1.827734596988e-05   5.976383431831e-04 
2 1  1.304626287949e-04  -7.264170650670e-05   8.314783736839e-05 
3 1  2.248285775405e-05   3.858854335433e-05   3.849207315141e-06 
4 1 -1.580682575367e-04   1.722692995554e-04  -1.453810870994e-04 
5 1  2.688757335176e-05  -2.578585185889e-04  -2.062618211846e-04 
6 1 -2.315672773722e-04  -8.851791193575e-05  -3.839672126802e-05 
7 1 -1.071546751838e-04   2.087378458842e-06  -3.127604626021e-05 
8 1 -3.623798017845e-04   1.558198573486e-04   1.349281955227e-04 
8
Step 16000
1 1 -1.446656954367e-05   1.475502635392e-04   3.003002801524e-04 
2 1 -1.808457555094e-04   4.500811590782e-04   1.818883368946e-04 
3 1  2.661227323024e-04   6.272614360850e-05   8.163805401710e-05 
4 1  3.126717813993e-05  -7.019528523000e-05  -1.361435992928e-04 
5 1 -2.188400774009e-04  -1.378470743016e-04  -2.336461632437e-04 
6 1 -9.557938578161e-05  -1.851994680017e-04   1.141416978205e-05 
7 1 -2.839712728396e-04   2.160498499010e-04   1.185192325830e-04 
8 1 -3.247163142995e-04   2.017140116241e-04  -2.307013470408e-05 
8
Step 17000
1 1 -2.356310567957e-04   1.297319982152e-04   2.840147396991e-04 
2 1 -1.829829927585e-04   1.504446850597e-04  -1.455626671579e-04 
3 1 -5.310510853782e-05   1.466212723478e-04  -4.400392535842e-05 
4 1 -1.975362600878e-04  -5.445034120332e-04   1.476573011185e-05 
5 1 -1.544800908497e-04  -5.229448466280e-05  -3.510960573732e-04 
6 1 -3.079914461313e-05  -2.823307509607e-04  -7.043343166884e-05 
7 1 -1.623748552472e-04  -4.529120555264e-05   2.801664803269e-04 
8 1 -1.373342824485e-05  -7.622483336987e-05   1.997498196036e-04 
8
Step 18000
1 1 -1.029035329513e-04  -1.469015166573e-04   1.167686544165e-04 
2 1 -2.264134640785e-04   2.798543337562e-04   7.439951810755e-05 
3 1 -8.689256337691e-05   1.501832257666e-04  -2.453118688481e-05 
4 1  1.588316756080e-04  -5.059684349601e-04  -6.538226637954e-05 
5 1 -3.654030431739e-04   7.896101206381e-06  -2.628542959752e-04 
6 1  2.033554886926e-04  -4.764917816898e-04  -2.208537290336e-04 
7 1 -6.190892228149e-05   4.194249971033e-04   2.544882345310e-04 
8 1  1.477256943691e-04  -1.703357683040e-04   1.368362529556e-04 
8
Step 19000
1 1 -1.138764247770e-04   6.863343306651e-05   1.179092318388e-04 
2 1 -4.952297363455e-05  -1.098381079576e-05   2.029639946585e-04 
3 1 -8.209876700347e-05   1.086810061947e-04  -6.011007637102e-05 
4 1  6.001233318093e-05  -2.688701533465e-04  -7.284637774774e-06 
5 1 -3.067032122200e-04  -1.307331032340e-05  -2.722950211566e-04 
6 1  1.300677287406e-04  -5.592037940865e-04  -7.098047179378e-05 
7 1 -1.815001715418e-04  -1.672118554237e-04   1.371533858789e-04 
8 1 -1.970213683458e-04   1.579103959299e-04  -9.222644013380e-06 
8
Step 20000
1 1 -1.837710038701e-04   4.295745282935e-04   2.362088174046e-04 
2 1 -1.294217755314e-04   3.803138032387e-04   1.628410281193e-04 
3 1  2.702705793622e-04   4.173719399748e-06   5.586684971553e-05 
4 1  4.797196061389e-05  -5.327693170864e-05   1.090273536592e-04 
5 1 -2.297320950030e-04  -7.606915356901e-05  -3.743328737983e-04 
6 1 -1.964090855911e-04  -2.539317249910e-04  -3.131365230862e-04 
7 1 -1.212958976516e-04  -9.469613472012e-05   5.355119037962e-05 
8 1 -1.715629958834e-04   2.079850235121e-04  -1.417353751135e-04 
8
Step 21000
1 1 -1.922210744241e-04   1.944513630067e-04  -6.856718622846e-05 
2 1 -2.910587572870e-04   5.656293536277e-04  -2.897984008078e-05 
3 1 -1.567384804771e-04  -1.860043913294e-05  -2.375285847581e-05 
4 1 -1.777065796995e-04  -2.158981737849e-04   1.548304072238e-04 
5 1 -4.273553844195e-05  -3.484586295578e-04  -6.103576172509e-05 
6 1 -2.406977406445e-04   5.319881830439e-05  -1.696464234315e-04 
7 1 -3.599558772652e-05  -2.866399214184e-04  -1.233768131346e-04 
8 1  1.028643094118e-04  -7.816126818203e-05   1.910753604822e-04 
8
Step 22000
1 1 -1.417267791648e-04   2.256074161448e-05  -1.813263210487e-04 
2 1 -4.851453384607e-04   2.388620600988e-04  -2.496430852525e-04 
3 1  1.884913371683e-04  -1.800397161827e-05   3.090542986925e-05 
4 1 -2.598863928597e-04  -1.357378994509e-04   2.599327532884e-04 
5 1  1.103578132433e-04  -4.110199704989e-04  -5.151673283736e-04 
6 1 -3.989842436998e-04   1.391518018962e-04  -2.631758858355e-04 
7 1  2.877459253362e-04  -4.412349652480e-04   2.069644693980e-04 
8 1  2.771607997833e-04   6.000632935693e-05   1.857423964547e-04 
8
Step 23000
1 1 -4.149558300557e-05  -2.683937024323e-04   3.995520531777e-06 
2 1 -2.579617043339e-04   2.068135200333e-04  -1.411760702916e-05 
3 1  1.678475365257e-04  -1.756974491468e-05  -4.347738310650e-05 
4 1 -2.883080895703e-04  -6.091936951700e-05   4.000407312973e-04 
5 1 -5.910753899125e-05  -7.751694636261e-05  -3.175381343860e-04 
6 1 -3.631609103399e-04  -2.184136744903e-05  -2.271538299572e-04 
7 1  3.509237455027e-04  -2.479715803610e-04   9.034186671755e-05 
8 1  1.841366245906e-04  -2.552398066357e-04  -1.229759610695e-04 
8
Step 24000
1 1  2.215995971488e-05   1.297497700062e-04   7.738768051192e-05 
2 1 -8.358777268452e-05   2.402069212711e-04  -3.056286006087e-05 
3 1  3.024029473381e-04   3.372442978794e-04  -1.791161385759e-05 
4 1 -1.334093192913e-04  -6.999711112775e-06   4.902021720353e-04 
5 1 -8.821591011197e-05   9.428775338685e-05  -2.518879883771e-04 
6 1 -2.993575287157e-04  -6.671777102704e-05  -3.256254982039e-04 
7 1 -1.398069588042e-04  -1.752144589469e-04  -4.496886560339e-04 
8 1  3.095373543583e-04  -1.894791421258e-04  -5.809427436313e-05 
8
Step 25000
1 1 -2.123228196072e-04   2.613971923571e-04  -1.965369260700e-05 
2 1 -2.531342007017e-04   3.304097579728e-04  -1.683789360730e-04 
3 1  1.402943277570e-05   6.000955055500e-05  -5.497218201932e-05 
4 1 -9.056916024503e-05  -2.250193557080e-04   4.447181341041e-04 
5 1 -1.769073910452e-04   2.919508237603e-04  -2.775516114084e-04 
6 1  3.272319311089e-05  -3.324607882693e-04  -5.462634313583e-05 
7 1  1.519555707758e-05   1.364224232697e-04  -9.855671679356e-05 
8 1 -6.088202246370e-06  -3.106970549663e-04  -3.466978316947e-05 
8
Step 26000
1 1 -4.100771784300e-04   9.795588120425e-05  -1.215262186110e-04 
2 1 -4.837193659598e-05   9.743571321600e-05  -3.536172422013e-04 
3 1  1.184273855058e-05   2.734596052634e-04   4.301887922417e-05 
4 1  5.084493144038e-04  -1.996474570615e-04   3.974098245126e-04 
5 1 -1.284148800555e-04   3.266238698350e-04  -2.226951427781e-04 
6 1  1.485217482541e-04  -4.921235123120e-04  -1.644487437247e-04 
7 1 -5.912945426065e-05   1.143097234478e-04  -5.864484178868e-05 
8 1  1.025398082239e-04  -2.849190425837e-04  -1.770797198177e-04 
8
Step 27000
1 1 -7.216551804691e-05  -2.592723217235e-04  -2.266361465386e-04 
2 1 -7.450167345835e-05  -5.631314640389e-05  -2.231201282887e-04 
3 1  1.151941095247e-05   2.548981076284e-04   1.563557302567e-04 
4 1  1.932770233836e-04  -3.742054931067e-04   2.972310454955e-04 
5 1 -9.917599063253e-05   2.752545638235e-04  -1.377167444011e-04 
6 1  3.554949628721e-04  -9.583580409238e-05  -8.086574362811e-05 
7 1 -1.708529543098e-04  -4.568878558084e-05   5.497910350167e-05 
8 1  8.802100386234e-05  -3.675656519256e-04  -6.137597289258e-05 
8
Step 28000
1 1  1.130160521429e-04  -3.456828930996e-04  -4.200272155714e-05 
2 1  2.780596680492e-04   5.334724242376e-05   3.242066090903e-05 
3 1  1.827543705583e-04   1.200187904626e-04   5.595024634801e-05 
4 1 -1.093527173733e-05   9.693065172579e-06   3.693554546992e-04 
5 1  7.516488874213e-05   4.591641717376e-04  -1.071485802395e-04 
6 1 -8.355761928845e-05   1.883873156645e-04  -5.602504362539e-04 
7 1  5.056564204900e-05   1.551093077087e-05  -4.859565612044e-05 
8 1  7.332423021248e-06  -4.846730299194e-04  -2.419811144257e-04 
8
Step 29000
1 1 -5.473386201643e-05  -4.221564386738e-05  -1.133042024344e-04 
2 1 -1.326077777283e-05  -9.174749602977e-05   4.978478758497e-05 
3 1  4.391030676642e-04   2.785322270101e-04   2.239566724164e-04 
4 1 -1.511725362225e-04   3.106338451674e-05   3.323584515920e-04 
5 1  1.008175326397e-04   2.716631529133e-04  -1.055607136045e-04 
6 1  1.006095317758e-04  -1.543932481649e-05  -3.598637661760e-04 
7 1 -1.288516743726e-04  -4.956692433439e-05   1.032753054253e-04 
8 1 -6.654433228521e-05   3.248199086016e-04  -1.305455000962e-04 
8
Step 30000
1 1  2.038173030933e-04  -2.651837389078e-05  -2.262218242661e-04 
2 1 -3.253193109163e-04   1.499511666768e-04   9.757483886690e-05 
3 1  5.087298215823e-04  -8.342499050502e-05  -2.387634030308e-04 
4 1  1.475583649303e-04   1.202396594386e-05   2.958726726727e-04 
5 1  3.143772655621e-04   8.982102732547e-05  -1.630062615759e-04 
6 1 -1.296713876503e-05   7.067912429197e-05  -3.607404529924e-04 
7 1 -9.054036050786e-05  -2.736428573316e-04   5.086600991141e-05 
8 1 -2.962731138069e-04   2.151064534477e-04   1.198625009976e-04 
8
Step 31000
1 1  1.864341583522e-05  -1.690175157190e-05  -3.465534326152e-04 
2 1 -3.401769247370e-06  -7.651725060948e-05   1.670085057605e-04 
3 1  2.255703880785e-04  -8.730441027910e-05  -1.746381025780e-04 
4 1 -1.591595590871e-06   3.420694938846e-05   4.944615805289e-04 
5 1  3.626555539831e-04  -3.075927646397e-05  -1.505218949181e-04 
6 1 -6.239927561163e-05  -7.076172602861e-05  -2.120458490650e-04 
7 1  1.883906106175e-05   1.083228058982e-06  -1.514960358217e-04 
8 1  1.638417990910e-04  -1.123498348703e-04   4.806760043619e-04 
8
Step 32000
1 1  2.842368858433e-04  -2.627913053030e-04  -6.401146245957e-05 
2 1  4.667079683848e-04  -9.192826679132e-05  -7.239909027825e-06 
3 1  3.513967139846e-04   5.058026728749e-06  -1.129218592835e-04 
4 1 -8.899833512781e-05   2.028868639115e-05   4.949561164486e-04 
5 1 -1.106179184379e-04   3.361051007964e-04  -4.025448212734e-04 
6 1  2.288500880482e-04  -1.542154130430e-05  -1.050733609590e-04 
7 1  1.203574475772e-04  -1.086519413856e-04  -1.334030023610e-04 
8 1 -2.699468626678e-05  -1.460763333942e-04   1.676155265525e-04 
8
Step 33000
1 1  2.754099472296e-05   3.139166697048e-05  -2.483848510950e-05 
2 1  3.670416453888e-04  -1.785196338839e-04   1.031787110203e-04 
3 1  2.795560344698e-05   9.613682721289e-05  -7.937295951928e-05 
4 1  1.830610317162e-06   1.073663763017e-04   3.678482632817e-04 
5 1  3.157183312903e-05   3.874486312646e-04  -1.782595505046e-04 
6 1 -1.321538334957e-04  -7.568595758659e-05  -4.920913588266e-05 
7 1  2.420886545207e-04   3.232526258518e-04  -1.228135485401e-04 
8 1  8.276814679057e-05  -1.223097077402e-04   3.447299348096e-04 
8
Step 34000
1 1  3.110164208672e-05  -1.792816383943e-05   1.110632751867e-04 
2 1  1.756427732574e-04   6.041117914609e-05   5.962421019889e-06 
3 1  3.634933267121e-04   1.747354490722e-04  -5.958516036842e-05 
4 1  2.323959871542e-04  -1.303844122321e-04   2.340720326150e-04 
5 1 -2.154514146810e-04   4.150167452125e-04  -1.270725199045e-04 
6 1  6.082565452569e-05  -1.957874663863e-04   1.618159938256e-05 
7 1 -1.338217022987e-04   3.752659733145e-04  -2.582657528683e-04 
8 1  1.546645507422e-04  -2.720422623689e-04   1.233563844807e-04 
8
Step 35000
1 1  1.019839161491e-04   2.550183824328e-05   4.476782301630e-05 
2 1  1.356949529888e-04   3.458517493281e-04  -1.780810837722e-04 
3 1  2.251903655003e-04  -6.347987437334e-05  -1.336233290591e-04 
4 1  1.035797329968e-04  -8.354131346974e-05   1.946024759089e-04 
5 1 -2.300915860370e-04   1.387802777332e-04   1.575718165582e-05 
6 1 -1.010339030647e-04  -6.043241895324e-05  -1.407983255022e-04 
7 1  1.100447022476e-04   1.156452777674e-04   4.072140415433e-04 
8 1  4.061377886846e-04  -4.303372907319e-04   2.489947320514e-04 
8
Step 36000
1 1  4.797120210449e-04  -1.476077257070e-04  -1.582946437305e-04 
2 1  2.207881998667e-04  -4.755954611351e-05  -3.039843815188e-05 
3 1  1.506170622199e-04   6.270910002873e-05  -4.511691852130e-05 
4 1  1.300771791152e-04  -5.559992830310e-05   2.052061715686e-04 
5 1 -2.970378246812e-04   1.711677100098e-04   1.260267985910e-04 
6 1 -7.914409261181e-05  -4.525071278146e-04  -1.122911121573e-04 
7 1  1.920158606128e-04   6.511878059829e-06   2.466978904764e-04 
8 1  1.802766343801e-04  -3.268650913690e-04  -6.001443358258e-05 
8
Step 37000
1 1  4.644221691014e-04  -2.047130077414e-06  -1.339559630199e-04 
2 1  2.271195182918e-04   8.743390580925e-05   2.000219392418e-04 
3 1 -2.261128818192e-05   1.290501793024e-04  -1.188627568281e-04 
4 1  6.923894324119e-05  -5.845183358463e-05   2.707960133890e-04 
5 1 -1.240025479675e-04   4.778176628855e-04   1.843684892258e-04 
6 1  5.857149212193e-05  -4.225489130813e-05   3.715907559527e-05 
7 1 -1.163951062381e-04  -3.251934011441e-05   2.021336235273e-04 
8 1  2.832763133261e-04  -1.281256943470e-04  -3.409640653841e-05 
8
Step 38000
1 1  8.078702524341e-05  -6.359998135192e-05  -1.307672694836e-04 
2 1  2.309637332233e-04   8.917969948653e-05   1.406469834912e-04 
3 1 -1.831348864145e-05   6.400649042031e-05  -1.455991808470e-04 
4 1 -2.166936746367e-05   1.103529935458e-04   1.002251142400e-04 
5 1  1.993523540374e-04   2.436976362466e-04   1.692649728015e-04 
6 1 -2.528582761979e-04   1.139075423566e-04   3.037394966558e-05 
7 1  1.636727782366e-04  -6.556615660781e-05   2.092902971015e-04 
8 1 -1.135787039405e-04  -2.086937636089e-04  -5.163248734526e-05 
8
Step 39000
1 1  1.401954333571e-04   1.223180083387e-04  -1.776984117715e-04 
2 1 -9.598408457463e-05   4.905821365584e-04   1.129004276445e-04 
3 1  1.626914324812e-05  -3.443716846745e-05  -7.834491631775e-05 
4 1 -5.924819037986e-05  -1.269769409530e-05   1.809682841356e-04 
5 1 -3.472035369550e-06  -6.163159998415e-05  -8.762963257881e-05 
6 1 -1.186136172476e-04  -3.770222539783e-05   2.564401066763e-04 
7 1  3.260358586152e-04  -2.499421209465e-04   1.480676709158e-04 
8 1 -4.993386212245e-05   4.188346505316e-06   1.407607822142e-04 
8
Step 40000
1 1  5.083539769608e-05  -1.548678588670e-04  -2.706371220542e-04 
2 1  2.583233238948e-04   1.159835402851e-04   4.257271566129e-05 
3 1  1.094544494042e-04  -2.359006770807e-04  -1.877073861487e-04 
4 1 -3.203334869700e-04   2.063313283410e-04   9.829252589548e-05 
5 1  3.072012594956e-04  -2.305035987673e-04   2.370800245034e-04 
6 1 -9.054842110619e-05   1.937908550092e-05   2.662729359233e-04 
7 1  4.068604237297e-05  -2.723620632157e-04  -1.614815276890e-04 
8 1  3.338710186366e-05  -2.762350726699e-04   2.612494859286e-04 
8
Step 41000
1 1  8.733713763966e-05  -9.580847093346e-05   5.457871549400e-06 
2 1  1.329095306893e-04   9.171719709872e-05  -2.861812790241e-05 
3 1  8.825740822042e-05  -3.143548586366e-04  -1.666255620311e-04 
4 1 -1.692168938472e-04   2.808711497653e-04  -3.176166128437e-05 
5 1  2.989569716635e-04   2.482933934412e-04   1.425505896529e-04 
6 1 -1.090623991370e-04   1.504940683217e-04   2.463936563300e-04 
7 1  1.250919725274e-04  -9.195134207157e-05  -2.117406117503e-06 
8 1 -1.802238754481e-04  -3.369302764126e-04   2.342899184702e-04 
8
Step 42000
1 1 -1.871097563831e-05   3.430928122730e-05   4.539146006409e-05 
2 1  2.379654038918e-04  -3.946971054313e-04   6.454040578390e-05 
3 1 -1.958881967323e-04  -9.369944166831e-05  -1.275056337331e-04 
4 1 -3.114150416686e-04   2.225324011777e-04   1.346049630064e-04 
5 1 -1.148926655544e-04   3.868930716833e-04  -1.440155870238e-04 
6 1  1.183735501997e-04   1.219439561019e-04  -1.019650305508e-05 
7 1  7.764266541837e-05   2.038366307622e-04   1.380094004041e-04 
8 1 -1.568388953082e-04  -3.750821893022e-04   1.568486667493e-04 
8
Step 43000
1 1 -1.478095429332e-04   3.691910569754e-04  -9.317272980823e-05 
2 1  2.799704768315e-04   9.184458980521e-05   2.664933226704e-04 
3 1 -3.133941746561e-04  -3.704185172477e-05  -1.727131266515e-04 
4 1 -1.181156386098e-04  -4.071727117411e-05  -3.480138044330e-04 
5 1 -1.222199454198e-04   5.199603184053e-04   1.881452958028e-04 
6 1  1.553482550032e-04  -1.394546343617e-04   3.809767624959e-05 
7 1 -1.253442150888e-04   3.025299592563e-04   7.177628086590e-05 
8 1 -8.130055816518e-05  -4.230563913505e-04   2.432793964562e-04 
8
Step 44000
1 1  1.949939222227e-05  -7.372000832211e-05  -3.346765720444e-05 
2 1 -6.554111874030e-05  -1.047229541952e-04   1.447535468264e-04 
3 1 -2.268642384109e-04  -1.109572547708e-04  -5.698963084105e-04 
4 1 -1.573260515755e-05  -6.372082886707e-04  -7.017225220282e-05 
5 1 -3.031911737609e-04   1.730472931855e-04   1.144886572845e-04 
6 1  4.082691403928e-05  -9.151746619897e-05   8.564970780260e-05 
7 1 -7.773393936515e-05   3.692633867339e-04   2.330175135131e-04 
8 1 -7.712822390030e-05  -3.397967206294e-04   1.225673282356e-04 
8
Step 45000
1 1  3.329541938664e-04   5.094171745767e-05  -9.986138555431e-05 
2 1 -2.554126382277e-07  -2.367029721442e-04   2.240192690284e-04 
3 1 -2.558861458278e-04   6.813587113077e-05  -2.275767194437e-04 
4 1  2.794072213263e-04  -3.682419235388e-04  -2.103944726032e-04 
5 1 -1.849632113750e-04   5.504921872791e-05   2.401977850964e-04 
6 1 -1.681310553450e-04  -1.815896021882e-04   3.497497551032e-05 
7 1 -1.345690976175e-04   4.386585395144e-04   1.050887546336e-04 
8 1 -1.026574592131e-04  -3.717696349210e-05  -1.408395031424e-04 
8
Step 46000
1 1  6.162001347554e-05  -2.014823266739e-04   4.717296394378e-05 
2 1 -6.193791126927e-05   2.240877413477e-05   3.506886682917e-05 
3 1 -1.457938944391e-04  -3.465747367434e-04  -3.107646925865e-05 
4 1 -2.011877141215e-05   1.213724945499e-04  -4.297079495059e-04 
5 1 -2.350761055215e-04  -3.442840080909e-06   1.735224259819e-04 
6 1 -3.590346416575e-04  -4.642789794126e-05   5.127699233752e-05 
7 1 -1.149700152365e-05   2.663453254602e-04   8.324582087512e-05 
8 1 -5.899718939867e-05   1.708940338588e-04   3.515930051986e-05 
8
Step 47000
1 1 -2.053414006188e-04   1.741413106378e-04  -2.074977068871e-05 
2 1 -1.660931992035e-05   2.284840021463e-04   1.584361632415e-04 
3 1 -1.996148085080e-04  -1.632028897937e-04   5.625241539321e-05 
4 1 -2.313409819949e-04   2.486071791924e-04  -4.130933209139e-04 
5 1 -2.773920387395e-05  -3.468733005038e-04  -6.737918730858e-07 
6 1 -4.390451222864e-04   1.661151949404e-04   7.675798452549e-05 
7 1  2.856413562210e-05   4.432908738189e-05   2.561724549520e-06 
8 1  3.217708421798e-05   4.081952261848e-04  -1.773908165416e-04 
8
Step 48000
1 1 -8.744346092629e-05   9.249079101109e-05  -4.209417596750e-05 
2 1 -3.869940000902e-05   1.790859324701e-04   1.641859290985e-04 
3 1 -2.673227571596e-04  -6.036065730853e-04  -9.186729870640e-05 
4 1 -1.946786023512e-04   7.633599284043e-05  -4.972701099903e-04 
5 1 -1.067943636414e-04  -4.235163971718e-04   1.868727959199e-04 
6 1 -3.064304209060e-04   1.325575333283e-04   6.020549668775e-04 
7 1  5.130698609712e-05   8.127801274077e-05   4.632279580910e-05 
8 1 -2.245166769225e-04   2.877561774752e-04  -5.973283056097e-04 
8
Step 49000
1 1 -1.984356146835e-04  -3.995648233214e-05  -6.343702977842e-05 
2 1  2.021088410213e-04   4.840969919154e-07   4.785908376077e-05 
3 1  2.223802197853e-04  -2.636207250079e-04  -2.373103792721e-04 
4 1 -3.780638417918e-04   4.342411485030e-05  -1.585480687302e-04 
5 1  7.580216925243e-05  -4.450808290973e-04   4.150050722526e-05 
6 1 -1.779410282238e-04   9.569958281491e-05   4.464305723716e-04 
7 1 -6.993019247790e-05   1.092174946914e-04  -2.890915109512e-04 
8 1 -2.459097962008e-04   2.394486290826e-04  -3.351739872916e-04 
8
Step 50000
1 1  5.345164780847e-06  -1.262272717511e-04  -2.053273695437e-04 
2 1  1.179978564582e-04  -1.685765534176e-04   2.456673604999e-04 
3 1 -3.563557609649e-04  -3.020087910689e-04   1.225121035162e-04 
4 1 -2.451050149515e-04  -1.536926856088e-05  -2.469857693398e-04 
5 1  8.879569490346e-05  -6.372826333988e-05   1.580525293692e-04 
6 1 -3.815821967213e-04  -1.932151383651e-04   1.631007650973e-04 
7 1 -1.522310837434e-04   2.277563058715e-04  -3.078114101423e-04 
8 1  2.034051252395e-05   4.345884606843e-04  -2.035680499682e-04 
8
Step 51000
1 1  8.468701026868e-05   1.503740845315e-04   4.761300780707e-05 
2 1  1.475121611013e-04  -3.128947500600e-05   9.005370749923e-05 
3 1 -3.387973038654e-04   5.684209835054e-05   7.361275947688e-05 
4 1 -2.769884658068e-04   4.348453264298e-05  -2.178432254997e-04 
5 1 -1.778654275459e-04   2.917322575547e-04   2.216008663946e-04 
6 1 -1.522383001890e-04  -4.271402457209e-05  -6.749326215562e-05 
7 1  2.948611906831e-06   4.393169336146e-04  -4.160042565941e-04 
8 1 -1.753304944459e-05   6.427780440828e-05  -3.004788315767e-04 
8
Step 52000
1 1 -1.026880855714e-04   1.376906461744e-04  -5.241041890861e-05 
2 1 -1.369077256477e-04  -3.894784708370e-04  -1.614014606912e-04 
3 1 -3.542956599675e-04  -1.466033174167e-04   2.880995438804e-04 
4 1 -1.065405594033e-04   5.889881044381e-06  -2.844674657998e-04 
5 1 -1.958135923408e-04   5.262708950922e-04   2.656268251380e-04 
6 1 -2.611349219368e-05  -1.546719959623e-04   1.592105115346e-04 
7 1 -1.487058276154e-04   3.589234430056e-04  -2.142891791228e-04 
8 1 -1.187968511267e-04  -5.463250991141e-05  -2.902764740132e-04 
8
Step 53000
1 1 -4.715954596140e-05   1.721975577225e-04   1.225653660648e-04 
2 1 -2.548031666584e-06  -1.301110169434e-04  -1.162244767028e-04 
3 1 -2.206740911488e-04  -1.508575047784e-04   1.309176351286e-04 
4 1  2.010847215814e-04  -2.484851781941e-04  -5.102934031729e-04 
5 1 -1.723942502017e-04   2.310313216727e-04   3.628273038756e-04 
6 1  2.821615734911e-05  -5.269104095347e-05  -2.914286004437e-04 
7 1  1.073037579448e-04   2.346510638013e-04  -1.753571141154e-04 
8 1 -2.422299742466e-04  -1.982075893200e-04  -1.787918218068e-04 
8
Step 54000
1 1  1.602775399785e-04   1.756429597196e-04  -8.756183895368e-05 
2 1 -5.219177535909e-05  -1.157475435581e-04   3.044293018985e-05 
3 1 -4.272265287393e-04  -9.014768231704e-05   2.016701425449e-05 
4 1  2.519767819472e-04  -1.831392730390e-04  -2.344851430170e-04 
5 1 -1.316906975385e-05  -2.676173835929e-04   3.076500903415e-04 