8
Step 0
1 1  0.000000000000e+00   0.000000000000e+00   0.000000000000e+00 
2 1  0.000000000000e+00   0.000000000000e+00   0.000000000000e+00 
3 1  0.000000000000e+00   0.000000000000e+00   0.000000000000e+00 
4 1  0.000000000000e+00   0.000000000000e+00   0.000000000000e+00 
5 1  0.000000000000e+00   0.000000000000e+00   0.000000000000e+00 
6 1  0.000000000000e+00   0.000000000000e+00   0.000000000000e+00 
7 1  0.000000000000e+00   0.000000000000e+00   0.000000000000e+00 
8 1  0.000000000000e+00   0.000000000000e+00   0.000000000000e+00 
8
Step 100
1 1  3.782609031674e-04  -4.123709053544e-05  -2.166762568360e-04 
2 1  1.942983883285e-04  -3.205757088507e-04   3.644058747966e-05 
3 1 -2.142703823419e-04  -2.178915640537e-04  -3.905347599777e-06 
4 1  1.612938231277e-04  -3.127246170115e-04  -7.910475684333e-05 
5 1  1.885176759617e-04  -3.877823505925e-04  -2.579529002160e-04 
6 1  2.197225385656e-04   4.596723716267e-04   2.112502769480e-04 
7 1  7.047608882256e-05   1.627271688708e-04  -3.442215138096e-04 
8 1 -2.512537726147e-05   3.785111375911e-04   3.417709192992e-05 
8
Step 200
1 1  1.221166826881e-04  -7.197092349578e-05   1.702849130901e-04 
2 1 -1.664391967860e-04   2.322999300128e-04   1.997261954770e-04 
3 1  2.794182059497e-05   1.305109480208e-04   2.884801356745e-05 
4 1 -3.853112080729e-04  -1.108119653117e-04  -1.287856601409e-04 
5 1 -3.622182676139e-04  -2.294937293872e-04  -1.542275774044e-05 
6 1  1.708702719188e-04  -3.142915755509e-05  -1.950142953235e-04 
7 1  7.581620706519e-05   2.115738689707e-04   1.242134381484e-04 
8 1  1.773368237173e-04   3.549058214060e-04   1.149802646143e-04 
8
Step 300
1 1 -1.735580041525e-04  -1.330406712635e-04   3.019716808287e-04 
2 1 -2.884138997730e-04   4.132911208086e-04   1.559035139959e-04 
3 1  2.183310902471e-04   2.537769553624e-04   5.420218046390e-05 
4 1 -4.375081773812e-04   1.839403429862e-04  -1.828048181906e-04 
5 1 -4.029885787871e-04   1.270703808385e-04   2.375039198072e-04 
6 1 -4.646066569463e-05  -4.467996025277e-04  -2.406528453237e-04 
7 1 -1.616245550571e-05   2.081461672190e-05   3.955603428880e-04 
8 1  2.522873265303e-04  -8.214676429599e-05   6.212864653948e-05 
8
Step 400
1 1 -1.812779981255e-04  -1.263680619820e-04   5.491094184853e-05 
2 1 -3.404937934418e-05   4.900650050840e-05  -5.870921069333e-05 
3 1  1.872390799027e-04   4.480031011228e-05   2.277707685268e-05 
4 1  5.914895001887e-06   1.898123965183e-04  -2.069820143936e-04 
5 1  7.284957607435e-05   2.960798615316e-04   2.072184392524e-04 
6 1 -2.142235704241e-04  -3.449902611098e-04   9.762600032361e-05 
7 1 -1.672883518373e-06  -2.156882885177e-04   1.627132352462e-04 
8 1  1.045708440027e-04  -3.428336236348e-04  -1.280264925763e-04 
8
Step 500
1 1 -2.129106988939e-05   3.975275234313e-05  -2.523024011644e-04 
2 1  1.908203204036e-04  -3.068690929376e-04  -1.375697578917e-04 
3 1  4.758434997358e-05  -1.602155229674e-04  -5.637582057216e-05 
4 1  3.554989200936e-04  -5.653284058165e-05  -1.018965548759e-04 
5 1  4.343202509704e-04   1.426853118071e-04  -4.325677747366e-05 
6 1 -2.233392655593e-04   8.795276934192e-05   3.105807589385e-04 
7 1  1.326480756104e-04  -2.321910313397e-04  -2.452181008940e-04 
8 1 -1.366749467834e-04  -1.062712333138e-04  -2.156140106807e-04 
8
Step 600
1 1  3.571014406182e-05   2.590615331156e-04  -2.735310159733e-04 
2 1  8.614833209152e-05  -1.841574342290e-04   2.864172057790e-05 
3 1 -2.727204801619e-05  -1.050691374815e-04  -5.685426032746e-05 
4 1  1.979188511740e-04  -2.216897241166e-04   1.025807586869e-04 
5 1  2.516499544928e-04  -1.067035310558e-04  -1.668692642921e-04 
6 1 -8.567082635314e-05   3.222722438042e-04   8.356618509676e-05 
7 1  1.984218203693e-04  -2.144252545395e-05  -3.330064087707e-04 
8 1 -2.498737125861e-04   2.912631746745e-04  -4.992020312195e-05 
8
Step 700
1 1 -3.811096468899e-05   2.845168211957e-04  -2.064905696724e-05 
2 1 -1.466511518610e-04   1.822102321942e-04   2.215802815336e-04 
3 1 -5.739784396432e-06   9.380557732371e-05   7.076298763898e-05 
4 1 -2.002393836908e-04  -1.024854203334e-04   2.128739213686e-04 
5 1 -2.112777963291e-04  -1.795625262985e-04  -3.184226433980e-05 
6 1  1.128907339290e-04   1.159095841336e-04  -2.892660054500e-04 
7 1  6.196877255332e-05   1.781866222311e-04  -3.946285537732e-05 
8 1 -1.348482163315e-04   3.139551755164e-04   1.965278777257e-04 
8
Step 800
1 1 -5.709243587232e-05   3.483766562913e-05   2.097649276640e-04 
2 1 -1.375895594202e-04   2.327278959609e-04   1.543681881239e-04 
3 1 -3.073934301672e-06   1.524511620558e-04   1.918563741675e-04 
4 1 -2.721140873128e-04   1.311647836137e-04   1.068144058544e-04 
5 1 -3.913655810847e-04  -3.469882996391e-05   1.253078699255e-04 
6 1  2.594009434685e-04  -2.303588767744e-04  -3.221563461929e-04 
7 1 -1.633834317185e-04   1.770065171742e-04   2.335619807244e-04 
8 1  7.892662901420e-05  -7.517397645671e-05   2.219077503821e-04 
8
Step 900
1 1  5.565125203679e-05  -2.644511378019e-04   1.902282836545e-04 
2 1  1.156840189206e-04  -1.029725459454e-04  -1.324029941259e-04 
3 1 -7.719469303959e-05  -8.804216197872e-06   1.321990161679e-04 
4 1  6.553128425159e-05   1.938538008358e-04  -6.838748122057e-05 
5 1 -1.215360563506e-04   1.347640353058e-04   5.826837903424e-05 
6 1  2.344817479605e-04  -2.515504581628e-04   1.429605114840e-05 
7 1 -2.443633931814e-04   2.543000566531e-05   1.597516707222e-04 
8 1  1.754603850930e-04  -3.884530993901e-04  -9.972930228011e-06 
8
Step 1000
1 1  1.349037466596e-04  -3.054281245885e-04   1.645425881300e-05 
2 1  2.605980135556e-04  -3.289528438638e-04  -3.052296750867e-04 
3 1 -1.392093743783e-04  -1.771887216991e-04  -9.872167188568e-05 
4 1  3.314282419041e-04   6.247392346222e-05  -7.025213299655e-05 
5 1  2.344453236262e-04   1.353754194051e-04  -1.370666379902e-04 
6 1  2.791948183011e-05   7.989550840523e-05   2.806018749613e-04 
7 1 -1.025570831593e-04  -9.927777584433e-05  -1.089840041361e-04 
8 1  8.159343540891e-05  -2.515837877432e-04  -2.112889311094e-04 
8
Step 1100
1 1  4.745894459953e-05  -4.579644144842e-05  -7.083797964810e-05 
2 1  6.679384128941e-05  -9.014963562227e-05  -1.717284764997e-04 
3 1 -9.191216845190e-05  -1.652634086046e-04  -2.568519328879e-04 
4 1  1.652773447037e-04  -5.674626151378e-05   1.002019064547e-04 
5 1  2.821591022753e-04  -2.844988189584e-05  -1.600947295915e-04 
6 1 -1.805107889538e-04   3.768290642041e-04   1.649764373742e-04 
7 1  9.536332826079e-05  -1.109380599711e-04  -1.837692373566e-04 
8 1 -6.995805911217e-05   1.404697647547e-04  -1.414894141543e-04 
8
Step 1200
1 1 -8.536762718548e-05   2.274683723429e-04  -3.259340683262e-06 
2 1 -2.384013588046e-04   3.237712632432e-04   9.996804671105e-05 
3 1  5.551173680004e-05   1.990420364298e-06  -1.733330988987e-04 
4 1 -1.942182759239e-04  -4.661766756891e-05   1.757236113343e-04 
5 1  3.371477501931e-05  -1.791881866760e-04   6.053225453203e-05 
6 1 -2.242995224443e-04   3.100625903621e-04  -1.164351656866e-04 
7 1  1.426318521317e-04  -5.334455845078e-05   3.520622301195e-05 
8 1 -1.010545743971e-04   3.123647639168e-04   8.773924153559e-05 
8
Step 1300
1 1 -6.231010647629e-05   2.289672138045e-04   6.773643856215e-05 
2 1 -2.473582464074e-04   3.716730326785e-04   1.923740679174e-04 
3 1  1.389334814058e-04   1.619873551408e-04   5.159268117818e-05 
4 1 -2.665952289421e-04  -7.936637993322e-06  -1.375035882542e-06 
5 1 -1.880035074650e-04  -1.481187446767e-04   2.500735617434e-04 
6 1 -8.619440739665e-05  -5.761384852763e-05  -1.769772096849e-04 
7 1  2.718671222079e-05   1.357095148954e-05   2.395655662290e-04 
8 1  5.956532241250e-06   1.132834554787e-04   1.666359356154e-04 
8
Step 1400
1 1  9.977639290254e-05  -1.175188018143e-05   1.291936472676e-06 
2 1  5.437287290908e-05  -3.100019135724e-05   4.062887868284e-05 
3 1  6.095751962485e-05   1.843952163964e-04   1.693264139266e-04 
4 1  9.923386363644e-06  -5.920721651335e-05  -2.229529574536e-04 
5 1 -1.643523636907e-04   4.882158585797e-05   1.491216455388e-04 
6 1  7.523192124791e-05  -3.402918836672e-04   1.732134720958e-05 
7 1 -7.936968417233e-05   6.996493741247e-05   1.399698779624e-04 
8 1  1.055341470939e-04  -1.546796014919e-04  -5.941724493161e-07 
8
Step 1500
1 1  1.547390760441e-04  -2.088516909676e-04  -1.275011783012e-04 
2 1  2.659446728015e-04  -3.955239002660e-04  -9.977017521276e-05 
3 1 -8.066901186747e-05   7.172205778220e-05   7.886558345386e-05 
4 1  2.227466571381e-04  -1.430143110118e-04  -1.859477332598e-04 
5 1  1.471339095689e-05   2.025821031955e-04  -1.420336789609e-04 
6 1  1.211599887242e-04  -2.675955510473e-04   1.537718829023e-04 
7 1 -4.112297494716e-05   9.166728461049e-05  -1.470883702063e-04 
8 1  7.667936226637e-05  -1.780473577228e-04  -1.755796468630e-04 
8
Step 1600
1 1 -3.176927739144e-05  -1.520237952701e-04  -1.398393998974e-04 
2 1  1.216507424862e-04  -2.938539387372e-04  -2.041893398546e-05 
3 1 -8.915071351131e-05  -8.034094955892e-05  -7.560373170807e-05 
4 1  5.860147764275e-05  -8.392398618870e-05   7.580505056903e-05 
5 1  1.184173872882e-04   1.272696674274e-04  -2.801023948038e-04 
6 1  5.390030620831e-05   1.538596089733e-05   6.154963825304e-05 
7 1  8.654696173395e-05   3.662061337759e-05  -2.574673592835e-04 
8 1 -3.668671971370e-05  -6.137539542725e-06  -1.078088432329e-04 
8
Step 1700
1 1 -2.604044010212e-04   7.123218498762e-05  -9.685086713115e-06 
2 1 -1.692240236389e-04   1.191923807385e-04   1.506050787642e-04 
3 1  6.163252557082e-05  -1.629879336375e-04  -9.963185666986e-05 
4 1 -2.502731986456e-04   1.390325428457e-04   2.145394779467e-04 
5 1  4.809602505027e-05  -1.042539298670e-04  -8.537679066032e-05 
6 1 -2.463150402076e-05   1.572828663173e-04  -8.015221230635e-05 
7 1  1.321812234174e-04  -7.602204580731e-05  -5.896485322109e-05 
8 1 -1.011080079552e-04   9.635823246626e-05   1.292374989475e-04 
8
Step 1800
1 1 -2.439702935298e-04   2.066659789660e-04   1.191192598972e-04 
2 1 -2.154216644639e-04   3.322434540728e-04   1.275118760797e-04 
3 1  1.607020951863e-04  -1.126796515570e-04   3.884785097565e-05 
4 1 -2.424734282695e-04   2.812255290397e-04   2.751168061216e-05 
5 1 -6.071121395498e-05  -2.202711672763e-04   1.949131481974e-04 
6 1 -4.870400743849e-05   3.864675075744e-05  -4.722327059074e-05 
7 1  1.307996317082e-05  -1.233283738131e-04   1.851421223039e-04 
8 1 -5.858601997828e-05   3.198195880867e-05   2.307601998005e-04 
8
Step 1900
1 1  2.962909412805e-05   1.189928482841e-04   1.157592170055e-04 
2 1  2.919563153889e-05   1.189790441370e-04  -1.144855767923e-04 
3 1  5.759494130179e-05   3.349281299796e-05   1.843762540060e-04 
4 1  1.239337035707e-04   1.285623101441e-04  -2.375835570186e-04 
5 1 -6.112952463865e-05  -7.434821076130e-05   2.025656358981e-04 
6 1 -3.308198213805e-05  -1.038615839796e-04   7.160821572842e-05 
7 1 -1.578731729457e-04  -1.685587981383e-05   1.701486830258e-04 
8 1  1.055222622918e-05  -3.108352636491e-05   5.639106299311e-05 
8
Step 2000
1 1  2.675014719487e-04  -8.769061517226e-05  -4.997379993010e-07 
2 1  2.166362489625e-04  -2.002494568750e-04  -2.653950480446e-04 
3 1 -1.386115663230e-04   1.282234503363e-04   1.621038142694e-04 
4 1  4.044631769428e-04  -1.883507863133e-04  -1.934489775654e-04 
5 1  3.849831092996e-05   1.692782913752e-04  -6.101757099838e-05 
6 1 -1.089278161540e-05  -3.168016854417e-05   4.044987103656e-05 
7 1 -1.868753171255e-04   1.417526188370e-04  -5.438485338491e-05 
8 1  1.104863534385e-05   4.704491936540e-05  -1.818285059767e-04 
8
Step 2100
1 1  2.288865376030e-04  -1.985310184406e-04  -8.557400633120e-05 
2 1  9.354590580836e-05  -2.072859088064e-04  -8.305413228169e-05 
3 1 -1.749586451252e-04   5.492305505865e-05  -2.843790660362e-05 
4 1  2.146212954338e-04  -3.122527585594e-04   1.373647502769e-04 
5 1  1.090973707127e-04   2.198648861952e-04  -2.398625477560e-04 
6 1  1.971880853537e-05   1.645130322697e-04  -1.283350885471e-04 
7 1 -1.574558204580e-05   1.425324447698e-04  -1.696391662843e-04 
8 1 -3.054080933310e-05   1.577608321539e-04  -1.871918324500e-04 
8
Step 2200
1 1  1.108650048221e-05  -1.253488475633e-04  -4.086604529381e-05 
2 1 -1.566525605329e-04   7.340344830366e-05   2.532207869246e-04 
3 1  9.827154640424e-06  -1.080479788980e-04  -2.163746109306e-04 
4 1 -2.390411229841e-04  -9.115972336355e-05   3.290739781017e-04 
5 1  5.825642264677e-05   1.998545822041e-05  -7.308948617518e-05 
6 1  5.380426956391e-05   2.180940265061e-04  -1.955204645566e-04 
7 1  1.887965488804e-04  -6.411207169618e-05  -2.398237166233e-05 
8 1 -1.531262961962e-05   9.316625454121e-05   3.754945617442e-05 
8
Step 2300
1 1 -1.120055071874e-04   2.519326479066e-05   7.180038086372e-05 
2 1 -1.791028067131e-04   2.650618709802e-04   3.068417295868e-04 
3 1  1.675716872512e-04  -1.367807403756e-04  -2.396864377038e-04 
4 1 -3.869339979844e-04   2.264509248877e-04   1.089380367121e-04 
5 1 -6.116631569457e-05  -1.841165246471e-04   2.439080477472e-04 
6 1  4.676582570772e-05   3.533665441021e-05  -5.585668179160e-06 
7 1  2.016428637478e-04  -2.460905271785e-04   1.612039700759e-04 
8 1  8.008654661759e-05  -1.478187935137e-04   1.916130764810e-04 
8
Step 2400
1 1 -6.011487504158e-05   1.329886594424e-04   1.022206622232e-04 
2 1  6.367813725116e-05   1.179407436269e-04  -4.272952267420e-05 
3 1  6.737745326129e-05   5.775959719655e-05  -9.491839596628e-05 
4 1 -2.570629121286e-05   2.657385750243e-04  -2.388345899399e-04 
5 1 -1.421364428322e-04  -1.326008646206e-04   2.887219534126e-04 
6 1 -1.776121679320e-06  -1.783431457791e-04   2.504281237468e-04 
7 1 -6.152912087523e-06  -1.491167898187e-04   1.014541036826e-04 
8 1  1.486887057475e-04  -3.091596141728e-04   6.160423121652e-05 
8
Step 2500
1 1  1.284872293158e-05   1.563832225566e-04  -9.419112642140e-07 
2 1  2.209888815709e-04  -1.703465026166e-04  -3.916557864044e-04 
3 1 -1.628727522514e-04   2.703056035595e-04   9.311154524437e-05 
4 1  3.789256408630e-04  -2.666938482066e-05  -2.048701945898e-04 
5 1 -1.196680648724e-04   9.824232819367e-05  -4.350694956802e-05 
6 1 -3.556992849530e-05  -1.811720521527e-04   2.316224921960e-04 
7 1 -2.079006480945e-04   1.582971627133e-04  -1.396676539009e-04 
8 1  7.957263412875e-05  -1.796529754913e-04  -1.879923245894e-04 
8
Step 2600
1 1 -3.008003221844e-05   1.075907993707e-04  -1.114883338552e-04 
2 1  6.914977688216e-05  -2.366434831055e-04  -2.921895557352e-04 
3 1 -1.900190020256e-04   1.928895579650e-04   1.876794586641e-04 
4 1  2.926499593652e-04  -2.717341459566e-04   1.858635491716e-04 
5 1 -3.664591855915e-07   1.595475405653e-04  -3.423051882687e-04 
6 1 -1.860055192669e-05  -6.316830918463e-06  -7.629231436550e-05 
7 1 -1.768641785162e-04   3.172215593134e-04  -2.189942298724e-04 
8 1 -7.928869392460e-05   1.311325450613e-04  -2.133809851332e-04 
8
Step 2700
1 1 -9.102949014414e-05   3.308619938600e-06  -9.609783090593e-05 
2 1 -1.906177072374e-04  -4.714026937448e-05   1.724490363136e-04 
3 1  7.229408686019e-05  -1.568720818987e-04   1.366689135595e-04 
4 1 -2.055569539552e-04  -1.367868509791e-04   3.544225537624e-04 
5 1  1.408293416681e-04  -7.389941169098e-05  -2.300421216053e-04 
6 1  1.690583752567e-05   1.026375209919e-04  -2.893600361193e-04 
7 1  4.388472615444e-05   1.146940922672e-04   6.224426527578e-07 
8 1 -1.546894621405e-04   3.046590403144e-04   4.805001559987e-05 
8
Step 2800
1 1 -1.789374103115e-05  -1.381409972743e-04   2.831087637300e-05 
2 1 -1.995054251441e-04   1.349134383971e-04   4.245955768059e-04 
3 1  2.842769668380e-04  -3.761174532760e-04   1.106442784519e-05 
4 1 -4.985413603731e-04   1.981628318658e-04  -4.158565632528e-06 
5 1  1.949595127298e-04  -2.955172580894e-04   1.369732995515e-04 
6 1 -1.803127327622e-05   3.788134927237e-05  -1.316090929921e-04 
7 1  1.923328027090e-04  -2.205799905510e-04   2.347717800204e-04 
8 1 -6.634056894649e-05   1.746300089810e-04   2.803581378775e-04 
8
Step 2900
1 1  9.516638779835e-05  -2.195765740621e-04   1.020141725861e-04 
2 1  6.064573391146e-05   9.215230117703e-05   1.557407627048e-04 
3 1  1.422614108422e-04  -1.694295380387e-04  -5.737042893389e-05 
4 1 -2.286213130957e-04   2.838989977524e-04  -4.491317261322e-04 
5 1  1.030426200849e-04  -1.443286847107e-04   2.723287995646e-04 
6 1 -1.107042137904e-04  -5.996926259685e-05   1.846090323564e-04 
7 1  1.121062298197e-04  -2.912903951021e-04   1.692497771193e-04 
8 1  5.948783575975e-05  -1.021841211013e-04   1.945966418832e-04 
8
Step 3000
1 1  4.534783863148e-05  -1.264725047537e-04   2.709412490909e-05 
2 1  2.346067434490e-04  -6.911190251381e-05  -2.744198131730e-04 
3 1 -1.762080080185e-04   2.399106016746e-04  -1.168184224853e-05 
4 1  2.809456507554e-04  -5.091647393261e-06  -3.813117627555e-04 
5 1 -6.959359017909e-05   2.576296955877e-04   3.498843547196e-05 
6 1 -1.299400148615e-04  -3.968634636146e-05   2.450431788235e-04 
7 1 -7.091844172216e-05  -2.524718720114e-05  -1.033632016070e-04 
8 1  5.089176580251e-05  -2.448275280631e-04  -1.057374986666e-04 
8
Step 3100
1 1 -1.322140113488e-04   1.010431898515e-04  -9.482894127507e-05 
2 1  1.063338518465e-04  -1.041034858584e-04  -3.455306655767e-04 
3 1 -2.494325494056e-04   3.615223602914e-04   7.544183926909e-05 
4 1  4.370042473200e-04  -3.332215435547e-04   1.199977962236e-04 
5 1 -1.821864188046e-04   4.244614230849e-04  -2.044942960832e-04 
6 1  2.329307746759e-05   4.171038776624e-05   4.217465438209e-06 
7 1 -1.200887659561e-04   2.453685750989e-04  -2.022111180722e-04 
8 1 -8.048759368282e-05  -1.335405278387e-04  -2.587721924543e-04 
8
Step 3200
1 1 -1.630670392236e-04   2.443635324567e-04  -9.260099126100e-05 
2 1 -1.198267869350e-04   3.807323250289e-05  -8.200314156847e-06 
3 1  2.798860495023e-05   3.942847232315e-05   4.758712586811e-05 
4 1  1.114748829808e-04  -2.932537095076e-04   3.979354760222e-04 
5 1 -1.393089506234e-04   1.307409420538e-04  -1.115921571368e-04 
6 1  2.150845342164e-04   3.129343615266e-05  -1.848861303166e-04 
7 1 -8.465121516547e-06   2.065040147606e-04  -2.207220868600e-07 
8 1 -1.459494005591e-04   1.083025745172e-04  -9.745294411262e-05 
8
Step 3300
1 1  6.723365816995e-05   1.317880672487e-04   3.050699408112e-05 
2 1 -1.469825858886e-04   1.808980307860e-04   3.085130014657e-04 
3 1  2.754554153993e-04  -3.372128395588e-04  -1.159481657305e-04 
4 1 -2.489166307523e-04   7.810184210364e-05   1.400173633459e-04 
5 1 -9.222246499839e-06  -2.897485200801e-04   1.392613862601e-04 
6 1  2.085837317673e-04  -5.465792901614e-05  -9.901468246005e-05 
7 1  8.547766736422e-05  -5.343928679505e-05   1.985777113535e-04 
8 1 -2.358910174489e-05   2.580810333236e-04   1.623702863199e-04 
8
Step 3400
1 1  2.878899660784e-04  -1.260573313534e-04   9.693122895825e-05 
2 1  1.752046031765e-05   1.400829324124e-04   2.672698120042e-04 
3 1  1.283433229328e-04  -2.893714637825e-04  -2.496505532847e-04 
4 1 -2.343757326235e-04   3.477695438822e-04  -2.289843175394e-04 
5 1  5.728614992728e-05  -3.454125337088e-04   1.522690937738e-04 
6 1  2.474329052527e-06  -8.144701555429e-05   1.006108024729e-04 
7 1  3.272867692640e-05  -2.097853461328e-04   9.785096752985e-05 
8 1  1.782240126577e-04   1.828045210835e-04   2.131368325772e-04 
8
Step 3500
1 1  1.969593584373e-04  -2.598501853245e-04   3.852364879594e-05 
2 1  1.213448780184e-04  -3.564119176657e-05  -4.698240697456e-05 
3 1 -2.235721706854e-04   1.129373786824e-04  -1.369903915237e-04 
4 1  5.762104393252e-05   2.265603010354e-04  -1.931219021248e-04 
5 1  3.175939223841e-05  -1.989881444088e-05  -7.574524303611e-05 
6 1 -1.940934942814e-04   8.475040006347e-06   9.903027456499e-05 
7 1 -8.379155922150e-05  -1.204062848905e-04  -1.707074565308e-04 
8 1  2.411381111489e-04  -5.540747772811e-05   2.449879159038e-05 
8
Step 3600
1 1 -1.346665009563e-04  -1.143017446268e-04  -6.176177860192e-05 
2 1  3.081683980674e-05  -1.574943138101e-04  -2.419854507071e-04 
3 1 -3.108354803790e-04   3.515773572810e-04   1.708689251114e-04 
4 1  2.297167974184e-04  -1.088994015331e-04   1.464264702477e-04 
5 1 -1.780475002675e-06   2.392001865893e-04  -1.785789195289e-04 
6 1 -1.508754465549e-04   1.128186509411e-04  -1.042929660545e-04 
7 1 -8.823918617041e-05   5.556106430697e-05  -2.313598485776e-04 
8 1  8.483158944516e-05  -2.486641168561e-04  -1.789410123462e-04 
8
Step 3700
1 1 -3.227988466962e-04   1.845829415049e-04  -5.919434072002e-05 
2 1 -1.290672916830e-04  -1.263675803751e-04  -1.439109519566e-04 
3 1  2.461303322702e-07   1.427456642755e-04   3.324631666319e-04 
4 1  1.017240010715e-04  -2.653239821706e-04   2.751116582446e-04 
5 1  3.486046531489e-05   1.265664100842e-04   2.679721350760e-05 
6 1  8.064889768993e-05   9.907787191036e-05  -1.879749674073e-04 
7 1  2.664239875664e-05   1.127555729394e-04   1.232525205947e-05 
8 1 -1.476829647163e-04  -2.149546889250e-04  -1.933907747683e-04 
8
Step 3800
1 1 -1.458631862959e-04   3.258576665838e-04   5.781656947866e-05 
2 1 -1.462894837262e-04  -7.729982026074e-06   7.025422501523e-05 
3 1  3.177519147039e-04  -2.073501755022e-04   1.214910036623e-04 
4 1 -1.235503605155e-04  -1.062502895964e-04   1.587266292103e-05 
5 1  9.602250546692e-05  -1.467207405486e-04   2.582501026179e-04 
6 1  1.938239333369e-04  -2.334628063733e-06   5.148645838423e-06 
7 1  1.055454989485e-04   3.980211798849e-05   2.429365503463e-04 
8 1 -2.449362647068e-04   2.157903337605e-05  -3.478465463665e-05 
8
Step 3900
1 1  1.872291753690e-04   1.396156178819e-04   1.333787612570e-04 
2 1  7.540241672921e-06   6.609708867161e-05   1.518541693724e-04 
3 1  2.408383754394e-04  -2.331362031118e-04  -2.470284348160e-04 
4 1 -1.799257137642e-04   1.287887704176e-04  -2.381402974173e-04 
5 1  7.108181958009e-05  -1.695149825734e-04   1.548037591422e-04 
6 1  2.430741512029e-05  -5.052972010826e-05   2.285365770026e-04 
7 1  4.196533624949e-05  -1.968043395358e-05   1.553178221630e-04 
8 1 -1.245859914597e-04   2.169249751536e-04   1.207211790169e-04 
8
Step 4000
1 1  2.968629925246e-04  -1.966930034550e-04   4.678649017022e-05 
2 1  1.571927828808e-04   3.375977206078e-05   5.917313104888e-05 
3 1 -1.268214809023e-04   6.844286046136e-05  -3.328547736810e-04 
4 1 -4.372645074981e-05   1.571083514726e-04  -1.153170421688e-04 
5 1 -5.187558173467e-05   1.084042685549e-04  -2.046964771690e-04 
6 1 -2.216034990229e-04   4.062421717487e-06   1.699746968572e-04 
7 1 -6.453808542703e-05   1.213729732931e-06  -1.356869924012e-04 
8 1  9.671499103183e-05   1.494764142755e-04   1.437024408747e-04 
8
Step 4100
1 1  8.664161640913e-05  -3.473685645172e-04  -1.068802163950e-04 
2 1  1.423454165904e-04  -3.089611067231e-05  -7.245720588122e-05 
3 1 -3.063026818695e-04   2.463760909115e-04  -2.425465598561e-05 
4 1  1.062466244445e-04  -9.660236812891e-06   1.862730603280e-04 
5 1 -1.548394512726e-04   3.018270569458e-04  -3.690113812135e-04 
6 1 -2.086903480068e-04   3.883606063464e-05  -1.012504755646e-04 
7 1 -6.073410366803e-05   4.537084378579e-05  -2.401841271395e-04 
8 1  2.193309664949e-04  -1.102283605828e-04   5.456849589764e-05 
8
Step 4200
1 1 -1.695103438809e-04  -1.670311701836e-04  -1.510975180471e-04 
2 1  1.171870593526e-05  -1.639583848956e-05  -1.234390545866e-04 
3 1 -7.916443260866e-05   3.826414530814e-05   3.146356199851e-04 
4 1  1.047108406741e-04  -1.225763992178e-04   1.912740636294e-04 
5 1 -1.208903685174e-04   1.060991117698e-04  -1.066104070040e-04 
6 1  8.685884529829e-05  -5.270309178057e-05  -2.159835220261e-04 
7 1  4.590453381663e-05   3.236057225777e-05  -9.101153839068e-06 
8 1  1.378149582652e-04  -2.470213025746e-04  -3.678620375875e-05 
8
Step 4300
1 1 -1.953873692645e-04   1.555652272305e-04  -4.218384570372e-05 
2 1 -6.485743078789e-05   7.459528399263e-05  -7.733995199444e-05 
3 1  2.209158608871e-04  -2.552621243959e-04   2.745187651843e-04 
4 1 -3.235021208594e-05  -3.615311048212e-05  -1.496523361758e-04 
5 1  3.019294079459e-05  -2.718045985827e-04   2.737700186077e-04 
6 1  3.128613048874e-04  -1.720561201640e-04  -1.713078792045e-05 
7 1  9.772251895026e-05  -3.555975496164e-05   2.544262769904e-04 
8 1 -7.611779437359e-05  -6.840658052186e-05  -5.167266869749e-05 
8
Step 4400
1 1 -4.137841306288e-05   2.945007489963e-04   8.423396897528e-05 
2 1 -4.151821691476e-05   1.370527223383e-04  -1.940739211867e-06 
3 1  1.838307636018e-04  -2.022016435501e-04  -7.897443301368e-05 
4 1 -1.288162622512e-04   1.163682990693e-04  -3.593864815866e-04 
5 1  1.619961035213e-04  -3.645160657901e-04   3.184777494457e-04 
6 1  1.770019175656e-04  -1.269155408539e-04   2.085458117584e-04 
7 1  7.433461112930e-06  -9.852935110873e-05   1.962983832212e-04 
8 1 -2.315987943136e-04   2.365640640398e-04  -1.047924535808e-05 
8
Step 4500
1 1  5.275879065413e-05   1.348525748829e-04   8.078161606102e-05 
2 1 -1.152295985193e-05   7.776493042956e-05   5.749465874817e-05 
3 1 -1.020224701028e-04   1.329948824986e-04  -3.014334245352e-04 
4 1 -6.977162607723e-05   1.116044536658e-04  -1.113193850328e-04 
5 1  1.588572177598e-04  -5.590073955541e-05   1.476992174666e-05 
6 1 -1.712480598506e-04   8.699827018765e-05   1.279820991180e-04 
7 1 -1.119687607942e-04  -1.071758199101e-04  -1.106932759408e-04 
8 1 -1.837390426934e-04   3.049326923434e-04   6.765009583842e-06 
8
Step 4600
1 1  1.130546385893e-05  -1.311348055196e-04  -2.962021094380e-05 
2 1 -2.393393650492e-05  -8.861378507393e-05   8.977990493022e-05 
3 1 -2.201988255628e-04   3.011161860861e-04  -1.278723762455e-04 
4 1  7.618489216720e-05  -7.055573728027e-05   2.762257511047e-04 
5 1  1.936912280511e-05   2.736199999201e-04  -2.254644399770e-04 
6 1 -3.114791295162e-04   2.229139939174e-04  -1.606257840152e-04 
7 1 -9.631390705636e-05  -4.474705435767e-05  -2.679072217722e-04 
8 1  4.016141614487e-05   4.855739569877e-05  -3.309887243170e-05 
8
Step 4700
1 1 -3.228862970303e-05  -2.238109353172e-04  -7.848749427944e-05 
2 1 -4.241474528096e-05  -2.037424526612e-04   8.490232875665e-05 
3 1 -1.074767047320e-05   6.709042178042e-05   1.866220041703e-04 
4 1  1.611310207495e-04  -2.165056088136e-04   2.773643262190e-04 
5 1 -1.507098813525e-04   2.570334433309e-04  -1.223343311741e-04 
6 1 -9.159773372725e-05   1.000946363774e-04  -2.576421696893e-04 
7 1  3.647386015674e-05   6.431370663536e-05  -9.120080739782e-05 
8 1  2.457919078481e-04  -2.271457968965e-04  -6.869466697013e-05 
8
Step 4800
1 1  2.336286800292e-05  -7.655805861204e-05   5.882528313389e-06 
2 1 -2.873224167587e-05  -1.501852498215e-04   5.840881743970e-05 
3 1  2.191250888755e-04  -2.520316858287e-04   2.214541947314e-04 
4 1  1.033695431481e-04  -1.337961301487e-04  -8.828657976508e-05 
5 1 -2.202758635682e-04  -9.402421785274e-06   1.156863871848e-04 
6 1  1.967947816842e-04  -1.262826917570e-04  -2.339020260303e-05 
7 1  1.064329178026e-04   1.500915176464e-04   1.658690118696e-04 
8 1  2.409570885616e-04  -2.185007551913e-04  -2.142860800796e-05 
8
Step 4900
1 1  1.041145054427e-04   1.362333132081e-04   9.041925754167e-05 
2 1 -1.030214602135e-05   2.474544859641e-05   3.788594667821e-05 
3 1  1.534704709436e-04  -2.204494724274e-04  -5.645177776789e-05 
4 1 -5.722172454820e-05   1.038122312141e-04  -2.883309094387e-04 
5 1 -1.095240331744e-04  -1.649475339302e-04   1.452169499836e-04 
6 1  2.139022973745e-04  -1.633891255897e-04   2.360529596667e-04 
7 1  2.045816463500e-05   1.213203734803e-04   1.628320015862e-04 
8 1  1.736946804019e-05   6.093658945463e-06   8.815331758680e-05 
8
Step 5000
1 1  8.499198795803e-05   1.905210229413e-04   4.147861441736e-05 
2 1 -4.821358688873e-06   1.560492113143e-04   1.481265340734e-05 
3 1 -1.141499541886e-04   1.178017743223e-04  -2.698599545125e-04 
4 1 -1.510421824007e-04   2.255470243903e-04  -1.729304159929e-06 
5 1  9.504638630102e-05  -5.466093342172e-05  -6.843206038475e-05 
6 1 -4.497145389067e-06   4.213705768034e-05   1.815576931630e-04 
7 1 -9.922693450232e-05  -2.524240015011e-05  -7.357498742753e-05 
8 1 -2.108339644728e-04   1.290235689555e-04   1.346997173173e-04 
8
Step 5100
1 1 -4.571861824694e-06   5.071655771595e-05  -7.183482295077e-05 
2 1  1.909319829170e-05   1.274005132275e-04  -5.651522421019e-05 
3 1 -2.183793775695e-04   2.916412133167e-04  -1.451376671911e-04 
4 1 -7.231301767974e-05   1.227566152880e-04   4.007693197639e-04 
5 1  2.263037550317e-04   9.485941429182e-05  -2.289637568883e-04 
6 1 -1.434138125971e-04   2.200977438363e-04  -9.023879088539e-05 
7 1 -7.665433865814e-05  -1.465434273767e-04  -2.013772341910e-04 
8 1 -2.422788964887e-04   3.304824111247e-05   2.917584097352e-05 
8
Step 5200
1 1 -3.819808953260e-05  -1.183778876979e-04  -7.546125543671e-05 
2 1  8.354336819732e-05  -5.608284619617e-06  -1.635156939125e-04 
3 1 -3.011669743213e-05   5.568119843507e-05   1.590347488104e-04 
4 1  6.291617281216e-05  -3.418292763315e-05   3.231757056231e-04 
5 1  1.700420612201e-04   4.086728665918e-05  -9.542634034366e-05 
6 1 -4.523491290558e-05   1.379843518847e-04  -2.193162872306e-04 
7 1  7.238495216986e-05  -9.369348666036e-05  -3.834864189457e-05 
8 1 -6.194598539342e-05  -9.509661589463e-05  -1.392600010608e-04 
8
Step 5300
1 1 -1.201803476828e-05  -1.532927371755e-04   6.068943842561e-05 
2 1  1.299515710236e-04  -9.140210725268e-05  -2.021270756908e-04 
3 1  1.651399905235e-04  -2.582080915565e-04   2.735509679454e-04 
4 1  8.146980500414e-05  -7.467429791469e-05  -2.186156094238e-04 
5 1 -1.422234893468e-05  -1.115182183683e-04   1.852478640667e-04 
6 1  1.045049060834e-04  -1.120292504543e-04  -5.499057893234e-05 
7 1  1.573140583787e-04   8.412623490334e-05   2.032572038804e-04 
8 1  1.507182216992e-04  -5.864428296850e-05  -1.785516227910e-04 
8
Step 5400
1 1 -1.499067282232e-05  -5.328235375285e-05   1.750878054662e-04 
2 1  6.020587265031e-05  -4.922083864314e-05  -9.121995041318e-05 
3 1  7.916985875146e-05  -1.943313990962e-04   7.280382524928e-05 
4 1 -2.346851436204e-05  -2.294473036842e-05  -5.557996756936e-04 
5 1 -1.476911924932e-04  -1.066808266187e-04   2.487048009309e-04 
6 1  5.698594842941e-05  -2.340895093921e-04   1.660248599072e-04 