8
Step 0
1 1  0.000000000000e+00   0.000000000000e+00   0.000000000000e+00 
2 1  0.000000000000e+00   0.000000000000e+00   0.000000000000e+00 
3 1  0.000000000000e+00   0.000000000000e+00   0.000000000000e+00 
4 1  0.000000000000e+00   0.000000000000e+00   0.000000000000e+00 
5 1  0.000000000000e+00   0.000000000000e+00   0.000000000000e+00 
6 1  0.000000000000e+00   0.000000000000e+00   0.000000000000e+00 
7 1  0.000000000000e+00   0.000000000000e+00   0.000000000000e+00 
8 1  0.000000000000e+00   0.000000000000e+00   0.000000000000e+00 
8
Step 100
1 1  2.159442172414e-04  -1.928926171407e-06  -2.425728722568e-05 
2 1 -6.370427171572e-05   2.002033704259e-05   2.345027389007e-05 
3 1  3.764905148031e-05  -1.020906869445e-04  -1.145202129078e-04 
4 1 -1.732366054816e-04  -8.258991431303e-05  -4.353012558065e-04 
5 1 -1.496716529114e-05   3.099221491613e-05   9.194015768423e-05 
6 1  8.729447872219e-05   1.895420390418e-06   7.832447474523e-05 
7 1  1.006582277528e-04   9.815546192915e-05   9.044070467369e-05 
8 1 -2.098913175917e-04   3.145502068235e-04   6.775888027314e-05 
8
Step 200
1 1 -1.396824209133e-05  -2.809018793916e-04  -1.838244365694e-04 
2 1 -1.631522228456e-04  -2.549070297367e-04   3.626999144363e-05 
3 1 -1.249454167609e-04   3.239065118725e-04  -6.330832762187e-06 
4 1 -7.521631234028e-05  -2.063029219610e-04   2.421394863895e-04 
5 1  1.455206131401e-04   5.737597263722e-04  -5.215293585018e-04 
6 1  2.536528022630e-05   7.859185198783e-06  -2.702680685566e-04 
7 1 -1.176694216317e-04   1.866166342601e-04  -7.936114087428e-05 
8 1 -1.848473808741e-05  -3.115256168037e-04  -7.911305971902e-05 
8
Step 300
1 1 -2.138334214460e-04  -2.469908154919e-04  -1.277781947731e-04 
2 1 -1.608836312908e-05  -3.327675460568e-04   5.202389781199e-05 
3 1 -1.463430776716e-04   2.777282759523e-04   1.907143408717e-04 
4 1  2.623807032247e-05  -7.680048083593e-05   4.651402957560e-04 
5 1  2.161900848010e-04   3.935815208993e-04  -4.179224160247e-04 
6 1  1.001409313586e-04  -1.381635846450e-04  -2.250601528291e-04 
7 1 -1.635056001472e-04   5.257865634278e-05  -1.177290929583e-04 
8 1  6.536779694554e-05  -5.728636265480e-04  -1.448712965814e-04 
8
Step 400
1 1 -1.636104345875e-04  -2.344768743897e-05   1.136948740696e-04 
2 1  2.000075355316e-04  -8.170273833606e-05  -1.331529448465e-05 
3 1  3.187077117288e-05  -1.537881013745e-04   1.850263702479e-04 
4 1  1.855376857285e-05   2.104172903916e-04  -1.184866865983e-05 
5 1  7.735673854098e-05  -2.549812592593e-04   1.910495257057e-04 
6 1  1.622094565985e-04  -2.502609787545e-04   1.494440865429e-04 
7 1 -3.962241406335e-05  -6.765659712984e-05   2.889268721234e-05 
8 1  1.964084160815e-05  -1.914355096323e-04  -8.066537232106e-05 
8
Step 500
1 1  2.157844916808e-06   1.285947067588e-04   2.337706883201e-04 
2 1  1.873409845135e-04   2.890385499885e-04  -8.993972692122e-05 
3 1  1.907297664514e-04  -3.855261860846e-04  -3.174119836902e-05 
4 1 -2.861212287899e-05   3.230122557153e-04  -4.713796400908e-04 
5 1 -1.535967060256e-04  -5.435833349318e-04   4.689327007532e-04 
6 1  1.421309737028e-05  -1.184583767259e-04   3.259546864264e-04 
7 1  4.498169553475e-05   1.275123360479e-06   1.638274411726e-04 
8 1 -2.095644814854e-05   3.333026577787e-04   5.366093824509e-05 
8
Step 600
1 1  6.431434020517e-05   1.033943451711e-04   6.492086286072e-05 
2 1 -5.508251429989e-05   4.029625587076e-04  -4.851147345618e-05 
3 1  1.402143056907e-04  -1.382478436274e-04  -1.782785173039e-04 
4 1  1.356232228125e-05   1.085611149219e-04  -2.946102969919e-04 
5 1 -2.312721914503e-04  -1.634526685991e-04   1.126222258941e-04 
6 1 -2.353395512939e-04   1.745765703458e-04   5.994305001851e-05 
7 1 -2.061475590982e-05   1.387462706163e-04   1.020660189117e-04 
8 1  3.299553971715e-05   4.078703034789e-04   1.466547112274e-04 
8
Step 700
1 1  3.133954267746e-05  -4.858308101620e-06  -1.964770185702e-04 
2 1 -2.173660932901e-04   1.124970155957e-04   9.570541972937e-05 
3 1 -4.339035361490e-05   2.389739335388e-04  -7.778336054624e-05 
4 1  1.221994508270e-04  -2.220142230016e-04   2.311009433495e-04 
5 1 -6.561759772124e-05   3.562510793621e-04  -3.318825627159e-04 
6 1 -2.618473298595e-04   3.109481971521e-04  -2.958722767721e-04 
7 1 -1.091126393494e-04   1.243090595946e-04  -9.248526276564e-05 
8 1  1.143673033540e-04   5.121562132338e-05   1.177630590103e-04 
8
Step 800
1 1  4.780796159481e-05  -6.570862265794e-05  -2.235448470512e-04 
2 1 -9.541936370403e-05  -2.943142492410e-04   1.740956578576e-04 
3 1 -1.310184621398e-04   2.699046092907e-04   9.711523355224e-05 
4 1  1.303340733190e-04  -3.248947905436e-04   3.900442425080e-04 
5 1  1.593837483770e-04   3.852027504819e-04  -2.696416168396e-04 
6 1  2.810387591470e-05   1.199395033439e-04  -2.801990743975e-04 
7 1 -4.705651811913e-05  -4.865371382089e-05  -1.867977079528e-04 
8 1  1.090933223900e-04  -2.271119286493e-04  -1.600379323710e-05 
8
Step 900
1 1  1.178848604934e-04  -4.334973583013e-05   3.151325284652e-05 
2 1  1.283186089827e-04  -3.735317167606e-04   7.705878109664e-05 
3 1 -4.009224983037e-05  -2.961799448082e-05   6.786681551494e-05 
4 1 -3.784952580412e-05  -1.033431948114e-04   3.781630062149e-05 
5 1  1.888250715131e-04  -2.787536696523e-05   1.668248989719e-04 
6 1  3.084854206458e-04  -1.824638105581e-04   6.829837280743e-05 
7 1  1.401734797364e-04  -1.804802390517e-04  -7.174543867692e-05 
8 1  1.145179838684e-05  -1.209988168404e-04  -1.374879248961e-04 
8
Step 1000
1 1  8.525728944772e-05   1.621923392847e-05   2.667152991417e-04 
2 1  1.386583941173e-04  -3.678908332819e-05  -1.022021857141e-04 
3 1  8.204791390158e-05  -2.234414411704e-04  -1.400810739251e-04 
4 1 -2.148541673209e-04   1.987283301146e-04  -2.652632867098e-04 
5 1  4.860890821988e-07  -3.057379589242e-04   3.637214277299e-04 
6 1  2.238426704019e-04  -2.419102905509e-04   2.908999176487e-04 
7 1  2.419029698322e-04  -1.436463933244e-04   1.009772292465e-04 
8 1 -8.236343730408e-05   1.180451156565e-04  -1.329408257171e-04 
8
Step 1100
1 1 -9.404305652911e-05   6.666681577929e-05   1.974505574232e-04 
2 1 -7.313673721068e-05   3.160328096639e-04  -1.846996333675e-04 
3 1  7.683849386618e-05  -6.773407895718e-05  -2.091134467418e-04 
4 1 -1.649931137325e-04   2.738298393421e-04  -9.144229833790e-05 
5 1 -1.674042138729e-04  -1.360436958577e-04   7.651649384251e-05 
6 1 -1.325677124096e-04   2.755033629126e-07   1.298108527375e-04 
7 1  1.214064336432e-04  -3.067228544567e-05   1.117662457260e-04 
8 1 -1.056115687170e-04   9.401123401093e-05  -1.351622450755e-05 
8
Step 1200
1 1 -2.179862338149e-04   8.942227565554e-05  -9.218413183992e-05 
2 1 -1.966563866871e-04   2.651997466507e-04  -1.163774896308e-04 
3 1 -2.372756401160e-05   1.857234272670e-04   2.794336139621e-05 
4 1  9.948106408355e-05   7.096249618927e-05   2.682956611878e-04 
5 1 -1.190022572723e-04   1.592447903028e-04  -2.861174693117e-04 
6 1 -3.139758358659e-04   2.419488724136e-04  -1.619454948450e-04 
7 1 -1.153009678459e-04   1.948340295791e-05  -4.347207834798e-05 
8 1 -7.712218383257e-05  -1.544663061575e-04   9.289945229260e-05 
8
Step 1300
1 1 -8.888238834757e-05   6.585858972606e-05  -2.540964231075e-04 
2 1 -4.250405759469e-05  -1.124596575619e-04  -5.451769873352e-07 
3 1 -7.793464896553e-05   1.738891821632e-04   3.156823396660e-04 
4 1  2.780190724787e-04  -1.748576145711e-04   2.585668261353e-04 
5 1  6.194429899661e-05   1.348872518500e-04  -2.608236588326e-04 
6 1 -9.257581631349e-05   1.982370391733e-04  -1.976628397315e-04 
7 1 -2.400270825909e-04   2.316712038589e-05  -1.426965647719e-04 
8 1 -3.111175979856e-05  -2.268197578258e-04   8.512560557442e-05 
8
Step 1400
1 1  1.775499786661e-04  -1.940565824934e-05  -1.094814031154e-04 
2 1  1.850009195082e-04  -3.422350920759e-04   6.095738707351e-05 
3 1 -4.450875706082e-05  -7.398871889284e-05   2.808859653389e-04 
4 1  1.353239722660e-04  -2.147430030884e-04  -1.290342562874e-04 
5 1  1.405445921705e-04  -1.413693310095e-04   5.419838887902e-05 
6 1  2.364409376537e-04  -5.938984279701e-05   2.731230631214e-05 
7 1 -1.580198144040e-04   7.458802051349e-05  -2.710844230814e-05 
8 1  3.054825899857e-05   3.177336531723e-05   3.376504000385e-06 
8
Step 1500
1 1  2.554563703662e-04  -1.337175014825e-04   1.430515454603e-04 
2 1  1.761154630108e-04  -1.493871215753e-04   7.051042830076e-05 
3 1 -1.480455243259e-05  -2.070896740061e-04  -7.410484891600e-05 
4 1 -1.801142360839e-04  -3.587872859837e-05  -3.580636862992e-04 
5 1  3.859848563339e-05  -2.204981246410e-04   1.967461908949e-04 
6 1  2.402612664065e-04  -2.201842134073e-04   1.811817824159e-04 
7 1  1.503669486825e-05   1.410684147183e-04   1.776509974983e-04 
8 1  9.711798424154e-05   2.790379024012e-04  -3.444351694408e-05 
8
Step 1600
1 1  2.834964831095e-05  -1.842563826529e-04   1.858290896203e-04 
2 1 -4.537444398555e-05   2.011763749938e-04   6.812570469981e-05 
3 1 -4.286641615300e-05  -6.125031835546e-05  -3.456349698367e-04 
4 1 -2.859421494333e-04   1.515610867690e-04  -1.248779922277e-04 
5 1 -8.492702956223e-05   5.781320914408e-05   1.817979478048e-05 
6 1 -7.948899348606e-05  -1.286869749298e-04   7.964579083529e-05 
7 1  1.143130452375e-04   8.344108721698e-05   2.057578432150e-04 
8 1  1.088428460208e-04   1.531352458086e-04   2.185950471237e-06 
8
Step 1700
1 1 -2.428011876363e-04  -9.173674854303e-05  -1.676519102348e-05 
2 1 -1.615338426867e-04   2.696543422248e-04   3.715815511276e-05 
3 1 -5.008014917920e-05   1.280283666340e-04  -2.278882413564e-04 
4 1 -4.089022612257e-05   1.569487767992e-04   2.173478368450e-04 
5 1 -7.105223338862e-05   3.240188487307e-04  -1.416356743623e-04 
6 1 -2.910361291552e-04   5.514348617033e-05  -8.729443941817e-05 
7 1  1.003515504391e-04  -9.950195494950e-05  -6.744294456866e-06 
8 1  1.662387205090e-05  -1.952655123134e-04   2.131993268821e-05 
8
Step 1800
1 1 -2.409283619241e-04   1.022954358210e-04  -1.878067484448e-04 
2 1 -2.065160336675e-05   1.480682754599e-05  -4.357674325140e-05 
3 1  4.510731206264e-05   8.488781478270e-05   1.141603490545e-04 
4 1  2.572817855471e-04  -4.448003691437e-06   1.773037219775e-04 
5 1  3.181644976796e-05   1.961845761778e-04   1.584544409002e-06 
6 1 -1.095741856420e-04   9.616278493101e-05  -7.156819241263e-05 
7 1  4.286930619706e-05  -1.908334427591e-04  -2.203052541895e-04 
8 1 -1.223068412840e-04  -2.814740851016e-04  -3.839449956155e-05 
8
Step 1900
1 1  1.612282353471e-05   2.301417077989e-04  -1.062518952810e-04 
2 1  1.449541419334e-04  -1.820805416703e-04  -9.996831876858e-05 
3 1  1.681596267689e-04  -1.071847053967e-04   2.647069461285e-04 
4 1  2.241744844931e-04  -1.505464274561e-04  -1.674372578682e-04 
5 1  6.035073830298e-05  -1.839799693178e-04   2.367231046718e-04 
6 1  2.251742668019e-04  -2.242853478100e-05   7.061819403869e-05 
7 1 -1.105191640835e-06  -2.675475171182e-05  -1.806377441674e-04 
8 1 -1.592964859808e-04   4.648437469405e-05  -9.253523126936e-05 
8
Step 2000
1 1  2.161032327661e-04   1.499647062934e-04   1.068860104181e-04 
2 1  6.087111767590e-05  -5.921267111559e-05  -2.610398685191e-05 
3 1  1.553949647230e-04  -1.376961838454e-04   7.897931846672e-05 
4 1 -1.181160545055e-04  -1.289581778563e-04  -2.851177556635e-04 
5 1 -2.186213181607e-05  -3.403801620279e-04   1.642487504092e-04 
6 1  2.696618944657e-04  -1.143617269425e-04   8.355652933097e-05 
7 1 -3.417313116812e-05   2.273527872565e-04   5.845236969741e-05 
8 1 -1.267259971142e-05   3.646064635360e-04  -2.089179238191e-05 
8
Step 2100
1 1  1.529628619430e-04  -8.519517935731e-05   1.618880342132e-04 
2 1 -1.720640994772e-04   1.681902806914e-04   1.392543809028e-04 
3 1 -2.160222218993e-05   6.404329685926e-05  -1.659865446448e-04 
4 1 -3.433751697695e-04   3.507142383117e-05   3.449139065726e-05 
5 1 -8.094735780343e-05  -9.733459869081e-05  -1.914832503384e-04 
6 1 -3.266189290107e-05  -5.059578152513e-05  -8.862735234432e-05 
7 1 -5.678854112838e-05   2.315485364600e-04   1.959950794582e-04 
8 1  1.985328163112e-04   2.207194680712e-04   1.310063644572e-04 
8
Step 2200
1 1 -4.771145825235e-05  -2.433762608224e-04  -8.962992495993e-06 
2 1 -2.052832399667e-04   1.230300784840e-04   1.984213948781e-04 
3 1 -1.835421469025e-04   2.126118267746e-04  -1.545887354512e-04 
4 1 -1.456260752184e-04   1.727941423296e-04   3.663066321686e-04 
5 1 -1.160746084328e-05   2.102556647302e-04  -3.650066561595e-04 
6 1 -2.826475812212e-04   9.836976267079e-05  -2.047129679606e-04 
7 1 -3.654980702339e-05  -8.565046650406e-05   6.103289041598e-05 
8 1  2.371750252864e-04  -2.400852793369e-04   1.695550241192e-04 
8
Step 2300
1 1 -1.337384403667e-04  -1.394203972738e-04  -1.642005278358e-04 
2 1  5.176857206645e-05  -1.853720519808e-04   2.979348598737e-05 
3 1 -1.510891035362e-04   7.973069233342e-05   6.879583402880e-05 
4 1  2.583889353669e-04   1.413867422256e-04   2.446588090706e-04 
5 1  1.037312525349e-04   2.001786660392e-04  -8.119246997920e-05 
6 1 -1.608723976195e-04   1.751808324044e-04  -7.106324864903e-05 
7 1  2.943036903608e-05  -3.779537799198e-04  -1.654408593127e-04 
8 1  1.203260732355e-05  -4.255397702105e-04   4.475451833566e-06 
8
Step 2400
1 1 -5.130881656044e-05   1.447292918933e-04  -7.722254795068e-05 
2 1  2.686980910442e-04  -3.408133237294e-04  -2.198777670872e-04 
3 1  3.109882590086e-05  -1.631572997098e-04   1.905993453772e-04 
4 1  3.801841487926e-04  -3.005014785593e-05  -1.684167037246e-04 
5 1  1.040979139988e-04  -5.595498514552e-05   3.308172475356e-04 
6 1  1.543532621139e-04   1.180476807182e-04   1.671638994611e-04 
7 1  7.189905891870e-05  -2.804309536846e-04  -1.753328793469e-04 
8 1 -2.765178784445e-04  -7.041450441719e-05  -1.968278117503e-04 
8
Step 2500
1 1  4.830171787481e-05   3.083980589626e-04   1.549297729263e-04 
2 1  1.342638571477e-04  -7.794457650208e-05  -2.768616280899e-04 
3 1  1.462911584521e-04  -1.741034619964e-04   5.848067727352e-05 
4 1  7.072465890815e-05  -1.697831444465e-04  -2.963103714394e-04 
5 1 -2.376659638297e-05  -1.623033853471e-04   3.354730278732e-04 
6 1  2.354898601850e-04  -3.530555885280e-06   2.090063232625e-04 
7 1  2.454188477580e-05   1.220390514117e-04   6.597990128755e-05 
8 1 -3.238759632788e-04   3.861290144850e-04  -1.927212974718e-04 
8
Step 2600
1 1  6.385065057974e-05   1.467212800945e-04   2.280537429544e-04 
2 1 -1.858609829049e-04   3.183880552550e-04  -7.467646754975e-05 
3 1  6.573368396103e-05   7.225169675873e-05  -1.379345035108e-04 
4 1 -2.790783333035e-04  -1.457101203508e-04   3.950573536430e-05 
5 1 -1.211340969898e-04   3.592257361728e-05  -9.696689668096e-05 
6 1 -1.638161252500e-05  -9.128772595771e-05   1.027238421450e-05 
7 1 -6.919310083378e-05   3.730813671890e-04   2.570703559913e-04 
8 1 -5.711966279439e-05   3.511945010103e-04   2.125799421529e-05 
8
Step 2700
1 1  6.005350536090e-05  -2.034180289688e-04   2.769736985103e-05 
2 1 -2.425116583309e-04   3.532454302790e-04   1.479953994595e-04 
3 1 -1.008577383380e-04   2.185314369428e-04  -1.460607046219e-04 
4 1 -2.421197647265e-04   7.008028092586e-06   3.420867338630e-04 
5 1 -7.067405556414e-05   2.325903198988e-04  -4.218642959849e-04 
6 1 -2.408880091113e-04  -1.027788726367e-04  -1.533609871691e-04 
7 1 -8.662414674495e-05   2.030425447266e-04   1.386306482166e-04 
8 1  2.656423205393e-04  -1.382436046801e-04   1.890720755498e-04 
8
Step 2800
1 1  9.355057740229e-05  -3.832841955516e-04  -2.131547386677e-04 
2 1  6.581560694153e-05  -1.163924936471e-05   1.462201722645e-04 
3 1 -1.526522488673e-04   2.187255335437e-05   1.804563013590e-05 
4 1  7.951374245453e-05   1.343683407017e-04   1.312502243073e-04 
5 1  4.049266950878e-05   1.015313538694e-04  -2.249967935282e-04 
6 1 -1.186996829969e-04  -5.621481260488e-05  -7.419308291388e-05 
7 1  1.190513652392e-05  -1.406461163096e-04  -1.538751494421e-04 
8 1  3.330142825006e-04  -4.499283157285e-04   1.157236098363e-04 
8
Step 2900
1 1  6.168725165729e-05  -1.953302392030e-04  -2.123206232078e-04 
2 1  3.179537314591e-04  -2.953348426660e-04  -1.662720338665e-05 
3 1 -4.767847954068e-05  -2.599893004094e-04   1.221740900995e-04 
4 1  2.148788743766e-04   1.230754256944e-04  -3.486065030781e-04 
5 1  5.192152420562e-05  -2.219214505549e-04   2.392594216353e-04 
6 1  1.869849959185e-04  -5.336180707445e-07   1.028935710418e-04 
7 1  1.081842011896e-04  -2.377998739311e-04  -2.490423461863e-04 
8 1  1.133709951298e-04  -2.023616565638e-04  -7.958008475300e-05 
8
Step 3000
1 1 -1.299499263945e-04   1.771614808825e-04   4.189883250486e-06 
2 1  1.435849804729e-04  -1.482757049137e-04  -7.859130112310e-05 
3 1  7.540932782123e-05  -1.949085263709e-04   4.411185523920e-05 
4 1 -1.401501539418e-05  -3.026339891789e-06  -4.428742306396e-04 
5 1 -3.136678169003e-05  -3.111164715320e-04   4.028414381218e-04 
6 1  2.603878160694e-04   7.481595963521e-06   1.097292437519e-04 
7 1  6.813882144420e-05  -2.972966720399e-05  -2.338460665143e-05 
8 1 -1.439138348814e-04   2.421624334550e-04  -1.314696264184e-04 
8
Step 3100
1 1 -3.272268248245e-04   3.676352310419e-04   1.488095980853e-04 
2 1 -2.400849572726e-04   1.739439410109e-04   4.851649751502e-05 
3 1  1.002640825138e-04   1.909693129870e-04  -8.320338792632e-05 
4 1 -2.551728028345e-04  -1.214067098477e-04  -9.793826573543e-06 
5 1 -4.766211171169e-05  -3.716822805010e-05   1.217386721543e-04 
6 1  3.058515617834e-06  -4.897397682389e-05  -4.958590991787e-05 
7 1 -7.059986620868e-05   1.648596002144e-04   2.246740679856e-04 
8 1 -2.143352631784e-04   3.062108040407e-04   7.993448812230e-06 
8
Step 3200
1 1 -2.525248211302e-04   2.148943101768e-04   5.907784947221e-05 
2 1 -3.121492460771e-04   1.882517806950e-04   1.649955313526e-04 
3 1  5.960878283548e-05   3.936483730564e-04  -7.691076563283e-05 
4 1 -1.447818095787e-04  -1.321213220963e-04   3.739262053663e-04 
5 1  6.399519351051e-05   2.507234804745e-04  -2.058274164745e-04 
6 1 -2.501648919191e-04  -1.017606609400e-04  -1.248967732038e-04 
7 1 -1.303011272370e-04   1.204790265128e-04   1.652791301565e-04 
8 1 -1.151644203580e-04  -1.053042496836e-05   1.162751342394e-04 
8
Step 3300
1 1  9.905883221214e-05  -9.369965545155e-05  -1.100441422187e-04 
2 1  1.986175878747e-05  -1.254455110024e-04   9.049194199313e-05 
3 1  4.408898408795e-05   9.901855665137e-05   4.653599317773e-05 
4 1  1.696635129710e-04  -3.600505706933e-05   2.250242915369e-04 
5 1  1.413931133241e-04   2.026536505311e-04  -2.209363461279e-04 
6 1 -2.032198533099e-04  -5.423762221596e-05  -1.005165293471e-05 
7 1 -2.382898647122e-05  -2.923681377570e-05  -1.212094654793e-04 
8 1 -4.136256332968e-07  -1.960404335641e-04   3.578278524837e-05 
8
Step 3400
1 1  3.721867686673e-04  -2.616881676551e-04  -1.143853181520e-04 
2 1  2.895200543116e-04  -3.010458301415e-04  -6.719971389748e-05 
3 1  5.807390985200e-05  -3.721679327986e-04   1.178473336366e-04 
4 1  2.554732203779e-04   8.704657928584e-05  -1.967422451175e-04 
5 1  2.153751703901e-05  -7.888584424055e-05  -2.228024535592e-05 
6 1  3.546103791816e-05   8.493988841525e-05   1.025295276017e-04 
7 1  1.228138344261e-04  -5.874398198722e-05  -2.493635127681e-04 
8 1  5.128513901566e-05   1.997311445640e-06  -9.502840275753e-05 
8
Step 3500
1 1  2.684413903689e-04  -1.913784301142e-04   6.096541051399e-05 
2 1  1.337305590535e-04  -5.403603111580e-05  -8.695553910960e-05 
3 1  2.460071257325e-05  -4.477902173804e-04   5.077045123428e-05 
4 1  1.444380434617e-05   1.503465834262e-04  -2.815989233302e-04 
5 1 -1.915975558188e-04  -2.016294812237e-04   7.167621710907e-05 
6 1  1.628216797856e-04   1.813802556726e-04   2.798648197507e-05 
7 1  1.279512703117e-04   8.288004952646e-06  -4.415932873226e-05 
8 1  7.219846739687e-05   2.328471701137e-04  -5.074449510296e-05 
8
Step 3600
1 1 -7.678516310392e-05  -3.466276218979e-06   1.947235972145e-04 
2 1 -2.058538316937e-04   3.040356731509e-04   2.086336470967e-05 
3 1 -7.640277750751e-05  -1.626049637781e-05  -6.779946333274e-05 
4 1 -2.030173479885e-04   1.119694375611e-04   8.283311840618e-05 
5 1 -2.169564653223e-04  -1.583372093616e-05  -7.824236794269e-06 
6 1  9.582376210131e-05   1.269775102766e-04  -1.238037876165e-04 
7 1 -1.912453651914e-05  -1.168379189963e-05   2.232151668013e-04 
8 1  7.840226023542e-05   9.745726170779e-05   1.290051175943e-04 
8
Step 3700
1 1 -2.514679536297e-04   1.406542327333e-04   1.173363802721e-04 
2 1 -2.380564348322e-04   2.870847829777e-04   3.257252504663e-05 
3 1 -1.450565824724e-04   4.308329224177e-04  -1.099163749978e-04 
4 1 -1.037266133223e-04  -3.831708998811e-06   3.901323839158e-04 
5 1  3.545642419418e-05   2.075226820739e-04  -5.734454846882e-05 
6 1  3.918691451946e-06  -1.550117767319e-05  -1.131589080750e-04 
7 1 -1.489235540684e-04  -1.308052622070e-04   1.914751084033e-04 
8 1  2.582257862895e-05  -2.472930930322e-04   1.655010036688e-04 
8
Step 3800
1 1 -7.847329207382e-05   1.700938619485e-04  -7.187366130409e-05 
2 1  8.458292398533e-05  -9.255804837920e-05  -1.305841145796e-04 
3 1 -9.016364978765e-05   3.946162727612e-04  -5.437081549324e-05 
4 1  1.479354513982e-04  -1.150950564147e-04   2.282822419960e-04 
5 1  3.006804669390e-04   1.557212507320e-04   3.788582076612e-05 
6 1  1.180185660871e-05  -8.444284656039e-05   6.838561338949e-05 
7 1 -1.184843617515e-04  -1.477943365633e-04  -1.026645464054e-04 
8 1 -7.785764497950e-05  -3.050726022019e-04  -6.343586065217e-05 
8
Step 3900
1 1  1.732961816134e-04   9.689640086046e-05  -1.397903259869e-04 
2 1  3.028495668237e-04  -3.349370360388e-04  -2.347827397342e-04 
3 1  3.183083550475e-05  -3.985273441114e-05   2.242038549415e-05 
4 1  1.811760899574e-04  -1.352614366302e-04  -1.766037014782e-04 
5 1  2.595163371154e-04  -1.098276948063e-04   1.286484626156e-04 
6 1  3.297191483817e-05  -2.911129456131e-05   1.745130589235e-04 
7 1  3.218681329963e-05   3.795392925278e-05  -2.615501251255e-04 
8 1 -1.191417679258e-04   4.666797101147e-05  -3.018922029930e-04 
8
Step 4000
1 1  1.591444104777e-04  -3.254912110017e-05  -2.527229053909e-05 
2 1  1.030792193632e-04  -1.291246382718e-04  -5.948254962412e-05 
3 1  7.680487648599e-05  -3.412763214610e-04   5.411476962467e-05 
4 1 -4.762372225430e-05  -4.825146611860e-05  -3.065697875200e-04 
5 1 -5.859304802553e-05  -2.448230076033e-04   5.177524554864e-05 
6 1 -4.643320334766e-05   3.137305387691e-05   5.594145659286e-05 
7 1  1.458397231895e-04   2.230347101699e-04  -6.157681601201e-05 
8 1 -1.444081958207e-05   3.525662928109e-04  -2.193896028614e-04 
8
Step 4100
1 1 -9.295749758433e-05  -1.411040617093e-04   8.807614908799e-05 
2 1 -2.398297251389e-04   2.299107286773e-04   2.385228981346e-04 
3 1  7.573500972787e-06  -2.001869401409e-04   4.541881644718e-05 
4 1 -2.051720907446e-04   5.731323426911e-05  -7.389290364510e-05 
5 1 -3.019873164207e-04  -8.608156140488e-05  -9.895423280378e-05 
6 1 -1.569590300903e-04  -1.899449866510e-05  -1.208802665105e-04 
7 1  1.252484007425e-04   1.581415369986e-04   2.340789753968e-04 
8 1  1.434870051024e-04   1.940936877714e-04   1.296348529918e-04 
8
Step 4200
1 1 -2.496062746814e-04  -1.415271244062e-04   2.846514609245e-05 
2 1 -2.568562066173e-04   2.560501839379e-04   2.930139425617e-04 
3 1 -5.592268519161e-05   1.313307700514e-04   3.592267747810e-05 
4 1 -6.761495382430e-05   7.120727373071e-05   1.205083769228e-04 
5 1 -2.251058142538e-04   1.535988940972e-04  -1.076497112897e-04 
6 1 -1.302050003520e-04  -1.281336214697e-04  -1.100679134283e-04 
7 1  6.313440902404e-06  -8.365011204066e-05   2.239441351020e-04 
8 1  1.664476707688e-04  -2.330695455985e-04   3.413301343215e-04 
8
Step 4300
1 1 -1.294590652685e-04  -1.103239361258e-05  -1.267620896789e-04 
2 1  6.416590458034e-05  -6.898698885463e-05   2.267768366026e-05 
3 1  4.765778141645e-07   2.192445215980e-04   3.218625160057e-05 
4 1  1.565538245249e-04  -1.224317372324e-05   1.467403037917e-05 
5 1  4.726089767416e-05   1.850217394785e-04   4.078806477498e-05 
6 1  5.000912069117e-05  -1.363760247015e-04   6.664537645459e-05 
7 1 -1.107119324783e-04  -1.801017690905e-04  -9.123080694150e-05 
8 1 -7.777327763569e-07  -3.775277475103e-04   1.672140819328e-04 
8
Step 4400
1 1  8.796771401995e-05   1.452740948322e-04  -1.567126666251e-04 
2 1  2.799994763684e-04  -2.965018604531e-04  -2.284276241215e-04 
3 1  1.241740737888e-04  -5.632536355383e-06   5.791650469903e-06 
4 1  1.291978246545e-04  -7.907214165434e-05  -1.581096971884e-04 
5 1  2.066817055882e-04   2.132934329382e-06   1.342269412970e-04 
6 1  1.923159740218e-04   5.114378681396e-06   1.547732173354e-04 
7 1 -1.487148932583e-04   4.078854113263e-06  -3.028097280873e-04 
8 1 -1.887719116852e-04  -5.698451491522e-05  -1.684761632100e-04 
8
Step 4500
1 1  1.461245774516e-04   1.633282130767e-04   6.006121597494e-06 
2 1  1.169183421312e-04  -1.324669556921e-04  -1.387275615515e-04 
3 1  1.555280282474e-04  -2.157759020391e-04  -5.341365721144e-05 
4 1 -1.311117878808e-04  -2.064080609023e-05  -7.221324126530e-05 
5 1  1.264937215405e-04  -1.506154104139e-04   4.281680246385e-05 
6 1  1.337644825257e-04   1.543804467283e-04   2.727638706729e-05 
7 1 -8.462785401645e-05   2.076241895589e-04  -1.309398366480e-04 
8 1 -1.929192927369e-04   3.197832193731e-04  -2.528266599556e-04 
8
Step 4600
1 1  5.254525832127e-05  -2.552864209933e-06   1.818878993427e-04 
2 1 -1.663946940900e-04   1.797649903478e-04   1.491060232603e-04 
3 1  2.459966126298e-05  -1.437105545950e-04  -1.003374033484e-04 
4 1 -2.567356189666e-04   1.186059086569e-04   1.696057515822e-04 
5 1 -4.360028157083e-05  -1.076224357630e-04  -9.896464041615e-05 
6 1 -5.189188980903e-05   1.498207473605e-04  -1.416383345871e-04 
7 1  4.828697559705e-05   1.216831928912e-04   2.082158843511e-04 
8 1 -1.402654916869e-05   3.083982502139e-04  -1.268293180096e-05 
8
Step 4700
1 1  3.753645971665e-06  -1.979164062017e-04   1.665695238321e-04 
2 1 -1.687516883129e-04   2.191370538562e-04   2.163274755718e-04 
3 1 -1.513468294643e-04   1.014889102119e-04  -7.261587122843e-05 
4 1 -3.951356316043e-05   1.705923917349e-04   1.930189349922e-04 
5 1 -1.101342884777e-04   3.881019526032e-05  -1.003241604779e-04 
6 1 -1.498375680076e-04   5.957264476226e-06  -1.291986709200e-04 
7 1  1.640123346486e-04  -1.765327601471e-04   2.882808661715e-04 
8 1  1.458216222563e-04  -1.373636417729e-05   2.140265999305e-04 
8
Step 4800
1 1  5.801705565740e-05  -2.076251105029e-04  -1.691988324157e-05 
2 1  8.180297969369e-05  -3.670887037347e-05  -5.903522700421e-05 
3 1 -1.925724056413e-04   2.147311301209e-04   3.276449517484e-05 
4 1  2.690602303866e-04   3.475218714827e-05  -6.080463928306e-05 
5 1 -4.600565273102e-05   9.971119269594e-05   8.758586346345e-06 
6 1 -6.892382458151e-05  -1.089052105014e-04   2.951442808329e-05 
7 1  1.637106120498e-04  -3.025073593711e-04   2.305105937733e-05 
8 1  1.267431922046e-04  -2.113203593144e-04   1.364173662005e-04 
8
Step 4900
1 1  6.388170992625e-05   1.008792340977e-05  -1.570383493982e-04 
2 1  1.831193344581e-04  -1.997418235534e-04  -3.170432606169e-04 
3 1 -5.562580052171e-05   7.904927791299e-05   1.285647922557e-04 
4 1  2.802714394466e-04  -1.765881690070e-04  -2.129070816797e-04 
5 1  4.509925220030e-05   2.775974424557e-05   4.581066838597e-05 
6 1  6.837225652981e-05  -8.160397314749e-05   1.088052535593e-04 
7 1  2.138512145575e-05  -7.378767540313e-05  -2.432612876227e-04 
8 1 -8.976911333222e-06  -9.243815976620e-05  -1.210219082123e-04 
8
Step 5000
1 1 -7.140984141505e-05   2.505177321143e-04  -1.054314778011e-04 
2 1 -4.917897812875e-05  -2.343258105758e-05  -1.882396569796e-04 
3 1  1.165250865314e-04  -1.244885416803e-04   1.121906982458e-04 
4 1 -2.129646828060e-05  -2.361563645287e-04   2.658206715976e-07 
5 1  8.413540896005e-05  -6.098030967214e-05  -3.094180518714e-05 
6 1  1.003544700483e-04   2.725825757381e-05   2.042031471872e-05 
7 1 -1.639448440237e-04   2.399043684592e-04  -1.923423731357e-04 
8 1 -7.480588506727e-05   8.674151953571e-05  -2.094240845669e-04 
8
Step 5100
1 1 -1.971114824316e-04   2.604334457883e-04   6.738153692530e-05 
2 1 -2.927775853322e-04   2.429685088716e-04   1.985054383808e-04 
3 1  1.419663244264e-04  -1.574405809926e-04  -2.276579153361e-05 
4 1 -2.576507815114e-04  -6.119545757910e-05   3.081239648302e-04 
5 1  6.400080661924e-05  -5.010959541437e-05  -5.751771715161e-05 
6 1  1.579416813729e-05   9.026525000155e-05  -7.653270066006e-05 
7 1 -2.301079333033e-04   2.605686731599e-04   7.129592320499e-05 
8 1  7.077420044039e-07   3.540312471540e-05  -2.483232395615e-05 
8
Step 5200
1 1 -1.078106070649e-04   7.584344288153e-06   1.668182490368e-04 
2 1 -1.505660309275e-04   1.854953860326e-04   3.583636791580e-04 
3 1 -6.668730692126e-06  -1.846205844725e-07  -1.587343202119e-04 
4 1 -1.470531553245e-04   1.773721327136e-04   2.535254481478e-04 
5 1 -9.201604538879e-06   4.917763545212e-05   6.856589403816e-05 
6 1 -6.680307399167e-05   6.985796535332e-05  -2.782968651796e-05 
7 1 -9.227487337488e-05  -2.331290619788e-05   1.860250017412e-04 
8 1  9.017912701453e-05  -1.537047513231e-04   1.627529737907e-04 
8
Step 5300
1 1  1.354265243471e-04  -2.636935953159e-04   9.415543799227e-05 
2 1  2.664785748318e-04  -1.915328237538e-04   7.410002069313e-05 
3 1 -1.523471164212e-04   1.445033089296e-04  -1.504091796001e-04 
4 1  1.306824435887e-04   2.310532684502e-04  -1.597088002971e-04 
5 1 -1.190381945087e-04   1.221055902899e-04   1.900380325801e-04 
6 1 -6.180134128973e-05   2.008951570516e-05   8.488013024135e-05 
7 1  1.523299786133e-04  -2.482228311767e-04   2.160773591516e-05 
8 1  4.606675632746e-05  -1.588545178241e-04   8.514961932574e-05 
8
Step 5400
1 1  2.279656530014e-04  -2.726512451812e-04  -5.692653816728e-05 
2 1  4.201392518371e-04  -4.167276315915e-04  -2.878473917137e-04 
3 1 -9.308737658342e-05   1.056714771852e-04   1.850659601843e-05 
4 1  1.698901074049e-04   5.469961275828e-05  -4.238323940719e-04 
5 1 -1.809135730132e-04   7.711857235587e-05   9.393130360670e-05 
6 1 -4.232860632751e-06  -2.354234979653e-05   7.536622249576e-05 