8
Step 0
1 1  0.000000000000e+00   0.000000000000e+00   0.000000000000e+00 
2 1  0.000000000000e+00   0.000000000000e+00   0.000000000000e+00 
3 1  0.000000000000e+00   0.000000000000e+00   0.000000000000e+00 
4 1  0.000000000000e+00   0.000000000000e+00   0.000000000000e+00 
5 1  0.000000000000e+00   0.000000000000e+00   0.000000000000e+00 
6 1  0.000000000000e+00   0.000000000000e+00   0.000000000000e+00 
7 1  0.000000000000e+00   0.000000000000e+00   0.000000000000e+00 
8 1  0.000000000000e+00   0.000000000000e+00   0.000000000000e+00 
8
Step 1000
1 1 -1.245615932572e-04  -2.636353688286e-04  -8.295816859304e-05 
2 1 -3.008100056840e-04   1.130736038019e-04   2.004916291567e-04 
3 1  1.131468047224e-04  -5.044839893743e-05  -6.013443550093e-05 
4 1  5.917905809778e-05  -1.607308361098e-04   4.457861071722e-04 
5 1  2.103486932382e-04   2.303827257483e-04  -5.606936097696e-04 
6 1 -1.961371615719e-04   1.068751908300e-04  -2.631567396453e-04 
7 1 -1.045349325286e-04   8.291265274398e-05  -1.576627057653e-04 
8 1  1.386958127031e-04  -2.041504068547e-04   1.469548080499e-04 
8
Step 2000
1 1 -1.500124898916e-04  -7.660823775972e-06  -9.740380726044e-05 
2 1 -2.396560528300e-04  -2.239557500398e-05   1.302592634816e-04 
3 1  1.118986811605e-04   1.270675223440e-04  -8.739376404558e-06 
4 1  1.381925687187e-04  -3.809713330172e-04   5.106277976081e-04 
5 1  1.190407299273e-05   2.756581966544e-04  -2.470381435377e-04 
6 1 -2.332595345066e-04   4.595335249458e-05  -3.107222416527e-04 
7 1 -1.082594777530e-04  -1.285717952074e-04  -5.938248301881e-05 
8 1 -2.171424300749e-04  -2.085668520586e-04   3.038546445277e-05 
8
Step 3000
1 1 -1.905627914230e-04  -3.704145436887e-05  -1.195783991704e-04 
2 1 -1.461590697192e-04   1.065097385236e-04   5.275683467128e-07 
3 1  2.130835964196e-05   4.709899497372e-05   7.774156193688e-05 
4 1  1.759792765986e-04  -2.094274762793e-04   2.050731129724e-04 
5 1 -2.472955371732e-05   1.853974979867e-04  -2.139154936626e-04 
6 1 -1.959920883391e-04  -3.727968027372e-05  -2.656260570640e-04 
7 1 -1.367558480016e-04  -4.073902328618e-05   1.032646663762e-04 
8 1  9.905814583731e-06  -1.222747612422e-04   3.448409764246e-05 
8
Step 4000
1 1 -1.436967717515e-04  -7.987197651691e-05  -9.034592473258e-06 
2 1 -8.378919549017e-05   1.991612943072e-04  -4.398705898483e-05 
3 1 -2.570911250128e-05   2.802157401698e-04   1.762891426526e-05 
4 1  1.122641312574e-04   6.644656434105e-05   2.647628510698e-04 
5 1 -3.456792227278e-04   1.971687147458e-04  -2.272217293408e-04 
6 1 -2.240956607048e-05  -1.547334225489e-04  -2.086346516008e-04 
7 1  2.366005178209e-05  -3.850230520532e-05   7.087752535585e-05 
8 1  1.909726650567e-04  -3.706655468901e-04   1.051164648226e-04 
8
Step 5000
1 1 -9.314675841763e-06  -1.889801469695e-04  -7.531513789495e-06 
2 1 -1.089922751397e-04   1.838961918962e-04  -5.188801925747e-05 
3 1 -7.559128526181e-05   3.729517618387e-04   6.699771774140e-05 
4 1  1.109872495923e-04  -1.603929058552e-05   2.297033746094e-04 
5 1 -9.957270006587e-05   2.302167717653e-04  -1.966518935948e-04 
6 1 -2.246420361077e-04  -1.586541988081e-04  -2.135882501710e-04 
7 1  4.827135238029e-06  -1.313373079759e-04   2.965365847968e-05 
8 1  1.373909978506e-04  -4.653971931381e-04  -7.949204231291e-05 
8
Step 6000
1 1 -1.487051749579e-04  -9.137996747322e-05  -1.650094272469e-05 
2 1 -1.775474894145e-04   1.216086902866e-04   1.561434573933e-04 
3 1 -2.488890417348e-05   2.576710746747e-04   5.934024652170e-05 
4 1 -1.714731598922e-05   4.162256861171e-05   2.865336772401e-04 
5 1 -3.746466275037e-05   1.183679932140e-04  -2.074880295880e-04 
6 1 -3.282959618061e-04  -2.381501552196e-04  -2.846500109862e-04 
7 1 -2.551749362647e-04  -1.587858581462e-04  -6.342680831611e-05 
8 1  1.441264855915e-04  -4.333676586675e-04   1.193875986502e-04 
8
Step 7000
1 1  2.510472349818e-05   5.388272718140e-05  -1.877991183108e-04 
2 1 -1.575294275980e-04   1.422406473047e-04   1.688401714828e-04 
3 1  9.522141087915e-05   1.245328103386e-04  -1.238355323700e-04 
4 1 -5.627629763006e-06  -1.767832620837e-04   2.626224570461e-04 
5 1 -1.157881733416e-04   1.344435060195e-04  -2.147986091583e-04 
6 1 -3.523941177043e-04   2.309572382594e-05  -1.559875701841e-04 
7 1 -2.123385594750e-04  -1.589575930895e-04   3.580751469578e-06 
8 1  1.288412443720e-04  -3.885422963784e-04   1.467423596364e-04 
8
Step 8000
1 1 -1.776229347483e-04   5.549833364274e-05  -7.269103580997e-05 
2 1 -3.843769372728e-05   2.085895575565e-04  -2.839893478933e-06 
3 1  1.515673172980e-04   2.137125271154e-04  -8.348498835383e-05 
4 1 -2.650070452817e-04   8.432177864774e-05   5.873346420425e-05 
5 1  1.395146974288e-04   2.226145503460e-06   6.478024554455e-05 
6 1 -1.532988742602e-04  -2.014382975309e-05  -8.157027827665e-05 
7 1  9.323845219584e-05  -2.606595160511e-04   5.643200293049e-05 
8 1 -9.318862923638e-05  -1.815120493589e-04   1.495749319049e-04 
8
Step 9000
1 1  3.600305197699e-05  -4.475177640291e-05  -1.290292673319e-04 
2 1  2.204885317016e-06   2.365239718864e-04   2.000926719086e-04 
3 1  9.416290413807e-05   2.157727282340e-04  -3.130638088784e-04 
4 1 -1.249521565937e-04   3.442382764290e-04   2.202346379760e-04 
5 1 -3.822946379920e-05   1.790124696702e-05  -4.126995764497e-06 
6 1  3.438600874452e-05  -7.949449298269e-05  -1.371773568625e-04 
7 1  7.709997828265e-05  -4.867151736618e-04  -7.006840038187e-05 
8 1 -2.179463882197e-05  -1.542885645976e-04   1.977423595934e-04 
8
Step 10000
1 1 -1.975826608088e-05  -2.207754799630e-05   8.587901872911e-05 
2 1 -1.828350856502e-04   1.507302858358e-04   1.710360223659e-04 
3 1 -8.878792410289e-05   1.533254375678e-04  -1.258945077981e-04 
4 1  1.476754435591e-05   2.189271211321e-04   2.019746478392e-04 
5 1  1.603995519188e-05   5.103886438577e-05  -2.077119523266e-05 
6 1 -1.129586872776e-04  -8.157026075831e-06  -1.731611468131e-04 
7 1  7.864900959416e-05  -3.840842096876e-04  -1.402661050770e-05 
8 1 -7.262714518903e-06  -2.145622636110e-04   1.313333394658e-04 
8
Step 11000
1 1  1.784686440449e-05   7.113231739477e-05  -1.673922593247e-04 
2 1 -2.611301122890e-05   1.879522673459e-05   1.291261659011e-04 
3 1  1.553917230605e-05  -1.358342679061e-04  -4.473714778556e-05 
4 1 -6.038737887708e-05   1.296286254804e-04  -3.524410734892e-05 
5 1 -1.166659739486e-04  -1.241937326950e-04   2.613002165461e-06 
6 1 -1.781087900071e-04  -6.212179516446e-07  -1.943423241868e-05 
7 1  6.773364394213e-05  -1.568090495347e-04   1.461779731648e-04 
8 1 -1.550343729150e-04  -1.586012986318e-04   6.016903832894e-05 
8
Step 12000
1 1 -5.258845810500e-05   1.662612137377e-04  -4.231981774473e-05 
2 1 -4.886550742122e-05   2.954968232347e-05   5.881000401562e-05 
3 1 -1.668174688986e-05   3.199265092806e-05  -1.451055813414e-04 
4 1  8.700002102819e-06  -1.298145243002e-04  -1.975203297804e-05 
5 1  5.656183276441e-05   8.168341406409e-05   1.661766890657e-04 
6 1  2.485136494735e-05   4.248733894437e-05   9.899404761658e-05 
7 1 -8.787536082409e-05   7.804328331122e-05   5.245007976413e-05 
8 1  8.176836599806e-05  -1.902365484990e-04   8.096141727011e-05 
8
Step 13000
1 1 -5.959245900036e-05   7.635784730312e-05  -1.123608703851e-04 
2 1  1.433582528662e-04   4.302871302228e-05  -1.735799184977e-04 
3 1  7.196274272742e-06   2.591055821848e-04   1.676768779031e-04 
4 1 -7.173240190644e-05   1.623967438858e-04  -1.817027572900e-04 
5 1  2.091266422196e-04   1.459907742098e-04   2.130361551951e-04 
6 1  8.530360614984e-05  -1.360886095811e-04   6.335184320011e-05 
7 1 -6.321966420949e-05   4.667209065216e-05   1.145356989898e-04 
8 1  2.390504745766e-04  -3.911411131021e-04   9.732777233676e-05 
8
Step 14000
1 1 -7.908649707598e-05  -3.808463670259e-05  -6.713054008613e-05 
2 1 -1.508200754617e-04   9.535963202770e-05   1.585465449157e-04 
3 1  1.232113136947e-04   4.398257672825e-05   5.386620109450e-05 
4 1 -3.373802804031e-05   1.391393331056e-04  -2.667484112787e-04 
5 1 -1.264901349426e-04   6.547318067090e-05   1.840058286863e-04 
6 1  2.099240099319e-04  -1.429256378008e-04   1.220355086703e-04 
7 1  9.972488136990e-05   1.168569833203e-04   1.021658729754e-04 
8 1  1.602105171841e-04  -2.089251440619e-04   1.031168864003e-04 
8
Step 15000
1 1  8.102235281858e-05  -2.152195933070e-05   2.832638379482e-05 
2 1 -3.900174916725e-05  -1.756561622881e-04  -1.177851087088e-04 
3 1 -1.747282726969e-05  -3.324394808408e-05  -4.019314549565e-06 
4 1 -8.257889238209e-05  -6.339640557818e-06  -8.383505258704e-05 
5 1 -1.414133719222e-04   7.209730532726e-06   1.721273959180e-04 
6 1  2.278766575353e-04  -1.148319816124e-04   1.750623186520e-04 
7 1  3.356082745232e-05   1.230848213687e-04   9.361958609425e-05 
8 1  4.775744326463e-05  -6.971666523304e-05   3.621258381441e-05 
8
Step 16000
1 1 -7.008754577422e-05   8.366500033932e-05  -8.481918991755e-05 
2 1  7.783153528354e-05  -2.629847495132e-05   3.761632270430e-05 
3 1  6.292015890982e-05  -3.881939356361e-04  -1.092048473706e-04 
4 1  3.538877403159e-05  -1.653441708460e-05  -8.819108895870e-05 
5 1 -4.988997954192e-05  -1.544509432507e-04   2.567394133847e-04 
6 1  8.626710507646e-06   1.464765440317e-04   2.085819875469e-04 
7 1  5.901862356014e-05   1.049925435769e-04   8.382233455728e-05 
8 1 -7.725968611546e-06   9.845281264548e-05   5.804936396789e-05 
8
Step 17000
1 1  1.491074216362e-04   2.032111566796e-05  -2.917249348395e-04 
2 1 -9.742147936212e-05   2.262272183202e-06   8.644366176195e-05 
3 1  3.225488642290e-04  -1.386835025605e-04  -1.254502781138e-04 
4 1  8.153634141475e-05   3.546907874964e-05  -1.609992858419e-04 
5 1  1.987538863070e-04  -2.334678444241e-04   1.925919382470e-04 
6 1 -3.074110359821e-05   1.694847511976e-04   2.430032620303e-04 
7 1  1.083812907307e-04  -1.872741176215e-06   8.953451211727e-05 
8 1  1.099238670585e-04   1.596822647377e-04   1.172452153695e-04 
8
Step 18000
1 1 -1.684650054871e-04   7.631976510497e-05  -3.356846866871e-05 
2 1  1.974596699611e-04  -8.933255502861e-05   1.930241129745e-05 
3 1  3.446397801039e-04  -6.291977921187e-06   1.091544233509e-04 
4 1  1.513401869702e-05   7.223978746981e-05  -1.949478933518e-04 
5 1  1.679936198725e-04  -1.656578820220e-04   8.509574957799e-05 
6 1 -5.806533074130e-05   2.434304566305e-04   1.788197195787e-04 
7 1  2.558777176130e-04   4.634875590226e-05   5.421953687561e-05 
8 1  1.226567523413e-04   1.149923482677e-04   8.348017564122e-05 
8
Step 19000
1 1  2.623015100341e-05  -1.468379897356e-04   6.907108128836e-05 
2 1  8.389358282085e-05  -1.938253073828e-04   2.971660727555e-05 
3 1  2.492874250090e-04   1.951578485441e-05  -2.466012010852e-04 
4 1 -3.352417036880e-04   3.965434318907e-05  -3.211172708807e-04 
5 1  8.723924283217e-05  -3.222885179356e-04   3.461714472894e-04 
6 1  4.117873780030e-05   1.242008773752e-04   2.331256419312e-04 
7 1  1.092129493479e-04   7.739635773742e-05  -7.180377392953e-05 
8 1  1.327459310461e-04   8.517813281389e-05   8.093004544918e-05 
8
Step 20000
1 1 -3.254243549973e-05   1.404230957990e-04   7.604067991613e-05 
2 1  2.683974852338e-04  -2.090637566394e-04  -1.093460676124e-04 
3 1  1.605139136262e-04  -3.362109605932e-04  -6.771458550386e-05 
4 1 -1.969018282302e-04  -4.604357124722e-05  -2.250356094598e-04 
5 1  1.636530484449e-05  -1.801126719840e-04   3.624112657960e-04 
6 1 -8.230713354062e-06  -4.576359382945e-05   9.346795663493e-05 
7 1 -5.154447953848e-05   2.784814219215e-04  -1.272117409574e-04 
8 1 -3.097242232594e-05   4.654471081617e-05   8.658835112309e-05 
8
Step 21000
1 1 -3.491767150382e-05   5.235624135533e-05  -8.992678828539e-05 
2 1  2.270259513140e-04   1.112054089107e-05  -8.111930135346e-05 
3 1  2.575523610070e-04  -3.228532873238e-04  -2.236832811774e-05 
4 1  8.540589757531e-05   2.826258163953e-05  -2.930414583334e-04 
5 1 -1.867580688461e-04  -1.281259012378e-04   3.221857297995e-04 
6 1  2.061086141733e-04  -1.169602963301e-04   1.085012759431e-04 
7 1  9.023381536936e-05   2.030236419648e-04   9.387514915831e-06 
8 1  2.206949552135e-05   1.256609909548e-04  -1.134192647802e-05 
8
Step 22000
1 1  2.696162012734e-05   1.774313034075e-04  -5.226695384552e-05 
2 1  2.579880017897e-04  -3.919836699849e-06  -6.501510618544e-05 
3 1  3.143475555678e-04  -2.199027012495e-04   6.158626145461e-05 
4 1 -1.847000603027e-06  -6.112950174409e-05  -2.976632633440e-04 
5 1 -1.672463814452e-05  -1.135791758163e-04   2.533469007140e-04 
6 1  3.388704205512e-04  -3.549092808949e-05  -2.072571978049e-06 
7 1 -1.094080977116e-04   3.641460874193e-04  -6.742875188073e-05 
8 1  6.627355714722e-05   1.501326487713e-04  -8.550144654497e-06 
8
Step 23000
1 1  1.120306355447e-04   4.925994438340e-05   1.828512773797e-04 
2 1  2.462486386935e-04  -7.200917741384e-05  -3.450291919835e-05 
3 1 -1.757497086374e-05  -7.481637629842e-05  -2.181604254815e-05 
4 1 -1.812833257197e-04   6.244545323965e-05  -4.725176355930e-04 
5 1  7.275844571662e-05  -1.173555059954e-04   2.497578981705e-04 
6 1  1.426061175537e-04   6.904291681001e-05   5.606679339658e-05 
7 1  9.446359255056e-07   2.195341943132e-04  -3.676579575419e-05 
8 1  7.033043553293e-05  -1.293610007617e-04  -7.343483476737e-05 
8
Step 24000
1 1  3.853044327369e-04  -3.306164661462e-06   1.332259555997e-04 
2 1  4.333903795140e-05  -8.004092372127e-05  -3.579927517989e-05 
3 1  6.786060955517e-05  -8.699879377361e-05   8.900107647625e-05 
4 1 -3.059862241374e-04   6.229815140263e-05  -4.074423474589e-04 
5 1 -4.978491796617e-05  -2.273108247567e-04   1.750591702929e-04 
6 1  7.841785334770e-05   1.127623404401e-04   1.509793156145e-04 
7 1 -1.634018997402e-04  -4.188032707205e-05  -1.686219584880e-04 
8 1 -9.541176684500e-05   9.918084199616e-05  -3.069676560535e-04 
8
Step 25000
1 1  1.788695139893e-04  -4.093213918191e-05   1.822867566580e-05 
2 1  9.989349923808e-05  -2.866912632011e-04  -2.097678918694e-04 
3 1  1.469851055131e-05   1.476598792698e-04   1.800769021740e-04 
4 1 -3.278024186230e-04  -1.351375265386e-04  -3.025321264842e-04 
5 1 -1.828083392379e-04  -1.825466141134e-04  -4.441311515349e-05 
6 1  2.516118211334e-05  -5.663781334286e-05   1.292724021656e-04 
7 1 -3.461433294460e-05  -4.173490747009e-05  -1.916805866080e-04 
8 1  5.044340846056e-05   9.538763545299e-05  -1.479657127581e-04 
8
Step 26000
1 1  3.504499826651e-04   1.302139122509e-04  -4.961550330118e-06 
2 1  1.988486086436e-04  -6.836871937739e-05  -1.032775076326e-04 
3 1 -5.873911479550e-05  -7.500684305155e-05   1.442002405251e-04 
4 1 -9.694989319283e-05  -7.251936509466e-05  -1.342864370114e-04 
5 1  1.518622483979e-04  -2.417142103911e-04   4.952221650004e-05 
6 1  5.371207834311e-05   2.820896003318e-04   1.363555769828e-04 
7 1  1.260384868238e-04   2.180169383871e-04  -3.027727886796e-04 
8 1 -1.349646625027e-04   2.425631196022e-04  -2.698987445514e-04 
8
Step 27000
1 1  3.443520635839e-04  -7.806569301452e-06  -2.779456483828e-05 
2 1  3.810357266093e-05  -5.522752068938e-05   1.590565934752e-05 
3 1 -8.392209856801e-05  -7.271709797606e-05   3.365576966951e-05 
4 1  7.529457964329e-05   2.680791871471e-05  -3.075215664548e-04 
5 1 -1.223374469480e-04  -1.832510214643e-04  -5.924386707948e-05 
6 1  1.768772313632e-04   3.265318155189e-05   1.113399822085e-04 
7 1  8.490567835472e-05   4.808119286150e-05  -1.975738565647e-04 
8 1 -1.473191677991e-04   3.050871808347e-04  -7.253101007678e-05 
8
Step 28000
1 1  3.267438517650e-04  -2.336922945934e-04   1.082988389188e-04 
2 1  7.813366559667e-06   3.173153909707e-05  -7.634728910285e-05 
3 1 -1.930855844917e-04   1.209475431557e-04   1.636280778699e-04 
4 1 -8.024298362038e-05   7.301941294112e-06  -4.013834050480e-04 
5 1 -2.296679524751e-04  -1.693302128275e-04  -9.508051185641e-05 
6 1  2.817996664937e-05  -1.561217729575e-05  -3.618882687655e-05 
7 1 -1.172446181181e-04   1.426364697317e-04  -2.139744857699e-04 
8 1 -1.594920432052e-04   4.916627259968e-05  -2.367094359753e-04 
8
Step 29000
1 1  7.993563278633e-05  -2.490008752060e-04  -1.586211956590e-04 
2 1  2.984310858837e-05  -2.215532389813e-04   5.882917580978e-05 
3 1 -2.305029030886e-04   1.732646557088e-04   1.486132214641e-04 
4 1 -2.615685716985e-04   1.871522985046e-04  -3.380267074690e-04 
5 1 -2.552462585515e-04  -3.787127679351e-04   5.804278281073e-05 
6 1 -2.074210010735e-05  -6.651334453247e-05  -8.999751639897e-05 
7 1 -1.293637394131e-05   4.282946603453e-05  -1.830287863780e-04 
8 1 -2.161366769064e-04   9.694149930603e-05  -2.004176537795e-04 
8
Step 30000
1 1  1.288593060735e-04  -8.906613393054e-05  -1.882421319113e-05 
2 1  1.342083294079e-04  -2.835218231218e-04  -1.506759293205e-04 
3 1 -1.518703192300e-04   1.346193375944e-04   1.118954858175e-04 
4 1 -2.224342444820e-04  -1.026976450730e-06  -3.661553505059e-04 
5 1 -2.060605951372e-04  -1.960145184694e-04   8.597259070618e-05 
6 1  1.307089015513e-04  -1.254178144482e-05  -1.036881134661e-04 
7 1 -1.461088693040e-04   2.611767902394e-04  -1.677386138896e-04 
8 1  7.261883361283e-05   1.974917410276e-04  -2.440372743842e-04 
8
Step 31000
1 1 -1.241348023843e-04   8.488635025103e-05  -5.238435562182e-05 
2 1  8.449875160918e-05  -2.623073260643e-04  -1.581652288084e-04 
3 1 -3.286182715282e-05  -2.358013784809e-05   2.291117824960e-04 
4 1 -6.316789589687e-06  -4.011010369754e-05  -2.676665664720e-04 
5 1 -1.144942162053e-04  -1.273435940714e-04   1.471031214779e-04 
6 1 -2.056871684413e-05  -1.422849691245e-05  -1.046287415400e-04 
7 1 -1.516405647384e-04   3.047145480775e-04  -1.413551224097e-04 
8 1  1.609961079310e-04   2.377185686292e-04  -1.969630538652e-04 
8
Step 32000
1 1 -1.409650724856e-04  -2.009764176007e-04   4.061784759381e-05 
2 1  1.551224945583e-04  -1.010708702191e-04  -1.111070183138e-04 
3 1  2.145101404408e-05   1.431554194992e-04   1.204265759394e-04 
4 1 -1.181017692059e-04   1.915015514476e-04  -3.819894333850e-04 
5 1 -1.614660294980e-04  -1.695706098918e-04  -8.607923716462e-05 
6 1 -3.708987432118e-07  -8.433919310681e-05  -1.413865989629e-04 
7 1 -1.226136506072e-06   1.583841615633e-04  -1.490250133498e-04 
8 1 -6.317887511701e-05   3.139580846088e-04   1.046292443927e-04 
8
Step 33000
1 1 -1.126522897239e-04  -2.572764088882e-04   1.027792708369e-04 
2 1 -1.569410028933e-05  -1.190159889192e-05  -2.002833478657e-04 
3 1 -3.516699764956e-04  -9.105441270077e-05   8.718377510034e-05 
4 1 -1.223745066153e-04  -1.979813989509e-05  -1.733894659078e-04 
5 1 -2.339561214873e-04  -2.035702341943e-04   3.694887464946e-05 
6 1 -2.964670695122e-05  -6.272492745834e-05  -9.112893397608e-05 
7 1 -2.648475268347e-04   1.101553364339e-04  -2.480674214798e-04 
8 1 -1.402159211368e-04   6.924052442904e-05  -4.886647159472e-05 
8
Step 34000
1 1  6.199093372113e-05  -9.444324535391e-05   1.486615615145e-04 
2 1 -1.781667535658e-04  -1.282918936860e-04  -1.765704430585e-04 
3 1 -1.827525838143e-04  -8.850093830162e-05   1.594674901403e-04 
4 1 -1.124141334913e-04   9.539659106609e-05  -1.565889934555e-04 
5 1 -1.400951013740e-04   5.834987078422e-05  -1.054820255370e-04 
6 1  5.641834116564e-05   3.971674369200e-05  -6.383364154475e-05 
7 1 -2.401326295342e-05   7.895319222844e-06  -2.831970608270e-04 
8 1 -2.340349198861e-04   6.901900139426e-05   3.442735167957e-05 
8
Step 35000
1 1 -1.348654021277e-04   1.869507624165e-04   1.326137749929e-04 
2 1  3.173433407265e-05  -3.102658823616e-04  -2.606889459421e-04 
3 1 -1.401183207898e-04   1.549929095529e-04   1.063691250370e-04 
4 1 -1.166665804068e-05  -1.525782251301e-05  -2.353965343934e-05 
5 1 -4.566288857491e-05  -6.467583060578e-05   1.681324972280e-05 
6 1  3.156009489224e-07   1.604000596605e-04   1.086400682786e-04 
7 1  7.443733908288e-05   4.318816431171e-05  -1.606180767795e-04 
8 1 -1.270036244402e-04   1.081107516771e-04   3.338559354544e-05 
8
Step 36000
1 1  4.754774101729e-05   8.686821241661e-05   2.884328638120e-04 
2 1 -4.498254512075e-05  -2.982623162398e-04  -2.105459592829e-04 
3 1 -3.065767505028e-04   2.186854151039e-04   2.230013758263e-05 
4 1  1.290371857007e-04   6.829385136710e-05  -9.935972028425e-05 
5 1 -5.391910318856e-05  -1.698427205649e-04  -7.981975773352e-06 
6 1 -1.688696666416e-05   2.015967488203e-04  -1.476993594578e-05 
7 1  2.983422000044e-06  -3.841541442616e-05  -6.668564002269e-05 
8 1  1.273432097278e-04   1.812049060925e-04  -1.047575663972e-04 
8
Step 37000
1 1  1.916049831440e-04  -1.388866816051e-07   2.564242316741e-04 
2 1 -2.897285004867e-04  -9.385756743885e-05  -9.823219483905e-05 
3 1 -3.620576298721e-04   1.093508147109e-04   1.245436086926e-04 
4 1 -9.870453654245e-05  -6.841372337767e-05  -3.615285476829e-05 
5 1  7.010362003009e-06  -2.804720998681e-05   1.911189410496e-05 
6 1 -2.782024000465e-05   1.367543667106e-05   9.037111227559e-05 
7 1 -1.424447544477e-04  -8.940326547859e-05  -5.311959987665e-05 
8 1 -1.234741200947e-04   1.698199912702e-04  -8.344094075338e-05 
8
Step 38000
1 1  2.159322928473e-04  -1.274416808653e-04   1.220265248223e-04 
2 1 -1.517796386949e-04  -5.860473038920e-05  -9.635736465153e-06 
3 1 -4.118974950787e-04   1.045981805796e-04   6.331925297523e-05 
4 1 -8.127339695198e-05   5.546757995145e-05  -5.805199565699e-05 
5 1  7.159284558019e-06   2.073216744414e-05  -4.271051526506e-05 
6 1 -5.528557317628e-05   1.578359734804e-06  -1.369137878958e-05 
7 1 -1.579217024292e-04  -1.407122583699e-04   2.475631070978e-05 
8 1  7.797036794078e-06  -9.417272995592e-06   3.338830571606e-06 
8
Step 39000
1 1  3.480777223035e-05   2.261031653143e-04   9.819897094389e-05 
2 1  4.236521788850e-05  -8.101615694288e-05   5.742708011615e-05 
3 1 -3.005934621909e-04   1.539080034248e-04   1.236302739299e-04 
4 1 -3.730412061945e-05   3.065791093298e-04  -5.023258500229e-05 
5 1 -8.691808525635e-05   2.385318287992e-05   3.060935595586e-05 
6 1  1.052382990597e-04  -1.205597627916e-04   4.757685063347e-05 
7 1 -1.171350233490e-04  -2.105180056058e-04   1.647805127473e-04 
8 1  1.382448486434e-05  -1.340862344472e-04   1.467696065131e-04 
8
Step 40000
1 1 -2.328570259734e-05   1.442396128146e-04   9.911836528289e-05 
2 1  4.720245202725e-05   1.017430960102e-04  -1.120742823018e-04 
3 1  7.105940616343e-05   1.324060594212e-04   2.003546737535e-04 
4 1  1.493571597508e-06   1.991336045506e-04   3.485965021997e-05 
5 1  8.190341345417e-05   1.158339562702e-04   1.528977227416e-04 
6 1  2.307463710187e-04  -2.276402700475e-04   9.033166152196e-05 
7 1  8.283377303572e-05   1.034086538508e-04   1.884716733129e-05 
8 1  7.195024315967e-05  -4.290634123786e-05   1.840136293339e-04 
8
Step 41000
1 1  9.212891335818e-05   2.964418222935e-04   1.837545740868e-04 
2 1  2.318989115581e-05  -2.612722363808e-05  -1.973488268114e-04 
3 1 -6.200469011336e-07   1.211964352267e-04   3.108975914982e-04 
4 1 -8.853330436899e-05   1.125753011071e-04   8.619013304639e-05 
5 1 -7.076758438390e-05  -4.042472867986e-05  -3.409500206052e-05 
6 1  2.935443830432e-05  -1.724484373134e-04  -6.855146603504e-05 
7 1 -3.114526906774e-05  -8.223210096371e-05   2.775225544481e-05 
8 1  3.556829843516e-05  -1.482933525000e-04   3.921733218263e-04 
8
Step 42000
1 1 -1.828925179098e-04   8.152065866725e-05   8.275211437008e-07 
2 1  9.962017559843e-05  -6.085332234377e-05   1.581475070579e-04 
3 1 -2.792284271806e-05   6.949863593288e-05   2.216169696919e-04 
4 1  8.258654892199e-05   8.340636689623e-05   1.259614995235e-04 
5 1 -5.023757502375e-05  -1.243637431959e-04   5.113171051415e-05 
6 1 -1.144957054559e-05  -1.114270701381e-04  -1.278061568872e-04 
7 1 -1.179532368346e-04  -1.862356857188e-04  -2.877027238619e-05 
8 1 -9.888981433801e-05  -1.409247983801e-04   1.777864149544e-04 
8
Step 43000
1 1 -1.356955939081e-04   7.364456918580e-05   1.812044458980e-04 
2 1  1.501323453020e-04   3.290065867434e-04   1.162358387447e-04 
3 1  6.560592848484e-05   1.716312031490e-04   2.676738502313e-04 
4 1  4.850228640677e-05   2.642332894137e-04   1.297506630286e-04 
5 1 -1.182903133754e-05   5.947638520074e-05  -1.171704845992e-04 
6 1 -1.033624219915e-04  -2.694675680697e-04  -5.898576694784e-05 
7 1 -8.797279690820e-05  -3.126811328186e-04   1.944440907522e-04 
8 1  1.431966853498e-04  -1.311931581762e-04   3.996506188890e-04 
8
Step 44000
1 1 -1.398480978753e-04   2.746108617939e-04   7.911848825831e-05 
2 1  4.478648931672e-05   1.742345718292e-04   2.384551845511e-05 
3 1  2.325651490613e-04  -1.504632828496e-05   1.626508198794e-04 
4 1  2.100131410995e-04   1.177588930030e-04   2.705840589158e-04 
5 1  8.922928334412e-05   3.928267368698e-05  -2.241911911906e-05 
6 1  1.462310072836e-04  -7.660231584060e-05   1.957359471923e-05 
7 1  8.886754575615e-05  -4.218172625881e-04   9.808283143727e-05 
8 1  1.004893749034e-04   9.134889270827e-05   2.328032479467e-04 
8
Step 45000
1 1 -1.692548782460e-05   4.487806925557e-04   1.229273983831e-04 
2 1  1.801752701770e-04   6.726026586123e-05   1.349518638929e-04 
3 1  4.455605214006e-05   2.543898368511e-05   8.864332858498e-05 
4 1  2.758631563269e-04   8.425943604945e-05   3.863389114787e-04 
5 1 -1.500030451394e-05   1.314393945748e-04  -7.461324572595e-05 
6 1  8.951997899749e-05   9.687553509901e-05  -1.717592913330e-04 
7 1  5.449257177964e-05  -4.041330285543e-04   2.782456929168e-04 
8 1  9.795772125979e-05  -3.573520917276e-05   2.331927144933e-04 
8
Step 46000
1 1 -1.483827118499e-04   2.803522192928e-04   1.625351446104e-04 
2 1  9.752770239393e-05  -1.576816589600e-04  -1.195922736609e-04 
3 1  2.382774576023e-04   1.057582689925e-05   1.518922944044e-04 
4 1  1.705650040974e-04  -2.504122574621e-05   3.533135471554e-04 
5 1 -9.417835710339e-05  -7.856231605753e-06  -1.005513971644e-04 
6 1  8.559813526403e-05  -1.215076914189e-04   1.253920742512e-04 
7 1  2.034466991546e-05  -3.198023909520e-04   1.104638713839e-04 
8 1 -3.076179144945e-05  -1.276814009768e-04   4.588552621571e-05 
8
Step 47000
1 1  1.135990608380e-04   1.110364412041e-04   3.464907687726e-04 
2 1 -4.148337723982e-05   3.812376011637e-05   1.358270340754e-04 
3 1  1.820926725889e-04   2.073547057353e-04   6.491626238543e-05 
4 1  1.997827641099e-04  -1.200399648603e-04   1.157522522503e-04 
5 1  2.383117452556e-05   1.661715461271e-04  -6.263067306755e-05 
6 1  2.549922530806e-05  -1.271132369198e-05   1.250866350041e-04 
7 1 -8.068200943989e-05  -3.184139539293e-04   8.264946653489e-05 
8 1 -1.072771282680e-04  -3.461732449912e-04   8.152179737978e-06 
8
Step 48000
1 1  4.486804272091e-05   1.217911782497e-04   1.033970343178e-04 
2 1 -4.154798751369e-05   1.108960380607e-04   7.707792947625e-05 
3 1  1.408155272259e-04   1.223497212601e-04   1.389129322875e-04 
4 1  2.502032236013e-04  -9.791827442116e-05   1.703413754959e-04 
5 1  2.180965762682e-04   2.046560310136e-04  -1.739042584777e-05 
6 1  1.707665465062e-04   2.140510623782e-05   8.236195695994e-05 
7 1  1.823453716590e-05  -1.529564918315e-04   1.385761368696e-04 
8 1  2.421779821226e-04  -4.066433091091e-04   1.597310514274e-04 
8
Step 49000
1 1  1.832621353083e-04   1.853400414268e-04  -5.326436879787e-05 
2 1  1.419282791789e-05   1.518677315407e-04   2.242328267047e-04 
3 1  2.601560004947e-04  -1.152515922149e-04   9.802836229160e-05 
4 1  1.575973381791e-04  -7.953596582889e-06   9.778733157284e-05 
5 1  3.430968619923e-04   2.446335140535e-04   1.158426862128e-05 
6 1  1.002596582178e-04   8.468898399677e-05   1.437164146939e-04 
7 1  7.436578329977e-06  -1.521961928171e-05   4.385155812111e-05 
8 1  3.296623127225e-04  -3.517171864818e-04   1.470397391880e-04 
8
Step 50000
1 1  4.086793106988e-05  -1.291223592699e-04   1.645598524029e-05 
2 1 -2.621909597443e-05   1.262767239919e-04   3.795581063834e-05 
3 1  3.036568603288e-04  -4.854537021853e-04   8.500426538666e-05 
4 1 -2.084103002963e-05   4.273174917890e-06  -1.534930812291e-05 
5 1  2.589584860860e-04   4.018808963954e-04   7.779989891017e-05 
6 1  8.866392508518e-05  -9.313788989198e-05   1.618124521496e-04 
7 1 -7.223514044854e-06  -1.689929082862e-04   2.733870122587e-06 
8 1  2.106896589978e-04  -4.037799183766e-04   8.690852074828e-05 
8
Step 51000
1 1  7.039761914373e-05  -1.866248295916e-04   1.524635273447e-04 
2 1  1.600993878088e-04   8.605257041821e-06   8.032634931280e-05 
3 1  1.977241873065e-04  -2.379038652543e-04  -1.260703820750e-04 
4 1  2.948067306930e-05   1.408730975244e-04   1.117554228413e-04 
5 1  7.305552582427e-05   1.053019821747e-04  -2.259736469026e-05 
6 1  1.307125136845e-04   2.938518056747e-06   6.989410113011e-05 
7 1 -3.420157420702e-05  -5.300355779397e-05   5.345486072819e-05 
8 1 -1.255709694877e-05  -6.248563888990e-05  -5.370583502935e-05 
8
Step 52000
1 1  1.993383161727e-04  -1.649277742645e-04  -1.768250609009e-04 
2 1  3.923576426742e-05   3.961361303602e-05   2.409578699305e-04 
3 1 -2.270867847809e-05  -2.274740089645e-04  -2.611604668665e-04 
4 1  1.032047224268e-04   1.162220475452e-04   1.219571905365e-04 
5 1  3.609299275773e-05   1.097131862253e-04  -1.427677262656e-04 
6 1  1.004126802105e-04   7.748497144823e-05  -1.315724510937e-04 
7 1  5.833799125735e-05  -1.997566822713e-04   5.365605180534e-05 
8 1  1.943623172122e-04  -3.017495551089e-04   2.423091711545e-04 
8
Step 53000
1 1 -1.158361908741e-05  -1.870646078065e-04  -1.687805035658e-04 
2 1  6.049288386807e-05   1.353547799960e-05  -6.519720198375e-05 
3 1  2.839089252093e-04  -1.506746255933e-04   1.023243639009e-04 
4 1  2.220411945767e-04   1.433873769958e-04   1.390937654398e-04 
5 1  2.612296238019e-06   2.004966970127e-04  -2.445502003446e-04 
6 1  1.792360632930e-04  -5.244527950233e-05   7.372934316903e-06 
7 1  2.052212640936e-04   1.286698353169e-04  -2.625355335104e-05 
8 1  1.216649571520e-04   7.451199222324e-05   1.132425339486e-04 
8
Step 54000
1 1  6.980210588747e-06  -4.193553927509e-05  -4.149041642864e-04 
2 1  9.101442270809e-05  -1.466406697061e-04   3.127661663368e-05 
3 1  9.855511051386e-05  -4.708441078404e-05  -2.201430361025e-04 
4 1  2.156911094719e-04  -7.875862982766e-05   1.629124659550e-04 
5 1 -5.912393139170e-05   1.695826472504e-04  -2.605592740589e-04 