8
Step 0
1 1  0.000000000000e+00   0.000000000000e+00   0.000000000000e+00 
2 1  0.000000000000e+00   0.000000000000e+00   0.000000000000e+00 
3 1  0.000000000000e+00   0.000000000000e+00   0.000000000000e+00 
4 1  0.000000000000e+00   0.000000000000e+00   0.000000000000e+00 
5 1  0.000000000000e+00   0.000000000000e+00   0.000000000000e+00 
6 1  0.000000000000e+00   0.000000000000e+00   0.000000000000e+00 
7 1  0.000000000000e+00   0.000000000000e+00   0.000000000000e+00 
8 1  0.000000000000e+00   0.000000000000e+00   0.000000000000e+00 
8
Step 1000
1 1 -1.867065485579e-04   3.006223489802e-05  -1.880732139991e-04 
2 1 -1.415910990547e-04  -9.590429411241e-05   4.517418098100e-04 
3 1 -1.071237312174e-04   1.713871761151e-04   4.055575670496e-05 
4 1 -1.631199410541e-04   1.319678743402e-04   2.685912350168e-04 
5 1  2.409155111203e-04   3.190475516368e-05   5.705566515050e-05 
6 1  2.962121965912e-05   1.338666854378e-04  -2.078191225431e-05 
7 1  3.797160077951e-04  -2.400442507441e-04   1.786093230174e-04 
8 1  1.007223998309e-04  -2.066416508944e-04   2.815682469363e-04 
8
Step 2000
1 1 -1.302717825586e-04   3.371335089816e-04   4.248332494344e-05 
2 1  3.686526536914e-04  -2.060513123763e-04   1.174392321707e-05 
3 1 -6.232964776852e-05   1.319040850807e-05   3.117444821659e-04 
4 1 -2.021691710980e-05   2.602969038770e-04  -3.797412455211e-04 
5 1 -1.499110362765e-04  -2.296847388465e-04   6.284324131976e-04 
6 1  3.581627207156e-04  -2.441776130414e-04   2.075393772931e-04 
7 1  5.227190863967e-05   4.636283838027e-06   1.080299606363e-04 
8 1 -1.595044600289e-04   1.293391685462e-04  -4.942671796300e-05 
8
Step 3000
1 1 -4.568029139042e-05   2.595891917137e-04   1.618411427896e-04 
2 1  4.036061228485e-04  -7.554146365401e-05  -3.442098296028e-04 
3 1  4.929882443732e-05  -3.137511830314e-05   1.861150059220e-04 
4 1  1.031637530296e-04   6.170049916761e-05  -4.934477456727e-04 
5 1 -3.626536175111e-04  -1.041746374234e-04   3.720443084275e-04 
6 1  2.111091780654e-04  -3.882538335167e-04   1.361961604596e-04 
7 1 -2.698676823781e-04   2.642949511197e-04  -1.978208293633e-05 
8 1 -2.695266593375e-04   2.810170689800e-04  -2.876902314629e-04 
8
Step 4000
1 1 -8.841042104265e-05  -5.946480340652e-05   6.344220979434e-05 
2 1 -4.041431863580e-06   1.054677634440e-04  -1.973507026204e-04 
3 1  1.318318505213e-04   1.338451478978e-06  -3.356272334574e-05 
4 1  1.300180455263e-04  -1.937140794862e-04   3.920062125094e-05 
5 1 -1.705673085039e-04   2.002041548623e-04  -3.205206954652e-04 
6 1 -1.275873232035e-04  -1.873396763314e-04  -1.676582427388e-04 
7 1 -3.247663563188e-04   2.904341015856e-04  -1.346253156181e-04 
8 1 -1.201683870410e-04   6.832291176090e-05  -1.572721417568e-04 
8
Step 5000
1 1 -1.242994040089e-04  -2.639390186505e-04  -8.299268574678e-05 
2 1 -3.009454936569e-04   1.130319901754e-04   2.005962133289e-04 
3 1  1.131614022760e-04  -5.055160169127e-05  -6.054271196476e-05 
4 1  5.900824015568e-05  -1.605226701091e-04   4.456452425427e-04 
5 1  2.108468427079e-04   2.303923526264e-04  -5.607785171364e-04 
6 1 -1.962199737762e-04   1.070389548085e-04  -2.628248334952e-04 
7 1 -1.040741657850e-04   8.268248913120e-05  -1.575749756935e-04 
8 1  1.389945547793e-04  -2.041928513074e-04   1.470358302134e-04 
8
Step 6000
1 1  2.067657715528e-06  -1.794615485269e-04  -8.846773693070e-05 
2 1 -1.583924583995e-04  -1.366972455551e-05   3.166163735726e-04 
3 1  6.696663392567e-06  -1.657240606161e-04   3.622595880318e-05 
4 1 -5.026516296908e-05   1.288323698769e-04   1.775780505882e-04 
5 1  3.542853091642e-04  -7.219214266041e-05  -1.169636183696e-04 
6 1  4.530402600717e-05   2.099381028406e-04   6.852059677642e-06 
7 1  1.608808265954e-04  -1.109075851734e-04  -6.685239647519e-05 
8 1  2.735897875431e-04  -1.650891964999e-04   2.459075228348e-04 
8
Step 7000
1 1  1.845953142585e-04   4.718434502254e-05   2.297847645062e-05 
2 1  1.506252412836e-04  -5.124362729055e-05   2.597718071328e-05 
3 1 -9.469465672023e-05  -1.506763863757e-04   3.237426464372e-05 
4 1 -1.110779232582e-04   2.991887432001e-04  -3.610504850088e-04 
5 1  1.031520863127e-04  -3.014340572395e-04   3.840634829993e-04 
6 1  2.124801613298e-04   9.897885407799e-05   2.708954795190e-04 
7 1  2.282598311323e-04  -1.097603760298e-04   6.948525105847e-05 
8 1  1.919344044201e-04   1.245280773767e-04   4.877287459592e-05 
8
Step 8000
1 1  1.871543443442e-04   1.694621101035e-04   7.629305223388e-05 
2 1  1.795323624641e-04   6.562099115115e-05  -2.668606712169e-04 
3 1 -9.538781020313e-05   4.921740157105e-05  -8.885395511625e-05 
4 1 -6.372290401042e-05   1.022961313872e-04  -4.078166254809e-04 
5 1 -2.454965828723e-04  -1.460172414214e-04   3.481584704267e-04 
6 1  4.510383819177e-05  -2.924578202993e-05   1.482341155358e-04 
7 1  7.835694094718e-05  -1.308290085667e-05   1.401879034694e-04 
8 1 -1.215010517018e-05   2.665719568413e-04  -1.694571072138e-04 
8
Step 9000
1 1 -7.346006179070e-06   1.109369245147e-04  -5.261262072937e-06 
2 1 -8.059191352255e-05   1.296154462163e-04  -1.886829757460e-04 
3 1  8.326268167085e-06   2.132348351029e-04  -1.309765237638e-04 
4 1  6.096151407613e-05  -2.638064838791e-04   1.091330637552e-04 
5 1 -2.858324075948e-04   1.929200942686e-04  -5.855219227468e-05 
6 1 -2.330031047036e-04  -3.204942292148e-05  -2.079248123307e-04 
7 1 -9.507403260364e-05  -1.898806838488e-05   8.029710709787e-05 
8 1 -1.812808013702e-04   6.800769742945e-05  -1.529817763185e-04 
8
Step 10000
1 1 -1.499221145100e-04  -7.814592444066e-06  -9.753251296677e-05 
2 1 -2.396244799838e-04  -2.273356635296e-05   1.302934021427e-04 
3 1  1.119995826435e-04   1.265951015745e-04  -9.069423314217e-06 
4 1  1.382575276346e-04  -3.808911247662e-04   5.107612195963e-04 
5 1  1.250682151967e-05   2.753464297294e-04  -2.472268863760e-04 
6 1 -2.331495259103e-04   4.604760724086e-05  -3.102537308602e-04 
7 1 -1.082333442391e-04  -1.285717656291e-04  -5.965288942032e-05 
8 1 -2.171115077210e-04  -2.086217959244e-04   3.055446377029e-05 
8
Step 11000
1 1 -6.283355591304e-05  -5.293618209256e-05  -4.881088963543e-05 
2 1 -7.369730859793e-05  -2.283319593709e-04   2.595745669456e-04 
3 1  9.603763669602e-05  -9.487403691031e-05   1.104489563678e-04 
4 1  6.553748603909e-05  -1.009196326374e-04   3.065642993545e-04 
5 1  2.663355823363e-04   1.028919228919e-05  -3.664555939436e-05 
6 1  6.505711311501e-05   8.026534529734e-05  -6.084413565303e-06 
7 1  1.718194667144e-05  -1.449486841357e-04  -1.471925524178e-04 
8 1 -1.134491368828e-04  -2.150538193567e-04   1.285160544239e-04 
8
Step 12000
1 1  1.141012845456e-04  -2.215196317948e-05   1.074360108215e-04 
2 1  1.835188984897e-04  -1.847277980965e-04   3.311828128782e-05 
3 1 -4.351597812242e-05  -1.365474403104e-04   5.653943727621e-05 
4 1 -1.007809161767e-04   2.877844140188e-04  -1.855982580026e-04 
5 1  1.522716302843e-04  -2.394034834412e-04   1.740578884717e-04 
6 1  2.886550289736e-04   2.508743277932e-05   3.100391979513e-04 
7 1  1.056175246312e-04   2.572951802345e-05  -9.040205716067e-05 
8 1  6.398099777116e-05   1.443431795183e-05   4.640372153589e-05 
8
Step 13000
1 1  1.183996181168e-04   6.063014967077e-07   1.816208303718e-04 
2 1  1.928216224415e-04   1.072495968837e-04  -2.591455433245e-04 
3 1 -1.697345054729e-04   7.315780655499e-05  -8.375015908709e-05 
4 1 -1.672926683926e-04   3.866866708577e-04  -3.243787011887e-04 
5 1 -1.842925971477e-04  -1.557752749207e-04   3.842431450851e-05 
6 1  1.706699117524e-04  -5.544904750464e-05   2.292631515959e-04 
7 1  4.456641219142e-05   2.049715118155e-04   6.014925692907e-05 
8 1  1.972843774601e-04   1.367586160631e-04  -6.426077260600e-05 
8
Step 14000
1 1 -6.755461848567e-05  -2.131106593263e-05   6.832845354697e-05 
2 1 -2.131641686039e-05   2.896442903178e-04  -2.661757977402e-04 
3 1 -1.428278307929e-04   2.257733897102e-04  -8.586491592882e-05 
4 1 -2.732026065970e-05   1.245562281856e-04  -2.465908621582e-05 
5 1 -3.041887207764e-04   1.129945312771e-04  -2.364424594473e-04 
6 1 -1.086073076333e-04  -8.258691712198e-05  -1.195327704517e-04 
7 1 -8.886105476571e-05   1.695660159478e-04   1.559218061158e-04 
8 1  1.807484215111e-04   7.057615466782e-06  -5.113733402003e-05 
8
Step 15000
1 1 -1.905589756902e-04  -3.696498133562e-05  -1.198334113849e-04 
2 1 -1.460639156477e-04   1.060486944958e-04   7.955147141974e-07 
3 1  2.183220600299e-05   4.641323652439e-05   7.784504154435e-05 
4 1  1.762397481036e-04  -2.099326343085e-04   2.047571696744e-04 
5 1 -2.421224973701e-05   1.850426985305e-04  -2.137299730375e-04 
6 1 -1.960488247362e-04  -3.710570385710e-05  -2.653533119227e-04 
7 1 -1.366989965539e-04  -4.107432875762e-05   1.030036180962e-04 
8 1  9.421234679860e-06  -1.220504103559e-04   3.441019152089e-05 
8
Step 16000
1 1 -7.768486436417e-05  -2.020842048469e-06  -1.836346922732e-04 
2 1 -3.982709597598e-05  -2.251682458656e-04   2.258050777045e-04 
3 1  1.559434763528e-04  -2.853279667626e-04   1.781066474811e-04 
4 1  1.850493007500e-04  -3.018956122804e-04   2.909893063964e-05 
5 1  3.393390288712e-04  -2.072096785172e-05   1.214203498427e-04 
6 1 -3.968511669366e-05   3.431960714804e-05  -3.850054400418e-05 
7 1 -5.094054279357e-05  -1.625916350681e-04  -3.718242741284e-05 
8 1 -1.775251392314e-04   2.650963139185e-06   4.282929936630e-05 
8
Step 17000
1 1  1.260197367874e-04   4.186603336147e-05  -7.843653799002e-05 
2 1  9.395997886483e-05  -2.681048341561e-04   1.988166730507e-04 
3 1  1.262427223553e-04  -3.260139387697e-04   5.106804872412e-05 
4 1 -4.911321055604e-05  -1.276383404004e-04  -2.615256950417e-04 
5 1  3.485705189332e-04  -1.885238875508e-04   3.260930396058e-04 
6 1  8.289587748941e-05   5.610028728310e-05   2.189036909698e-04 
7 1  6.474375764877e-05  -5.399538493661e-05  -1.178858240147e-04 
8 1 -2.029990796678e-04   2.257430111768e-04  -4.298798048218e-05 
8
Step 18000
1 1  1.605421418508e-04   2.073876010123e-05   5.132612537900e-05 
2 1  4.208707208898e-05   5.298127882038e-05   2.511716761363e-05 
3 1 -1.289931065830e-05   3.894690823700e-05  -1.589318019382e-04 
4 1 -2.658964421148e-04   8.800738619060e-05  -2.162943373365e-04 
5 1 -3.008903967386e-05  -6.553200290233e-05   1.230414676247e-04 
6 1 -3.471169118456e-06  -1.522595309104e-05   1.507261978257e-04 
7 1  1.009446778658e-04   1.196525757361e-04  -6.990974152730e-05 
8 1 -3.209586077582e-05   1.790131719929e-04  -8.867794932815e-05 
8
Step 19000
1 1 -4.134671921900e-06  -5.503115105060e-05   6.450375160647e-05 
2 1 -9.835635255551e-05   3.307114843724e-04  -7.552051474628e-05 
3 1 -8.976886900839e-05   3.893487201319e-04  -1.789625345993e-04 
4 1 -1.885961077292e-04   1.482849336264e-04   1.135137196929e-04 
5 1 -3.853954525396e-04   1.802810097421e-04  -2.106942600733e-04 
6 1 -1.210931456291e-04  -1.293581477924e-04  -1.262000347081e-04 
7 1  6.205243130902e-05   1.202959653266e-04   3.329076013931e-05 
8 1  1.683806489073e-04  -1.636857523597e-04  -9.786732673050e-06 
8
Step 20000
1 1 -1.435629937413e-04  -8.005836424248e-05  -9.267202020359e-06 
2 1 -8.368296580843e-05   1.986505281243e-04  -4.388625979503e-05 
3 1 -2.533753717733e-05   2.795528679935e-04   1.788988019363e-05 
4 1  1.129177646373e-04   6.615454002717e-05   2.642613339766e-04 
5 1 -3.455056935756e-04   1.967679571169e-04  -2.270110799160e-04 
6 1 -2.215271907324e-05  -1.546945852170e-04  -2.085232933512e-04 
7 1  2.370702796100e-05  -3.871127612171e-05   7.090245684899e-05 
8 1  1.906505672361e-04  -3.704779895008e-04   1.050834019555e-04 
8
Step 21000
1 1 -9.382669693883e-05   1.338832743729e-05  -3.438138232842e-05 
2 1  8.516542366580e-05  -1.801437384670e-04   1.080208053773e-05 
3 1  7.650681834433e-05  -1.712211715773e-04   1.698697746980e-04 
4 1  2.789615872757e-04  -1.489651867811e-05   5.122126479115e-05 
5 1  8.595829555398e-06  -5.834258146660e-05   7.033038153868e-05 
6 1  2.096420659468e-04  -8.897485772478e-06   9.480188145671e-06 
7 1  6.702197418670e-06  -1.276336673461e-04   1.539777543979e-05 
8 1  1.611767293767e-05  -1.120878620714e-04   1.191902549137e-04 
8
Step 22000
1 1  4.843418656345e-05   1.397945817210e-04   3.765857232091e-05 
2 1  1.440935398965e-04  -3.226554740843e-04   1.146690285493e-05 
3 1  7.147343633204e-05  -4.048286993769e-04   7.879439898195e-05 
4 1  1.000142477172e-04  -1.121454261350e-05  -1.713652758611e-04 
5 1  2.839168217764e-04  -2.541691527376e-04   2.441622554958e-04 
6 1  2.350807309850e-04   2.071114463364e-04   1.934567246411e-04 
7 1 -3.515981562088e-05  -3.535171752026e-05  -5.142339405987e-05 
8 1 -1.574749543930e-04   3.428077525972e-04   2.720918930268e-05 
8
Step 23000
1 1  9.206245620963e-05   1.389571517704e-04   1.126717809166e-04 
2 1 -3.369704371045e-05  -6.361444201027e-05  -1.029448926207e-05 
3 1 -4.024112379727e-05  -1.284011726958e-04  -1.179005950503e-04 
4 1 -1.927231587975e-04   3.508766734246e-05  -4.473133238287e-05 
5 1  2.451906546344e-04  -1.325965612424e-04   4.475274256466e-05 
6 1 -5.618334935532e-05   2.750929458762e-04   5.765932526994e-05 
7 1 -1.060731292345e-04   7.339855113443e-05  -5.359079811690e-05 
8 1 -1.414528719541e-04   4.139710070928e-04  -6.063567926620e-05 
8
Step 24000
1 1  2.321267288529e-05  -2.503688274961e-05   9.056542236744e-05 
2 1 -2.139325383321e-04   2.372011736953e-04  -2.170690397933e-05 
3 1 -1.212449591303e-04   3.141644378879e-04  -1.340094124405e-04 
4 1 -2.023725779796e-04   4.008818480185e-05   2.476178416871e-04 
5 1  2.874961813694e-05   1.485385301628e-04  -2.419961609693e-04 
6 1 -3.351084427142e-04   9.708317630854e-05  -2.148949344887e-04 
7 1 -1.171955425612e-04   1.267390159745e-05  -5.958802159997e-06 
8 1  2.700089603782e-05  -3.465680231797e-05  -8.285688898246e-05 
8
Step 25000
1 1 -8.911745750097e-06  -1.896717091593e-04  -7.548205635324e-06 
2 1 -1.086964677327e-04   1.834345735002e-04  -5.206962571009e-05 
3 1 -7.556859664905e-05   3.726885437680e-04   6.717596483557e-05 
4 1  1.117522583804e-04  -1.606837030775e-05   2.289591646767e-04 
5 1 -9.964805689791e-05   2.300306867625e-04  -1.962993651988e-04 
6 1 -2.240990324565e-04  -1.588993745218e-04  -2.132754829034e-04 
7 1  5.038749027419e-06  -1.317651289882e-04   2.971575114845e-05 
8 1  1.374117470843e-04  -4.655765081510e-04  -7.974174659257e-05 
8
Step 26000
1 1  5.600789534877e-05  -1.612836755127e-04  -8.378781384156e-05 
2 1  1.870378756948e-04  -1.226592678876e-04  -1.027507017526e-04 
3 1  3.441438026644e-05  -1.735067312887e-05   2.032114259893e-04 
4 1  3.349878204751e-04  -7.908016411542e-05  -1.561259623444e-04 
5 1 -7.177043432153e-05   2.706296703412e-05   1.367519895640e-04 
6 1  1.803813807441e-04  -2.178942965430e-04   1.169081308636e-04 
7 1  1.769877408968e-04  -1.092326116686e-04   3.502843772095e-05 
8 1  6.431749202228e-05  -3.253790679840e-04  -8.087222975810e-05 
8
Step 27000
1 1  8.768415398287e-05   4.798776874744e-05  -9.740105726512e-05 
2 1  2.747359283904e-04  -2.271501197083e-04  -8.191977604355e-05 
3 1  7.768991055102e-05  -3.596738631427e-04   5.103829669981e-05 
4 1  1.170640555633e-04  -9.155642259044e-05  -3.984349679555e-04 
5 1 -2.965534680076e-05  -1.712847738024e-04   2.907514484590e-04 
6 1  3.711773911634e-04  -2.914930680270e-05   3.586999384577e-04 
7 1  2.021482120900e-04   1.126539767602e-04   3.866761307917e-05 
8 1 -7.952518006497e-05   2.102798651509e-04  -3.091287026407e-05 
8
Step 28000
1 1 -2.396139511110e-05   2.085905524452e-04  -8.968119872457e-05 
2 1  5.567228644584e-06   2.800126343453e-05   6.416293448586e-05 
3 1  2.528907860034e-05  -2.451811722632e-04  -2.185723504070e-04 
4 1 -3.180425561259e-04  -5.271918756198e-05  -1.326167575441e-04 
5 1 -7.344136946638e-05  -1.098850755448e-04   3.578667634537e-05 
6 1  8.002106180094e-05   1.391585550690e-04   1.807228652641e-04 
7 1  4.461118354684e-06   2.516980753415e-04   4.373091373052e-05 
8 1 -9.339717071712e-05   4.253049354231e-04   1.004669399664e-04 
8
Step 29000
1 1 -1.663395842817e-04   1.343148165222e-04  -7.901121502835e-05 
2 1 -2.720413224740e-04   2.677632731067e-04   2.065951613752e-04 
3 1 -3.159992248425e-05   1.276504855754e-04  -2.382867620547e-04 
4 1 -4.126306851272e-04  -1.372585665819e-06   2.962647854624e-04 
5 1 -1.169097192207e-04   8.699121960642e-05  -2.783479254423e-04 
6 1 -3.336427468954e-04   3.031779005090e-05  -1.933224732278e-04 
7 1 -2.359936776516e-04   9.848204482070e-05   1.086978374524e-05 
8 1  4.457635886189e-05   2.495451278588e-05   1.996779578607e-04 
8
Step 30000
1 1 -1.482730953681e-04  -9.208906391081e-05  -1.630715702516e-05 
2 1 -1.768353972870e-04   1.207009656294e-04   1.556503504744e-04 
3 1 -2.497117516640e-05   2.575373826651e-04   5.971459406198e-05 
4 1 -1.646477129633e-05   4.199631331248e-05   2.858045235068e-04 
5 1 -3.718962989242e-05   1.181670199340e-04  -2.070467750340e-04 
6 1 -3.277811896673e-04  -2.383812726980e-04  -2.844880418388e-04 
7 1 -2.547619889151e-04  -1.591132802206e-04  -6.348985040294e-05 
8 1  1.443836192109e-04  -4.335719225061e-04   1.190367782367e-04 
8
Step 31000
1 1  7.012268990706e-06  -2.134185823142e-04   1.095340658773e-04 
2 1  1.580376429753e-04  -2.242421095626e-04  -6.329650852055e-05 
3 1  8.778291141516e-06   2.875974160182e-05   3.215712699417e-04 
4 1  3.725397792032e-04   8.670323072186e-05  -1.562274753523e-04 
5 1  1.219426590356e-04  -5.250005206557e-05   1.587221991158e-04 
6 1  1.031698809467e-04  -2.906562324577e-04  -1.849696966293e-05 
7 1 -7.871731741746e-06  -1.805343068500e-04  -1.012916734765e-04 
8 1  5.425654678187e-05  -2.872997371481e-04  -9.355922983584e-05 
8
Step 32000
1 1  7.881360417337e-05  -1.010621340433e-04   1.872156289748e-04 
2 1  2.606722905445e-04  -2.678564954928e-04  -1.909543119661e-04 
3 1  1.985730518532e-05  -1.809117617371e-04   2.181179148651e-04 
4 1  2.531614140202e-04   1.195352894486e-04  -4.084557438678e-04 
5 1  1.901886539462e-04  -1.609748463619e-04   3.259538140395e-04 
6 1  4.117403412543e-04   8.142190680666e-06   1.981356963169e-04 
7 1  2.576025586102e-04   4.102040063009e-05  -3.150990816012e-05 
8 1 -1.350595177280e-04   3.049884107773e-04  -1.973543185612e-04 
8
Step 33000
1 1 -1.779008480141e-05   1.012109199051e-04   1.033289127715e-04 
2 1 -6.836837124176e-06   7.448023299281e-05  -6.623408886024e-05 
3 1  3.317615249241e-05  -8.101710891516e-05  -1.249697199715e-04 
4 1 -1.965382878596e-04   8.793834543038e-05  -1.303156292901e-04 
5 1  9.750049676638e-05  -4.458641584346e-05   9.329983182702e-05 
6 1  2.211629332566e-04   3.420861278494e-04   7.848423333381e-05 
7 1  2.736072703991e-04   1.711476532050e-04   8.907255994882e-05 
8 1 -2.022333349752e-04   5.693284806353e-04  -6.138632898082e-05 
8
Step 34000
1 1 -9.383148009301e-05   1.672270617612e-04  -8.618150155475e-05 
2 1 -2.612754871024e-04   3.335341464630e-04   1.451863624514e-04 
3 1  7.836666554586e-05   1.367259320679e-04  -2.969161533173e-04 
4 1 -3.579247972781e-04  -3.577321825558e-05   2.716883924539e-04 
5 1 -4.845243699100e-05   1.322858790480e-04  -2.083182414043e-04 
6 1 -2.077021262013e-04   3.353188102349e-04  -1.601733101989e-04 
7 1  3.558350601626e-05   2.759747306123e-05   1.167717860691e-04 
8 1 -6.543777459894e-05   1.627379981169e-04   1.414541400222e-04 
8
Step 35000
1 1  2.550879995519e-05   5.354081544587e-05  -1.875636932449e-04 
2 1 -1.565146259397e-04   1.411624602556e-04   1.685671559494e-04 
3 1  9.517764477174e-05   1.239796798170e-04  -1.232821742054e-04 
4 1 -4.983274355743e-06  -1.767267291787e-04   2.620174261235e-04 
5 1 -1.157930169572e-04   1.341887749599e-04  -2.149360692613e-04 
6 1 -3.522813994635e-04   2.247035690652e-05  -1.553780367805e-04 
7 1 -2.125277680159e-04  -1.585799381398e-04   3.582493765693e-06 
8 1  1.291715407181e-04  -3.887517920762e-04   1.465633670295e-04 
8
Step 36000
1 1  2.218158760662e-04  -8.321113209087e-05  -9.464300046353e-05 
2 1  1.362680715140e-04  -2.519143749162e-04  -1.089380115263e-05 
3 1  1.823911913181e-06  -1.061365778047e-04   1.437056928715e-04 
4 1  4.065087386226e-04  -1.943714139000e-04  -5.881478894066e-05 
5 1 -9.683560397402e-05  -1.380140679962e-05  -5.981367784604e-06 
6 1 -9.040011614820e-05  -2.163387290194e-04   7.068048031927e-05 
7 1 -2.480326192988e-04  -1.026501538663e-04  -1.223287432436e-04 
8 1  1.920905806159e-04  -4.255641869414e-04  -5.056832072372e-05 
8
Step 37000
1 1  2.267764412500e-04  -9.596861481333e-05   8.523894665134e-05 
2 1  2.023996229348e-04  -3.191919624029e-04  -1.495346253065e-04 
3 1 -1.582296294911e-04  -2.095039293413e-04   1.748422053435e-04 
4 1  3.472612280415e-04  -2.531775439165e-05  -1.541975805648e-04 
5 1 -5.728631808363e-05  -9.450611468151e-05   9.247711284535e-05 
6 1  2.221555899878e-04  -1.469656210386e-04   1.786665040406e-04 
7 1 -7.304065387031e-05   1.029135978463e-04  -1.072214551935e-04 
8 1  9.065983487787e-05   7.969239214238e-06  -1.881346450578e-04 
8
Step 38000
1 1 -5.732970575217e-06  -2.353665471697e-06   1.553561858053e-04 
2 1 -2.403632905692e-05   3.348075032142e-05  -9.215382530136e-05 
3 1 -2.141401938477e-04  -7.715418638296e-06  -3.664038093194e-05 
4 1 -1.192813080778e-04   2.111090304289e-04   1.332906058283e-04 
5 1 -1.182219968623e-05  -2.102698302454e-05  -2.516512818027e-06 
6 1  2.421807488968e-04   6.638306456136e-05   1.992360846219e-05 
7 1  1.321169700290e-04   1.215516108348e-04   2.977936025563e-05 
8 1 -5.744315922311e-05   3.106313929698e-04  -8.472987613721e-05 
8
Step 39000
1 1 -2.150725647302e-04   7.152946660866e-05   5.649313451477e-05 
2 1 -1.865093046745e-04   3.434303792070e-04   2.479555156501e-05 
3 1 -6.723756006813e-05   2.486916961194e-04  -1.957845679490e-04 
4 1 -4.374633078246e-04   2.846905636789e-04   3.392282927361e-04 
5 1  6.470811038285e-05   5.809288323709e-05  -6.069228930939e-05 
6 1  1.889431436941e-05   1.229899354012e-04  -1.578887914909e-04 
7 1  1.949450256291e-04  -1.167683889427e-04   1.165534156908e-04 
8 1 -1.272848216730e-04   1.430978929238e-04   1.191275110075e-04 
8
Step 40000
1 1 -1.770602263976e-04   5.499533441755e-05  -7.262545887836e-05 
2 1 -3.771343203551e-05   2.081461424865e-04  -3.031004811105e-06 
3 1  1.514365107189e-04   2.132506655936e-04  -8.318911171422e-05 
4 1 -2.647577355007e-04   8.349962944827e-05   5.796128788621e-05 
5 1  1.395981244791e-04   2.358480812585e-06   6.500272591428e-05 
6 1 -1.532652271580e-04  -2.075686714882e-05  -8.071316635275e-05 
7 1  9.333484792325e-05  -2.608397585715e-04   5.628193605163e-05 
8 1 -9.270992871069e-05  -1.815867106536e-04   1.494445702799e-04 
8
Step 41000
1 1  4.401150132704e-06  -5.149524285650e-06  -7.530411771955e-05 
2 1  1.945461751090e-04  -1.878816608019e-04  -1.251211928027e-04 
3 1  2.032928013303e-04  -8.563086396393e-05   1.800175216179e-04 
4 1  1.412477298792e-04  -2.323493462415e-04  -4.196344308470e-04 
5 1  1.216357366165e-04  -9.788680695771e-05   1.905396128840e-04 
6 1 -1.270590113121e-04  -1.351368181147e-04   1.493426323963e-04 
7 1 -5.818394877419e-05  -1.733865459437e-05  -4.593923821741e-05 
8 1 -7.208564411543e-06  -2.012992449735e-04  -2.926533845175e-05 
8
Step 42000
1 1  6.092844607038e-05  -3.071849741293e-05   2.830217173002e-05 
2 1  1.410029419646e-04  -3.290425912525e-04  -9.977710441068e-05 
3 1  3.161245994764e-05  -2.732345313526e-04   2.795239382923e-04 
4 1  2.953294124728e-04  -3.531108035915e-04  -4.593721717208e-04 
5 1 -7.728309301430e-06  -5.836503067960e-05   8.008661989482e-05 
6 1 -1.939065028492e-05  -5.884963686741e-05   1.960798517667e-04 
7 1 -1.248667880115e-04   3.772836290545e-04  -4.090326324130e-05 
8 1  6.208444734742e-05   6.286034795026e-05  -1.658768557385e-04 
8
Step 43000
1 1 -5.202691443003e-05  -1.723380273562e-05   7.766978972170e-05 
2 1 -1.553596704944e-04  -4.907456647369e-05   1.391378721447e-04 
3 1 -1.488613486725e-04  -1.248083526958e-04   7.853549815482e-05 
4 1  9.051360037297e-05  -1.387851108994e-04   2.398347299442e-05 
5 1 -1.390942140844e-04   1.032084106381e-04  -1.711268936144e-04 
6 1  1.780379406235e-05   8.317083518124e-05  -2.984783340683e-05 
7 1 -6.705830255969e-05   4.011912485722e-04   4.500368602197e-05 
8 1  7.798243061795e-05   2.038912153588e-04  -6.403899809769e-05 
8
Step 44000
1 1 -1.068474837018e-04  -1.804127503885e-05  -9.154954458880e-06 
2 1 -2.699875960873e-04   2.747488794858e-04   3.284953565893e-04 
3 1 -1.113193904784e-04   1.548994858237e-04  -2.234840398593e-04 
4 1 -1.437804249452e-04   2.116258774057e-04   4.128027579880e-04 
5 1 -1.477697130202e-04   1.651737078835e-04  -2.318166299882e-04 
6 1  2.454845677098e-06   7.266270957299e-05  -2.325321059485e-04 
7 1  3.798185175503e-05  -6.059714562220e-05   5.040159928199e-05 
8 1  3.963571197216e-05   3.793805701760e-05   1.517864473364e-04 
8
Step 45000
1 1  3.697238405559e-05  -4.547135637779e-05  -1.287576572530e-04 
2 1  2.536656629642e-06   2.361585001483e-04   1.997536721702e-04 
3 1  9.422374011570e-05   2.157472302231e-04  -3.128213438390e-04 
4 1 -1.246482177817e-04   3.438807135760e-04   2.197282412382e-04 
5 1 -3.814241826360e-05   1.767129046182e-05  -3.822766037580e-06 
6 1  3.480297216831e-05  -7.988824617454e-05  -1.364198897399e-04 
7 1  7.741997339493e-05  -4.868374025375e-04  -7.043509182583e-05 
8 1 -2.187681143073e-05  -1.542707747376e-04   1.975517509025e-04 
8
Step 46000
1 1  2.043807247913e-04  -4.539573070018e-05  -1.354244652605e-04 
2 1  3.270452421037e-04  -8.205039529367e-05  -1.407749963745e-04 
3 1  2.063440306105e-04   5.756174542835e-06  -1.048858027163e-04 
4 1  4.529844429269e-05   1.296944135877e-04  -2.454325557777e-04 
5 1  6.412493124046e-05  -1.674009972847e-04   2.175096040824e-04 
6 1  1.023492446922e-04  -1.480919605435e-04   1.320378622585e-04 
7 1  1.805934608375e-05  -3.544228172764e-04  -1.498778186619e-04 
8 1 -5.849291161542e-05  -7.207890606183e-05   8.654445558400e-06 
8
Step 47000
1 1  1.460258523059e-04   2.162586319358e-05  -2.232247120029e-05 
2 1  2.580730978668e-04  -2.617931438155e-04  -3.167335396778e-04 
3 1  8.236903301015e-05  -2.037929473786e-04   1.815284189263e-04 
4 1  9.303723226515e-05  -1.913967621646e-04  -3.192136357382e-04 
5 1  6.818669631732e-05  -1.630914209791e-04   1.402233473204e-04 
6 1  8.654351901536e-05  -8.387613871079e-06   2.189209231979e-04 
7 1 -6.403381356061e-05   1.833420534851e-04  -3.037767097616e-05 
8 1 -4.716209331988e-05   1.615928237819e-04  -1.817088507862e-04 
8
Step 48000
1 1 -8.429021823702e-05   9.918170742654e-05   8.835518498135e-05 
2 1 -1.476563330440e-04  -1.097960770473e-04  -1.481272825843e-04 
3 1 -1.316161150849e-04  -1.830512614065e-04   2.651970181258e-04 
4 1 -2.291268016286e-05  -2.700362728068e-04   8.964347129713e-05 
5 1  9.758992584143e-06   4.457040222983e-06  -1.215376431212e-04 
6 1 -4.536336071549e-05   1.765810367028e-04   1.943662734590e-05 
7 1 -6.971508040039e-05   4.577839842818e-04   1.827009094033e-04 
8 1 -1.432885466683e-05   1.944531146197e-04  -1.504128455250e-04 
8
Step 49000
1 1 -1.824254361723e-04   8.847871622444e-05   1.122019014428e-04 
2 1 -3.904020817369e-04   1.301215223469e-04   1.260792269970e-04 
3 1 -2.017763228231e-04   6.777477980848e-06   9.446177802936e-05 
4 1 -9.102563860612e-05  -3.846983466417e-05   4.022386795536e-04 
5 1 -1.765569119035e-05   1.091148978435e-04  -2.110307436048e-04 
6 1 -1.591304476696e-04   1.744235217056e-04  -1.995436566978e-04 
7 1  8.307070576141e-06   1.277963532125e-04   2.164731044363e-04 
8 1 -2.591266173908e-06  -3.465612541540e-05   3.533893000458e-05 
8
Step 50000
1 1 -1.934542174822e-05  -2.276944868283e-05   8.607646363494e-05 
2 1 -1.821032289221e-04   1.507056073868e-04   1.708077437614e-04 
3 1 -8.854564247696e-05   1.534210635076e-04  -1.259837421812e-04 
4 1  1.502716977153e-05   2.192373053314e-04   2.014981634480e-04 
5 1  1.600782320669e-05   5.090153676672e-05  -2.042120851621e-05 
6 1 -1.126376914383e-04  -8.420812450778e-06  -1.725395083910e-04 
7 1  7.912701596799e-05  -3.848447023524e-04  -1.472727107515e-05 
8 1 -7.136389716596e-06  -2.147417976405e-04   1.312674061796e-04 
8
Step 51000
1 1  1.660211950729e-04  -1.203909760935e-04   7.144765367151e-05 
2 1  1.910843630166e-04  -1.742531676280e-05  -2.083948595389e-05 
3 1  4.980990718148e-05   1.572576710683e-04  -1.741885885174e-04 
4 1  1.487168591792e-04   1.984924847765e-04  -2.032453054376e-04 
5 1  5.767002772249e-05  -2.285401940222e-05   1.788375187056e-04 
6 1  6.067653952513e-05  -1.427599630301e-04   3.401376283299e-05 
7 1  6.017900223380e-05  -4.241689755253e-04  -2.623271218501e-04 
8 1  2.280808757631e-05  -1.158745705735e-04   4.125565546932e-05 
8
Step 52000
1 1  9.413070284365e-05  -8.218606802660e-05   5.297507517337e-05 
2 1  2.658037746715e-04  -1.017745714851e-04  -1.534362529037e-04 
3 1  8.435795787191e-05   7.822334394017e-05  -4.283735599844e-05 
4 1  1.047372493859e-04  -7.389058420534e-05  -2.470691638043e-04 
5 1  5.199924774287e-05   3.670304305469e-05   1.284592717308e-04 
6 1  1.811055590387e-04  -7.732070349211e-05   1.559716045913e-04 
7 1 -2.900956712250e-05   8.141037795725e-05  -2.277097387175e-04 
8 1  9.869230176690e-05   8.994480736954e-05  -8.260136145663e-05 
8
Step 53000
1 1 -1.515858918061e-04   6.526044104969e-05  -2.059197506920e-05 
2 1  1.121567644940e-05   3.742341725796e-06  -4.274339447653e-05 
3 1  4.338437331738e-05  -4.445444555998e-06   8.096238613551e-05 
4 1 -8.107409392828e-05  -2.737764907361e-04   8.147508846977e-05 
5 1 -3.219330453372e-06   1.428253504731e-04  -6.887156439503e-05 
6 1  1.228774200617e-04   7.939651107452e-05   9.370069045265e-05 
7 1 -8.655071707260e-05   5.317987652320e-04   6.013505296284e-05 
8 1  1.379510815360e-04   9.218408264318e-05  -6.995664658216e-05 
8
Step 54000
1 1 -2.180184176120e-04   1.536996519830e-04  -1.279850921527e-04 
2 1 -1.672868983525e-04   1.022354240727e-04   1.399980286094e-04 
3 1  1.384499614343e-05  -7.737292449799e-05   5.627496426665e-05 
4 1 -1.715182418850e-04  -1.635798323116e-04   2.437984475704e-04 
5 1 -7.422105677043e-05   9.219399636112e-05  -1.264782723305e-04 