8
Step 0
1 1  0.000000000000e+00   0.000000000000e+00   0.000000000000e+00 
2 1  0.000000000000e+00   0.000000000000e+00   0.000000000000e+00 
3 1  0.000000000000e+00   0.000000000000e+00   0.000000000000e+00 
4 1  0.000000000000e+00   0.000000000000e+00   0.000000000000e+00 
5 1  0.000000000000e+00   0.000000000000e+00   0.000000000000e+00 
6 1  0.000000000000e+00   0.000000000000e+00   0.000000000000e+00 
7 1  0.000000000000e+00   0.000000000000e+00   0.000000000000e+00 
8 1  0.000000000000e+00   0.000000000000e+00   0.000000000000e+00 
8
Step 1000
1 1  5.099289433936e-05  -7.625553011145e-05   1.471675125718e-04 
2 1  2.828020235569e-04   2.751228548261e-05  -5.177594732605e-04 
3 1 -7.247350428275e-06   2.136342973098e-04  -2.580777360731e-04 
4 1  8.396604295785e-05  -1.489922790148e-05  -2.462532898343e-04 
5 1 -2.057737264423e-04   8.360041491226e-05  -9.836506233735e-05 
6 1 -2.787171656894e-04  -3.387267627936e-04   2.475680981921e-04 
7 1 -1.198915157254e-04   6.695149546990e-05   8.215014829040e-05 
8 1 -7.663067314703e-06   1.069316567423e-06  -4.689843827033e-04 
8
Step 2000
1 1 -2.511174715100e-04   2.798495571208e-05   1.867011300401e-05 
2 1 -2.363612050716e-04   4.760195155253e-04   1.007345822080e-04 
3 1  2.098094580435e-04   3.870211229555e-05  -3.715185873001e-04 
4 1  2.777852775348e-05  -1.417547094491e-04   3.051924559284e-04 
5 1 -1.277216202604e-04   2.192044126189e-05  -3.649368000137e-04 
6 1 -5.287884241943e-04  -3.884099777376e-05  -1.228001991945e-04 
7 1  1.216377847488e-04   6.640096725410e-06   1.352231083462e-04 
8 1 -6.417799573242e-06   1.795829027279e-04   1.195838366882e-04 
8
Step 3000
1 1 -3.302860587455e-04   1.376568465822e-04  -1.130589601799e-04 
2 1 -3.519780319181e-04   3.505841112231e-04   5.713203314584e-04 
3 1  2.264374443684e-04  -1.150841182968e-04  -2.345344774385e-05 
4 1 -1.277756146122e-05  -1.484477975476e-05   3.403038906402e-04 
5 1  5.555191627350e-05  -3.999760287342e-05  -1.056058289578e-04 
6 1 -2.188298445923e-04   1.810002467271e-04  -2.260493652951e-04 
7 1  1.934885240511e-04  -2.440081240714e-05   6.137936648885e-05 
8 1  2.388859384928e-05   1.655241819189e-04   5.138847640269e-04 
8
Step 4000
1 1 -7.430610051588e-05   1.577304743388e-04  -1.259228575951e-04 
2 1  5.062826836925e-05  -1.717794547221e-04   3.501823058140e-04 
3 1  1.562639375693e-05  -1.164573151488e-04   3.227532679411e-04 
4 1  2.736355148934e-05   1.436161348956e-04  -1.447910007516e-04 
5 1  1.409871897338e-04  -2.720922299880e-05   2.574289757581e-04 
6 1  3.018966590137e-04   9.478072860118e-05   2.559149808147e-06 
7 1  4.097300216616e-05   8.177558275044e-05  -1.272092410195e-04 
8 1  4.444436101846e-05   1.028080287679e-04   2.624037438973e-04 
8
Step 5000
1 1  1.990091056361e-04   4.351495319578e-05  -2.348798861982e-05 
2 1  3.835963860585e-04  -4.408316709832e-04  -2.097267227301e-04 
3 1 -1.763697869517e-04   1.166654642414e-05   2.702585117530e-04 
4 1  4.608720226568e-05   9.569611400195e-05  -4.561459833886e-04 
5 1  4.999130583728e-05   6.918471147708e-05   2.071599478423e-04 
6 1  4.703510297209e-04  -1.591312086565e-04   1.598947686833e-04 
7 1 -1.317222298962e-04   2.151760066213e-04  -2.289208281728e-04 
8 1  4.620514071674e-05   6.277968724165e-05  -2.682977526130e-04 
8
Step 6000
1 1  1.662775362430e-04  -1.198736048213e-04   8.389602016539e-05 
2 1  1.987115192039e-04  -1.669463156102e-04  -4.117229209832e-04 
3 1 -1.300304516309e-04   8.604729015502e-05  -5.395190443217e-05 
4 1 -2.516682475960e-05  -8.066296190377e-05  -1.762433980198e-04 
5 1 -6.611848137318e-05   1.356335880711e-04  -1.605034110708e-04 
6 1  1.599315900223e-04  -2.778134001638e-04   1.092015152105e-05 
7 1 -1.257090477198e-04   1.599090236300e-04  -1.105038259094e-04 
8 1  3.658109546304e-05  -2.083490104551e-05  -4.311728265688e-04 
8
Step 7000
1 1 -8.672788526333e-05  -1.702123770541e-04   8.980209383244e-05 
2 1 -2.414279635385e-04   2.647872875497e-04  -8.829156843403e-05 
3 1  8.742298008150e-05  -2.800663883031e-05  -2.321005948656e-04 
4 1 -9.459735425348e-05  -1.256186084253e-04   3.001533593313e-04 
5 1 -2.755565338280e-05   4.467568211801e-05  -3.037804001668e-04 
6 1 -2.332546859031e-04  -1.144446611926e-04  -1.887657820834e-04 
7 1  3.899083105241e-05  -1.026849040998e-04   1.022066343238e-04 
8 1  5.199336555889e-06  -1.386819460946e-04  -8.703879453458e-05 
8
Step 8000
1 1 -1.945386572590e-04  -3.983009362753e-05  -5.153207490912e-06 
2 1 -3.602439036825e-04   3.287645168637e-04   2.678444476804e-04 
3 1  2.055358634649e-04  -2.085289820625e-04  -9.389777304025e-05 
4 1 -4.524613664595e-05   2.157868855128e-05   3.412941126431e-04 
5 1  1.149604414536e-04  -1.510815543194e-04  -2.190095982840e-06 
6 1 -2.981945083620e-04   1.848129967386e-04  -1.104693944408e-04 
7 1  1.596076997872e-04  -3.071427565603e-04   1.630567716684e-04 
8 1 -5.556480035744e-05  -1.438184920083e-04   2.899598368796e-04 
8
Step 9000
1 1 -4.404041162547e-06   1.478648822959e-04  -9.846323954998e-05 
2 1 -4.779500475979e-05   1.940607784539e-05   2.074812921909e-04 
3 1  8.107785539903e-05  -1.855571207970e-04   1.205871000559e-04 
4 1  7.999215954465e-05   1.340205370959e-04  -4.680472339892e-05 
5 1  1.308695068604e-04  -2.318649649125e-04   3.393753249157e-04 
6 1 -7.351606620771e-05   3.475504899237e-04   1.392642134852e-04 
7 1  9.027359256940e-05  -2.150680405962e-04   2.208450843616e-05 
8 1 -1.067797390895e-04   1.909826132159e-05   2.649444988113e-04 
8
Step 10000
1 1  2.386276554049e-04   1.921756546634e-04  -9.005493920397e-05 
2 1  2.539659345966e-04  -2.299633353658e-04  -1.213055370621e-04 
3 1 -1.407090178176e-04   1.046140526537e-04   1.282336739427e-04 
4 1  1.245113853436e-04   2.312871396798e-05  -2.790015959670e-04 
5 1 -6.911192922720e-05  -6.654232787083e-05   2.521663692383e-04 
6 1  1.108541226762e-04   2.280749009349e-04   1.771857284976e-04 
7 1 -9.495743977763e-05   8.132360644228e-05  -1.156577743386e-04 
8 1 -7.851283323519e-05   1.691544805274e-04  -4.805639189596e-05 
8
Step 11000
1 1  2.277707188316e-04   3.029507049771e-05   2.028791953024e-05 
2 1  1.810107197308e-04  -1.524934153697e-04  -2.443044355482e-04 
3 1 -2.084640033050e-04   3.633227934581e-04  -4.758949292858e-05 
4 1  3.109035456124e-05  -1.799565418144e-04  -2.844149101754e-05 
5 1 -2.687111463820e-04   1.891603288362e-04  -1.580587388421e-04 
6 1  9.065555737597e-05  -6.278210274584e-05  -7.767188002392e-05 
7 1 -1.845109395225e-04   2.460281508833e-04  -6.251973951502e-05 
8 1  3.589001488931e-05   9.572749755406e-05  -2.133671860584e-04 
8
Step 12000
1 1 -1.522310487322e-05  -1.789548086561e-04   1.356548756698e-04 
2 1 -9.264969359412e-05   5.473836979324e-05  -2.159250052613e-05 
3 1 -6.838542711459e-05   2.613835092680e-04  -1.682603143312e-04 
4 1 -8.039174791723e-05  -1.796828734664e-04   3.337967561723e-04 
5 1 -2.003219960007e-04   2.501975455962e-04  -3.582305120323e-04 
6 1  9.811821328508e-06  -2.572904163320e-04  -2.548651545777e-04 
7 1 -6.970268640440e-05   1.045624356336e-04   1.040542720920e-04 
8 1  1.373306176795e-04  -1.332650688679e-04  -6.100242764187e-05 
8
Step 13000
1 1 -2.047652139012e-04  -2.115715846230e-04   1.530578410644e-04 
2 1 -1.581055057550e-04   8.516990869764e-05   1.968173672095e-04 
3 1  9.173315675948e-05  -1.279301450450e-04  -1.100633737862e-04 
4 1 -7.852564724631e-05   8.546814837060e-05   2.753513071574e-04 
5 1  9.919686133439e-05   4.922386078946e-05  -1.031620733043e-04 
6 1  3.046168397371e-05  -1.843211555482e-04  -5.579063683180e-05 
7 1  1.285416337234e-04  -1.443755353672e-04   1.449198070491e-04 
8 1  1.133058299656e-04  -2.202552205329e-04   1.395301122233e-04 
8
Step 14000
1 1 -1.665850956751e-04  -2.014685811246e-05   5.592068193116e-05 
2 1  4.254397590367e-05  -3.877450944497e-05   8.560825398166e-05 
3 1  9.327037687054e-05  -3.654178661700e-04   2.353160892303e-05 
4 1  1.061415841018e-05   3.220212463750e-04  -1.483093084135e-04 
5 1  2.991773092886e-04  -1.742383180422e-04   2.505614643468e-04 
6 1  8.401259540192e-05   6.288813233592e-05   2.855663844352e-04 
7 1  1.883981509906e-04  -1.859950651730e-04  -1.582923386069e-05 
8 1 -2.512173186718e-05  -3.024883761052e-05   9.391074944335e-05 
8
Step 15000
1 1 -1.586815367084e-05   2.006597947493e-04  -7.513467129607e-05 
2 1  1.765601209641e-04  -5.834885999228e-05  -2.048122353236e-04 
3 1 -1.568159756624e-05  -1.759975785798e-04   9.478090775614e-05 
4 1  5.738884517853e-05   2.273059861302e-04  -3.893727207509e-04 
5 1  1.769948303709e-04  -1.753258301854e-04   2.397944768220e-04 
6 1  1.708417488396e-05   2.069881268912e-04   2.967623059426e-04 
7 1  3.783121456862e-05   1.986965071532e-05  -1.777344651697e-04 
8 1 -1.339760261219e-04   2.077650774538e-04  -1.211190994616e-04 
8
Step 16000
1 1  5.818802175399e-05   2.159676179880e-04  -1.447062254252e-04 
2 1  2.973435503453e-05   8.917531359989e-05  -2.585139426879e-04 
3 1 -5.030425888159e-05   1.937086619554e-04   1.019775794806e-04 
4 1  1.281343895423e-05  -1.340312871952e-04  -1.736408539823e-04 
5 1 -1.026598562132e-04  -3.684754134996e-06  -9.110198676282e-05 
6 1 -1.337290624804e-04   7.788495927349e-05  -7.566622874883e-05 
7 1 -1.603301932770e-04   2.095572520414e-04  -1.230072492340e-04 
8 1 -9.503368777241e-05   1.944981433322e-04  -1.934710087818e-04 
8
Step 17000
1 1  4.208614647334e-05   1.723188028206e-06  -1.202372184763e-04 
2 1 -1.874699438806e-04   1.630383046612e-04   4.125850822126e-05 
3 1  4.341121910669e-05   2.782649206456e-04   9.922515328706e-05 
4 1 -4.619624559358e-05  -3.831035017016e-04   1.562981490386e-04 
5 1 -1.997173888561e-04   9.468856436577e-05  -2.821702374453e-04 
6 1 -1.655718423268e-04  -1.861295266784e-04  -3.626232740543e-04 
7 1 -1.866539125836e-04   1.623173152465e-04   9.330803574448e-05 
8 1  4.638013417643e-05  -4.233080692257e-05  -1.229913186357e-05 
8
Step 18000
1 1  4.011110042675e-05  -2.240345321736e-04  -4.848670245372e-05 
2 1 -1.565368015604e-04  -5.784983731136e-06   3.540440469640e-04 
3 1  1.167077971015e-04  -1.636775345643e-05   6.474618370448e-05 
4 1 -4.802877018394e-05  -2.559048783595e-04   1.552708023988e-04 
5 1 -2.904793185031e-05   2.071433348615e-05  -9.150526226274e-05 
6 1 -1.022851246710e-05  -2.754380608037e-04  -1.912634140105e-04 
7 1 -1.085771527815e-05  -3.989678643394e-05   2.040389990156e-04 
8 1  1.298574925768e-04  -1.895570500104e-04   1.958455759651e-04 
8
Step 19000
1 1  6.171285865959e-05  -2.283362126015e-04   4.865086881975e-06 
2 1  8.906818287239e-05  -2.252772040691e-04   3.150615225716e-04 
3 1  3.623846176982e-05  -2.937803660048e-04  -5.177791257151e-05 
4 1 -2.049506188452e-05   1.041018046858e-04  -1.047733640874e-04 
5 1  1.435696792283e-04  -6.219096731843e-05   2.048471949062e-04 
6 1  1.428823360289e-04  -6.432892720508e-05   2.114865566986e-04 
7 1  1.766179128913e-04  -1.561667630380e-04   6.655888615046e-05 
8 1  6.154482223633e-05  -7.587664994844e-05   1.801326768290e-04 
8
Step 20000
1 1  8.242111622334e-06  -6.692723951396e-06   2.364461424512e-05 
2 1  2.132502286859e-04  -1.826115811171e-04  -2.261858126672e-05 
3 1 -1.103572033107e-04  -1.847580563841e-04  -1.795345480178e-04 
4 1 -1.385444122995e-05   3.194548559876e-04  -1.802073037654e-04 
5 1  6.320591018012e-05   9.304993105751e-06   2.191593918324e-04 
6 1  9.931462865730e-05   2.183299712430e-04   3.184868951271e-04 
7 1  1.775148968904e-04  -9.878851099893e-05  -1.517721660771e-04 
8 1 -8.116007800322e-05   1.059518441457e-04  -1.563250355254e-05 
8
Step 21000
1 1 -1.217193102409e-04   2.158971915767e-04   4.706565536569e-05 
2 1  5.410149568375e-05   1.029132711181e-04  -2.813748319496e-04 
3 1 -1.195036429232e-04   1.676686439596e-04  -1.596235925697e-04 
4 1 -1.808053385162e-06   2.011888652884e-04   7.462050856406e-05 
5 1 -1.687969047417e-04   1.444203149371e-04  -2.280435436724e-05 
6 1 -6.034373918109e-05   2.463462048936e-04   7.053574484906e-06 
7 1  3.310688095948e-06   4.055013310576e-06  -1.835876051201e-04 
8 1 -1.444830219509e-04   9.399158261579e-05  -1.386780665342e-04 
8
Step 22000
1 1 -1.604967685885e-04   2.242513487339e-04   1.061462364975e-04 
2 1 -1.587391787530e-04   2.748644277188e-04  -2.304802115576e-04 
3 1  4.051760287629e-05   3.033267043296e-04   3.370093386820e-05 
4 1  6.548023772182e-05  -6.881956511879e-05   2.979285269452e-04 
5 1 -2.245881978256e-04   1.233284249723e-04  -1.641214347732e-04 
6 1 -8.694273179619e-05  -5.145292550588e-07  -2.933688616016e-04 
7 1 -1.516696528173e-04   3.205423652813e-05   2.476611684616e-06 
8 1 -6.867064178687e-05  -6.061351006547e-05  -6.782259221660e-05 
8
Step 23000
1 1  9.836989468709e-06   2.415049253110e-05   1.571564101056e-04 
2 1 -1.387484510166e-04   1.123904916071e-04  -1.195838844856e-05 
3 1  1.597114133178e-04   5.329159856767e-05   2.006646491966e-04 
4 1  1.361024709563e-04  -1.803788100191e-04   1.551324492327e-04 
5 1  1.709857711783e-05  -7.506099674458e-05  -4.424572354352e-05 
6 1  7.674879870598e-05  -1.969367130486e-04  -1.949824008618e-04 
7 1 -1.339493910682e-04   2.481067653396e-05   1.683423204765e-04 
8 1  6.520673313187e-05  -8.008064745765e-05   5.710926819292e-05 
8
Step 24000
1 1  2.417494436239e-04  -1.816950097940e-04   1.084325471916e-04 
2 1  6.283545888940e-05  -1.696051788074e-04   1.064399834179e-04 
3 1  5.459839605106e-05  -2.477244030446e-04   1.319834747065e-04 
4 1  8.657335550019e-05  -4.505479407826e-05  -1.658974859371e-04 
5 1  2.958035678638e-04  -2.147506111597e-04   9.949527925513e-05 
6 1  1.938495310121e-04  -6.785534165763e-05   1.349136048198e-04 
7 1  1.372058855821e-05   5.329531162183e-05   1.078027185794e-04 
8 1  1.381721766544e-04   1.059736815200e-04   5.569692732909e-05 
8
Step 25000
1 1  2.525632417932e-04  -2.006071443281e-04  -6.026245133474e-05 
2 1  1.431069120923e-04  -2.028029040434e-04   6.377223013614e-05 
3 1 -1.641811351471e-04  -2.055928716352e-04  -1.089790465015e-04 
4 1 -9.099868683885e-05   1.301207813933e-04  -2.145995534019e-04 
5 1  2.790394845367e-04  -1.154947814236e-04   1.843586517537e-05 
6 1  4.856474335665e-05   2.415015421606e-04   2.222632163609e-04 
7 1  1.171514039849e-04   5.673101183222e-05  -9.336317716897e-05 
8 1  1.080743262827e-04   2.092580865718e-04  -5.283238093474e-05 
8
Step 26000
1 1 -1.170062796672e-05  -3.312591881256e-05  -2.234131957522e-04 
2 1 -7.524729068555e-06   3.164987753247e-05   1.589752893514e-06 
3 1 -2.085126366963e-04   1.178372138044e-04  -2.271789145251e-04 
4 1 -2.047476841488e-04   1.084476525817e-04   5.894827395547e-05 
5 1 -2.709467890007e-05   9.594614195596e-05  -1.513102929410e-04 
6 1 -2.267318631430e-04   3.031018670033e-04  -3.619553599719e-05 
7 1  7.264905972280e-05  -5.898541728755e-05  -1.684459699918e-04 
8 1  2.148610067273e-05  -2.224274023454e-05  -1.049702571566e-04 
8
Step 27000
1 1 -2.669111028854e-04   1.524948457659e-04  -2.149957937205e-04 
2 1 -1.447734553308e-04   1.778774235939e-04  -1.139348423698e-06 
3 1  3.196563771238e-06   2.968370695627e-04  -5.833563832527e-05 
4 1 -7.226389399884e-05  -9.940888010466e-05   2.205771684574e-04 
5 1 -2.864816844906e-04   1.568942720291e-04  -9.541020770718e-05 
6 1 -2.790280950259e-04  -4.659124281523e-05  -2.245570606398e-04 
7 1 -4.810384974089e-05  -1.930679646041e-04  -1.774717365094e-05 
8 1 -5.953080448541e-05  -3.725960330224e-04  -3.834338471475e-05 
8
Step 28000
1 1 -2.295384768003e-04   1.994777346474e-04  -2.964953682658e-05 
2 1 -4.332934560601e-05   1.144085437835e-05  -6.156589079265e-06 
3 1  2.157051051307e-04   1.023281640589e-04   1.997064593963e-04 
4 1  1.834628161304e-04  -2.582614424103e-04   2.952811807277e-06 
5 1 -2.356128690123e-04   2.323040906122e-05   1.643906102812e-04 
6 1 -7.582892266214e-06  -4.420059774678e-04  -1.754579618566e-05 
7 1 -1.013423108863e-04  -1.117979883925e-04   1.655590079239e-04 
8 1 -1.087388069056e-04  -3.570655427365e-04   4.398805992688e-05 
8
Step 29000
1 1  2.643572976533e-05   8.828440699893e-05   1.434151360075e-04 
2 1  1.540715764915e-04  -2.243633880350e-04  -4.460045054350e-05 
3 1  1.635033509532e-04  -2.117525861008e-04   2.217211976773e-04 
4 1  2.184019813226e-04  -1.708482150229e-04  -2.701506062235e-04 
5 1  1.871018938079e-05  -8.526569978330e-05   2.435743496952e-04 
6 1  2.612384075804e-04  -4.089660835378e-04   3.169795197870e-04 
7 1 -3.720548498650e-05   1.914893508862e-04   1.500549727441e-04 
8 1 -1.138020820917e-04   1.108876652918e-04   5.346692299106e-05 
8
Step 30000
1 1  1.773192446915e-04  -8.635787878523e-05   1.316408715178e-04 
2 1  1.450226371640e-04  -1.536370999440e-04  -3.370132554127e-05 
3 1 -7.140108617845e-05  -2.665272665990e-04  -2.007182334278e-05 
4 1 -7.876370261458e-05   1.085501505930e-04  -1.618124851360e-04 
5 1  1.639989575893e-04  -1.733249669509e-05  -3.964635961817e-05 
6 1  1.867893135221e-04   2.949269931562e-05   2.724603419483e-04 
7 1  6.383185201857e-05   3.694592644070e-04  -3.867172726672e-05 
8 1 -5.446177370099e-05   5.059122556852e-04   4.047077447343e-05 
8
Step 31000
1 1  7.246885956652e-05  -2.069710540704e-04  -6.922977579242e-06 
2 1 -6.919755088407e-05   1.777362826302e-04   6.411226320139e-05 
3 1 -1.667388325085e-04  -5.305429828625e-05  -2.064994158341e-04 
4 1 -3.668365787805e-04   3.213713674791e-04   1.818449293632e-04 
5 1  7.524387494749e-05   8.826306067516e-05  -3.267261267529e-04 
6 1 -1.151843405894e-04   3.573550973520e-04  -1.546049529653e-04 
7 1  9.777859995790e-05   1.363504771475e-04  -1.605796678532e-04 
8 1  5.399874142794e-05   3.334489512826e-04   7.987713713636e-05 
8
Step 32000
1 1 -1.038081849249e-04  -1.999336285092e-04  -6.001642932996e-05 
2 1 -1.757830676485e-04   3.367027229661e-04   1.252091509158e-04 
3 1 -6.998169978747e-06   1.169871704031e-04  -9.581056561596e-05 
4 1 -2.542464383937e-04   2.661252569717e-04   2.148078788529e-04 
5 1 -6.375446683896e-05   3.082759022274e-05  -1.859198982705e-04 
6 1 -2.182829296820e-04   2.268661790217e-04  -4.194334514302e-04 
7 1  4.537732741392e-05  -2.864962617800e-04  -7.782792656100e-05 
8 1  1.291256138522e-04  -1.893134066712e-04   1.170178411850e-04 
8
Step 33000
1 1 -1.258746126594e-04  -5.796441307139e-05   4.604574271104e-05 
2 1 -2.397236407427e-05   1.015251780175e-04   3.182280323552e-05 
3 1  1.606822390970e-04   8.598293632818e-05   1.482723833026e-04 
4 1  1.707159262397e-04  -8.236340442149e-06  -1.605937961630e-04 
5 1 -4.199262723310e-05  -1.207939928935e-04   2.443862655216e-04 
6 1  2.436069293566e-05  -1.095589917023e-04  -1.799715270089e-04 
7 1 -3.525787485904e-05  -3.876020569078e-04   8.221115192490e-05 
8 1  9.114462123752e-05  -4.034809337840e-04   3.844863046928e-05 
8
Step 34000
1 1 -1.465403496744e-05   1.401848961636e-04   1.403550452294e-04 
2 1  1.485648317278e-04  -2.302327210813e-04  -1.189240371403e-04 
3 1  9.042209691411e-05   1.806030661991e-05   1.821674987620e-04 
4 1  4.182318889421e-04  -2.540868223298e-04  -3.862330802847e-04 
5 1  1.012274792864e-04  -1.190663889571e-04   3.995609704618e-04 
6 1  2.768506868983e-04  -1.770176439164e-04   2.316077997647e-04 
7 1 -7.587591700323e-05  -3.099127277636e-05   1.137549583998e-04 
8 1 -3.630712151916e-05  -7.530915067155e-05  -1.297778838194e-04 
8
Step 35000
1 1  6.860372940148e-05   2.510787144195e-04   4.661717490737e-05 
2 1  7.766223695991e-05  -2.516872335687e-04  -1.152690591420e-04 
3 1 -1.091893419790e-04   6.530043447529e-05  -5.724859034573e-05 
4 1  2.158911009597e-04  -2.654916905498e-04  -5.777850847478e-05 
5 1  1.537242336255e-04   7.090586570818e-05   5.895245072118e-05 
6 1  1.833029471544e-04   7.991039566362e-05   2.822837553543e-04 
7 1 -5.349468613721e-05   3.340438992559e-04  -4.526002345721e-06 
8 1 -1.256373870078e-04   3.231568050227e-04  -2.112862709927e-04 
8
Step 36000
1 1  8.218463999998e-05   1.689498706202e-04  -1.600578921559e-04 
2 1 -1.331019201589e-04   1.669059039429e-05   6.771535584984e-05 
3 1 -1.465676780863e-04   1.104810390057e-04  -2.757900577504e-04 
4 1 -1.591881998138e-04  -5.956729669113e-05   4.451991244593e-04 
5 1  1.651469045384e-05   1.873663600801e-04  -3.520923384029e-04 
6 1 -1.563306620467e-04   2.641287418554e-04  -4.336567738486e-05 
7 1  4.879195184020e-06   2.473805295608e-04  -1.145286414296e-04 
8 1 -7.574148680341e-05   2.752547159894e-04  -1.025625396260e-04 
8
Step 37000
1 1  1.041775595944e-04  -5.808805379180e-05  -2.291745396719e-04 
2 1 -1.697463409968e-04   1.973199110626e-04   2.028072422730e-04 
3 1  2.937450998497e-05  -1.861674754711e-05  -1.995605764994e-04 
4 1 -2.569804517068e-04   1.579290293250e-04   4.490911078610e-04 
5 1 -1.809627905091e-04   4.229127562356e-05  -3.311521501834e-04 
6 1 -3.281174785748e-04   9.332676841280e-05  -2.696528578305e-04 
7 1  4.729413172418e-05  -1.678704850458e-04  -9.024063184877e-05 
8 1  7.202252719897e-05  -1.237180715133e-04   8.820097527726e-05 
8
Step 38000
1 1  1.325062396334e-04  -2.363327063189e-04  -5.149695626721e-05 
2 1  3.356497334488e-05   7.461996774917e-05   9.335255560223e-05 
3 1  1.534702810068e-04  -2.209985878505e-04   9.787962787411e-05 
4 1 -1.617737110765e-05   1.958193487980e-04  -7.580010573991e-05 
5 1 -2.365194305730e-04  -1.854099492794e-04   5.609100144438e-05 
6 1 -1.331577765329e-04  -2.249940976650e-04  -9.924343274534e-05 
7 1  3.556899285177e-05  -3.696823049665e-04   2.618342963866e-05 
8 1  1.679412461350e-04  -3.556286671297e-04   1.671405786032e-04 
8
Step 39000
1 1  4.977010254212e-05  -1.922070126412e-04   1.900044975138e-04 
2 1  1.950640598156e-04  -1.463406344522e-04  -1.619772480926e-04 
3 1  2.440123378805e-05  -2.096472264181e-04   2.960941171513e-04 
4 1  1.944616322773e-04   5.568135483048e-05  -4.449627384264e-04 
5 1 -8.519237362046e-05  -1.726612676394e-04   3.024491209367e-04 
6 1  1.872831544506e-04  -2.781146410356e-04   2.094925977556e-04 
7 1 -1.572252518791e-05  -9.883240442865e-05   1.024551802793e-04 
8 1  1.020924999004e-04  -1.726661164088e-04   7.846282988423e-05 
8
Step 40000
1 1 -1.588245047196e-04   4.387553016021e-05   2.331565136200e-04 
2 1  8.565944416519e-05  -1.523521937703e-04  -2.784434387869e-04 
3 1 -1.918779033811e-04   7.182562110651e-05   2.011014176596e-04 
4 1  7.876087422888e-05  -9.009101060509e-05  -1.827212460832e-04 
5 1  1.493249483088e-04   9.337531508221e-05   1.419418893959e-04 
6 1  2.718267267232e-04   6.219846149288e-06   2.307837875817e-04 
7 1 -4.907325269555e-05   2.926454018693e-04   7.206655306723e-05 
8 1 -7.940668736461e-05   1.312380980882e-04  -5.298060422561e-05 
8
Step 41000
1 1 -2.881430153082e-04   2.415371662744e-04   5.328764198360e-05 
2 1 -1.405056535239e-04   5.657204132188e-05  -1.291355995856e-04 
3 1 -1.736686942612e-04   3.087428407352e-04  -6.154406349558e-05 
4 1 -2.084847754338e-04  -9.146577033162e-05   3.182219811030e-04 
5 1  2.777830182497e-04   2.642701544185e-04  -1.381787223552e-04 
6 1  6.694614448385e-05   2.700423277712e-04  -4.803640131068e-05 
7 1 -2.256382157860e-05   3.085992165007e-04  -1.486508797344e-05 
8 1 -2.118782471538e-04   1.771552977590e-04  -9.171212136426e-05 
8
Step 42000
1 1 -1.409780056774e-04   1.899206245656e-04  -1.175485671272e-04 
2 1 -1.551989909695e-04   1.929576023308e-04   1.157134753178e-04 
3 1  1.004794959341e-04   1.994564136974e-04  -2.190341044751e-04 
4 1 -2.756370538815e-04   1.900251365004e-05   3.223264908771e-04 
5 1  1.989889590680e-04   9.053844638416e-05  -1.387260492521e-04 
6 1 -1.592282366424e-04   1.891017829975e-04  -2.348389379033e-04 
7 1  4.222232995774e-05  -4.712546737434e-05  -6.602114999644e-05 
8 1 -1.634279128235e-04   3.618870525184e-06  -3.572446568952e-05 
8
Step 43000
1 1  1.632614220483e-04  -7.451004968098e-05  -9.324893950963e-05 
2 1  7.730000289479e-05   8.472307679968e-05   2.076459631757e-04 
3 1  2.821989721816e-04  -1.274510811734e-04  -1.454605447090e-04 
4 1 -8.158045167450e-06   7.758154827544e-05  -2.198041406819e-04 
5 1 -2.669399139942e-05  -2.122715413052e-04   9.481201887667e-05 
6 1 -1.726406912865e-04  -1.196911279311e-04  -8.749728468482e-05 
7 1  8.056167120173e-05  -2.895531590661e-04  -4.080524997576e-05 
8 1  3.728958009690e-05  -6.679728443078e-05   2.691114743727e-05 
8
Step 44000
1 1  2.720462140635e-04  -2.822025545373e-04   2.663340133720e-05 
2 1  2.348764919107e-04  -1.039765804553e-04   1.087183645410e-04 
3 1  1.148600567062e-04  -2.597675166254e-04   3.991305648076e-05 
4 1  2.860986236969e-04  -7.931852716749e-06  -5.731241413323e-04 
5 1 -2.241410197520e-04  -2.312371159872e-04   1.708414467245e-04 
6 1 -2.332615796323e-05  -2.691101129215e-04   1.643623718099e-04 
7 1  5.547533408403e-05  -1.049221945052e-04   2.401398754953e-05 
8 1  2.159577453070e-04   6.639344770540e-05   4.468358201211e-05 
8
Step 45000
1 1  5.009711410009e-05  -2.084419421011e-04   7.976183468305e-06 
2 1  8.346102298917e-05  -1.200891921130e-04  -1.047887943234e-05 
3 1 -1.905826985041e-04  -5.911753000331e-05   1.390729917681e-04 
4 1  2.736421660798e-04  -1.356455681942e-04  -2.258834705706e-04 
5 1 -2.494726569092e-04   6.464652894155e-05  -5.612503591907e-05 
6 1  8.387500304844e-05  -1.112672078464e-04   1.651701480922e-04 
7 1 -9.977818882508e-06   2.292838455110e-04   5.897500954883e-05 
8 1  2.109321579231e-04   1.487082775304e-04   3.753484299423e-05 
8
Step 46000
1 1 -2.201869201371e-04   8.461535627303e-05  -1.646620914074e-04 
2 1 -1.905117046580e-04   3.506232221056e-05  -2.424001248358e-05 
3 1 -2.212465854929e-04   1.608715195545e-04   7.878532100021e-05 
4 1 -8.868494607293e-06  -1.273616373798e-04   3.951377385357e-04 
5 1 -9.763076347712e-05   2.591825028189e-04  -2.634459132998e-04 
6 1  6.381761180409e-05   1.105719312702e-04  -6.707900619630e-05 
7 1 -6.974522549003e-05   2.349830261854e-04   2.511225832576e-05 
8 1  1.803034176383e-05  -4.757919989186e-06   2.593410438800e-05 
8
Step 47000
1 1 -1.860285341116e-04   2.981256296214e-04  -2.383295712189e-04 
2 1 -2.291595775633e-04   1.293613732955e-04   1.686433727276e-05 
3 1  7.193346235510e-05   7.968075197264e-05  -5.034862756938e-05 
4 1 -2.287242354395e-04   4.461396091261e-05   5.007004473566e-04 
5 1  9.313573808825e-05   5.791235402120e-05  -1.273917990038e-04 
6 1  1.508872612670e-06   1.258515294917e-04  -1.927359493878e-04 
7 1 -9.948972812117e-05  -1.168638647303e-04  -5.011922717571e-05 
8 1 -1.931998325293e-04  -1.950406921886e-04  -3.081101374814e-06 
8
Step 48000
1 1  1.068138923851e-04   2.145015599103e-04  -2.863037011557e-05 
2 1  4.540779501557e-06   2.636304202165e-05   5.576536819471e-06 
3 1  2.846652298038e-04  -1.734307554715e-04  -1.086399384776e-04 
4 1 -1.761885402143e-04   2.049380616170e-04   2.339554323211e-05 
5 1  1.707667855641e-04  -2.760149800277e-04   1.983049041727e-04 
6 1 -1.194155935228e-05  -3.828048663563e-06  -5.075899933204e-05 
7 1 -9.209499694137e-05  -3.679142242221e-04  -8.868740513324e-05 
8 1 -2.318376556632e-04  -1.269537197604e-04  -4.980683875775e-05 
8
Step 49000
1 1  2.742283484706e-04  -7.569007689359e-05   2.972196973335e-04 
2 1  1.907076034891e-04  -1.423284607091e-04  -5.564615455655e-05 
3 1  1.040676658978e-04  -2.055587443289e-04  -4.453585601659e-05 
4 1  2.754935218117e-05   1.726793162727e-04  -3.411034905774e-04 
5 1  1.019672171998e-04  -2.620802050561e-04   2.874722101323e-04 
6 1  7.233913107261e-06  -3.010247065652e-05   1.310065163210e-04 
7 1 -2.996271277912e-05  -1.875624084634e-04  -3.303678000011e-05 
8 1 -6.248237530975e-05   1.350584204100e-04  -6.960300045059e-05 
8
Step 50000
1 1  1.051248705893e-04  -2.736550074746e-04   3.876665163780e-04 
2 1  9.785043910176e-05  -1.680658545320e-04  -8.060424160098e-05 
3 1 -2.581614872211e-04   7.967871456971e-05   6.603222966632e-05 
4 1  1.370519251140e-04  -2.263178007756e-05  -1.291733022136e-04 
5 1 -1.803856306662e-05   1.343084991283e-04   2.629854819468e-05 
6 1  5.290933752351e-06   9.436948572538e-05   8.955311081130e-05 
7 1  8.304978583999e-05   1.991018883597e-04   7.685235392025e-05 
8 1  1.552259847294e-04   2.297776317829e-04  -2.682698192925e-05 
8
Step 51000
1 1 -1.669720439651e-04  -1.868031350056e-04   1.322803396498e-04 
2 1 -1.168475542854e-04  -2.841324385504e-05  -4.229481248255e-05 
3 1 -3.331360079624e-04   3.336546846707e-04   1.016910247929e-04 
4 1  7.631634532691e-05  -1.745631974409e-04   2.785378487017e-04 
5 1 -6.899931937251e-05   4.244735024651e-04  -2.405591568645e-04 
6 1 -1.301288740287e-05   1.562351902584e-04  -9.442639139837e-05 
7 1  1.744491586396e-04   3.250993222400e-04   1.206416237963e-04 
8 1  2.157554807234e-04   6.170988852044e-06   4.164097041174e-05 
8
Step 52000
1 1 -1.940968515235e-04   7.887352054546e-05  -2.023430428718e-04 
2 1 -1.530323074957e-04   1.206574594742e-04   3.944859034793e-06 
3 1 -1.222922685507e-05   2.254800968468e-04   2.302098403225e-05 
4 1 -2.801799380041e-05  -1.440093021909e-04   2.536859431655e-04 
5 1 -2.179261954437e-05   2.287150103698e-04  -1.905228782151e-04 
6 1 -8.439997609991e-06   1.093282177629e-05  -1.311445855792e-04 
7 1  1.411767782022e-04   8.741297642276e-05   2.831137279942e-05 
8 1  7.498202638742e-05  -2.504369288083e-04   6.370740342278e-05 
8
Step 53000
1 1  2.255712547284e-05   2.467202460648e-04  -2.860309043038e-04 
2 1  1.752296490856e-05   1.576884832774e-04   2.103417079194e-05 
3 1  3.087903213097e-04  -1.206253517125e-04  -8.352885424982e-05 
4 1 -4.734223580358e-05  -4.266024242744e-06  -1.656278581789e-04 
5 1  5.332085961268e-05  -2.232343873832e-04   5.890990139764e-05 
6 1  1.608667028831e-05  -1.831671879421e-04   4.885422209033e-05 
7 1 -2.717267657678e-05  -1.618269165198e-04  -1.146096317077e-04 
8 1 -1.072541538991e-04  -2.030925439280e-04   2.318569278077e-05 
8
Step 54000
1 1  1.596916115625e-04   1.601584905458e-04  -9.824069374757e-05 
2 1  1.469857672608e-04   1.069479147597e-04   3.367531757980e-05 
3 1  2.403228092421e-04  -2.912240715286e-04  -9.951976250628e-05 
4 1  8.837300312923e-06   7.862290715065e-05  -3.527693203344e-04 
5 1  6.969321687088e-05  -3.829794410496e-04   1.529741520952e-04 