8
Step 0
1 1  0.000000000000e+00   0.000000000000e+00   0.000000000000e+00 
2 1  0.000000000000e+00   0.000000000000e+00   0.000000000000e+00 
3 1  0.000000000000e+00   0.000000000000e+00   0.000000000000e+00 
4 1  0.000000000000e+00   0.000000000000e+00   0.000000000000e+00 
5 1  0.000000000000e+00   0.000000000000e+00   0.000000000000e+00 
6 1  0.000000000000e+00   0.000000000000e+00   0.000000000000e+00 
7 1  0.000000000000e+00   0.000000000000e+00   0.000000000000e+00 
8 1  0.000000000000e+00   0.000000000000e+00   0.000000000000e+00 
8
Step 1000
1 1  2.156240036293e-06   1.290478659045e-04   2.335883462952e-04 
2 1  1.871089712873e-04   2.896044629420e-04  -8.964217511863e-05 
3 1  1.905772287543e-04  -3.855373273057e-04  -3.172032207371e-05 
4 1 -2.858619077336e-05   3.227930401334e-04  -4.712993660667e-04 
5 1 -1.537617939742e-04  -5.436650297333e-04   4.689667872639e-04 
6 1  1.391156870026e-05  -1.179719661875e-04   3.257035181599e-04 
7 1  4.518901334769e-05   1.204040824074e-06   1.638975946169e-04 
8 1 -2.125143043482e-05   3.338411952686e-04   5.396932116614e-05 
8
Step 2000
1 1  8.506451735876e-05   1.651902544256e-05   2.668291747010e-04 
2 1  1.382668937333e-04  -3.614617066021e-05  -1.021451275108e-04 
3 1  8.188914354381e-05  -2.235655106271e-04  -1.402985090123e-04 
4 1 -2.150422923776e-04   1.988326201283e-04  -2.650086115086e-04 
5 1  2.945748518378e-07  -3.060578767105e-04   3.639432161331e-04 
6 1  2.235941413300e-04  -2.414705381227e-04   2.908605549315e-04 
7 1  2.420667175783e-04  -1.436812639724e-04   1.010763415530e-04 
8 1 -8.254095691963e-05   1.182901375125e-04  -1.327618032040e-04 
8
Step 3000
1 1  2.551949873157e-04  -1.337394510314e-04   1.434861777159e-04 
2 1  1.756051629174e-04  -1.488237649134e-04   7.070559004786e-05 
3 1 -1.489420578222e-05  -2.071714178053e-04  -7.461679731124e-05 
4 1 -1.806395701536e-04  -3.547668028378e-05  -3.575460013445e-04 
5 1  3.849283734640e-05  -2.206105704974e-04   1.966591892080e-04 
6 1  2.401915986342e-04  -2.202275522446e-04   1.810853438031e-04 
7 1  1.532071448524e-05   1.409266847749e-04   1.777458654227e-04 
8 1  9.709032705603e-05   2.791570814782e-04  -3.417215457790e-05 
8
Step 4000
1 1  2.157853008382e-04   1.500704862843e-04   1.070329702357e-04 
2 1  6.044402370411e-05  -5.877034528490e-05  -2.562736172655e-05 
3 1  1.552809987850e-04  -1.374519149842e-04   7.868382644088e-05 
4 1 -1.189636890074e-04  -1.286077326108e-04  -2.842656132228e-04 
5 1 -2.187356485761e-05  -3.404317074631e-04   1.635346751790e-04 
6 1  2.694159225447e-04  -1.144162610578e-04   8.323797812454e-05 
7 1 -3.433383198416e-05   2.277472197257e-04   5.874504822580e-05 
8 1 -1.226044163861e-05   3.645661541262e-04  -2.024473894991e-05 
8
Step 5000
1 1  4.802872099982e-05   3.088744804121e-04   1.552291470444e-04 
2 1  1.339441503757e-04  -7.723468657405e-05  -2.766999813728e-04 
3 1  1.463147935884e-04  -1.737674855930e-04   5.815185702530e-05 
4 1  6.971065548224e-05  -1.698519250394e-04  -2.956001539041e-04 
5 1 -2.391019370635e-05  -1.623682287303e-04   3.350464600687e-04 
6 1  2.353007284039e-04  -3.740152280835e-06   2.089775582198e-04 
7 1  2.419183306277e-05   1.228124427793e-04   6.635631751553e-05 
8 1 -3.237406856542e-04   3.866823395998e-04  -1.922076700799e-04 
8
Step 6000
1 1 -1.305646884828e-04   1.782000837791e-04   4.638375066423e-06 
2 1  1.430535427908e-04  -1.476727963099e-04  -7.851544231121e-05 
3 1  7.568702415661e-05  -1.947010319222e-04   4.410077760909e-05 
4 1 -1.456670178016e-05  -3.308757163575e-06  -4.422208916649e-04 
5 1 -3.154002054801e-05  -3.112703916735e-04   4.028252829262e-04 
6 1  2.604053011589e-04   7.349148711471e-06   1.096808524585e-04 
7 1  6.802479474226e-05  -2.898319093576e-05  -2.312091374669e-05 
8 1 -1.444073438581e-04   2.430265766940e-04  -1.312238826712e-04 
8
Step 7000
1 1  2.676803706465e-04  -1.906058251062e-04   6.124977021020e-05 
2 1  1.329879494835e-04  -5.340422177155e-05  -8.671038402849e-05 
3 1  2.483139864129e-05  -4.477971579241e-04   5.129308330320e-05 
4 1  1.445115013796e-05   1.502765509615e-04  -2.815651795733e-04 
5 1 -1.921833017647e-04  -2.018662031326e-04   7.159436426479e-05 
6 1  1.627127555253e-04   1.810270193140e-04   2.786898836811e-05 
7 1  1.276070337644e-04   8.679749172427e-06  -4.360248616083e-05 
8 1  7.180573336248e-05   2.325401835818e-04  -5.034626425615e-05 
8
Step 8000
1 1  1.584088916378e-04  -3.223832907456e-05  -2.533318852959e-05 
2 1  1.022844987857e-04  -1.283333757897e-04  -5.885416959577e-05 
3 1  7.670768768965e-05  -3.416850204378e-04   5.378363818243e-05 
4 1 -4.801108615489e-05  -4.747867067709e-05  -3.064675839442e-04 
5 1 -5.930944694006e-05  -2.449057478559e-04   5.214747569841e-05 
6 1 -4.666319762733e-05   3.135590938054e-05   5.515307454807e-05 
7 1  1.458331540704e-04   2.226907472866e-04  -6.108909414703e-05 
8 1 -1.430449798232e-05   3.525305925815e-04  -2.187486720575e-04 
8
Step 9000
1 1  1.456446024450e-04   1.637331702775e-04   6.286035042860e-06 
2 1  1.162178339528e-04  -1.319749694089e-04  -1.384502647637e-04 
3 1  1.558720164338e-04  -2.160006201400e-04  -5.370586213339e-05 
4 1 -1.316102512451e-04  -2.001242848382e-05  -7.202964131472e-05 
5 1  1.260211308593e-04  -1.508077459117e-04   4.284290199822e-05 
6 1  1.332392558825e-04   1.547741144493e-04   2.652199742656e-05 
7 1 -8.479534101125e-05   2.080986463172e-04  -1.302924647224e-04 
8 1 -1.930253397037e-04   3.201593331051e-04  -2.526942582290e-04 
8
Step 10000
1 1 -7.207462989572e-05   2.513566042908e-04  -1.050119106960e-04 
2 1 -4.982674027204e-05  -2.237315157204e-05  -1.882442147080e-04 
3 1  1.176185987999e-04  -1.253407271218e-04   1.118606929134e-04 
4 1 -2.216528020512e-05  -2.359507842766e-04   8.741763123394e-07 
5 1  8.462908296617e-05  -6.102563146558e-05  -3.080543859934e-05 
6 1  1.001285243989e-04   2.735087948184e-05   1.974901703503e-05 
7 1 -1.647176763527e-04   2.409540412956e-04  -1.918330508177e-04 
8 1 -7.476830962719e-05   8.694278475593e-05  -2.090334692875e-04 
8
Step 11000
1 1  3.629022636883e-05  -1.891362168074e-05  -1.416936042492e-04 
2 1  7.278913977885e-05  -1.708541188740e-04  -2.537794913078e-04 
3 1  1.354591596345e-04  -5.190489239483e-05   1.934624799621e-04 
4 1 -9.357130891823e-05  -1.368296940320e-04  -2.171209815334e-04 
5 1 -9.004542784569e-05  -5.585526414163e-05  -1.490833286519e-04 
6 1  2.439311815248e-05  -8.216961787018e-05  -4.629263231848e-05 
7 1  1.654131447779e-04   1.441385776373e-04  -5.811303976424e-05 
8 1 -1.302928271227e-04   2.277297841389e-04  -1.529917804596e-04 
8
Step 12000
1 1  3.787493042971e-06  -1.674276833476e-04   1.525408110867e-04 
2 1  1.452744881666e-04  -2.313677870789e-04  -2.090424370741e-04 
3 1 -1.692988844855e-05  -8.450284377036e-05  -8.639707710632e-05 
4 1  1.291934396770e-05  -8.664940298184e-05   7.106602069845e-06 
5 1 -3.147485867249e-04   8.423232159934e-05  -4.124844692947e-05 
6 1  2.629270425612e-05   1.538161719333e-04  -1.608161950488e-04 
7 1  1.780123086096e-04   1.987217497071e-07  -1.459612354728e-04 
8 1 -6.498677536911e-05   2.359752615150e-04  -3.051658863946e-04 
8
Step 13000
1 1  1.280217117356e-04  -1.205202907025e-04  -1.898765399979e-05 
2 1  1.924681251741e-04  -2.856495242999e-05  -1.762888153916e-04 
3 1 -2.687879472220e-04  -1.990101978025e-06   9.477214821126e-05 
4 1  2.232375942285e-04   3.430650885549e-05   1.421203604217e-04 
5 1 -1.006409087267e-04   1.451289207096e-04  -1.535867650358e-04 
6 1  3.544850295671e-05   1.442787702154e-04  -1.941611286499e-04 
7 1 -4.113289364185e-06   9.019040291870e-05  -1.697122841889e-04 
8 1 -1.320531178903e-04   1.748478429323e-04  -2.911376017498e-04 
8
Step 14000
1 1 -4.790517717182e-05   1.747563450125e-04  -2.476781905005e-04 
2 1 -9.095107638334e-05   1.972277357330e-04  -9.655735997148e-05 
3 1 -2.264735784649e-04  -1.465328363353e-04   1.173660276323e-04 
4 1  1.842021907892e-04  -1.509632633931e-04   2.507840620371e-04 
5 1  4.853995976903e-05  -4.650798892149e-05  -1.520608103319e-04 
6 1 -1.999808075108e-04   1.073236566011e-04  -3.367853182844e-04 
7 1 -3.482015916870e-06  -1.819564997897e-05  -6.837084722729e-05 
8 1 -2.344720147365e-04   3.021520462807e-04  -2.344539024585e-04 
8
Step 15000
1 1  5.050006824355e-06   6.785032045473e-05  -1.012519110770e-04 
2 1 -1.835187039101e-05   2.276766332995e-06  -3.028438553303e-04 
3 1 -2.003044146073e-04   2.156112581605e-04   6.372040901273e-05 
4 1  8.963298857568e-05  -4.511906823990e-05   2.316301228706e-04 
5 1  7.069461862858e-05  -4.165711561720e-05  -3.075129279084e-04 
6 1 -4.726534751947e-05   4.841171260435e-05  -2.707005434962e-04 
7 1 -5.463468234834e-05   6.418565171490e-06   6.146174799274e-05 
8 1 -1.058620356022e-04   1.600373758492e-04  -1.665092662342e-04 
8
Step 16000
1 1 -7.134398627423e-05  -1.385169142671e-04   1.116226691540e-05 
2 1  2.171052302605e-05  -1.482908453984e-04  -1.616293480507e-04 
3 1 -2.433081895321e-04   2.626945829382e-04  -1.548790307107e-05 
4 1 -1.678558442277e-04  -5.584674959111e-05   1.617668333625e-04 
5 1 -2.963586760177e-05   1.259804940125e-04  -2.578575908030e-04 
6 1  4.719359280871e-05   6.563235878289e-06  -1.016128329496e-04 
7 1 -1.340199910379e-04   4.943457899884e-07  -1.258592247030e-04 
8 1 -6.382571623921e-05   1.523675448659e-05  -1.437433825202e-04 
8
Step 17000
1 1  2.101446153516e-04  -2.309927321372e-04  -1.177306374844e-05 
2 1 -1.764998704913e-04  -1.054084250272e-04  -1.627370235299e-04 
3 1 -1.943781553140e-04   3.108523629460e-04   8.132859786832e-05 
4 1  6.607813523701e-05   1.063916960446e-04   2.909147012451e-04 
5 1  1.084112493482e-04   3.567158874194e-04  -2.363971913036e-04 
6 1 -1.072043055033e-04   7.326977716762e-05  -2.564939579560e-04 
7 1 -5.094543028924e-05  -3.238375432937e-05  -1.411047736328e-04 
8 1 -8.159366047108e-05  -3.961443535312e-05  -1.851398761237e-04 
8
Step 18000
1 1 -1.496869804240e-04   7.420634819498e-05   4.729461680705e-05 
2 1 -1.879954057027e-05   1.518712081932e-04  -1.420807941937e-04 
3 1 -4.689771402855e-04   1.746781858234e-04   2.140284924452e-04 
4 1  3.954874438844e-04  -7.372720047866e-05   4.180668430735e-04 
5 1 -2.337296491773e-04   3.816894296680e-04  -2.760750877104e-04 
6 1 -2.030147264662e-04   2.796007201788e-05  -2.532179035827e-04 
7 1  7.125806984242e-05  -1.297657110593e-04  -7.034956006960e-05 
8 1 -1.910712619999e-04   1.696223368029e-04  -1.881843627041e-04 
8
Step 19000
1 1 -6.201803178277e-05   4.221476974139e-05  -9.443759768553e-05 
2 1 -4.585575834979e-05   1.816921638979e-04  -4.084238315386e-05 
3 1 -3.546401687043e-04   2.501912568597e-04  -6.329944939788e-05 
4 1  2.739000658795e-04  -7.595503593833e-05   2.350583058974e-04 
5 1 -1.269466744148e-04   2.029197212877e-04  -1.432263765917e-04 
6 1  2.702889013109e-05  -1.350550400685e-05  -1.352915061651e-04 
7 1 -6.159498143209e-05  -1.691141928863e-04   4.638789400590e-05 
8 1 -1.135717542986e-04   1.670241406433e-04  -4.765147351451e-06 
8
Step 20000
1 1 -7.289781937017e-05  -1.450100346321e-04   7.319957178171e-05 
2 1 -7.022123675609e-05   1.260016962712e-04  -3.084800945063e-05 
3 1 -5.100766780131e-04   2.279244023553e-04   6.163439292785e-05 
4 1  1.508203444162e-04   2.601761703190e-05   2.236244072906e-04 
5 1  1.625277116390e-04   1.101857913783e-04  -1.744503287538e-04 
6 1 -1.449793246369e-04   7.438381689548e-05  -1.939866316778e-04 
7 1 -4.873134669611e-05  -1.141090692252e-04   1.370132912185e-04 
8 1 -2.344020399480e-04  -2.110109044227e-04   4.118778002812e-05 
8
Step 21000
1 1 -1.659837804438e-05  -2.971037530378e-04   1.810537592926e-05 
2 1 -2.043917272548e-04  -6.115631691204e-05   3.055459442740e-05 
3 1 -2.569814170508e-04   4.565081748979e-04   1.472504950208e-04 
4 1  2.816273219763e-04   2.070430646947e-04   2.633863441939e-04 
5 1  6.969365386992e-06   3.170152431759e-04  -1.923549191581e-04 
6 1 -2.233856198307e-05   1.848652901824e-04  -1.855353798921e-04 
7 1  7.422120522283e-06  -3.563507075918e-04   1.410832761688e-04 
8 1 -2.595781921877e-05  -2.769563336307e-04  -1.481413759264e-07 
8
Step 22000
1 1 -1.503220098711e-04  -1.021688566087e-05   1.453757341766e-04 
2 1 -1.122456693398e-04  -1.131097433445e-04   9.220913719401e-05 
3 1 -1.469426845381e-04   3.281349998264e-04   2.500502418492e-05 
4 1 -6.493556399489e-05   2.862643035915e-05   3.444778374275e-04 
5 1 -2.741119381577e-05   2.267170768046e-04  -1.997698975002e-04 
6 1 -1.309539239341e-05   4.008321428694e-05  -1.206296700693e-04 
7 1 -1.140121620111e-04  -4.731682214784e-05   1.077761451136e-04 
8 1  7.541021848394e-05  -1.179583434268e-04  -4.071409750904e-06 
8
Step 23000
1 1 -5.029262385331e-05   1.266673489791e-04   1.429661375051e-04 
2 1  5.733942095469e-05   3.571072475262e-05   3.681780901391e-05 
3 1 -3.562005101001e-04   2.639424861235e-04  -1.558051225950e-04 
4 1  1.733241060677e-04  -6.889037497092e-05   3.567492582461e-04 
5 1  3.113476049000e-05   3.091808578994e-04  -1.320764172279e-04 
6 1 -1.562652251311e-04   1.603781583641e-05   4.300043433135e-05 
7 1  1.715962763369e-04  -7.189573992690e-05   2.440309482243e-04 
8 1 -7.197366875201e-05  -1.409206312470e-04   6.974546241120e-05 
8
Step 24000
1 1 -1.017309570967e-04  -5.596319445007e-05   4.293419450480e-05 
2 1 -1.124334190898e-04   2.817635302562e-04   7.410851396447e-05 
3 1 -3.570392484815e-04   8.710645352838e-05  -3.089844844279e-05 
4 1  3.820751315439e-04  -2.011811271464e-04   3.859225699311e-04 
5 1 -4.334507573541e-05   3.542375078582e-04  -1.973383966633e-04 
6 1 -2.161124900388e-05  -4.706355293682e-05   4.702656115908e-05 
7 1  3.741860436613e-05  -2.960077934852e-04   2.914505245752e-04 
8 1 -2.249798106555e-04  -1.712513206615e-04   2.532644066097e-04 
8
Step 25000
1 1 -1.584354647240e-04  -3.173909365620e-04   6.033931740819e-06 
2 1 -7.824612544297e-05   1.239901299559e-04   1.131212349296e-04 
3 1 -2.483419646831e-04   2.203343570596e-04  -1.027088889048e-04 
4 1  3.533691210874e-04   5.228745203575e-05   2.937461727402e-04 
5 1  7.937781493373e-07   2.790503250158e-04  -1.834038540140e-04 
6 1 -9.741451074932e-05  -1.176625026468e-04  -4.146700499925e-05 
7 1  1.866826776675e-04  -2.441528403739e-04   3.412652271267e-04 
8 1  1.956690610565e-06  -4.199490382933e-04   3.579696406013e-04 
8
Step 26000
1 1 -9.007816629146e-05  -8.290011579725e-05   1.928134160002e-04 
2 1 -2.342361673489e-05   1.412106603133e-04   2.220665229164e-04 
3 1 -2.603240096846e-04   5.854442911344e-05  -1.701345845291e-05 
4 1  1.138613839538e-04   7.099604562300e-05   3.626319624462e-04 
5 1  1.726458631204e-04   1.742490621594e-04  -4.565056340984e-05 
6 1 -5.204026850597e-05   1.644645920142e-04  -1.213100432453e-04 
7 1  1.582567698978e-04  -1.160417433188e-04   2.637196415084e-04 
8 1 -5.732509574456e-05  -3.390089450130e-04   8.690073310730e-05 
8
Step 27000
1 1 -8.422620181790e-05   8.083463761159e-05   5.941984585791e-05 
2 1  9.759171749161e-05   3.917031038098e-05   1.961347863527e-04 
3 1 -4.400120666183e-05   2.250333768672e-06  -1.423322026180e-04 
4 1  1.030279426356e-04   1.012752729588e-04   1.717470409567e-04 
5 1  1.432704051836e-04   1.069059716966e-04  -4.423001128905e-05 
6 1 -3.873425035376e-05   1.058375475298e-04   1.172761199745e-05 
7 1  6.936779964973e-05  -2.332217385156e-04   4.283098742809e-04 
8 1  1.233277542051e-04  -1.886616745556e-04   1.912984676257e-04 
8
Step 28000
1 1 -2.098724986219e-04   2.371098859281e-04   1.855775754272e-04 
2 1 -9.872408317383e-05   2.777096315276e-05  -7.189064927722e-06 
3 1  8.694002056583e-05   2.077269649648e-05  -1.295128251439e-04 
4 1  2.125028001370e-04  -9.823770553162e-05   4.384508056440e-04 
5 1  2.189614156485e-04   1.822539029908e-04  -5.405583957325e-05 
6 1 -7.774089018111e-05   1.075552382726e-04   1.375935380995e-05 
7 1 -4.584636611775e-05  -2.970974283092e-04   4.293804495432e-04 
8 1  1.452950854546e-04  -2.962399314455e-04   2.479025338038e-04 
8
Step 29000
1 1 -3.883286970323e-04   6.076761205808e-05  -6.434661278117e-05 
2 1  1.148484548664e-04   6.968953505198e-05   2.502210906160e-04 
3 1  7.793540963363e-05  -2.790649296173e-05  -2.304257832155e-04 
4 1  1.879796650866e-04  -2.133121490739e-06   3.527657167621e-04 
5 1  2.777162145556e-04   1.950883654709e-04  -2.196610206162e-05 
6 1 -8.141709977030e-05  -1.327013267919e-04   1.470066986733e-04 
7 1  6.362680905830e-05  -3.544071450552e-04   2.814383021916e-04 
8 1  1.426383325696e-04  -2.435747484418e-04   3.979040297848e-04 
8
Step 30000
1 1 -3.301596793204e-05  -1.505985114937e-04   1.777267042141e-04 
2 1 -1.045850331547e-05   3.536853316555e-04   2.086441768270e-04 
3 1 -1.237387398654e-04  -1.446521991037e-04  -2.447020927061e-04 
4 1  1.733178203309e-04  -1.973974042592e-04   2.295940947390e-04 
5 1  1.958381653236e-04   2.028816982335e-04  -6.907741358090e-05 
6 1  7.922173892319e-05  -1.125330344753e-04   8.041021983129e-05 
7 1  1.604187199626e-04  -2.218268167000e-04   1.755036623266e-04 
8 1  2.437085977125e-05  -1.981428895032e-04   2.044990767104e-04 
8
Step 31000
1 1  1.903885115056e-06  -7.088768806417e-06   6.821364382528e-05 
2 1 -3.215340965575e-05   1.788532924099e-04   2.244140685363e-04 
3 1  1.004234370071e-04  -1.520649908832e-04  -5.298160256089e-05 
4 1  3.086152382311e-04  -2.042809034442e-04   1.217793155160e-04 
5 1  1.121904728304e-04   4.104147638271e-04  -9.461644370465e-05 
6 1 -2.107013133348e-05   3.581828649496e-05   4.337569564566e-05 
7 1  6.799199061147e-05  -1.581451535864e-04   1.408006948537e-04 
8 1  9.966136446221e-05  -2.996698565571e-04   1.804502763280e-04 
8
Step 32000
1 1 -1.440046629147e-04   1.618261752947e-04   7.900265831335e-05 
2 1  9.500560612917e-05   8.979136744921e-05   2.280033659478e-04 
3 1  2.773293941420e-04   2.129843102688e-05  -2.209084270994e-04 
4 1  1.271430458633e-04   1.677813915328e-05   3.738829345269e-05 
5 1  2.754450751232e-04   2.021024082103e-04   4.192500347256e-05 
6 1  2.740543695992e-05  -9.470067296249e-05   1.921826906886e-04 
7 1  1.567081212673e-04  -7.775326542393e-05   2.345957108361e-04 
8 1  8.590645201490e-05  -2.042811240626e-04   2.948181279891e-04 
8
Step 33000
1 1 -1.490642450496e-04   2.374787361593e-04  -3.267481004515e-05 
2 1  9.750796851529e-05   6.079343060339e-05  -2.399764929712e-07 
3 1  1.867578127961e-04  -2.161845816072e-04  -2.288090175461e-04 
4 1  1.075224245103e-04  -2.017199491272e-04   4.264036914110e-05 
5 1  7.839579865349e-05  -6.714979854277e-05   1.811478127087e-04 
6 1 -7.601033920924e-05  -4.135624785918e-05   8.156555102349e-05 
7 1  4.765261826608e-06  -1.845199865797e-04   3.158737065456e-04 
8 1  1.988093611364e-04  -2.452628205950e-04   8.926802695240e-05 
8
Step 34000
1 1  2.601493775552e-06   7.236721546433e-05  -6.525729249132e-05 
2 1 -1.260955111564e-04   1.834763672669e-04   2.281203188181e-04 
3 1  2.092644086435e-04  -1.915993359983e-04  -2.128553077712e-04 
4 1  8.389261492126e-05  -3.094391622655e-04  -1.023187910981e-05 
5 1  1.799776588598e-04  -1.312374359749e-04   2.644177609036e-05 
6 1  8.505549420801e-05  -2.161170697312e-05   1.281735538235e-05 
7 1 -1.317729347821e-06  -1.807985837700e-04   1.713802664524e-04 
8 1  1.220477867695e-04  -9.573512025203e-06   1.415363605527e-05 
8
Step 35000
1 1 -7.202851711639e-05  -9.001369724372e-05  -1.506428599207e-04 
2 1  1.247812990001e-04   1.784209142065e-04   2.744967531450e-04 
3 1  3.280447261719e-04  -2.285645451288e-04  -2.279598301131e-04 
4 1  9.629092541532e-06  -1.373323760345e-04   1.185867715509e-05 
5 1  2.271258098510e-04  -3.312864497487e-05  -1.633001595365e-04 
6 1 -6.215279392749e-05   1.262031117458e-04  -1.357669409244e-04 
7 1  4.204827293384e-05  -7.636418536629e-05   8.334247776223e-05 
8 1  2.205007965535e-05  -1.515577020617e-04   6.299678547523e-05 
8
Step 36000
1 1 -3.264537878167e-05  -2.259078912646e-04  -2.106928547351e-04 
2 1  2.453141514669e-04   3.172158730095e-04   3.594653620380e-04 
3 1  1.920932955997e-04  -2.229726664088e-04  -2.974735880128e-04 
4 1  7.528105912010e-05   4.235798342435e-05  -8.015839779993e-05 
5 1  6.419333580892e-05  -3.684605014510e-05  -1.154731226772e-04 
6 1 -2.055876549848e-05   1.164236928027e-04  -6.151906875802e-05 
7 1  1.282155508966e-04  -1.864211114430e-05   4.819132914838e-05 
8 1  1.525637924755e-04  -1.513782544172e-04  -1.254419931433e-06 
8
Step 37000
1 1 -2.633770336155e-06   4.065158454109e-05  -3.047107984094e-04 
2 1 -5.044127266587e-05   2.300167881829e-04   1.224544764675e-04 
3 1  3.426145778032e-04  -2.498046605842e-04  -2.182081504495e-04 
4 1 -5.917156970473e-05  -3.289857698925e-04   7.531648573519e-05 
5 1 -3.429183548323e-05   1.026036304038e-05  -6.666818800553e-05 
6 1  3.466658639234e-05   2.267576317742e-05   1.666283866124e-04 
7 1  1.404653484460e-04   5.793395677583e-05   8.868077440257e-05 
8 1 -2.953918319424e-05  -2.637525385889e-05  -1.257413754462e-04 
8
Step 38000
1 1  3.110198069925e-05   5.326537560530e-05  -1.980205958792e-04 
2 1 -1.839155125081e-05  -5.995945098356e-05  -3.403935974251e-05 
3 1  2.925032459720e-04  -2.316924082598e-04  -2.282001076801e-04 
4 1 -1.141940180750e-04  -3.038568983073e-04  -4.528589606572e-05 
5 1  1.074975024060e-05  -1.632075491400e-04  -4.723220516234e-05 
6 1 -1.651737936474e-04  -8.028074138116e-06   3.492364956517e-05 
7 1  1.364095966322e-04   1.874873809533e-04   4.025968063163e-05 
8 1  9.209409671860e-05  -6.328631018933e-05  -1.226661830876e-04 
8
Step 39000
1 1 -1.070464481504e-04  -6.734200653734e-05  -2.664226441493e-04 
2 1  1.936594028666e-04  -1.811543835241e-04   1.517926654914e-04 
3 1  1.088964680131e-04  -1.469285224107e-04  -1.676784463751e-04 
4 1 -7.614278895444e-05  -1.263651464013e-04  -2.772911037738e-04 
5 1  7.551598424911e-06  -1.571448419497e-04  -1.456747148322e-04 
6 1 -7.530830158453e-05   2.992779132959e-05  -1.594105011602e-04 
7 1 -2.140574557104e-04   3.696741803572e-05  -6.580035452942e-05 
8 1  8.154187784691e-07  -4.236075150309e-05  -2.113191465957e-04 
8
Step 40000
1 1  1.106794505680e-04  -4.725791372545e-04  -2.268350539178e-04 
2 1 -5.371845126336e-05   2.630820968722e-04   1.784632411073e-04 
3 1  2.871333161160e-04  -1.102448247882e-05  -7.616297760936e-05 
4 1 -4.744171989790e-05  -1.408961690526e-04  -2.215384150391e-04 
5 1 -1.256540004965e-05   2.091898387906e-04  -2.944303493425e-05 
6 1  3.111985617723e-05   1.494015107882e-05  -1.524999475375e-04 
7 1 -8.922495479885e-05   5.436805021794e-05  -1.272008809958e-04 
8 1  1.229635545617e-04   1.430372462885e-04  -3.962413548304e-04 
8
Step 41000
1 1  1.567213994376e-04  -2.378978430199e-04  -3.472121855082e-04 
2 1 -7.168130845121e-05   2.180402785750e-04   1.658949616115e-05 
3 1  3.939584084431e-05  -6.476961379960e-05  -1.445600464872e-04 
4 1 -2.093047566139e-04  -2.134357759207e-04  -1.221152985493e-04 
5 1 -4.179596123689e-05   1.731225125354e-06   8.073756517836e-05 
6 1 -1.028739637386e-04   1.266538069794e-04  -5.746815280070e-05 
7 1 -7.159047009637e-05   8.316584939592e-05  -2.593816248091e-04 
8 1  3.449729513961e-05   8.834630667707e-05  -1.387626057285e-04 
8
Step 42000
1 1 -2.037789735510e-04  -6.247232491690e-05  -4.174488308953e-04 
2 1  4.812783762488e-05   2.784485486100e-05   1.449755070504e-04 
3 1  6.958552726144e-05  -3.581100669041e-04  -2.146407185558e-04 
4 1  8.045152486242e-06  -8.532685830405e-05  -8.620315103679e-05 
5 1 -1.172293179977e-04  -3.104355614417e-05   2.782490012845e-04 
6 1 -1.488627579068e-04   2.219811938772e-04  -7.817622457148e-05 
7 1 -7.986798749806e-05   9.663584067020e-05  -2.926969930069e-04 
8 1  7.828484202293e-06   1.316823434361e-04  -2.123292087622e-04 
8
Step 43000
1 1 -7.492671217009e-05  -1.794626870959e-04  -1.648634851895e-04 
2 1 -2.463988504499e-04   4.770270131958e-05  -1.920549702838e-04 
3 1  1.827767733090e-04  -1.683013211922e-04  -2.069911103736e-04 
4 1 -1.045714771911e-04  -1.249593412676e-04  -1.414911872393e-04 
5 1 -1.533906871036e-04   1.009967889218e-05   3.531646484189e-05 
6 1 -2.622295885464e-04  -7.205393935663e-05  -2.640343898359e-05 
7 1 -3.525743140554e-05   2.090618489423e-04  -2.054431036527e-04 
8 1 -1.577514467720e-04   1.213496189919e-04  -2.281788444274e-04 
8
Step 44000
1 1  2.021831112384e-04  -1.155287462789e-04  -3.078311946061e-05 
2 1 -1.785245612377e-04  -1.480750563086e-04  -7.375348806267e-05 
3 1  8.823197802321e-05   7.933587357476e-05  -2.124540042857e-04 
4 1 -1.424600469439e-04  -4.495702193127e-05  -9.058864305614e-05 
5 1  3.245807537900e-05  -8.725622400434e-05   1.454384420519e-05 
6 1 -2.024615476398e-04   1.338853368836e-04   2.502563942883e-05 
7 1  1.632092789161e-05   2.160110078514e-04  -4.685103101292e-04 
8 1 -8.778374705835e-05   1.331724965901e-04  -3.660582998800e-04 
8
Step 45000
1 1  1.087258980359e-04  -1.105722570214e-04  -2.597173948652e-04 
2 1 -1.153797980929e-05  -3.670126036738e-07   8.958771016908e-05 
3 1 -2.347559649161e-04   8.156434362626e-05  -1.288489230958e-04 
4 1 -1.541772669264e-04   1.302314034446e-04  -5.979253921053e-05 
5 1 -7.648529249635e-06  -1.721598985093e-04   2.487945528885e-04 
6 1 -1.625573493983e-04   1.166716493799e-04  -1.658721873525e-04 
7 1 -9.100301938408e-05   2.922557473092e-04  -2.630054810117e-04 
8 1 -4.986621816377e-05   1.471466534046e-04  -2.482547593822e-04 
8
Step 46000
1 1 -1.711881830680e-05  -2.707425094631e-04  -3.905276415708e-04 
2 1 -1.884530880171e-04   5.134790281782e-05  -7.568083790815e-05 
3 1 -1.814797989078e-05   6.290171570164e-05   6.549297115149e-05 
4 1 -3.036171034946e-04  -3.932411036019e-05  -7.098934860443e-05 
5 1  9.081521505809e-05  -9.576714038458e-05   2.367175203408e-04 
6 1 -7.874958200508e-05   1.135385380648e-04   3.859674179120e-05 
7 1 -7.041879014807e-05   4.369839274009e-04  -1.088331034522e-04 
8 1  6.804540603440e-05   2.479962327744e-04  -2.073603109667e-04 
8
Step 47000
1 1  1.015564736921e-05  -2.487090647266e-04  -2.243919841196e-04 
2 1 -4.139271395443e-04   1.026273358307e-04  -6.132745928887e-05 
3 1  9.685943835082e-06  -9.234812176115e-05  -6.647816505464e-05 
4 1 -3.459879536392e-04  -8.736326333243e-05  -2.201484000625e-04 
5 1 -2.026228613887e-05  -1.112403965935e-04   2.330806341377e-04 
6 1 -2.126937204162e-04   1.414168658286e-04  -1.049113975286e-04 
7 1 -2.609585900434e-04   1.061762358067e-04  -9.261804289988e-05 
8 1 -1.028213382137e-04   2.704032080151e-04  -1.617535522511e-04 
8
Step 48000
1 1 -1.839061171755e-05  -6.240524583117e-05  -1.596211197880e-05 
2 1 -1.746783499888e-05  -3.337334625281e-07  -4.979744556644e-05 
3 1 -1.326536900677e-04   3.416987040077e-05  -1.257369388475e-05 
4 1 -2.277690073426e-04   1.241707239984e-04  -2.428695190435e-04 
5 1 -1.480903583728e-04  -2.694582980621e-04   2.597726440033e-04 
6 1  5.508485479662e-06   1.016095357552e-04  -1.413488503780e-04 
7 1 -3.864988230392e-05   3.103729675496e-04  -1.013457689344e-04 
8 1 -1.240924228119e-04   2.811211592088e-04  -2.429867001372e-04 
8
Step 49000
1 1  1.785714555129e-04   8.533995080241e-05  -5.537570589974e-05 
2 1 -7.678243755697e-07  -5.780304516629e-05   2.876838132407e-05 
3 1 -1.624984561594e-04   1.930115005929e-04  -4.486191074693e-06 
4 1 -3.042274296213e-04   9.522286262653e-05  -1.616472907763e-04 
5 1 -1.236541122378e-04  -2.274393636203e-04   2.605679833336e-04 
6 1 -1.967906760625e-04  -4.649234967239e-05  -1.077552601001e-04 
7 1 -1.511695731031e-04   3.545906527171e-04  -2.167141888169e-04 
8 1 -8.563900968325e-05   3.784883669261e-04  -2.740231982592e-04 
8
Step 50000
1 1  3.459463515133e-05  -8.372413759222e-05   4.276743110205e-05 
2 1 -2.385753374783e-04  -1.513380816489e-04  -1.619282925202e-04 
3 1 -1.779141861195e-04   2.445412216133e-04   1.126485683042e-04 
4 1 -1.357035624277e-04   1.721974048812e-04  -6.977975329579e-05 
5 1 -9.796968440064e-05  -5.162809427990e-05   8.747141965829e-05 
6 1 -5.156278734557e-06  -8.174633675153e-05   1.456864849868e-04 
7 1  1.903053582255e-05   2.798302034370e-04  -1.084439483988e-04 
8 1 -7.666557596917e-05   3.883495529782e-04  -1.124881339879e-04 
8
Step 51000
1 1 -9.662732935199e-05  -7.650028504317e-05  -6.373046723664e-07 
2 1 -4.613759519582e-06  -1.434079928486e-04  -4.107741495815e-05 
3 1 -3.263174917298e-04   3.657648203576e-04   1.740586004344e-04 
4 1 -1.508441236743e-04   7.087948306036e-05  -1.043957231933e-04 
5 1 -4.821760158694e-05  -2.658141326473e-04   1.847723533980e-04 
6 1 -8.074797151008e-05   1.018557116294e-05   4.366620479278e-05 
7 1 -9.173721282034e-05   2.352459148852e-04   2.038248923022e-05 
8 1 -1.453707586192e-04   3.482450936961e-04   4.760663454098e-05 
8
Step 52000
1 1  3.500897189577e-05   1.413685835617e-04   1.242910190803e-04 
2 1 -7.623993122294e-05   1.209960002658e-05  -1.217326116917e-06 
3 1 -2.777682925154e-04   1.468907731182e-04  -1.196844489294e-05 
4 1 -3.197029317733e-04  -9.439962734543e-05  -1.494502088863e-04 
5 1  2.571202806910e-05  -1.335604413662e-04   2.434346290782e-04 
6 1 -1.154013331221e-04   4.368231347139e-06  -4.786214245903e-05 
7 1 -1.062398831774e-04  -3.422459091380e-05  -7.024215063494e-05 
8 1 -6.840476213134e-05   1.996374249464e-04   1.108690650944e-04 
8
Step 53000
1 1  6.801180158134e-05   1.233690783134e-04   3.395796133235e-04 
2 1 -9.326475716540e-05   1.765835549462e-04  -1.241955959211e-04 
3 1  1.354654998853e-04   6.100451224312e-05   3.035415652748e-04 
4 1 -2.277592802546e-04   1.863086235780e-05  -6.529289123104e-05 
5 1 -2.750348389698e-05  -7.339471594963e-05   1.486855333393e-04 
6 1 -1.515977473223e-04  -6.099216436297e-05   6.338432043386e-05 
7 1 -9.558898105721e-05  -8.362021480936e-05  -1.481018248264e-04 
8 1 -7.956340739972e-05   5.062466826048e-04  -1.001557337097e-04 
8
Step 54000
1 1  3.005898614208e-06   1.748228702064e-04   3.102895703163e-04 
2 1  5.357396022753e-05  -1.489776090169e-04   3.438634480307e-05 
3 1 -1.323461204584e-04   1.876079912995e-04  -4.985275210725e-05 
4 1 -6.169222980492e-05   2.181526665814e-04  -1.230102530444e-04 
5 1  1.268545881714e-04  -1.631933597247e-04   3.738024112671e-04 