8
Step 0
1 1 0.00000000000000000e+00 0.00000000000000000e+00 0.00000000000000000e+00
2 1 0.00000000000000000e+00 0.00000000000000000e+00 0.00000000000000000e+00
3 1 0.00000000000000000e+00 0.00000000000000000e+00 0.00000000000000000e+00
4 1 0.00000000000000000e+00 0.00000000000000000e+00 0.00000000000000000e+00
5 1 0.00000000000000000e+00 0.00000000000000000e+00 0.00000000000000000e+00
6 1 0.00000000000000000e+00 0.00000000000000000e+00 0.00000000000000000e+00
7 1 0.00000000000000000e+00 0.00000000000000000e+00 0.00000000000000000e+00
8 1 0.00000000000000000e+00 0.00000000000000000e+00 0.00000000000000000e+00
8
Step 1000
1 1 1.29360628800548891e-06 6.83047046089120621e-07 -2.07883771999918424e-06
2 1 4.25071058953167930e-07 -2.17988835272210763e-06 1.30027507975239415e-06
3 1 1.85204860976728548e-06 -2.99359970276063304e-06 1.37862703157347088e-06
4 1 2.40846866922553825e-06 -1.84487853896432645e-06 -2.13074623580288632e-06
5 1 2.39304065053818617e-06 -3.25386902574975382e-06 2.57664870458031666e-07
6 1 -2.10317563308177982e-06 3.79877724964152741e-06 1.80659171480828056e-06
7 1 2.53594486303384282e-07 -3.25960962237270642e-06 -1.73841816887949866e-06
8 1 -3.01397794264950242e-06 8.35285646611046278e-07 6.26629087165576853e-07
8
Step 2000
1 1 -1.18389303459681639e-06 -5.34361414311394321e-07 1.50095349964105327e-06
2 1 2.96077300132579438e-07 1.34426632373434613e-06 -1.47456867251503764e-06
3 1 -1.15002549357277368e-06 2.00846650711098807e-06 -5.99463522251874525e-07
4 1 -1.45787475497141439e-06 1.71332070349874444e-06 2.07564897374498598e-06
5 1 -1.21981095496623408e-06 3.27148559647286058e-06 2.19872711243234653e-07
6 1 1.70804738133589179e-06 -3.43525511284255529e-06 -1.16652577887640221e-06
7 1 7.00159456517635998e-07 2.34336525553676281e-06 1.04116033138621428e-06
8 1 2.28580262963541140e-06 -1.78382063106323245e-06 -1.33466211067399099e-06
8
Step 3000
1 1 8.27835442428547495e-07 5.32702857992949605e-07 -8.26932218416780080e-07
2 1 -1.15259430474048771e-06 -4.47546107276282686e-07 1.60773892727966968e-06
3 1 2.70333950184324846e-07 -1.12364297495664109e-06 6.52796589659251020e-08
4 1 5.51734293795638522e-07 -1.46754789662820921e-06 -1.16868819187260865e-06
5 1 -4.42627384447514638e-08 -2.85713374846841531e-06 -1.56621208797087911e-07
6 1 -1.19139827593618521e-06 2.72640495110163265e-06 3.41094078742798888e-07
7 1 -1.49428332263190319e-06 -1.19431613601633781e-06 -3.95285293937698467e-07
8 1 -1.76195204159769293e-06 1.80324661570547845e-06 2.08892050646445281e-06
8
Step 4000
1 1 -3.51760043524222145e-07 -7.50886683538417930e-07 2.16998060959978016e-07
2 1 1.93729693288471443e-06 -3.05657864632039818e-07 -1.78840957613511542e-06
3 1 4.74960539485531470e-07 4.63101978803148421e-07 1.42106677007597683e-07
4 1 2.77860490787901847e-08 1.24864672411785222e-06 -1.41728921532436880e-07
5 1 9.59523899578506841e-07 1.95785224837586232e-06 -3.93479457238662957e-07
6 1 4.98198031801949624e-07 -1.73605686826629129e-06 5.53335599926070042e-07
7 1 2.02575210207948922e-06 1.48730061913745307e-07 -2.69278613168359165e-08
8 1 1.31797996424057586e-06 -1.00551221367738187e-06 -2.56360433444527014e-06
8
Step 5000
1 1 -5.28015573436677163e-08 1.04877165571406212e-06 1.18440101322805821e-07
2 1 -2.54428484714575332e-06 7.02637173509050085e-07 2.12197080966369019e-06
3 1 -8.96910258004893506e-07 -2.17215905142646414e-07 -1.20554288226183467e-07
4 1 -8.86123007644203178e-08 -1.31325496408082123e-06 1.32403535416881544e-06
5 1 -1.25149170037234697e-06 -8.10932104858221755e-07 1.13244561960903188e-06
6 1 3.41126144315952368e-07 6.68607586178244989e-07 -1.29486456516030266e-06
7 1 -2.42049762685876056e-06 5.89397698846930070e-07 2.27943065165680375e-07
8 1 -1.02880443779062934e-06 -2.75318288432098601e-07 2.75879600244942071e-06
8
Step 6000
1 1 2.47292914759268709e-07 -1.24543169102260693e-06 -6.02336449649932843e-08
2 1 2.94310780834612750e-06 -5.33498281011467202e-07 -2.54856001224360312e-06
3 1 8.58632500782494406e-07 4.02056108712633652e-07 -2.70399507324855450e-08
4 1 -3.32063864606935487e-07 1.74828199288579355e-06 -2.06052690919627119e-06
5 1 8.84135372459930336e-07 -4.36431942823200300e-07 -1.75169869240414421e-06
6 1 -1.19426926662666001e-06 3.50569580093493015e-07 1.74968953507646061e-06
7 1 2.78423631416654592e-06 -1.01343492137617734e-06 -3.31347554774611770e-07
8 1 8.24908107921836553e-07 1.72402866494352624e-06 -2.70853918633639410e-06
8
Step 7000
1 1 -1.39570705811616423e-07 1.19372193439496834e-06 -4.83913738898391311e-07
2 1 -3.11549578784258574e-06 -3.17080614233926235e-07 2.89995022289322741e-06
3 1 -3.41911330126492806e-07 -1.01952307823518252e-06 3.53568153585449988e-07
4 1 1.08852526045490961e-06 -2.48042781299462006e-06 2.02388801858632527e-06
5 1 4.72613343342850560e-08 1.65741042835615738e-06 2.02954417594779901e-06
6 1 1.81102239242984849e-06 -1.29170079276649808e-06 -1.85392127770378797e-06
7 1 -3.17196034102237215e-06 1.18945511905279147e-06 5.26304404407352367e-07
8 1 -6.10080229823137146e-07 -2.93077966757293054e-06 2.42372934518876491e-06
8
Step 8000
1 1 -3.51183975785488399e-07 -6.14512609763693272e-07 1.39009732266360168e-06
2 1 2.66977059915688915e-06 1.74310512293388732e-06 -2.65941424727699673e-06
3 1 -4.34741493398706511e-07 1.80559697719943652e-06 -8.74839871619372063e-07
4 1 -1.61988727126613673e-06 3.05374591320291615e-06 -7.55556917021927894e-07
5 1 -1.24419385309313225e-06 -2.54082834885075207e-06 -1.62852561632309046e-06
6 1 -1.72053901981909406e-06 1.93526514755975772e-06 1.36416256537044821e-06
7 1 3.38599433342099226e-06 -1.08371365860237520e-06 -1.06050885112518583e-06
8 1 3.77942632418191680e-07 3.15047954482418430e-06 -1.75877169984879132e-06
8
Step 9000
1 1 9.36166302612530582e-07 -2.31234933764954992e-07 -2.01618554546160356e-06
2 1 -1.43060303755963024e-06 -2.84372606556669933e-06 1.41688757739755161e-06
3 1 8.03762645582464064e-07 -2.07323878288553205e-06 1.18987648653644235e-06
4 1 1.17615661386938754e-06 -2.73020808287825121e-06 -9.73119605360911757e-07
5 1 1.89044031551090143e-06 2.35196243398636445e-06 4.96625569393805669e-07
6 1 8.51551570390683997e-07 -1.74813176787299364e-06 -3.54342431050459247e-07
7 1 -3.03292754278486451e-06 9.27914423577937733e-07 1.74494280588356544e-06
8 1 -3.76406510602931829e-07 -2.12969723962527460e-06 8.24436732044150686e-07
8
Step 10000
1 1 -1.42948003807055937e-06 6.05479112371448089e-07 2.30267720741406359e-06
2 1 3.89278351246137772e-07 3.55342154242624153e-06 -3.88350096172550337e-07
3 1 -4.13559335514546974e-07 2.36001818038814030e-06 -1.19774023896573810e-06
4 1 -3.11076685418076188e-07 2.31381070348745110e-06 1.85696368264874649e-06
5 1 -2.29859273001438388e-06 -2.02217405705905949e-06 6.66960992430652604e-07
6 1 -9.90622437637752982e-08 1.27183364487955532e-06 -5.95335265817298873e-07
7 1 2.69276871952920247e-06 -1.09377178686199827e-06 -2.38894904819199881e-06
8 1 7.34167855477981715e-07 1.12895139373254213e-06 -1.20843355790472755e-07
8
Step 11000
1 1 1.55021138255806469e-06 -5.07416116886269227e-07 -2.11545079825771141e-06
2 1 1.53344506569205461e-07 -3.59452556647069308e-06 -4.29505918510228509e-07
3 1 -3.56972501107717093e-07 -2.43612664500023574e-06 1.33729039740881271e-06
4 1 -7.95683685812430343e-07 -1.78240729373685149e-06 -1.76865962182133954e-06
5 1 2.30151988224455178e-06 1.62433719232287020e-06 -1.56452872646430749e-06
6 1 -4.85958907080022059e-07 -6.21253957143041883e-07 1.15507347468440991e-06
7 1 -2.22811559321090953e-06 1.34623528897219670e-06 2.77557365840281086e-06
8 1 -1.14337290502983970e-06 -2.72973308427420208e-07 -2.46511868659144630e-07
8
Step 12000
1 1 -1.19804229734519813e-06 -1.26041876119386076e-07 1.29831546209305366e-06
2 1 -3.90217001695915688e-07 2.94443164709437498e-06 7.51853911473428153e-07
3 1 1.22973567164996456e-06 2.28398652473178426e-06 -1.46587487203780957e-06
4 1 1.73886735501258081e-06 1.16323958305239412e-06 6.88711476961080095e-07
5 1 -1.84916451029685521e-06 -8.64395817000116366e-07 1.94781869729090433e-06
6 1 7.62051348014367999e-07 -1.07983851331286561e-07 -1.22250202050961300e-06
7 1 1.32737295900787703e-06 -1.43194555844828063e-06 -2.66285741897369642e-06
8 1 1.29364392138550541e-06 -4.67625867027202253e-07 4.72006117402937119e-07
8
Step 13000
1 1 4.34667833075959468e-07 1.04004124333512181e-06 -6.14734098295233984e-08
2 1 2.77371120543434410e-07 -2.05392921320279147e-06 -4.78603676522391852e-07
3 1 -1.92427104234924876e-06 -2.04652482241994142e-06 1.50632819469025591e-06
4 1 -2.26377613882159727e-06 -5.94884454966507422e-07 7.94162814392825561e-07
5 1 9.98772000085024259e-07 6.76471789268265022e-10 -1.77708100676952543e-06
6 1 -9.44000379696940596e-07 6.42507409756913167e-07 9.92594009796661811e-07
7 1 -7.41444326994417285e-08 1.12067664123716922e-06 2.21233170927537900e-06
8 1 -1.21304253375863033e-06 1.20429248912779802e-06 -5.81748728223589722e-07
8
Step 14000
1 1 6.65827948696714134e-07 -1.75498062161195974e-06 -1.15806039408151833e-06
2 1 9.30261424787357038e-08 1.34475889226066696e-06 -2.68103824461959620e-07
3 1 2.27725703491208591e-06 1.80672589165463153e-06 -1.45695549667926252e-06
4 1 2.31755112401092693e-06 1.38226657745892089e-07 -2.10826995016665696e-06
5 1 7.15087340916844310e-08 7.45251381220840561e-07 1.20252542404245205e-06
6 1 1.14717082449416373e-06 -7.74790352892639872e-07 -6.83989700798460315e-07
7 1 -1.18126126606445785e-06 -4.36930306900131306e-07 -1.67381405802245774e-06
8 1 1.01002071115758362e-06 -1.85259501642181116e-06 4.72641582351248573e-07
8
Step 15000
1 1 -1.85110403151209988e-06 1.69845788045689255e-06 1.89808214159533986e-06
2 1 -4.67653300282655201e-07 -9.07211298808666040e-07 1.28520100399555756e-06
3 1 -2.11428417301105410e-06 -1.55846537934989435e-06 1.27370514722284623e-06
4 1 -1.88631237927004613e-06 1.61032778439387832e-07 2.75040064610751810e-06
5 1 -1.17545075016551095e-06 -1.44045723890445427e-06 -6.22008724512626060e-07
6 1 -1.36224527093512941e-06 5.20709001776339774e-07 5.02503852887998482e-07
7 1 2.03118988439321331e-06 -4.59432987895676581e-07 1.24191865134427053e-06
8 1 -7.90790415679726549e-07 2.29611134203699478e-06 -1.15672968847217914e-07
8
Step 16000
1 1 2.53538121593169352e-06 -5.10972416623595560e-07 -1.80921107689530443e-06
2 1 6.57397489688434016e-07 7.35830408937183712e-07 -2.22564563895720322e-06
3 1 1.36231240571251931e-06 1.22945486471023162e-06 -8.97403405086814252e-07
4 1 1.06977144399962315e-06 -2.99706028787940348e-07 -2.38718507974575742e-06
5 1 2.05684548928742591e-06 2.07066363246253137e-06 3.68638896376077986e-07
6 1 1.52802265306052382e-06 -2.92590512327353888e-08 -6.00493759923455148e-07
7 1 -2.15543322727839779e-06 1.29468309411966791e-06 -9.65845751940504067e-07
8 1 6.06705476647097608e-07 -2.38763177845916141e-06 -3.57384854415008471e-07
8
Step 17000
1 1 -2.19717535023777110e-06 -1.46855540222923339e-06 6.75091823507805769e-07
2 1 -4.36110309514918543e-07 -9.03946163982337562e-07 2.56407246511522031e-06
3 1 -2.19314166363601354e-07 -8.43737737836420531e-07 4.06874915542352263e-07
4 1 -2.13498693168625463e-07 3.20575117640713295e-07 1.14559423983776858e-06
5 1 -2.20164230435081093e-06 -2.08778235316881365e-06 -2.86583828679354866e-07
6 1 -1.40267064027291332e-06 -4.33059805000939646e-07 8.58697028606127829e-07
7 1 1.45114829313319479e-06 -1.62230024610068867e-06 7.89038347953517022e-07
8 1 -4.02127608340030703e-07 1.84411987473608872e-06 6.30601613043331635e-07
8
Step 18000
1 1 1.36358045367025515e-06 3.28862203452579850e-06 5.84939046173704093e-07
2 1 6.47034829523207674e-09 1.38820740482756672e-06 -2.09768895103705652e-06
3 1 -7.20114564811625057e-07 8.52885110053909312e-07 -4.52521906102698096e-08
4 1 -1.61768421774019437e-07 -3.57649330575495765e-07 7.79574613839330284e-09
5 1 1.86352516678273981e-06 1.69175129788121781e-06 9.85283849379662989e-08
6 1 8.35614794654394232e-07 5.77947830358231595e-07 -1.23470019223780860e-06
7 1 -6.95308303330283434e-07 1.45539786340296327e-06 -6.63451246569491321e-07
8 1 1.97133247047664230e-07 -9.79726063788144793e-07 -6.01256749066569363e-07
8
Step 19000
1 1 -6.83313169220960300e-07 -4.63241751299985622e-06 -1.53370947997773395e-06
2 1 5.60550648430333707e-07 -1.90851816061040692e-06 1.23250443779685954e-06
3 1 1.17626219138671335e-06 -1.03087749199314987e-06 -1.76787472615729662e-07
4 1 4.17636738480548206e-08 4.12223768318450379e-07 -8.03059841058872811e-07
5 1 -1.44929999371483791e-06 -1.16644747102623505e-06 1.51133547682912829e-07
6 1 9.69152758099549895e-08 -4.63184735778772223e-07 1.70295918381101170e-06
7 1 4.62342539856550575e-08 -8.72812030697104036e-07 4.48430510363626159e-07
8 1 -9.77617147860562832e-08 2.70798283896368575e-07 3.67811393034211323e-07
8
Step 20000
1 1 3.34799400899441894e-07 5.21317925229493013e-06 1.97523138753947083e-06
2 1 -1.16195433117933052e-06 1.92847619902291520e-06 -1.79208713247199754e-07
3 1 -1.07676195142623984e-06 1.13312315442793113e-06 2.18260205127979213e-07
4 1 5.03130518769075164e-07 -4.64190541563037180e-07 9.11794441703723817e-07
5 1 1.13436929298235058e-06 5.71352548689174563e-07 -5.00907300950466420e-07
6 1 -1.23415267273069152e-06 1.56557505883598429e-07 -1.92977196227077216e-06
7 1 3.96512191612007141e-07 -2.91247093967873242e-08 -4.27863736643543440e-08
8 1 3.81663325211741305e-08 2.95666192961790510e-07 -4.05991846241372703e-09
8
Step 21000
1 1 -3.07035770843690115e-07 -4.64029078949064532e-06 -1.81695135522727966e-06
2 1 1.48364153635380733e-06 -1.44294344587665150e-06 -6.41800852688937487e-07
3 1 4.89482773154529634e-07 -1.05356581419631814e-06 -8.93394491181937906e-08
4 1 -1.28332411685302050e-06 4.29563216636605355e-07 -3.35335035627133056e-07
5 1 -1.02289260125692726e-06 6.49624148143434735e-08 9.71334555178571707e-07
6 1 2.05123241286333345e-06 2.05281273634504236e-07 1.69312412204523789e-06
7 1 -5.64262993151419159e-07 1.06140831386122339e-06 -5.07926017899547164e-07
8 1 4.79052591102018098e-08 -6.43716118978127280e-07 -3.80114387435812810e-07
8
Step 22000
1 1 6.78936157902392002e-07 2.81145114910905785e-06 9.83627063819178918e-07
2 1 -1.43195984653493714e-06 9.82684236154753259e-07 9.31541214824204243e-07
3 1 4.22915709629068424e-07 7.36050808981586033e-07 -1.99586360642037693e-07
4 1 1.96210833673974604e-06 -2.42438569637744913e-07 -4.40125035089823715e-07
5 1 1.19389748633890858e-06 -5.92637511828216814e-07 -1.47782536381533343e-06
6 1 -2.01614951795962015e-06 -4.03369078978399428e-07 -1.16499048323932848e-06
7 1 4.76148839994891134e-07 -1.84406488058694039e-06 9.77332560059648801e-07
8 1 -1.80245564389400413e-07 5.65215033726010584e-07 6.30997763659205625e-07
8
Step 23000
1 1 -1.51464134135723764e-06 -7.07138560063121936e-07 4.08354918121943072e-07
2 1 1.27130456505665756e-06 -9.09015681664966735e-07 -7.30933391462272850e-07
3 1 -1.44396345356954194e-06 -2.13472271161559277e-07 5.11013356617450933e-07
4 1 -2.39104137631372556e-06 -9.45299320862729840e-08 1.08475815798786691e-06
5 1 -1.75816616676344502e-06 8.40916319316042687e-07 2.02764472634077502e-06
6 1 1.15279635359513425e-06 2.83284880236860588e-07 6.93919007428174474e-07
7 1 -2.17022830902444191e-07 2.17493838504841379e-06 -1.26019964579946792e-06
8 1 4.28338647070517926e-07 -5.12640016457701421e-08 -5.89161485482239736e-07
8
Step 24000
1 1 2.47929617501128197e-06 -3.93063587018349529e-07 -2.06592518549575714e-06
2 1 -1.06245453528575538e-06 1.11068429120494522e-06 3.31939959826669008e-07
3 1 2.18591042656611958e-06 -4.48218298091879404e-07 -7.19020984624916886e-07
4 1 2.45922111078800896e-06 6.32666215106697823e-07 -1.35197446570092924e-06
5 1 2.49157165732543090e-06 -7.10573539293210476e-07 -2.54958166984715197e-06
6 1 2.85654025035382587e-07 1.74184095355089599e-07 -3.32433760026137267e-07
7 1 -1.59516749467974058e-07 -1.88794387386890077e-06 1.25043502182026100e-06
8 1 -7.28870402487822067e-07 -7.17516956939284263e-07 2.12625232634934211e-07
8
Step 25000
1 1 -2.88767333171964622e-06 -7.60825696154216399e-08 3.15937830448120095e-06
2 1 7.16394906807089924e-07 -1.50907292060649476e-06 3.80509217153292889e-08
3 1 -2.26193122947837964e-06 1.16189181348704553e-06 8.33528553644069948e-07
4 1 -1.93728553839689753e-06 -1.13999577364417693e-06 8.38455767870660563e-07
5 1 -2.78490694098701063e-06 2.64514613116460766e-07 2.72735528350552454e-06
6 1 -1.78380143744377856e-06 -7.58421740769280296e-07 5.81203248452071191e-08
7 1 5.51590564682379601e-07 8.34979692162421397e-07 -7.86496228469157134e-07
8 1 9.95414663725623233e-07 1.39444914347334150e-06 3.45641480874869082e-07
8
Step 26000
1 1 2.39033015791644034e-06 1.62407219799482377e-06 -3.21343868097960899e-06
2 1 -2.30142742820516993e-07 1.78390750692646505e-06 -6.96591980243597201e-08
3 1 1.53700646012426481e-06 -1.72518297736980907e-06 -8.16114178273057146e-07
4 1 1.04595942099159224e-06 1.39540081321246074e-06 -2.02251428224817466e-07
5 1 2.21457755543530881e-06 2.55361282952913412e-07 -2.45387550728667037e-06
6 1 2.52878908485052785e-06 1.20941177047748511e-06 3.63754062902890882e-07
7 1 -9.10644545067819628e-07 5.59661772666776017e-07 1.81052695969659395e-07
8 1 -1.25024572939810536e-06 -1.41792771716515117e-06 -6.98037889265525176e-07
8
Step 27000
1 1 -1.22028487186851397e-06 -3.24942627316930461e-06 2.84506555293353837e-06
2 1 -3.72272589439709473e-07 -1.90714269046985593e-06 -5.14207968722040303e-07
3 1 -4.09148054364340597e-07 2.01620872545485336e-06 5.12746765247103863e-07
4 1 -2.12084979284821962e-07 -1.33455249038114251e-06 6.94699778035075987e-08
5 1 -9.77551364367728065e-07 -5.30313385273035551e-07 2.03580232097045412e-06
6 1 -2.29316367626938048e-06 -1.31312986732369661e-06 -1.02086905872846637e-06
7 1 1.18466783270971795e-06 -1.55002246314202778e-06 1.40676187067516915e-07
8 1 1.42231908856100106e-06 6.56043008338020564e-07 5.88204183106812939e-07
8
Step 28000
1 1 -6.52810262250505419e-08 4.16581201761104434e-06 -2.25515981730669819e-06
2 1 1.03043511478880686e-06 1.71079341785292527e-06 1.39489211669491554e-06
3 1 -6.37774242982536628e-07 -1.79065219788033700e-06 1.94816600931798706e-08
4 1 -2.02595582709707508e-07 9.67518131525323343e-07 -5.03963631111627994e-07
5 1 -3.33651024145281962e-07 3.65048586501647066e-07 -1.62582085467790441e-06
6 1 1.29279876831941476e-06 8.42265451938081260e-07 1.59201820162865623e-06
7 1 -1.19091061980365341e-06 1.69976190719061270e-06 -9.18585742641739512e-08
8 1 -1.34191372319335256e-06 5.50169429840543513e-07 -7.77413626886355865e-08
8
Step 29000
1 1 7.53094037293526359e-07 -4.33419073038131897e-06 1.38519226108465806e-06
2 1 -1.68463193926255042e-06 -1.06045969871574091e-06 -2.06476202964396476e-06
3 1 1.27228719780185233e-06 1.08823457857936448e-06 -5.40891849668048908e-07
4 1 2.73813433200482747e-07 -4.14871164808921860e-07 1.29055644949489919e-06
5 1 1.09273242177705925e-06 1.68638369465292952e-07 1.32422237909196907e-06
6 1 -3.02929019420462405e-07 -1.92456156262134353e-08 -1.78444305894060715e-06
7 1 8.38139290652507257e-07 -1.06239334151953747e-06 -1.23940858208018400e-07
8 1 9.28116091191672422e-07 -1.54459561081185986e-06 -5.06086373945240832e-07
8
Step 30000
1 1 -7.73358765472146016e-07 3.86610845400634564e-06 -8.00096005905760479e-07
2 1 2.46144498819573236e-06 4.49230302036920621e-07 2.42250272242765298e-06
3 1 -1.38897750323254907e-06 -1.97778462891700006e-07 1.01592980494936638e-06
4 1 -1.46179419690418739e-07 -9.35232180959873020e-08 -2.09219266258880131e-06
5 1 -1.14507847117621143e-06 -8.68699620565035285e-07 -1.12993563715642154e-06
6 1 -1.52382932944591754e-07 -7.99373876729565805e-07 1.58890271526958808e-06
7 1 -2.59959339153332171e-07 1.12637286797474277e-07 2.98316243852822593e-07
8 1 -3.74018891198965085e-07 1.99994303271370439e-06 8.96869484717026722e-07
8
Step 31000
1 1 4.44834485701024277e-07 -3.00231303693444367e-06 7.40220847191345003e-07
2 1 -3.23543431230847069e-06 -6.18782770752723957e-10 -2.31341599274333932e-06
3 1 9.52432836120995986e-07 -8.14032655392599811e-07 -1.42033861216810795e-06
4 1 -1.65427041997919379e-07 5.46392910520843079e-07 2.64481774733095586e-06
5 1 6.57499109808793223e-07 1.52356008666526726e-06 8.64915287135887850e-07
6 1 5.67544277450062078e-08 1.45914171214593175e-06 -9.69588955884904065e-07
7 1 -4.05324090605168029e-07 8.30855339276152166e-07 -3.30385326326570609e-07
8 1 -1.53583261985445410e-07 -1.93747818342724239e-06 -1.00694563178690047e-06
8
Step 32000
1 1 -1.74882665247110845e-07 2.18084792690205826e-06 -1.13592288288897844e-06
2 1 3.96966696293371289e-06 -3.71802827440605488e-07 1.68848626100276730e-06
3 1 -3.81655782546498315e-08 1.78715437771927879e-06 1.56011266727485203e-06
4 1 5.34478127211411894e-07 -9.48653121870675338e-07 -2.81500056328889390e-06
5 1 1.60880286100895283e-07 -1.93910687799118446e-06 -4.76116422894389549e-07
6 1 4.36773655190231990e-07 -1.79721894059141112e-06 -4.21968840869882389e-08
7 1 9.22952494491611606e-07 -1.46961321627917058e-06 2.27682849345558284e-07
8 1 4.62130970279852057e-07 1.48111380580766211e-06 8.19950862719456164e-07
8
Step 33000
1 1 2.19411871780437617e-07 -1.74784314533389418e-06 1.75731518143674184e-06
2 1 -4.42015577558260687e-06 5.82100386817273002e-07 -5.82996987180779431e-07
3 1 -1.29880754548555688e-06 -2.29398788506979082e-06 -1.28635228459738036e-06
4 1 -6.94574489188634221e-07 1.20547067574435960e-06 2.50189619926021784e-06
5 1 -1.03770722449824700e-06 2.00268287155972289e-06 2.05904077801393360e-08
6 1 -1.09299228588566212e-06 1.66219385177922158e-06 1.21438489800084452e-06
7 1 -1.03162788530809578e-06 1.41926952623764304e-06 -8.54258630812796201e-08
8 1 -3.66126494730771797e-07 -7.73575815470849239e-07 -3.65219707925605186e-07
8
Step 34000
1 1 -5.35985921896370708e-07 1.67666600468050193e-06 -2.41087923352313477e-06
2 1 4.20019909405505834e-06 -5.77231456129863626e-07 -8.05414744576457339e-07
3 1 2.66425529438705836e-06 2.05122212638276228e-06 7.01821732030843173e-07
4 1 5.30691412583201490e-07 -1.25396975639890949e-06 -1.69979909843540492e-06
5 1 1.55428832085277188e-06 -1.59347481462989540e-06 4.17289124201410828e-07
6 1 1.44123589080457185e-06 -1.16687120968697936e-06 -2.06506579639126479e-06
7 1 6.14982783692355681e-07 -3.93347895564338241e-07 8.41953099368496771e-08
8 1 -2.18814065688550794e-07 7.10666276087763374e-08 -1.90668064973717012e-07
8
Step 35000
1 1 8.63023348276985733e-07 -1.87946739692452657e-06 3.08739703271631004e-06
2 1 -3.59374389723329605e-06 4.85820203244923587e-07 1.86718835220169610e-06
3 1 -3.62499409712153535e-06 -1.14343972341215747e-06 -5.67868979198310759e-08
4 1 -1.30332408969537923e-07 1.14686865803491089e-06 7.59770627548994430e-07
5 1 -1.29495782690138959e-06 5.32610677351017623e-07 -8.75914285510967218e-07
6 1 -1.13870638524507413e-06 7.59832181794074190e-07 2.20854659020200373e-06
7 1 1.94864460571483936e-07 -1.17063521902506183e-06 -3.79100867742457116e-07
8 1 1.00254932353154665e-06 1.73338084355661803e-07 5.61854823979326355e-07
8
Step 36000
1 1 -9.50556735453329305e-07 2.16866359873487855e-06 -3.27266613520833421e-06
2 1 2.82183433874637163e-06 -4.81521844548042710e-07 -2.20193380567192515e-06
3 1 3.85925362703491308e-06 5.88947518766633731e-08 -4.37775533553685733e-07
4 1 -2.82164615134444873e-07 -8.30834716319167616e-07 4.73866416401703433e-08
5 1 3.80556363813744661e-07 7.41190300761521224e-07 9.05558006639248867e-07
6 1 3.74905292726100341e-07 -5.99378251141482156e-07 -1.53293519115319505e-06
7 1 -1.01938879159655644e-06 2.50399810677316552e-06 9.08051405612102479e-07
8 1 -1.52643710695327252e-06 1.25052482883641660e-07 -6.06576189821248803e-07
8
Step 37000
1 1 6.48606252248826985e-07 -2.18366660474335731e-06 2.68016973723308313e-06
2 1 -1.91701006209210329e-06 3.83805445713071816e-07 1.49979098630368835e-06
3 1 -2.99559055735681190e-06 5.37965102172982669e-07 5.58083853973249941e-07
4 1 4.40345978817278815e-07 3.22924927119595296e-07 -4.91934685009916042e-07
5 1 5.78946260458726328e-07 -1.51424295309717025e-06 -4.70191373726960264e-07
6 1 4.09239092461068851e-07 6.44742701246052211e-07 2.38901011262605906e-07
7 1 1.33566918060920662e-06 -2.91579632817294117e-06 -1.21757145669755133e-06
8 1 1.39027505695473487e-06 -7.10226267814257840e-07 4.16239141263910354e-07
8
Step 38000
1 1 -3.02643038105687396e-07 2.52204506007587905e-06 -1.93332974337054916e-06
2 1 1.32380691238719021e-06 -2.23315626925071819e-08 -3.42848155734538773e-07
3 1 1.80745476697543730e-06 -6.51366096213582708e-07 -1.91121971075171325e-07
4 1 -5.87263805115006287e-07 -5.84827834975337615e-08 7.42602430291220323e-07
5 1 -1.17099873657636014e-06 1.46653095873685675e-06 1.62019544423527437e-07
6 1 -9.15521752349886319e-07 -7.30555989823575065e-07 8.58260017779834137e-07
7 1 -1.05976981267669904e-06 2.61363970265148997e-06 1.01500854324305292e-06
8 1 -6.39176433000497752e-07 1.25956171369322691e-06 -2.59381166747714395e-07
8
Step 39000
1 1 1.43663240080274005e-07 -3.16063530295677392e-06 1.49352546468314670e-06
2 1 -1.06704076586756595e-06 -7.83900067622710833e-07 -8.80296698184156981e-07
3 1 -9.27717535860922173e-07 5.11536946915340092e-07 -3.80371170178772146e-07
4 1 3.91335303132503922e-07 3.33825001536878324e-07 -9.37552302705927542e-07
5 1 1.36875243458131295e-06 -8.31652377771757929e-07 -6.49076223001377272e-08
6 1 1.13195553516513700e-06 9.47419908738242186e-07 -1.53337628348313071e-06
7 1 4.85466243569960525e-07 -1.86957708075423682e-06 -3.68833823957136906e-07
8 1 -5.27750035121257814e-07 -1.68412433368112097e-06 1.56328947294067938e-07
8
Step 40000
1 1 -2.68989337637374193e-07 4.04514161354542707e-06 -1.11532991793101048e-06
2 1 1.09892893129071674e-06 1.68066420751685922e-06 1.66042266797362835e-06
3 1 4.76227288974678833e-07 -2.46776944682618421e-07 7.14750272047875095e-07
4 1 1.76095066662653241e-07 -1.14304016131561019e-06 1.38972115813531764e-06
5 1 -1.18501678799940284e-06 -2.92422344321195476e-07 1.10665415236497755e-07
6 1 -1.12163249301910865e-06 -1.03429542095430554e-06 1.59403599950744700e-06
7 1 2.45429362590462813e-07 6.61611685643084226e-07 -7.73760155582777297e-07
8 1 1.92856948206725112e-06 1.73600116916837372e-06 -1.16310525302487892e-07
8
Step 41000
1 1 6.04672285001811332e-07 -4.52881779291694356e-06 6.07607277110341124e-07
2 1 -1.23892963076076669e-06 -2.18643528200617637e-06 -1.43333491615654495e-06
3 1 -6.24404119258588696e-07 1.52917045658632382e-07 -3.63762343728328531e-07
4 1 -9.80059903264435290e-07 2.00223516820155970e-06 -2.29028158957031314e-06
5 1 6.83933547030310399e-07 1.69040818324956119e-06 -2.75998559093296547e-07
6 1 9.54223170289550896e-07 5.79126922424709655e-07 -7.95821819536501056e-07
7 1 -8.15660609820044597e-07 7.25916522617552678e-07 2.05986349272064683e-06
8 1 -2.89610413234027162e-06 -1.19018650841874199e-06 9.45949366143318875e-08
8
Step 42000
1 1 -8.53607193562236449e-07 3.85019489101578297e-06 -9.30454309742622145e-08
2 1 1.15001490930723683e-06 1.68871371168626895e-06 3.30398029798707697e-07
3 1 1.31326810500988574e-06 -5.31015745565176722e-07 -7.21595078200939233e-07
4 1 1.77540701683907424e-06 -2.28812266170813150e-06 2.99419379824559235e-06
5 1 -9.09858441633450180e-08 -2.69342074076326284e-06 4.55885731852590344e-07
6 1 -8.44399969765236363e-07 4.07948083027781070e-07 -6.16188761687686693e-07
7 1 9.05730461442004373e-07 -1.59721176644477768e-06 -2.62398492410839750e-06
8 1 2.75434713464078098e-06 1.97940049631071551e-07 5.04560179913271745e-08
8
Step 43000
1 1 7.18702174682644758e-07 -2.44811463875966178e-06 -7.03139369965805412e-08
2 1 -8.66493575166946458e-07 -5.59461524291939624e-07 1.11295160185617482e-06
3 1 -2.08235201336743914e-06 1.03549254565641754e-06 1.97120799154781152e-06
4 1 -2.37033730312688669e-06 1.72792436536008872e-06 -3.03496174072097779e-06
5 1 -2.50142482202329323e-07 2.74093014518608453e-06 -4.32543853036083956e-07
6 1 9.59563341340836523e-07 -1.33503564936836316e-06 1.57248872052062026e-06
7 1 -6.08545562095035907e-07 1.75757659208571943e-06 2.28692757397983293e-06
8 1 -1.88161889277194712e-06 5.22026720049987421e-07 -2.86168641607120680e-07
8
Step 44000
1 1 -4.19534631659274187e-07 1.38816421593787046e-06 -8.43159609447784972e-08
2 1 4.20652434053208690e-07 -2.69019316445188093e-07 -2.47220055283794228e-06
3 1 2.64305256389432251e-06 -1.31770152449026365e-06 -2.79361355124318523e-06
4 1 2.90619060987105262e-06 -7.96700999393501919e-07 2.92552902958825966e-06
5 1 3.29629324852654709e-07 -2.15906382169464934e-06 5.29296065343070341e-07
6 1 -1.26796748078241022e-06 2.15770354654337000e-06 -1.85352787008466624e-06
7 1 2.22407243379480418e-07 -1.51780188282220699e-06 -1.58669113343512369e-06
8 1 9.17295104669600419e-07 -7.52810852072073924e-07 4.39042409091161282e-07
8
Step 45000
1 1 7.70780903932382281e-08 -7.76561341609137557e-07 4.03762736940279716e-07
2 1 9.82527057903636787e-08 4.76616860359278640e-07 3.14165149578322494e-06
3 1 -2.68227616776506787e-06 1.21847642993738680e-06 2.85537689349263240e-06
4 1 -3.20874494780491378e-06 -2.34218128231623305e-07 -2.60676726201037468e-06
5 1 -2.45358319585949770e-07 1.14393639148216900e-06 -7.53020474480571105e-07
6 1 1.55651783379107291e-06 -2.70970793097148310e-06 1.47664030134091123e-06
7 1 3.85904508631971562e-08 9.39849664861944473e-07 7.66085628229688146e-07
8 1 -1.14780380843884964e-07 5.58165056506571217e-07 -3.88207101551797521e-07
8
Step 46000
1 1 2.42783545996252574e-07 7.05483617072896429e-07 -8.68445016554475123e-07
2 1 -6.05313401694695303e-07 -8.57463813895722748e-08 -2.96118582710634590e-06
3 1 2.13295271477078171e-06 -7.68967197469590281e-07 -2.01672717975021720e-06
4 1 3.10459274777871672e-06 1.07954177585639480e-06 2.25132817788223392e-06
5 1 7.19903289040921009e-08 4.64676184547023278e-08 1.17999392145814403e-06
6 1 -1.57667030058487278e-06 2.91289153930359821e-06 -6.55574552059489170e-07
7 1 -1.57993526209450449e-07 -1.93360597262025355e-07 -1.23597277865479251e-07
8 1 -4.33971406274389738e-07 -1.63947432652297092e-07 5.51918393493809014e-08
8
Step 47000
1 1 -4.97996977719188549e-07 -1.12841236915573246e-06 1.42562840980915510e-06
2 1 1.02596920457604942e-06 -5.35625656539179568e-07 2.22042963030785589e-06
3 1 -1.09573114864347575e-06 1.88517822367740503e-07 2.75482963880093309e-07