8
Step 0
1 1  0.000000000000e+00   0.000000000000e+00   0.000000000000e+00 
2 1  0.000000000000e+00   0.000000000000e+00   0.000000000000e+00 
3 1  0.000000000000e+00   0.000000000000e+00   0.000000000000e+00 
4 1  0.000000000000e+00   0.000000000000e+00   0.000000000000e+00 
5 1  0.000000000000e+00   0.000000000000e+00   0.000000000000e+00 
6 1  0.000000000000e+00   0.000000000000e+00   0.000000000000e+00 
7 1  0.000000000000e+00   0.000000000000e+00   0.000000000000e+00 
8 1  0.000000000000e+00   0.000000000000e+00   0.000000000000e+00 
8
Step 1000
1 1  1.533836746101e-04  -4.443204180657e-05  -1.256217933532e-04 
2 1  1.034335154462e-04  -1.743477805097e-04  -2.127043287270e-06 
3 1 -1.155580415087e-04  -1.188855525596e-04  -1.524450244508e-05 
4 1  1.244734104254e-04  -1.240243608664e-04  -2.579124404418e-05 
5 1  1.325159040828e-04  -1.547905492619e-04  -1.272864123790e-04 
6 1  7.320100814013e-05   1.975990530612e-04   1.486132385120e-04 
7 1 -1.551156391748e-05   6.412305093306e-05  -1.515938269332e-04 
8 1 -2.090913909810e-05   1.140104864805e-04   2.505529274006e-05 
8
Step 2000
1 1  1.525069601492e-04  -4.889067596659e-05  -6.120801441203e-05 
2 1  4.518740355995e-05  -9.992511987880e-05   5.577676231529e-05 
3 1 -6.759795421497e-05  -7.001763305718e-05   8.471527807672e-06 
4 1  7.643289216799e-06  -1.449023929470e-04  -7.316087421570e-05 
5 1  2.819394489809e-05  -1.715556590540e-04  -8.698205025664e-05 
6 1  9.717927706194e-05   1.383123777367e-04   7.732430216730e-05 
7 1  4.482729025027e-05   7.990140449153e-05  -1.043881212142e-04 
8 1  2.702988555789e-05   1.831112176367e-04   2.584641152306e-05 
8
Step 3000
1 1  8.746636933849e-05  -4.543897563258e-05   2.040528525884e-05 
2 1 -3.444648988910e-05   1.403785900493e-05   9.711669242907e-05 
3 1  5.323387853527e-06   2.101099678833e-06   2.927285156119e-05 
4 1 -1.097526295262e-04  -1.021170412983e-04  -9.380502482744e-05 
5 1 -7.926490862932e-05  -1.202976795954e-04  -1.362088840921e-05 
6 1  7.588008015983e-05   1.941724452656e-05  -1.154167856467e-05 
7 1  7.309384638983e-05   6.893943748935e-05  -1.170632381709e-05 
8 1  6.706697424302e-05   1.679731481486e-04   2.866631255903e-05 
8
Step 4000
1 1 -1.388140697293e-06  -3.568191115996e-05   7.511260884764e-05 
2 1 -9.008996833276e-05   1.011230165714e-04   1.041106162559e-04 
3 1  7.149904295155e-05   5.709717039480e-05   4.121969122684e-05 
4 1 -1.688474173490e-04  -2.293395953871e-05  -9.134714044297e-05 
5 1 -1.312666009073e-04  -3.217087467799e-05   5.751051067888e-05 
6 1  2.050289180706e-05  -9.409493337406e-05  -6.787737990350e-05 
7 1  6.582802621587e-05   3.053995652957e-05   7.262953451442e-05 
8 1  7.937904225639e-05   8.326677152289e-05   2.644649606039e-05 
8
Step 5000
1 1 -7.437158507420e-05  -1.925547050679e-05   8.328366523424e-05 
2 1 -9.778839196918e-05   1.254052679066e-04   7.455175075431e-05 
3 1  1.080217951349e-04   7.574934620671e-05   4.048624402291e-05 
4 1 -1.502719158799e-04   5.738249312767e-05  -7.464608939542e-05 
5 1 -1.103741077595e-04   5.614897017864e-05   9.900219410860e-05 
6 1 -4.534446707402e-05  -1.572255398126e-04  -7.282131132691e-05 
7 1  3.649920216904e-05  -2.315540657346e-05   1.121389589602e-04 
8 1  6.112592433939e-05  -2.743216026821e-05   1.270509499811e-05 
8
Step 6000
1 1 -1.068633671767e-04   5.080166288861e-06   4.877149250779e-05 
2 1 -5.795528624137e-05   8.507009148305e-05   1.845361096581e-05 
3 1  1.052579601771e-04   5.681422313952e-05   2.716133807048e-05 
4 1 -6.569352467933e-05   1.080161026102e-04  -4.941924807347e-05 
5 1 -3.268769609504e-05   1.134789287916e-04   9.809648205180e-05 
6 1 -9.688993738352e-05  -1.490435510443e-04  -3.493152931412e-05 
7 1  2.579105948244e-06  -7.438840536472e-05   9.366017977686e-05 
8 1  1.946690956072e-05  -1.158743871096e-04  -1.289690898023e-05 
8
Step 7000
1 1 -9.217845568037e-05   3.434258822749e-05  -6.213321500276e-06 
2 1  7.963141289443e-06   7.330251929668e-06  -4.283310354867e-05 
3 1  6.622284006123e-05   1.445060004920e-05   6.029057419042e-06 
4 1  4.729449467599e-05   1.086490411975e-04  -1.808447888361e-05 
5 1  6.058440230926e-05   1.201407468152e-04   5.772826440008e-05 
6 1 -1.117649685620e-04  -7.522915685299e-05   1.789831380195e-05 
7 1 -2.038166594339e-05  -1.012122007241e-04   2.768808172799e-05 
8 1 -2.867966736198e-05  -1.423650147231e-04  -4.214326559588e-05 
8
Step 8000
1 1 -4.455863353195e-05   6.049637247370e-05  -5.113590966998e-05 
2 1  6.534492670437e-05  -6.357309743508e-05  -8.366921092234e-05 
3 1  7.459333289697e-06  -2.700584592909e-05  -1.446772715031e-05 
4 1  1.371692595932e-04   6.123843310185e-05   1.820333510453e-05 
5 1  1.206125427463e-04   7.898310366741e-05  -1.700047384816e-06 
6 1 -8.121384786004e-05   2.786926135111e-05   5.092208582587e-05 
7 1 -2.416940623531e-05  -8.865668185383e-05  -5.249407856453e-05 
8 1 -6.234931894594e-05  -9.742885190132e-05  -6.170666329860e-05 
8
Step 9000
1 1  9.844196517614e-06   7.337541764949e-05  -6.415332038997e-05 
2 1  8.547860993043e-05  -9.210155200465e-05  -8.814413616726e-05 
3 1 -4.767962138566e-05  -4.815278437657e-05  -2.643977036606e-05 
4 1  1.650181029311e-04  -1.008672103558e-05   5.599594917001e-05 
5 1  1.186467205967e-04   1.322755890849e-05  -5.215405533805e-05 
6 1 -1.661890295687e-05   1.122217087579e-04   4.385264641736e-05 
7 1 -1.148415801410e-05  -4.014746166122e-05  -1.075583354165e-04 
8 1 -6.850687235476e-05  -8.614894147639e-06  -6.036948337283e-05 
8
Step 10000
1 1  4.772429237555e-05   6.519812623737e-05  -4.212529982382e-05 
2 1  6.116599212404e-05  -6.933073652721e-05  -5.748104189474e-05 
3 1 -7.975203469474e-05  -4.395200341024e-05  -2.618021173576e-05 
4 1  1.230663123497e-04  -7.328072732026e-05   8.833670028741e-05 
5 1  5.933040429232e-05  -4.724247901007e-05  -7.264421731953e-05 
6 1  5.710725952224e-05   1.437272768520e-04   8.197923146627e-07 
7 1  6.930960129725e-06   2.415302940899e-05  -1.128935959879e-04 
8 1 -4.790330763840e-05   7.712836735935e-05  -3.519119350327e-05 
8
Step 11000
1 1  5.849146947686e-05   3.402113875726e-05   4.159351365670e-07 
2 1  7.941911394610e-06  -1.341253025309e-05  -6.762383735503e-06 
3 1 -8.043322620082e-05  -2.232098940867e-05  -1.549343315296e-05 
4 1  3.303396349450e-05  -1.024540267139e-04   1.054265120943e-04 
5 1 -2.618974936399e-05  -7.872515582469e-05  -5.751606186225e-05 
6 1  1.126553566067e-04   1.135416013710e-04  -5.433626211277e-05 
7 1  1.878230977004e-05   7.792305413416e-05  -6.715031125376e-05 
8 1 -1.200046747322e-05   1.169493402289e-04   6.817640789101e-06 
8
Step 12000
1 1  4.640604856387e-05  -1.380132047073e-05   3.971393812962e-05 
2 1 -4.458788939807e-05   4.105976189985e-05   4.142060571407e-05 
3 1 -5.419401083188e-05   2.328237724666e-06  -9.132712693466e-07 
4 1 -6.534347130638e-05  -8.666690838897e-05   9.640408768050e-05 
5 1 -9.578589835717e-05  -7.199231697879e-05  -1.763276015197e-05 
6 1  1.291067416962e-04   3.908017893845e-05  -8.891148998919e-05 
7 1  1.604873890850e-05   9.904981948862e-05   8.899181589771e-06 
8 1  2.291647423857e-05   9.080381350466e-05   5.024626892364e-05 
8
Step 13000
1 1  2.486522331190e-05  -6.363999629919e-05   5.587050861982e-05 
2 1 -6.744032537829e-05   6.301813154694e-05   6.549774866183e-05 
3 1 -1.562285615165e-05   1.774850237172e-05   9.517754469667e-06 
4 1 -1.313156571434e-04  -3.375897585075e-05   5.515227057186e-05 
5 1 -1.165030230039e-04  -3.493275380120e-05   2.498789352096e-05 
6 1  9.927194048284e-05  -4.485765215749e-05  -7.806914304826e-05 
7 1 -6.695496052534e-07   7.948562856345e-05   8.104076445573e-05 
8 1  4.330417141249e-05   1.233715108807e-05   7.653383224624e-05 
8
Step 14000
1 1  6.622044176665e-06  -9.663153900929e-05   4.235929775827e-05 
2 1 -4.837764642925e-05   4.305239270095e-05   5.557621312313e-05 
3 1  1.800793117425e-05   1.985690826456e-05   1.033192023093e-05 
4 1 -1.406466960161e-04   3.328910887436e-05  -1.220887309312e-05 
5 1 -8.088675736001e-05   1.184666902559e-05   4.826586677515e-05 
6 1  3.277574688883e-05  -1.026282843974e-04  -2.012538322583e-05 
7 1 -2.227110519868e-05   2.918701293987e-05   1.173242705637e-04 
8 1  4.357012368679e-05  -7.718637017881e-05   7.272195719455e-05 
8
Step 15000
1 1 -2.857337231597e-06  -9.722606462949e-05   7.843481157777e-06 
2 1  7.826238759902e-07  -3.260809574449e-06   1.872811668923e-05 
3 1  3.483975939089e-05   1.317551012278e-05   1.542133958597e-06 
4 1 -9.463606283270e-05   8.629383936656e-05  -8.589846721825e-05 
5 1 -9.601471158862e-06   4.466055739539e-05   4.124068254632e-05 
6 1 -4.749891052444e-05  -1.124179263724e-04   6.111437189298e-05 
7 1 -3.673488797837e-05  -2.909471836986e-05   1.028365050194e-04 
8 1  2.665328715214e-05  -1.301234771304e-04   3.893181694098e-05 
8
Step 16000
1 1 -6.718456135377e-06  -6.151667512467e-05  -2.831279962339e-05 
2 1  5.073630967990e-05  -4.517111934284e-05  -2.541253344966e-05 
3 1  3.310845177704e-05   7.306580888907e-06  -1.075103270689e-05 
4 1 -1.729595774247e-05   1.038240850306e-04  -1.395785221775e-04 
5 1  6.024098255818e-05   4.831541358196e-05   9.401093217922e-06 
6 1 -1.140192656143e-04  -7.500161153950e-05   1.274989559764e-04 
7 1 -3.584259366547e-05  -7.029910036077e-05   4.583350984109e-05 
8 1  1.891076293790e-06  -1.162900846111e-04  -1.109023865233e-05 
8
Step 17000
1 1 -1.321377998657e-05   1.188156512108e-08  -4.725864160472e-05 
2 1  7.078527317300e-05  -5.380058922072e-05  -5.430769211804e-05 
3 1  2.088454385487e-05   8.706349243728e-06  -1.704528836471e-05 
4 1  5.824578209627e-05   7.951851758733e-05  -1.507572641882e-04 
5 1  9.490871397508e-05   2.322941726083e-05  -2.872312827725e-05 
6 1 -1.446052341710e-04  -1.169148631765e-05   1.441625587381e-04 
7 1 -1.883351046761e-05  -7.831199650011e-05  -2.770472169838e-05 
8 1 -1.942121476268e-05  -3.752277505537e-05  -5.634290273549e-05 
8
Step 18000
1 1 -2.776194603994e-05   6.649949621122e-05  -4.155866582764e-05 
2 1  4.438888806615e-05  -2.023734316675e-05  -5.170825235832e-05 
3 1  1.129633715275e-05   1.533953285060e-05  -9.567674302973e-06 
4 1  1.054239752980e-04   2.195131528652e-05  -1.088729023999e-04 
5 1  8.028984999378e-05  -1.586245253364e-05  -5.103637444176e-05 
6 1 -1.279892734137e-04   4.852744886065e-05   9.482346309776e-05 
7 1  7.551041044888e-06  -5.240455494735e-05  -8.695199341662e-05 
8 1 -2.930175621927e-05   7.314112790052e-05  -7.732596659940e-05 
8
Step 19000
1 1 -4.604879064593e-05   1.121460280980e-04  -1.636647400387e-05 
2 1 -2.033910383650e-05   3.698746955766e-05  -1.547209626663e-05 
3 1  1.401057310527e-05   1.943192811851e-05   1.254053371064e-05 
4 1  1.115409272367e-04  -4.924602450793e-05  -2.107201234421e-05 
5 1  2.663855929414e-05  -4.683536063234e-05  -4.257063776322e-05 
6 1 -6.519474333855e-05   8.151624663432e-05  -9.086894728990e-06 
7 1  3.190671564091e-05  -5.913071447764e-06  -1.080218019956e-04 
8 1 -2.517529391846e-05   1.641761200436e-04  -6.403899469296e-05 
8
Step 20000
1 1 -5.495514014410e-05   1.144771807898e-04   1.469657250851e-05 
2 1 -8.964997133608e-05   8.139606428052e-05   3.799505692944e-05 
3 1  2.794482433628e-05   1.287958034541e-05   4.047604406095e-05 
4 1  7.879688210922e-05  -1.069978964322e-04   8.350914446684e-05 
5 1 -3.635172661247e-05  -4.951563649267e-05  -4.223644462778e-06 
6 1  2.710418695161e-05   7.524824407628e-05  -1.264578151845e-04 
7 1  4.381602605840e-05   3.975539472661e-05  -8.272574619735e-05 
8 1 -9.124945658691e-06   1.869638066554e-04  -2.247380193277e-05 
8
Step 21000
1 1 -4.154376217090e-05   6.891399224401e-05   3.500015136651e-05 
2 1 -1.203402211136e-04   8.015936550820e-05   7.972368182297e-05 
3 1  4.118201716098e-05  -8.348450593890e-06   5.835193106604e-05 
4 1  2.367610610899e-05  -1.266415275423e-04   1.632548777893e-04 
5 1 -7.391997564607e-05  -1.760688806859e-05   4.475233428235e-05 
6 1  1.178418490061e-04   3.598192779048e-05  -2.023664036565e-04 
7 1  4.039534593476e-05   6.378194036183e-05  -2.423375817011e-05 
8 1  1.258997336205e-05   1.226382487859e-04   2.603214402781e-05 
8
Step 22000
1 1 -2.025622259002e-06  -5.088266887295e-06   3.447288998692e-05 
2 1 -8.558201024509e-05   2.440474017043e-05   8.291617922907e-05 
3 1  3.694899882658e-05  -3.926082241545e-05   5.018058813659e-05 
4 1 -3.079286808625e-05  -9.854476093996e-05   1.863746934134e-04 
5 1 -6.678322325398e-05   3.479900952647e-05   7.640926214662e-05 
6 1  1.742223353378e-04  -1.318448639900e-05  -1.972283562348e-04 
7 1  2.715369497679e-05   5.566197191326e-05   3.840113346870e-05 
8 1  3.058294632303e-05  -5.160319720905e-06   5.710324765918e-05 
8
Step 23000
1 1  5.192262122931e-05  -7.238037711415e-05   1.666469964362e-05 
2 1  6.415125078356e-06  -6.076883279282e-05   3.931181124535e-05 
3 1  4.392254328297e-06  -6.471835220865e-05   1.016831306069e-05 
4 1 -6.659307833331e-05  -3.291599640679e-05   1.455455170333e-04 
5 1 -2.277968745039e-05   7.847515386557e-05   6.995480309715e-05 
6 1  1.741610252531e-04  -4.494371116198e-05  -1.082159866983e-04 
7 1  1.251137272204e-05   2.090571140633e-05   7.531255618477e-05 
8 1  3.552247326301e-05  -1.390424235957e-04   5.698383691672e-05 
8
Step 24000
1 1  9.467603252986e-05  -9.956044679609e-05  -4.707473590969e-06 
2 1  1.099407201879e-04  -1.255825369064e-04  -3.147285183806e-05 
3 1 -4.985218482381e-05  -6.859650489509e-05  -4.809384552212e-05 
4 1 -7.598980462213e-05   4.307213990360e-05   6.102921680946e-05 
5 1  2.817343086615e-05   8.560892467235e-05   2.617973182343e-05 
6 1  1.162750217602e-04  -4.384196386682e-05   2.466796527402e-05 
7 1  1.958255360038e-06  -2.108298828443e-05   7.140128258966e-05 
8 1  2.341574331413e-05  -2.146118266971e-04   3.017423723473e-05 
8
Step 25000
1 1  1.021106289352e-04  -7.533774168365e-05  -1.573149549210e-05 
2 1  1.674624823638e-04  -1.286165599018e-04  -9.180490782403e-05 
3 1 -1.017846296429e-04  -4.461770242919e-05  -9.611907240219e-05 
4 1 -6.217063883023e-05   9.764920530743e-05  -2.826839880940e-05 
5 1  5.431978239418e-05   4.857377550318e-05  -3.120200563423e-05 
6 1  2.465565008443e-05  -1.503143269113e-05   1.380034068726e-04 
7 1 -4.735220349856e-06  -4.795843218246e-05   3.438161071459e-05 
8 1 -1.592682752681e-06  -1.981253432511e-04  -4.019594023739e-06 
8
Step 26000
1 1  6.800011049683e-05  -1.771693485616e-05  -1.070808192938e-05 
2 1  1.469834432162e-04  -6.471022543386e-05  -1.105788210207e-04 
3 1 -1.239093131203e-04   4.544537838343e-07  -1.083223728504e-04 
4 1 -3.607349747101e-05   1.116589761177e-04  -8.624402551834e-05 
5 1  4.182153536810e-05  -1.535983622128e-05  -7.145099450580e-05 
6 1 -6.295781995539e-05   2.073774530926e-05   1.823411649051e-04 
7 1 -1.158475401992e-05  -4.741225150111e-05  -1.142721882160e-05 
8 1 -2.907371804844e-05  -1.052661098988e-04  -2.532733096141e-05 
8
Step 27000
1 1  7.519686285897e-06   3.821855530914e-05   4.215633656129e-06 
2 1  5.946857952609e-05   3.305889910182e-05  -8.007088295618e-05 
3 1 -1.006198484195e-04   4.784431771631e-05  -7.662857460598e-05 
4 1 -9.655493591988e-06   8.597043007948e-05  -9.805952089043e-05 
5 1  2.194553166392e-06  -7.417196277865e-05  -7.498810579582e-05 
6 1 -1.146480066078e-04   4.068795463529e-05   1.470802965675e-04 
7 1 -2.194666616784e-05  -2.247366263101e-05  -4.035860664954e-05 
8 1 -4.724056051567e-05   1.212830679040e-05  -2.435564904260e-05 
8
Step 28000
1 1 -5.081473964748e-05   6.180226236063e-05   1.595423634664e-05 
2 1 -4.949347962629e-05   1.131921887445e-04  -1.805152216146e-05 
3 1 -3.772776586925e-05   7.600980758099e-05  -1.418269426271e-05 
4 1  1.013303114892e-05   3.761057757745e-05  -7.415961984981e-05 
5 1 -3.692463787551e-05  -9.912747573494e-05  -4.357002230322e-05 
6 1 -1.180671748347e-04   3.370727142877e-05   6.108198048338e-05 
7 1 -3.477584146899e-05   1.194397368879e-05  -3.982451240071e-05 
8 1 -4.844228103236e-05   9.809952617355e-05  -6.596335957176e-06 
8
Step 29000
1 1 -8.258084916373e-05   4.331147913393e-05   1.463842295024e-05 
2 1 -1.292912916321e-04   1.366759335264e-04   4.502048038630e-05 
3 1  4.206044112235e-05   7.405973204486e-05   5.434411673628e-05 
4 1  2.230794519286e-05  -1.240172509382e-05  -3.733855697412e-05 
5 1 -5.156286674142e-05  -7.990937558667e-05   3.856840245687e-06 
6 1 -8.182457885024e-05   4.947200641720e-06  -3.084101367405e-05 
7 1 -4.395772861750e-05   3.927794301540e-05  -1.470692837457e-05 
8 1 -3.175481098906e-05   1.245087875623e-04   1.324059449218e-05 
8
Step 30000
1 1 -7.690694429827e-05  -5.523137036246e-06  -1.254572058370e-06 
2 1 -1.473537297061e-04   9.202149096197e-05   8.286503026453e-05 
3 1  1.111212460393e-04   4.259167937380e-05   1.039012310880e-04 
4 1  2.820038960428e-05  -4.927264107565e-05  -6.904760826805e-06 
5 1 -3.305005457085e-05  -2.446613523769e-05   4.421804798275e-05 
6 1 -2.541419947602e-05  -3.033557910727e-05  -9.235711714374e-05 
7 1 -4.142088666053e-05   4.813175315928e-05   1.981180408409e-05 
8 1 -1.215445295851e-06   9.498621618542e-05   2.177884878477e-05 
8
Step 31000
1 1 -3.718273356960e-05  -5.816197069871e-05  -2.402927885900e-05 
2 1 -9.607482701210e-05  -3.242966157549e-06   8.115044479913e-05 
3 1  1.418227275833e-04  -7.987758095119e-06   1.139993993024e-04 
4 1  2.804044136743e-05  -6.500978222470e-05   7.330662356083e-06 
5 1  9.905448250179e-06   4.504199448069e-05   5.902497816035e-05 
6 1  2.833088031469e-05  -5.384297774560e-05  -1.031765912545e-04 
7 1 -2.173583402874e-05   3.436699959686e-05   4.555334167655e-05 
8 1  3.415542782589e-05   3.376228895290e-05   1.348978361735e-05 
8
Step 32000
1 1  1.842258116952e-05  -8.398789699354e-05  -3.916640896638e-05 
2 1  1.941499179286e-06  -1.059152234320e-04   4.339304399180e-05 
3 1  1.168971098833e-04  -5.764973897951e-05   7.718086755786e-05 
4 1  2.109182373967e-05  -5.877952430563e-05   7.449274748463e-06 
5 1  5.385976294916e-05   9.856319910249e-05   4.210027797788e-05 
6 1  6.011727003320e-05  -5.200502378487e-05  -6.538974248550e-05 
7 1  1.362297307426e-05   2.927101145884e-06   4.844469897116e-05 
8 1  6.155806999903e-05  -2.493273589024e-05  -6.977523286177e-06 
8
Step 33000
1 1  6.351520640653e-05  -6.387417318928e-05  -3.357425056164e-05 
2 1  1.006604534254e-04  -1.646223713950e-04  -9.924498347905e-06 
3 1  4.081541686385e-05  -8.460069314408e-05   5.148889571795e-06 
4 1  7.624555087022e-06  -3.656228097958e-05   5.183502352429e-06 
5 1  7.233154116395e-05   1.110563881654e-04   3.906763425397e-06 
6 1  6.237421775975e-05  -2.355752478801e-05  -3.176736099202e-06 
7 1  5.394876486367e-05  -3.349538958782e-05   2.548844135656e-05 
8 1  6.895319346479e-05  -5.393404092887e-05  -2.679128059031e-05 
8
Step 34000
1 1  7.684246269061e-05  -2.220126191097e-06  -4.755123833866e-06 
2 1  1.528237217234e-04  -1.461187040335e-04  -5.179314554464e-05 
3 1 -5.851906005027e-05  -7.622695407605e-05  -7.465044160407e-05 
4 1 -9.366147829791e-06  -7.786858690928e-06   1.239986695180e-05 
5 1  5.151939778778e-05   7.494636401852e-05  -3.380110758192e-05 
6 1  4.139934965018e-05   1.895369015014e-05   5.047910250683e-05 
7 1  8.220932390487e-05  -5.943120290924e-05  -1.344441382896e-05 
8 1  5.034973954270e-05  -4.671048361289e-05  -3.272567493176e-05 
8
Step 35000
1 1  5.251782017568e-05   7.372824333381e-05   3.628135817445e-05 
2 1  1.335691941947e-04  -5.291679583807e-05  -6.279946797363e-05 
3 1 -1.402826422272e-04  -3.451282327840e-05  -1.299851119582e-04 
4 1 -2.413355515320e-05   1.888729079755e-05   3.237033096201e-05 
5 1 -1.564616625829e-06   3.957436328236e-06  -5.026888220943e-05 
6 1  1.258536792280e-05   5.574217175990e-05   7.004250139343e-05 
7 1  8.399949004823e-05  -6.315642926343e-05  -5.101606984743e-05 
8 1  9.405211003614e-06  -1.690096732341e-05  -1.998752664402e-05 
8
Step 36000
1 1  2.374795100338e-06   1.269569391056e-04   6.884465466817e-05 
2 1  5.151837795936e-05   7.623736893018e-05  -4.095473354051e-05 
3 1 -1.680479945430e-04   2.371560209813e-05  -1.367099691189e-04 
4 1 -2.974546375232e-05   3.770925163427e-05   5.740913261473e-05 
5 1 -6.205781763641e-05  -7.234688371466e-05  -3.628955398346e-05 
6 1 -7.084163073205e-06   6.962803182451e-05   4.774170182591e-05 
7 1  5.443476070950e-05  -4.159942889219e-05  -7.069538222201e-05 
8 1 -4.070232573462e-05   1.080566045983e-05   5.292697000548e-06 
8
Step 37000
1 1 -4.854024812715e-05   1.278178267878e-04   7.143059117186e-05 
2 1 -5.513756246749e-05   1.811835081464e-04  -2.467444755047e-06 
3 1 -1.263960056688e-04   7.229107400189e-05  -8.878859505544e-05 
4 1 -2.148508985690e-05   4.586784937436e-05   7.163828835640e-05 
5 1 -9.829168862149e-05  -1.202690479570e-04   9.253982713355e-07 
6 1 -7.684017901637e-06   5.389674008146e-05  -2.909227811317e-06 
7 1 -4.510403552153e-07  -1.250939361649e-06  -6.334239982678e-05 
8 1 -8.145365383666e-05   1.401292047279e-05   2.995616202372e-05 
8
Step 38000
1 1 -7.381652954452e-05   6.875699000238e-05   3.476994205083e-05 
2 1 -1.359729608806e-04   2.075874763478e-04   2.862446611746e-05 
3 1 -2.950451799347e-05   8.808341575322e-05  -1.994738068223e-06 
4 1 -1.061164351927e-06   4.281281054120e-05   5.942380568833e-05 
5 1 -8.759817216491e-05  -1.168028660918e-04   4.064921764957e-05 
6 1  7.449241551760e-06   1.528643416283e-05  -5.336739571561e-05 
7 1 -6.351143451660e-05   4.418274679267e-05  -3.052691736196e-05 
8 1 -9.556624436453e-05  -1.217939784301e-05   4.022339457548e-05 
8
Step 39000
1 1 -5.972273338476e-05  -2.832221892555e-05  -2.869070842738e-05 
2 1 -1.515459471313e-04   1.357924881232e-04   3.408462538723e-05 
3 1  8.185095218305e-05   6.284166786064e-05   8.954777043321e-05 
4 1  2.234190572586e-05   2.995197949260e-05   1.697246580942e-05 
5 1 -3.040505376733e-05  -6.157201482438e-05   5.922345537592e-05 
6 1  2.404713342116e-05  -2.842784232513e-05  -7.494169367021e-05 
7 1 -1.095180594166e-04   7.720585534518e-05   1.519474406808e-05 
8 1 -7.421120718821e-05  -5.054325074666e-05   2.893164392814e-05 
8
Step 40000
1 1 -1.377604091790e-05  -1.185759121918e-04  -8.779301463261e-05 
2 1 -9.509958529179e-05  -3.145399591008e-06   1.165685568865e-05 
3 1  1.560699038765e-04   8.918688429304e-06   1.463863039375e-04 
4 1  3.597424143934e-05   1.102490145838e-05  -4.126938942824e-05 
5 1  4.639215309848e-05   1.975895802017e-05   4.370333699818e-05 
6 1  2.594003030619e-05  -5.647502147242e-05  -5.437592818578e-05 
7 1 -1.172076491219e-04   8.370512661694e-05   5.476320813794e-05 
8 1 -2.386614048709e-05  -7.259314537468e-05   1.379145079232e-06 
8
Step 41000
1 1  3.856227560632e-05  -1.597276964351e-04  -1.099415857215e-04 
2 1  1.143210629638e-06  -1.406854301103e-04  -2.257671089538e-05 
3 1  1.597072492325e-04  -4.561925026494e-05   1.452906462551e-04 
4 1  3.072700038368e-05  -8.363919965829e-06  -8.955267061561e-05 
5 1  1.036454855459e-04   8.757196468047e-05   7.657543928606e-07 
6 1  4.832717119269e-06  -5.731561799720e-05  -1.885895662545e-06 
7 1 -8.244175150118e-05   6.115338742943e-05   7.315020481291e-05 
8 1  3.503614868576e-05  -5.661670188070e-05  -2.690913542693e-05 
8
Step 42000
1 1  6.925084881585e-05  -1.360453113487e-04  -8.058305097354e-05 
2 1  8.653550422022e-05  -2.107917257626e-04  -4.476186730051e-05 
3 1  9.634036096188e-05  -7.367273585719e-05   9.052144543784e-05 
4 1  7.099254421667e-06  -2.361225766423e-05  -1.064523863619e-04 
5 1  1.125829551935e-04   1.112081425840e-04  -4.706609771572e-05 
6 1 -3.428803362064e-05  -3.473810087189e-05   5.546855387395e-05 
7 1 -1.953228206118e-05   1.820262284462e-05   6.685276637435e-05 
8 1  7.976795653657e-05  -1.746773629200e-06  -3.980556442378e-05 
8
Step 43000
1 1  6.286585303298e-05  -6.140252461499e-05  -1.051874441034e-05 
2 1  1.202880737869e-04  -1.825258313745e-04  -3.842429646929e-05 
3 1 -6.341518229745e-07  -6.344654408728e-05   7.203530462706e-06 
4 1 -2.451914108825e-05  -3.243851125269e-05  -8.461323082044e-05 
5 1  6.849510547120e-05   8.309734718382e-05  -7.403797335199e-05 
6 1 -7.410220104235e-05  -3.228128915490e-06   8.898896091464e-05 
7 1  4.623688111260e-05  -3.049086889972e-05   4.221764668047e-05 
8 1  9.460697116464e-05   6.932550533886e-05  -2.907185311656e-05 
8
Step 44000
1 1  2.359412174587e-05   2.890639098225e-05   6.798058046426e-05 
2 1  8.927392153391e-05  -7.141640774457e-05  -3.756087904578e-06 
3 1 -8.534475680969e-05  -2.195208624457e-05  -7.030626311361e-05 
4 1 -4.846806897455e-05  -3.329320759382e-05  -3.349812951324e-05 
5 1 -7.245002192855e-06   1.946324649757e-05  -6.428923890407e-05 
6 1 -9.264630377091e-05   2.048348062271e-05   8.190814521113e-05 
7 1  8.838929682134e-05  -6.804970026567e-05   1.060763831237e-05 
8 1  7.488788974461e-05   1.202964946879e-04   1.266622719033e-06 
8
Step 45000
1 1 -2.678653257687e-05   9.372496535907e-05   1.149678276535e-04 
2 1  1.424973713289e-05   6.620754052160e-05   4.160935000683e-05 
3 1 -1.194569854013e-04   2.857885250567e-05  -1.116103251088e-04 
4 1 -5.111186177493e-05  -2.623828693160e-05   2.249653285602e-05 
5 1 -7.664597109590e-05  -4.706932648576e-05  -2.070888450616e-05 
6 1 -7.594684367763e-05   2.568523119681e-05   3.808492107286e-05 
7 1  9.074923233125e-05  -8.136052462004e-05  -1.624274044068e-05 
8 1  2.967309750507e-05   1.214624860649e-04   3.531663182997e-05 
8
Step 46000
1 1 -6.116931944892e-05   1.090324454324e-04   1.057730725940e-04 
2 1 -6.123343452810e-05   1.621964624682e-04   7.269529779187e-05 
3 1 -9.305612808284e-05   6.202331064225e-05  -1.053414871042e-04 
4 1 -2.904246344525e-05  -1.465731085167e-05   5.724137686044e-05 
5 1 -1.062227938167e-04  -8.350223628013e-05   3.574159057288e-05 
6 1 -2.692763124327e-05   1.337679884420e-05  -1.985974338945e-05 
7 1  5.639541658996e-05  -6.727097183985e-05  -3.181671598076e-05 
8 1 -2.184885911562e-05   6.897127381012e-05   5.367622647301e-05 
8
Step 47000
1 1 -6.317412726948e-05   8.004500711175e-05   4.595337719541e-05 
2 1 -9.650190339646e-05   1.750123342558e-04   7.250322815353e-05 
3 1 -2.878815608994e-05   6.318670477486e-05  -6.323262952178e-05 
4 1  8.441534743564e-06  -2.020390764508e-06   5.989792494677e-05 
5 1 -8.522701242113e-05  -7.454349975031e-05   7.709497932414e-05 
6 1  3.648719783830e-05  -4.964773752307e-06  -6.436523521765e-05 
7 1  6.316062429192e-06  -3.274419297969e-05  -3.778518499111e-05 
8 1 -6.042660917686e-05  -1.248272759515e-05   4.456499353168e-05 
8
Step 48000
1 1 -3.505747275382e-05   3.219054806543e-05  -3.319146293077e-05 
2 1 -7.518210098412e-05   1.075305937836e-04   4.038869419487e-05 
3 1  3.526851477478e-05   3.456310810235e-05  -9.700474586180e-06 
4 1  4.470947123779e-05   9.889083320728e-06   3.831326866610e-05 
5 1 -2.860792398854e-05  -2.918357893727e-05   8.273492335490e-05 
6 1  8.939129357697e-05  -1.501928066032e-05  -7.772741689104e-05 
7 1 -3.274427920859e-05   9.037938588853e-06  -3.985393223529e-05 
8 1 -7.404333901390e-05  -8.359636865808e-05   1.001563913624e-05 
8
Step 49000
1 1  5.541090461493e-06  -6.487488748624e-06  -9.210040761530e-05 
2 1 -1.141228711376e-05  -1.271285240033e-06  -8.680595021650e-06 
3 1  6.741594855469e-05  -7.953727556878e-06   3.242334093806e-05 
4 1  6.372506192592e-05   1.849979052403e-05   1.054286744264e-05 
5 1  3.281085708131e-05   2.660026757230e-05   4.977496869151e-05 
6 1  1.103281765865e-04  -8.916124987200e-06  -5.864223389823e-05 
7 1 -4.352518711800e-05   4.358847260372e-05  -4.037181348274e-05 
8 1 -6.082246582316e-05  -1.108062285251e-04  -3.507147123416e-05 
8
Step 50000
1 1  3.678251025205e-05  -2.000846086250e-05  -1.021675930242e-04 
2 1  5.948748451197e-05  -9.847878683322e-05  -5.257494764425e-05 
3 1  5.614218902294e-05  -4.489968438252e-05   5.130735675988e-05 
4 1  5.666365327106e-05   2.131543771493e-05  -4.976642804445e-06 
5 1  6.943384798114e-05   6.470582611495e-05  -6.935904014012e-06 
6 1  9.098041129534e-05   1.029725526422e-05  -2.013743403039e-05 
7 1 -2.560817669763e-05   6.044919387750e-05  -3.623850223968e-05 
8 1 -2.783863148894e-05  -8.373586217343e-05  -6.919989907231e-05 
8
Step 51000
1 1  4.484537133828e-05  -1.145615385117e-05  -5.850171331913e-05 
2 1  9.958813344754e-05  -1.418884826310e-04  -7.283285632280e-05 
3 1  1.322204625867e-05  -6.170605196521e-05   4.773859762216e-05 
4 1  2.518626891460e-05   1.822351523076e-05   5.474664317441e-07 
5 1  6.737037195072e-05   6.725962954216e-05  -6.268971270978e-05 
6 1  3.870124352877e-05   3.110724837208e-05   1.885079109684e-05 
7 1  6.810661466024e-06   5.580353729226e-05  -2.161109322537e-05 
8 1  1.298850624335e-05  -1.944168718611e-05  -7.424482615847e-05 
8
Step 52000
1 1  2.958191132956e-05   6.246425235512e-07   1.824518067443e-05 
2 1  8.634356356267e-05  -1.164106963015e-04  -6.236859047875e-05 
3 1 -3.433568527656e-05  -5.316995628175e-05   3.070795180056e-05 
4 1 -1.920683578339e-05   1.056331823555e-05   2.021205309199e-05 
5 1  3.295996133769e-05   3.339493430652e-05  -9.259433063781e-05 
6 1 -2.780598979061e-05   3.940333366707e-05   4.306440862685e-05 
7 1  3.220198606062e-05   3.245567488885e-05   7.717631588278e-06 
8 1  4.857718580660e-05   4.737815148334e-05  -4.386238686728e-05 
8
Step 53000
1 1  2.761839973938e-06  -4.022431574529e-06   9.138875185178e-05 
2 1  2.339720753293e-05  -3.623582599012e-05  -2.749277219866e-05 
3 1 -5.987496774008e-05  -2.278579406451e-05   1.066471934804e-05 
4 1 -5.956082082837e-05   1.024386748925e-06   3.592248620281e-05 
5 1 -1.273386756421e-05  -2.080206256192e-05  -8.114606922359e-05 
6 1 -8.495135705278e-05   2.609897166555e-05   4.690700704783e-05 
7 1  3.379546860007e-05  -1.856186731942e-06   4.723662309696e-05 
8 1  6.750679946438e-05   8.262916956242e-05   1.280655044839e-05 
8
Step 54000
1 1 -1.952670231039e-05  -3.168635821535e-05   1.239966301747e-04 
2 1 -6.143132045619e-05   6.455068959322e-05   1.599124852763e-05 
3 1 -4.882584189520e-05   1.969651010546e-05  -6.270437305934e-06 
4 1 -7.926483820322e-05  -6.747583105178e-06   2.850327201691e-05 
5 1 -4.632113725209e-05  -6.998233954687e-05  -2.839361641139e-05 