8
Step 0
1 1  0.000000000000e+00   0.000000000000e+00   0.000000000000e+00 
2 1  0.000000000000e+00   0.000000000000e+00   0.000000000000e+00 
3 1  0.000000000000e+00   0.000000000000e+00   0.000000000000e+00 
4 1  0.000000000000e+00   0.000000000000e+00   0.000000000000e+00 
5 1  0.000000000000e+00   0.000000000000e+00   0.000000000000e+00 
6 1  0.000000000000e+00   0.000000000000e+00   0.000000000000e+00 
7 1  0.000000000000e+00   0.000000000000e+00   0.000000000000e+00 
8 1  0.000000000000e+00   0.000000000000e+00   0.000000000000e+00 
8
Step 100
1 1 -1.943353849952e-04  -1.134208853030e-04   1.261756845226e-04 
2 1 -2.736271210284e-04   2.435838343466e-04   3.384016057174e-04 
3 1  3.110906771102e-04   5.756525407513e-06   2.691928022802e-04 
4 1 -8.759493110118e-05   9.038616060294e-05  -2.731790550175e-05 
5 1 -1.812356265307e-04   2.982729769016e-05   2.049047908378e-04 
6 1 -1.241632059841e-04  -3.641832811162e-06  -1.495994438209e-04 
7 1 -2.467077471126e-04   2.334875459201e-05   1.542174527848e-04 
8 1  2.944861626690e-05  -1.446215261575e-04   3.323886879332e-04 
8
Step 200
1 1  1.047969106168e-04  -2.022783925628e-04  -5.493661928110e-05 
2 1  1.863969233400e-04  -2.946567687802e-04  -3.915021173926e-05 
3 1  1.892208744217e-05   1.033179645145e-04   1.790682466248e-04 
4 1  1.375787150326e-04   1.775322961943e-04  -3.476436408691e-04 
5 1  2.088427964126e-04   2.662880292841e-04   6.923753787321e-05 
6 1 -3.306866258459e-06  -2.576704952644e-05   2.595853502721e-04 
7 1 -1.853631762803e-04   6.403659631592e-05  -1.503591437404e-04 
8 1  2.489113522416e-04  -2.398769044887e-04  -9.370505848631e-05 
8
Step 300
1 1  2.544232557281e-04  -1.275765560019e-04  -1.244494065068e-04 
2 1  3.444532453558e-04  -3.439847864427e-04  -2.659632861415e-04 
3 1 -1.956149324839e-04   1.570511273906e-04  -1.524576437644e-04 
4 1  1.287679150189e-04   4.077874255671e-05  -3.143296996582e-04 
5 1  2.575126947401e-04   2.060219448107e-04  -2.212428637996e-04 
6 1  6.873120209675e-06  -5.276579158904e-05   3.353698837642e-04 
7 1  8.945287968184e-05   1.121067303708e-04  -2.334588073243e-04 
8 1  3.011551636871e-04   3.006191760886e-05  -3.450255285271e-04 
8
Step 400
1 1  2.923621937162e-05   5.456937561582e-05  -3.213917691427e-05 
2 1  1.887765335942e-05   1.193865002377e-04  -3.875354818836e-05 
3 1 -9.598377836203e-05   1.119330663920e-04  -3.202338925279e-04 
4 1 -1.168553696836e-04  -7.024915235540e-05   1.681445610790e-05 
5 1 -1.089191803803e-05   5.742784386118e-06  -2.619812409505e-04 
6 1 -6.593297929174e-05  -1.171970811354e-04  -9.518182200750e-06 
7 1  3.281484906879e-04   6.047991376177e-05   1.461778701363e-05 
8 1  1.784829874550e-04   2.850974450045e-04  -1.241877243675e-04 
8
Step 500
1 1 -2.812797163605e-04   1.904866982351e-04   5.731798219334e-05 
2 1 -2.941792729550e-04   4.126109826950e-04   2.916904146570e-04 
3 1  1.398178081748e-04  -4.535937769510e-05  -1.060340727959e-04 
4 1 -2.367745258039e-04  -1.936411774533e-05   2.031057285276e-04 
5 1 -1.866208214515e-04  -1.034511465636e-04   5.404243794541e-05 
6 1 -5.294801258578e-05  -1.547793076532e-04  -2.937867579864e-04 
7 1  2.903238361043e-04  -7.550403790920e-05   2.381493363431e-04 
8 1 -4.210738889574e-05   2.190445249382e-04   2.209064827662e-04 
8
Step 600
1 1 -2.862204888101e-04   1.837934720929e-04   9.462242399983e-06 
2 1 -1.729716949818e-04   1.219226955028e-04   2.568408193494e-04 
3 1  2.073172817211e-04  -1.949901491339e-04   2.457442811380e-04 
4 1 -3.473579812689e-05   5.527092537225e-05   4.106088332976e-05 
5 1 -4.998541020741e-05  -5.134109134129e-05   3.487235413333e-04 
6 1  7.456933014092e-05  -8.499970316855e-05  -1.771822417215e-04 
7 1  1.521808113502e-05  -1.414079986883e-04   1.047055313079e-04 
8 1 -2.365622531578e-04  -3.575176946783e-05   2.142596360914e-04 
8
Step 700
1 1  6.114406747023e-06   6.621171525691e-05  -1.014955695323e-04 
2 1  1.696123344881e-04  -3.569218388573e-04  -1.013405899245e-04 
3 1  5.193381649813e-05  -1.773401116527e-04   3.392301075664e-04 
4 1  2.329606481273e-04  -8.131073267994e-06  -1.687697198057e-04 
5 1  1.781368817309e-04   5.173840081781e-05   2.368764304220e-04 
6 1  1.546828273050e-04   6.004409774209e-05   1.077635679611e-04 
7 1 -2.311956409708e-04  -4.386469955490e-05  -2.407435903889e-04 
8 1 -2.815277973353e-04  -1.658972158039e-04  -1.141244757151e-04 
8
Step 800
1 1  2.405687728327e-04  -6.563475982743e-05  -1.006088482486e-04 
2 1  2.365011670222e-04  -3.771256723115e-04  -3.145345098831e-04 
3 1 -1.147268177272e-04   5.302271387940e-06   9.532974588657e-05 
4 1  2.032336771865e-04  -1.262369007890e-04  -7.277411982955e-05 
5 1  1.745046227120e-04   6.326793574440e-05  -1.654486463721e-04 
6 1  6.679739879427e-05   1.462915581291e-04   1.455095853581e-04 
7 1 -2.371498065551e-04   1.048927193681e-04  -3.452108423669e-04 
8 1 -1.253043052296e-04  -9.938725972997e-05  -2.947795551717e-04 
8
Step 900
1 1  1.891968839762e-04  -1.382342867317e-04   4.748185315887e-05 
2 1 -4.623050723434e-05   8.905150858169e-05  -1.288420775033e-04 
3 1 -1.189887597946e-04   1.557900782013e-04  -1.899547495749e-04 
4 1 -8.863129493530e-05  -8.531491831054e-05   2.149815499524e-04 
5 1 -6.027462225229e-05  -3.758916934976e-05  -3.719670972464e-04 
6 1 -8.346029021090e-05   9.564253850071e-05  -6.896885554338e-05 
7 1 -4.347167628426e-05   1.175181215330e-04  -3.350308624281e-05 
8 1  1.365673562614e-04  -1.802097864041e-05  -6.435620322826e-05 
8
Step 1000
1 1 -3.156676596226e-06  -1.261830900175e-04   1.772801309334e-04 
2 1 -2.575834783769e-04   4.352674640790e-04   1.777044630743e-04 
3 1 -2.308056765571e-05   1.091034492718e-04  -2.297050944510e-04 
4 1 -2.468968281920e-04   1.227309364802e-04   2.780250764507e-04 
5 1 -2.327077953918e-04  -1.317071871564e-04  -1.371558271248e-04 
6 1 -1.103828063286e-04   1.280457913766e-06  -1.710338277420e-04 
7 1  1.311776348447e-04  -2.775942236923e-05   3.474232806749e-04 
8 1  2.901062671395e-04  -3.446037873979e-05   2.869350649469e-04 
8
Step 1100
1 1 -7.437464709775e-05  -4.022270085360e-05   1.305502577797e-04 
2 1 -8.963021079773e-05   2.322332152581e-04   1.930980250885e-04 
3 1  3.553972936847e-06  -4.920261474081e-05  -6.612869701729e-05 
4 1 -5.203851880226e-05   2.425913122616e-04   2.541259295591e-06 
5 1 -1.519612881475e-04  -8.808272179325e-05   2.411460891482e-04 
6 1 -3.102829380931e-06   6.899054349377e-06   1.098127525283e-05 
7 1  1.267593796953e-04  -1.510395939187e-04   3.523241022559e-04 
8 1  1.899775404570e-04  -4.481108798004e-05   3.038764304200e-04 
8
Step 1200
1 1  1.853610833858e-06   7.477698030586e-05  -4.074090445494e-05 
2 1  2.240568203463e-04  -2.374695124522e-04  -8.187339675457e-05 
3 1 -6.323392741668e-05  -9.974757921046e-05   5.720827365351e-05 
4 1  2.405224918055e-04   7.882223027059e-05  -2.451421596580e-04 
5 1  6.210376552044e-05   7.945639448638e-05   3.106821073032e-04 
6 1  7.582051868413e-05   1.016496862621e-04   2.054190494594e-04 
7 1 -1.370421188690e-05  -1.025709604845e-04  -1.718538639996e-05 
8 1 -8.135299937524e-05   5.446176126728e-05  -4.732002206304e-05 
8
Step 1300
1 1  4.595472221590e-05   1.371807861134e-04  -1.312789385625e-04 
2 1  2.398678379713e-04  -3.785677366972e-04  -2.560328771570e-04 
3 1 -7.777610895353e-05   1.800161521928e-05   2.513928151101e-05 
4 1  2.361642165669e-04  -2.158798161858e-04  -1.266775784404e-04 
5 1  1.676517818138e-04   1.953182434272e-04   2.577974180649e-05 
6 1  2.425214833132e-05   1.193792953274e-04   1.108228045865e-04 
7 1 -1.160744758008e-04   4.779240175557e-05  -3.183690948310e-04 
8 1 -2.627403281399e-04   1.574084578235e-04  -3.417489739154e-04 
8
Step 1400
1 1 -2.954864389736e-05   8.447465705560e-05  -4.075015015011e-05 
2 1 -6.969945233688e-05  -5.523571397610e-05  -9.073419678196e-05 
3 1  4.402606354718e-05   1.296111863370e-04  -4.618090362164e-05 
4 1 -7.514029980709e-05  -2.941894666322e-04   1.750949754764e-04 
5 1  1.001034186400e-04   1.110490288087e-04  -2.309317290638e-04 
6 1 -6.315072979332e-05  -4.356276045800e-05  -1.424988596732e-04 
7 1 -6.727666315657e-05   1.163856451367e-04  -2.237924839173e-04 
8 1 -1.758956621674e-04   9.128906196150e-05  -2.459559940784e-04 
8
Step 1500
1 1 -1.004188031479e-04  -4.936235082118e-05   9.756658595062e-05 
2 1 -2.839864561208e-04   2.887692916721e-04   1.869316250019e-04 
3 1  1.723113023565e-04   7.421907783770e-05  -1.774349349574e-05 
4 1 -3.112473737988e-04  -3.919471921676e-05   2.054720287368e-04 
5 1 -1.197828741852e-05  -1.043626566644e-04  -1.668385544166e-04 
6 1 -4.740253330229e-05  -2.529388252087e-04  -1.766917267189e-04 
7 1  7.343949066493e-05   5.180170110994e-05   9.654978112057e-05 
8 1  8.515829023601e-05  -1.056608082829e-04   8.611268274264e-05 
8
Step 1600
1 1 -4.587487039290e-05  -1.391484093327e-04   8.505895871078e-05 
2 1 -1.188721799437e-04   2.422816252212e-04   2.086951838972e-04 
3 1  1.229133134318e-04  -7.506297950176e-05   8.033612377916e-05 
4 1 -1.931965604645e-04   2.683565586124e-04  -1.156720775126e-04 
5 1 -5.419448677411e-05  -2.177433874633e-04   6.715582429677e-05 
6 1  4.937057004517e-05  -2.618788793105e-04   7.522598981078e-05 
7 1  1.477263376122e-04  -2.106901811598e-05   2.290204700740e-04 
8 1  2.496266213397e-04  -1.986228910685e-04   2.487701282425e-04 
8
Step 1700
1 1  5.379636114392e-05  -8.785086329616e-05  -9.130290931033e-05 
2 1  1.923979289664e-04  -7.741286580264e-05  -3.112241969380e-05 
3 1 -7.122091814592e-05  -1.251905721612e-04   1.203071541571e-04 
4 1  1.115296893927e-04   2.719198594379e-04  -3.658416999103e-04 
5 1 -4.414708776005e-05  -1.049796425157e-04   1.289262831780e-04 
6 1  7.846431620016e-05  -2.066371281923e-05   2.543713127481e-04 
7 1  6.990580289525e-05  -5.827502519481e-07   4.682593858752e-05 
8 1  1.552909391676e-04  -6.364751146280e-05   1.044618651653e-04 
8
Step 1800
1 1  4.067751106553e-05   6.059151423187e-05  -2.306163190054e-04 
2 1  2.294265561752e-04  -2.484873740494e-04  -1.819104553916e-04 
3 1 -1.696655775785e-04  -3.482021197868e-05   5.844651527845e-05 
4 1  2.297527011255e-04  -3.685241065090e-05  -1.891252125594e-04 
5 1 -4.021255139298e-05   9.550829625918e-05  -3.213690199077e-05 
6 1 -1.758928507901e-05   2.255742842521e-04   7.979284787938e-05 
7 1 -8.596211965273e-05   4.589942132412e-05  -1.658631593505e-04 
8 1 -9.153301017795e-05   1.417646419689e-04  -9.362620418042e-05 
8
Step 1900
1 1 -6.996883112168e-05   1.501496058942e-04  -1.483981836778e-04 
2 1 -4.501879687994e-05  -1.073130060448e-04  -2.616835554062e-05 
3 1 -3.648939019088e-05   4.472364129997e-05  -2.349527921868e-05 
4 1  5.905532813395e-05  -3.059878638520e-04   2.069742338196e-04 
5 1 -2.789594389179e-05   1.534127078956e-04  -1.350191149476e-04 
6 1 -1.166251184441e-04   2.041059782298e-04  -2.357493655877e-04 
7 1 -1.658342126355e-04   2.819818342522e-06  -1.178679277276e-04 
8 1 -2.390257010826e-04   1.780715113902e-04  -7.969478111519e-05 
8
Step 2000
1 1 -9.448026589930e-05   7.631610891439e-05   1.051973660864e-04 
2 1 -2.482881018199e-04   9.984404408979e-05   2.153156246698e-04 
3 1  1.573813937180e-04   7.114464374222e-06  -4.827521940200e-05 
4 1 -1.348253851199e-04  -2.344667886578e-04   3.258263711227e-04 
5 1  3.233366317523e-05   3.801995232810e-05   3.254187641134e-06 
6 1 -8.178127153035e-05  -4.314458263195e-05  -2.634792847234e-04 
7 1 -9.414110939033e-05  -9.697435879888e-05   1.055682289925e-04 
8 1 -1.586895695594e-04   2.858946840076e-05   7.804171161759e-05 
8
Step 2100
1 1  4.813220640860e-05  -9.411648982679e-05   2.870529963931e-04 
2 1 -1.073986338824e-04   1.137847735284e-04   1.793418154413e-04 
3 1  1.393423245248e-04  -5.120368157750e-05  -3.936180343191e-05 
4 1 -9.312153860258e-05   9.250917697859e-05   5.226154280722e-05 
5 1  9.388772913812e-05  -5.663418509838e-05   1.915162843781e-04 
6 1  5.465679953938e-05  -1.960395714126e-04   4.837422621303e-05 
7 1  6.067001201054e-05  -1.020609567131e-04   1.788322061469e-04 
8 1  4.231767533468e-05  -1.031313979677e-04   1.096252013686e-04 
8
Step 2200
1 1  1.905639269602e-04  -1.815126559277e-04   2.158183965088e-04 
2 1  1.812068602142e-04   3.961363602411e-07  -1.393161570360e-04 
3 1 -9.558598373615e-05   6.701553489302e-06  -5.336508136062e-05 
4 1  1.044652237930e-04   3.204933978035e-04  -2.097666978562e-04 
5 1  5.450095500275e-05   7.374222370618e-06   1.366128586015e-04 
6 1  1.400814959823e-04  -5.027789341593e-05   2.910298658127e-04 
7 1  1.642422281643e-04   2.846025386632e-05  -1.222881800618e-05 
8 1  1.642007885933e-04  -7.352330091474e-05  -5.932723225425e-05 
8
Step 2300
1 1  1.295221893280e-04  -8.011918082917e-05  -3.318716612327e-05 
2 1  2.286938687183e-04  -1.128408534487e-05  -3.524478780542e-04 
3 1 -2.447599839433e-04   1.241960609085e-04  -7.667486354208e-05 
4 1  1.704460671257e-04   2.233259790842e-04  -1.049209785563e-04 
5 1 -8.620649747261e-05   1.076267205470e-04  -1.193606292790e-04 
6 1  9.893446283970e-05   2.200250384759e-04   1.355580511909e-04 
7 1  1.373812577856e-04   1.331266070444e-04  -2.107431448727e-04 
8 1  1.274016490693e-04   3.133042321202e-05  -1.990124108820e-04 
8
Step 2400
1 1 -8.359383802264e-05   1.198293080689e-04  -2.082951356640e-04 
2 1 -2.589448811977e-05   9.960635654741e-05  -1.718466082930e-04 
3 1 -8.356290218075e-05   1.111883043090e-04  -4.438303972931e-05 
4 1  6.923994231122e-06  -7.613546576190e-05   1.822201051703e-04 
5 1 -1.697235814752e-04   2.806867485535e-05  -2.284584271768e-04 
6 1  2.663279845542e-06   2.628620840411e-04  -2.153548680043e-04 
7 1  1.485929453388e-06   5.943096110499e-05  -1.317637712718e-04 
8 1  2.485121746649e-05   4.296424181387e-05  -9.414182479382e-05 
8
Step 2500
1 1 -1.830927658363e-04   2.144226543632e-04  -1.534877311365e-04 
2 1 -2.393107690512e-04   1.073355492663e-04   2.010436837937e-04 
3 1  2.005962847394e-04  -6.148464448911e-05   4.175608853502e-05 
4 1 -1.627945866062e-04  -2.680278116674e-04   2.004093020657e-04 
5 1 -5.532699073782e-05  -1.960788535293e-04  -2.448738841527e-05 
6 1 -5.022619907651e-05  -5.953583844753e-06  -2.771155973006e-04 
7 1 -1.477731414231e-04  -1.005988656594e-04   1.357803903775e-04 
8 1 -1.562174998648e-05  -4.879484521118e-05   1.390638000408e-04 
8
Step 2600
1 1 -4.742899338191e-05   1.112882272027e-04   1.575943906321e-05 
2 1 -1.409184869818e-04  -9.740126710816e-05   3.166349291465e-04 
3 1  2.191756511016e-04  -1.664460745531e-04   9.156254582229e-05 
4 1 -1.125170284243e-04  -2.015450220960e-04  -8.594245085833e-05 
5 1  1.640347971882e-04  -2.646756488395e-04   2.014866733924e-04 
6 1 -6.358758135435e-05  -2.686568731231e-04   4.467182451272e-05 
7 1 -2.028813913313e-04  -1.133882702981e-04   2.244704239885e-04 
8 1  1.393947470391e-05  -9.785066411950e-05   1.863928927214e-04 
8
Step 2700
1 1  1.195936231379e-04  -7.056774610071e-05   7.045154404279e-05 
2 1  1.064880868100e-04  -2.910582702197e-04   6.786178443228e-05 
3 1 -7.733434192852e-05  -3.256848596226e-05   5.361040393882e-05 
4 1  6.542143188894e-05  -2.861699175299e-06  -2.354592894825e-04 
5 1  2.383168859310e-04  -2.436166094462e-05   1.073890498753e-04 
6 1 -9.962101950140e-05  -2.186553397538e-04   3.082431671837e-04 
7 1 -1.120294824317e-04   5.156585006220e-05  -8.490996415880e-07 
8 1  1.312756439897e-05  -3.359362709479e-05  -2.773347884105e-05 
8
Step 2800
1 1  7.533012972917e-05  -1.493845127722e-04  -3.389006538699e-05 
2 1  1.687788448020e-04  -1.974551544164e-04  -1.981417935142e-04 
3 1 -2.909601296288e-04   1.754149274838e-04  -5.321064152626e-06 
4 1  1.057811572614e-04   1.334213574043e-04  -1.313354977258e-05 
5 1  5.941399565919e-05   2.713033673197e-04  -1.828346357705e-04 
6 1 -1.310744371889e-04   3.885862706946e-05   1.548578804523e-04 
7 1  8.178907240756e-05   1.519706272417e-04  -2.381178640759e-04 
8 1 -6.917832395607e-05   4.181253147902e-05  -2.216163856419e-04 
8
Step 2900
1 1 -1.150497931686e-04  -8.170233410439e-05  -1.132233058145e-04 
2 1  1.136591072815e-05   1.188664112049e-04  -1.704374908417e-04 
3 1 -9.933358059232e-05   1.492623148532e-04   5.197454123731e-06 
4 1 -4.493555692396e-05   1.363679683090e-04   2.216394751876e-04 
5 1 -1.925028542919e-04   2.566265976589e-04  -2.287438913222e-04 
6 1 -5.694896210571e-05   1.440530535805e-04  -1.841220081869e-04 
7 1  2.395303045936e-04   2.071619069072e-05  -1.488208160078e-04 
8 1 -1.515548130256e-04   3.009038244008e-05  -1.243756153471e-04 
8
Step 3000
1 1 -1.756828912777e-04   1.807112997921e-05  -1.841752057703e-05 
2 1 -9.643359650435e-05   3.039418434481e-04   4.407886431088e-05 
3 1  2.819123840017e-04  -1.279865769659e-04   6.232939659839e-05 
4 1 -1.662666975728e-04   5.204816899052e-05   4.658317173110e-05 
5 1 -2.478560732961e-04  -5.099382960651e-05   8.193230048672e-05 
6 1  1.164498739619e-04  -1.874423424053e-05  -2.188427805700e-04 
7 1  2.142244611477e-04  -1.603937955186e-04   1.742253609084e-04 
8 1 -1.223480114862e-04  -1.682358887471e-06   1.660309177544e-04 
8
Step 3100
1 1 -1.624116853096e-05   3.839671987039e-05   1.465915681703e-04 
2 1 -8.617904977401e-06   1.640970593454e-04   1.338195732077e-04 
3 1  3.496200114315e-04  -3.083265965775e-04   5.457573973609e-05 
4 1 -8.166050528387e-05  -4.963589435560e-05  -3.367285977260e-04 
5 1 -5.916939187121e-05  -2.453299367722e-04   3.256682812064e-04 
6 1  2.135762170690e-04  -1.691385013312e-04   9.214510899465e-05 
7 1 -4.566632470017e-06  -9.752629079398e-05   3.092529412858e-04 
8 1  1.610999458164e-05   4.945857128749e-05   3.011548757303e-04 
8
Step 3200
1 1  1.469089445715e-04  -5.878604997632e-06   1.588855987182e-04 
2 1  9.749535290808e-05  -9.704895303247e-05   2.641163478327e-05 
3 1 -1.699095048186e-05  -1.267693715464e-04  -4.690190579932e-05 
4 1  1.032944257047e-04  -1.122415275066e-04  -3.352090871370e-04 
5 1  1.560325586189e-04  -7.491479550950e-05   1.283608521825e-04 
6 1  1.033395922623e-04  -4.639343284181e-05   2.772927930703e-04 
7 1 -2.362944394509e-04   1.662093607259e-04   6.263049590198e-05 
8 1  1.428275869730e-04   1.192916630214e-04   1.189778278294e-04 
8
Step 3300
1 1  1.115490470007e-04  -3.027803702400e-05  -1.039419597886e-05 
2 1  2.920273705201e-05  -1.632346187671e-04  -6.617137129268e-05 
3 1 -3.691134976701e-04   2.160521067232e-04  -1.304301432930e-04 
4 1  1.635533004274e-04  -8.115415476869e-05   1.473579189960e-04 
5 1  1.812680267412e-04   2.032517803287e-04  -2.683887772123e-04 
6 1 -9.526840477022e-05   2.019571277155e-04   3.561935388122e-05 
7 1 -2.568978015032e-04   2.567865379009e-04  -2.684874236269e-04 
8 1  1.495780122371e-04   6.147970497265e-05  -1.682533588398e-04 
8
Step 3400
1 1 -2.948553568351e-05  -3.941471436116e-06  -1.454334146998e-04 
2 1 -1.152061427844e-04  -6.666881119711e-06   2.307193870346e-06 
3 1 -2.733463701370e-04   2.988764764579e-04  -9.787325439989e-05 
4 1  6.384186607210e-05   4.495240850487e-05   4.946807323488e-04 
5 1  3.776373156158e-05   1.735862799491e-04  -3.118474056403e-04 
6 1 -1.399270934302e-04   2.285562041256e-04  -3.184314063895e-04 
7 1 -4.058377816852e-05  -1.403532876393e-05  -2.842246135468e-04 
8 1  5.286699101776e-05  -9.211904283855e-05  -2.542768932434e-04 
8
Step 3500
1 1 -5.864713004268e-05   3.386198629621e-05  -8.422456816190e-05 
2 1 -1.103379120950e-04   1.212837780805e-04   1.090418864065e-04 
3 1  1.189638235914e-04   4.869949937870e-05  -3.009100891101e-06 
4 1 -3.226585747166e-05   1.573319832080e-04   2.339431827396e-04 
5 1 -8.904107226222e-05  -1.456878446901e-04   7.894659135301e-05 
6 1  1.508465167377e-05  -1.720621361028e-05  -2.926212712647e-04 
7 1  1.977527175962e-04  -3.442546907956e-04   7.265221987822e-06 
8 1 -4.556808425339e-05  -1.347004759248e-04  -1.009600320545e-04 
8
Step 3600
1 1  4.043446012372e-05   4.412725741528e-05   7.004611394111e-05 
2 1  4.680836182721e-05   5.119985153594e-05   6.781709423553e-05 
3 1  3.048780099684e-04  -1.851271079412e-04   4.103946429044e-05 
4 1 -2.028634270395e-05   1.152358749410e-04  -2.919713855173e-04 
5 1 -8.416552792399e-05  -3.178959695973e-04   3.893691561617e-04 
6 1  1.444966621678e-04  -2.180503316030e-04   1.014121235394e-04 
7 1  2.246286074522e-04  -3.075756016159e-04   2.385479389676e-04 
8 1 -7.245241155446e-05   1.237501868795e-05   7.990829582232e-05 
8
Step 3700
1 1  8.537096342964e-05   3.569645476050e-05   9.271345827952e-05 
2 1  1.298513599101e-04  -1.100694547754e-04  -8.787065784457e-05 
3 1  9.216190453809e-05  -1.241039289181e-04   2.666237473988e-05 
4 1  2.462888036303e-05  -8.159086219047e-05  -3.795291011164e-04 
5 1 -4.096147925400e-06  -8.342426656368e-05   1.986860799218e-04 
6 1  4.934772523649e-05  -1.173146317495e-04   3.636302833359e-04 
7 1  3.223302708699e-05   9.058763744266e-05   1.611347542708e-04 
8 1 -3.748078260373e-05   1.457396318372e-04   1.077574444552e-04 
8
Step 3800
1 1 -1.056148821561e-05   3.333286918656e-05  -5.031348737549e-05 
2 1  1.147764457911e-05  -1.576517247195e-04  -1.537776793522e-04 
3 1 -1.892671626372e-04   7.394580814144e-05   3.620542941738e-05 
4 1 -3.231819819548e-06  -2.400313104658e-04   7.699308493814e-05 
5 1  3.441551877864e-05   2.757811479863e-04  -2.574293383392e-04 
6 1 -1.663106809363e-04   1.394862638215e-04   1.770753948274e-04 
7 1 -1.679889983470e-04   3.982414587978e-04  -7.759504438260e-05 
8 1  4.950449991543e-06   4.309512704659e-05   1.412745401308e-05 
8
Step 3900
1 1 -1.044696634950e-04   2.449142871956e-05  -1.421348820604e-04 
2 1 -1.485566224392e-04  -4.726600485787e-05  -4.099970233012e-05 
3 1 -1.669055904990e-04   7.710784036625e-05   8.407433561303e-05 
4 1 -7.450345669373e-05  -1.593441614353e-04   4.459840747185e-04 
5 1  1.499694558110e-06   2.994725045645e-04  -3.977163602029e-04 
6 1 -2.183718931481e-04   2.041311404885e-04  -1.908233397744e-04 
7 1 -1.823890241007e-04   2.650905611727e-04  -1.684187418905e-04 
8 1  1.795490382133e-05  -2.006461382725e-04  -4.883859297189e-05 
8
Step 4000
1 1 -4.203891063637e-05  -2.868276879439e-05  -5.009977343135e-06 
2 1 -1.151458290495e-04   8.956193679067e-05   1.057090037410e-04 
3 1  8.019621334588e-05  -1.166980008493e-04   7.261244257485e-05 
4 1 -8.259532569099e-05   1.275042733487e-04   2.179894307807e-04 
5 1 -3.391304828705e-05  -4.093018687963e-05  -5.073949813654e-05 
6 1 -8.142167735676e-06  -1.289006215379e-05  -2.675664006122e-04 
7 1 -2.627853126414e-05  -1.413500638658e-04  -3.415577778648e-05 
8 1  5.990185626569e-06  -2.551031421085e-04  -5.566054269507e-06 
8
Step 4100
1 1  9.526678090911e-05  -1.101689770483e-04   2.289499468155e-04 
2 1  1.004778560176e-04   1.244974813809e-04   9.748923313357e-05 
3 1  1.669341947499e-04  -1.622968111917e-04  -4.822855192063e-05 
4 1 -1.116313815851e-05   3.376317326744e-04  -3.076183923504e-04 
5 1 -5.341231440079e-06  -2.943152676532e-04   3.369570625763e-04 
6 1  2.391786997769e-04  -2.260276812552e-04   8.752142002327e-06 
7 1  1.298296311596e-04  -3.511885586420e-04   1.165389599544e-04 
8 1 -8.449089529184e-06   8.248670135367e-06   7.458257232399e-05 
8
Step 4200
1 1  8.790392249855e-05  -1.306298579554e-04   2.467449489593e-04 
2 1  2.396571458117e-04   6.378376909948e-05  -5.785979839358e-05 
3 1 -3.362833005469e-05   1.074684424459e-04  -1.603056336563e-04 
4 1  4.146792846682e-05   2.240329629055e-04  -4.352907793463e-04 
5 1  7.024841865713e-05  -1.264158053112e-04   2.884718249388e-04 
6 1  2.432423159257e-04  -1.556969323173e-04   2.408122406463e-04 
7 1  1.561181646265e-04  -1.520299346638e-04   9.280698276044e-05 
8 1 -1.423135779689e-05   3.019781385671e-04   8.002632300231e-05 
8
Step 4300
1 1 -9.347277455332e-05  -2.652962029084e-05  -4.830227914437e-05 
2 1  1.297756386508e-04  -9.162533632368e-07  -1.675911795969e-04 
3 1 -2.009576119359e-04   3.632824386079e-04  -1.064595354985e-04 
4 1  1.272192674802e-05  -1.346863320888e-04  -3.742513442306e-05 
5 1  1.091638403767e-04   2.142984078715e-04  -9.245455456464e-05 
6 1  6.389468771645e-06   9.418053725024e-05   1.322940742723e-04 
7 1  7.258998883110e-05   1.873499036540e-04  -3.687529119607e-05 
8 1 -1.406946407964e-05   2.741012548606e-04  -1.098897684229e-05 
8
Step 4400
1 1 -2.071273848284e-04   1.329224124638e-04  -3.646956130093e-04 
2 1 -9.932915017646e-05  -2.047111891983e-05  -8.654180662894e-05 
3 1 -4.087905201927e-05   1.827234023197e-04   8.505795669389e-05 
4 1 -3.156227236490e-05  -3.860670983080e-04   2.889948317829e-04 
5 1  4.629315904239e-05   2.240578256691e-04  -2.962555151062e-04 
6 1 -2.090384562758e-04   1.791145183435e-04  -1.291297671231e-04 
7 1 -2.868236076203e-05   2.769235751670e-04  -7.434392825855e-05 
8 1 -1.013635842292e-05  -3.276509175684e-05  -1.067688660764e-04 
8
Step 4500
1 1 -7.087038611186e-05   1.849147123308e-04  -3.399885088229e-04 
2 1 -1.958643492470e-04  -1.364543701132e-05   1.132538111911e-04 
3 1  2.494940157564e-04  -3.099446818295e-04   1.970999999270e-04 
4 1  5.048079341991e-06  -2.753695673747e-04   9.054755358690e-05 
5 1 -8.584166377563e-05  -1.464509079965e-04  -9.922890328018e-05 
6 1 -2.038847018909e-04  -1.122292590690e-05  -1.738542034000e-04 
7 1 -9.370397070569e-05   6.177629594842e-05   1.859132345786e-05 
8 1  6.190854819353e-07  -2.262083047751e-04  -1.015916050704e-04 
8
Step 4600
1 1  1.621048529103e-04   5.396138555571e-05   9.906839601240e-06 
2 1 -1.068868755005e-04  -1.015425292641e-05   2.384031998025e-04 
3 1  2.371875258373e-04  -5.198314805640e-04   8.957901034175e-05 
4 1  1.025581564592e-04   7.383134327144e-05  -2.832934140188e-04 
5 1 -1.774561201602e-04  -3.919485292335e-04   1.756872293367e-04 
6 1 -4.641887073173e-05  -2.002762943339e-04   1.743729928080e-05 
7 1 -1.184039612867e-04  -1.803737996244e-04   7.966220940637e-05 
8 1  2.092503169054e-05  -9.119141049515e-05   6.648318878826e-06 
8
Step 4700
1 1  1.956352362237e-04  -1.383854020744e-04   2.995600339227e-04 
2 1  9.182698176061e-06  -1.877784444484e-05   1.779414278021e-04 
3 1 -1.147054074726e-04  -1.385180660706e-04  -1.135765034454e-04 
4 1  1.316810874067e-04   3.073216440733e-04  -2.009449045295e-04 
5 1 -1.396115045849e-04  -1.341202043385e-04   1.551731144872e-04 
6 1  8.210943419968e-05  -1.120037927696e-04   1.242768057172e-04 
7 1 -9.214951240318e-05  -2.154803579593e-04  -4.202696597998e-06 
8 1  4.143409056645e-05   1.320689682206e-04   1.077051759743e-04 
8
Step 4800
1 1 -1.921977541130e-06  -1.860706749118e-04   2.382629821100e-04 
2 1  3.586020187216e-05  -3.851365728325e-05  -7.409413634885e-06 
3 1 -3.463455816025e-04   4.047578924814e-04  -1.788003376797e-04 
4 1  2.521448397536e-05   2.252528556959e-04   2.919410025203e-04 
5 1  2.453792775904e-06   3.347314857882e-04  -7.205191121649e-05 
6 1  1.145238764452e-04   1.440790849579e-04  -1.124038608314e-05 
7 1 -6.919341559131e-06  -8.027103264101e-05  -1.286971743514e-04 
8 1  4.156276507166e-05   1.109682966181e-04   9.220874474415e-05 
8
Step 4900
1 1 -1.526826012534e-04  -3.054343232016e-05  -3.002871510626e-05 
2 1  2.254273926533e-05  -6.555062270148e-05  -1.641240221240e-04 
3 1 -1.259451671119e-04   4.635058069623e-04  -5.587288157420e-05 
4 1 -1.243524389570e-04  -2.788535883496e-05   5.093835899299e-04 
5 1  1.256569390433e-04   4.241514134161e-04  -1.402110306402e-04 
6 1  1.022017489566e-04   2.369335962206e-04  -1.572713387754e-04 
7 1  8.544385745559e-05   5.950497755192e-05  -1.185484763919e-04 
8 1  8.825915401310e-06  -1.092614489239e-04  -2.457873075192e-05 
8
Step 5000
1 1 -5.455573886866e-05   1.664812571131e-04  -1.478223583751e-04 
2 1  4.221306821963e-05  -7.196833677590e-05  -1.822758759166e-04 
3 1  2.755486353063e-04  -4.677301978564e-06   8.464679690753e-05 
4 1 -1.742312105235e-04  -1.712082335740e-04   1.007388406480e-04 
5 1  1.371326469160e-04   2.110624132906e-05   4.120584987076e-05 
6 1  6.755421885862e-05   6.968766165410e-05  -5.677355787601e-05 
7 1  1.017285282431e-04   1.297102905159e-04   3.423152091915e-05 
8 1 -4.335715445345e-05  -1.920227274591e-04  -1.123130884466e-04 
8
Step 5100
1 1  1.467788180826e-04   1.906360188578e-04  -4.694484745266e-06 
2 1  5.259415815437e-05  -1.832559978086e-05  -6.404697242773e-05 
3 1  3.202274692578e-04  -4.002030160186e-04   9.000863219221e-05 
4 1 -7.641335349236e-05  -1.034884488925e-04  -4.236298667679e-04 
5 1  5.469122841013e-05  -3.677321161181e-04   1.695211777543e-04 
6 1 -2.322576339119e-05  -1.130409741735e-04   1.721440851006e-04 
7 1  2.973763727176e-05   1.410693750694e-04   1.588128724452e-04 
8 1 -7.322018118619e-05  -3.508427327724e-06  -6.811889604246e-05 
8
Step 5200
1 1  1.684720876039e-04   9.484294216856e-06   1.588248093552e-04 
2 1 -9.821243758854e-06   8.354696934720e-05   7.521113206510e-05 
3 1 -7.852933196159e-05  -2.547347987364e-04   2.860182639595e-06 
4 1  8.788372009836e-05   4.029609868432e-05  -3.713647523640e-04 
5 1 -2.459285756800e-05  -2.776350647900e-04   7.612862477324e-06 
6 1 -1.373535832743e-04  -8.362670956369e-05   1.955412934962e-04 
7 1 -3.441650941883e-05   8.443367407621e-05   1.203130708464e-04 
8 1 -4.848524771548e-05   1.953673564119e-04   5.680505243620e-05 
8
Step 5300
1 1 -2.622954898582e-05  -1.886093272103e-04   9.560835612433e-05 
2 1 -8.010407255522e-05   1.523437963118e-04   9.705136270864e-05 
3 1 -4.204037347882e-04   1.975563256800e-04  -3.441019705250e-05 
4 1  1.851587629033e-04   9.782013471349e-05   1.741537070111e-04 
5 1 -3.430938213259e-05   1.321872850798e-04  -2.475661238322e-04 
6 1 -1.476750444086e-04   6.112016701604e-05  -5.451577052026e-05 
7 1 -5.358949287085e-06  -4.793136659463e-05  -2.935814802162e-05 
8 1  1.869869186954e-05   1.197070078427e-04   1.090020002280e-04 
8
Step 5400
1 1 -1.971334014618e-04  -1.937017891189e-04  -1.238705787805e-04 
2 1 -3.161411932944e-05   1.119111188190e-04  -2.280032217795e-05 
3 1 -2.525754174663e-04   3.628484728594e-04   1.538211793831e-05 
4 1  1.301172195059e-04   4.723693967178e-05   4.507059350542e-04 
5 1  7.670582719041e-08   3.228372149712e-04  -2.135568425584e-04 
6 1  5.703679843793e-06   6.196822457466e-05  -2.588887497271e-04 