8
Step 0
1 1  0.000000000000e+00   0.000000000000e+00   0.000000000000e+00 
2 1  0.000000000000e+00   0.000000000000e+00   0.000000000000e+00 
3 1  0.000000000000e+00   0.000000000000e+00   0.000000000000e+00 
4 1  0.000000000000e+00   0.000000000000e+00   0.000000000000e+00 
5 1  0.000000000000e+00   0.000000000000e+00   0.000000000000e+00 
6 1  0.000000000000e+00   0.000000000000e+00   0.000000000000e+00 
7 1  0.000000000000e+00   0.000000000000e+00   0.000000000000e+00 
8 1  0.000000000000e+00   0.000000000000e+00   0.000000000000e+00 
8
Step 1000
1 1 -8.739550704502e-05  -5.647628868929e-05   6.680367926479e-05 
2 1 -1.420975769140e-04   1.526618548208e-04   1.572744067565e-04 
3 1  1.324187044808e-04  -1.520172500883e-06   8.129545265260e-05 
4 1 -6.300575932909e-05  -1.095091413923e-05   1.568072880312e-05 
5 1 -1.335169888944e-04  -5.542637004997e-05   5.903307267620e-05 
6 1 -7.787519061436e-05  -2.524706203343e-06  -6.967396548208e-05 
7 1 -1.084023738513e-04   2.214661854262e-05   1.096507016928e-04 
8 1 -2.350678362312e-05  -1.309581916384e-05   1.699560653956e-04 
8
Step 2000
1 1 -6.829713064847e-05  -8.420916436905e-05   3.755687179745e-05 
2 1 -8.667559316374e-05   5.911247079426e-05   1.517240201591e-04 
3 1  1.263001778184e-04   2.592990079178e-05   1.138973135413e-04 
4 1 -3.237352303315e-05   4.625210091642e-05  -6.487957970726e-05 
5 1 -4.328161483669e-05   4.924294491769e-05   7.368490129301e-05 
6 1 -6.320855766809e-05  -3.335740505832e-05  -1.343222955962e-05 
7 1 -1.026888187534e-04   2.137011262938e-05   5.648610299594e-05 
8 1  6.192101938381e-05  -7.183928308872e-05   1.262485242404e-04 
8
Step 3000
1 1 -1.817747421402e-05  -8.376668572020e-05  -2.809957257259e-06 
2 1  8.469920039370e-06  -5.194018518681e-05   8.555941367312e-05 
3 1  7.203188337060e-05   4.340769253986e-05   9.623134134249e-05 
4 1  9.684912997075e-06   7.206619848563e-05  -1.302293554201e-04 
5 1  5.091970691965e-05   1.186635657657e-04   4.877581736851e-05 
6 1 -3.092552820342e-05  -5.236399532706e-05   5.779509305214e-05 
7 1 -5.697560230433e-05   2.416643605707e-05  -1.760360447966e-05 
8 1  1.216203363425e-04  -8.238745264013e-05   3.031710558537e-05 
8
Step 4000
1 1  2.957648076442e-05  -5.300123305830e-05  -3.156972537486e-05 
2 1  8.801506750724e-05  -1.169725729190e-04  -1.956395142763e-07 
3 1  4.557861165473e-06   4.605042567236e-05   4.253565956049e-05 
4 1  3.644940122251e-05   6.301681796336e-05  -1.512140936854e-04 
5 1  1.032248525353e-04   1.289838312958e-04   8.291538174007e-07 
6 1  1.069732124854e-06  -5.683196674195e-05   1.014229626120e-04 
7 1  1.290557271854e-05   2.960716619102e-05  -7.712583296087e-05 
8 1  1.370060148423e-04  -3.952491949040e-05  -6.804040754014e-05 
8
Step 5000
1 1  4.982651652214e-05  -3.157910824102e-06  -3.782349089987e-05 
2 1  1.141800720501e-04  -1.087395826481e-04  -6.578856048017e-05 
3 1 -4.457145888021e-05   3.400812377944e-05  -2.049109774012e-05 
4 1  3.590301559088e-05   3.151206195751e-05  -1.191667313918e-04 
5 1  9.697029691107e-05   8.626197590263e-05  -4.407070771902e-05 
6 1  1.977358057896e-05  -4.837103339723e-05   9.535434645469e-05 
7 1  7.964339207064e-05   3.155797047976e-05  -9.855876033881e-05 
8 1  1.082703625616e-04   3.093520468226e-05  -1.263469874324e-04 
8
Step 6000
1 1  3.542722640622e-05   4.800433362142e-05  -2.388571562532e-05 
2 1  7.870541432305e-05  -3.928140183908e-05  -8.826441021968e-05 
3 1 -5.853629720951e-05   1.014683165139e-05  -6.736134347228e-05 
4 1  1.278687942225e-05  -5.234135035645e-06  -4.495813525046e-05 
5 1  4.495143904177e-05   1.547293393929e-05  -6.429320996802e-05 
6 1  2.166728259543e-05  -3.033587530293e-05   4.185101535930e-05 
7 1  1.180843988661e-04   2.241056608624e-05  -7.743289206636e-05 
8 1  4.791761835797e-05   9.172555166446e-05  -1.240084350101e-04 
8
Step 7000
1 1 -2.620241813696e-06   8.198278713996e-05  -2.046801824902e-06 
2 1  1.760622799483e-06   5.007803907180e-05  -6.491078734875e-05 
3 1 -3.731151877542e-05  -1.976246785857e-05  -8.091107841507e-05 
4 1 -1.610645302353e-05  -3.189536359680e-05   4.524561211398e-05 
5 1 -2.060013282712e-05  -5.071499180288e-05  -4.919399007996e-05 
6 1  1.126738192478e-05  -6.866189512700e-06  -3.587555123564e-05 
7 1  1.116071199410e-04  -2.156872986214e-06  -2.613263236123e-05 
8 1 -2.441510314887e-05   1.091473824254e-04  -6.579504812643e-05 
8
Step 8000
1 1 -4.053517342081e-05   8.659534536166e-05   1.273260577456e-05 
2 1 -7.611080719840e-05   1.081616003324e-04  -1.322378592902e-05 
3 1  2.778934728550e-06  -4.713928320850e-05  -5.902000900338e-05 
4 1 -3.075177877892e-05  -4.057250986377e-05   1.178082024305e-04 
5 1 -6.395970481154e-05  -8.389016062281e-05  -5.447998923249e-06 
6 1 -1.652871965357e-06   1.794302080324e-05  -1.021761784003e-04 
7 1  6.039764449194e-05  -3.708554010691e-05   3.030641830893e-05 
8 1 -8.507312693707e-05   6.978884488238e-05   1.931513318574e-05 
8
Step 9000
1 1 -5.498287527610e-05   6.123122091429e-05   1.275367951677e-05 
2 1 -1.147141944685e-04   1.021609436973e-04   3.869028775245e-05 
3 1  3.721427646114e-05  -6.268166698556e-05  -1.455589243817e-05 
4 1 -2.042691862793e-05  -3.309687745656e-05   1.467898663034e-04 
5 1 -6.410337289701e-05  -7.363661720343e-05   4.500596311160e-05 
6 1 -6.544469255338e-06   4.063095009469e-05  -1.270090624245e-04 
7 1 -1.629563430492e-05  -6.817018948425e-05   6.618179062977e-05 
8 1 -1.154916629692e-04  -1.008689737521e-05   9.218293142113e-05 
8
Step 10000
1 1 -3.544864772610e-05   1.577433313349e-05   1.360689505727e-06 
2 1 -9.391863663542e-05   3.395235927103e-05   6.627301451678e-05 
3 1  4.580193347797e-05  -5.820576484239e-05   3.254182476108e-05 
4 1  9.431768016214e-06  -1.686252971139e-05   1.234871067846e-04 
5 1 -2.423195949079e-05  -2.972644911055e-05   7.702220888597e-05 
6 1  2.196362173816e-06   5.688840123418e-05  -9.901931921496e-05 
7 1 -8.839490724453e-05  -7.854815650980e-05   6.761458861688e-05 
8 1 -1.076671975023e-04  -9.387665312522e-05   1.207410185008e-04 
8
Step 11000
1 1  1.036214178778e-05  -3.328358356622e-05  -1.052855097647e-05 
2 1 -2.180901704795e-05  -6.150724104990e-05   5.758833871107e-05 
3 1  2.186621806163e-05  -2.971817434492e-05   6.322253810335e-05 
4 1  4.047736189726e-05   8.488467927864e-07   5.771334703385e-05 
5 1  3.110108213075e-05   2.499497044463e-05   7.317843687686e-05 
6 1  2.127089556993e-05   6.090907574534e-05  -2.829799627479e-05 
7 1 -1.260591357038e-04  -5.666395427967e-05   3.712375204907e-05 
8 1 -6.437221952490e-05  -1.416868988709e-04   9.167318837623e-05 
8
Step 12000
1 1  5.875832513634e-05  -6.806456426789e-05  -1.107100703290e-05 
2 1  6.734915902092e-05  -1.315899392067e-04   1.738027561929e-05 
3 1 -2.390919676647e-05   1.738282369965e-05   6.571057616668e-05 
4 1  5.137890198877e-05   1.526224703488e-05  -2.432367739309e-05 
5 1  6.877595384552e-05   6.315119879530e-05   3.145726183817e-05 
6 1  3.961857487458e-05   4.798341575321e-05   5.604916116659e-05 
7 1 -1.113465463151e-04  -4.317120383503e-06  -8.245554904048e-06 
8 1  1.016772654980e-07  -1.270195217079e-04   1.775096352075e-05 
8
Step 13000
1 1  8.212818431557e-05  -7.672916759829e-05   4.406704245448e-06 
2 1  1.286497359433e-04  -1.340387472842e-04  -3.440408753204e-05 
3 1 -6.759664997370e-05   6.685657185164e-05   4.096045737491e-05 
4 1  3.046587752825e-05   2.453405497300e-05  -8.926304988017e-05 
5 1  6.501907575881e-05   6.551781819806e-05  -3.056636246450e-05 
6 1  4.460524982083e-05   1.853880199781e-05   1.171072485486e-04 
7 1 -4.910389301362e-05   5.960665595743e-05  -4.436065324712e-05 
8 1  6.204629728072e-05  -5.304647338432e-05  -6.605729632357e-05 
8
Step 14000
1 1  6.497018008166e-05  -5.942363336673e-05   2.890165690326e-05 
2 1  1.304286601368e-04  -6.168899437943e-05  -7.278826294861e-05 
3 1 -8.433331126486e-05   9.851467615787e-05   2.161910177460e-06 
4 1 -1.604937322319e-05   2.947986507292e-05  -1.135711197800e-04 
5 1  1.870176320789e-05   3.175855218707e-05  -8.387658153283e-05 
6 1  2.838501134762e-05  -2.051181167940e-05   1.295842003118e-04 
7 1  3.310760437423e-05   1.070934733814e-04  -5.234944516279e-05 
8 1  9.865685719507e-05   4.616389697499e-05  -1.201042705937e-04 
8
Step 15000
1 1  1.205153861441e-05  -2.724708105925e-05   4.633686019440e-05 
2 1  6.939150208260e-05   5.304958052804e-05  -7.979786954760e-05 
3 1 -6.033578038546e-05   9.650081696208e-05  -3.264822521848e-05 
4 1 -6.542754947996e-05   3.073895080853e-05  -9.488284596578e-05 
5 1 -4.764652044992e-05  -2.070913146045e-05  -1.035511890228e-04 
6 1 -8.267234518846e-06  -5.764656689051e-05   9.154484159951e-05 
7 1  9.812218107906e-05   1.151328123070e-04  -2.892887249818e-05 
8 1  9.883164724403e-05   1.250012006517e-04  -1.179512274877e-04 
8
Step 16000
1 1 -5.263315361182e-05   4.668710543326e-06   3.999934865892e-05 
2 1 -2.827835258504e-05   1.512804264337e-04  -5.082565779656e-05 
3 1 -2.402397636356e-07   5.476711831941e-05  -4.954688429602e-05 
4 1 -8.895527874447e-05   2.533064862816e-05  -4.996413034000e-05 
5 1 -9.788619830827e-05  -6.460774259335e-05  -7.848170764081e-05 
6 1 -5.327680851434e-05  -8.026006495806e-05   2.196485632402e-05 
7 1  1.158652549166e-04   7.647144629477e-05   1.200032665942e-05 
8 1  6.664076475488e-05   1.481019203802e-04  -5.760066861967e-05 
8
Step 17000
1 1 -9.612112498962e-05   2.500056984984e-05   4.289638378696e-06 
2 1 -1.170634283867e-04   1.770714505818e-04   3.415875504931e-06 
3 1  7.159931729641e-05  -1.667041456343e-05  -4.404741172071e-05 
4 1 -6.854143400388e-05   9.318361201150e-06  -3.539786559792e-06 
5 1 -1.011932749217e-04  -7.518794224964e-05  -1.664777690078e-05 
6 1 -8.675801485256e-05  -7.888340396274e-05  -4.848679100200e-05 
7 1  7.742853042692e-05   3.930508136938e-06   4.749588652775e-05 
8 1  1.677894686596e-05   1.046604243273e-04   3.506622272768e-05 
8
Step 18000
1 1 -9.401122533912e-05   3.006977380792e-05  -4.845829597282e-05 
2 1 -1.538624108581e-04   1.100818446734e-04   6.047654009175e-05 
3 1  1.209510518838e-04  -9.083558789057e-05  -2.183528907271e-05 
4 1 -8.874805363284e-06  -1.640649056222e-05   2.353096997465e-05 
5 1 -5.018437091496e-05  -4.432161935294e-05   5.540247329177e-05 
6 1 -9.150980360456e-05  -5.183498214562e-05  -8.974136937217e-05 
7 1  7.783451718703e-07  -7.264596521014e-05   5.771154157351e-05 
8 1 -3.114603667247e-05   1.550320481146e-05   1.164447692390e-04 
8
Step 19000
1 1 -4.589575892844e-05   2.515345061699e-05  -9.152624221420e-05 
2 1 -1.212892720896e-04  -1.997788721689e-05   9.584969391087e-05 
3 1  1.213916415402e-04  -1.350437792190e-04   3.813251521522e-06 
4 1  6.266848926203e-05  -4.401163934230e-05   2.452789547667e-05 
5 1  3.319289465862e-05   1.348391236187e-05   1.046082832478e-04 
6 1 -6.272095839500e-05  -7.714213942481e-06  -8.704550735337e-05 
7 1 -7.556586590763e-05  -1.197524409440e-04   3.623060057526e-05 
8 1 -5.999894268936e-05  -7.406903785989e-05   1.467104070252e-04 
8
Step 20000
1 1  2.284303556561e-05   2.168559159338e-05  -9.734103507612e-05 
2 1 -3.731344962639e-05  -1.463403681568e-04   9.521202835667e-05 
3 1  6.926478535254e-05  -1.271720497401e-04   1.999922871787e-05 
4 1  1.102555542352e-04  -6.123865758842e-05   1.198381967037e-05 
5 1  1.082084232979e-04   6.801205380237e-05   1.093261822630e-04 
6 1 -1.032773152084e-05   3.886288870540e-05  -4.967379618795e-05 
7 1 -1.119063836964e-04  -1.182625023569e-04  -6.439291775855e-06 
8 1 -6.459409262920e-05  -1.190760360419e-04   1.103062342652e-04 
8
Step 21000
1 1  7.699060932227e-05   2.655848083881e-05  -5.460223240325e-05 
2 1  5.702070143789e-05  -2.017205160076e-04   6.092199250619e-05 
3 1 -1.423471017502e-05  -6.637038450452e-05   2.267446851377e-05 
4 1  1.094259864388e-04  -5.810897149887e-05   7.547630147423e-06 
5 1  1.365951254728e-04   8.998695051266e-05   6.918965494199e-05 
6 1  4.752644914239e-05   7.342974060669e-05  -3.385685424163e-06 
7 1 -8.931632766388e-05  -7.077539350655e-05  -4.935654807631e-05 
8 1 -5.082798276541e-05  -9.979788850109e-05   2.304614634915e-05 
8
Step 22000
1 1  9.031292455490e-05   3.541332325278e-05   2.311897230792e-05 
2 1  1.184554534269e-04  -1.554680742299e-04   8.843948624736e-06 
3 1 -9.218312908595e-05   2.456646503165e-05   1.576242792606e-05 
4 1  5.859371819325e-05  -3.224238240736e-05   2.400124150409e-05 
5 1  1.020091732865e-04   6.711650532110e-05   4.004722410064e-06 
6 1  9.189440778915e-05   8.416584149690e-05   2.586294197005e-05 
7 1 -1.800800636939e-05   1.636827611253e-06  -7.149588412040e-05 
8 1 -2.737490501137e-05  -2.979678311209e-05  -7.579569362875e-05 
8
Step 23000
1 1  5.805041965470e-05   3.760515601248e-05   1.006079031423e-04 
2 1  1.216168516368e-04  -3.194432493906e-05  -3.980455394545e-05 
3 1 -1.281146129309e-04   1.053829450780e-04   5.564770650689e-06 
4 1 -1.843261132348e-05   8.643321664161e-06   5.647545600179e-05 
5 1  2.052707072988e-05   1.118812511250e-05  -5.454864458297e-05 
6 1  1.083635759638e-04   6.685539459437e-05   2.496862945751e-05 
7 1  6.681704786409e-05   6.577519232576e-05  -6.175266574050e-05 
8 1 -3.022721493266e-06   5.017133905063e-05  -1.396289840217e-04 
8
Step 24000
1 1  1.627049567630e-06   2.433394530154e-05   1.383991704197e-04 
2 1  7.485448374524e-05   1.019022388819e-04  -6.946017325145e-05 
3 1 -1.077224969476e-04   1.395519899457e-04  -1.906735150999e-06 
4 1 -8.337426150420e-05   4.909627190443e-05   8.490499729117e-05 
5 1 -6.634757436064e-05  -4.795506578861e-05  -8.063244315416e-05 
6 1  9.413007671858e-05   2.976041853147e-05   1.253859402509e-06 
7 1  1.220549222936e-04   9.311811705198e-05  -2.624744195830e-05 
8 1  1.475473219440e-05   9.295379223219e-05  -1.412313077692e-04 
8
Step 25000
1 1 -4.597193853670e-05  -5.086727866922e-06   1.158629668361e-04 
2 1  1.136905928329e-05   1.788150798259e-04  -7.700623702546e-05 
3 1 -4.606505125595e-05   1.147603709766e-04  -3.783840057856e-06 
4 1 -1.065102527248e-04   7.349333586528e-05   8.555459911074e-05 
5 1 -1.175939487574e-04  -8.072905546775e-05  -6.938396611344e-05 
6 1  5.679455484167e-05  -1.134078850969e-05  -2.311806808554e-05 
7 1  1.207001174958e-04   7.668146206095e-05   1.619482043740e-05 
8 1  2.351220523790e-05   7.478091789397e-05  -8.705629303048e-05 
8
Step 26000
1 1 -6.124788627648e-05  -3.995895292586e-05   4.134313770700e-05 
2 1 -3.664818753249e-05   1.643889552822e-04  -6.766621241332e-05 
3 1  2.489559536284e-05   4.486422041935e-05  -1.343293820675e-06 
4 1 -8.042362629604e-05   7.211890797027e-05   4.656855043739e-05 
5 1 -1.132018954342e-04  -7.307277252670e-05  -3.446466102928e-05 
6 1  8.110078211836e-06  -4.110026213818e-05  -2.785834272725e-05 
7 1  6.347444018320e-05   3.086380421858e-05   4.605573041143e-05 
8 1  2.487892584825e-05   8.677715316112e-06  -5.878157109398e-06 
8
Step 27000
1 1 -4.040377207919e-05  -6.240965214105e-05  -5.086795141083e-05 
2 1 -5.292033492482e-05   7.163545649798e-05  -4.824413527811e-05 
3 1  7.181290734155e-05  -3.688466273872e-05   2.497978570845e-06 
4 1 -2.155521901153e-05   4.419855098606e-05  -2.059412694801e-05 
5 1 -6.081043766443e-05  -3.177203610837e-05   2.463929491386e-06 
6 1 -3.777367154436e-05  -4.983534979181e-05  -7.734740819968e-06 
7 1 -2.267104684116e-05  -1.796987029709e-05   5.212028590415e-05 
8 1  2.111976062651e-05  -6.499007065039e-05   6.620982670894e-05 
8
Step 28000
1 1  6.173795763599e-07  -6.001565207384e-05  -1.173424490330e-04 
2 1 -4.138042250208e-05  -4.613720920095e-05  -2.346977116117e-05 
3 1  7.611365152032e-05  -9.369793178754e-05   5.580390812081e-06 
4 1  3.808020044741e-05   4.705232438617e-08  -8.583513050765e-05 
5 1  9.110435659022e-06   1.997208335438e-05   2.355171713385e-05 
6 1 -6.831712770467e-05  -3.850553983237e-05   2.560420928724e-05 
7 1 -9.801979765274e-05  -4.500040670043e-05   3.700250358949e-05 
8 1  1.475251405437e-05  -1.035806196584e-04   1.017646415509e-04 
8
Step 29000
1 1  3.759012051507e-05  -3.342412510627e-05  -1.296817381333e-04 
2 1 -1.922936924557e-05  -1.314865827598e-04   6.015510646791e-06 
3 1  4.259037446135e-05  -1.054561278124e-04   6.038995000768e-06 
4 1  6.999579487338e-05  -4.354567877969e-05  -1.200243519301e-04 
5 1  6.376166427276e-05   5.749993286403e-05   2.428299377216e-05 
6 1 -7.914199586243e-05  -1.713314562325e-05   5.409436286204e-05 
7 1 -1.319791701676e-04  -4.140391202192e-05   1.349626166640e-05 
8 1  7.222966254706e-06  -8.715265094562e-05   9.488369434668e-05 
8
Step 30000
1 1  5.127001578463e-05   6.582251863618e-06  -8.317446830884e-05 
2 1 -3.098112484004e-06  -1.486003167762e-04   3.978923494831e-05 
3 1 -8.454578874815e-06  -7.120084088487e-05   2.559593084229e-06 
4 1  6.242574132802e-05  -6.977202428203e-05  -1.070242612877e-04 
5 1  8.340703536308e-05   6.464599638210e-05   1.211768668639e-05 
6 1 -7.128403411499e-05   3.360957223527e-06   6.284600278763e-05 
7 1 -1.119712176867e-04  -1.517020114948e-05  -6.032751914042e-06 
8 1 -1.946539388780e-06  -2.229591765505e-05   5.578666131475e-05 
8
Step 31000
1 1  3.419265833353e-05   4.258924421838e-05   3.592615104854e-06 
2 1 -7.653026741685e-07  -9.039988666980e-05   7.181265247763e-05 
3 1 -5.028249872312e-05  -5.419340645192e-06  -3.663903261370e-06 
4 1  2.241183573896e-05  -6.703960259309e-05  -4.834309360731e-05 
5 1  6.413944489827e-05   3.816503118738e-05  -3.646468867620e-07 
6 1 -4.655637323695e-05   1.503239854882e-05   4.406899452297e-05 
7 1 -4.430747157971e-05   1.647535743779e-05  -1.510293345677e-05 
8 1 -1.204821380722e-05   6.263515436985e-05   1.665640984920e-06 
8
Step 32000
1 1 -5.035414699647e-06   5.689456121269e-05   9.191047801544e-05 
2 1 -8.366914281672e-06   1.508155339517e-05   8.977340424886e-05 
3 1 -6.020888705751e-05   6.372553968924e-05  -9.727445616033e-06 
4 1 -2.740032621417e-05  -3.496221979264e-05   3.292363010677e-05 
5 1  1.870045142338e-05  -8.984291047126e-06  -2.622057370547e-06 
6 1 -9.542804805274e-06   1.485588621109e-05   2.457228477698e-06 
7 1  4.498351796453e-05   3.496512314292e-05  -1.419530389696e-05 
8 1 -1.957775237025e-05   1.264322205955e-04  -4.736557846453e-05 
8
Step 33000
1 1 -4.498396922012e-05   4.243179722657e-05   1.396130082000e-04 
2 1 -1.355617163035e-05   1.141886117769e-04   8.144058699887e-05 
3 1 -3.209069109943e-05   1.052676838745e-04  -1.305945359978e-05 
4 1 -5.941876034765e-05   1.304194068200e-05   1.005402500411e-04 
5 1 -2.891046575360e-05  -5.237357132447e-05   7.875072506893e-06 
6 1  3.137052976673e-05   6.477259144304e-06  -4.525238885985e-05 
7 1  1.196008977108e-04   2.966407442955e-05  -9.922876360024e-06 
8 1 -2.061071977057e-05   1.360213965190e-04  -7.531152209558e-05 
8
Step 34000
1 1 -6.377968753845e-05   8.015936075956e-06   1.237811043099e-04 
2 1 -4.183428159284e-06   1.573431761081e-04   4.129471938103e-05 
3 1  1.957264619105e-05   1.008814828802e-04  -1.219844759101e-05 
4 1 -5.636811198066e-05   5.609615748457e-05   1.253433189756e-04 
5 1 -5.687998685659e-05  -6.932643953625e-05   2.356560301106e-05 
6 1  6.751728202689e-05  -1.822430178174e-06  -7.968731632024e-05 
7 1  1.509836560953e-04   3.578362618970e-06  -1.028080552193e-05 
8 1 -1.322152674005e-05   8.421513360069e-05  -7.725099617996e-05 
8
Step 35000
1 1 -5.017299090540e-05  -2.687895183769e-05   4.973741419254e-05 
2 1  2.266039699367e-05   1.221494750461e-04  -2.548417910386e-05 
3 1  6.691568374308e-05   5.066322083176e-05  -7.110732484503e-06 
4 1 -1.974729381441e-05   7.503840706537e-05   9.777502075746e-05 
5 1 -5.577950044752e-05  -4.974824395488e-05   3.076801881336e-05 
6 1  9.024577579806e-05  -2.579701817437e-06  -8.652644458790e-05 
7 1  1.271644849350e-04  -2.900999071275e-05  -1.786317204501e-05 
8 1  1.584472571715e-06  -9.843525213126e-06  -5.672877946513e-05 
8
Step 36000
1 1 -8.655288004392e-06  -4.161847029107e-05  -5.106511978204e-05 
2 1  5.582911151408e-05   2.242306582865e-05  -9.820402441109e-05 
3 1  8.129386667204e-05  -2.677006217498e-05  -3.895138175375e-08 
4 1  3.118350904137e-05   6.006729842797e-05   3.032986086774e-05 
5 1 -3.046636711928e-05  -1.357663939311e-06   1.886571732534e-05 
6 1  8.940746158203e-05   6.311595029301e-06  -6.035554133870e-05 
7 1  5.487033897312e-05  -5.013497146873e-05  -2.740330036677e-05 
8 1  1.837833287961e-05  -1.074772502760e-04  -2.083547333776e-05 
8
Step 37000
1 1  4.012813559398e-05  -2.546631320128e-05  -1.305462430470e-04 
2 1  7.431764579852e-05  -9.264952608760e-05  -1.442757170216e-04 
3 1  4.951976527925e-05  -9.730090745720e-05   5.634069235842e-06 
4 1  6.850676275895e-05   1.724006716318e-05  -4.466361689007e-05 
5 1  3.079835775106e-06   5.123203074410e-05  -1.083523154630e-05 
6 1  6.028048272989e-05   2.027961043663e-05  -1.037539957677e-05 
7 1 -3.829002268610e-05  -4.725296704816e-05  -3.000198192994e-05 
8 1  2.823347140913e-05  -1.634524737774e-04   1.919907395266e-05 
8
Step 38000
1 1  7.041258320300e-05   1.408641789540e-05  -1.496183885798e-04 
2 1  6.059957469180e-05  -1.635297683366e-04  -1.388111089070e-04 
3 1 -1.607206005259e-05  -1.280553565386e-04   8.658735172623e-06 
4 1  7.148957111102e-05  -3.300870913675e-05  -9.060432191450e-05 
5 1  2.671758741936e-05   7.971416492851e-05  -4.509923145715e-05 
6 1  1.050502874774e-05   3.049904738379e-05   4.192136412904e-05 
7 1 -1.155121595336e-04  -2.010356947120e-05  -1.912539568133e-05 
8 1  2.440582052038e-05  -1.518888680169e-04   5.102342095430e-05 
8
Step 39000
1 1  6.703760831274e-05   5.365572237352e-05  -1.002759257765e-04 
2 1  1.152364772822e-05  -1.546812028344e-04  -7.881569994401e-05 
3 1 -8.407292937158e-05  -1.049441880264e-04   1.113314551262e-05 
4 1  3.775663854447e-05  -6.720311168558e-05  -8.794519731709e-05 
5 1  3.115338824897e-05   6.856229588163e-05  -6.630752263913e-05 
6 1 -4.395077501198e-05   2.832336197405e-05   7.542265603199e-05 
7 1 -1.505908679465e-04   2.011541736588e-05   6.156226537441e-06 
8 1  6.808272480107e-06  -8.030055150156e-05   6.687734770812e-05 
8
Step 40000
1 1  3.272915674242e-05   6.532176636307e-05  -7.226308296887e-06 
2 1 -5.656100067082e-05  -7.119258536219e-05   1.504277321889e-05 
3 1 -1.185689359645e-04  -3.775976061940e-05   1.571376153640e-05 
4 1 -1.673386821608e-05  -6.926168549202e-05  -4.263884187711e-05 
5 1  1.994642697446e-05   2.270201171128e-05  -6.095086361381e-05 
6 1 -8.445019786623e-05   9.998194870093e-06   7.859008347481e-05 
7 1 -1.346889252987e-04   5.553782743034e-05   3.904449613558e-05 
8 1 -1.664368457342e-05   1.763247623831e-05   6.359024224185e-05 
8
Step 41000
1 1 -1.319885919299e-05   3.406203055916e-05   8.368366289148e-05 
2 1 -1.110214574658e-04   4.321815368728e-05   1.031850970509e-04 
3 1 -9.845118086421e-05   4.304461217356e-05   2.139766413711e-05 
4 1 -6.498026132446e-05  -3.786380402182e-05   1.764601110111e-05 
5 1  5.219381956148e-06  -3.435847668562e-05  -2.798683457875e-05 
6 1 -9.586696585294e-05  -1.896651016460e-05   5.398160586321e-05 
7 1 -7.707347171701e-05   6.847034871462e-05   6.503057671000e-05 
8 1 -3.296808733804e-05   9.723361936945e-05   4.281394459647e-05 
8
Step 42000
1 1 -4.573310554774e-05  -2.994192824434e-05   1.290634135032e-04 
2 1 -1.216240682043e-04   1.308362710466e-04   1.465495891045e-04 
3 1 -3.165659712402e-05   1.018722520235e-04   2.296721198287e-05 
4 1 -8.307840822975e-05   1.197329975543e-05   5.846254893990e-05 
5 1 -1.545548357172e-06  -7.390843105077e-05   1.945988464001e-05 
6 1 -7.527771751140e-05  -4.547819546965e-05   1.685534110622e-05 
7 1 -1.997101440660e-06   5.130736697627e-05   6.911751358009e-05 
8 1 -3.244563961293e-05   1.251183009128e-04   1.218577642418e-05 
8
Step 43000
1 1 -4.930993786760e-05  -9.616655777711e-05   1.101240532146e-04 
2 1 -7.854808171672e-05   1.522283914307e-04   1.281715452118e-04 
3 1  5.118679929256e-05   1.169397417255e-04   1.422240887036e-05 
4 1 -6.246210342321e-05   5.676922329437e-05   5.693726652541e-05 
5 1  2.942901833386e-06  -7.785389894555e-05   6.213183507797e-05 
6 1 -3.318126471803e-05  -5.632956880225e-05  -1.474431425222e-05 
7 1  6.339938586227e-05   1.085730816916e-05   4.419386365325e-05 
8 1 -1.472785839552e-05   9.647698596678e-05  -1.821718508881e-05 
8
Step 44000
1 1 -2.622975951627e-05  -1.271605611358e-04   3.906063610331e-05 
2 1  3.258765719930e-06   1.017400639539e-04   5.945014267165e-05 
3 1  1.135723154659e-04   8.696126619569e-05  -6.819603304036e-06 
4 1 -1.273169209826e-05   7.433598738237e-05   1.297827750254e-05 
5 1  1.210371438417e-05  -4.525993693115e-05   8.264351033051e-05 
6 1  1.322126201457e-05  -4.427691310094e-05  -3.056055939714e-05 
7 1  9.997614667625e-05  -3.452348645334e-05  -4.988144472831e-06 
8 1  1.149547056618e-05   3.485581061999e-05  -4.058234009711e-05 
8
Step 45000
1 1  5.595210560335e-06  -9.728836854643e-05  -4.693226240891e-05 
2 1  8.894941431421e-05   7.572452209766e-06  -2.568446802643e-05 
3 1  1.281359382202e-04   2.807399084648e-05  -3.349795788053e-05 
4 1  4.225384764684e-05   5.404499721110e-05  -4.834494424808e-05 
5 1  1.402677655809e-05   7.749795586085e-06   7.101229180848e-05 
6 1  4.700773600501e-05  -1.217428407739e-05  -3.144101677877e-05 
7 1  1.013976512591e-04  -6.309929327569e-05  -5.939152516264e-05 
8 1  3.225380954112e-05  -2.324073958340e-05  -5.046180732187e-05 
8
Step 46000
1 1  2.442511378990e-05  -1.183346864762e-05  -1.044903044784e-04 
2 1  1.387126982613e-04  -8.267052558755e-05  -8.730644367316e-05 
3 1  8.962116565053e-05  -3.421604514564e-05  -5.262258315166e-05 
4 1  7.622192541703e-05   3.997872583568e-06  -9.005716293823e-05 
5 1  9.670521325063e-07   5.512056976922e-05   3.051293757292e-05 
6 1  5.805933227219e-05   2.663866390491e-05  -2.532569712537e-05 
7 1  7.367306152629e-05  -6.174394920972e-05  -9.258800675860e-05 
8 1  3.578930862250e-05  -4.983487959189e-05  -4.640820930451e-05 
8
Step 47000
1 1  1.849562531803e-05   9.272856189086e-05  -1.072051473017e-04 
2 1  1.288429903768e-04  -1.284310304725e-04  -1.004629889416e-04 
3 1  1.710939335965e-05  -7.769118182162e-05  -5.218378737024e-05 
4 1  7.422441607655e-05  -5.282155755908e-05  -8.449204162675e-05 
5 1 -2.378442149748e-05   7.496218282612e-05  -2.315622127773e-05 
6 1  4.708837936953e-05   5.498669388375e-05  -2.036758296207e-05 
7 1  3.045802452106e-05  -3.274145055230e-05  -8.578462259403e-05 
8 1  2.026782253615e-05  -3.907763588389e-05  -3.070519282070e-05 
8
Step 48000
1 1 -7.005305956790e-06   1.673598910878e-04  -5.650445002785e-05 
2 1  6.273466033030e-05  -1.142995566732e-04  -6.596436366615e-05 
3 1 -5.833954515586e-05  -9.177712701247e-05  -2.786528932310e-05 
4 1  3.851846316291e-05  -8.948388392875e-05  -2.732412839616e-05 
5 1 -4.693526270549e-05   5.980147501848e-05  -6.928871438754e-05 
6 1  2.371032670039e-05   6.053745847733e-05  -1.922197770525e-05 
7 1 -1.363319541825e-05   8.767899561028e-06  -3.820942591178e-05 
8 1 -5.661645527973e-06  -7.468896097980e-06  -7.926526709528e-06 
8
Step 49000
1 1 -3.303205984863e-05   1.730701065398e-04   2.171926837439e-05 
2 1 -3.177353062941e-05  -5.187064011701e-05  -6.518215024890e-06 
3 1 -1.081141732628e-04  -7.697926374740e-05   1.395576800204e-05 
4 1 -1.357667617848e-05  -8.585089583294e-05   5.933014885375e-05 
5 1 -5.224691844735e-05   1.815558342296e-05  -8.973167525709e-05 
6 1  1.065371203645e-06   4.079915323425e-05  -1.813360548687e-05 
7 1 -4.748981404996e-05   4.270330943576e-05   3.187708095879e-05 
8 1 -2.890902163268e-05   1.780853488410e-05   1.616064023993e-05 
8
Step 50000
1 1 -3.862104229169e-05   9.992251479507e-05   9.000974851777e-05 
2 1 -1.145624348314e-04   2.849965390484e-05   4.527492845943e-05 
3 1 -1.157883264820e-04  -4.067260451305e-05   5.709218872409e-05 
4 1 -5.761087139351e-05  -3.864485394497e-05   1.352905216755e-04 
5 1 -3.011933417143e-05  -3.006848080564e-05  -7.518290009418e-05 
6 1 -1.047189014729e-05   4.179249337832e-06  -1.072404575388e-05 
7 1 -6.496155329596e-05   5.397919550764e-05   9.273748453725e-05 
8 1 -3.753030458567e-05   1.651307778579e-05   3.512499223383e-05 
8
Step 51000
1 1 -1.424383807333e-05  -2.502311159021e-05   1.164907580193e-04 
2 1 -1.500181560293e-04   9.163199764723e-05   6.293697081235e-05 
3 1 -8.197334298529e-05   5.860324441812e-06   8.230845211404e-05 
4 1 -7.332649948033e-05   3.483967621195e-05   1.612182795977e-04 
5 1  1.497057151547e-05  -6.249260953254e-05  -2.995017293088e-05 
6 1 -7.933021855464e-06  -3.321962554823e-05   6.117177113895e-06 
7 1 -6.444112155769e-05   3.972409221399e-05   1.131295413281e-04 
8 1 -2.639950155934e-05  -1.266050645496e-05   4.325795189730e-05 
8
Step 52000
1 1  3.187511844002e-05  -1.474504515522e-04   8.899546345435e-05 
2 1 -1.220391119546e-04   1.122565844226e-04   3.892290148901e-05 
3 1 -2.304846682164e-05   4.934905093754e-05   7.665642685467e-05 
4 1 -5.440849201100e-05   1.029139569583e-04   1.185537129441e-04 
5 1  6.459670721195e-05  -6.453665944118e-05   2.802291478784e-05 
6 1  3.540571191725e-06  -5.479510294963e-05   2.847125553302e-05 
7 1 -4.807954871878e-05   9.474289923563e-06   7.936949274984e-05 
8 1 -8.638239341680e-07  -5.206771889601e-05   3.843929878409e-05 
8
Step 53000
1 1  7.639061024981e-05  -2.104305957339e-04   2.115321023713e-05 
2 1 -4.219674616536e-05   8.511993703478e-05  -1.129946482596e-05 
3 1  3.611325686884e-05   7.731576733892e-05   4.004254854038e-05 
4 1 -1.164023673821e-05   1.326701603653e-04   2.023728048600e-05 
5 1  9.431040589179e-05  -3.654952550818e-05   7.374604311859e-05 
6 1  1.306196146103e-05  -5.109768381059e-05   4.681512220521e-05 
7 1 -2.166494140365e-05  -2.039478260500e-05   4.655932458409e-06 
8 1  2.624342586900e-05  -7.503268949763e-05   2.296596218987e-05 
8
Step 54000
1 1  9.248618292936e-05  -1.840792712645e-04  -5.332208841861e-05 
2 1  5.272256549188e-05   2.688897293900e-05  -5.766313704567e-05 
3 1  7.318721750491e-05   8.180215581452e-05  -1.343677236775e-05 
4 1  3.231130037159e-05   1.065629112869e-04  -9.224294811822e-05 
5 1  8.645220413287e-05   5.738824228324e-06   8.680719637559e-05 