8
Step 0
1 1  0.000000000000e+00   0.000000000000e+00   0.000000000000e+00 
2 1  0.000000000000e+00   0.000000000000e+00   0.000000000000e+00 
3 1  0.000000000000e+00   0.000000000000e+00   0.000000000000e+00 
4 1  0.000000000000e+00   0.000000000000e+00   0.000000000000e+00 
5 1  0.000000000000e+00   0.000000000000e+00   0.000000000000e+00 
6 1  0.000000000000e+00   0.000000000000e+00   0.000000000000e+00 
7 1  0.000000000000e+00   0.000000000000e+00   0.000000000000e+00 
8 1  0.000000000000e+00   0.000000000000e+00   0.000000000000e+00 
8
Step 1000
1 1 -2.142261664789e-05   4.026378699749e-05  -2.527443152327e-04 
2 1  1.906697427621e-04  -3.066980372800e-04  -1.373212317878e-04 
3 1  4.749424296234e-05  -1.603953739846e-04  -5.647950758092e-05 
4 1  3.556535590699e-04  -5.674185944315e-05  -1.015703524412e-04 
5 1  4.346564106340e-04   1.426414073073e-04  -4.344362542705e-05 
6 1 -2.236258758152e-04   8.858605947219e-05   3.105802730117e-04 
7 1  1.325544009788e-04  -2.320172316159e-04  -2.456162013993e-04 
8 1 -1.369313935035e-04  -1.059137285399e-04  -2.153838478475e-04 
8
Step 2000
1 1  1.347514835890e-04  -3.052661753974e-04   1.603389788442e-05 
2 1  2.601785212458e-04  -3.289190199677e-04  -3.049849504150e-04 
3 1 -1.391685856032e-04  -1.774092642370e-04  -9.917996713610e-05 
4 1  3.314078385167e-04   6.217201595221e-05  -7.028047222916e-05 
5 1  2.350848836324e-04   1.355423622166e-04  -1.369068850367e-04 
6 1  2.746967966864e-05   8.067344836143e-05   2.806577988694e-04 
7 1 -1.021828296579e-04  -9.961610175174e-05  -1.092448758433e-04 
8 1  8.111885250106e-05  -2.513142955476e-04  -2.113994217888e-04 
8
Step 3000
1 1  1.545507998796e-04  -2.091364639546e-04  -1.278201711506e-04 
2 1  2.654253265424e-04  -3.957929050280e-04  -9.957642358792e-05 
3 1 -8.075698299281e-05   7.141836021760e-05   7.848036412788e-05 
4 1  2.228921327207e-04  -1.429126967033e-04  -1.855977489034e-04 
5 1  1.521256987551e-05   2.028803964901e-04  -1.422578433486e-04 
6 1  1.211403584253e-04  -2.670767415515e-04   1.535306257992e-04 
7 1 -4.112269420420e-05   9.155787416347e-05  -1.474724831076e-04 
8 1  7.651364170857e-05  -1.781468482629e-04  -1.756306766664e-04 
8
Step 4000
1 1  2.672698146814e-04  -8.810037379959e-05  -1.008783058479e-06 
2 1  2.164454415751e-04  -2.005635210651e-04  -2.652789711423e-04 
3 1 -1.387941032212e-04   1.283316094537e-04   1.620035555614e-04 
4 1  4.046214975082e-04  -1.884433086670e-04  -1.931984948293e-04 
5 1  3.887749258588e-05   1.697502042725e-04  -6.129915391890e-05 
6 1 -1.079597222531e-05  -3.115040893506e-05   3.988892110941e-05 
7 1 -1.870965055197e-04   1.416964144826e-04  -5.470014800028e-05 
8 1  1.090360654476e-05   4.700381737099e-05  -1.818515474385e-04 
8
Step 5000
1 1  1.239644007960e-05   1.564516988958e-04  -1.601956543447e-06 
2 1  2.209817386248e-04  -1.710090595138e-04  -3.918201683032e-04 
3 1 -1.631575785600e-04   2.709312478734e-04   9.342825309994e-05 
4 1  3.793089472852e-04  -2.691766410188e-05  -2.045825488812e-04 
5 1 -1.196012552620e-04   9.894489845773e-05  -4.375013631826e-05 
6 1 -3.553981702299e-05  -1.808196655847e-04   2.307238744553e-04 
7 1 -2.083216228478e-04   1.587626417502e-04  -1.396958113473e-04 
8 1  7.942680788085e-05  -1.796905308144e-04  -1.883206480154e-04 
8
Step 6000
1 1  4.484843278454e-05  -1.264127867082e-04   2.675257347202e-05 
2 1  2.346178044504e-04  -6.927815122393e-05  -2.749942658656e-04 
3 1 -1.767921474496e-04   2.406806172717e-04  -1.109628518140e-05 
4 1  2.818385553056e-04  -5.746367251092e-06  -3.808779954236e-04 
5 1 -6.991803366928e-05   2.584587593521e-04   3.444286726493e-05 
6 1 -1.297024249683e-04  -3.957577671541e-05   2.444112219419e-04 
7 1 -7.144588515992e-05  -2.456875300202e-05  -1.033688033026e-04 
8 1  5.098822540183e-05  -2.451303806252e-04  -1.063135013159e-04 
8
Step 7000
1 1  1.962512436376e-04  -2.598016578870e-04   3.804876139121e-05 
2 1  1.212431816792e-04  -3.617922339837e-05  -4.726218188847e-05 
3 1 -2.247692147648e-04   1.141758680407e-04  -1.363572429751e-04 
4 1  5.860963138067e-05   2.253414695577e-04  -1.928652296029e-04 
5 1  3.160749542250e-05  -1.841154702151e-05  -7.602503093723e-05 
6 1 -1.938653011817e-04   8.066400025054e-06   9.855073436827e-05 
7 1 -8.413983763429e-05  -1.201229929205e-04  -1.708604594548e-04 
8 1  2.413089171178e-04  -5.647870873367e-05   2.402747795701e-05 
8
Step 8000
1 1  2.964335127700e-04  -1.972094912664e-04   4.634250755882e-05 
2 1  1.570610482782e-04   3.355277372488e-05   5.902067576766e-05 
3 1 -1.279815608294e-04   6.967115281105e-05  -3.324178136912e-04 
4 1 -4.314883837264e-05   1.565929387126e-04  -1.149619111667e-04 
5 1 -5.238021260929e-05   1.096989050518e-04  -2.053807369393e-04 
6 1 -2.219078072051e-04   4.133662897451e-06   1.691507551802e-04 
7 1 -6.493194721878e-05   1.453291264052e-06  -1.358840220799e-04 
8 1  9.732352446457e-05   1.481586636864e-04   1.437147462681e-04 
8
Step 9000
1 1  5.234829540969e-05   1.347693767606e-04   8.055835786513e-05 
2 1 -1.157198545804e-05   7.783040007029e-05   5.742953809593e-05 
3 1 -1.029782598416e-04   1.339217002657e-04  -3.016220870690e-04 
4 1 -6.939414853731e-05   1.107433625427e-04  -1.106259747657e-04 
5 1  1.584300841607e-04  -5.411048835495e-05   1.447430203763e-05 
6 1 -1.716217795326e-04   8.705740711970e-05   1.273053660914e-04 
7 1 -1.122910446886e-04  -1.069661242884e-04  -1.113174263661e-04 
8 1 -1.832419602680e-04   3.043819054113e-04   6.674983441542e-06 
8
Step 10000
1 1  8.493943720514e-05   1.906725240037e-04   4.124065864147e-05 
2 1 -5.432259254384e-06   1.564452252660e-04   1.473157960147e-05 
3 1 -1.142867425985e-04   1.190667961786e-04  -2.698165604605e-04 
4 1 -1.507446168413e-04   2.242398549979e-04  -5.207055310883e-07 
5 1  9.507230020352e-05  -5.354843364117e-05  -6.922687138127e-05 
6 1 -5.086053850876e-06   4.226013765095e-05   1.806110434527e-04 
7 1 -9.951252843361e-05  -2.522526026930e-05  -7.384418137889e-05 
8 1 -2.111212009140e-04   1.290831603482e-04   1.345619082103e-04 
8
Step 11000
1 1 -8.475370195430e-05   5.974197462093e-05   1.032830974291e-04 
2 1 -1.071522963851e-04   5.914698261988e-05   9.955670950325e-05 
3 1 -1.625311197985e-04   1.753499174235e-04  -1.876972504116e-04 
4 1 -8.953879406099e-05  -3.617553417198e-05  -2.485479781964e-04 
5 1 -1.038816924328e-04   7.301274973758e-05   8.677311689606e-06 
6 1 -1.315853567671e-04  -1.123492099351e-04   1.550021197136e-04 
7 1 -9.906912391455e-05  -9.501255437885e-06  -4.165375608412e-05 
8 1  6.705041304476e-05   8.752306236011e-05   1.883294527114e-04 
8
Step 12000
1 1  8.333081644885e-05  -1.134161479563e-04   3.072388945694e-04 
2 1  8.825060760268e-05  -6.651970514570e-05   2.201339351911e-05 
3 1 -2.153048051556e-04   2.312051287256e-04  -7.593108260363e-05 
4 1 -1.383563372000e-04   2.906016845360e-04  -2.983801308335e-04 
5 1 -1.904260014116e-04   1.842164373342e-04  -2.811013421053e-05 
6 1 -8.034116600226e-05   6.003703768519e-05   9.481284287103e-05 
7 1 -9.123626860241e-06   1.065767309329e-04   3.226779868877e-05 
8 1  9.554931464507e-05   8.551533318867e-07   1.148266976935e-04 
8
Step 13000
1 1 -6.239268866039e-05   4.457028267863e-05   2.474569228698e-04 
2 1 -1.225991308438e-04   2.154755514043e-04   1.750864437153e-04 
3 1 -3.400643174218e-04   1.083362309113e-04  -1.015031943385e-04 
4 1 -2.844398956089e-05   6.174016687388e-06  -1.708558113259e-04 
5 1 -2.186287962966e-04   2.772621382989e-04   1.181865121953e-04 
6 1  1.990904520545e-05   6.088103335781e-06   1.805881932013e-04 
7 1 -1.935808349156e-04   3.356106047463e-04  -8.284340137774e-05 
8 1  1.031158778573e-04  -5.022395966872e-05   4.007608203872e-05 
8
Step 14000
1 1 -5.719978727181e-05   2.559671176933e-04   2.617783783344e-05 
2 1 -1.702890964654e-04   2.674765869230e-04   5.163470688270e-05 
3 1 -2.392029129993e-04   5.866695545884e-05   1.190283942178e-04 
4 1 -9.426434118969e-05   4.585003840664e-05  -1.332300374263e-04 
5 1 -1.571234416982e-05   1.263354332143e-04   3.660849795173e-05 
6 1  2.021399259076e-06  -1.628511750268e-04   5.710193364873e-05 
7 1 -2.482638810355e-04   2.733197686376e-04   8.487036432715e-05 
8 1  6.688329191329e-05   1.062222699197e-04   2.023785299438e-04 
8
Step 15000
1 1 -2.452841186837e-04   1.912658680803e-04   1.299238011601e-04 
2 1 -2.876896863081e-04   3.133113801902e-04   1.362068207331e-04 
3 1 -1.363075085042e-04  -5.235146239794e-05  -1.172033478868e-04 
4 1 -2.125704418226e-04   6.377172334532e-07  -2.921436738196e-05 
5 1 -1.055692001011e-04  -1.289944119006e-04  -3.276482724363e-06 
6 1 -3.103024329027e-05  -2.556333964878e-05   1.499458153555e-04 
7 1 -1.325163003781e-04   2.133910264578e-04   1.318525966622e-04 
8 1  1.115699405046e-04   4.310020414349e-05   2.247928824404e-04 
8
Step 16000
1 1  1.966877068541e-05  -5.463572076014e-05   1.035732768738e-04 
2 1 -3.030408789017e-04  -1.436040956073e-05   2.219404193656e-04 
3 1  1.116068731204e-04   7.574851088632e-05  -9.985841373919e-05 
4 1 -3.217568555523e-04   8.260589705135e-05  -1.263434655272e-04 
5 1 -8.219920771843e-05   2.223368812093e-05  -6.419116554440e-05 
6 1  7.223974479189e-05  -3.396812872839e-05   2.337549843847e-04 
7 1 -9.057236954356e-05   1.986852129177e-04   4.135848178031e-05 
8 1  1.334426574437e-04   1.227729598888e-04   2.491079413659e-04 
8
Step 17000
1 1 -1.946971195926e-04  -1.527614934861e-05   2.007888721214e-04 
2 1 -2.098771351810e-04   4.794718355593e-05   2.517216638428e-04 
3 1  8.729771991429e-05  -1.496538348018e-04  -7.295787886970e-05 
4 1 -3.111148520988e-04   2.007316225058e-05   1.284524514736e-04 
5 1 -7.130778151789e-06  -5.410446381911e-05  -8.798860190609e-05 
6 1 -2.496425629414e-04   2.089574773738e-04   1.414970069069e-04 
7 1  3.613326245520e-05   6.991843845118e-05  -5.616151463369e-05 
8 1  8.071412206188e-05   2.087498291429e-04   1.540250670786e-04 
8
Step 18000
1 1 -8.679141363349e-05   1.390450740642e-04   1.091949247245e-04 
2 1 -2.719428084480e-04   2.005912878777e-04   2.645635528438e-04 
3 1  1.517358031866e-04  -9.248721849438e-05  -1.307289282865e-04 
4 1 -9.497124459108e-05  -2.135602416942e-06   1.843536685873e-04 
5 1  3.690038034151e-05  -6.491865637383e-05   7.381513843302e-05 
6 1 -3.019584201956e-04   1.949262832168e-04   4.159506779796e-05 
7 1  5.770410110753e-05   7.713195350309e-05  -7.355614929324e-05 
8 1  1.433480127068e-04   2.465703794267e-04   1.943858243883e-04 
8
Step 19000
1 1 -4.433457280000e-04   3.243395397289e-04   4.706002639691e-05 
2 1 -5.360818757032e-05   2.670679532747e-04   2.881916920656e-04 
3 1  1.999263336924e-04  -3.765799801782e-04  -1.040767635897e-04 
4 1 -3.516425782807e-04  -1.521716198830e-04   5.161812104723e-05 
5 1 -4.844441163954e-05  -2.893487963190e-04   3.771571230036e-05 
6 1 -2.709936482064e-04  -1.704874797894e-04   7.620396087525e-05 
7 1  2.147822289436e-05   1.108725335342e-04  -3.606032996873e-05 
8 1  6.170668631853e-05   3.929861232825e-04   3.533170381618e-04 
8
Step 20000
1 1 -1.390389729805e-04  -5.847338098361e-05   4.814037991987e-05 
2 1 -1.272569680876e-04   1.437716904387e-04   1.329381284167e-04 
3 1  2.739344377780e-04  -2.185609891103e-04  -8.005501975760e-05 
4 1 -1.222636426186e-04   5.905969188457e-05   2.940450027987e-05 
5 1  4.800353759751e-05  -2.122039188870e-04   1.248338473467e-04 
6 1 -2.667415779932e-05  -3.937569558321e-05  -9.981654775445e-05 
7 1  7.163724887961e-06   1.365128812450e-04   2.028393888657e-05 
8 1  8.490311070338e-05   1.151816227758e-05   2.565166297815e-04 
8
Step 21000
1 1 -2.490404612995e-04   2.285225370912e-06   8.181042792785e-05 
2 1 -1.027306394611e-04  -9.056310240426e-06   1.641152451737e-04 
3 1  3.363306956843e-04  -2.412141371503e-04   1.593602230460e-04 
4 1 -2.612539466445e-04   4.907563480281e-05   8.480000546829e-05 
5 1  5.079649954020e-05  -3.048514413610e-05   1.255940466139e-04 
6 1  9.560140009045e-05  -1.321739157903e-04  -2.580947718078e-04 
7 1 -1.891284766658e-04   2.385936025710e-04  -1.367213310122e-04 
8 1  2.097989720166e-04  -9.083838320631e-05   2.034150265050e-04 
8
Step 22000
1 1 -6.423756852090e-05   9.382891468211e-05   6.598112222955e-05 
2 1 -6.410636716728e-05  -8.621217685608e-05   1.389484616611e-04 
3 1  4.112814717540e-04  -2.295737615146e-04   2.520042265386e-05 
4 1 -2.124464187078e-04   1.578488739711e-04   3.679539943524e-05 
5 1 -4.958215037231e-05  -2.558804682843e-05   7.827775664302e-05 
6 1  2.842173662901e-05  -1.116521345786e-04  -1.793216472274e-04 
7 1 -7.561922018574e-05   1.792570302488e-04  -7.733255238513e-05 
8 1  2.870823081541e-04   1.824189304574e-06   3.293144330484e-05 
8
Step 23000
1 1 -4.064942684206e-05   3.455805355151e-04   1.071540598355e-04 
2 1 -6.706849783402e-06   6.145874368292e-05   5.521575479952e-05 
3 1  3.750822148138e-04  -2.923415868859e-04   1.165087954083e-04 
4 1 -2.819401565173e-04  -1.863106490256e-04   1.732747032177e-04 
5 1 -4.379680223737e-05  -2.628971948297e-05   4.630053104527e-05 
6 1  1.293746807743e-04  -1.903135914770e-04  -1.143515723255e-04 
7 1 -1.803232373195e-04   2.262963586750e-04  -1.338411541831e-04 
8 1  1.762499586296e-04   1.279728417929e-04  -6.482522478133e-05 
8
Step 24000
1 1  6.255916138734e-05   5.385687466037e-05  -1.314621866095e-04 
2 1 -4.887379991962e-05   2.980767062634e-05   9.046330920573e-05 
3 1  3.353972264393e-04  -1.585443948428e-04   1.269738636019e-04 
4 1 -1.615992477454e-04  -1.264468429703e-04   5.049681491927e-05 
5 1  1.635846085449e-04   2.671581451489e-05  -7.638164111439e-05 
6 1 -6.569946869973e-05  -2.044717838192e-04  -1.042890844130e-05 
7 1 -5.265510235138e-06  -1.462199739648e-04  -1.503293084954e-04 
8 1  2.129561073194e-04  -2.537016930482e-05   1.604279298695e-04 
8
Step 25000
1 1  2.630581445462e-04  -1.628735131349e-04  -1.123363673935e-05 
2 1 -3.476786716340e-04   2.648900513832e-05  -1.366476951706e-05 
3 1  2.625273550613e-04  -2.255618181834e-04   1.821280121879e-04 
4 1 -1.354907196820e-04  -6.989450065551e-05   3.150406623906e-04 
5 1  1.275228737157e-04  -1.616616082277e-04  -1.502417568207e-04 
6 1 -2.884341217742e-05  -9.026124449489e-05  -1.259914361028e-04 
7 1  5.035050046036e-05  -1.701822077178e-04  -2.824372706781e-04 
8 1  1.488617968361e-05  -1.062279749673e-04  -4.434771658491e-05 
8
Step 26000
1 1  2.304432410926e-04  -1.041966876632e-04  -1.310482597397e-04 
2 1 -5.804756065474e-05  -1.184867677500e-04   1.163743119404e-04 
3 1  2.919392452207e-04  -9.502057268891e-05   2.278559409361e-04 
4 1 -1.270979290491e-04   2.784321951650e-05   1.507359798285e-04 
5 1  6.927422676692e-05  -9.856979289090e-06  -2.195712809023e-04 
6 1 -3.883469509754e-06  -1.304905604281e-04  -9.869621432418e-05 
7 1  7.600396182910e-05  -1.086648107931e-04  -3.073764398146e-04 
8 1  1.950039759448e-04   8.351889704363e-06  -7.801858117747e-05 
8
Step 27000
1 1  3.675747472914e-04   2.104914508904e-05  -1.418944888860e-04 
2 1 -1.888194281631e-04   1.044847454800e-06   4.190358813298e-05 
3 1  3.304235055601e-04  -1.314770116699e-04   1.349724629495e-04 
4 1 -1.430295822001e-04  -1.504228414826e-05   2.142483480101e-04 
5 1  1.257800742231e-04  -2.633523008233e-04  -1.408060236968e-04 
6 1 -6.980523430135e-06   3.353917841797e-05  -1.557901364232e-04 
7 1  1.314544426870e-04  -1.554284214717e-05  -1.894369944830e-04 
8 1  1.223042017331e-05   3.778904474114e-05  -1.541436099832e-04 
8
Step 28000
1 1  5.730908666499e-05   8.513695899159e-05  -3.330088752824e-04 
2 1 -4.498998470468e-05  -1.736006634868e-04  -1.095976622618e-05 
3 1  3.671166341002e-04  -8.811234284369e-05   4.636700716791e-05 
4 1  1.279893154915e-04   6.170470468440e-05   2.688029717113e-04 
5 1  8.059013997303e-05  -1.775772940504e-04  -1.363763597949e-04 
6 1 -9.699491864856e-06  -1.400610413685e-04  -1.478375324330e-04 
7 1 -1.353480266764e-05  -9.659254505392e-05  -7.168635189703e-05 
8 1  5.559398576586e-05  -8.850925086181e-05  -2.650830791164e-05 
8
Step 29000
1 1  3.794181376203e-05  -1.263211612992e-04  -2.889244955084e-04 
2 1 -1.633016825016e-04  -4.077409788073e-05   4.369507516296e-05 
3 1  2.707884698580e-04   1.604444514816e-05   2.788393865647e-05 
4 1  2.536801568765e-05  -2.487228290369e-05   2.493885883917e-04 
5 1  5.039170683780e-05  -1.013695127384e-04  -4.582167671638e-05 
6 1  8.860817504290e-05  -2.730168162897e-04  -1.618351294398e-04 
7 1 -5.176189541175e-05  -6.376180361239e-05  -1.558857079335e-04 
8 1  1.447833898912e-04  -9.319346293012e-05  -8.078556600507e-05 
8
Step 30000
1 1  3.267645507994e-05  -3.434955415306e-04  -4.443955231789e-04 
2 1 -5.259566430355e-05   9.006158659260e-06  -2.109534362330e-05 
3 1  3.418201063730e-04  -7.622771796745e-05   1.163488717543e-04 
4 1  3.267166958383e-05   1.666057192746e-06   1.505366393256e-04 
5 1 -2.153033374335e-05  -1.324641654336e-04  -9.924911975315e-05 
6 1 -1.362304279355e-05  -3.836750157342e-04  -3.037560724999e-04 
7 1  6.850179182749e-05   7.703487807366e-05  -1.296960061979e-04 
8 1  9.760324357361e-05  -1.690028179187e-04  -2.092322401629e-04 
8
Step 31000
1 1 -1.750479962135e-05  -3.148971402441e-04  -3.309312697523e-04 
2 1  2.393634789531e-05  -2.150171212265e-05   2.356133517543e-05 
3 1  3.002495560866e-04   6.192812824641e-05   1.049145319484e-04 
4 1  5.477755950105e-05   2.379510540034e-05   1.952212490338e-04 
5 1  9.156121471254e-05  -7.019707949000e-07  -1.465777095061e-04 
6 1  9.054683919488e-05  -2.349986191529e-04  -3.339080027022e-04 
7 1  3.934430148262e-05   1.809384424818e-04  -2.083206046756e-04 
8 1  1.210446272633e-04  -1.541099612753e-04  -1.677600619644e-04 
8
Step 32000
1 1 -1.239904960024e-04  -7.596485794736e-05  -4.019880045167e-04 
2 1 -2.048491846792e-05  -1.144935026889e-04  -2.253395270215e-04 
3 1  5.256114119841e-04  -1.426889697307e-04   1.570008722454e-04 
4 1  1.417909985015e-04   1.380196910711e-04   1.684147475575e-04 
5 1  3.695750926983e-05   1.351130851621e-04   1.420450672882e-05 
6 1  3.590542558722e-06  -2.566942723977e-04  -2.161621832289e-04 
7 1 -8.617926003942e-05   1.974716951703e-04  -9.467985566584e-05 
8 1  1.769229046990e-04  -2.121943976540e-04  -4.669663363554e-05 
8
Step 33000
1 1 -1.348967840243e-04  -2.012336918372e-05  -2.060103728860e-04 
2 1  2.474236644529e-06  -1.166399362369e-04  -3.909087299419e-04 
3 1  3.140676720983e-04  -4.957276778637e-06   2.211200976348e-05 
4 1  1.648532141830e-05   7.999544614268e-05   9.900996083653e-05 
5 1  1.284870576520e-05  -9.034202385344e-05  -4.204935283361e-05 
6 1  5.066583765761e-05  -3.372214797269e-04  -9.332289254664e-05 
7 1  9.351223029698e-05   7.076178994575e-05  -2.645267821023e-05 
8 1 -2.832453688155e-05  -1.491806881071e-04  -1.086023165143e-05 
8
Step 34000
1 1 -1.171192776919e-04  -5.634232446063e-06  -2.925697325969e-04 
2 1 -1.273667666410e-04  -1.173993919726e-04  -2.624418844811e-04 
3 1  1.629451869895e-04  -9.660932559934e-05  -2.148960286215e-05 
4 1  1.807098713042e-04  -1.631310651115e-04   2.140002567328e-04 
5 1  8.806652676113e-05  -1.324529291994e-04  -1.860866789647e-05 
6 1  1.164666827095e-05   3.241820186384e-05  -1.343866499851e-04 
7 1 -7.244399164067e-05  -8.355765625007e-05  -1.540971960542e-04 
8 1 -9.005778759223e-05  -1.376736387508e-04  -9.652399072619e-05 
8
Step 35000
1 1  1.070650654477e-04  -1.769983728406e-04  -2.158896267284e-06 
2 1 -1.704610014243e-04  -1.071486453392e-04  -2.213239524410e-04 
3 1  7.892832432030e-05   4.998731496033e-05  -4.763491103839e-05 
4 1  1.805978219896e-04   1.634602064495e-04   1.392952366081e-04 
5 1  1.518046804212e-04   5.249217495678e-05  -1.943864831984e-04 
6 1  1.077273823548e-04  -3.095409561876e-05  -1.436788905289e-04 
7 1  8.529345335522e-05  -4.570604711324e-06  -1.277735035635e-04 
8 1 -1.102653458968e-04  -8.381758930547e-05  -1.254014171152e-04 
8
Step 36000
1 1  7.164610682708e-05  -1.065230408369e-04  -1.158159043130e-04 
2 1 -7.310397937188e-05  -1.112721542616e-04  -2.260494580805e-04 
3 1 -1.266846720065e-04   9.385762124604e-05  -1.008480879006e-04 
4 1  1.784518534891e-04  -6.521619414506e-05   2.228468851545e-04 
5 1  1.345041240401e-04   1.362993107016e-04  -1.608524986573e-04 
6 1 -5.398990812005e-05   1.709922127068e-04   3.436143287331e-05 
7 1  6.393798024596e-05  -3.564586240695e-05  -8.015053229476e-05 
8 1 -2.170574427219e-04  -1.414785139603e-04  -1.569832542170e-04 
8
Step 37000
1 1  2.868214826185e-04  -5.064280048736e-05  -3.746583967907e-05 
2 1 -2.889432378908e-04  -3.311176604306e-06  -1.334461964218e-04 
3 1 -2.551907678887e-04   1.793431133859e-04  -2.187554531565e-04 
4 1  2.410332422873e-04  -6.356689163771e-06   1.589279937703e-04 
5 1  3.564721595088e-05   1.231680080982e-04  -5.172092925869e-05 
6 1  3.026485848183e-06   9.224068663969e-05   2.267353687469e-04 
7 1  1.341867921432e-04  -2.393120886420e-05   1.134139964155e-04 
8 1 -4.941147858951e-05   4.438968073559e-05  -1.656341147239e-04 
8
Step 38000
1 1  1.440105224732e-04   1.137251993404e-04  -6.895256423452e-05 
2 1 -2.998616970238e-04  -3.079512744417e-07  -3.401333829010e-04 
3 1 -2.347143055258e-04   1.471905126456e-04  -1.630597191339e-04 
4 1  5.970753967310e-05  -1.067448936708e-04   9.969089998965e-05 
5 1  1.775190047818e-05  -1.003570119274e-04  -7.848292482886e-05 
6 1  1.836054218071e-05  -1.268228914846e-04   2.598974563731e-04 
7 1  1.455235809437e-05   1.188722829836e-04   3.017131272988e-04 
8 1 -2.608598642172e-04  -9.713577561772e-05  -1.443527417996e-04 
8
Step 39000
1 1  2.016153560233e-04  -7.187755428942e-05   9.187363762189e-05 
2 1 -1.868454976151e-04  -8.917531844660e-06  -2.898331012967e-06 
3 1 -3.457177964984e-04   2.237769195136e-04  -1.247654314206e-04 
4 1  7.661605824055e-05   9.852106161515e-05  -2.085718975158e-04 
5 1  2.002787852000e-04   1.392219433288e-04  -4.407496256215e-05 
6 1  2.883120854689e-05  -5.718969167747e-05   1.436047118725e-04 
7 1 -1.533940859513e-04   8.761131033376e-05   1.098996219057e-04 
8 1 -1.060030695451e-04  -1.611045849108e-04  -2.688901359575e-05 
8
Step 40000
1 1  8.698113091542e-05  -1.007954136477e-04   3.246299259553e-05 
2 1 -5.500411420287e-05   1.062338344207e-04  -4.766754962919e-05 
3 1 -2.157087032579e-04   3.245114550669e-04  -1.237179477495e-05 
4 1  4.223753102240e-06   2.172688619295e-04  -1.172330611650e-04 
5 1 -2.010698787777e-06   1.254667483840e-04  -1.052204984388e-04 
6 1  1.962081854443e-04  -9.785347290567e-05   1.152293971268e-04 
7 1 -5.750420289749e-05   1.346048493332e-04   2.044112454163e-04 
8 1 -2.652707632439e-04  -1.089063878182e-04   3.579528875176e-05 
8
Step 41000
1 1  6.098728986825e-05  -6.298794001370e-05   7.849325816818e-05 
2 1  1.273972319705e-04   1.080581916115e-04   2.038133489574e-05 
3 1 -2.553375257277e-04   2.848771808356e-04  -1.431885549307e-05 
4 1  4.901522912284e-05   1.763725329666e-04  -1.809548177270e-04 
5 1  1.651710050448e-05   2.639255999199e-05   7.434118490533e-05 
6 1  7.544701444506e-05   7.193740034440e-05   1.739989597572e-04 
7 1 -2.455069197081e-05   2.918107313781e-04   1.853798289209e-04 
8 1 -1.061818554673e-04  -6.756699787604e-05   3.376150229943e-05 
8
Step 42000
1 1 -1.945230528583e-04   1.359027118510e-04   6.609985102977e-05 
2 1 -9.500910679486e-06   9.775461843851e-05  -1.231606538147e-04 
3 1 -1.920815802177e-04   1.284764748050e-04  -4.246562104593e-05 
4 1 -3.765168147162e-05   1.140489162691e-04  -1.219723398584e-04 
5 1 -7.421391392032e-05   3.537778684286e-07  -8.008531959006e-07 
6 1 -3.155673376467e-05  -1.393909717357e-04   2.309670549969e-04 
7 1 -5.920778233904e-05   1.718924250027e-04   1.700202044090e-04 
8 1 -2.180168357376e-04  -5.265529414876e-05   2.907700651423e-04 
8
Step 43000
1 1 -1.147739903658e-04   1.676287369354e-04   2.869294355918e-04 
2 1 -1.533413758543e-05  -5.928991836348e-05  -7.162248659631e-05 
3 1 -3.803428356236e-05   9.868840410499e-05  -3.477377634973e-05 
4 1  1.585611418615e-04   1.697256292956e-04  -5.475497463999e-05 
5 1 -1.783122630588e-04  -1.471314442933e-05  -1.783108805250e-04 
6 1 -4.199163717346e-05   1.319903627017e-05   1.640676199816e-04 
7 1  1.465404782557e-04   6.767119885525e-05   3.249396569418e-04 
8 1 -2.370283809511e-04   1.433184513745e-04   1.224565696124e-04 
8
Step 44000
1 1  2.164807611086e-06   3.365031204796e-04   3.939531350424e-04 
2 1  4.487877991090e-05  -5.085149669766e-05   3.070279458568e-05 
3 1 -2.155376443796e-04   7.935237557293e-05  -1.711805898790e-04 
4 1  7.844023413307e-05   6.422622342425e-05  -9.345298684239e-05 
5 1 -1.264088517287e-04  -6.259952582809e-05  -2.609841887868e-04 
6 1 -1.609647719724e-04  -1.009230308562e-05   1.559861779429e-04 
7 1  8.897262012615e-05  -1.128815903690e-04   1.905704000802e-04 
8 1 -2.660499874108e-04   1.099802214591e-04   1.044760316325e-04 
8
Step 45000
1 1 -3.918007146385e-05   2.203345893210e-04   4.012092898414e-04 
2 1  1.129609632396e-04   4.627873999939e-06   1.450837534424e-05 
3 1 -9.947446033639e-05   1.174464885887e-04  -1.109649360665e-04 
4 1  1.390893668957e-04   1.378415156495e-04   1.018891493236e-04 
5 1 -1.136970147508e-04   6.031719072396e-06  -2.736269696110e-04 
6 1  9.912477801325e-05  -3.967864434916e-06   3.487280435403e-04 
7 1  1.538348991234e-04   1.019034633885e-04   1.677041526107e-04 
8 1 -2.029201966572e-04   2.804750845533e-04  -8.098969607460e-05 
8
Step 46000
1 1 -6.986471890549e-05   1.013859722511e-04   1.193251832060e-04 
2 1  3.818485787965e-05   1.618383973314e-04  -1.785688582311e-05 
3 1 -3.363038907935e-04   1.609118988607e-04  -9.553339548474e-05 
4 1  1.904663744156e-04  -6.670701019375e-05   7.725888492111e-05 
5 1 -5.927423725564e-05   4.615013574318e-05  -3.673457311560e-05 
6 1  3.208346511000e-07   1.631414546209e-04   2.870671183826e-04 
7 1  5.150445916777e-05  -2.482012420488e-06   3.311209835131e-04 
8 1 -2.172670414665e-04   5.784818411818e-05   5.782215470479e-05 
8
Step 47000
1 1 -1.006941688705e-04   2.491002094904e-05   2.378926092799e-04 
2 1 -4.054584442179e-05   1.949765615125e-05   5.912176045980e-05 
3 1 -1.290401808548e-04   3.806508531307e-05  -8.121751514169e-05 
4 1  6.337893396927e-05  -1.065306604348e-04  -3.642120336468e-05 
5 1 -1.518046783938e-04   1.494829113617e-04  -1.667291356378e-04 
6 1 -1.926177047407e-06   1.536170235910e-04   3.257489114374e-04 
7 1  8.600114691332e-05   4.850545358347e-05   2.743092096827e-04 
8 1 -4.110279011448e-05  -9.925039937250e-05   6.927574515986e-05 
8
Step 48000
1 1 -3.214118560859e-05  -2.655295138882e-05   3.533925690443e-04 
2 1 -2.811672491033e-05   2.457928952080e-04   1.019993193085e-04 
3 1 -1.354326377009e-04   3.451584070290e-05  -5.309696179828e-05 
4 1  1.781933031645e-04  -2.328830554797e-04  -1.934721643669e-04 
5 1 -1.347235886824e-04  -1.664980484896e-05  -5.831120892517e-05 
6 1  7.756432113043e-05   1.390704553916e-05   2.523795367575e-04 
7 1 -2.466142523949e-05   2.343513405849e-04   1.493556588122e-04 
8 1 -2.045752363681e-04  -1.665795786196e-04  -4.178054862041e-05 
8
Step 49000
1 1  1.237157547485e-05   5.245083789023e-05   2.298796061119e-04 
2 1  2.033936342988e-04   2.007798697315e-05   1.596038487073e-04 
3 1 -2.258960635111e-04   2.447900019376e-05  -1.083765802419e-04 
4 1  1.746747696306e-04  -2.066043459824e-04  -3.266060672372e-04 
5 1  4.248971670472e-05   4.344874627398e-05   1.105733922355e-05 
6 1  4.812819009273e-06   1.130507381511e-04   3.134539358080e-04 
7 1  1.553967721373e-04   2.986355328745e-04   5.209164615046e-05 
8 1  3.038144973038e-05  -7.388765165736e-05  -1.415339037083e-04 
8
Step 50000
1 1  5.882833547093e-06  -1.885987632864e-04   8.594891447745e-05 
2 1  5.963763166841e-05   6.807154162231e-05   1.390775409537e-04 
3 1 -2.185207245764e-04   4.207284828892e-05   3.685637404083e-05 
4 1  1.638137457811e-04  -4.215075830924e-05  -1.366503946804e-04 
5 1  4.773160658203e-05   8.654236636116e-05   4.061170592598e-05 
6 1  1.981046062683e-04   8.586300327624e-05   3.634647931872e-04 
7 1 -7.911233133046e-05   2.676756825261e-04   6.901509646601e-05 
8 1 -1.250271115971e-04  -6.268637622700e-05  -2.037605699630e-04 
8
Step 51000
1 1 -7.790638196198e-05  -3.138533761971e-04   1.123898857798e-04 
2 1  3.015209049726e-04   3.806294683254e-05   1.467975655978e-04 
3 1 -3.529982892751e-04  -8.499748731239e-05  -5.607651667662e-05 
4 1  2.271394358917e-05   5.781339025361e-05  -1.741144197252e-04 
5 1 -1.091592214175e-04   1.481767064803e-04  -1.735249319681e-05 
6 1  1.722215078477e-04   1.874835132958e-04   4.023050811473e-04 
7 1  1.991180429107e-04   2.236303351696e-04   1.549819012252e-04 
8 1 -3.684095633583e-05  -7.043880887773e-05   1.050450064196e-04 
8
Step 52000
1 1  4.306395072461e-05  -1.825537301899e-04   1.945724445751e-04 
2 1  1.865997756132e-04   7.694686102189e-05   1.538074095968e-04 
3 1 -1.866610234127e-04  -1.624420756682e-04   3.268760621112e-05 
4 1 -3.720205732514e-05  -1.023747353168e-04  -1.737388872631e-04 
5 1 -4.379142043679e-05  -1.927970497057e-04  -5.828402162315e-05 
6 1  1.076085029467e-04  -6.617343182510e-06   2.549843231957e-04 
7 1 -2.962131978399e-05   1.251616941694e-04   1.478674395374e-05 
8 1 -1.561463990287e-04   1.114798836382e-04  -1.889619176785e-05 
8
Step 53000
1 1 -4.182763162482e-05  -9.377179394802e-05   1.730745808655e-04 
2 1  2.556873959609e-04   7.871355991570e-05   1.244554591910e-04 
3 1 -1.803867489417e-04  -2.667678476169e-04  -1.878424651544e-04 
4 1  1.769824333090e-04  -1.471707719053e-04  -1.103283116002e-04 
5 1 -1.226117147905e-04  -1.167710815840e-04  -1.719017775740e-04 
6 1  3.054435561832e-04   8.258606733425e-05   7.824417313266e-05 
7 1  1.623791755210e-04  -2.862177489691e-05   6.348778376850e-05 
8 1 -4.205110090368e-05   7.541956316756e-05  -7.927537890921e-05 
8
Step 54000
1 1  9.745209174517e-07  -1.508767237892e-04  -1.262569327620e-05 
2 1  3.475368091163e-04  -1.487439395650e-04   6.133933203554e-05 
3 1 -1.389635568833e-04  -1.717621392070e-04  -6.187308621382e-05 
4 1  1.460670419531e-04   4.648883273243e-05  -6.466942297540e-05 
5 1 -1.133539466181e-04  -4.165357897680e-05  -2.110279583543e-04 