8
Step 0
1 1  0.000000000000e+00   0.000000000000e+00   0.000000000000e+00 
2 1  0.000000000000e+00   0.000000000000e+00   0.000000000000e+00 
3 1  0.000000000000e+00   0.000000000000e+00   0.000000000000e+00 
4 1  0.000000000000e+00   0.000000000000e+00   0.000000000000e+00 
5 1  0.000000000000e+00   0.000000000000e+00   0.000000000000e+00 
6 1  0.000000000000e+00   0.000000000000e+00   0.000000000000e+00 
7 1  0.000000000000e+00   0.000000000000e+00   0.000000000000e+00 
8 1  0.000000000000e+00   0.000000000000e+00   0.000000000000e+00 
8
Step 1000
1 1 -2.142143310096e-05   4.026263353446e-05  -2.527414850416e-04 
2 1  1.906687363505e-04  -3.066950846951e-04  -1.373202132353e-04 
3 1  4.749192347644e-05  -1.603939741453e-04  -5.647992007489e-05 
4 1  3.556498754539e-04  -5.674183905358e-05  -1.015702564211e-04 
5 1  4.346513355719e-04   1.426404347354e-04  -4.344325853869e-05 
6 1 -2.236216948764e-04   8.858494433159e-05   3.105773943882e-04 
7 1  1.325515983218e-04  -2.320122172301e-04  -2.456135271236e-04 
8 1 -1.369288492314e-04  -1.059109259256e-04  -2.153806762663e-04 
8
Step 2000
1 1  1.347492939518e-04  -3.052620399787e-04   1.603298637404e-05 
2 1  2.601764135244e-04  -3.289159323506e-04  -3.049842796605e-04 
3 1 -1.391696428737e-04  -1.774105161870e-04  -9.917569294142e-05 
4 1  3.314031267269e-04   6.216908342744e-05  -7.028309715210e-05 
5 1  2.350861295818e-04   1.355429608961e-04  -1.368998784445e-04 
6 1  2.747128902443e-05   8.067448554603e-05   2.806531144978e-04 
7 1 -1.021806388531e-04  -9.961728228747e-05  -1.092453160295e-04 
8 1  8.111685177565e-05  -2.513122535840e-04  -2.113984026151e-04 
8
Step 3000
1 1  1.545480527046e-04  -2.091332235662e-04  -1.278194167984e-04 
2 1  2.654230099490e-04  -3.957883433069e-04  -9.958096011960e-05 
3 1 -8.076635812702e-05   7.141080046143e-05   7.848389882369e-05 
4 1  2.228895892282e-04  -1.429120340582e-04  -1.855992807822e-04 
5 1  1.521737583423e-05   2.028798724440e-04  -1.422508765534e-04 
6 1  1.211489039522e-04  -2.670684327118e-04   1.535257354172e-04 
7 1 -4.111827548284e-05   9.155423576409e-05  -1.474712135230e-04 
8 1  7.650950611266e-05  -1.781408033193e-04  -1.756317608409e-04 
8
Step 4000
1 1  2.672644656683e-04  -8.810190678799e-05  -1.011282558551e-06 
2 1  2.164412261624e-04  -2.005638401058e-04  -2.652784791483e-04 
3 1 -1.387993763769e-04   1.283315241022e-04   1.620079316225e-04 
4 1  4.046253979116e-04  -1.884446076754e-04  -1.931976134141e-04 
5 1  3.888271754682e-05   1.697506760678e-04  -6.130063300807e-05 
6 1 -1.078563784345e-05  -3.114659230165e-05   3.988509671892e-05 
7 1 -1.870966133667e-04   1.416939771810e-04  -5.470272654897e-05 
8 1  1.089989442250e-05   4.700557183086e-05  -1.818517302397e-04 
8
Step 5000
1 1  1.239266099407e-05   1.564536777322e-04  -1.606850789167e-06 
2 1  2.209797994049e-04  -1.710175110175e-04  -3.918120712329e-04 
3 1 -1.631578213283e-04   2.709305113997e-04   9.343313503195e-05 
4 1  3.793105051901e-04  -2.692643461864e-05  -2.045898353431e-04 
5 1 -1.196012648369e-04   9.894700448693e-05  -4.374662887883e-05 
6 1 -3.553409635714e-05  -1.808273975859e-04   2.307210584145e-04 
7 1 -2.083193538760e-04   1.587583819430e-04  -1.396926046302e-04 
8 1  7.942814323844e-05  -1.796904311495e-04  -1.883204002115e-04 
8
Step 6000
1 1  4.483819935146e-05  -1.264089745291e-04   2.675631440437e-05 
2 1  2.346258875012e-04  -6.927389490109e-05  -2.749957206196e-04 
3 1 -1.767947155554e-04   2.406848372918e-04  -1.109512526748e-05 
4 1  2.818443988300e-04  -5.756236395257e-06  -3.808722690850e-04 
5 1 -6.992136221270e-05   2.584455642077e-04   3.444005213868e-05 
6 1 -1.296931324214e-04  -3.958315452214e-05   2.444097345531e-04 
7 1 -7.144732925184e-05  -2.456867762100e-05  -1.033629321080e-04 
8 1  5.098781372042e-05  -2.451374242610e-04  -1.063167178812e-04 
8
Step 7000
1 1  1.962392374333e-04  -2.597931412866e-04   3.804907859404e-05 
2 1  1.212566309376e-04  -3.618984657858e-05  -4.727360179570e-05 
3 1 -2.247657034792e-04   1.141903862929e-04  -1.363419125811e-04 
4 1  5.862028897696e-05   2.253069876484e-04  -1.928750748320e-04 
5 1  3.159878187765e-05  -1.840541887963e-05  -7.600449865802e-05 
6 1 -1.938700550757e-04   8.035093248232e-06   9.855236607816e-05 
7 1 -8.414365198959e-05  -1.201302538183e-04  -1.708516464663e-04 
8 1  2.413070135745e-04  -5.651258228871e-05   2.402612356435e-05 
8
Step 8000
1 1  2.964120937764e-04  -1.972005381960e-04   4.633314415548e-05 
2 1  1.570648547705e-04   3.355288699269e-05   5.901971586418e-05 
3 1 -1.280041380855e-04   6.972193132061e-05  -3.323966987791e-04 
4 1 -4.312332078765e-05   1.565727504457e-04  -1.149714781285e-04 
5 1 -5.239395089307e-05   1.097093617461e-04  -2.053742140178e-04 
6 1 -2.219208256250e-04   4.124484746925e-06   1.691298934625e-04 
7 1 -6.494703221786e-05   1.430810698575e-06  -1.358860730552e-04 
8 1  9.731752615553e-05   1.481144904956e-04   1.437092621410e-04 
8
Step 9000
1 1  5.235333208923e-05   1.347897551732e-04   8.057222080994e-05 
2 1 -1.160641465831e-05   7.784748541603e-05   5.743723717546e-05 
3 1 -1.029779916462e-04   1.339332619946e-04  -3.016180157168e-04 
4 1 -6.938000340448e-05   1.107446511580e-04  -1.106373109118e-04 
5 1  1.584019824851e-04  -5.409972300661e-05   1.447886877279e-05 
6 1 -1.716341237270e-04   8.704570234391e-05   1.272815100425e-04 
7 1 -1.123207894141e-04  -1.069721771311e-04  -1.113336911398e-04 
8 1 -1.832510200937e-04   3.043535649870e-04   6.659122542562e-06 
8
Step 10000
1 1  8.493020444663e-05   1.907354305125e-04   4.121130429987e-05 
2 1 -5.472002894381e-06   1.564736284107e-04   1.474788028603e-05 
3 1 -1.142312316279e-04   1.190684131408e-04  -2.698072515050e-04 
4 1 -1.507523054735e-04   2.241988625971e-04  -5.482185041708e-07 
5 1  9.506122414757e-05  -5.354824929488e-05  -6.923459793174e-05 
6 1 -5.126764727727e-06   4.226578524250e-05   1.805853993325e-04 
7 1 -9.953088800917e-05  -2.523588103841e-05  -7.385396467097e-05 
8 1 -2.111573414648e-04   1.290651798005e-04   1.345482741446e-04 
8
Step 11000
1 1 -8.472935039779e-05   5.973698934897e-05   1.033006090088e-04 
2 1 -1.071395792355e-04   5.912072351383e-05   9.956934241759e-05 
3 1 -1.624760792543e-04   1.753329441736e-04  -1.876782775782e-04 
4 1 -8.962229361811e-05  -3.613366531728e-05  -2.486319828511e-04 
5 1 -1.039875885487e-04   7.297948315622e-05   8.695859635141e-06 
6 1 -1.315912929372e-04  -1.123561173517e-04   1.549764522047e-04 
7 1 -9.913519834695e-05  -9.533569041192e-06  -4.169570800981e-05 
8 1  6.707241931645e-05   8.742819683367e-05   1.883468352528e-04 
8
Step 12000
1 1  8.332375317133e-05  -1.133603785595e-04   3.070273220949e-04 
2 1  8.825317011830e-05  -6.659306924273e-05   2.200075881037e-05 
3 1 -2.152283538141e-04   2.312242094554e-04  -7.587763709489e-05 
4 1 -1.383922356048e-04   2.906488419268e-04  -2.983738953457e-04 
5 1 -1.906617565709e-04   1.840801999232e-04  -2.818457017831e-05 
6 1 -8.037321199532e-05   6.008841455358e-05   9.474919648110e-05 
7 1 -9.190807527919e-06   1.066518884896e-04   3.212044583906e-05 
8 1  9.560073897482e-05   7.483481717596e-07   1.147318620909e-04 
8
Step 13000
1 1 -6.227886022991e-05   4.451375718598e-05   2.473088579986e-04 
2 1 -1.225498793184e-04   2.154796123472e-04   1.750393232713e-04 
3 1 -3.400872060141e-04   1.084625543666e-04  -1.015831557695e-04 
4 1 -2.853884467623e-05   6.271583245552e-06  -1.709346009275e-04 
5 1 -2.187573383822e-04   2.772505600423e-04   1.180952266673e-04 
6 1  1.996499939497e-05   6.163064635295e-06   1.806253389167e-04 
7 1 -1.936150154037e-04   3.356576700297e-04  -8.297884113469e-05 
8 1  1.031023681132e-04  -5.023796332348e-05   3.996679895405e-05 
8
Step 14000
1 1 -5.719610659939e-05   2.560440712895e-04   2.606839649727e-05 
2 1 -1.703285415664e-04   2.673574183873e-04   5.146745442372e-05 
3 1 -2.391982899944e-04   5.874404056219e-05   1.191472391124e-04 
4 1 -9.424164260565e-05   4.576177133157e-05  -1.332203507779e-04 
5 1 -1.574361274616e-05   1.263494520230e-04   3.652997277287e-05 
6 1  2.098234052637e-06  -1.627293527742e-04   5.715047527238e-05 
7 1 -2.483032332366e-04   2.734507564088e-04   8.482147037238e-05 
8 1  6.685843698691e-05   1.061204736460e-04   2.023227464792e-04 
8
Step 15000
1 1 -2.452623456665e-04   1.911723151757e-04   1.298432644000e-04 
2 1 -2.874884257473e-04   3.132669535050e-04   1.361800540429e-04 
3 1 -1.363575364443e-04  -5.242568470726e-05  -1.172244021983e-04 
4 1 -2.123867744023e-04   5.307143379959e-07  -2.921705179232e-05 
5 1 -1.056834098628e-04  -1.288373055201e-04  -3.357213519352e-06 
6 1 -3.099723175195e-05  -2.548054182005e-05   1.500516384953e-04 
7 1 -1.325564204461e-04   2.134794939607e-04   1.318202720402e-04 
8 1  1.115677928009e-04   4.297634871189e-05   2.247230424037e-04 
8
Step 16000
1 1  1.963432113668e-05  -5.466000998918e-05   1.033134190904e-04 
2 1 -3.029530082740e-04  -1.437826194616e-05   2.219149816698e-04 
3 1  1.117151199564e-04   7.553249814023e-05  -9.957879882739e-05 
4 1 -3.216187930907e-04   8.251249207075e-05  -1.264202966341e-04 
5 1 -8.212272903379e-05   2.219014996194e-05  -6.428351633758e-05 
6 1  7.214225889074e-05  -3.406930568710e-05   2.338280339102e-04 
7 1 -9.073252331940e-05   1.987490988337e-04   4.135234460878e-05 
8 1  1.332885728257e-04   1.226740582996e-04   2.489818281424e-04 
8
Step 17000
1 1 -1.947386567476e-04  -1.533946840587e-05   2.008166443370e-04 
2 1 -2.098897519807e-04   4.799070871166e-05   2.517017829821e-04 
3 1  8.740715851029e-05  -1.496305750716e-04  -7.315639708280e-05 
4 1 -3.108094725038e-04   1.994325589992e-05   1.283907554660e-04 
5 1 -7.435101190883e-06  -5.405881353066e-05  -8.805517127414e-05 
6 1 -2.496178187762e-04   2.089087111532e-04   1.415572592155e-04 
7 1  3.610922735204e-05   7.010756781515e-05  -5.615552692004e-05 
8 1  8.070022351277e-05   2.086869418433e-04   1.539220605114e-04 
8
Step 18000
1 1 -8.684324578617e-05   1.390822671405e-04   1.091501289914e-04 
2 1 -2.720383191682e-04   2.006413083259e-04   2.645115800823e-04 
3 1  1.518130107830e-04  -9.255837495036e-05  -1.309850966894e-04 
4 1 -9.474150586164e-05  -2.216628857137e-06   1.844701859391e-04 
5 1  3.685687580703e-05  -6.506429677719e-05   7.389530737570e-05 
6 1 -3.020129107948e-04   1.949588924993e-04   4.180888643487e-05 
7 1  5.765293749432e-05   7.718630841858e-05  -7.352606993852e-05 
8 1  1.434215968396e-04   2.466427601450e-04   1.945098697962e-04 
8
Step 19000
1 1 -4.432209502792e-04   3.241315621193e-04   4.717968844656e-05 
2 1 -5.339305298776e-05   2.668443247354e-04   2.881338226433e-04 
3 1  2.000996286789e-04  -3.763016485476e-04  -1.042188474053e-04 
4 1 -3.513209447870e-04  -1.526614888995e-04   5.154853230483e-05 
5 1 -4.856996806694e-05  -2.895912183767e-04   3.798263939251e-05 
6 1 -2.708229009380e-04  -1.704495843547e-04   7.632188975482e-05 
7 1  2.149604881885e-05   1.112385660286e-04  -3.599901164886e-05 
8 1  6.172079563825e-05   3.928224175598e-04   3.532695285548e-04 
8
Step 20000
1 1 -1.393959197122e-04  -5.850683843700e-05   4.808699114215e-05 
2 1 -1.265398110952e-04   1.433313315870e-04   1.327513294103e-04 
3 1  2.740603079657e-04  -2.185311879535e-04  -7.953393074460e-05 
4 1 -1.225498078249e-04   5.890364886107e-05   2.942369320916e-05 
5 1  4.792589197592e-05  -2.123211433506e-04   1.247620136928e-04 
6 1 -2.611231021968e-05  -3.944537289835e-05  -9.974844226940e-05 
7 1  7.068166161390e-06   1.364555912841e-04   2.022633174517e-05 
8 1  8.488451291354e-05   1.133365638821e-05   2.563444602547e-04 
8
Step 21000
1 1 -2.484093858431e-04   2.068760919292e-06   8.252976511202e-05 
2 1 -1.031361732620e-04  -9.335309918447e-06   1.640631766564e-04 
3 1  3.360377455260e-04  -2.414810844942e-04   1.596038172995e-04 
4 1 -2.611340311267e-04   4.892109636531e-05   8.477603366158e-05 
5 1  5.096092083154e-05  -3.060614243980e-05   1.255221866294e-04 
6 1  9.599409940645e-05  -1.322950792095e-04  -2.581940757895e-04 
7 1 -1.894936575766e-04   2.388113258780e-04  -1.368796305454e-04 
8 1  2.101023904649e-04  -9.124323262375e-05   2.035042824624e-04 
8
Step 22000
1 1 -6.382753045780e-05   9.351983978601e-05   6.551610160175e-05 
2 1 -6.478354233527e-05  -8.617291698702e-05   1.387967075350e-04 
3 1  4.117337306936e-04  -2.298608769372e-04   2.486460078083e-05 
4 1 -2.123305189857e-04   1.579520541725e-04   3.683370810756e-05 
5 1 -4.939634432098e-05  -2.581101950571e-05   7.868103038261e-05 
6 1  2.878878686255e-05  -1.123273246097e-04  -1.797606739975e-04 
7 1 -7.568139194959e-05   1.791495501568e-04  -7.754999530174e-05 
8 1  2.870370131495e-04   1.406899957856e-06   3.256001991862e-05 
8
Step 23000
1 1 -4.030868628654e-05   3.452461159677e-04   1.072211244481e-04 
2 1 -6.892235194267e-06   6.063765083697e-05   5.514582136998e-05 
3 1  3.752919680717e-04  -2.921491055481e-04   1.162428921638e-04 
4 1 -2.816776192711e-04  -1.854596733805e-04   1.735433441187e-04 
5 1 -4.301386687824e-05  -2.636752916592e-05   4.653120100707e-05 
6 1  1.298243250865e-04  -1.901975095390e-04  -1.146850600980e-04 
7 1 -1.801581618687e-04   2.260564227763e-04  -1.342751354279e-04 
8 1  1.764210970459e-04   1.271971952588e-04  -6.490120055595e-05 
8
Step 24000
1 1  6.233177239011e-05   5.455604866319e-05  -1.316594977470e-04 
2 1 -4.926632592150e-05   3.026462881155e-05   9.100318474737e-05 
3 1  3.365771017145e-04  -1.595206145103e-04   1.275790075507e-04 
4 1 -1.610078368801e-04  -1.266371950587e-04   5.110920079877e-05 
5 1  1.634222252779e-04   2.715726712205e-05  -7.690032159978e-05 
6 1 -6.593856013953e-05  -2.043927652892e-04  -1.003236206751e-05 
7 1 -4.943901804058e-06  -1.463743851596e-04  -1.500592423962e-04 
8 1  2.127215242829e-04  -2.589373866958e-05   1.606352664941e-04 
8
Step 25000
1 1  2.625442779811e-04  -1.637292696089e-04  -1.168126908672e-05 
2 1 -3.479857878681e-04   2.635131669806e-05  -1.334716657781e-05 
3 1  2.633564178248e-04  -2.259301278963e-04   1.829127612640e-04 
4 1 -1.345789601228e-04  -6.972962659064e-05   3.166062677575e-04 
5 1  1.273095507613e-04  -1.610873344276e-04  -1.505976846727e-04 
6 1 -2.819865715874e-05  -9.043202635529e-05  -1.269078421470e-04 
7 1  5.070365564374e-05  -1.701841357363e-04  -2.827999575099e-04 
8 1  1.427327604541e-05  -1.065187790955e-04  -4.493981545284e-05 
8
Step 26000
1 1  2.291872039598e-04  -1.036361900297e-04  -1.311792865605e-04 
2 1 -5.765899230263e-05  -1.171487152869e-04   1.171843408306e-04 
3 1  2.932202773418e-04  -9.791459017990e-05   2.271983283689e-04 
4 1 -1.268914440171e-04   2.895646997781e-05   1.513896984887e-04 
5 1  7.003466785610e-05  -9.805925753007e-06  -2.194801646245e-04 
6 1 -4.239708168245e-06  -1.303120898939e-04  -9.888426546896e-05 
7 1  7.575088860043e-05  -1.077321888603e-04  -3.077350592162e-04 
8 1  1.945785040175e-04   8.258856656151e-06  -7.865002497805e-05 
8
Step 27000
1 1  3.673649117748e-04   2.065454049317e-05  -1.422138204353e-04 
2 1 -1.902453888393e-04   1.972616723182e-06   4.002226412656e-05 
3 1  3.319180551434e-04  -1.329433920946e-04   1.363131520764e-04 
4 1 -1.443076675920e-04  -1.512102133062e-05   2.142279294229e-04 
5 1  1.248780327637e-04  -2.628973588582e-04  -1.396002206005e-04 
6 1 -5.765085835247e-06   3.286074612906e-05  -1.569609217811e-04 
7 1  1.297958496152e-04  -1.538699507843e-05  -1.905605014796e-04 
8 1  1.301978070379e-05   3.913819569955e-05  -1.555421461689e-04 
8
Step 28000
1 1  5.648146129586e-05   8.856809257005e-05  -3.316294655574e-04 
2 1 -4.662360461011e-05  -1.694615779908e-04  -1.200318286496e-05 
3 1  3.668452376128e-04  -9.127206713116e-05   4.495573090470e-05 
4 1  1.292254877478e-04   6.238897731303e-05   2.656711380657e-04 
5 1  7.918746484058e-05  -1.755218786488e-04  -1.352250632905e-04 
6 1 -8.634204324942e-06  -1.397770091648e-04  -1.456211244562e-04 
7 1 -1.477586265988e-05  -9.447835119860e-05  -7.104552092019e-05 
8 1  5.360930695379e-05  -8.437895807130e-05  -2.624844861754e-05 
8
Step 29000
1 1  3.146327095412e-05  -1.287405358762e-04  -2.865218271886e-04 
2 1 -1.677548720514e-04  -3.846865785223e-05   4.150386005193e-05 
3 1  2.722146968802e-04   1.871226798467e-05   2.758577283621e-05 
4 1  2.445264216857e-05  -2.209721863359e-05   2.430665095498e-04 
5 1  4.251785113136e-05  -9.464252112827e-05  -4.649706609150e-05 
6 1  8.909002271622e-05  -2.767741076923e-04  -1.613774729099e-04 
7 1 -5.401535123860e-05  -6.339764449354e-05  -1.534405682557e-04 
8 1  1.428366614247e-04  -9.241257246971e-05  -7.757473155016e-05 
8
Step 30000
1 1  2.044909045029e-05  -3.407004564249e-04  -4.412696767798e-04 
2 1 -4.451963382669e-05   5.944908849743e-06  -2.108974158400e-05 
3 1  3.268725841265e-04  -5.751098981232e-05   1.131687062711e-04 
4 1  2.386849406611e-07   5.573459267841e-06   1.447826405595e-04 
5 1 -2.670554351305e-05  -1.340606865903e-04  -9.109369976372e-05 
6 1 -2.586193120271e-05  -3.730200264071e-04  -2.995542212305e-04 
7 1  6.753726266844e-05   8.585413063926e-05  -1.275960915325e-04 
8 1  9.421169321917e-05  -1.778888961958e-04  -2.219647820229e-04 
8
Step 31000
1 1 -7.446585800497e-06  -2.799804823388e-04  -3.342994773056e-04 
2 1  2.180591835129e-05  -3.288920618909e-05   1.937987463029e-05 
3 1  2.818798086779e-04   5.857027712250e-05   9.688495206186e-05 
4 1  2.027609865205e-05   1.806723687209e-05   2.009860047999e-04 
5 1  8.985411716615e-05  -7.647239842208e-06  -1.252038047582e-04 
6 1  7.665632021928e-05  -2.018469053295e-04  -3.282964203874e-04 
7 1  4.805961239317e-05   1.856323222942e-04  -1.955503237614e-04 
8 1  1.235027422049e-04  -1.425761170009e-04  -1.792580998781e-04 
8
Step 32000
1 1 -1.179095182055e-04  -4.169111904138e-05  -4.032112119593e-04 
2 1 -1.818603613055e-05  -1.157440337337e-04  -2.257812604361e-04 
3 1  5.232844298060e-04  -1.340340157754e-04   1.496584375214e-04 
4 1  1.239386177304e-04   1.351013702655e-04   1.797132074749e-04 
5 1  4.204883765980e-05   1.460273899376e-04   1.913708108233e-05 
6 1 -8.547282146355e-06  -2.237726257217e-04  -2.033712584404e-04 
7 1 -8.983053763815e-05   1.988235168688e-04  -7.962121665451e-05 
8 1  1.873841487368e-04  -1.961957768380e-04  -4.363395770940e-05 
8
Step 33000
1 1 -1.586417005499e-04  -1.634639334910e-06  -2.168101407200e-04 
2 1  1.221277059936e-05  -1.023874125548e-04  -3.689087877363e-04 
3 1  3.140567847618e-04  -4.002197105222e-06   6.855451822926e-06 
4 1  1.558513856831e-05   9.419585115646e-05   1.226291748238e-04 
5 1  3.642894069475e-05  -9.651617595710e-05  -4.056059740595e-05 
6 1  2.519149633212e-05  -3.215542397719e-04  -6.900483027224e-05 
7 1  9.967688737382e-05   5.607175667074e-05  -7.042184504652e-06 
8 1 -4.053400352354e-05  -1.350199040807e-04   4.805031144676e-06 
8
Step 34000
1 1 -1.079556699550e-04  -5.192661811092e-05  -2.962708922594e-04 
2 1 -1.174112541676e-04  -9.698409161015e-05  -2.488398749851e-04 
3 1  1.516354507512e-04  -9.416844101492e-05  -2.031280568236e-05 
4 1  1.448144294757e-04  -1.506733209918e-04   2.326211795015e-04 
5 1  9.548198767543e-05  -1.471527266221e-04  -3.567319931436e-05 
6 1  2.420417773759e-06   3.833492687832e-05  -1.356533108655e-04 
7 1 -6.116082186565e-05  -8.594706131485e-05  -1.701429243922e-04 
8 1 -1.054319469126e-04  -1.253758333244e-04  -8.320808439967e-05 
8
Step 35000
1 1  1.394998000202e-04  -2.012035158404e-04  -6.499859310034e-07 
2 1 -1.833840946922e-04  -7.339984562885e-05  -2.131384810121e-04 
3 1  6.630531787455e-05   4.821776234562e-05  -2.498509620943e-05 
4 1  1.810106964921e-04   1.463044118825e-04   1.308247696814e-04 
5 1  1.359765630135e-04   4.612028758115e-05  -2.043469059179e-04 
6 1  1.096033640734e-04  -2.042132653037e-05  -1.539903290891e-04 
7 1  8.786771381514e-05   2.405167398914e-05  -1.527868534532e-04 
8 1 -1.051135090147e-04  -5.829672538155e-05  -1.253482852438e-04 
8
Step 36000
1 1  8.592319726334e-05  -1.282410997813e-04  -1.149886125171e-04 
2 1 -3.904292951862e-05  -7.823358254710e-05  -2.126155944875e-04 
3 1 -1.402666128210e-04   8.268981878560e-05  -9.055349917594e-05 
4 1  1.621044114599e-04  -4.435909317749e-05   1.814539658302e-04 
5 1  1.432161944507e-04   1.201253320377e-04  -1.616919676238e-04 
6 1 -3.858095580494e-05   1.694828002066e-04   4.147568943538e-05 
7 1  6.396809743326e-05   3.879555645063e-06  -7.191265981139e-05 
8 1 -2.200183484615e-04  -1.398818949423e-04  -1.677086491392e-04 
8
Step 37000
1 1  2.294718132308e-04   1.074764684067e-05  -5.433773937225e-05 
2 1 -2.527890089738e-04  -2.325210619800e-05  -1.106978014608e-04 
3 1 -1.985798731322e-04   1.340638910981e-04  -1.887020248894e-04 
4 1  1.878527313204e-04  -3.198486558624e-05   1.085481912743e-04 
5 1  4.576074108521e-05   8.782225804598e-05  -8.085550006003e-06 
6 1  1.011516613819e-05   8.526823544291e-05   2.239584869640e-04 
7 1  9.092108276363e-05  -2.172302817609e-05   1.173009831683e-04 
8 1 -9.191698460148e-06   2.281656462226e-05  -1.687222318131e-04 
8
Step 38000
1 1  1.645001530329e-04   2.239120521434e-04   2.413338642710e-06 
2 1 -1.482241709895e-04  -2.222182475815e-04  -3.554330483210e-04 
3 1 -2.425046870873e-04   1.205991625689e-04  -1.687743702887e-04 
4 1 -1.971292724264e-05  -5.224955024157e-05   6.108866970188e-05 
5 1 -3.038856180649e-05  -8.698147305782e-05  -7.184222102044e-05 
6 1  3.646352795395e-05  -1.790099416726e-04   2.360348977875e-04 
7 1  1.122764114998e-05   1.528293413850e-04   3.396109526975e-04 
8 1 -2.219420151392e-04  -1.000509906905e-04  -1.819233729346e-04 
8
Step 39000
1 1  1.891802998430e-04  -3.400950864468e-05   5.725792941943e-05 
2 1 -5.531811993182e-05  -9.769283768051e-05  -1.204900131823e-04 
3 1 -2.594088041137e-04   1.025889564491e-04  -6.622229362958e-05 
4 1  1.299746104918e-05   1.405952321717e-04  -2.253916578739e-04 
5 1  1.797610138717e-04   1.144088674251e-04  -6.280127627301e-05 
6 1  1.845032418958e-05  -1.249167241690e-04   8.200638123249e-05 
7 1 -1.648651132371e-04   1.429403509141e-04   1.069454099113e-04 
8 1 -1.090380070532e-04  -1.306171327629e-04  -9.073794918652e-05 
8
Step 40000
1 1  1.791967539728e-04  -8.063394578139e-05   5.410241348580e-05 
2 1  1.771539104189e-05   5.704587231052e-05  -1.564224063066e-04 
3 1 -1.737093768751e-04   3.674116457246e-04   4.906867463095e-05 
4 1 -3.834174339336e-05   2.813750820798e-04  -1.697396426219e-04 
5 1 -5.656606429381e-05   1.914672072317e-04  -1.624216642638e-04 
6 1  2.854554308988e-04  -2.007266628178e-04   6.551437921884e-05 
7 1 -1.213657630843e-04   1.468062217749e-04   2.381958884007e-04 
8 1 -2.858980267016e-04  -7.799634322006e-05  -2.664455588962e-05 
8
Step 41000
1 1  5.173510235695e-05  -2.118646347774e-06  -1.501889190874e-05 
2 1  1.879209582634e-04   1.763439786298e-04  -4.614670242919e-05 
3 1 -1.935246305920e-04   2.289741365392e-04  -4.563707972160e-06 
4 1  4.941277952643e-05   1.491790156498e-04  -1.298957798088e-04 
5 1  1.721632103424e-05   9.689542923767e-05   4.519262378025e-05 
6 1  1.406283441134e-04  -3.125191177328e-05   1.681694742661e-04 
7 1 -6.904306763127e-07   2.748865518726e-04   1.752868792896e-04 
8 1 -9.896178066503e-05  -1.153477795802e-04   4.139760837586e-05 
8
Step 42000
1 1 -2.327847414125e-04   1.619131951495e-04  -8.971109777014e-06 
2 1  4.634523309533e-05   1.719470891457e-04  -1.566675947218e-04 
3 1 -1.172561355082e-04  -4.628403120570e-05   4.554396167004e-06 
4 1 -4.829109564191e-06   1.026197729133e-04  -1.310939890004e-04 
5 1 -9.573515779027e-05   2.589792430510e-05  -4.250602426386e-05 
6 1  1.299878424611e-06  -1.722173097037e-04   1.733090010175e-04 
7 1 -2.882918139342e-05   1.425154112725e-04   1.703756622926e-04 
8 1 -2.518002537627e-04  -6.417808561509e-05   3.229779737978e-04 
8
Step 43000
1 1 -2.390794591023e-04   1.785163495466e-04   1.576632231635e-04 
2 1  4.674950251762e-05   2.082331537733e-05  -1.516981525974e-04 
3 1  7.331315448875e-05   2.404877062571e-05  -1.001140792286e-05 
4 1  2.273511966491e-04   4.236977934371e-05  -2.897902342958e-05 
5 1 -1.414500690150e-04   4.113169185266e-05  -2.270561872310e-04 
6 1  5.207908179202e-05  -5.512020853947e-05   1.441048019460e-04 
7 1  6.375339367603e-05   4.048010427899e-05   3.053410726043e-04 
8 1 -2.752447657798e-04   1.157738298774e-04   6.521739199464e-05 
8
Step 44000
1 1 -7.810745087987e-05   2.664579668079e-04   2.898763677073e-04 
2 1  2.157181318248e-04   1.403957385561e-05   1.544818222096e-05 
3 1 -2.510726127554e-04   1.600671709535e-04  -1.876295678656e-04 
4 1  1.833256422849e-04   1.314828585734e-04  -4.279722683603e-05 
5 1 -1.487438891091e-04   8.081754168398e-06  -3.529818554437e-04 
6 1 -1.412869827479e-04  -2.688121800119e-05   8.862562246397e-05 
7 1  2.806765577657e-05  -1.228399439098e-04   1.791251799244e-04 
8 1 -2.811026345908e-04   9.739681254441e-06   1.008594357595e-04 
8
Step 45000
1 1 -1.360433657917e-04   2.563092957474e-04   3.021588323122e-04 
2 1  2.069002156042e-04  -3.876715522389e-05  -5.092171336898e-05 
3 1 -5.504798343128e-05   2.152566837438e-04   4.531858318114e-06 
4 1  2.083882906691e-04   1.564922548140e-04   1.168264458047e-04 
5 1 -1.484514302726e-04   6.630687445187e-05  -2.342141369404e-04 
6 1  1.678344977970e-04   4.517900119230e-06   2.987783713373e-04 
7 1  1.616656865076e-04   6.734700450611e-05   2.048021797122e-04 
8 1 -2.672439941294e-04   2.190664138908e-04  -1.178975855388e-04 
8
Step 46000
1 1 -9.547928180958e-05   1.432511137962e-04   1.105765057708e-04 
2 1  9.211684735729e-05   7.644722730449e-05  -5.586099220391e-07 
3 1 -2.163192864059e-04   2.143737330731e-04  -2.391225058034e-05 
4 1  1.548559949662e-04  -1.348704785795e-04   1.828127706720e-05 
5 1 -1.204673577657e-04   9.959196973070e-05  -1.079812963287e-04 
6 1  2.071866852363e-05   1.385602134986e-04   2.257104443006e-04 
7 1  3.003552882828e-06   9.709562673580e-06   3.468656886654e-04 
8 1 -2.154162037979e-04   1.774734361536e-05   5.583182509154e-05 
8
Step 47000
1 1 -1.723411767521e-04   1.180958768155e-04   2.413433026084e-04 
2 1 -8.186677837489e-05  -8.852619189902e-05  -1.612094491217e-05 
3 1 -1.137403268528e-04   7.704998499270e-05  -3.962082481931e-05 
4 1  1.854514756463e-04  -2.359153527000e-04  -4.704617504109e-05 
5 1 -1.171386025752e-04   1.192854066284e-04  -2.049456641731e-04 
6 1  2.984428428371e-05   1.822898212329e-04   3.150651238987e-04 
7 1  6.091813277561e-05   1.378105314811e-05   2.756704313141e-04 
8 1 -1.336814678406e-04  -1.177246881180e-04   6.648653201721e-06 
8
Step 48000
1 1 -3.194514704417e-05   2.673354588278e-05   4.151142964556e-04 
2 1  5.046001702559e-05   1.198237540625e-04   5.924057699248e-05 
3 1 -4.047143181413e-05   4.552430693593e-05   3.937186165364e-05 
4 1  6.606905887028e-05  -1.883571579652e-04  -3.516665678026e-04 
5 1 -9.928038864338e-05   8.293834327163e-05  -3.152564730405e-06 
6 1  4.043609765582e-05   7.423003085087e-05   2.662466906125e-04 
7 1 -4.299894249901e-05   1.924720000172e-04   5.399614078828e-05 
8 1 -2.874893236072e-04  -2.364826334466e-04  -1.351369529965e-04 
8
Step 49000
1 1  8.744699834854e-05   1.373595289891e-06   3.564922316887e-04 
2 1  1.687165614205e-04   6.805409646391e-05   1.340256297619e-04 
3 1 -1.790893992056e-04  -4.674975690255e-05  -8.273461914829e-05 
4 1  7.825147436708e-05  -7.332899087074e-05  -2.675494203772e-04 
5 1 -7.957765699615e-06   1.602438138191e-04  -2.782458833488e-05 
6 1 -3.205799721809e-05   6.613377461687e-05   3.723099769755e-04 
7 1  1.725963292240e-04   2.805246541519e-04   8.401465583471e-06 
8 1  5.755122113021e-06  -1.920295788685e-04  -1.571907801526e-04 
8
Step 50000
1 1  4.615601260359e-05  -2.161930218999e-04   2.150814900267e-04 
2 1  8.908534927712e-06  -5.227475637249e-05   1.551388348802e-04 
3 1 -1.809229777396e-04  -7.420991191590e-05   1.217142783020e-05 
4 1  1.091438799592e-04   2.148645969696e-05  -1.242344789587e-04 
5 1  4.529656844706e-06   1.224648886220e-04  -6.375770224079e-05 
6 1  8.571583277161e-05   6.082888764746e-05   3.333749439862e-04 
7 1  8.585054394206e-06   2.626725851661e-04   1.958373053244e-05 
8 1 -7.771277658533e-05  -5.855784399593e-05  -1.188551780281e-04 
8
Step 51000
1 1 -1.165733334524e-04  -4.196380328017e-04   1.241663754630e-04 
2 1  2.021830635656e-04   6.131574352877e-06   1.631341036043e-04 
3 1 -3.991166583902e-04  -1.744521247943e-04  -1.258241987138e-05 
4 1  5.292495274777e-06   4.763424472995e-05  -2.253167618805e-04 
5 1 -4.712173609368e-05  -2.424514754605e-05  -6.372432083806e-05 
6 1  1.325112043788e-04   1.307831272295e-04   3.579364393869e-04 
7 1  2.500976283283e-04   2.775651410089e-04   9.641552017447e-05 
8 1  6.965740736691e-07  -1.366866036266e-04   1.673911156954e-04 
8
Step 52000
1 1 -2.878168494130e-05  -3.247168536826e-04   9.494467966429e-05 
2 1  2.137044597139e-04  -2.747828224965e-06   1.170696793162e-04 
3 1 -2.105744559064e-04  -1.942425708323e-04   3.008745034780e-05 
4 1  2.622494350960e-05  -1.384964737169e-04  -9.662558050852e-05 
5 1 -1.956889575027e-04  -8.518782016671e-05  -1.571718046824e-04 
6 1  4.979544460988e-05   2.515909808241e-05   2.098620904195e-04 
7 1  8.236264836247e-05   9.126738531718e-05  -4.541176357755e-05 
8 1 -1.616959177271e-04   7.535019237166e-05  -7.302893953104e-05 
8
Step 53000
1 1  1.711220139095e-06  -2.213569702235e-04   8.207821503650e-05 
2 1  2.340094435175e-04   3.020577033925e-05   1.490058035707e-04 
3 1 -1.493048552636e-04  -1.890718118234e-04  -4.798378505648e-05 
4 1  1.439393361387e-04  -1.841640968257e-04  -5.146190514496e-05 
5 1 -2.396012766392e-04  -1.936663761755e-06  -1.867386199670e-04 
6 1  2.476383902514e-04   1.799429498240e-04   7.204100552630e-05 
7 1  1.659083850187e-04  -3.926500447662e-05   1.940032136672e-05 
8 1 -4.053327808821e-06  -3.130217334668e-06  -8.352019333336e-05 
8
Step 54000
1 1 -6.683105416890e-05  -2.722295195283e-04  -4.401262496053e-05 
2 1  2.848191665720e-04  -1.827752689432e-04   1.262265650827e-04 
3 1 -1.121973737611e-04  -1.405526476910e-04   8.254126976701e-05 
4 1  2.239499380111e-04  -4.197909040109e-05   2.323821362001e-05 
5 1 -2.017570644324e-04   3.299336141767e-05  -1.710246282319e-04 