8
Step 0
1 1  0.000000000000e+00   0.000000000000e+00   0.000000000000e+00 
2 1  0.000000000000e+00   0.000000000000e+00   0.000000000000e+00 
3 1  0.000000000000e+00   0.000000000000e+00   0.000000000000e+00 
4 1  0.000000000000e+00   0.000000000000e+00   0.000000000000e+00 
5 1  0.000000000000e+00   0.000000000000e+00   0.000000000000e+00 
6 1  0.000000000000e+00   0.000000000000e+00   0.000000000000e+00 
7 1  0.000000000000e+00   0.000000000000e+00   0.000000000000e+00 
8 1  0.000000000000e+00   0.000000000000e+00   0.000000000000e+00 
8
Step 1000
1 1  2.388631495631e-04   1.923417983393e-04  -9.022021742043e-05 
2 1  2.535467971269e-04  -2.298224276303e-04  -1.207436839301e-04 
3 1 -1.400073164257e-04   1.030208545345e-04   1.278199991314e-04 
4 1  1.247451606394e-04   2.276662296466e-05  -2.796880711581e-04 
5 1 -6.816623901961e-05  -6.781391447216e-05   2.529967634632e-04 
6 1  1.104598498722e-04   2.291593766574e-04   1.780392712124e-04 
7 1 -9.392399681115e-05   8.030221554530e-05  -1.157909720961e-04 
8 1 -7.923123422626e-05   1.699028173247e-04  -4.787084325676e-05 
8
Step 2000
1 1  8.530202854702e-06  -7.415047413353e-06   2.374298036810e-05 
2 1  2.135144634249e-04  -1.834742559086e-04  -2.185646474412e-05 
3 1 -1.095400829846e-04  -1.859313707359e-04  -1.794780538827e-04 
4 1 -1.368892630385e-05   3.193210909201e-04  -1.807046256413e-04 
5 1  6.392159591164e-05   8.055902248817e-06   2.188891865362e-04 
6 1  9.977131160666e-05   2.177976365087e-04   3.191547645497e-04 
7 1  1.776391494612e-04  -9.932304043529e-05  -1.515281451779e-04 
8 1 -8.096070001193e-05   1.058998748813e-04  -1.505151664984e-05 
8
Step 3000
1 1  1.784340943609e-04  -8.695808821493e-05   1.332716904936e-04 
2 1  1.466688341586e-04  -1.551734277179e-04  -3.415944286112e-05 
3 1 -7.093344033307e-05  -2.679879341246e-04  -1.908768919116e-05 
4 1 -7.724839917744e-05   1.081775057014e-04  -1.635837230595e-04 
5 1  1.640856146756e-04  -1.890554535524e-05  -3.905902359854e-05 
6 1  1.884140124806e-04   2.808104249192e-05   2.745042262966e-04 
7 1  6.397298738237e-05   3.702598896423e-04  -3.827219668287e-05 
8 1 -5.455809324857e-05   5.073311877349e-04   4.014204606022e-05 
8
Step 4000
1 1 -1.572280380317e-04   4.236179138640e-05   2.337829959512e-04 
2 1  8.678029981390e-05  -1.533658765658e-04  -2.781070809184e-04 
3 1 -1.917207684132e-04   6.993155135054e-05   2.013887406532e-04 
4 1  7.963645076308e-05  -8.866762166201e-05  -1.844346719376e-04 
5 1  1.480785725426e-04   9.195606012700e-05   1.429628409924e-04 
6 1  2.722546513023e-04   4.623922123411e-06   2.318900078491e-04 
7 1 -4.839554821839e-05   2.917311073559e-04   7.211420677265e-05 
8 1 -7.891256314038e-05   1.311101313753e-04  -5.239837953480e-05 
8
Step 5000
1 1  1.072390925791e-04  -2.741926394799e-04   3.894081169644e-04 
2 1  9.877150734030e-05  -1.678640398686e-04  -8.131937086760e-05 
3 1 -2.561266721648e-04   7.819550212196e-05   6.555762043274e-05 
4 1  1.367488784516e-04  -2.138724782400e-05  -1.297983998391e-04 
5 1 -1.760710870196e-05   1.328255800776e-04   2.767750430358e-05 
6 1  5.383669493537e-06   9.351360594363e-05   9.072311162610e-05 
7 1  8.331724902360e-05   1.981124356573e-04   7.660706473771e-05 
8 1  1.547459957458e-04   2.309941139745e-04  -2.677634653746e-05 
8
Step 6000
1 1  6.074148779883e-05   1.337906426433e-04   7.784809316126e-05 
2 1 -2.351189109293e-04   1.910489458272e-04   2.084810501912e-04 
3 1 -5.447329144747e-05  -1.503776673746e-05  -2.637846345682e-05 
4 1  6.101401609231e-05  -1.400297629885e-04   1.328286646983e-04 
5 1  2.225618690583e-04  -9.958482056209e-05  -1.651970385748e-04 
6 1 -1.105204099008e-05   2.305436972320e-05   1.160008657757e-04 
7 1 -2.286106036979e-04   1.475605158296e-04  -6.721235984454e-05 
8 1 -3.676365301380e-05   2.420727008584e-04   1.430074903447e-04 
8
Step 7000
1 1  1.421814993485e-05  -2.137593740406e-04   3.245875570615e-04 
2 1 -2.011912945457e-05  -7.420419133777e-05   3.169336337559e-04 
3 1  1.508557900664e-04   4.739148289965e-05  -2.082275341047e-04 
4 1 -1.326593429778e-04   5.583060768680e-05  -1.108240275898e-04 
5 1 -1.671746180645e-04   1.663246544328e-05  -1.759811226390e-04 
6 1 -2.116138980279e-05   4.965032399891e-05   1.290226536157e-04 
7 1 -3.331961042840e-05  -4.961372139766e-05  -1.222647084650e-04 
8 1  1.783177425464e-05   1.149729741916e-04   1.199574105018e-04 
8
Step 8000
1 1 -1.351220438235e-04   1.623907625486e-04   1.704990163900e-04 
2 1  8.646320177671e-06   3.157546621898e-04   1.868469275243e-04 
3 1 -8.155799698846e-05  -1.720417317551e-04   1.011717580892e-04 
4 1  1.382721009489e-04   7.182528381723e-06   5.356818485011e-05 
5 1 -9.411409408743e-05   6.351377313149e-05  -4.137181589251e-05 
6 1 -2.123450504162e-04  -5.068558533831e-05  -2.131619584040e-04 
7 1  1.060279308545e-05  -4.040740811424e-05   2.825333885460e-06 
8 1 -1.022747728314e-04   3.915525918748e-05   2.204039776582e-05 
8
Step 9000
1 1 -3.543026185222e-05   4.467272179364e-05   1.301317954417e-04 
2 1 -3.622473434462e-05   5.805390071125e-05   7.474762677115e-05 
3 1 -3.605660406850e-05   2.515154403768e-05   8.890812908857e-05 
4 1 -1.668085484527e-04   2.966799363073e-05   5.984604251591e-05 
5 1  5.085127126954e-05   9.598224427935e-05  -1.907063639316e-04 
6 1  7.605391072893e-05  -1.351217917931e-04  -1.409558953988e-04 
7 1 -1.822697687763e-04   6.611256481163e-05   4.197591476857e-05 
8 1  1.003280143417e-05  -2.685886312380e-04   6.031611720161e-05 
8
Step 10000
1 1  2.055038496287e-05   2.022299491137e-04   5.722552405907e-05 
2 1 -2.195852907581e-04  -4.978169975155e-07   7.717092924179e-05 
3 1  4.126215597218e-05   5.992177710663e-05   1.196169997244e-04 
4 1 -1.340929367202e-05  -8.874341612373e-05   4.046460977186e-04 
5 1 -9.815802277276e-05   2.833252608546e-04  -3.831150047725e-04 
6 1 -1.328146398368e-04  -2.740394443055e-05  -1.176359389995e-04 
7 1 -1.083715111911e-04  -7.748196819769e-05  -1.100141918829e-04 
8 1  1.333334022847e-04   2.916186812541e-05  -4.888630540677e-05 
8
Step 11000
1 1  5.808848269785e-05  -6.131776508294e-05  -1.936937499844e-04 
2 1 -2.474675516182e-04   2.235611025041e-04   5.343970319779e-05 
3 1 -2.213334130798e-05  -7.572165799922e-05  -7.942646712449e-06 
4 1  1.393270074263e-04  -7.905619980385e-05   2.476293240819e-04 
5 1  1.322592301141e-04  -7.688598920022e-06  -2.348917763873e-04 
6 1 -2.160018444061e-04  -5.702254764949e-05  -6.184642002095e-05 
7 1  4.629516122350e-05  -2.432818376999e-04  -7.154788812855e-06 
8 1 -1.256507732554e-04   8.066780126762e-05   1.340003167162e-04 
8
Step 12000
1 1 -1.443597722255e-04   1.370124628179e-05  -2.054361689354e-04 
2 1 -2.243364814056e-04  -3.192724822526e-05   1.696353564729e-04 
3 1  3.928867063623e-04  -8.685822979010e-05  -1.445605207409e-05 
4 1 -4.774645978899e-05   2.572251756733e-04   3.076725053594e-04 
5 1  1.537480170868e-04  -6.943569320899e-05  -2.800223786810e-05 
6 1 -1.370675138609e-04  -1.744222324366e-05  -2.435666363095e-04 
7 1 -3.292458701075e-05   1.414499468000e-05  -9.860677154044e-05 
8 1  1.960613205662e-04   1.516466135610e-04  -6.125250931484e-05 
8
Step 13000
1 1 -2.971252461148e-04   1.670081288432e-04  -2.008988612355e-04 
2 1 -1.075311270329e-04   1.106440099841e-04  -4.206616511202e-05 
3 1  3.369135162525e-04  -1.341024335234e-04  -7.487041032456e-05 
4 1  1.802660009808e-04  -5.384932595829e-05   2.588751885967e-04 
5 1  1.304914683092e-04   1.658999236185e-04   2.743190020359e-05 
6 1 -9.133875537770e-05  -1.495137542675e-04  -6.683948339551e-05 
7 1 -1.631414711498e-04  -1.237103277435e-05   2.635483879301e-05 
8 1  1.664176681745e-04   5.869933189654e-06   1.203433608260e-04 
8
Step 14000
1 1 -1.106736582729e-04  -1.010509588258e-04  -2.782508707794e-05 
2 1  2.219981571114e-05   1.924633520376e-04  -4.170334326562e-05 
3 1  1.562463307708e-04  -8.615464348324e-05  -1.779673945104e-05 
4 1 -2.120394403249e-06  -1.127380529456e-04   1.982329166294e-04 
5 1  9.074898774355e-05   2.741292080310e-04  -4.838489836275e-05 
6 1 -7.025786912191e-05  -1.313715957208e-04  -9.031131010592e-05 
7 1  1.100396618065e-05   1.282560051355e-04  -7.265222306521e-05 
8 1  1.241594008635e-04  -1.794749216130e-04  -4.321397114331e-05 
8
Step 15000
1 1  5.936555252642e-05   2.547655900746e-04  -1.089550178091e-04 
2 1 -6.823348469854e-05  -5.803520779129e-05  -1.374353288494e-04 
3 1  4.119588821207e-04   2.696727729555e-05  -4.964558700479e-05 
4 1 -2.915700099680e-05   6.292047186299e-05   3.211153158569e-04 
5 1  1.273153050946e-04   1.755823054652e-04  -1.190741647953e-04 
6 1 -8.325394514839e-05   1.206102515615e-04  -1.363877581899e-05 
7 1  6.908577586312e-06  -9.056351595458e-05   1.558559056916e-04 
8 1  1.290953538871e-04  -1.961426631585e-04   1.023839199293e-04 
8
Step 16000
1 1  3.078171019335e-04  -6.067624842181e-05  -1.668223002128e-04 
2 1 -1.067079044471e-04   2.299017898843e-04   1.332357303844e-04 
3 1  1.138436944469e-04   3.807690448344e-06  -1.048578377840e-04 
4 1  7.197921917829e-05   1.454323647353e-06   3.353568736089e-04 
5 1  8.426108360481e-05   7.199763735510e-05  -1.918075681373e-04 
6 1  3.501729045600e-05   1.330119987387e-04  -1.633049858129e-05 
7 1  1.918615724075e-04  -3.229902669397e-04   1.322176618209e-04 
8 1 -9.542641635643e-05  -4.540253819303e-05  -5.940893510147e-05 
8
Step 17000
1 1  1.396387821568e-04  -7.031416379767e-05  -2.053560651121e-04 
2 1  1.033761347200e-04   8.493802923273e-05   1.334181016825e-04 
3 1  2.348608279108e-04  -6.353935370900e-06   8.730531844652e-05 
4 1  1.594998439032e-04   2.918978727349e-04   2.594931026249e-04 
5 1  7.042375132323e-05   4.452943897936e-04  -1.209903920697e-04 
6 1 -7.978750866666e-05  -6.447117139041e-05  -4.608953252034e-05 
7 1  1.861689094018e-04  -1.287451768982e-05   5.244725428401e-05 
8 1  3.418810965719e-05  -2.977600164238e-04   2.067052292493e-05 
8
Step 18000
1 1 -5.075378560088e-05   6.882283004427e-05  -1.637842429891e-04 
2 1  3.725668861485e-05   5.108191463539e-06  -9.891044228289e-05 
3 1  2.839342292706e-04  -8.922705657549e-05   3.393233372740e-05 
4 1  1.417027399367e-04  -1.532837617969e-04   1.380881039801e-04 
5 1  6.649196889732e-05   1.133742011285e-04   1.007528762621e-04 
6 1  3.184626354795e-06  -2.413089607444e-04  -7.740330269510e-05 
7 1 -7.432508788161e-05   1.208852174195e-04   4.674873273289e-05 
8 1  5.289626470849e-05  -1.891602733573e-04  -7.744079970730e-06 
8
Step 19000
1 1 -7.793944764974e-05  -3.545928705474e-04  -6.837113794449e-05 
2 1  2.254873822171e-04   1.003402292136e-04   2.251145071200e-05 
3 1  1.987572692880e-04   8.342029918543e-05  -3.637912156031e-05 
4 1  2.437670757885e-04   1.196623912741e-04   1.179814164928e-04 
5 1  7.998645635235e-05   2.660110666743e-04  -4.433011368041e-05 
6 1  8.369936951990e-05   1.349239821234e-05  -8.433003873954e-05 
7 1  2.166312116678e-05   1.958955927151e-05  -2.143258645591e-05 
8 1 -2.631113487040e-05  -5.095717923943e-05  -1.334139952418e-04 
8
Step 20000
1 1 -1.402804428886e-04   4.151757572048e-05  -8.274236719699e-06 
2 1 -5.227531586569e-05  -1.328237408809e-05  -9.125363241574e-05 
3 1  7.318070896035e-05  -1.728286372040e-04  -2.577489234744e-04 
4 1  1.581768397854e-04  -1.769288204348e-04   1.376421762555e-04 
5 1  8.903130662620e-05  -1.497171984803e-04   1.311404716978e-05 
6 1 -6.562548480873e-05   4.047488863889e-05   2.349763211265e-04 
7 1  1.741790442134e-04   1.418845276053e-04   6.985630194029e-05 
8 1 -1.602078942907e-04   9.774687180257e-05  -5.909396183861e-05 
8
Step 21000
1 1  1.641027524443e-04  -2.298256010200e-04   6.565519513889e-05 
2 1 -1.765706443160e-04  -1.266165499285e-04   9.000196889379e-06 
3 1 -7.757626439258e-05   1.154280220170e-04  -3.003730619912e-04 
4 1  6.067662582504e-05  -1.701713832699e-04  -1.069923322479e-04 
5 1  9.342245095825e-05   3.143039218794e-05  -1.002327689696e-04 
6 1  1.089466446721e-04   1.089084829107e-04   1.437558458201e-04 
7 1  1.615430310890e-04   1.736789707986e-04   2.150032125708e-05 
8 1 -2.060015900767e-04  -4.361419682420e-05  -3.326223697086e-04 
8
Step 22000
1 1 -8.890028975984e-05  -2.425607668757e-04  -1.799445140714e-04 
2 1  4.162337935544e-05   3.834609285263e-05  -2.843706449289e-05 
3 1 -2.743296025311e-04  -1.507641356514e-04  -1.383441388513e-04 
4 1 -3.898863640548e-05  -2.533655236884e-04  -2.737977260086e-04 
5 1 -3.633037172664e-05  -3.325980368653e-06   1.234854412384e-04 
6 1  6.962597484009e-06   4.568328244709e-05   1.909521352437e-04 
7 1 -1.384995435099e-05   2.819431864801e-04   1.879632188959e-04 
8 1 -7.592868579158e-05   2.636919005463e-05  -1.282115214250e-04 
8
Step 23000
1 1  5.371954309606e-05  -2.094546538607e-04   1.049630565381e-04 
2 1 -1.306779865030e-05  -4.086416581767e-06  -2.761601368270e-04 
3 1 -2.225130070578e-04  -1.034163931548e-04  -1.355150827202e-04 
4 1 -9.093061761100e-05   9.724664376085e-06  -2.984892700727e-04 
5 1 -2.105827568882e-04  -1.360549112649e-04  -5.693329510488e-05 
6 1  3.570719283880e-07  -8.013407660160e-05   2.071581798916e-04 
7 1  1.270370309368e-04   1.467407561651e-04  -1.518033615097e-04 
8 1 -8.516216165039e-05   1.161101611268e-04  -1.209565484307e-04 
8
Step 24000
1 1 -6.056975726641e-05  -3.066071812871e-04  -5.643713040786e-05 
2 1  1.873273713148e-05  -1.115925228792e-04  -1.261819429805e-04 
3 1  1.132138007808e-05   1.120513607763e-04   6.996383073016e-05 
4 1 -1.569814482490e-04   6.744391087649e-05  -5.883220905622e-05 
5 1 -1.767586510100e-04  -4.096015900566e-05  -7.215582340728e-05 
6 1 -1.301272864033e-04  -5.790206474567e-05   1.319266903351e-04 
7 1  6.804547044491e-05   1.116169611525e-04   7.407495231913e-06 
8 1 -1.707753064937e-04   3.029114899287e-04  -3.058578890730e-05 
8
Step 25000
1 1 -1.638437128213e-04   6.218125309687e-05   2.075429482841e-04 
2 1  1.918673764774e-04  -5.429375154131e-05   3.383102370296e-05 
3 1 -2.345422892806e-04  -3.856679979218e-05  -1.743109576603e-04 
4 1 -1.135950341349e-04  -1.804262774412e-04  -2.221798513386e-04 
5 1 -1.750209970458e-04  -1.919605876876e-04   3.107956523419e-05 
6 1 -3.450569777494e-04  -2.695269399044e-05  -2.441542665232e-04 
7 1  2.546132124899e-05  -8.521743535644e-05  -8.745964938591e-05 
8 1 -1.397214639632e-04  -2.659510784610e-05  -7.386108485685e-05 
8
Step 26000
1 1  1.591228269611e-04  -1.130674418010e-04   8.345606062401e-05 
2 1 -3.196103348633e-06  -1.197299774092e-05  -4.604131821368e-06 
3 1 -2.457473138521e-04   1.227970098156e-04  -8.715524959632e-06 
4 1  1.513246182463e-04  -2.659589940598e-05  -5.165839273740e-05 
5 1 -2.428956986750e-04  -8.595884689460e-05   8.686370524396e-05 
6 1 -2.761201556427e-04   1.578901662377e-04   9.316831017961e-06 
7 1  7.351373422731e-05   6.252845525964e-05   9.294067238576e-06 
8 1 -1.262419987412e-04  -5.196406020028e-05  -2.318848828696e-05 
8
Step 27000
1 1 -1.491348216965e-04   1.404251327704e-04   1.515275367786e-04 
2 1 -7.011252950634e-05  -6.194750187238e-05   9.709300414400e-05 
3 1 -1.234520594801e-04   6.848815781598e-05   2.145013470274e-04 
4 1 -6.044004098321e-05  -1.902991879046e-04  -1.645236929268e-04 
5 1 -1.202609908917e-04  -2.870426704829e-04  -5.664404028905e-05 
6 1 -1.100922416256e-04  -1.834241037660e-05   5.707458416620e-05 
7 1 -1.526117646984e-04   8.596203734936e-05  -2.201902268307e-05 
8 1  2.459565290813e-05  -2.014479924057e-04  -1.331066768602e-04 
8
Step 28000
1 1  4.771197614141e-07  -9.068798688576e-05   2.690508543729e-04 
2 1  1.821597743858e-04   1.241513009826e-04   2.158328275837e-04 
3 1 -1.918578939356e-04   2.214402497248e-05   1.432249664156e-04 
4 1  1.422849653888e-05  -1.210548258804e-05  -2.983466605546e-04 
5 1  3.372686545873e-05  -1.586043515311e-04  -1.919388540500e-05 
6 1 -1.168257549490e-04   2.028987454961e-05   1.236035288788e-05 
7 1 -7.070703857031e-05  -3.600614362556e-05   7.685213293858e-07 
8 1 -1.015804084492e-04   4.060771073477e-05  -8.285752667959e-05 
8
Step 29000
1 1 -1.338553100684e-04  -1.324828857362e-04   9.063423933392e-05 
2 1 -1.342870861662e-05   1.001426037700e-05   1.274295461325e-04 
3 1 -2.302326950059e-04  -1.215482568809e-04   4.013729749507e-04 
4 1 -9.723657931157e-05   6.985558407352e-05  -1.293672632128e-04 
5 1 -1.245732948348e-04  -2.049675042596e-04  -8.474580846294e-05 
6 1  7.418681075423e-05  -1.167490935391e-04   4.277519619529e-06 
7 1  1.788348531019e-04  -1.036492314865e-04  -8.389880680993e-05 
8 1 -2.145095237408e-04   2.206978400308e-05   2.276315402753e-05 
8
Step 30000
1 1  1.683213657299e-04  -5.986629847913e-05   1.930136874639e-04 
2 1  1.580221077026e-04  -1.477942710602e-04   1.230387032886e-04 
3 1 -6.573853841720e-05   1.218782764287e-04   7.240144642449e-05 
4 1  1.562226568731e-05   1.523645442778e-04  -3.157963696626e-04 
5 1 -4.570012744257e-05  -1.411344822195e-04  -7.548008896797e-07 
6 1 -2.859865175222e-05  -1.338435874654e-04   3.433996411747e-07 
7 1  9.814462052766e-05  -6.148209996578e-05   2.181605834361e-05 
8 1  1.006217265040e-04   2.911345330627e-04   1.119565047774e-04 
8
Step 31000
1 1 -4.225015797710e-05  -2.067692067168e-04  -1.515680638937e-05 
2 1  7.115345064290e-05  -1.939338284697e-04  -2.888721451109e-05 
3 1 -2.212003862510e-04   1.910554737112e-04   2.151514687807e-04 
4 1  2.156686807948e-05  -8.055635831764e-05   1.782583906045e-04 
5 1 -4.310608914914e-05  -1.201465574346e-04   1.627356691683e-04 
6 1  1.571520234604e-04   4.022522031965e-06  -2.666125664135e-04 
7 1  1.361176909909e-04  -2.672625396804e-05   1.393351938471e-04 
8 1  2.001009959065e-04   6.700842539757e-05   1.802855137280e-04 
8
Step 32000
1 1  6.469422475651e-05  -2.186069671771e-04   2.119274937948e-04 
2 1  2.939110225452e-05   1.008522687195e-04  -3.073118427271e-04 
3 1  3.785424060759e-05  -2.322770536389e-06   2.128789229181e-04 
4 1  1.505719317413e-04   5.422876797917e-05  -3.739693911017e-06 
5 1 -1.417321638986e-04   8.399085256869e-05  -1.485934162907e-04 
6 1  1.272871801331e-04  -9.616680080197e-07  -1.165221904936e-04 
7 1  2.005626962495e-04   3.183295858960e-06  -4.402270089545e-05 
8 1  3.012567831979e-04  -8.183706059943e-05   1.718711114430e-04 
8
Step 33000
1 1  3.218125518776e-05  -2.702315917304e-04   4.490888286630e-05 
2 1  1.475325291814e-04   2.107262595068e-04  -2.465363592639e-05 
3 1  1.005237497250e-04  -1.204082426900e-04   2.993573977370e-04 
4 1  2.340636641349e-04  -1.020432757771e-05   1.265842694943e-04 
5 1 -1.287879555736e-05  -1.617244712248e-04   1.573752820038e-05 
6 1 -2.052375320611e-04   1.269675392222e-04  -8.557329851677e-06 
7 1  1.935072711119e-04   1.904313071730e-05  -2.472216656145e-04 
8 1  1.677672886564e-04  -1.271811952796e-04  -4.721502795278e-05 
8
Step 34000
1 1  5.754805955986e-05  -4.222650391551e-06  -1.055766002518e-04 
2 1  1.827535960966e-04   5.583571324542e-05   5.534649677962e-05 
3 1 -2.409669269423e-05  -6.912999759061e-06   5.279181239386e-06 
4 1  9.416593140234e-05  -3.007768637160e-05   1.343808927272e-05 
5 1 -8.914609429776e-05   1.384074891473e-04  -1.663121232061e-05 
6 1  5.848864558668e-05   3.240882871911e-04  -1.536541530600e-04 
7 1  2.342518472357e-04  -2.406629078895e-04   2.215160749040e-05 
8 1 -2.101215082617e-05  -2.301716079185e-04  -4.219111293948e-05 
8
Step 35000
1 1  4.507361054877e-06   2.633685237837e-04  -6.964575320832e-05 
2 1  2.177371065469e-04  -8.376605323772e-05   2.686652636666e-05 
3 1  2.310680135197e-04  -8.932072087917e-07   9.415005612356e-05 
4 1  3.431648346285e-04  -4.337996391341e-05   6.085776590058e-06 
5 1 -2.548476204688e-04   1.728073638324e-04   1.732523972161e-04 
6 1  2.335271357419e-05  -6.932027630500e-05  -8.313048464368e-05 
7 1 -1.171681566112e-04  -1.673279221644e-04  -6.755023920143e-05 
8 1  1.807548521658e-04   2.113063820530e-04  -1.816860198432e-04 
8
Step 36000
1 1 -1.211319029927e-04   3.662589017408e-05  -2.898058796974e-04 
2 1  3.636160222828e-05  -1.204841711445e-04  -6.926394975395e-05 
3 1  1.010359786416e-06  -8.197500945132e-06   2.200181056549e-06 
4 1 -6.042535529624e-05   1.622121997655e-04   2.298185126870e-05 
5 1 -6.148658560502e-05   1.554709437334e-04  -1.664173906826e-04 
6 1  2.360617562540e-05  -5.636563797825e-05  -1.670726807779e-04 
7 1 -1.071618183635e-04  -2.232662114051e-05  -5.843993086316e-05 
8 1  6.624688861660e-07  -1.664740397657e-04   5.525490151172e-05 
8
Step 37000
1 1 -6.364860281525e-05   2.033185661903e-04   1.144654138500e-04 
2 1  7.592104404594e-05   1.979744832973e-04  -5.243988730036e-04 
3 1  1.725549349241e-04  -1.179894967259e-04  -5.111971538989e-05 
4 1  5.525275974436e-05   1.101019800471e-04   3.045735607721e-04 
5 1 -2.186102131576e-05   6.863258462613e-05  -1.551201790912e-04 
6 1 -2.215058935974e-06   9.205392864524e-05  -1.631195341114e-04 
7 1 -4.616772785523e-07  -1.364565715906e-04  -1.899890397441e-04 
8 1 -1.599483731510e-04   9.925610212499e-05   4.330043683508e-05 
8
Step 38000
1 1 -7.912175092654e-05   4.211327564025e-05  -2.598612541739e-04 
2 1 -1.412445817666e-04   2.634141077670e-04  -1.933836348131e-04 
3 1 -1.993757818096e-05   7.271147243248e-06  -1.502376367929e-04 
4 1  1.351253967473e-04   2.740285811493e-04   5.013078376886e-06 
5 1 -2.693010901080e-04  -2.039846245723e-05  -1.760936493232e-05 
6 1 -1.720274945720e-04   4.683433719156e-05  -1.404664477928e-04 
7 1 -2.249145915485e-05  -6.379763576626e-05  -3.079347855692e-06 
8 1 -5.359287938146e-05  -1.309193067847e-04   3.318424247964e-04 
8
Step 39000
1 1 -1.054447597279e-04   1.344312429842e-04   8.952864216732e-05 
2 1 -4.679714084139e-05   1.208617777221e-04   1.206373245907e-04 
3 1 -1.374146543451e-04   2.124109647612e-04  -4.222423315140e-04 
4 1 -1.120527923334e-04   4.561413530294e-05  -1.145714670849e-04 
5 1  8.146224958550e-05   1.318092933570e-04   1.808041402662e-05 
6 1  1.292928736547e-04  -1.895229555801e-05  -1.121492664259e-04 
7 1  3.332721682479e-05   5.344518785262e-05  -2.125071948891e-04 
8 1 -1.980153891306e-04   2.950213486954e-05  -2.824185001063e-05 
8
Step 40000
1 1 -1.362765320901e-04   5.230272062754e-05  -7.533313937740e-05 
2 1 -1.454541983731e-04   5.697132022563e-05   1.125960760990e-04 
3 1  2.339213840033e-05   2.063436415924e-04  -3.511915563733e-04 
4 1 -8.241814849672e-05  -1.126617232284e-04   1.402179404418e-05 
5 1 -1.680217687635e-04   2.558636343578e-04  -8.583233634012e-05 
6 1 -1.430634284621e-04  -5.749585231310e-05   1.715525824102e-04 
7 1 -2.691113966785e-04  -5.988908540810e-05   3.842916475589e-05 
8 1  4.612303179284e-05   8.261037845206e-05   2.347523268593e-04 
8
Step 41000
1 1  1.308578433632e-05   7.297868581923e-05  -7.087576570906e-05 
2 1 -1.977436847847e-04   1.579292482241e-04   6.260007163132e-05 
3 1  4.112952121971e-05  -9.756639123333e-05  -9.373683972254e-05 
4 1 -1.000169227425e-05   2.059986338041e-04  -1.234410107076e-05 
5 1  5.432721376615e-05   7.005736659847e-05  -4.598034588799e-05 
6 1  9.021343949679e-05   4.788218118476e-05  -7.673368796996e-05 
7 1 -2.778840794514e-06   1.294934182258e-04   7.851581244053e-05 
8 1 -1.377065004819e-04   7.714193315968e-05  -2.296240382640e-05 
8
Step 42000
1 1  1.425214104254e-04   9.710048707367e-05   2.319986573630e-06 
2 1 -3.041842834561e-05   1.319331107182e-04   4.542228423319e-05 
3 1  4.878588627473e-05  -2.954813637830e-04  -5.636789552865e-05 
4 1 -4.986938317328e-05   9.377464569290e-05   2.776313049447e-04 
5 1  3.780981773826e-05  -1.027837449820e-04   6.796222548556e-05 
6 1 -2.065589546436e-04  -3.579406197290e-06   8.755394964300e-05 
7 1 -4.711260501611e-05   2.966567579126e-04   1.978366502028e-04 
8 1 -2.458688323228e-04   2.570923238636e-04   1.446981328036e-04 
8
Step 43000
1 1  1.089980401875e-04   5.959422237022e-06  -1.072235163458e-04 
2 1 -1.208073129638e-04  -2.098432504811e-05   1.976375485836e-04 
3 1  1.848302491789e-04  -8.499584586219e-05  -1.376700679221e-04 
4 1  8.987740080780e-05  -1.446182342882e-04   4.648474287932e-04 
5 1  6.769265729789e-05   1.173648094364e-04  -7.396333214668e-05 
6 1 -6.854537717219e-05  -6.071476952041e-06   9.941809552862e-05 
7 1 -4.085601183650e-05   2.706946940703e-04  -1.819272547687e-04 
8 1 -8.025737928164e-05   1.006934375296e-04  -7.558927262470e-05 
8
Step 44000
1 1  1.093995086106e-04   1.454031749088e-04   1.994746395195e-04 
2 1  2.787687073794e-04  -1.747286498570e-04   3.318259308520e-04 
3 1  1.657757877289e-04   6.421083173318e-05  -1.207439401038e-04 
4 1 -2.077715769163e-05  -2.152731580637e-04   1.558618317054e-04 
5 1  1.160952392538e-05  -6.218379560721e-05   1.656385036308e-04 
6 1 -2.440557247930e-05  -7.470757701361e-05   1.671238164494e-04 
7 1 -1.304883334425e-04   2.654956457349e-04  -1.740057102270e-05 
8 1 -2.251870504854e-04   1.656043768799e-04  -4.552550970835e-05 
8
Step 45000
1 1 -9.578826401333e-05  -6.497692265846e-05  -2.090875911745e-05 
2 1  1.830577087370e-04   9.184982496020e-05   3.140193347997e-04 
3 1  1.721083856939e-04  -1.418363181705e-04   1.118531958089e-05 
4 1 -7.040480261569e-05  -6.135649663559e-05   4.863200560233e-05 
5 1  9.506289227632e-05   2.042920738625e-06   2.747371584703e-04 
6 1  4.867708041154e-05  -1.395968201546e-04   4.379288405813e-05 
7 1 -5.522174831439e-05   1.435536941635e-04  -1.228337995509e-04 
8 1  1.638807003851e-04  -2.313557820740e-05  -1.283510327136e-04 
8
Step 46000
1 1  1.855483551915e-04   1.033020336330e-04   1.229853397588e-04 
2 1 -2.181106801515e-05   1.351796906854e-04   3.347470262200e-04 
3 1  3.037128869312e-04  -9.275326816546e-05   1.493350317343e-07 
4 1 -1.560988276768e-04   3.527636311877e-06   5.840058242443e-05 
5 1  5.384404228401e-05  -8.543657848583e-05   2.281590838621e-05 
6 1  1.271131721374e-04  -1.476979729300e-04   1.359276565848e-04 
7 1 -5.920541581151e-06   6.599582182697e-06  -7.561364085373e-05 
8 1 -2.692133062184e-05  -9.371286609542e-05  -2.237010523460e-04 
8
Step 47000
1 1  8.493367246889e-05  -4.846729994917e-05   1.382147670518e-04 
2 1 -9.972811347891e-05  -2.166222647630e-05   2.281091376502e-04 
3 1 -1.454528385428e-04  -5.875551904026e-05  -1.323491688255e-04 
4 1 -1.705719010291e-04  -8.513151856258e-05   1.039744213793e-04 
5 1  2.012177581837e-04  -2.135592651714e-04   3.016327515625e-05 
6 1  1.476012444470e-04  -9.799082053398e-05   8.942026640442e-05 
7 1  2.618349884121e-04  -1.231353741455e-04  -8.938121731293e-05 
8 1  9.384835890948e-05  -7.099987768695e-05  -2.176693419906e-04 
8
Step 48000
1 1  1.339635440828e-04  -3.271047544916e-05  -3.323743816219e-05 
2 1 -4.625076940054e-05   1.957912272205e-04   1.396591778650e-04 
3 1 -6.453548910881e-06   4.300986021939e-06   5.976193648076e-05 
4 1 -2.316298215124e-05  -6.106720085687e-05   7.785900411004e-05 
5 1  2.339235407039e-04  -1.228733083928e-04  -3.456299367934e-05 
6 1  8.571586543989e-05  -2.060280775282e-04  -2.213294793882e-04 
7 1  2.517485698963e-04   2.876102671546e-05  -9.724416845347e-05 
8 1  1.176692644709e-04  -3.151181819139e-04  -1.517219164096e-04 
8
Step 49000
1 1  3.327555592042e-05  -1.497542584207e-04   3.256333817650e-05 
2 1 -1.466876947204e-04   1.805984760206e-04   2.435918393320e-05 
3 1 -1.211839440013e-04   2.247622487661e-04  -1.269200559708e-04 
4 1 -1.045369697311e-04  -2.733058042408e-04  -5.223313683313e-05 
5 1  1.240079077253e-04  -1.699765801890e-04   4.468494916085e-05 
6 1  2.168574672198e-04  -2.746831943571e-04   7.765211709675e-05 
7 1  8.010824392831e-05   4.351197314016e-05  -4.468851194522e-05 
8 1  1.390126231126e-04  -1.382571635352e-04  -1.206367293759e-04 
8
Step 50000
1 1 -5.301927251598e-05  -2.422689559004e-04  -3.198875866195e-04 
2 1  1.911065789700e-04   1.427536752998e-04   2.842628043707e-05 
3 1 -6.510538484733e-05   2.665705557924e-04  -1.670792969675e-04 
4 1 -1.103508944871e-04  -2.855009084816e-04  -7.487153300697e-05 
5 1  1.618696948469e-05  -2.193254474612e-04   3.030647909552e-05 
6 1  1.474550323153e-04   1.534476426849e-04  -5.782817769683e-05 
7 1  8.244020917867e-05  -6.094541973943e-05  -4.069570318636e-04 
8 1  3.343312504607e-04  -2.418239784038e-04  -2.435520056011e-04 
8
Step 51000
1 1 -1.085506065780e-04  -9.036520801636e-05   1.199662257884e-04 
2 1  2.307666609500e-05   1.800622494414e-04   2.788286192189e-05 
3 1  7.431061750136e-05  -1.196035749965e-04  -1.254637391175e-04 
4 1 -1.865309260885e-04   6.577537805202e-05  -2.418675805630e-04 
5 1 -1.834157170134e-05  -1.997223702078e-04   3.645724738934e-05 
6 1  5.271459241853e-05  -4.991052630930e-05   2.101887013107e-07 
7 1 -3.737589811957e-05   3.448155179823e-06  -1.090999934534e-04 
8 1 -8.974660424113e-05  -4.576762275265e-06  -1.749480540612e-04 
8
Step 52000
1 1 -2.165888622870e-04  -1.277988009226e-04  -1.014488501848e-04 
2 1  7.683544306419e-05  -5.976757203906e-05  -1.464820407692e-04 
3 1  1.452305140882e-04  -7.002127236829e-05  -2.210500956894e-04 
4 1 -1.475993203160e-04   1.788993525320e-04  -3.167687499080e-04 
5 1  1.476018608106e-04   2.303611642290e-04   8.316880312341e-05 
6 1  3.557722676875e-05  -9.821063048135e-05  -2.669441005488e-05 
7 1  5.053208382107e-05  -2.858711959051e-05  -1.207950880659e-05 
8 1 -4.729807267119e-06  -1.196735841931e-04  -3.506130835450e-04 
8
Step 53000
1 1 -1.387272531288e-04  -1.214566775191e-05   7.325075132187e-05 
2 1  8.659905206329e-05  -1.547776319136e-04   6.704687992924e-05 
3 1 -2.278972628732e-05   3.095397075548e-04  -1.357011017712e-04 
4 1 -9.122425723562e-05   1.001597125053e-04  -2.162604142543e-04 
5 1  1.883621530085e-05   2.478367085242e-04  -2.058896374919e-04 
6 1 -2.270933570998e-04   9.130024196862e-05  -2.591761644859e-05 
7 1 -6.953107903950e-05  -1.098033777679e-04  -3.712836742167e-06 
8 1 -2.422364961151e-04  -8.498010933476e-05  -3.798379480358e-05 
8
Step 54000
1 1 -7.378237460301e-05  -7.738245331683e-05  -5.000059824089e-05 
2 1 -1.176523415814e-04  -7.646681310282e-05  -3.294492695673e-04 
3 1 -1.884828559580e-04   3.007143194886e-05   2.544480104630e-05 
4 1 -2.476859480671e-05   1.181307948407e-04  -3.293142188747e-04 
5 1 -6.602869694384e-05   1.776870608998e-04  -2.365945703279e-04 