8
Step 0
1 1  0.000000000000e+00   0.000000000000e+00   0.000000000000e+00 
2 1  0.000000000000e+00   0.000000000000e+00   0.000000000000e+00 
3 1  0.000000000000e+00   0.000000000000e+00   0.000000000000e+00 
4 1  0.000000000000e+00   0.000000000000e+00   0.000000000000e+00 
5 1  0.000000000000e+00   0.000000000000e+00   0.000000000000e+00 
6 1  0.000000000000e+00   0.000000000000e+00   0.000000000000e+00 
7 1  0.000000000000e+00   0.000000000000e+00   0.000000000000e+00 
8 1  0.000000000000e+00   0.000000000000e+00   0.000000000000e+00 
8
Step 100
1 1 -1.538050582433e-04  -8.815250525032e-06   3.177202291614e-05 
2 1 -6.755353612693e-05   2.466399178819e-04  -1.558861621452e-04 
3 1 -2.005247907186e-04   1.812189811323e-04  -2.558854153883e-04 
4 1 -1.852525446144e-04   3.082480455010e-04   5.485249696742e-05 
5 1 -4.952327929578e-05   1.486901312533e-04  -3.756784353273e-05 
6 1 -5.282130676115e-05  -3.796241248927e-04   2.802159546207e-05 
7 1 -1.601996002919e-04   1.028090269715e-04   2.788577458501e-04 
8 1  1.735991887014e-04  -1.775121125865e-04  -4.450690258496e-05 
8
Step 200
1 1  2.877515063163e-05  -1.196440303355e-04  -2.186133020158e-04 
2 1  5.376832967574e-05  -1.820292223224e-04  -6.336084213819e-05 
3 1 -3.861319791857e-05  -3.809774242399e-04  -1.239472796927e-04 
4 1  3.173169770750e-04  -9.644212235106e-05  -4.377595716671e-05 
5 1  3.639591519386e-04  -1.708972030593e-04   6.462255980694e-06 
6 1 -9.519095377115e-05   2.705431698418e-05   2.981410927859e-04 
7 1  7.462921644943e-05  -2.850379558542e-04  -3.425934907801e-05 
8 1 -1.105303307497e-04  -2.162436364929e-04  -3.191993615876e-05 
8
Step 300
1 1  1.449955779804e-04  -3.306672954736e-05  -2.693142793529e-04 
2 1  1.184574442882e-04  -3.038604746452e-04   6.936927592155e-05 
3 1  9.890128378950e-05  -5.522766431009e-04   1.203344255013e-04 
4 1  3.229622483003e-04  -4.207444796698e-04  -1.110846895918e-04 
5 1  3.640829821993e-04  -3.471226828118e-04   1.378852462610e-05 
6 1 -2.619505441534e-05   4.107965520072e-04   2.858088803071e-04 
7 1  2.102099376331e-04  -2.868005464895e-04  -2.825243079146e-04 
8 1 -3.299998441365e-04   1.862018863086e-04   1.317192569094e-05 
8
Step 400
1 1  2.378224295007e-05   1.333317820850e-04  -7.965738130644e-05 
2 1 -1.520759529706e-04  -5.607716478347e-05   2.822547700285e-04 
3 1  2.502955347176e-04  -2.504907324372e-05   1.882906282997e-04 
4 1 -4.488890085285e-05  -2.426345239369e-04  -1.480795641194e-04 
5 1 -4.752961671558e-05  -2.230164987560e-04   6.673636492461e-05 
6 1 -5.514125579615e-05   3.076258467675e-04  -5.349037090351e-05 
7 1  7.338788984440e-05   1.425930165630e-05  -2.127799666675e-04 
8 1 -2.457958173820e-04   3.593483198687e-04   5.975147140527e-05 
8
Step 500
1 1 -9.846166501550e-05   1.408892727663e-04   1.336889391956e-04 
2 1 -2.318513644036e-04   2.673531754054e-04   1.129501770380e-04 
3 1  1.702649068157e-04   4.226905523461e-04   1.848928664152e-04 
4 1 -3.896994048322e-04   7.722446538459e-05  -1.175465413388e-04 
5 1 -3.421437506483e-04   1.481642563130e-04   1.913131601179e-04 
6 1 -9.190688328150e-05  -1.565371478343e-04  -2.682012352586e-04 
7 1 -1.217322799503e-04   1.857338044629e-04   5.886405433123e-05 
8 1  2.660154938551e-05   8.592661930793e-05   6.604251084433e-06 
8
Step 600
1 1 -3.961024092232e-05  -6.552681220030e-05   1.176247515063e-04 
2 1 -4.596419287301e-05   2.179100105294e-04  -4.037825942120e-05 
3 1  2.480387954829e-05   3.890557383802e-04   1.892556258044e-05 
4 1 -2.555307387342e-04   2.450920214445e-04  -2.499856811005e-05 
5 1 -2.044921534950e-04   2.884020553356e-04   3.008213054615e-05 
6 1 -9.855698880813e-05  -4.333063498290e-04  -1.160211372653e-04 
7 1 -1.230052482530e-04   7.868379474703e-05   2.247670653872e-04 
8 1  2.794908031089e-04  -3.277446446248e-04  -4.672758916498e-05 
8
Step 700
1 1  6.429448108058e-05  -1.828641322896e-04   1.594644006681e-05 
2 1  1.899231350021e-04  -1.316861154090e-04  -1.096427140870e-04 
3 1 -1.241416665153e-04   1.153225837201e-05  -1.458934604506e-04 
4 1  2.242814258008e-04   1.224567256142e-04   5.362203699640e-05 
5 1  9.644122004652e-05   1.498359906959e-04  -2.230472418377e-04 
6 1  2.393651183076e-05  -2.501836002733e-04   1.609714874615e-04 
7 1  8.520439389355e-05  -9.317715978097e-05   1.189192778002e-04 
8 1  2.543952103716e-04  -3.225376075911e-04  -2.756430944728e-05 
8
Step 800
1 1  5.202334474993e-05  -5.852877715654e-05  -1.073081354540e-04 
2 1  1.981498289158e-04  -2.565333711360e-04  -6.508875611229e-06 
3 1 -1.586745463345e-04  -3.032878038404e-04  -1.301497863102e-04 
4 1  3.914480732927e-04  -4.673284326766e-05   1.043557383474e-04 
5 1  1.929556006348e-04  -5.521092239421e-05  -2.105662042924e-04 
6 1  1.255075390236e-04   2.327881358092e-04   1.857027640891e-04 
7 1  2.202779110884e-04  -1.056767484528e-04  -1.052595870870e-04 
8 1  6.879249657908e-06   7.309543439274e-05   5.766807014262e-05 
8
Step 900
1 1 -1.247838514371e-04   1.958243999384e-04  -3.452002223555e-05 
2 1  5.008624663055e-05  -6.959322197794e-05   9.441745734658e-05 
3 1 -5.703090335703e-05  -2.160700425584e-04  -3.564741855063e-05 
4 1  8.320619172450e-05  -1.570620272008e-05   1.293024946720e-04 
5 1  4.407436989150e-05  -1.143539952494e-04   9.092780372914e-05 
6 1  1.133784939809e-04   3.611949158534e-04  -6.001205366704e-05 
7 1  9.285287052380e-05   2.217751977416e-05  -1.813326594738e-04 
8 1 -2.561408798172e-04   3.835686070242e-04   9.260992137669e-05 
8
Step 1000
1 1 -1.773093682614e-04   2.698351051057e-04   1.296259204634e-04 
2 1 -1.190416860463e-04   1.705222052270e-04  -4.089732590009e-05 
3 1 -2.227014892804e-05  -2.777756072232e-05   1.640721960159e-04 
4 1 -2.350936537237e-04   7.797940904184e-05   9.529358280054e-05 
5 1 -7.729793038191e-05  -2.352888169683e-05   2.998708884581e-04 
6 1  1.478037759105e-04   1.249871362644e-04  -2.826760087461e-04 
7 1 -2.029030268028e-04   1.016036394420e-04  -4.605964483820e-05 
8 1 -2.678472961634e-04   1.995657553928e-04  -1.075668082614e-05 
8
Step 1100
1 1  3.218559705146e-05   4.713538836238e-06   1.594720216993e-04 
2 1 -1.295374486795e-04   1.252169505014e-04  -1.830047601887e-04 
3 1  1.006630805118e-04   9.676192332295e-05   1.278905139474e-04 
4 1 -1.577925032369e-04   1.209525891696e-05  -2.359868796519e-05 
5 1 -2.186966398837e-05   2.949084202842e-05   1.256332330016e-04 
6 1 -5.635148812140e-06  -1.172653713363e-04  -1.037482353850e-04 
7 1 -3.215921658667e-04   5.834331352528e-05   9.563383056061e-05 
8 1 -1.553768153466e-05  -2.357705132506e-04  -1.598762554284e-04 
8
Step 1200
1 1  2.501492036566e-04  -2.894648736266e-04   4.318058572487e-05 
2 1  5.070266477094e-05  -1.758034012987e-05  -1.815165506372e-04 
3 1  2.986922816781e-05   1.079971633774e-04  -4.816985046325e-05 
4 1  1.222387491629e-04  -1.223895890748e-04  -1.064982507034e-04 
5 1  8.959632887373e-05  -7.677874792318e-06  -2.106425211175e-04 
6 1 -9.654660531811e-05  -2.480446045579e-04   1.633770185718e-04 
7 1 -1.112348716900e-04  -1.150559837140e-05   9.305362109748e-05 
8 1  2.449529939677e-04  -3.816820190857e-04  -1.701821383365e-04 
8
Step 1300
1 1  2.434895074882e-04  -2.878738730126e-04  -1.333702524717e-04 
2 1  1.032789808108e-04  -7.407260135079e-05   1.746075835226e-06 
3 1 -4.605296969482e-05   3.439564645014e-06  -1.998248817645e-04 
4 1  1.652720117236e-04  -9.201383165996e-05  -5.486554193061e-05 
5 1  8.374302961028e-05  -5.484251957792e-05  -2.660817676858e-04 
6 1 -1.747470018443e-04  -6.616903254107e-05   2.332388092337e-04 
7 1  2.103703949450e-04  -3.002385719368e-05   1.288555313294e-06 
8 1  2.624250545050e-04  -8.153738159906e-05   6.801430784515e-06 
8
Step 1400
1 1 -2.387654791326e-05  -3.160007337531e-06  -1.690808360397e-04 
2 1 -4.696778607428e-05   5.265562763443e-05   2.282709024756e-04 
3 1 -1.011908861210e-04  -5.159750857829e-05  -1.433574785467e-04 
4 1 -7.390078832662e-05   1.332130324005e-05   3.628126339769e-05 
5 1 -5.765914064279e-05  -8.587262196680e-05   1.044882309289e-05 
6 1 -7.769733059898e-05   2.307903763329e-04  -2.292052331131e-07 
7 1  3.053990872476e-04  -1.711058006668e-05  -1.818348550869e-05 
8 1  5.514312550633e-05   2.604813604658e-04   2.031888192168e-04 
8
Step 1500
1 1 -2.605936143703e-04   2.785905782674e-04  -6.505308824463e-05 
2 1 -1.251073761611e-04   1.075526495501e-04   2.419761014713e-04 
3 1  2.236246853752e-05  -7.175741474767e-06   2.691311581359e-05 
4 1 -2.891942103732e-04   9.863268377768e-05   2.513219132704e-05 
5 1 -1.699356625910e-04  -5.615101268199e-05   2.345443406012e-04 
6 1  2.154299954498e-05   1.968480467517e-04  -1.408991686490e-04 
7 1  9.748917340513e-05  -3.975543591880e-05   5.306333256205e-05 
8 1 -1.481879529181e-04   2.399151208154e-04   2.049569707176e-04 
8
Step 1600
1 1 -1.756486846809e-04   2.440789322140e-04  -1.076383335990e-05 
2 1 -2.128819228342e-05  -5.184739920530e-05   3.524416283464e-05 
3 1  1.566816762116e-04   6.536461611507e-05   1.206340923707e-04 
4 1 -1.201937901690e-04   3.828935182133e-05  -5.885345456331e-05 
5 1 -1.835370185986e-04   6.274871232241e-05   2.375515435179e-04 
6 1  6.999250257363e-05  -1.412596398270e-04  -6.626417643152e-05 
7 1 -1.702300582935e-04  -7.340717532244e-05   5.729017325712e-05 
8 1 -1.932514986197e-04  -5.105331657301e-05  -2.146956272270e-06 
8
Step 1700
1 1  1.678297397847e-05  -3.631374954432e-07   5.427408122711e-05 
2 1  1.341323809678e-04  -2.383534009924e-04  -1.830582523276e-04 
3 1  6.188097163117e-05   8.922969293942e-05   1.154089117009e-04 
4 1  2.323178881066e-04  -1.411467629809e-04  -8.875592876645e-05 
5 1  6.635436535117e-05   1.845494262246e-04  -8.852920435403e-05 
6 1  2.855581078525e-05  -3.800299583089e-04   1.065394036713e-04 
7 1 -2.300437497860e-04  -9.950327822545e-06  -6.463427138630e-05 
8 1 -8.544817328867e-05  -2.167923422200e-04  -1.860250998589e-04 
8
Step 1800
1 1  1.061955109085e-04  -2.015810874845e-04   1.324231883505e-04 
2 1  1.101447893639e-04  -2.012283733313e-04  -1.702420729409e-04 
3 1 -3.256172506259e-05   2.863556818467e-05   5.931572760654e-05 
4 1  2.302035289996e-04  -1.283461998454e-04   1.528295329701e-05 
5 1  2.261040004459e-04   1.276473197418e-04  -3.145413699829e-04 
6 1  4.399024495255e-06  -1.846324498892e-04   7.467610669362e-05 
7 1 -3.076111869405e-05   1.057174523718e-04  -1.653192347629e-04 
8 1  1.771896741604e-05  -4.372889749093e-05  -1.543929383739e-04 
8
Step 1900
1 1  1.229589173482e-05  -1.855776281515e-04   1.106139572443e-04 
2 1 -8.048511493812e-05   1.209137762052e-04   1.634749111827e-05 
3 1 -9.908306085289e-05  -1.140277373273e-04  -8.466778307372e-06 
4 1 -1.104970912733e-05   1.465681083416e-04   1.442211754374e-04 
5 1  1.718919866235e-04  -6.014660873590e-05  -1.665206460090e-04 
6 1  3.734767891221e-05   2.116798831616e-04  -7.159540511713e-05 
7 1  1.877944778355e-04   1.159806352803e-04  -7.724674152273e-05 
8 1  3.994647960574e-05   1.958069311488e-04   4.449035189175e-05 
8
Step 2000
1 1 -6.320672884229e-05   4.215171541110e-06  -2.930107471728e-07 
2 1 -1.607099023069e-04   3.742955204055e-04   1.202135678312e-04 
3 1 -1.641113753959e-05  -1.855553533090e-04  -3.288526126352e-05 
4 1 -2.732846675771e-04   3.491152936595e-04   4.925120037950e-05 
5 1 -3.606163597837e-05  -2.009164439057e-04   1.196545963166e-04 
6 1  7.651149339561e-05   3.299425662225e-04  -5.180345624702e-05 
7 1  2.114061177613e-04  -1.859847346880e-05   1.163571329212e-04 
8 1  6.041137747497e-05   1.949557824082e-04   1.789617127184e-04 
8
Step 2100
1 1  2.901386437156e-05   1.428570905442e-04  -1.135903239873e-04 
2 1 -9.848405960856e-06   1.977793094749e-04   5.888421035533e-05 
3 1  8.480609478122e-05  -6.890405563869e-05  -4.865095730159e-06 
4 1 -1.188386363105e-04   1.383201324825e-04  -1.594604860210e-04 
5 1 -1.890564809032e-04  -1.306671170141e-04   2.687882219091e-04 
6 1  1.569253088312e-05   1.616238228484e-04  -6.160959063357e-05 
7 1 -2.357692366417e-05  -1.603276469808e-04   1.927360690429e-04 
8 1  6.257409845427e-05  -4.075820502336e-05   9.386038767765e-05 
8
Step 2200
1 1  1.728572302015e-04   5.395067210345e-05  -1.293210041035e-04 
2 1  1.453238536233e-04  -1.302986709799e-04  -1.048431302645e-04 
3 1  1.275499764895e-05   1.410473066978e-04  -4.899735303061e-06 
4 1  2.598512697174e-04  -3.040424330476e-04  -2.073761998433e-04 
5 1 -9.008492775306e-05   5.860116637727e-05   9.490330535128e-05 
6 1 -1.318814372821e-04  -1.091841494094e-04   2.525260186904e-06 
7 1 -2.661427413463e-04  -9.779520967173e-05   3.761193598587e-05 
8 1  4.821385653487e-05  -2.255496976534e-04  -9.828495828682e-05 
8
Step 2300
1 1  9.958776982564e-05   2.586381772410e-06  -5.446296199325e-05 
2 1  1.200081673288e-04  -3.563965103890e-04  -7.510190971215e-05 
3 1 -1.343335802735e-04   1.982908765496e-04  -5.897089372615e-05 
4 1  3.748122803010e-04  -5.163031087239e-04   3.176130442978e-05 
5 1  5.227224751908e-05   2.102112801039e-04  -1.152355612083e-04 
6 1 -1.065246165525e-04  -1.925578481516e-04   2.919438640215e-05 
7 1 -2.723595195401e-04   9.509736396386e-05  -1.553752164057e-04 
8 1 -9.115478730955e-06  -1.512979879686e-04  -1.856126482876e-04 
8
Step 2400
1 1 -4.644806915489e-05  -1.944230207692e-05   5.618331922344e-05 
2 1 -1.305791109605e-04  -1.923706246407e-04   1.207271237004e-04 
3 1 -1.114254557767e-04   8.186633503349e-05  -9.096959743135e-05 
4 1 -3.647319504637e-05  -2.335605622220e-04   4.187897691722e-04 
5 1  1.111799799810e-04   1.578383241500e-04  -1.835361989925e-04 
6 1  4.814436701503e-05  -6.856979896663e-05   2.766381743314e-06 
7 1  3.180782426869e-05   1.778014241956e-04  -1.463647387708e-04 
8 1 -6.824217864599e-05   4.724957584725e-05  -7.911334487446e-05 
8
Step 2500
1 1 -1.686109496304e-04  -1.242653602821e-05   1.514643592325e-04 
2 1 -1.440502491283e-04   1.832263939603e-04   1.676183677999e-04 
3 1  2.150222690430e-05  -1.354642950430e-04  -8.866989526992e-05 
4 1 -3.871754990863e-04   3.765068416164e-04   3.634039055615e-04 
5 1  2.313902762301e-05  -1.043915393276e-04   6.323569754268e-05 
6 1  1.009801777209e-04   6.252135809763e-05  -2.455734903447e-06 
7 1  3.253278611570e-04   3.388848036526e-05   2.767677861110e-05 
8 1 -4.706008353198e-05   1.074242109190e-04   8.739280600576e-05 
8
Step 2600
1 1 -8.427934909910e-05   2.514759348506e-05   8.594969868896e-05 
2 1  5.241434825165e-06   2.471655611114e-04   3.156957990476e-05 
3 1  1.799832019140e-04  -1.570502330035e-04  -4.114988951598e-05 
4 1 -3.636523383043e-04   6.854713141866e-04  -1.517396107085e-04 
5 1 -1.115894246890e-04  -2.291782662121e-04   1.919689217194e-04 
6 1  8.639810519800e-05   1.242696155614e-05   8.441011031073e-05 
7 1  3.086409627960e-04  -1.701053544305e-04   1.334233268037e-04 
8 1  4.787265628155e-05  -1.055040824132e-05   1.315607835963e-04 
8
Step 2700
1 1  8.491154475444e-05  -4.175936843503e-05   1.494209954703e-05 
2 1  1.961802284120e-04   1.248627170505e-04  -3.081686053221e-04 
3 1  1.010891010007e-04   3.463022367561e-05   8.421115913057e-05 
4 1  6.558138635274e-05   2.629962266980e-04  -4.911708300246e-04 
5 1 -1.343728350614e-04  -1.329498294884e-04   6.805604352539e-05 
6 1 -8.148897738676e-05  -5.796650657030e-05   9.558561637471e-05 
7 1 -8.405600603505e-06  -1.428502027836e-04   2.881993124710e-05 
8 1  8.905918752931e-05  -9.541819165380e-05   4.314039103408e-05 
8
Step 2800
1 1  1.273934228678e-05  -4.831698162141e-05  -4.941964921893e-05 
2 1  1.519883408149e-04  -1.442602352195e-04  -3.229736623940e-04 
3 1 -7.549327543559e-05   1.570985530853e-04   2.112009261138e-04 
4 1  3.203271689438e-04  -3.975685255657e-04  -2.596711891593e-04 
5 1  5.429697990115e-06   1.248235057685e-04  -1.989299775887e-04 
6 1 -1.014017518794e-04  -2.488983490490e-05  -2.283728906374e-05 
7 1 -2.721889202026e-04   9.373795540581e-05  -8.696367361066e-05 
8 1  7.511242167324e-06  -1.262547008163e-05  -2.983867299014e-05 
8
Step 2900
1 1 -1.553843496565e-04   3.282800242592e-05  -8.058209704301e-05 
2 1 -1.453592223225e-04  -2.266456239660e-04   1.108699607257e-04 
3 1 -6.170109629203e-05   2.239614085869e-05   1.868244179143e-04 
4 1  1.656452521609e-04  -5.404943363294e-04   2.093770902473e-04 
5 1  2.186839110950e-04   1.365090081006e-04  -2.218843326172e-04 
6 1 -1.439380794540e-05   8.351294316049e-05  -1.519019357491e-04 
7 1 -2.551577988856e-04   2.486997925753e-04  -4.952317599916e-05 
8 1 -1.123804777708e-04   1.263931170451e-04  -1.225350192272e-05 
8
Step 3000
1 1 -1.238391243137e-04   8.256372093947e-05  -5.470336146518e-05 
2 1 -2.395283863219e-04  -8.486279808116e-05   3.449525352881e-04 
3 1  1.855625867899e-05  -1.186887789040e-04   5.514223889816e-05 
4 1 -1.821990049410e-04  -2.083348133547e-04   3.197889821540e-04 
5 1  2.341647323731e-04  -1.241183359874e-06   1.669280081569e-05 
6 1  9.588930067242e-05   1.146167513125e-04  -8.664427126136e-05 
7 1  1.546645714616e-05   1.115593016879e-04   1.033564288178e-04 
8 1 -1.226990065707e-04   1.270404598650e-04   1.609188007529e-05 
8
Step 3100
1 1  1.248383972919e-04   7.037037718637e-06  -6.345320036955e-06 
2 1 -2.328233993653e-05   1.084201329385e-04   2.378566077368e-04 
3 1  8.409962953250e-05  -1.198318360489e-04  -2.329036300336e-04 
4 1 -2.480076621236e-04   2.962737090052e-04  -1.829906503967e-05 
5 1  7.126357241321e-05  -7.284568349250e-05   1.922304771316e-04 
6 1  7.807792319771e-06  -1.745199564776e-05   8.900820876462e-05 
7 1  1.666056057593e-04  -2.086053293028e-04   1.067403542075e-04 
8 1 -1.638820439806e-05   5.719824103719e-06  -1.440542128571e-05 
8
Step 3200
1 1  2.829246039465e-04  -1.332319405556e-04   9.584810517257e-06 
2 1  2.010607788497e-04   2.082155423901e-04  -1.111449930122e-04 
3 1  2.428968098035e-05   1.251796661025e-05  -2.648347898919e-04 
4 1  6.112675264898e-05   4.069156941235e-04  -2.775490838389e-04 
5 1 -2.337199727307e-04  -3.614655853774e-05   8.684874521806e-05 
6 1 -1.589363645291e-04  -1.040185531306e-04   8.129989973483e-05 
7 1  1.604187130017e-04  -3.142432950507e-04  -6.499068047957e-05 
8 1  7.995123356616e-05  -8.681889315609e-05  -6.224819878896e-05 
8
Step 3300
1 1  8.368946897652e-05  -1.030151846962e-04  -8.323838442205e-05 
2 1  1.852503734938e-04   5.745827066613e-05  -1.834952827554e-04 
3 1 -1.623604038498e-04   2.046521311491e-04  -1.325122283774e-04 
4 1  3.067379617915e-04   4.038364954101e-05  -1.455292448791e-04 
5 1 -3.813581566838e-04   1.072154051568e-04  -1.163933155962e-04 
6 1  1.951898055209e-05  -1.566640724225e-04   8.163363540599e-05 
7 1  2.176209388206e-05  -1.025067533026e-04  -1.577949835711e-04 
8 1  8.489628167786e-05  -6.507194681819e-05  -3.827260851028e-05 
8
Step 3400
1 1 -1.709782533499e-04   5.336228354404e-06   2.833799413194e-05 
2 1 -3.347088465652e-05  -6.636414527861e-05  -1.901535457851e-04 
3 1 -6.918988098044e-05   9.014982893160e-05   2.176592700839e-04 
4 1  1.837947582321e-04  -3.191931114221e-04   1.704847917588e-04 
5 1 -1.431925513837e-04   1.154860257358e-04  -6.422058500802e-05 
6 1  1.073863903202e-04  -5.846467748350e-05  -5.054176781224e-05 
7 1 -8.865606410888e-05   2.097923780484e-04  -2.163377801760e-05 
8 1  1.375403445477e-05   2.759623514208e-05   6.609082028623e-05 
8
Step 3500
1 1 -2.343650169430e-04   1.457973233548e-04   3.971807203924e-05 
2 1 -1.717004887337e-04  -9.172439248260e-05   9.832223525384e-05 
3 1  8.392299706896e-05  -2.035173873913e-04   3.288945215946e-04 
4 1 -1.726810752118e-04  -2.641700459248e-04   2.339632792051e-04 
5 1  1.609520373675e-04  -6.997176087291e-05   1.002430073399e-04 
6 1  1.847486031549e-04   1.114475189550e-04  -1.034526174010e-04 
7 1 -5.651932777889e-05   3.058154951393e-04   1.773485105994e-04 
8 1 -1.795056685694e-05   5.478296385307e-05   8.720823194032e-05 
8
Step 3600
1 1 -2.822424386234e-06   1.795638164666e-04   8.318270360780e-05 
2 1 -1.960925144689e-04  -1.725437509070e-05   1.726487805989e-04 
3 1  1.535760945778e-04  -2.832283563201e-04   2.247657311479e-05 
4 1 -3.089281727141e-04   1.085350286342e-04   2.644030137829e-05 
5 1  3.161346122102e-04  -1.945660788419e-04   1.274631168613e-04 
6 1  6.286940572773e-05   1.477095302660e-04  -3.207288310283e-06 
7 1 -7.256928487077e-05   1.079759783994e-04   1.305586921046e-04 
8 1  9.875365632394e-06  -5.199093884252e-06   9.329853143961e-06 
8
Step 3700
1 1  1.918710049091e-04  -2.851708317800e-06   1.148936179330e-04 
2 1 -2.320073006946e-05   4.652763834187e-05   5.900941882705e-05 
3 1 -3.527580634456e-05   3.627780148922e-05  -3.081891762798e-04 
4 1 -6.567048759413e-05   3.496662877921e-04  -1.402479937073e-04 
5 1  1.794864248640e-04  -8.510953256392e-05  -2.787318991960e-05 
6 1 -1.916929495758e-04   9.389303945143e-05   3.621215637910e-05 
7 1 -6.223406637384e-05  -1.844344492700e-04  -1.412579575122e-04 
8 1  2.720546673610e-05  -6.766418221409e-05  -7.802427306556e-05 
8
Step 3800
1 1  1.275104907720e-04  -1.922672122242e-04   8.122831465735e-05 
2 1  1.457682193584e-04   1.207198161860e-05  -7.556659757708e-05 
3 1 -1.951466116834e-04   3.866060120030e-04  -2.435789661452e-04 
4 1  1.960841042132e-04   1.896277288914e-04  -2.816274444008e-05 
5 1 -5.799734632851e-05   1.298119987860e-04  -1.219756783917e-04 
6 1 -2.110124297141e-04   1.162030523362e-05  -4.870315241392e-05 
7 1 -8.879686077262e-06  -2.285183781856e-04  -2.733702847244e-04 
8 1  7.736129725553e-06  -8.254665533845e-05  -1.050801068098e-04 
8
Step 3900
1 1 -8.415764183377e-05  -1.442956909083e-04  -2.484969085166e-05 
2 1  1.660092796779e-04  -8.904060645964e-05  -7.937773851274e-05 
3 1 -1.216602583436e-04   3.383498900515e-04   1.265190990823e-04 
4 1  1.884693416157e-04  -1.325156995944e-04   1.170312708832e-04 
5 1 -1.344623001593e-04   2.028110894749e-04  -1.873711410302e-05 
6 1  3.388896101127e-05  -2.131153493321e-05  -9.922469583210e-05 
7 1  1.624236742479e-04  -8.575695975173e-05  -6.849474443250e-05 
8 1 -2.759789533772e-05  -2.619735005807e-05  -2.427529350178e-05 
8
Step 4000
1 1 -1.669689572433e-04   5.091551832879e-05  -7.767025228842e-05 
2 1  3.049060608730e-05  -8.604784765328e-05  -5.273092053504e-05 
3 1  1.738297017484e-04  -9.448052823558e-05   2.725435007576e-04 
4 1  1.080747230954e-05  -3.005746689790e-04   2.511634102717e-05 
5 1 -5.273574869503e-05   5.554733214642e-05   1.237538598174e-04 
6 1  2.405974050679e-04  -5.482689273325e-05   3.670120315865e-05 
7 1  2.128673255728e-04   1.913670041709e-04   2.577150913863e-04 
8 1 -3.779080758885e-05   5.710364685752e-05   5.364642982886e-05 
8
Step 4100
1 1  1.740228128758e-06   1.994182913986e-04  -1.715166753205e-04 
2 1 -7.421514379357e-05   4.810746480339e-05  -4.496538475002e-05 
3 1  2.964918144841e-04  -4.025580914522e-04   8.199040555775e-05 
4 1 -1.670573685410e-04  -1.818234976856e-04  -1.598687946553e-04 
5 1  1.802375096489e-05  -1.376459382050e-04   3.372973280111e-05 
6 1  1.055212936939e-04  -8.350489783977e-05   2.211279972103e-04 
7 1  3.798662444224e-05   2.785336315467e-04   3.053822310519e-04 
8 1 -2.589977516693e-05   9.115426677283e-05   6.737318594091e-05 
8
Step 4200
1 1  1.819605416454e-04   1.373676693397e-04  -1.851896216187e-04 
2 1 -2.913035749199e-05   1.265604843431e-04   2.825809770574e-05 
3 1  4.288056827272e-05  -2.671880527310e-04  -1.960599203233e-04 
4 1 -1.790154874795e-04   5.884367096712e-05  -1.590657470831e-04 
5 1 -2.809076527802e-05  -1.628210793224e-04  -2.075209340216e-04 
6 1 -2.335907810386e-04  -7.297192902252e-05   1.801756271380e-04 
7 1 -2.114805054794e-04   8.249538479279e-05  -2.072131657781e-05 
8 1 -2.405048577760e-05   3.829308487438e-05   5.049523039543e-05 
8
Step 4300
1 1  1.204984688127e-04  -1.065691797292e-04  -2.994659473698e-05 
2 1 -4.456257641943e-06   1.006961500458e-04   4.882021423577e-05 
3 1 -2.872821757954e-04   6.526198421904e-05  -1.354542408649e-04 
4 1  3.594346951919e-05   2.230112700226e-04   6.678391496935e-05 
5 1 -8.823631050429e-05  -4.015186627736e-05  -2.447291230268e-04 
6 1 -3.192396163178e-04  -2.546477564528e-05  -9.902619405328e-05 
7 1 -2.734383308538e-04  -2.528607897832e-04  -3.056943975006e-04 
8 1 -1.632204686364e-05  -5.647929879727e-05   3.506120686187e-05 
8
Step 4400
1 1 -1.063267858372e-04  -2.630263922492e-04   1.809298380489e-04 
2 1 -2.099423974325e-05   1.671475523105e-05   3.904675074336e-05 
3 1 -2.397573978390e-04   1.490833040346e-04   1.180090930094e-04 
4 1  1.763464613160e-04   1.992664133770e-04   2.194458585328e-04 
5 1 -3.169316703635e-05   5.966159956019e-05   5.377723678482e-05 
6 1  3.985408844591e-06   2.790184858634e-05  -2.942645847983e-04 
7 1 -5.338063642544e-05  -3.769385715131e-04  -1.887156215620e-04 
8 1  9.638133310732e-06  -8.504187636159e-05  -1.220400879616e-06 
8
Step 4500
1 1 -2.062663604688e-04  -1.604249604222e-04   2.241552518145e-04 
2 1  2.767346875053e-05  -1.338863422788e-04  -2.584885252464e-05 
3 1  8.303144140615e-06   1.445917786439e-04   2.488570114830e-04 
4 1  7.798822300333e-05   2.137552763476e-05   7.036906478325e-05 
5 1  8.718314707232e-05   5.835480221007e-05   3.420775599184e-04 
6 1  3.990314121283e-04   1.038165342905e-05  -1.520499926991e-04 
7 1  2.186467920273e-04  -1.377618702258e-04   1.597193488746e-04 
8 1  5.931710844960e-05   8.527963430831e-06  -6.084760979737e-05 
8
Step 4600
1 1 -1.193060123131e-04   1.264143958460e-04   1.141097388086e-04 
2 1  2.602221562942e-05  -8.041900500543e-05  -1.098966640256e-04 
3 1  2.220088483397e-04   4.421836194175e-05   1.225417777590e-05 
4 1 -8.035332144858e-05  -1.509447431554e-04  -1.883124821665e-04 
5 1  1.251435466735e-04   4.424557896472e-05   3.133458389718e-04 
6 1  3.520059161694e-04  -1.990074361460e-05   1.584964232779e-04 
7 1  2.397080210070e-04   2.102607103758e-04   2.507709592528e-04 
8 1  5.169277216914e-05   1.430787063550e-04  -8.322430838584e-05 
8
Step 4700
1 1  4.386552950346e-05   2.760689746668e-04  -7.846035175119e-05 
2 1 -4.599094442705e-06  -7.205423199756e-06  -2.524940787080e-05 
3 1  1.495120479002e-04   3.412227316287e-05  -2.625216263423e-04 
4 1 -1.300555441135e-04  -1.725627623073e-04  -2.217582812334e-04 
5 1  2.120400884619e-05   5.288241034323e-05  -7.648499956553e-05 
6 1 -1.079681832145e-04   4.592243432646e-05   2.397995413532e-04 
7 1 -2.465048377741e-06   3.360394478688e-04   2.490331206927e-05 
8 1 -1.173339529351e-05   1.402114845339e-04  -2.823746234934e-05 
8
Step 4800
1 1  1.551626388780e-04   1.864901558483e-04  -2.185450385121e-04 
2 1 -1.017971387900e-04   1.931413328240e-05   1.819658007929e-04 
3 1 -5.797858217408e-06   2.375602186517e-05  -2.184135423957e-04 
4 1 -8.448182113951e-05  -8.008887202070e-05  -3.148945633961e-05 
5 1 -2.294703109287e-05  -2.072703713105e-05  -2.712447976845e-04 
6 1 -4.441201043075e-04   1.015639753070e-04   4.208832764194e-05 
7 1 -2.038849000688e-04   1.324389633213e-04  -2.475807933152e-04 
8 1 -8.976514392509e-05  -8.098530313350e-06   5.518012428725e-05 
8
Step 4900
1 1  1.029457969839e-04  -9.894443131384e-05  -1.554378913385e-04 
2 1 -9.669946338234e-05   5.408466356736e-06   2.634884123536e-04 
3 1 -1.076094485806e-04  -7.360683020460e-05   1.110936972033e-04 
4 1  1.707735312849e-04  -5.583642491614e-05   2.681328187712e-04 
5 1 -1.327522609961e-04  -2.078390938152e-05  -2.389560235641e-04 
6 1 -2.671226346954e-04   9.343664682779e-05  -2.106494083820e-04 
7 1 -1.419718665761e-04  -1.140857803430e-04  -1.859729928498e-04 
8 1  2.330024092743e-05  -2.062960776092e-04   7.420487409803e-05 
8
Step 5000
1 1  4.663708014039e-05  -2.588646856881e-04   5.035412084626e-05 
2 1  2.609821179882e-07  -5.311538211120e-06   6.537332789643e-05 
3 1 -7.284001015152e-05  -1.911715892986e-04   2.558416007217e-04 
4 1  3.191808012819e-04   5.998802037267e-05   2.851286457649e-04 
5 1 -8.771907759755e-05  -3.963969441518e-05  -6.475708097508e-05 
6 1  1.769343859698e-04  -4.501560999510e-05  -1.361418845906e-04 
7 1  8.318715745572e-05  -1.364135616753e-04   1.130349817217e-04 
8 1  7.757799399014e-05  -1.517837406222e-04  -5.055118366454e-06 
8
Step 5100
1 1  3.976745312982e-05  -1.349003025422e-04   1.586288654495e-04 
2 1  1.266791149993e-04   3.733652400798e-05  -2.023398261290e-04 
3 1  2.818834851504e-05  -1.199858898241e-04   7.888071198312e-05 
4 1  5.148960228817e-05   2.798726670405e-04  -1.536387571801e-05 
5 1 -2.901863614674e-05  -4.317959451228e-05   1.476788961094e-04 
6 1  3.940160774798e-04  -1.072576964600e-04   3.683317193608e-05 
7 1  1.637040564824e-04   8.750195942161e-06   2.194552243095e-04 
8 1  7.854452583309e-05  -7.013708415342e-06  -5.294522181939e-05 
8
Step 5200
1 1 -7.721890272802e-05   1.035022485868e-04   7.434715347012e-05 
2 1  1.872803275219e-04   5.569937867237e-05  -3.009235611378e-04 
3 1  1.279474544179e-05   1.647886298635e-04  -1.911667392016e-04 
4 1 -2.938593588200e-04   2.501727122161e-04  -2.153271649238e-04 
5 1  8.934143544390e-05   8.134761563104e-05   1.930745971823e-04 
6 1  1.784343485679e-04  -6.135146508672e-05   1.464412691333e-04 
7 1  1.902061891610e-05   6.090617573337e-05   1.090111952466e-05 
8 1 -3.495299058826e-05   8.672901842948e-05  -2.894759126592e-05 
8
Step 5300
1 1 -9.570916399268e-05   1.904957967195e-04  -8.434789471074e-06 
2 1  6.808709947060e-05  -1.379722400073e-06  -1.713846237912e-04 
3 1 -3.972067138299e-05   3.211651785766e-04  -2.160544681229e-04 
4 1 -3.540828217538e-04  -2.748981279765e-06  -8.167602006540e-05 
5 1  1.656780637733e-04   7.803371895950e-05   4.355253527040e-05 
6 1 -2.140930990242e-04   6.786196326549e-05   6.268331106603e-05 
7 1 -1.362737708053e-04  -5.946557239643e-05  -1.929863061181e-04 
8 1 -1.237269850739e-04   4.092077362024e-06   4.557678771291e-05 
8
Step 5400
1 1 -4.945482575185e-05   6.561713903086e-05   2.838001661999e-05 
2 1 -1.065374470621e-04  -4.790382132666e-05   3.995697557740e-06 
3 1 -1.803450044644e-05   6.052384094484e-05   3.160684488657e-05 
4 1 -5.062059829091e-05  -3.175274433948e-04   9.516396583685e-05 
5 1  1.491480090979e-04  -6.156673492715e-05  -7.740130231700e-05 
6 1 -2.799497853226e-04   8.389280308789e-05  -4.379379714848e-05 