8
Step 0
1 1  0.000000000000e+00   0.000000000000e+00   0.000000000000e+00 
2 1  0.000000000000e+00   0.000000000000e+00   0.000000000000e+00 
3 1  0.000000000000e+00   0.000000000000e+00   0.000000000000e+00 
4 1  0.000000000000e+00   0.000000000000e+00   0.000000000000e+00 
5 1  0.000000000000e+00   0.000000000000e+00   0.000000000000e+00 
6 1  0.000000000000e+00   0.000000000000e+00   0.000000000000e+00 
7 1  0.000000000000e+00   0.000000000000e+00   0.000000000000e+00 
8 1  0.000000000000e+00   0.000000000000e+00   0.000000000000e+00 
8
Step 1000
1 1  3.618722535261e-05  -6.453617375089e-05   4.254968279505e-05 
2 1  1.593553688937e-04  -8.563360491532e-05  -1.623520645931e-04 
3 1 -2.449867034553e-05   1.283962839360e-04  -5.772720435188e-05 
4 1 -2.004268062171e-06   1.039563561307e-05  -1.512401738893e-04 
5 1 -5.979096783042e-05   6.062993938223e-05   2.495577270901e-05 
6 1 -6.782713722738e-05  -1.869315754104e-04   1.439932515109e-04 
7 1 -5.821781490121e-05   5.568043971745e-07   8.549466269150e-05 
8 1  2.177532370582e-06  -7.117036887011e-05  -1.819035376506e-04 
8
Step 2000
1 1 -5.142413392868e-05  -9.329748511414e-06   6.712390661802e-05 
2 1  1.094624692684e-04   5.770936046723e-05  -1.355406237701e-04 
3 1  2.520505153679e-05   8.811433046949e-05  -9.027157130577e-05 
4 1  1.561368221107e-05   1.352849942534e-05  -9.595465766731e-05 
5 1 -9.321060907499e-05   4.820107166238e-05  -5.646497654261e-05 
6 1 -1.438377958673e-04  -1.629384343081e-04   9.880605659712e-05 
7 1 -1.371717377906e-05   5.486851855161e-05   5.752005504379e-05 
8 1  2.316568103813e-08   2.649107992209e-05  -1.437661825421e-04 
8
Step 3000
1 1 -1.202396897769e-04   4.288526213874e-05   5.486379020211e-05 
2 1  1.146721138475e-05   1.705045326828e-04  -5.467477639841e-05 
3 1  6.635076555660e-05   2.839868671604e-05  -7.500290815626e-05 
4 1  2.274683523210e-05   1.635321291555e-05  -1.632257764096e-05 
5 1 -8.841085739436e-05  -6.326655417517e-06  -9.672786806983e-05 
6 1 -1.685795214597e-04  -8.499474544586e-05   2.893120130609e-05 
7 1  2.394758580306e-05   7.924886690872e-05   1.761714219539e-05 
8 1 -7.582401429208e-06   1.148233903481e-04  -4.793418115092e-05 
8
Step 4000
1 1 -1.401743970683e-04   6.908063229389e-05   2.309079828683e-05 
2 1 -7.515810646003e-05   1.934299036657e-04   3.913951114391e-05 
3 1  8.541248342593e-05  -3.105005161393e-05  -3.161950184596e-05 
4 1  2.915173712091e-05   1.278865010815e-05   4.686550675826e-05 
5 1 -6.363496505054e-05  -3.874804697079e-05  -7.764230115044e-05 
6 1 -1.341071708663e-04   2.666199659383e-06  -3.557144290870e-05 
7 1  3.445659394188e-05   6.851745544798e-05  -2.223557938756e-05 
8 1  6.185238378572e-06   1.337474644257e-04   4.547699433327e-05 
8
Step 5000
1 1 -1.045608547943e-04   5.421286966480e-05  -1.237234773428e-05 
2 1 -1.144779011583e-04   1.303913354168e-04   1.026890873205e-04 
3 1  7.838720390624e-05  -7.331855406062e-05   1.836525163916e-05 
4 1  3.828143282158e-05  -1.369243292523e-06   7.357593339536e-05 
5 1 -1.225128781436e-05  -3.849630885340e-05  -3.145844556804e-05 
6 1 -5.374680823141e-05   6.444324217767e-05  -7.494265759935e-05 
7 1  2.346406154119e-05   3.310296354725e-05  -5.454379734960e-05 
8 1  2.174638756548e-05   9.605888453739e-05   1.122951225431e-04 
8
Step 6000
1 1 -2.408919454147e-05   1.944617091487e-05  -5.397895979664e-05 
2 1 -9.748231232193e-05   5.976729412826e-06   1.249501810338e-04 
3 1  4.805903651079e-05  -8.902918950118e-05   5.271939659423e-05 
4 1  4.407063337632e-05  -2.334451821115e-05   6.236275011920e-05 
5 1  5.064834684380e-05  -1.773940209668e-05   2.554088466804e-05 
6 1  4.411550817676e-05   8.267971745158e-05  -8.224716732721e-05 
7 1  2.332334303361e-06  -8.407868332988e-06  -7.072073520786e-05 
8 1  3.133926623903e-05   3.409409406958e-05   1.256960370874e-04 
8
Step 7000
1 1  6.792254972281e-05  -1.202532342887e-05  -7.928000219808e-05 
2 1 -3.662547965260e-05  -1.243055815130e-04   1.001511685469e-04 
3 1  2.710944251836e-06  -7.744775751619e-05   5.187395995453e-05 
4 1  3.681282346464e-05  -4.244391271550e-05   2.752788419397e-05 
5 1  8.742122160322e-05   2.719014229498e-05   6.885183571396e-05 
6 1  1.234632665562e-04   5.971295201418e-05  -6.130639182642e-05 
7 1 -1.461005422107e-05  -3.567315558382e-05  -6.511577699936e-05 
8 1  4.402529545030e-05  -3.837738978746e-05   8.566871884825e-05 
8
Step 8000
1 1  1.276259905005e-04  -3.018743834018e-05  -6.151236453425e-05 
2 1  4.206318809405e-05  -1.939215560503e-04   3.855489168524e-05 
3 1 -4.508390978316e-05  -4.351030538098e-05   2.258207873439e-05 
4 1  1.096657228236e-05  -4.585941976586e-05  -9.005830537042e-06 
5 1  9.324423334927e-05   5.968993718798e-05   6.854899367629e-05 
6 1  1.553412645814e-04   1.662703996072e-05  -2.481444936116e-05 
7 1 -1.296472834812e-05  -4.026189173625e-05  -3.938867371817e-05 
8 1  3.633667523124e-05  -7.887429602955e-05   1.563671627571e-05 
8
Step 9000
1 1  1.306626792972e-04  -2.634700874576e-05  -1.254254831485e-05 
2 1  9.718768977554e-05  -1.697677072539e-04  -3.078927781616e-05 
3 1 -7.860350902452e-05   4.526277588431e-06  -1.467021579848e-05 
4 1 -2.928146459729e-05  -2.702381866723e-05  -2.648530347246e-05 
5 1  6.586461639166e-05   5.773641728055e-05   3.664034174972e-05 
6 1  1.297171108819e-04  -2.324927564207e-05   1.054843489721e-05 
7 1  8.385517505670e-06  -2.938513292449e-05  -1.110309168346e-06 
8 1  4.397777727202e-06  -7.478965587727e-05  -5.973268856489e-05 
8
Step 10000
1 1  7.912745322816e-05  -1.130600345966e-06   3.928801469644e-05 
2 1  1.002798133675e-04  -6.457749611038e-05  -7.829647107885e-05 
3 1 -8.364019016927e-05   5.006998988689e-05  -4.225784820535e-05 
4 1 -6.818481557191e-05   1.091766612240e-05  -1.705274327311e-05 
5 1  5.108040157895e-06   2.924154065921e-05  -4.386368195629e-06 
6 1  5.637111275408e-05  -4.161322519208e-05   3.287094487623e-05 
7 1  3.478295821025e-05  -1.519717930887e-05   3.920512883124e-05 
8 1 -3.258805660409e-05  -4.758617033631e-05  -1.088066832095e-04 
8
Step 11000
1 1 -9.027962671930e-06   2.602826032965e-05   8.077840026574e-05 
2 1  5.254764455207e-05   7.421565990998e-05  -9.594365374511e-05 
3 1 -5.747443235116e-05   7.639255033748e-05  -4.775167718814e-05 
4 1 -8.474586432305e-05   5.453182482408e-05   1.093213094075e-05 
5 1 -5.415778869330e-05  -2.394731081346e-05  -4.544904645756e-05 
6 1 -3.670156386798e-05  -3.114089176638e-05   3.755567251114e-05 
7 1  4.677645767983e-05  -6.978353106482e-06   6.726529680615e-05 
8 1 -6.477112488345e-05  -6.419723425799e-06  -1.017650291027e-04 
8
Step 12000
1 1 -9.564057212796e-05   3.815019648101e-05   9.214687163140e-05 
2 1 -1.452799609456e-05   1.796485491508e-04  -8.196980235140e-05 
3 1 -9.327283300520e-06   7.570453082538e-05  -2.322615170373e-05 
4 1 -6.428739738566e-05   8.290642223813e-05   3.756493743670e-05 
5 1 -8.501712700671e-05  -7.659806909070e-05  -6.023145312298e-05 
6 1 -1.124666944091e-04   2.652488444000e-07   2.739125958954e-05 
7 1  3.250346548305e-05  -1.033225815824e-05   6.995169151280e-05 
8 1 -8.452088525892e-05   2.769078521603e-05  -5.482634453833e-05 
8
Step 13000
1 1 -1.357609461545e-04   2.762962413903e-05   5.466673616194e-05 
2 1 -7.349503801545e-05   2.007096452352e-04  -3.952119193498e-05 
3 1  4.430854347863e-05   4.966759419277e-05   2.114802171900e-05 
4 1 -7.685821054392e-06   7.731819430762e-05   4.188878391950e-05 
5 1 -8.213696417059e-05  -9.093063925769e-05  -3.933689201236e-05 
6 1 -1.426036716223e-04   3.309731771834e-05   1.110687415996e-05 
7 1 -9.132553446432e-06  -1.716347014817e-05   4.560509713858e-05 
8 1 -7.206892199841e-05   3.074491227642e-05   7.390757264002e-06 
8
Step 14000
1 1 -1.117039013158e-04  -7.200665700904e-06  -1.663926375673e-05 
2 1 -9.870069433116e-05   1.243739544042e-04   1.149714172119e-05 
3 1  8.350343180796e-05   6.114936916699e-06   6.260066708675e-05 
4 1  6.563264265752e-05   3.295587006416e-05   1.374815168990e-05 
5 1 -4.469607486850e-05  -6.569388218480e-05  -8.952379073453e-06 
6 1 -1.163800317792e-04   5.098938910348e-05  -1.651857378659e-07 
7 1 -6.345873771083e-05  -1.219078912963e-05   1.646047338561e-06 
8 1 -2.182049092245e-05   1.771860798580e-05   7.333391137289e-05 
8
Step 15000
1 1 -3.698344893947e-05  -5.067234702108e-05  -8.394098713538e-05 
2 1 -7.679867929775e-05  -2.477664564066e-05   4.914154206481e-05 
3 1  9.012309682700e-05  -4.181530455874e-05   7.631312419159e-05 
4 1  1.228157163044e-04  -3.756425239026e-05  -3.857640452609e-05 
5 1  1.727899339020e-05  -5.956933629647e-06   2.375330245157e-05 
6 1 -4.249899306878e-05   4.178508595036e-05  -2.522308289674e-06 
7 1 -1.032535965838e-04   1.363312593733e-05  -4.597786015768e-05 
8 1  5.229422597081e-05   5.803313095354e-06   1.076129117212e-04 
8
Step 16000
1 1  5.966283665535e-05  -7.641918083061e-05  -1.200423000379e-04 
2 1 -1.084952479767e-05  -1.712939761452e-04   6.766675432756e-05 
3 1  5.602375942607e-05  -7.373682594910e-05   5.676589898278e-05 
4 1  1.296834878777e-04  -1.071743221414e-04  -8.779671976336e-05 
5 1  6.693103189437e-05   7.175960046161e-05   4.553271039232e-05 
6 1  4.711190526254e-05   4.879626994183e-06   2.703861822461e-06 
7 1 -1.019979193874e-04   5.322954889386e-05  -7.523697906510e-05 
8 1  1.147188751696e-04  -4.702078368843e-06   8.735519543744e-05 
8
Step 17000
1 1  1.345690597935e-04  -7.307295157516e-05  -1.083104771167e-04 
2 1  5.518841578933e-05  -2.369798277442e-04   7.148357752104e-05 
3 1 -2.189559401309e-06  -7.531396065816e-05   9.303048027753e-06 
4 1  7.469068078370e-05  -1.408197442203e-04  -1.064219062752e-04 
5 1  7.954155340441e-05   1.234148656708e-04   3.884942582993e-05 
6 1  1.110958183822e-04  -4.339592354590e-05   1.053815236407e-05 
7 1 -5.296195557870e-05   8.771055788192e-05  -6.976510828349e-05 
8 1  1.394880526844e-04  -9.233620755016e-07   3.055232937742e-05 
8
Step 18000
1 1  1.422543113910e-04  -3.878856272191e-05  -4.121407067803e-05 
2 1  8.483368811891e-05  -1.959550423923e-04   5.281116463961e-05 
3 1 -5.928245322702e-05  -5.066578958667e-05  -5.433177765231e-05 
4 1 -2.297632739609e-05  -1.164056867005e-04  -7.808984517858e-05 
5 1  5.366033530131e-05   1.181446544945e-04   1.080228703367e-05 
6 1  1.228896184017e-04  -7.982836599003e-05   1.353426232127e-05 
7 1  2.929663959823e-05   9.419757242148e-05  -3.162138504153e-05 
8 1  1.198979288764e-04   2.514607747264e-05  -2.525106049863e-05 
8
Step 19000
1 1  8.004186549640e-05   1.976031030372e-05   5.106470981810e-05 
2 1  6.916345407684e-05  -6.945199461037e-05   2.216246267250e-05 
3 1 -8.928932464632e-05  -1.210997462537e-05  -1.063332491790e-04 
4 1 -1.194777630783e-04  -3.843193475855e-05  -9.115608925302e-06 
5 1  6.100865110624e-06   6.384976385845e-05  -1.335765997414e-05 
6 1  7.929182583811e-05  -8.823819136263e-05   6.458897506309e-06 
7 1  1.100525373121e-04   5.795913287540e-05   2.199046095676e-05 
8 1  5.089100564094e-05   4.475553843220e-05  -5.993801963051e-05 
8
Step 20000
1 1 -1.005548152444e-05   6.984981225783e-05   1.130364352564e-04 
2 1  2.924279320089e-05   9.580058902356e-05   5.454466216409e-06 
3 1 -7.978874457148e-05   2.356136908202e-05  -1.155662178560e-04 
4 1 -1.658234089821e-04   5.225428334714e-05   6.876716955583e-05 
5 1 -4.124469944661e-05  -2.123234858926e-05  -2.651788684176e-05 
6 1  2.475636142335e-06  -6.150926155645e-05  -6.313998142475e-06 
7 1  1.485017267030e-04  -1.189922523956e-05   6.215381503684e-05 
8 1 -4.507839619479e-05   3.936673943061e-05  -6.109318434330e-05 
8
Step 21000
1 1 -8.914052017530e-05   8.442762882630e-05   1.203942035132e-04 
2 1 -2.370560316747e-05   2.051481005462e-04   1.042655689064e-06 
3 1 -3.050426991723e-05   4.310650533313e-05  -7.885273852995e-05 
4 1 -1.344660595657e-04   1.237874991364e-04   1.136989789526e-04 
5 1 -5.988652930094e-05  -9.733216703125e-05  -1.763219488228e-05 
6 1 -6.353669535311e-05  -8.916530908856e-06  -2.013502825173e-05 
7 1  1.275797673128e-04  -8.705680046102e-05   6.465170210240e-05 
8 1 -1.174257297810e-04   1.326413146575e-05  -3.454230254098e-05 
8
Step 22000
1 1 -1.269776644082e-04   7.099411850584e-05   7.730249643115e-05 
2 1 -6.138789959354e-05   1.980196765318e-04  -1.391458804540e-05 
3 1  3.283382450386e-05   3.863255147821e-05  -2.671552501714e-05 
4 1 -3.894787514020e-05   1.449528389816e-04   1.088594418865e-04 
5 1 -4.075463968110e-05  -1.262524629235e-04   1.007841767914e-05 
6 1 -8.717141244074e-05   4.824944222976e-05  -2.983003929979e-05 
7 1  5.925140227372e-05  -1.344459292454e-04   2.851487193573e-05 
8 1 -1.338827703179e-04  -1.737676576516e-05   1.222468401282e-05 
8
Step 23000
1 1 -9.679112480975e-05   3.732982165378e-05  -5.805753082368e-06 
2 1 -5.465052708386e-05   1.074811571563e-04  -3.134921091553e-05 
3 1  7.598405879774e-05   2.231219794768e-05   3.782824490765e-05 
4 1  7.736106670877e-05   1.035903205853e-04   5.845780294810e-05 
5 1 -4.167920917136e-08  -1.000088694809e-04   3.581062654524e-05 
6 1 -5.923721143014e-05   8.673272002555e-05  -3.357787892886e-05 
7 1 -3.056590506624e-05  -1.291717310643e-04  -2.648687227485e-05 
8 1 -1.066711359651e-04  -5.314810875155e-05   3.657382744719e-05 
8
Step 24000
1 1 -2.207508469574e-05  -7.162586010303e-06  -8.554164467457e-05 
2 1 -1.104727997433e-05  -4.938303576130e-06  -3.872087613393e-05 
3 1  8.454810892244e-05   4.536575025317e-06   9.906907335245e-05 
4 1  1.576522504725e-04   1.708962931281e-05  -1.369098952361e-05 
5 1  3.947309309460e-05  -2.726758522936e-05   4.090109477203e-05 
6 1  5.951586226539e-07   9.240828249763e-05  -3.040915193632e-05 
7 1 -1.064604254364e-04  -7.053160000924e-05  -7.379286343058e-05 
8 1 -4.873927533718e-05  -7.932438555132e-05   1.553870936336e-05 
8
Step 25000
1 1  4.894748411716e-05  -3.728460285766e-05  -1.153042545834e-04 
2 1  2.305951347575e-05  -1.239116445858e-04  -5.007446311542e-05 
3 1  5.708049362061e-05  -1.026500792650e-05   1.290135927521e-04 
4 1  1.662154881030e-04  -6.464731859143e-05  -7.238447278651e-05 
5 1  5.757515926526e-05   5.795265847651e-05   1.812261052209e-05 
6 1  6.222255777261e-05   6.858762692697e-05  -2.110312806301e-05 
7 1 -1.335261579821e-04   2.162606541254e-05  -8.258914308004e-05 
8 1  2.557094039493e-05  -6.208147190330e-05  -1.677698423794e-05 
8
Step 26000
1 1  9.094586278961e-05  -4.216981321955e-05  -8.822012693468e-05 
2 1  3.681799025965e-05  -1.827803891374e-04  -5.468078815262e-05 
3 1  3.003199003184e-06  -1.574104934266e-05   1.135409981591e-04 
4 1  9.600138276112e-05  -1.197754659069e-04  -8.535544446087e-05 
5 1  4.619897594479e-05   1.143389979663e-04  -2.450938313265e-05 
6 1  9.082617943920e-05   2.008900090176e-05  -5.116784347266e-06 
7 1 -1.063989611026e-04   1.073497992730e-04  -4.295210006618e-05 
8 1  8.288619445417e-05  -9.555040923395e-06  -3.482368645136e-05 
8
Step 27000
1 1  9.133007367088e-05  -3.680678729583e-05  -2.263132540336e-05 
2 1  3.200383878467e-05  -1.409729338614e-04  -3.443985994432e-05 
3 1 -5.733582983710e-05  -1.360858849633e-05   6.252234159890e-05 
4 1 -1.755911848674e-05  -1.233005941655e-04  -5.263550770851e-05 
5 1  9.968954078899e-06   1.139749138417e-04  -6.246797131338e-05 
6 1  7.103019645061e-05  -3.456601235565e-05   1.585355859904e-05 
7 1 -4.314134363180e-05   1.466969088811e-04   2.580515685785e-05 
8 1  1.050244532467e-04   4.064013921274e-05  -3.524917935972e-05 
8
Step 28000
1 1  4.829800407079e-05  -2.713204354707e-05   5.382550020038e-05 
2 1  1.104402017509e-05  -4.827662629058e-05   4.741584258586e-06 
3 1 -8.658560135186e-05  -9.409807283924e-06  -6.170954222708e-06 
4 1 -1.208152438817e-04  -7.233801729386e-05   1.489315924784e-06 
5 1 -3.131699355141e-05   6.700559886836e-05  -7.455483296006e-05 
6 1  1.333306058464e-05  -7.215418670752e-05   3.686236301292e-05 
7 1  2.786653248168e-05   1.224592196791e-04   8.682327819259e-05 
8 1  8.771741946423e-05   6.706424604774e-05  -1.481466041922e-05 
8
Step 29000
1 1 -6.833572594106e-06  -2.002529891427e-05   9.902723237924e-05 
2 1 -1.535209984274e-05   4.423053982252e-05   4.051064288097e-05 
3 1 -7.964902461157e-05  -5.208828385896e-06  -7.381556278893e-05 
4 1 -1.658896919515e-04   4.793670474958e-06   4.696246661068e-05 
5 1 -5.563804022403e-05  -5.714565855694e-06  -5.190857671169e-05 
6 1 -5.271222939614e-05  -8.030769099549e-05   5.276015478279e-05 
7 1  7.849223199321e-05   4.825191889935e-05   1.121480957305e-04 
8 1  4.132690199774e-05   6.555969649069e-05   2.455119495525e-05 
8
Step 30000
1 1 -4.874699261670e-05  -1.986044857454e-05   9.370700485584e-05 
2 1 -2.869360388484e-05   1.169435098391e-04   6.289360818850e-05 
3 1 -4.417861280815e-05   2.562400530601e-07  -1.196136318936e-04 
4 1 -1.339376461397e-04   7.324250316356e-05   5.881251428174e-05 
5 1 -5.323738673161e-05  -7.376786298386e-05  -1.647578929152e-06 
6 1 -9.652093375506e-05  -6.279246718827e-05   5.635142229226e-05 
7 1  8.824911126433e-05  -4.560423936618e-05   8.570115094683e-05 
8 1 -1.100070039531e-05   3.086375671497e-05   5.845875144940e-05 
8
Step 31000
1 1 -6.166085771815e-05  -1.750811721095e-05   4.265347731435e-05 
2 1 -2.394326669000e-05   1.365416271419e-04   6.605041234408e-05 
3 1  6.294721357855e-06   5.824679136259e-06  -1.282535767523e-04 
4 1 -4.369873266670e-05   1.057546363956e-04   2.877752138491e-05 
5 1 -2.739174319878e-05  -1.075045076627e-04   5.452177092654e-05 
6 1 -1.014556000904e-04  -2.491341643115e-05   4.467221688166e-05 
7 1  5.930183518811e-05  -1.157823826298e-04   1.533045652847e-05 
8 1 -5.020589219922e-05  -2.045798405147e-05   6.893907599671e-05 
8
Step 32000
1 1 -4.336637738342e-05  -3.478570606878e-06  -3.015636967064e-05 
2 1 -6.500704231748e-06   8.927533998385e-05   4.670533945552e-05 
3 1  5.250793382885e-05   1.029150123393e-05  -9.613557955276e-05 
4 1  6.143606292124e-05   8.961470483000e-05  -2.455338232908e-05 
5 1  6.363120345777e-06  -9.152098409206e-05   9.294692768619e-05 
6 1 -6.335645009550e-05   1.964218111176e-05   1.605937596768e-05 
7 1  9.924917005175e-06  -1.286659976082e-04  -6.733797723400e-05 
8 1 -7.010398279899e-05  -5.532402931206e-05   5.053079232884e-05 
8
Step 33000
1 1 -1.090268814850e-05   2.061853358769e-05  -8.658876094123e-05 
2 1  9.328756375551e-06   1.262563704867e-05   1.198587330351e-05 
3 1  7.579961796279e-05   1.321487592717e-05  -3.117643914557e-05 
4 1  1.337498223013e-04   3.623699501204e-05  -6.862500229471e-05 
5 1  3.400009056234e-05  -3.796232056855e-05   9.251128694282e-05 
6 1  8.369262432751e-07   5.168684243322e-05  -2.226755855714e-05 
7 1 -3.477833314189e-05  -8.238871555922e-05  -1.220853120638e-04 
8 1 -6.603970317409e-05  -5.572143573690e-05   6.991291872534e-06 
8
Step 34000
1 1  1.182648947321e-05   4.781630090732e-05  -9.560519607001e-05 
2 1  1.588790820371e-05  -5.112395267235e-05  -1.907862593190e-05 
3 1  6.881163439899e-05   1.464134688951e-05   4.072086446855e-05 
4 1  1.422895610023e-04  -2.986174533543e-05  -7.777400379847e-05 
5 1  4.473788462359e-05   2.339266777749e-05   5.227328833024e-05 
6 1  6.055328023250e-05   5.979187130208e-05  -5.720391088409e-05 
7 1 -5.434218357975e-05  -1.201131924842e-06  -1.230770777582e-04 
8 1 -4.076177278025e-05  -2.359505564152e-05  -4.195670831239e-05 
8
Step 35000
1 1  1.860737362518e-05   6.754922037756e-05  -5.940339852011e-05 
2 1  1.206173979648e-05  -8.438309524275e-05  -3.229194877052e-05 
3 1  4.157208280324e-05   1.108465485067e-05   9.399880689939e-05 
4 1  8.692497671668e-05  -7.608760887291e-05  -4.308075373809e-05 
5 1  3.217400903303e-05   6.637556923271e-05  -5.350949177229e-06 
6 1  8.989811913817e-05   4.548802779385e-05  -7.622533712449e-05 
7 1 -3.975659283242e-05   7.491815058542e-05  -7.062202298146e-05 
8 1 -9.845056192523e-06   2.337440493872e-05  -7.490024771705e-05 
8
Step 36000
1 1  7.421227572774e-06   6.202986078393e-05   4.643128202806e-06 
2 1  2.303505331313e-06  -7.729142377344e-05  -2.947699005613e-05 
3 1  9.913920463171e-06   1.016031763559e-06   1.137518103447e-04 
4 1  6.496607735763e-07  -7.992020759749e-05   2.110056945451e-05 
5 1  7.132599272987e-06   7.562738036425e-05  -5.656305704705e-05 
6 1  8.478540811059e-05   1.757456353106e-05  -7.349252455722e-05 
7 1 -2.200484064455e-06   1.074658433629e-04   1.019149639974e-05 
8 1  1.701570428608e-05   6.112624581970e-05  -8.229195129610e-05 
8
Step 37000
1 1 -1.082747470554e-05   2.713633942979e-05   6.565191165314e-05 
2 1 -5.244381857138e-06  -3.935224444871e-05  -2.129158359645e-05 
3 1 -1.491324165101e-05  -1.271624910286e-05   9.757618987023e-05 
4 1 -7.303361454779e-05  -4.495470780767e-05   8.266602030291e-05 
5 1 -1.236672903872e-05   5.168071410083e-05  -8.463064866879e-05 
6 1  5.167773091070e-05  -1.142141171742e-05  -4.749768021657e-05 
7 1  3.661292601819e-05   8.339541295385e-05   8.086907554569e-05 
8 1  3.751386589512e-05   6.624638857477e-05  -6.003668165291e-05 
8
Step 38000
1 1 -1.533795398269e-05  -2.336732723840e-05   8.964385161253e-05 
2 1 -3.938812421952e-06   3.129225674509e-06  -1.637375634978e-05 
3 1 -3.035307663695e-05  -2.489343876167e-05   5.118684162658e-05 
4 1 -1.012330263378e-04   7.322099358096e-06   1.088702075009e-04 
5 1 -1.907369642018e-05   1.070872811206e-05  -7.814782456486e-05 
6 1  5.999533480511e-06  -2.935120056973e-05  -4.644869550138e-06 
7 1  5.675480877250e-05   1.811288579308e-05   1.118335327711e-04 
8 1  4.651004802257e-05   2.935899667851e-05  -1.430781955637e-05 
8
Step 39000
1 1  1.253720479029e-06  -6.848904640946e-05   6.583867213968e-05 
2 1  4.488267107497e-06   2.982244277229e-05  -1.928939883759e-05 
3 1 -3.754775068539e-05  -3.254644116945e-05  -1.202308229723e-05 
4 1 -7.872028131146e-05   5.316389893949e-05   8.471471995114e-05 
5 1 -1.310420201472e-05  -2.599220904071e-05  -4.039856110793e-05 
6 1 -3.206788261461e-05  -3.052869265678e-05   4.175709800368e-05 
7 1  4.461028498268e-05  -5.774436512390e-05   9.046602814440e-05 
8 1  4.486265805802e-05  -3.104492774201e-05   3.755624286785e-05 
8
Step 40000
1 1  2.867315313993e-05  -8.806901544235e-05   9.566234988645e-06 
2 1  1.502046187965e-05   3.582658564230e-05  -2.796541591112e-05 
3 1 -4.001101629473e-05  -2.897851114009e-05  -7.080452546244e-05 
4 1 -2.192413330540e-05   7.203949254480e-05   1.584764246440e-05 
5 1  8.371869157977e-07  -4.361497152379e-05   1.160219833444e-05 
6 1 -5.194107584681e-05  -1.695454243839e-05   7.694367076266e-05 
7 1  3.390324529407e-07  -1.071123767468e-04   2.393369995060e-05 
8 1  3.239851775398e-05  -8.442992481755e-05   7.887977968702e-05 
8
Step 41000
1 1  5.307138279789e-05  -6.499841638774e-05  -5.686161331641e-05 
2 1  1.491032155605e-05   2.894402975187e-05  -2.845812379559e-05 
3 1 -4.046194870499e-05  -6.835876146355e-06  -1.048292953191e-04 
4 1  4.344924007728e-05   5.288066019260e-05  -7.168339115785e-05 
5 1  1.130538853875e-05  -3.962494798426e-05   5.951631729453e-05 
6 1 -5.447235210209e-05   3.007910882724e-06   8.789729711362e-05 
7 1 -5.587151415827e-05  -1.015651928238e-04  -5.640475020623e-05 
8 1  3.802951881409e-06  -1.075339215382e-04   9.604053597319e-05 
8
Step 42000
1 1  5.314933958341e-05  -3.809208907239e-06  -1.011784523726e-04 
2 1 -2.758963043918e-06   1.964386552268e-05  -5.969241145895e-06 
3 1 -3.267658770313e-05   2.868909614603e-05  -1.048618068398e-04 
4 1  8.465736875921e-05   5.423048892117e-06  -1.383798083997e-04 
5 1  9.611141308941e-06  -2.117721164271e-05   8.642915355345e-05 
6 1 -4.189345194818e-05   1.799595749529e-05   6.641056224491e-05 
7 1 -9.642947067074e-05  -4.012606662841e-05  -1.110620062963e-04 
8 1 -3.801700025052e-05  -7.867291601830e-05   7.713506637508e-05 
8
Step 43000
1 1  1.524384209018e-05   6.625601021255e-05  -9.683298508830e-05 
2 1 -3.160091172249e-05   1.640152820729e-05   3.900428725966e-05 
3 1 -8.477388707288e-06   6.255484172170e-05  -6.792723840308e-05 
4 1  7.921918989350e-05  -4.894304234662e-05  -1.495367682263e-04 
5 1 -1.858575401189e-06   6.868942404183e-07   8.132083774258e-05 
6 1 -2.249987489928e-05   2.020428131514e-05   1.684313110154e-05 
7 1 -1.029432065047e-04   5.121989610531e-05  -1.189428349270e-04 
8 1 -7.101874527436e-05   4.405943797915e-06   2.647614490865e-05 
8
Step 44000
1 1 -4.428281851028e-05   1.101750987250e-04  -4.872132008586e-05 
2 1 -4.901555402561e-05   1.711254438113e-05   9.397037094168e-05 
3 1  2.976048664826e-05   7.729241157741e-05  -3.320183858106e-06 
4 1  3.509855913255e-05  -8.037728156988e-05  -9.774053506878e-05 
5 1 -1.717406885023e-05   1.453128563089e-05   4.555031768725e-05 
6 1 -7.393985268834e-06   8.836955332183e-06  -4.171835456767e-05 
7 1 -6.111672621861e-05   1.312726524564e-04  -6.952616292206e-05 
8 1 -8.936317825591e-05   9.793253257746e-05  -3.983181777914e-05 
8
Step 45000
1 1 -9.802570888249e-05   1.007559356296e-04   2.189977346541e-05 
2 1 -4.507064041580e-05   1.295088767565e-05   1.284364638739e-04 
3 1  7.169738703160e-05   6.335676470876e-05   6.430018933989e-05 
4 1 -2.098304072612e-05  -7.659040955158e-05  -8.916500151415e-06 
5 1 -2.626143865234e-05   1.369559489744e-05  -6.302389470664e-06 
6 1  2.261598192656e-06  -1.048891101636e-05  -8.512320129411e-05 
7 1  1.932107517568e-05   1.557594375624e-04   1.899291001756e-05 
8 1 -8.050606721376e-05   1.589444043709e-04  -9.659881753633e-05 
8
Step 46000
1 1 -1.180988134702e-04   3.560551167478e-05   8.332913103289e-05 
2 1 -1.755966675843e-05  -4.154508843584e-06   1.164264892664e-04 
3 1  1.014814349903e-04   1.861395430180e-05   9.940555577015e-05 
4 1 -6.365475127601e-05  -3.957027278695e-05   8.518697650648e-05 
5 1 -2.071172932418e-05   1.842991037611e-06  -5.110940213422e-05 
6 1  7.660527254649e-06  -2.629340863319e-05  -9.392005856852e-05 
7 1  1.009701202469e-04   1.083081674391e-04   9.814710070091e-05 
8 1 -3.122583348248e-05   1.659754774380e-04  -1.231639797194e-04 
8
Step 47000
1 1 -8.642066841054e-05  -5.231854069119e-05   1.045626896716e-04 
2 1  2.691629028651e-05  -3.085610229989e-05   5.122274921829e-05 
3 1  1.005833691503e-04  -4.035001590769e-05   9.250469507407e-05 
4 1 -7.373867243930e-05   1.310670757385e-05   1.410268678063e-04 
5 1 -9.349301330611e-07  -8.010654756711e-06  -6.875788877778e-05 
6 1  1.208156823493e-05  -2.734357064809e-05  -6.516521735776e-05 
7 1  1.480740372478e-04   1.368600330789e-05   1.233786610378e-04 
8 1  4.221090147625e-05   1.053433147041e-04  -1.035561780634e-04 
8
Step 48000
1 1 -1.173001085783e-05  -1.107335186303e-04   7.626359896941e-05 
2 1  7.411907300640e-05  -5.659295537053e-05  -3.709850935032e-05 
3 1  6.325018534753e-05  -8.748969867388e-05   5.321944826424e-05 
4 1 -4.371639428401e-05   6.197534690178e-05   1.289061248764e-04 
5 1  1.837565658577e-05  -6.322919454338e-06  -5.795449690910e-05 
6 1  2.310353360335e-05  -1.271575290863e-05  -1.882216191211e-05 
7 1  1.451749837502e-04  -8.780697321946e-05   9.640245453992e-05 
8 1  9.204978575085e-05  -2.275957734807e-07  -5.391877502435e-05 
8
Step 49000
1 1  6.530128255951e-05  -1.083483346924e-04   2.441497616513e-05 
2 1  8.842345995318e-05  -6.672635066017e-05  -1.210478715784e-04 
3 1  1.064457349089e-06  -9.961287060197e-05  -3.061398521084e-07 
4 1  7.463167585214e-06   7.774725833510e-05   6.716351541951e-05 
5 1  2.749847604985e-05   6.504302900265e-06  -2.752515864514e-05 
6 1  3.959880605684e-05   1.020906646958e-05   2.288033367970e-05 
7 1  8.973917075462e-05  -1.464774878390e-04   2.599168415963e-05 
8 1  1.120110622229e-04  -9.527703139780e-05   7.171144917662e-06 
8
Step 50000
1 1  1.117785079316e-04  -4.835029091498e-05  -2.456832178762e-05 
2 1  5.835170415053e-05  -5.105891384481e-05  -1.676442849617e-04 
3 1 -6.639978613801e-05  -7.181051204271e-05  -4.085636695950e-05 
4 1  5.210231640433e-05   5.739975926387e-05  -6.100666055368e-06 
5 1  2.262203236256e-05   2.463644670937e-05   6.804792544969e-06 
6 1  5.107284270705e-05   3.233701363421e-05   4.588708404084e-05 
7 1  6.040288013729e-07  -1.356764204590e-04  -5.746121011756e-05 
8 1  9.764673953022e-05  -1.457229594316e-04   5.881199417644e-05 
8
Step 51000
1 1  1.146389087163e-04   4.741436743989e-05  -5.708217374588e-05 
2 1  3.283461174564e-06  -1.164553014224e-05  -1.538314197110e-04 
3 1 -1.158139267978e-04  -1.992593001731e-05  -5.124461123302e-05 
4 1  6.619671048422e-05   1.343670882760e-05  -5.814968358711e-05 
5 1  6.372233999491e-06   3.711777896968e-05   2.618116246206e-05 
6 1  5.355665199623e-05   4.067160873101e-05   3.907734941283e-05 
7 1 -8.418267124558e-05  -6.787656562969e-05  -1.074323761618e-04 
8 1  3.672147955108e-05  -1.403553286409e-04   9.613495171108e-05 
8
Step 52000
1 1  7.061109728089e-05   1.289257388800e-04  -5.804166572684e-05 
2 1 -4.918316005117e-05   3.786818451044e-05  -7.405413794046e-05 
3 1 -1.268313585004e-04   3.532296204911e-05  -3.490963189771e-05 
4 1  4.319535114522e-05  -3.738473657895e-05  -7.340467359554e-05 
5 1 -1.211445791062e-05   3.296583226868e-05   2.327173326494e-05 
6 1  3.749194566305e-05   3.097583841555e-05   1.398070397635e-05 
7 1 -1.347362101901e-04   1.877988602915e-05  -9.952251742707e-05 
8 1 -4.089975956553e-05  -8.346182152595e-05   9.785579975237e-05 
8
Step 53000
1 1 -9.636908911075e-07   1.441214692785e-04  -2.977133908200e-05 
2 1 -9.247221759601e-05   7.758802082699e-05   2.877200269216e-05 
3 1 -9.087557606290e-05   7.330373005315e-05  -5.899844051027e-06 
4 1  1.539618338451e-06  -6.848884991710e-05  -4.467519851862e-05 
5 1 -1.980062703570e-05   9.829707991513e-06   7.495380823805e-06 
6 1  2.939137475349e-06   8.227020786723e-06  -7.420020752570e-06 
7 1 -1.357092068348e-04   9.094692923875e-05  -4.838339432700e-05 
8 1 -9.030602555471e-05  -7.916173313965e-06   6.479323565563e-05 
8
Step 54000
1 1 -6.241311780718e-05   8.187064809821e-05   3.167616005610e-06 
2 1 -9.850997229080e-05   8.841360580702e-05   1.091316102283e-04 
3 1 -2.066529711594e-05   8.058384013450e-05   2.041434587695e-05 
4 1 -4.005821457026e-05  -6.131147474020e-05   5.258648983878e-06 
5 1 -1.047705357310e-05  -2.208036975696e-05  -7.091992743539e-06 