8
Step 0
1 1  0.000000000000e+00   0.000000000000e+00   0.000000000000e+00 
2 1  0.000000000000e+00   0.000000000000e+00   0.000000000000e+00 
3 1  0.000000000000e+00   0.000000000000e+00   0.000000000000e+00 
4 1  0.000000000000e+00   0.000000000000e+00   0.000000000000e+00 
5 1  0.000000000000e+00   0.000000000000e+00   0.000000000000e+00 
6 1  0.000000000000e+00   0.000000000000e+00   0.000000000000e+00 
7 1  0.000000000000e+00   0.000000000000e+00   0.000000000000e+00 
8 1  0.000000000000e+00   0.000000000000e+00   0.000000000000e+00 
8
Step 1000
1 1 -9.807550132110e-05   1.403536368136e-04   1.339197057532e-04 
2 1 -2.314590262059e-04   2.673882327613e-04   1.126128286678e-04 
3 1  1.699719085977e-04   4.232439950100e-04   1.846508161492e-04 
4 1 -3.905640928709e-04   7.790781542112e-05  -1.173196997593e-04 
5 1 -3.420315036688e-04   1.487304979374e-04   1.909983677918e-04 
6 1 -9.167774072167e-05  -1.571536784445e-04  -2.681092146713e-04 
7 1 -1.217018106266e-04   1.859975983608e-04   5.913847252009e-05 
8 1  2.759850806328e-05   8.535665896101e-05   6.788021312356e-06 
8
Step 2000
1 1 -1.770050542197e-04   2.696851961918e-04   1.298595995147e-04 
2 1 -1.188426069655e-04   1.704094697288e-04  -4.133096319686e-05 
3 1 -2.209188583183e-05  -2.739660078471e-05   1.642948586161e-04 
4 1 -2.356267027194e-04   7.807025280229e-05   9.537204716639e-05 
5 1 -7.745859386496e-05  -2.343688856953e-05   2.996801569826e-04 
6 1  1.478122941290e-04   1.250033164541e-04  -2.824363892666e-04 
7 1 -2.030967620331e-04   1.018130872308e-04  -4.581986179033e-05 
8 1 -2.673023863386e-04   1.990769769430e-04  -1.095610257025e-05 
8
Step 3000
1 1 -2.605274968577e-04   2.789340886137e-04  -6.479898171311e-05 
2 1 -1.247758222065e-04   1.075941905748e-04   2.417440694739e-04 
3 1  2.269686174764e-05  -7.091805741374e-06   2.722596324444e-05 
4 1 -2.892056929404e-04   9.856739968808e-05   2.516757396911e-05 
5 1 -1.703878084189e-04  -5.617478871402e-05   2.346631066829e-04 
6 1  2.161534301087e-05   1.962599748398e-04  -1.407828940237e-04 
7 1  9.720540192760e-05  -3.951348104142e-05   5.304646785505e-05 
8 1 -1.482641933695e-04   2.398343179831e-04   2.047388716897e-04 
8
Step 4000
1 1 -6.299639806969e-05   4.613494388803e-06  -3.349910855767e-07 
2 1 -1.605078387637e-04   3.747066542710e-04   1.203784853017e-04 
3 1 -1.615383374072e-05  -1.856811751323e-04  -3.255211878994e-05 
4 1 -2.733296690835e-04   3.489613202541e-04   4.876924353097e-05 
5 1 -3.648729225625e-05  -2.011276211519e-04   1.196994896364e-04 
6 1  7.647832927687e-05   3.297920071698e-04  -5.137431179688e-05 
7 1  2.114496736852e-04  -1.888246100360e-05   1.165319685215e-04 
8 1  6.035405922836e-05   1.950133476949e-04   1.789266554765e-04 
8
Step 5000
1 1 -1.681882293881e-04  -1.240557552139e-05   1.516193854352e-04 
2 1 -1.439036717906e-04   1.835230909053e-04   1.676822928988e-04 
3 1  2.181650994567e-05  -1.357107972095e-04  -8.896193608276e-05 
4 1 -3.877333105791e-04   3.773068778077e-04   3.626126786196e-04 
5 1  2.297048012899e-05  -1.045722775504e-04   6.420358144464e-05 
6 1  1.012270571031e-04   6.253328811492e-05  -2.238458030718e-06 
7 1  3.259718828255e-04   3.334614056947e-05   2.789237501925e-05 
8 1 -4.700472678224e-05   1.076750376371e-04   8.746796061396e-05 
8
Step 6000
1 1 -1.233514498016e-04   8.276581196773e-05  -5.423742476458e-05 
2 1 -2.393822112078e-04  -8.462339190213e-05   3.447582931239e-04 
3 1  1.931604416318e-05  -1.191272563632e-04   5.453332144475e-05 
4 1 -1.829968684875e-04  -2.070710547587e-04   3.196900114507e-04 
5 1  2.344591641050e-04  -1.867802076272e-06   1.720605873029e-05 
6 1  9.576999453492e-05   1.147521748593e-04  -8.624334429501e-05 
7 1  1.591600091833e-05   1.109953428816e-04   1.035041855417e-04 
8 1 -1.228269141117e-04   1.273095486235e-04   1.603519330977e-05 
8
Step 7000
1 1 -2.343040551320e-04   1.469213825965e-04   3.942028909805e-05 
2 1 -1.717875463446e-04  -9.183003864372e-05   9.848061334676e-05 
3 1  8.491609428777e-05  -2.041690216648e-04   3.285475329965e-04 
4 1 -1.735674834409e-04  -2.637708811877e-04   2.341876071778e-04 
5 1  1.616736889391e-04  -7.063974329161e-05   1.003802266032e-04 
6 1  1.842635048727e-04   1.117088146600e-04  -1.032206625918e-04 
7 1 -5.643523362631e-05   3.054611904540e-04   1.775322160189e-04 
8 1 -1.799408443656e-05   5.470695523065e-05   8.711721790134e-05 
8
Step 8000
1 1 -1.664158997893e-04   5.122223698403e-05  -7.801952754282e-05 
2 1  3.001350384623e-05  -8.566658865980e-05  -5.270214402049e-05 
3 1  1.746356946532e-04  -9.551617081220e-05   2.725453652971e-04 
4 1  9.750142403731e-06  -3.004397402789e-04   2.504715079905e-05 
5 1 -5.208562207651e-05   5.447658352837e-05   1.235527197450e-04 
6 1  2.404598207813e-04  -5.446230791289e-05   3.716231682040e-05 
7 1  2.127778879321e-04   1.915971933186e-04   2.581000459402e-04 
8 1 -3.801014605897e-05   5.778883094062e-05   5.384902465547e-05 
8
Step 9000
1 1 -2.061177417995e-04  -1.603971654352e-04   2.239827258079e-04 
2 1  2.777946568240e-05  -1.339993422029e-04  -2.566495764390e-05 
3 1  8.447825450358e-06   1.442988865789e-04   2.488254610894e-04 
4 1  7.727591120174e-05   2.121676571166e-05   6.954926482184e-05 
5 1  8.777999294570e-05   5.751460820382e-05   3.425070621483e-04 
6 1  3.998592642289e-04   1.075752802860e-05  -1.509591861740e-04 
7 1  2.191400354396e-04  -1.372849147996e-04   1.596111370311e-04 
8 1  5.916818921097e-05   8.904609419644e-06  -6.112407120367e-05 
8
Step 10000
1 1  4.656547149352e-05  -2.591819959130e-04   5.065563249067e-05 
2 1  2.405802607618e-07  -5.234313770054e-06   6.465997975729e-05 
3 1 -7.325637885007e-05  -1.911661984360e-04   2.564108424280e-04 
4 1  3.198358639337e-04   6.031497084423e-05   2.848860643785e-04 
5 1 -8.715038174707e-05  -3.956406998582e-05  -6.450494027220e-05 
6 1  1.777047519043e-04  -4.504870647437e-05  -1.357775414394e-04 
7 1  8.387007316020e-05  -1.356654158232e-04   1.130286706658e-04 
8 1  7.708098269206e-05  -1.513889459561e-04  -5.161114796968e-06 
8
Step 11000
1 1  5.680256677180e-06  -1.163991008809e-04  -1.280229070900e-05 
2 1 -1.442319507125e-04  -5.831588701573e-05   1.270151463464e-04 
3 1  4.743082717127e-05  -3.339505403281e-04   2.551660295758e-04 
4 1  2.812386561995e-04  -3.470372755456e-04   7.970391334409e-05 
5 1  8.281738905484e-05  -1.673982125735e-04  -2.252016978844e-05 
6 1 -1.274074044704e-04  -3.997142161833e-05  -6.945962615222e-05 
7 1  9.909944134626e-05  -2.365143014677e-05   2.104147442648e-04 
8 1 -1.632116434664e-06   8.695304159526e-05  -4.530718733487e-05 
8
Step 12000
1 1  6.664754866208e-05  -6.270865821914e-06  -5.599404158161e-05 
2 1  1.984449489172e-04  -2.318701057135e-04  -1.523514179243e-04 
3 1  3.148875145240e-04  -2.848954565400e-04   6.727302319901e-05 
4 1 -2.236141299210e-05  -1.102675967428e-04   2.101720219597e-04 
5 1  3.264619540552e-04  -3.031979737927e-04   2.284573352462e-05 
6 1 -1.284654662166e-05   9.349504017152e-05  -2.119958656961e-05 
7 1  2.493788493831e-05  -1.187090558359e-04   1.802387150849e-04 
8 1 -6.525811967781e-05  -1.435106903630e-05  -7.672399788518e-05 
8
Step 13000
1 1 -6.002808242221e-06  -1.122702652992e-04  -1.109728690948e-05 
2 1  8.074379475470e-05  -4.018026648319e-06   1.335832463821e-04 
3 1  3.413624445572e-04   2.473184527619e-07  -6.905558153417e-06 
4 1  1.312263089718e-04  -1.623049417069e-04   1.298222597090e-04 
5 1  3.515382534626e-04  -6.371368561988e-05  -2.260633969734e-06 
6 1  1.068522603041e-04   1.570063724979e-05   8.720011905536e-05 
7 1 -4.813076320252e-05  -1.488339523179e-04  -1.075472293935e-04 
8 1  1.179505706952e-04  -2.085502680378e-04  -2.035814148654e-05 
8
Step 14000
1 1  1.617911310815e-04  -1.741520158485e-04   9.247938392193e-06 
2 1  8.470531951825e-05  -1.777775042402e-04  -6.342995257407e-05 
3 1  2.968811107806e-04   1.083319133377e-04   1.936132999604e-04 
4 1 -2.214410463492e-05  -3.200224837292e-06   1.565372028434e-06 
5 1  2.542622927924e-04   8.495194859591e-06  -2.808582614692e-05 
6 1  5.890895783998e-05  -2.174652838642e-04  -1.020845754057e-04 
7 1  1.410705636183e-04  -3.311923385773e-04  -6.533526329246e-05 
8 1 -6.780458242519e-05  -2.234269516985e-04  -2.449726143983e-05 
8
Step 15000
1 1  2.646582862833e-05  -1.066240374980e-04   2.473903009739e-04 
2 1  2.852454098875e-04  -1.310653623695e-04  -5.339889554373e-05 
3 1  8.942361421182e-05  -2.636524675127e-04  -3.140145933068e-05 
4 1  1.962703863402e-04  -1.110404881525e-04   5.239629527014e-05 
5 1 -2.094629860872e-04  -1.688597252412e-05   8.161204874410e-05 
6 1  2.951924661564e-05  -6.791731620922e-05  -1.677572703772e-04 
7 1  2.287492804566e-04  -2.669688922171e-04  -1.589556323331e-05 
8 1 -2.006253815196e-04  -8.875283454286e-05  -2.062278483870e-04 
8
Step 16000
1 1  2.792520313362e-04  -5.510712645525e-05  -8.074791097041e-05 
2 1  2.367852108100e-04  -1.087464734584e-04  -9.159065552203e-05 
3 1 -1.128956398778e-04  -1.920645981562e-04  -9.055981845834e-05 
4 1  2.776286326904e-04  -1.752856577394e-04  -6.272308350340e-05 
5 1 -1.444002719971e-04  -2.790659952342e-05   1.063106859545e-04 
6 1  2.458435416532e-04  -1.985864598077e-04   3.778213493861e-06 
7 1 -1.009561914831e-04  -2.242860856664e-04   2.092479807625e-06 
8 1 -1.773120703579e-04  -1.645970049021e-04  -1.533910031371e-04 
8
Step 17000
1 1  1.280969384014e-04   4.245535564198e-05  -1.852809874976e-04 
2 1  2.635552562807e-04   3.660433107012e-05  -5.319183841890e-05 
3 1  4.530215169870e-05  -2.164711338847e-04   1.845875485928e-04 
4 1  3.935783377193e-04   4.323071465436e-06  -3.046433059669e-05 
5 1  1.742640519359e-04  -1.270622736365e-05  -6.964304239104e-05 
6 1 -2.871830082582e-05   8.132538260852e-06  -1.638221874756e-04 
7 1  5.212402704953e-05  -2.121603694220e-04   1.045794052842e-04 
8 1 -1.553441058838e-04  -2.078149406103e-04  -1.874037010036e-04 
8
Step 18000
1 1  2.732279715151e-04  -1.348241927742e-04  -9.393893300807e-05 
2 1  5.451199186334e-05  -6.636062289054e-05  -1.263180161093e-04 
3 1  1.999841066627e-05   3.477628800148e-04   1.791178270492e-04 
4 1  3.150050925961e-04   5.093914584492e-05  -1.515901156395e-04 
5 1  5.068515813304e-05   3.563827739436e-05  -2.052399343077e-04 
6 1  2.155370173738e-04  -2.296051727303e-05  -8.668460641383e-05 
7 1  8.527608390977e-05  -2.709553585809e-04   1.939971877441e-04 
8 1  1.504265242856e-05  -3.301525419675e-04  -2.532836761292e-04 
8
Step 19000
1 1  5.561955298203e-05  -2.158951817239e-05   9.391210557959e-05 
2 1  2.911589183207e-04  -3.052451508805e-04  -1.572714393047e-04 
3 1 -1.024615806050e-04   2.737314382169e-04   5.643616379664e-05 
4 1 -1.889746498140e-04  -1.102319776365e-04  -8.132586651184e-05 
5 1  3.061813151768e-06   1.206662579232e-04  -2.886604539939e-04 
6 1  1.765904165869e-04  -1.254475100897e-04   8.423520397713e-05 
7 1 -8.603446193004e-05  -1.598575545898e-04  -2.774057954401e-05 
8 1 -7.276354184413e-06  -2.538322364664e-04  -2.138385647920e-04 
8
Step 20000
1 1  3.803195934664e-04  -1.778508227240e-04   5.193168881926e-05 
2 1 -1.800383522423e-05  -1.222008999139e-04  -2.041186449182e-04 
3 1 -3.646789318718e-04   9.252566365298e-05  -2.038738094512e-04 
4 1  1.545448800978e-05  -3.567254796527e-05   1.876924236445e-05 
5 1  1.881133095697e-05   5.456388421390e-05  -1.597069982269e-04 
6 1 -1.071839836937e-04  -9.877829382135e-05   1.282726704720e-04 
7 1  8.361695677260e-05  -1.613860167790e-04   9.931441772485e-05 
8 1 -2.090829371022e-04  -2.587027563697e-04  -2.858767076772e-04 
8
Step 21000
1 1  1.358653994620e-04   5.602368034743e-05  -2.690678031644e-04 
2 1  7.536903778697e-05   7.493686245291e-05  -2.169766803668e-04 
3 1 -2.251491968599e-04  -1.550728399113e-05   1.102836905728e-04 
4 1  3.975203622018e-04  -1.639540175507e-04   1.374051787908e-04 
5 1 -1.374160340873e-04   2.204374379700e-04  -2.567319889293e-04 
6 1  1.344175335519e-05  -8.577781288003e-05   9.568942563410e-05 
7 1  6.881930468702e-05  -2.085494855283e-04   1.586860862339e-05 
8 1 -2.409345148421e-04   9.625538755968e-05  -1.736708709628e-04 
8
Step 22000
1 1  6.455541455445e-05  -1.240449097809e-04  -2.471597754769e-04 
2 1 -4.519003223306e-05   2.084357663287e-04  -8.187258660327e-05 
3 1 -1.765162054726e-04   1.087627697638e-04  -1.458130877356e-04 
4 1  3.346233026613e-04   9.897703121242e-06  -1.123558296453e-04 
5 1 -4.318887755714e-05  -5.689794877348e-05  -1.431863077525e-04 
6 1 -6.351257186791e-06  -9.405950311312e-06   5.055640638529e-05 
7 1  1.705088027044e-04  -1.176126634841e-04   1.405933725883e-04 
8 1 -8.894815373286e-05   1.161905055373e-04  -1.024043691119e-04 
8
Step 23000
1 1  6.481188610890e-05   4.477957995509e-06  -4.807783068921e-05 
2 1  5.939201058291e-05   1.305293347039e-04  -9.952709265241e-05 
3 1 -3.758157605375e-04   1.159237408597e-04  -1.654204978108e-04 
4 1  1.769680420111e-04   9.164892005713e-05  -9.833166207482e-05 
5 1  1.808178848772e-04  -1.078182084548e-04  -1.035853382073e-05 
6 1 -5.152114663166e-05   1.742646009149e-04   9.132608098614e-06 
7 1  2.009948766366e-05   1.185383927280e-05   1.375887111333e-04 
8 1 -2.950110931117e-04   4.426062009891e-05  -2.156118383040e-04 
8
Step 24000
1 1 -1.918219190508e-04  -1.860391090935e-04  -8.534120147669e-05 
2 1 -6.989463171705e-05  -6.959614671158e-05  -6.741174306326e-05 
3 1 -2.705858133106e-04   2.271295969138e-04  -9.543665135568e-05 
4 1  7.997593924966e-05   1.678421185206e-04  -2.677774203155e-04 
5 1 -8.976657628202e-05   2.038749371105e-05  -4.975923023353e-05 
6 1 -1.914928849813e-04   9.155944440092e-05   5.938662580122e-05 
7 1 -8.117575318843e-05  -2.922869674699e-04   1.424131345357e-04 
8 1 -5.376106106734e-05  -5.620678214541e-06  -3.968257160633e-05 
8
Step 25000
1 1 -3.253446676026e-04   8.480310985283e-06  -7.791879210844e-05 
2 1 -2.471422871559e-05  -7.058678141145e-05  -2.361260146546e-04 
3 1 -8.673211566456e-05   2.271778156455e-04  -1.530173156603e-04 
4 1  3.460457794008e-05   3.058450924306e-05  -1.517971452462e-05 
5 1 -1.247613521595e-04  -8.194349137947e-05   9.334508647920e-05 
6 1 -1.090221879373e-04   9.586774553442e-05  -1.969491610831e-05 
7 1 -1.698203130934e-04   7.915351524558e-05   1.259756187974e-04 
8 1 -7.094044336302e-05   1.205213253428e-04  -1.696448652739e-04 
8
Step 26000
1 1 -5.282743926933e-04   2.336233367898e-04  -1.310716768471e-04 
2 1  1.993702390259e-04  -2.690683748768e-05  -7.136716682792e-05 
3 1 -1.328894713590e-04   9.396126401274e-05  -2.153348340475e-04 
4 1  1.599216655509e-04  -7.102322358448e-05  -6.273246057574e-05 
5 1  2.024121768312e-05   1.340902177725e-04   1.577864744721e-04 
6 1 -1.663126834977e-05   5.688900551613e-05   1.350099961076e-04 
7 1  1.802174606103e-05   1.985039421764e-04   2.852707818907e-05 
8 1  9.440438406865e-06   2.753944604759e-04   9.034530084451e-05 
8
Step 27000
1 1 -8.046750061834e-05   9.127273119773e-05   1.571296272053e-04 
2 1  6.868393492897e-06   4.197706440407e-04  -9.083243119469e-05 
3 1 -1.606260671206e-04  -1.241980236449e-04  -2.195250958959e-04 
4 1  2.729467592249e-04  -1.130551460143e-04  -2.064504455398e-04 
5 1 -3.919618634657e-05   2.739453472439e-04   1.022187982273e-04 
6 1  5.350319883548e-05   1.177194671979e-04   1.562369426705e-04 
7 1 -4.220019991018e-05   2.329833002638e-04   9.666774627360e-05 
8 1 -1.436136533920e-04   2.754934810842e-04   3.471825723336e-05 
8
Step 28000
1 1 -1.806533469095e-04  -5.799001669515e-05   1.599876814670e-04 
2 1 -1.283113578966e-04   1.929717813835e-04  -6.235018405498e-05 
3 1 -1.895881327659e-04   6.391121433680e-05  -1.114194693912e-04 
4 1  9.727038136588e-05   2.688843220723e-05  -1.812253280495e-04 
5 1 -2.571387341932e-04   2.904746494150e-04   1.110844739476e-05 
6 1 -1.046344369510e-04  -3.466119295540e-05   8.762947150746e-05 
7 1 -7.686346807363e-05   1.790828402983e-05   1.100216954857e-04 
8 1 -1.945698180946e-04   6.064836843258e-06   1.309933797527e-04 
8
Step 29000
1 1 -1.202166929841e-04  -8.185027313602e-06   1.708109520469e-04 
2 1  4.227064461264e-08   1.048487567762e-04  -2.356373396439e-05 
3 1 -2.710449219196e-04   2.246795595638e-04  -5.148227811463e-05 
4 1 -2.637604720384e-04   1.022273792260e-04  -1.942867503464e-04 
5 1 -9.568192991284e-05   1.188313779706e-04   1.127837790280e-04 
6 1 -7.637856899028e-05   1.550990300813e-04   1.491124606448e-04 
7 1 -4.733521687958e-05   6.276541314653e-05   7.348488790163e-05 
8 1 -1.783987159100e-04   2.784499548189e-05  -7.000564904834e-06 
8
Step 30000
1 1  5.006060690263e-07   3.346450754990e-04   1.433893363669e-04 
2 1  4.071149319613e-05  -9.285522544759e-06  -6.899836609327e-05 
3 1 -3.280039489018e-04  -6.654270412181e-05  -1.175872889370e-04 
4 1 -1.661199129183e-04   2.190440876799e-05  -5.847394309084e-05 
5 1 -5.272161693472e-05  -2.801315231403e-05   2.640305933281e-04 
6 1 -8.156868302004e-05   3.558642286482e-04   1.724475997223e-04 
7 1  4.421615180801e-05   4.608663253253e-06   2.516370244122e-04 
8 1 -1.053124524571e-04   2.272015952292e-04  -9.801352257247e-05 
8
Step 31000
1 1  1.549886497493e-04   4.679123045520e-04   3.266403458438e-04 
2 1  1.681583585815e-06  -2.803696662049e-05   7.834463358716e-06 
3 1 -1.599968402450e-04   1.772576074131e-04  -6.121462287252e-05 
4 1 -1.579242446781e-05  -1.270948049026e-04   2.040694613531e-05 
5 1  4.091932414728e-05   1.281344003292e-04  -3.568674277196e-05 
6 1 -3.163589066907e-05   5.595501833669e-04   2.083489378175e-04 
7 1 -4.778883388339e-06  -5.910755743235e-05   1.986123995143e-04 
8 1  1.213283454030e-05   3.305204239615e-04   5.409305420253e-06 
8
Step 32000
1 1  7.585955253355e-06   1.586694710450e-04   1.868677603582e-04 
2 1 -1.366372692940e-05   1.607704124084e-04   2.243901415753e-04 
3 1 -2.145694161457e-04   1.246646596979e-04  -4.713425131366e-05 
4 1 -1.445402160904e-05   1.366770004480e-04   6.641893658463e-05 
5 1  3.602058422150e-05   4.831807266157e-05   3.024941104588e-05 
6 1 -1.446163106653e-04   2.634231373864e-04   1.997939411075e-04 
7 1 -3.266324422987e-05  -9.289917890285e-05   1.918744287574e-04 
8 1 -5.998155240337e-05   2.222491330684e-04   8.077792913863e-05 
8
Step 33000
1 1  2.011599164803e-04  -1.625005493851e-04   2.630827120329e-04 
2 1  8.238357945782e-05   3.322604222812e-04   2.731028697022e-04 
3 1 -4.313268347467e-04   4.049271118104e-05  -1.134261135997e-04 
4 1 -1.736312562331e-04   1.365821805176e-04   3.326177480194e-05 
5 1 -1.709391625595e-04   1.155409597760e-04  -6.688110516316e-05 
6 1 -1.320480867174e-04   1.378265178709e-04   5.497221186027e-05 
7 1  5.534768592473e-05  -9.034011052328e-05   6.087473353344e-05 
8 1 -1.490328543115e-04   8.946601736714e-05   1.073531967288e-04 
8
Step 34000
1 1  1.140044455205e-04   1.490162545677e-04   3.476242084434e-05 
2 1 -8.306662716603e-05   1.911079990370e-04   2.822924271133e-04 
3 1 -2.477917606711e-04  -3.588449789855e-05   9.561216041812e-05 
4 1 -1.930705804266e-04  -1.361380135403e-04   1.027717868564e-04 
5 1 -1.723608463963e-04   2.360854681645e-04   1.445688816353e-04 
6 1  1.956245602116e-05   6.699547915624e-05   2.779466602178e-04 
7 1 -9.190715148596e-05  -9.790481074907e-06   2.286669458107e-05 
8 1 -1.002064020360e-04   6.389884421818e-05  -1.223321494527e-05 
8
Step 35000
1 1 -7.796469731548e-05   2.565317266674e-04   1.078166760940e-04 
2 1  2.165473407715e-04  -9.533774595382e-05   1.323882716516e-04 
3 1  1.983250952337e-04   1.639101145057e-04   1.244081208880e-04 
4 1 -9.889066594822e-05   1.970214528764e-04  -9.589477139142e-06 
5 1 -8.547208203318e-05   2.494758163292e-04   1.149375117801e-04 
6 1 -6.408302767396e-05  -3.273747613677e-05   6.352643204864e-05 
7 1  1.628529727322e-04   1.000358320526e-04   3.094753213197e-05 
8 1  1.395095056841e-04   3.863823115839e-05   2.098987858554e-04 
8
Step 36000
1 1 -2.953204732418e-04   2.002416085680e-04   1.151985363858e-04 
2 1  3.396991854993e-04  -3.693617937569e-05   1.171590670109e-04 
3 1  1.605481333084e-04   1.595783790057e-04   1.553719742811e-04 
4 1 -4.402951292081e-05   1.136277941978e-04  -1.958854858695e-05 
5 1 -5.722947604024e-05  -1.000849856134e-05   3.042480486741e-04 
6 1 -6.648892006904e-05  -2.893335436957e-05   3.930672315553e-05 
7 1 -6.253029287705e-05   2.725214667588e-05   6.126145072008e-05 
8 1  1.845254974917e-04   1.171089203260e-04   1.133467879209e-04 
8
Step 37000
1 1  6.391314061892e-06  -2.090981956044e-04   1.227404587872e-04 
2 1 -1.192893423015e-04   3.009973495380e-04   2.420320337393e-04 
3 1  1.682955244820e-04  -1.457861859038e-05   1.798702036941e-04 
4 1 -2.433339760778e-05  -6.118742689235e-05   6.406957172840e-06 
5 1 -4.647670818001e-05   1.159298471411e-04   2.254168924267e-04 
6 1 -1.050023015141e-05  -3.281313634472e-05  -1.613945767600e-04 
7 1 -1.298981925430e-04  -1.070814888874e-04  -8.179913941876e-05 
8 1  2.210987402282e-04   2.065903145878e-04   5.478091449781e-05 
8
Step 38000
1 1 -1.041456455280e-04  -9.440950673453e-05   1.310232312538e-04 
2 1  2.683883158731e-07   1.251882325144e-04   1.409276825149e-04 
3 1  1.067377070234e-04  -1.338612050926e-04   9.072770128035e-05 
4 1 -1.281642216490e-04  -2.624417424832e-05   2.065121297601e-04 
5 1 -1.311471752970e-05  -9.753763716412e-06   9.679403425583e-05 
6 1 -1.866738832083e-04   2.948437805892e-05  -1.733795995239e-04 
7 1  8.561987023246e-06  -1.718147918867e-04  -8.769699552571e-05 
8 1  1.685626746910e-05   3.082982136117e-05   2.297638539045e-04 
8
Step 39000
1 1 -4.272939077743e-04  -6.535255272365e-05  -8.194251472403e-05 
2 1  2.445648541215e-04   2.935514534677e-05   4.274217106237e-04 
3 1  1.487711410482e-04  -2.871496978976e-04  -3.698072989041e-05 
4 1  1.784850299272e-04   1.127165753943e-04   1.205000060385e-04 
5 1  1.345792930603e-04  -5.521279571078e-05   2.106641787694e-04 
6 1 -7.382584611947e-05   2.386718400253e-04  -1.341636928099e-04 
7 1  3.574057614066e-05  -1.553654487605e-04  -2.245287168360e-04 
8 1  2.552544670291e-04   1.230781050715e-05   1.641707982829e-04 
8
Step 40000
1 1 -6.708349530968e-05   1.685811211149e-04   2.256478679829e-04 
2 1 -1.263769200462e-04  -2.626527703335e-05  -3.551763042253e-05 
3 1  3.926894866717e-04  -1.468191727654e-04   2.159031551756e-05 
4 1  9.231169589392e-05  -7.025373993989e-05   3.065092065334e-04 
5 1 -2.260586874296e-05   3.348532293117e-05   3.046366685080e-05 
6 1  5.588676297026e-05   6.755817298376e-05  -1.012909789903e-06 
7 1  3.808513307363e-04  -5.762890177279e-05  -1.904309253756e-06 
8 1  1.710006536490e-04   1.214749781426e-04   1.121597257197e-04 
8
Step 41000
1 1  1.360695242965e-04   6.968888744105e-05   1.177357637325e-04 
2 1 -1.489645669452e-04  -3.490364432118e-04  -2.482389024734e-05 
3 1  1.548438755112e-04  -1.042261003294e-04  -6.130409101785e-05 
4 1 -3.649565795585e-05  -2.995593262576e-04   2.253891361413e-04 
5 1  1.904633292392e-04  -2.307986292358e-04   7.714579923032e-05 
6 1 -8.709128695676e-05   2.032687824328e-04  -9.658468575775e-06 
7 1  2.595481648847e-04   9.121838532521e-05  -1.824705378191e-04 
8 1  1.822888655558e-04   2.429698469260e-05  -8.677104963805e-05 
8
Step 42000
1 1  5.211247560038e-05  -1.436000023356e-04   4.453125634824e-05 
2 1  5.336413830658e-05  -2.888919664186e-04   2.359280241066e-04 
3 1 -1.488813953600e-04  -1.329107256594e-04   1.892683732567e-05 
4 1 -1.332930671831e-04  -1.085379044696e-04   3.503877165844e-05 
5 1  6.831769388117e-05  -2.257535695862e-04   5.996515460043e-05 
6 1 -1.285635000943e-04   1.773537359553e-04  -2.082337825147e-04 
7 1 -7.797177871594e-05  -3.950226954874e-05  -9.393385284071e-05 
8 1  1.956211766741e-04  -1.220675427897e-04   1.707748379939e-05 
8
Step 43000
1 1  5.437110698932e-05  -4.380244415511e-04  -3.709028212828e-05 
2 1 -1.429807632350e-04  -1.156691227630e-04   1.024725349425e-04 
3 1  1.009532449392e-04  -6.550853198524e-05   2.947397981978e-05 
4 1 -1.241405423064e-04  -1.732560565614e-04  -9.274321149838e-05 
5 1  1.702105642054e-04  -4.078118607445e-05   9.946297530375e-05 
6 1  8.762285938195e-05  -1.411191958386e-05  -6.481164776541e-05 
7 1  2.434406580181e-05  -7.675008148990e-06   5.738415145069e-05 
8 1  2.716303974496e-04   2.326548433836e-05  -2.082277613580e-04 
8
Step 44000
1 1  3.734630907239e-04  -3.016995152836e-04  -5.831801898516e-05 
2 1 -6.526044543712e-05   1.384745994156e-04   1.757984979023e-04 
3 1 -6.930245898257e-05  -1.429122131446e-04  -8.251680933827e-05 
4 1 -2.418154783779e-04  -1.561545373372e-04  -1.722059797507e-04 
5 1  3.011487825200e-04   6.190422438304e-05   1.504093248226e-04 
6 1  7.648982440220e-05   1.385641991060e-04  -2.043015020084e-04 
7 1 -1.725476527193e-05  -7.217481204712e-05  -8.971530701826e-05 
8 1  5.111163201173e-04  -1.055638027012e-04   1.293904710772e-04 
8
Step 45000
1 1  9.525477370022e-05  -7.669128309787e-05  -2.187175724075e-04 
2 1  1.857819425472e-05  -2.575172538569e-04  -7.808375136764e-05 
3 1 -2.314834809730e-05  -3.893065323528e-04  -3.120773385976e-05 
4 1 -1.380309409338e-05  -8.618855198847e-05   1.042522440309e-05 
5 1  4.207273005234e-05  -1.273528218027e-04   2.528608932464e-04 
6 1  2.673625102643e-04   3.762244076165e-05  -2.389792101074e-04 
7 1  1.317906778663e-04   1.389448142808e-05  -1.517853612861e-04 
8 1  2.473292553562e-04   9.920276920650e-05  -6.635728624199e-05 
8
Step 46000
1 1  1.389832145951e-04  -2.081463212344e-04  -1.113924349292e-04 
2 1  3.434730930846e-05  -1.870780663587e-04  -4.675483889227e-05 
3 1  7.907721367015e-05  -1.532921229727e-04  -2.153226764731e-05 
4 1 -2.269821977770e-04  -5.667506587068e-05  -8.934334665558e-05 
5 1 -4.557003385839e-06  -5.697781268247e-05   6.704291974145e-05 
6 1 -5.773729438464e-05  -1.681988701867e-04  -2.368646323029e-04 
7 1 -1.304548282359e-05  -7.894128841153e-07  -1.682771520733e-04 
8 1  1.075707134112e-04  -4.349169114529e-05   4.896037609469e-05 
8
Step 47000
1 1  4.701958241771e-05  -3.157109058207e-04  -3.514138633859e-05 
2 1 -1.708857988734e-04  -2.236085633271e-04  -2.146236075737e-04 
3 1  1.303182592217e-04  -8.715239953175e-05  -7.892991613682e-05 
4 1 -1.128317728401e-04  -4.253517612803e-05  -1.635470836142e-05 
5 1  7.017657720969e-06  -1.119636027476e-04  -1.131922065053e-04 
6 1 -3.039571169797e-05  -2.427412907476e-04  -1.132458876527e-04 
7 1  2.901769559414e-05  -1.622417694669e-04  -3.201938192333e-04 
8 1  2.956638337723e-05  -1.674261903984e-05   3.010292786157e-06 
8
Step 48000
1 1  1.157351808568e-04  -5.004708365128e-05  -2.418926672407e-04 
2 1  9.288146946008e-05  -8.109891697108e-06   7.896040227028e-05 
3 1 -4.719242443947e-05   1.496785258621e-04  -5.517635272925e-05 
4 1  2.662573887220e-05   1.291865950533e-04   2.656049744790e-05 
5 1  1.059853449814e-04  -1.893733048147e-04   3.493846011700e-05 
6 1  9.750384866169e-05  -2.457299725353e-05  -4.165793682791e-04 
7 1  4.961829556699e-05  -9.816110268095e-05  -1.584491509514e-04 
8 1  9.749057463599e-05   4.136209107758e-05   1.212149071292e-04 
8
Step 49000
1 1 -7.196827588318e-05   2.396409369236e-04  -5.496803512893e-04 
2 1  6.770769544919e-06   4.539569922276e-06  -1.421869626612e-04 
3 1  1.381948693983e-04  -1.226624649425e-04  -2.211206391352e-05 
4 1 -1.067600410691e-04  -8.557154350446e-05   2.019987905489e-04 
5 1  2.330446546766e-04  -5.815619948281e-05  -1.349446843350e-06 
6 1 -1.026052062786e-04  -8.901233865310e-05  -3.936942107752e-04 
7 1  5.432618879806e-05  -2.581696793787e-04  -1.269504378029e-04 
8 1  3.793961135335e-04   1.903261446239e-05   2.985326484429e-04 
8
Step 50000
1 1 -9.263172392327e-05   1.468533449165e-04  -2.095787884018e-04 
2 1 -1.864468556739e-04  -1.866728706793e-05  -2.453645728714e-04 
3 1  4.214074688301e-04  -1.484708966292e-04  -2.830775351219e-05 
4 1 -8.396236694195e-05  -9.164938795472e-06   1.386567704321e-04 
5 1  2.723920620727e-05  -3.426687217333e-05   9.165243036909e-06 
6 1 -9.920814361890e-05  -9.785355659666e-05  -2.651834416208e-04 
7 1 -9.238712097540e-05  -3.633027554202e-04  -7.664592984193e-05 
8 1 -6.916134966794e-05   2.451089929321e-04  -1.163130317740e-04 
8
Step 51000
1 1 -1.375052095775e-04   1.141131821476e-04  -1.022298253276e-04 
2 1 -5.553762851173e-05   6.650981142588e-06  -1.457353122100e-04 
3 1  6.491076261916e-05   5.130880221764e-05  -2.460835522334e-04 
4 1 -9.591156387996e-05   5.175528473347e-05   3.172739389060e-05 
5 1 -4.533062499444e-05  -2.748287821815e-04   2.070278944272e-04 
6 1 -1.646502575939e-04   4.542475555231e-07  -5.578471140943e-04 
7 1 -1.522126544931e-04  -3.299014537465e-04   3.223078445028e-05 
8 1 -9.689568333092e-05  -1.142734823800e-04   1.889201243117e-05 
8
Step 52000
1 1  5.435221542766e-05   2.195779589566e-04  -4.072011225830e-05 
2 1 -2.348021036261e-04   1.535075191004e-05  -1.676748371438e-04 
3 1  1.716511805881e-04   2.774690269021e-04  -9.516384592800e-05 
4 1 -6.421163766791e-05   1.745734233728e-04   9.459046395044e-05 
5 1  1.500390278880e-04  -2.053361352883e-04   1.347095072650e-04 
6 1 -1.979598092454e-04  -1.601219181084e-04  -3.791746007005e-04 
7 1 -2.066424086635e-04  -2.971234636012e-05  -1.631422230631e-04 
8 1 -4.145862622469e-05   2.657743807704e-05  -6.010158102915e-05 
8
Step 53000
1 1  5.036170121997e-05   2.393541413711e-04  -1.553710055071e-04 
2 1 -2.954839117025e-04   1.497386115618e-04  -2.209080878983e-04 
3 1  1.022832205616e-04   3.111402892165e-04   1.056874942648e-04 
4 1  1.389965273770e-05   6.530008397271e-05   5.252505327425e-05 
5 1  1.074405014882e-04  -1.645519694828e-04  -3.672016728920e-05 
6 1 -1.843042352884e-05  -5.092267227452e-05  -5.193705827511e-05 
7 1 -1.665647515949e-04   1.538215825284e-05  -1.031348593200e-04 
8 1 -1.103523369117e-05  -2.796121075740e-04   2.739977543033e-05 
8
Step 54000
1 1 -1.392445990222e-04   3.252338451555e-04  -3.246852102339e-05 
2 1 -2.249864137031e-05   9.672691095555e-05  -1.027542242565e-04 
3 1  6.612545307178e-05   2.831621464831e-04  -5.496922551384e-05 
4 1  1.765101057033e-04  -4.178724211914e-05  -9.354678936795e-05 
5 1  1.938416206776e-04  -8.690424967250e-05   1.094474026436e-04 