8
Step 0
1 1 0.00000000000000000e+00 0.00000000000000000e+00 0.00000000000000000e+00
2 1 0.00000000000000000e+00 0.00000000000000000e+00 0.00000000000000000e+00
3 1 0.00000000000000000e+00 0.00000000000000000e+00 0.00000000000000000e+00
4 1 0.00000000000000000e+00 0.00000000000000000e+00 0.00000000000000000e+00
5 1 0.00000000000000000e+00 0.00000000000000000e+00 0.00000000000000000e+00
6 1 0.00000000000000000e+00 0.00000000000000000e+00 0.00000000000000000e+00
7 1 0.00000000000000000e+00 0.00000000000000000e+00 0.00000000000000000e+00
8 1 0.00000000000000000e+00 0.00000000000000000e+00 0.00000000000000000e+00
8
Step 10
1 1 4.73736505797419921e-06 -4.40724640418139074e-07 -7.36802941715419800e-06
2 1 5.87788411964489846e-06 -9.31839147348938376e-06 -1.98850812790304897e-06
3 1 -4.91256482782322008e-06 -6.52986108039300656e-06 -5.89505218233690574e-07
4 1 9.63506086964954268e-06 -3.01543363625493744e-06 5.64386000485995406e-07
5 1 1.00171005766439481e-05 -3.74343623195704162e-06 -4.84646483763670061e-06
6 1 9.58856525943292728e-07 9.19635011200557775e-06 8.01670569310538281e-06
7 1 -1.96048770254281363e-06 4.89038690685437752e-07 -8.08339859261120325e-06
8 1 -2.71486175356853371e-06 2.80382365036567236e-07 1.61708998058855239e-07
8
Step 20
1 1 5.38402515289141515e-06 -4.93403154207185547e-07 -7.38718670924277165e-06
2 1 6.00444370577548841e-06 -9.57054371313527175e-06 -1.78637143227509881e-06
3 1 -5.05827808330167982e-06 -6.63368655977708302e-06 -5.20792527901475197e-07
4 1 9.38592755707341331e-06 -3.63703353090849276e-06 2.42616051740595746e-07
5 1 9.81838438088391993e-06 -4.40930297414563827e-06 -5.07932416975043024e-06
6 1 1.45897376822309943e-06 9.66944730675286278e-06 7.98990640094560118e-06
7 1 -1.49545383584213736e-06 7.33797544240313257e-07 -8.41270088948811723e-06
8 1 -2.60591875201084388e-06 1.19307963284641279e-06 1.03987009139603281e-07
8
Step 30
1 1 5.95394842170075212e-06 -5.42166704395413825e-07 -7.30484200739462116e-06
2 1 6.03753285666392896e-06 -9.66573294221504124e-06 -1.55495449293306886e-06
3 1 -5.14765092910892002e-06 -6.64060354232764921e-06 -4.56651103412388559e-07
4 1 9.00050587511166423e-06 -4.20270351032986580e-06 -5.84679956678868549e-08
5 1 9.47186589709723532e-06 -5.02937381056042764e-06 -5.26595455707044124e-06
6 1 1.93842162255967768e-06 1.00219315361932088e-05 7.84787207603513556e-06
7 1 -1.04214893858507277e-06 1.00393514900782823e-06 -8.62085326252446585e-06
8 1 -2.45939434614899028e-06 2.10367667259148221e-06 7.66160145042476078e-08
8
Step 40
1 1 6.43973759378796748e-06 -5.87165336145784857e-07 -7.12271675969534197e-06
2 1 5.97634596786384343e-06 -9.60373158015446392e-06 -1.29565662500895571e-06
3 1 -5.17912104154129099e-06 -6.55165905673485107e-06 -3.96479881369733593e-07
4 1 8.48359226901723139e-06 -4.70449052813321453e-06 -3.37495354242305559e-07
5 1 8.98361529781464724e-06 -5.59605312429753926e-06 -5.40223146928266108e-06
6 1 2.39115319330108041e-06 1.02493034390406954e-05 7.59378337880223135e-06
7 1 -6.06509429141209117e-07 1.29490504884650628e-06 -8.70534349674547256e-06
8 1 -2.27562748436952536e-06 2.99898069231676518e-06 7.98635788873441824e-08
8
Step 50
1 1 6.83537187317018306e-06 -6.28663171076169366e-07 -6.84403011290358849e-06
2 1 5.82167141892775092e-06 -9.38692233219347416e-06 -1.01034328171726631e-06
3 1 -5.15194019983198836e-06 -6.36935397974136599e-06 -3.39578661952706065e-07
4 1 7.84202449902470677e-06 -5.13561114459501205e-06 -5.93631306951976811e-07
5 1 8.36179945107751363e-06 -6.10239372110099830e-06 -5.48463608335077042e-06
6 1 2.81159100947354753e-06 1.03486552833111502e-05 7.23261356787393957e-06
7 1 -1.94016016739214693e-07 1.60161209668329458e-06 -8.66539407212886734e-06
8 1 -2.05556665836155668e-06 3.86608634637246363e-06 1.13198674400396275e-07
8
Step 60
1 1 7.13629611865571306e-06 -6.67043576153222355e-07 -6.47347208325038505e-06
2 1 5.57584659121635780e-06 -9.02020954508103972e-06 -7.01349149730687943e-07
3 1 -5.06617598554020575e-06 -6.09756794341811763e-06 -2.85172380826191605e-07
4 1 7.08463030800664428e-06 -5.49055090985568550e-06 -8.26564005508677412e-07
5 1 7.61657823032619415e-06 -6.54218228076950646e-06 -5.51032963629867560e-06
6 1 3.19467679882119971e-06 1.03187142342514982e-05 6.77105001267915673e-06
7 1 1.90387269287135374e-07 1.91848386139580975e-06 -8.50197662275589070e-06
8 1 -1.80081259222783039e-06 4.69250860294623071e-06 1.75340110952063189e-07
8
Step 70
1 1 7.33948470254690925e-06 -7.02817711610253514e-07 -6.01714745965349339e-06
2 1 5.24270429608748085e-06 -8.51091009825614118e-06 -3.71478269841448098e-07
3 1 -4.92271134198328059e-06 -5.74148482243348796e-06 -2.32437026558333064e-07
4 1 6.22213758664725162e-06 -5.76507861599865874e-06 -1.03650550043313601e-06
5 1 6.75997070854198474e-06 -6.91001521891770414e-06 -5.47721773832629024e-06
6 1 3.53591652266598379e-06 1.01598752410537275e-05 6.21739254344001892e-06
7 1 5.42362411733327355e-07 2.23955471542133734e-06 -8.21781522167824338e-06
8 1 -1.51362155301889767e-06 5.46626760623075897e-06 2.64333983114929117e-07
8
Step 80
1 1 7.44348381016975250e-06 -7.36641934764274584e-07 -5.48248673201121235e-06
2 1 4.82750200054463668e-06 -7.86863415890886716e-06 -2.39912024052883091e-08
3 1 -4.72323609370885678e-06 -5.30752309400338869e-06 -1.80529875076637806e-07
4 1 5.26703742218136007e-06 -5.95617992129278048e-06 -1.22419579256090612e-06
5 1 5.80568454354855855e-06 -7.20136305170620112e-06 -5.38400565824855803e-06
6 1 3.83142163341902326e-06 9.87422039317132768e-06 5.58142629106737323e-06
7 1 8.58234621726173955e-07 2.55856254144510598e-06 -7.81737564532764204e-06
8 1 -1.19686056240212425e-06 6.17595629371724081e-06 3.77642306042065707e-07
8
Step 90
1 1 7.44842551426329991e-06 -7.69342024468657998e-07 -4.87811617469033985e-06
2 1 4.33683035684435646e-06 -7.10514852017297068e-06 3.37418939221945531e-07
3 1 -4.47022428706534658e-06 -4.80325795877471877e-06 -1.28624223027208355e-07
4 1 4.23340203977515826e-06 -6.06195459975459020e-06 -1.39089331656974993e-06
5 1 4.76891005562971641e-06 -7.41262368989995116e-06 -5.23024697743927549e-06
6 1 4.07794676707293746e-06 9.46551948750181653e-06 4.87426554024984084e-06
7 1 1.13503716932101001e-06 2.86905939504599004e-06 -7.30683708245648270e-06
8 1 -8.53922020603109516e-07 6.81082174815962229e-06 5.12228711577281975e-07
8
Step 100
1 1 7.35600347085045544e-06 -8.01933740881940124e-07 -4.21368236576838623e-06
2 1 3.77850210517927095e-06 -6.23420503475180168e-06 7.08656606420545735e-07
3 1 -4.16689555544628805e-06 -4.23731632856157015e-06 -7.59469198594872258e-08
4 1 3.13666549415737782e-06 -6.08152560545907889e-06 -1.53834261227567888e-06
5 1 3.66608514672956138e-06 -7.54116614486628845e-06 -5.01638528702298979e-06
6 1 4.27292311412136032e-06 8.93920448247622634e-06 4.10816385578127669e-06
7 1 1.37054173362772799e-06 3.16453963122150274e-06 -6.69404273378938695e-06
8 1 -4.88610799567527287e-07 7.36086975566519847e-06 6.64638625760385596e-07
8
Step 110
1 1 7.16940580954264882e-06 -8.35625435872163710e-07 -3.49963362660108097e-06
2 1 3.16142194324963628e-06 -5.27131767498680883e-06 1.08526043069733241e-06
3 1 -3.81716230775857668e-06 -3.61923151723242869e-06 -2.18164982967040690e-08
4 1 1.99337531454006468e-06 -6.01499124913137389e-06 -1.66871866904534005e-06
5 1 2.51463700308941291e-06 -7.58536629739533597e-06 -4.74378414944865493e-06
6 1 4.41448531761427913e-06 8.30230901394927881e-06 3.29628442603561619e-06
7 1 1.56326943228748086e-06 3.43858960375119379e-06 -5.98842497230169839e-06
8 1 -1.05013311842710226e-07 7.81698541195510121e-06 8.31077625002595112e-07
8
Step 120
1 1 6.89321059664456436e-06 -8.71785485044433264e-07 -2.74697114025130625e-06
2 1 2.49543747757943254e-06 -4.23347977386346666e-06 1.46245327513572008e-06
3 1 -3.42556469854934017e-06 -2.95925280897685610e-06 3.43208976389556281e-08
4 1 8.20923494619862036e-07 -5.86344836439236954e-06 -1.78454804957494367e-06
5 1 1.33270635162511648e-06 -7.54463923971562201e-06 -4.41473733466756738e-06
6 1 4.50148762610766786e-06 7.56336590010800416e-06 2.45242615479392083e-06
7 1 1.71247736195429660e-06 3.68505844949005772e-06 -5.20089746409280236e-06
8 1 2.92638768291664555e-07 8.17107318806641346e-06 1.00748603250242716e-06
8
Step 130
1 1 6.53326259210527733e-06 -9.11860966757354046e-07 -1.96700104312310401e-06
2 1 1.79117394230330071e-06 -3.13882751545368386e-06 1.83521520664799981e-06
3 1 -2.99719083338092000e-06 -2.26811418746281906e-06 9.28612112275195591e-08
4 1 -3.62735987761875357e-07 -5.62911885797385764e-06 -1.88860233833262160e-06
5 1 1.38861606198431751e-07 -7.41947924720184675e-06 -4.03245133311503163e-06
6 1 4.53350319212039940e-06 6.73226751275908446e-06 1.59071559345867342e-06
7 1 1.81812402857765882e-06 3.89823372259628530e-06 -4.34370041188499561e-06
8 1 7.00075559778830956e-07 8.41625619753830429e-06 1.18959518976283578e-06
8
Step 140
1 1 6.09655932455963175e-06 -9.57264101196459376e-07 -1.17113732828954761e-06
2 1 1.05985850525905713e-06 -2.00627674785425623e-06 2.19837864933688358e-06
3 1 -2.53757097846365570e-06 -1.55678137060377317e-06 1.54018600992974635e-07
4 1 -1.53938830337359834e-06 -5.31557040487583226e-06 -1.98376117400700914e-06
5 1 -1.04819265916025834e-06 -7.21151785510339687e-06 -3.60099882256306863e-06
6 1 4.51080397825109689e-06 5.82011882491103737e-06 7.25310943480404325e-07
7 1 1.88083624111962574e-06 4.07298288292414530e-06 -3.43018416770139373e-06
8 1 1.11301053801753536e-06 8.54719039456946425e-06 1.37294977417461388e-06
8
Step 150
1 1 5.59115739733973758e-06 -1.00928288278503836e-06 -3.70786688493754566e-07
2 1 3.13139766873584368e-07 -8.55167056679896421e-07 2.54671975908977904e-06
3 1 -2.05253651004411213e-06 -8.36215132528201146e-07 2.17803092853187328e-07
4 1 -2.69090213797395148e-06 -4.92791734753329131e-06 -2.07285467760791037e-06
5 1 -2.20992067692636674e-06 -6.92358473582825283e-06 -3.12525463501163933e-06
6 1 4.43433178980294240e-06 4.83912179443642106e-06 -1.29813182502599782e-07
7 1 1.90190595217382063e-06 4.20482740208842859e-06 -2.47453746231182960e-06
8 1 1.52705961769061847e-06 8.56046545348366044e-06 1.55291212227683802e-06
8
Step 160
1 1 5.02607400307217385e-06 -1.06904475026273731e-06 4.22721075278490508e-07
2 1 -4.37094090766360489e-07 2.95084657749879616e-07 2.87501178377912173e-06
3 1 -1.54806659728224314e-06 -1.17194648369540482e-07 2.83997545099406506e-07
4 1 -3.79963174102933980e-06 -4.47284944072623457e-06 -2.15850260710487495e-06
5 1 -3.32828683809893543e-06 -6.55972302591773399e-06 -2.61082931070113351e-06
6 1 4.30567836860794986e-06 3.80248130097209053e-06 -9.60992207178114502e-07
7 1 1.88330949598414203e-06 4.28997211575594320e-06 -1.49149789906167452e-06
8 1 1.93764172809910121e-06 8.45492856749745071e-06 1.72470080888756215e-06
8
Step 170
1 1 4.41115693439383142e-06 -1.13748404487036516e-06 1.19823207552546431e-06
2 1 -1.17889354069207962e-06 1.42535060725833025e-06 3.17804009382899915e-06
3 1 -1.03017864976623982e-06 5.89776546370328306e-07 3.52146909675912596e-07
4 1 -4.84884247650602043e-06 -3.95845659416164541e-06 -2.24296432312300594e-06
5 1 -4.38610616844363240e-06 -6.12512346059852957e-06 -2.06399993588503459e-06
6 1 4.12707525920815833e-06 2.72426738248431264e-06 -1.75499390383172298e-06
7 1 1.82770511869679431e-06 4.32534642995437879e-06 -4.96078447968618873e-07
8 1 2.33996901777383341e-06 8.23178931388183943e-06 1.88349350993918241e-06
8
Step 180
1 1 3.75692454558363532e-06 -1.21526612188988653e-06 1.94493015100820648e-06
2 1 -1.90041509716481151e-06 2.51718718423681210e-06 3.45061269156809401e-06
3 1 -5.04901260664679928e-07 1.27449784223437512e-06 4.21581612448432654e-07
4 1 -5.82309566468653856e-06 -3.39393689637599944e-06 -2.32802186225289766e-06
5 1 -5.36738379459466195e-06 -5.62598857746082782e-06 -1.49162555766895475e-06
6 1 3.90137418277536398e-06 1.61919305774711335e-06 -2.49920844657242494e-06
7 1 1.73838355868589512e-06 4.30867388898954716e-06 4.96689622233391552e-07
8 1 2.72913972379027501e-06 7.89452950585783194e-06 2.02456882684083632e-06
8
Step 190
1 1 3.07438024643145685e-06 -1.30268904335108753e-06 2.65253769624878836e-06
2 1 -2.59007800809238317e-06 3.55322604854161761e-06 3.68760324024579833e-06
3 1 2.16831517127862866e-08 1.92708439855471689e-06 4.91486918668920824e-07
4 1 -6.70854267362262461e-06 -2.78927638318388080e-06 -2.41493333085414754e-06
5 1 -6.25761404279229845e-06 -5.06936083033666056e-06 -9.01039966973861582e-07
6 1 3.63200302327870918e-06 5.02329187766137318e-07 -3.18189375259228670e-06
7 1 1.61918326214173249e-06 4.23854343859433885e-06 1.47200930072058714e-06
8 1 3.10027524672699311e-06 7.44872140613045184e-06 2.14344704743955989e-06
8
Step 200
1 1 2.37479140503439267e-06 -1.39961164001387016e-06 3.31151435751078359e-06
2 1 -3.23672708173419138e-06 4.51751443816538786e-06 3.88405614972588084e-06
3 1 5.43381902695650958e-07 2.53803387711004361e-06 5.61004550436890272e-07
4 1 -7.49311007351867120e-06 -2.15494965146882862e-06 -2.50448236933701091e-06
5 1 -7.04402387733437380e-06 -4.46294252399407476e-06 -2.99924889193634380e-07
6 1 3.32289777445868164e-06 -6.11199809774669456e-07 -3.79242427978377269e-06
7 1 1.47439050044094997e-06 4.11445671878201816e-06 2.41556680718246464e-06
8 1 3.44865218649547160e-06 6.90181943792321236e-06 2.23601016784796256e-06
8
Step 210
1 1 1.66942782913712013e-06 -1.50543500660249258e-06 3.91322353036594162e-06
2 1 -3.82982674033989163e-06 5.39577231357323538e-06 4.03536764152004369e-06
3 1 1.05389267282590125e-06 3.09839191457437468e-06 6.29323523167580963e-07
4 1 -8.16659265839934906e-06 -1.50166479923138807e-06 -2.59710388249395063e-06
5 1 -7.71575685022809566e-06 -3.81492387227505434e-06 3.03828551418626843e-07
6 1 2.97841840194490367e-06 -1.70650793635838862e-06 -4.32150472532404784e-06
7 1 1.30863620327684318e-06 3.93684288810388169e-06 3.31376842959098471e-06
8 1 3.76981120518403123e-06 6.26294246973175896e-06 2.29859871885917570e-06
8
Step 220
1 1 9.69280835039823909e-07 -1.61913237269621809e-06 4.45005397177934651e-06
2 1 -4.35969542457024405e-06 6.17556222216099574e-06 4.13752301914406119e-06
3 1 1.54690521799871975e-06 3.60000190537330168e-06 6.95712265377683082e-07
4 1 -8.72069673362710603e-06 -8.40155723231253359e-07 -2.69302143535684124e-06
5 1 -8.26399925525150646e-06 -3.13382581554881775e-06 9.02261586347884177e-07
6 1 2.60325625776788127e-06 -2.76921222904899905e-06 -4.76133402073700824e-06
7 1 1.12679434926427734e-06 3.70704269281113622e-06 4.15395544168604162e-06
8 1 4.05964122860933614e-06 5.54264661720305508e-06 2.32808827048865310e-06
8
Step 230
1 1 2.84802076035224470e-07 -1.73930340135226149e-06 4.91549824069239370e-06
2 1 -4.81775963045446552e-06 6.84639194961364373e-06 4.18733818067638093e-06
3 1 2.01629052184921988e-06 4.03577334982067769e-06 7.59478697935808360e-07
4 1 -9.14907231231563723e-06 -1.81008290241300438e-07 -2.79233237383545734e-06
5 1 -8.68205191069019601e-06 -2.42835854182928567e-06 1.48748533773262951e-06
6 1 2.20233813030502218e-06 -3.78566453594183268e-06 -5.10572035783586750e-06
7 1 9.33884109730844616e-07 3.42726681143551277e-06 4.92458978606009047e-06
8 1 4.31444176171580374e-06 4.75268890572046434e-06 2.32194851851488018e-06
8
Step 240
1 1 -3.74305756673248764e-07 -1.86422962565025859e-06 5.30419783851193651e-06
2 1 -5.19678968262959408e-06 7.39977623148000567e-06 4.18265101806919558e-06
3 1 2.45632004074887364e-06 4.39989973780516178e-06 8.19889394930640754e-07
4 1 -9.44734525346824817e-06 4.65496333876988656e-07 -2.89502036863108952e-06
5 1 -8.96535195869969259e-06 -1.70729568046485946e-06 2.05180855605692157e-06
6 1 1.78073048035498302e-06 -4.74314867224407499e-06 -5.35015355249569649e-06
7 1 7.34977100819428881e-07 3.10053437273470279e-06 5.61540616489904963e-06
8 1 4.53096625971090799e-06 3.90578575342720216e-06 2.27828714903858080e-06
8
Step 250
1 1 -9.99236627628540891e-07 -1.99191986937498182e-06 5.61196613139297487e-06
2 1 -5.49108462652509580e-06 7.82927503626934570e-06 4.12243360643464718e-06
3 1 2.86185671664307692e-06 4.68799144794616274e-06 8.76094125160165500e-07
4 1 -9.61313784745404024e-06 1.08952991267192687e-06 -3.00091624240714564e-06
5 1 -9.11145069609892562e-06 -9.79365090523849741e-07 2.58785205453139307e-06
6 1 1.34354722286166578e-06 -5.63004232394517505e-06 -5.49184097733179421e-06
7 1 5.35110608100666280e-07 2.73059767906815767e-06 6.21752899301724285e-06
8 1 4.70644935716304765e-06 3.01537207483432670e-06 2.19588034069584462e-06
8
Step 260
1 1 -1.58217636098193065e-06 -2.12014566158559684e-06 5.83579659978674637e-06
2 1 -5.69659043045449250e-06 8.13051443589272389e-06 4.00682584327906194e-06
3 1 3.22848725934305780e-06 4.89712522691670809e-06 9.27085657293586643e-07
4 1 -9.64606353364025317e-06 1.68185730495091483e-06 -3.10963907468050280e-06
5 1 -9.11995518768678119e-06 -2.53157336865254952e-07 3.08864812046421812e-06
6 1 8.95864518008552499e-07 -6.43594416596569854e-06 -5.52971190286668067e-06
7 1 3.39207208507318593e-07 2.32185871122116369e-06 6.72355533705054200e-06
8 1 4.83862097426794679e-06 2.09536654402336843e-06 2.07419165590240549e-06
8
Step 270
1 1 -2.11636140896576955e-06 -2.24647143420291938e-06 5.97385945443688623e-06
2 1 -5.81095192850774377e-06 8.30118904061486660e-06 3.83710953242298827e-06
3 1 3.55259399305910406e-06 5.02583037447347753e-06 9.71700189351813755e-07
4 1 -9.54768990962331864e-06 2.23396603174544473e-06 -3.22053992652307430e-06
5 1 -8.99244247493343390e-06 4.62947970460927690e-07 3.54772454170561520e-06
6 1 4.42645658052832074e-07 -7.15176835494276551e-06 -5.46439434400662587e-06
7 1 1.52000834798278888e-07 1.87928197709306785e-06 7.12760720377858266e-06
8 1 4.92571059762338101e-06 1.15994704100478464e-06 1.91338093252333215e-06
8
Step 280
1 1 -2.59611479952268795e-06 -2.36828423230245114e-06 6.02548707495564424e-06
2 1 -5.83350938963906539e-06 8.34104294207581917e-06 3.61564634425692217e-06
3 1 3.83138013667711751e-06 5.07403465320059208e-06 1.00864862106335621e-06
4 1 -9.32147186864027945e-06 2.73818361899679766e-06 -3.33265805103118718e-06
5 1 -8.73235552044399353e-06 1.16083920981911898e-06 3.95917396515841595e-06
6 1 -1.13217917126008875e-08 -7.76981028838101381e-06 -5.29816829795202864e-06
7 1 -2.20309753180572544e-08 1.40830693273332585e-06 7.42535794842929029e-06
8 1 4.96644506731067104e-06 2.23338352317054164e-07 1.71430450387978641e-06
8
Step 290
1 1 -3.01686713552907560e-06 -2.48282590477734175e-06 5.99114853160801982e-06
2 1 -5.76525430754523685e-06 8.25182708277648284e-06 3.34579820878266741e-06
3 1 4.06286524019794461e-06 5.04298807976816348e-06 1.03656540456048109e-06
4 1 -8.97265901071711910e-06 3.18778232606591594e-06 -3.44469220826456728e-06
5 1 -8.34488994378448631e-06 1.83271618064591967e-06 4.31771038121382292e-06
6 1 -4.61475668382429217e-07 -8.28378865023247106e-06 -5.03489895827947481e-06
7 1 -1.78729109346862120e-07 9.14761849616445913e-07 7.61403794062560949e-06
8 1 4.96004288301460853e-06 -7.00387621155957493e-07 1.47850766255961070e-06
8
Step 300
1 1 -3.37516584518444309e-06 -2.58722916215634840e-06 5.87241428779447597e-06
2 1 -5.60875742115052369e-06 8.03723275041796619e-06 3.03184066994013835e-06
3 1 4.24586375225066001e-06 4.93517608834540253e-06 1.05406460007217876e-06
4 1 -8.50817952474682807e-06 3.57707019177956380e-06 -3.55498775009073892e-06
5 1 -7.83688020476916951e-06 2.47112549740925709e-06 4.61871592811410010e-06
6 1 -9.03516105539549068e-07 -8.68886897759401103e-06 -4.67995278033676283e-06
7 1 -3.14309720623719067e-07 4.04779853187671847e-07 7.69242401434972922e-06
8 1 4.90620741945100740e-06 -1.59750023917479062e-06 1.20820982490317915e-06
8
Step 310
1 1 -3.66867350764808635e-06 -2.67855798148871345e-06 5.67191265913113439e-06
2 1 -5.36807782687918561e-06 7.70280206879656043e-06 2.67887286944959962e-06
3 1 4.37995458104368052e-06 4.75422795961053842e-06 1.05979695825742938e-06
4 1 -7.93649948539355002e-06 3.90146414842085320e-06 -3.66154143155146340e-06
5 1 -7.21669252018593289e-06 3.06899701414927149e-06 4.85828311947225813e-06
6 1 -1.33343151355319031e-06 -8.98167325747861236e-06 -4.24009821282188384e-06
7 1 -4.25416292140421231e-07 -1.15282984208637551e-07 7.66081592243013047e-06
8 1 4.80512066598232174e-06 -2.45478890532598452e-06 9.06282459798393681e-07
8
Step 320
1 1 -3.89615529192881375e-06 -2.75385241321117301e-06 5.39327928930758756e-06
2 1 -5.04865776630973109e-06 7.25581659230543510e-06 2.29272358792790108e-06
3 1 4.46544546903170797e-06 4.50482261634594216e-06 1.05250502077391355e-06
4 1 -7.26745515101380232e-06 4.15753650354921825e-06 -3.76202834342726602e-06
5 1 -6.49412784681457698e-06 3.61969393243047215e-06 5.03325956571423969e-06
6 1 -1.74751735585584819e-06 -9.16027856895484877e-06 -3.72339183612342607e-06
7 1 -5.09167020369133612e-07 -6.38928154688064866e-07 7.52100142730931849e-06
8 1 4.65743839521643399e-06 -3.25973427531539084e-06 5.76219630093196324e-07
8
Step 330
1 1 -4.05745535771481900e-06 -2.81017760042953958e-06 5.04110009504809445e-06
2 1 -4.65720454853925426e-06 6.70516480570873269e-06 1.87985073812803095e-06
3 1 4.50333344942119332e-06 4.19259165856194740e-06 1.03107504907372636e-06
4 1 -6.51205897588894565e-06 4.34302379503624601e-06 -3.85385641767640943e-06
5 1 -5.68033021614876522e-06 4.11709011601115127e-06 5.14130269904914481e-06
6 1 -2.14239368415449116e-06 -9.22420590538594914e-06 -3.13905005183954424e-06
7 1 -5.63197167019432267e-07 -1.15959478072710070e-06 7.27621022417880074e-06
8 1 4.46428729174594161e-06 -4.00067378200154123e-06 2.22101024780635721e-07
8
Step 340
1 1 -4.15346194934732084e-06 -2.84467657759626091e-06 4.62084729754918209e-06
2 1 -4.20155936169271964e-06 6.06118910447594184e-06 1.44723093739853724e-06
3 1 4.49526122617643668e-06 3.82401839457545191e-06 9.94585483560889693e-07
4 1 -5.68228779321514370e-06 4.45679119815424458e-06 -3.93425086671293326e-06
5 1 -4.78768506004293561e-06 4.55568270192695314e-06 5.18094878806837607e-06
6 1 -2.51502897001544725e-06 -9.17439869858346671e-06 -2.49730672433970896e-06
7 1 -5.85695593357805416e-07 -1.67074024164135230e-06 6.93105594397932887e-06
8 1 4.22726476650690225e-06 -4.66696315920770459e-06 -1.51452472295825903e-07
8
Step 350
1 1 -4.18606077714821293e-06 -2.85462612245966048e-06 4.13880760493856177e-06
2 1 -3.69055220202250642e-06 5.33551318218558974e-06 1.00223561188680900e-06
3 1 4.44346856274501121e-06 3.40633123343932720e-06 9.42352092955213384e-07
4 1 -4.79086993080630096e-06 4.49875732180843334e-06 -4.00036286501575410e-06
5 1 -3.82968567805193400e-06 4.93073567202206509e-06 5.15169329346251077e-06
6 1 -2.86277574467203767e-06 -9.01319010249394074e-06 -1.80925812952361907e-06
7 1 -5.75434431435747409e-07 -2.16592213684860475e-06 6.49146511201125801e-06
8 1 3.94844270322042992e-06 -5.24913508314697944e-06 -5.39330861186332107e-07
8
Step 360
1 1 -4.15807621108798072e-06 -2.83749461264505104e-06 3.60200145254196362e-06
2 1 -3.13384250485116900e-06 4.54085175321061963e-06 5.52490633044021797e-07
3 1 4.35073734207668851e-06 2.94738984112830033e-06 8.73970350646250493e-07
4 1 -3.85109045981141741e-06 4.46979784071549356e-06 -4.04938708430406268e-06
5 1 -2.82075198785076726e-06 5.23843520440101156e-06 5.05407154845511689e-06
6 1 -3.18341432229258165e-06 -8.74425942870428425e-06 -1.08669731288906219e-06
7 1 -5.31790793544283669e-07 -2.63888181570018035e-06 5.96459195508444089e-06
8 1 3.63037562131823915e-06 -5.73905356202076134e-06 -9.35996584165338515e-07
8
Step 370
1 1 -4.07319990149902754e-06 -2.79100053182635048e-06 3.01809242666827067e-06
2 1 -2.54174601238870405e-06 3.69080548506910199e-06 1.05718764310302883e-07
3 1 4.22032866337447704e-06 2.45556269018826347e-06 7.89356067231927781e-07
4 1 -2.87662666467829495e-06 4.37165326684896978e-06 -4.07866754934080830e-06
5 1 -1.77600429535603022e-06 5.47602681261411754e-06 4.88972417801913976e-06
6 1 -3.47518500946924729e-06 -8.37258058606411762e-06 -3.41939234588483159e-07
7 1 -4.54759464271856804e-07 -3.08362894554914530e-06 5.35871809921192229e-06
8 1 3.27610878620477166e-06 -6.13005599693657112e-06 -1.33556078703439941e-06
8
Step 380
1 1 -3.93590672438533998e-06 -2.71317002861186000e-06 2.39528651057496824e-06
2 1 -1.92504916116853216e-06 2.79964380663346008e-06 -3.30431568779398847e-07
3 1 4.05591002952613563e-06 1.93959482896912884e-06 6.88785908775201160e-07
4 1 -1.88141131247517135e-06 4.20686124470221650e-06 -4.08577567479327724e-06
5 1 -7.11012602555471635e-07 5.64190237494770246e-06 4.66143211544442939e-06
6 1 -3.73677837680516566e-06 -7.90436603084345666e-06 4.12364409903134719e-07
7 1 -3.44955584493242540e-07 -3.49452582201132190e-06 4.68313643130032465e-06
8 1 2.88917271519570826e-06 -6.41706556338434507e-06 -1.73188169078535239e-06
8
Step 390
1 1 -3.75135840979836455e-06 -2.60239179803576719e-06 1.74222150388146377e-06
2 1 -1.29481152296189586e-06 1.88207748330750293e-06 -7.48564201193469280e-07
3 1 3.86147031217529271e-06 1.40846457938310251e-06 5.72939604353562286e-07
4 1 -8.79507253609535874e-07 3.97871874094837400e-06 -4.06855747706796265e-06
5 1 3.58457665679874273e-07 5.73561672460006596e-06 4.37311050579718082e-06
6 1 -3.96726559416306277e-06 -7.34700554878980436e-06 1.16342373656445606e-06
7 1 -2.03606512523427565e-07 -3.86636949991190249e-06 3.94801887417869749e-06
8 1 2.47354604955775953e-06 -6.59665453569445840e-06 -2.11868795983186702e-06
8
Step 400
1 1 -3.52529582685853380e-06 -2.45746757003083716e-06 1.06784781467800560e-06
2 1 -6.62155011365891290e-07 9.53024710762781418e-07 -1.14171238426898933e-06
3 1 3.64122041191670268e-06 8.71227329923686622e-07 4.42943626954600936e-07
4 1 1.15026395271768977e-07 3.69126345310211576e-06 -4.02515936363915761e-06
5 1 1.41669871235861227e-06 5.75783664353744600e-06 4.02975709517077439e-06
6 1 -4.16598520857385564e-06 -6.70899248873698507e-06 1.89852345619729777e-06
7 1 -3.25324051849733905e-08 -4.19446944072716712e-06 3.16426866536322602e-06
8 1 2.03357916451880187e-06 -6.66705256679900043e-06 -2.48971891058810074e-06
8
Step 410
1 1 -3.26392167141397861e-06 -2.27765667502586784e-06 3.81302772899616438e-07
2 1 -3.80397068086805998e-08 2.73798986353686499e-08 -1.50350506782076089e-06
3 1 3.39948078866355079e-06 3.36844816998397726e-07 3.00409056075640934e-07
4 1 1.08828694650062919e-06 3.34925837396821153e-06 -3.95404312278976431e-06
5 1 2.44831874397521851e-06 5.71024375222208302e-06 3.63735504471705413e-06
6 1 -4.33242854278483172e-06 -5.99982788341367073e-06 2.60524483299715223e-06
7 1 1.65884511652806922e-07 -4.47471833633021594e-06 2.34335883608855100e-06
8 1 1.57389058318876142e-06 -6.62811353227455522e-06 -2.83886533338093059e-06
8
Step 420
1 1 -2.97377621466373049e-06 -2.06271347309332167e-06 -3.08218449205829511e-07
2 1 5.66965464268545560e-07 -8.80203096914398816e-07 -1.82830142733420756e-06
3 1 3.14056636313306814e-06 -1.85997341891675833e-07 1.47444409888454322e-07
4 1 2.02670003209993773e-06 2.95816923477707088e-06 -3.85399393765910450e-06
5 1 3.43850503817562217e-06 5.59541428786521841e-06 3.20273142997942995e-06
6 1 -4.46616234318252119e-06 -5.22989737385611589e-06 3.27168677639801596e-06
7 1 3.88741628214452121e-07 -4.70365407841181390e-06 1.49715972193156254e-06
8 1 1.09926011224975523e-06 -6.48126332985147432e-06 -3.16029626867700936e-06
8
Step 430
1 1 -2.66160958297223531e-06 -1.81291672026149148e-06 -9.91591682022994259e-07
2 1 1.14289614192767491e-06 -1.75550952951477550e-06 -2.11126484731340523e-06
3 1 2.86869157380349840e-06 -6.89070461037612280e-07 -1.33816964965709901e-08
4 1 2.91720891430399519e-06 2.52412947886778239e-06 -3.72412323902734283e-06
5 1 4.37327579441512512e-06 5.41669222495163888e-06 2.73337730241713661e-06
6 1 -4.56680673701235083e-06 -4.41032203651473498e-06 3.88667493556240935e-06
7 1 6.32667858302146789e-07 -4.87851134658389564e-06 6.37759311076589199e-07
8 1 6.14540049017026118e-07 -6.22944582688104473e-06 -3.44856431246122006e-06
8
Step 440
1 1 -2.33425419495826563e-06 -1.52909004562053411e-06 -1.65988911190757248e-06
2 1 1.68056475068901438e-06 -2.58495491719222149e-06 -2.34836492013096405e-06
3 1 2.58791920218135507e-06 -1.16475859026029955e-06 -1.79136342273963986e-07
4 1 3.74747918235785468e-06 2.05388537584986027e-06 -3.56387368942372531e-06
5 1 5.23969893253071690e-06 5.17807037996662959e-06 2.23724667275298502e-06
6 1 -4.63406497410375775e-06 -3.55278832856310338e-06 4.43994979548632560e-06
7 1 8.93884644196408113e-07 -4.99726182602335165e-06 -2.22719109755956599e-07
8 1 1.24594593188738281e-07 -5.87707269476916041e-06 -3.69868907071251755e-06
8
Step 450
1 1 -1.99850023375333491e-06 -1.21261277758899190e-06 -2.30449901905058953e-06
2 1 2.17168125737616393e-06 -3.35578403190430879e-06 -2.53633444630736283e-06
3 1 2.30215538473593875e-06 -1.60617057922579026e-06 -3.46650816106367478e-07
4 1 4.50611023233444820e-06 1.55471257777175301e-06 -3.37303618902233756e-06
5 1 6.02606418557857410e-06 4.88409374291170129e-06 1.72256049956873667e-06
6 1 -4.66778304565058719e-06 -2.66936460688064147e-06 4.92232881960713449e-06
7 1 1.16827460490349795e-06 -5.05864255187839691e-06 -1.07229744581944872e-06
8 1 -3.65735163265005872e-07 -5.42997185988190888e-06 -3.90622317175984981e-06
8
Step 460
1 1 -1.66097616677008721e-06 -8.65420735761391400e-07 -2.91723864484678201e-06
2 1 2.60893522737155874e-06 -4.05627962325590635e-06 -2.67262799411235908e-06
3 1 2.01516658163176672e-06 -2.00720944906639923e-06 -5.12641218250629202e-07
4 1 5.18283607194175732e-06 1.03430153175043174e-06 -3.15178245211724918e-06
5 1 6.72200898030566385e-06 4.53979243476210054e-06 1.19763771630416593e-06
6 1 -4.66800879418155766e-06 -1.77231239861954174e-06 5.32584203795890549e-06
7 1 1.45145609981686003e-06 -5.06217224500132180e-06 -1.89931735648778386e-06
8 1 -8.51651577151801257e-07 -4.89532359066245153e-06 -4.06730680704136806e-06
8
Step 470
1 1 -1.32803620431608715e-06 -4.89997178435510461e-07 -3.49045916069132283e-06
2 1 2.98606046569251268e-06 -4.67596667809581153e-06 -2.75540948341418821e-06
3 1 1.73058911586227319e-06 -2.36261608103030286e-06 -6.73801198921678060e-07
4 1 5.76869543065113887e-06 5.00618401190030745e-07 -2.90070728108320200e-06