8
Step 0
1 1  0.000000000000e+00   0.000000000000e+00   0.000000000000e+00 
2 1  0.000000000000e+00   0.000000000000e+00   0.000000000000e+00 
3 1  0.000000000000e+00   0.000000000000e+00   0.000000000000e+00 
4 1  0.000000000000e+00   0.000000000000e+00   0.000000000000e+00 
5 1  0.000000000000e+00   0.000000000000e+00   0.000000000000e+00 
6 1  0.000000000000e+00   0.000000000000e+00   0.000000000000e+00 
7 1  0.000000000000e+00   0.000000000000e+00   0.000000000000e+00 
8 1  0.000000000000e+00   0.000000000000e+00   0.000000000000e+00 
8
Step 1000
1 1 -2.814053281456e-04   1.908412592039e-04   5.739329360276e-05 
2 1 -2.940370871254e-04   4.125787030109e-04   2.917157407979e-04 
3 1  1.401567641603e-04  -4.594874545332e-05  -1.056130842917e-04 
4 1 -2.364148027725e-04  -1.971298211545e-05   2.028901634299e-04 
5 1 -1.868888888582e-04  -1.040594486456e-04   5.456147738222e-05 
6 1 -5.286217034494e-05  -1.546677082967e-04  -2.937788377745e-04 
7 1  2.901415588932e-04  -7.564273676842e-05   2.379803194697e-04 
8 1 -4.270435692657e-05   2.193638255560e-04   2.208445926946e-04 
8
Step 2000
1 1 -3.055791459227e-06  -1.261975278371e-04   1.774712191489e-04 
2 1 -2.575257660264e-04   4.353465592524e-04   1.778517881976e-04 
3 1 -2.294891730867e-05   1.086088522110e-04  -2.295780466919e-04 
4 1 -2.466011860469e-04   1.226636225204e-04   2.775948376540e-04 
5 1 -2.329613061412e-04  -1.322831651968e-04  -1.368128262111e-04 
6 1 -1.101754566686e-04   1.136383190471e-06  -1.709567395272e-04 
7 1  1.314888232652e-04  -2.808345066662e-05   3.477065846628e-04 
8 1  2.897818582661e-04  -3.407280471080e-05   2.871094209359e-04 
8
Step 3000
1 1 -1.000773636997e-04  -4.972991226035e-05   9.788772078212e-05 
2 1 -2.839575335477e-04   2.889511865871e-04   1.870501582051e-04 
3 1  1.723507852419e-04   7.398110754851e-05  -1.781007960891e-05 
4 1 -3.112885689815e-04  -3.881726286993e-05   2.052029065301e-04 
5 1 -1.208657028383e-05  -1.049507171193e-04  -1.668368685130e-04 
6 1 -4.721197976820e-05  -2.532355623464e-04  -1.763498567424e-04 
7 1  7.377292986170e-05   5.164768138709e-05   9.695469453783e-05 
8 1  8.563730569632e-05  -1.057197334984e-04   8.644405754983e-05 
8
Step 4000
1 1 -9.428756583816e-05   7.622059372363e-05   1.058618164849e-04 
2 1 -2.479838929201e-04   9.986187270459e-05   2.151229260801e-04 
3 1  1.575794661652e-04   6.847795807515e-06  -4.863421473002e-05 
4 1 -1.350983858432e-04  -2.341694454555e-04   3.258974133073e-04 
5 1  3.248958089686e-05   3.729120542516e-05   3.376233687565e-06 
6 1 -8.152304773383e-05  -4.382426024586e-05  -2.627864479832e-04 
7 1 -9.383843401756e-05  -9.702679329473e-05   1.057391532550e-04 
8 1 -1.584290522119e-04   2.865729870722e-05   7.833129284315e-05 
8
Step 5000
1 1 -1.830479855836e-04   2.148463023593e-04  -1.530025272965e-04 
2 1 -2.389224203133e-04   1.069522756895e-04   2.013783757562e-04 
3 1  2.012051631905e-04  -6.208716263267e-05   4.186996149424e-05 
4 1 -1.630001219435e-04  -2.683191474707e-04   2.003078432674e-04 
5 1 -5.522292041637e-05  -1.969419102189e-04  -2.458916386247e-05 
6 1 -5.040252956871e-05  -6.654346141044e-06  -2.763251482916e-04 
7 1 -1.478075766278e-04  -1.005123578387e-04   1.359447453206e-04 
8 1 -1.564949424095e-05  -4.871810942207e-05   1.393360176015e-04 
8
Step 6000
1 1 -1.749434829073e-04   1.781160834018e-05  -1.792376208253e-05 
2 1 -9.616388037593e-05   3.041036573827e-04   4.444808894252e-05 
3 1  2.824347647657e-04  -1.291377677563e-04   6.252772154009e-05 
4 1 -1.663122533735e-04   5.170451374881e-05   4.573899185691e-05 
5 1 -2.477088403284e-04  -5.204137511622e-05   8.205395757656e-05 
6 1  1.165292237761e-04  -1.916128968682e-05  -2.177498651244e-04 
7 1  2.142810585950e-04  -1.603630470693e-04   1.743480300796e-04 
8 1 -1.221959333201e-04  -1.073371793135e-06   1.665149054120e-04 
8
Step 7000
1 1 -5.769297784163e-05   3.328682319838e-05  -8.344433220930e-05 
2 1 -1.100526600244e-04   1.211159200163e-04   1.092014087534e-04 
3 1  1.193460961703e-04   4.750545367859e-05  -3.184606773356e-06 
4 1 -3.235085618548e-05   1.577484152788e-04   2.328227788208e-04 
5 1 -8.920433323072e-05  -1.467243659057e-04   7.988226820535e-05 
6 1  1.594008826986e-05  -1.785444196527e-05  -2.913079525124e-04 
7 1  1.985217925952e-04  -3.443401050106e-04   7.410975920858e-06 
8 1 -4.606977094881e-05  -1.332872479767e-04  -1.005845449479e-04 
8
Step 8000
1 1 -4.137843593376e-05  -2.937676984360e-05  -4.160012228929e-06 
2 1 -1.146769175715e-04   8.955645346672e-05   1.055644678776e-04 
3 1  8.112211228531e-05  -1.177297287436e-04   7.277314687876e-05 
4 1 -8.246836135060e-05   1.290609620627e-04   2.170190486409e-04 
5 1 -3.423647420768e-05  -4.235664255628e-05  -4.997297992586e-05 
6 1 -7.785035616013e-06  -1.320530560096e-05  -2.671282056139e-04 
7 1 -2.567445635716e-05  -1.419856197707e-04  -3.402353669959e-05 
8 1  5.943893645056e-06  -2.549635548660e-04  -5.466144335917e-06 
8
Step 9000
1 1 -7.031474881706e-05   1.848637465674e-04  -3.390538074131e-04 
2 1 -1.949429033122e-04  -1.377498329725e-05   1.132421317671e-04 
3 1  2.503979506023e-04  -3.113284541627e-04   1.967304953311e-04 
4 1  4.970790720443e-06  -2.736632481861e-04   8.967419795390e-05 
5 1 -8.593022413567e-05  -1.476195732587e-04  -9.839295210171e-05 
6 1 -2.038089764603e-04  -1.186690990462e-05  -1.731782593839e-04 
7 1 -9.341603530793e-05   6.112109383527e-05   1.898185746519e-05 
8 1  5.829074127051e-07  -2.254911695051e-04  -1.011920848664e-04 
8
Step 10000
1 1 -5.395401732184e-05   1.664268005805e-04  -1.474232891797e-04 
2 1  4.266832232518e-05  -7.213540760429e-05  -1.818287157436e-04 
3 1  2.765382084679e-04  -6.096481742400e-06   8.431320012342e-05 
4 1 -1.748350166545e-04  -1.706217371778e-04   9.978237654651e-05 
5 1  1.372054128995e-04   1.944587080838e-05   4.170323325066e-05 
6 1  6.732775554966e-05   6.941834459018e-05  -5.587157353062e-05 
7 1  1.018842876020e-04   1.290795617571e-04   3.502928739947e-05 
8 1 -4.326345052426e-05  -1.913069697937e-04  -1.121959745760e-04 
8
Step 11000
1 1 -1.564880151316e-04   4.483468994628e-07  -2.150665878525e-04 
2 1  1.112427140024e-04  -9.873851490438e-06  -1.437988285157e-04 
3 1  2.379303308432e-04   5.972508477310e-05   4.739590927728e-05 
4 1 -4.635988574408e-05  -2.955308234306e-05   5.735901028012e-05 
5 1  1.105792184818e-05   8.056914442814e-05   1.334778721655e-04 
6 1  1.783418817164e-04  -1.163666363427e-04  -1.295122501416e-04 
7 1  3.779060749461e-05  -1.244180841889e-04  -9.647222467414e-05 
8 1  9.284890180317e-05  -2.355439527327e-04  -1.045067093506e-04 
8
Step 12000
1 1  8.702943239520e-05  -1.227451345974e-04  -1.753360210291e-04 
2 1 -5.292875932479e-06  -4.140239934750e-05  -3.610731318291e-05 
3 1  9.784731376242e-05   5.245860709124e-06   1.759830599400e-04 
4 1  1.520417037011e-04   1.409310163160e-04   1.333651975793e-04 
5 1 -6.658445832462e-05   5.050442973605e-05  -8.005292598335e-05 
6 1  1.580188163153e-04  -1.402359210867e-05  -2.308517119143e-04 
7 1  2.477383085844e-04  -1.504991752934e-04  -3.441309215474e-05 
8 1 -3.523825117215e-05  -1.006646683087e-04  -1.158530510014e-04 
8
Step 13000
1 1 -1.121570130637e-05  -2.642540005364e-05  -2.265901915041e-04 
2 1  4.306568023317e-05  -1.433793733229e-04  -1.960707561893e-04 
3 1  2.552763355446e-05  -2.889794412112e-04   2.766526097178e-05 
4 1  1.256731630903e-04  -1.186632295563e-04   1.869734926604e-04 
5 1 -1.662704913422e-04  -1.420025607228e-04   7.238232003319e-05 
6 1 -3.949723122582e-05   4.267861166023e-05  -1.954564706846e-04 
7 1  2.859593976026e-04  -1.727000362240e-04   5.998444505275e-05 
8 1 -2.002162411211e-04   2.449956624894e-05  -2.607075225901e-04 
8
Step 14000
1 1  7.008795592863e-05   1.761840462750e-05  -3.013043470716e-04 
2 1  2.206026272577e-04  -1.850714918777e-04  -1.743455613250e-04 
3 1  3.401745155564e-05  -1.818872514395e-04  -4.738265362758e-05 
4 1  2.342012701190e-04  -6.553066195605e-05   1.275071810436e-04 
5 1  5.496508263952e-05  -1.390643496798e-04   3.160574008924e-06 
6 1  4.351455252812e-05   1.689892966481e-04  -1.123669644589e-04 
7 1  6.817537976598e-05  -5.748649958420e-05   6.724101864373e-05 
8 1 -9.789244345940e-05   1.419799589911e-04  -1.561126605174e-04 
8
Step 15000
1 1  4.366435102392e-05  -7.800557716363e-06  -3.191506464991e-04 
2 1  1.357844973205e-04  -9.151302099180e-05  -2.223823984484e-04 
3 1  3.447166810388e-05   1.146533590259e-04   6.537874629297e-05 
4 1  1.458126714133e-04  -3.131116097646e-05   1.392445432481e-04 
5 1  3.419020927681e-04  -5.942971596057e-05   3.856282839130e-05 
6 1 -3.048060717195e-05   1.659317370930e-04  -6.134445443470e-05 
7 1  3.165123837412e-05  -1.002460879760e-04  -1.603789675698e-05 
8 1  4.653080096136e-05  -1.422017016661e-04  -1.534607806085e-04 
8
Step 16000
1 1  9.328512956913e-05  -1.265347106145e-04  -2.548539889139e-04 
2 1  1.107330394005e-04  -1.747004038898e-04  -1.980544655775e-04 
3 1  2.313345395455e-04   3.076224569463e-04   2.473795513837e-04 
4 1  1.608299747474e-04   1.649029342823e-04  -7.460785232187e-05 
5 1  2.507909057266e-04   1.094527940478e-04  -2.942576031295e-05 
6 1  2.850145876089e-05   1.455392388037e-05  -1.539769399019e-04 
7 1  2.161345374947e-04  -4.583970321456e-05   1.128081180451e-05 
8 1  5.176789474477e-05  -9.546882035696e-05  -1.297760419135e-04 
8
Step 17000
1 1  8.234719260891e-06  -1.544356116980e-04   1.976661574330e-05 
2 1  1.967929948798e-04  -3.051551352074e-04  -2.847190583223e-04 
3 1 -1.474417115176e-04   1.845783625691e-04  -1.208294679127e-05 
4 1 -3.233001693240e-05  -6.321871301983e-05  -1.768543132363e-05 
5 1 -1.346207667127e-04   3.774907742002e-05   3.361074284826e-05 
6 1  1.858239222605e-04  -7.188670222901e-05   2.561623672375e-05 
7 1  2.746811323812e-05  -4.345978444911e-05  -7.749080001281e-05 
8 1 -3.603225327632e-05  -4.379850955213e-05  -1.766187005721e-04 
8
Step 18000
1 1  2.237597022258e-04  -5.080201983653e-05  -9.167492198550e-05 
2 1  2.428770469875e-04  -2.137794164573e-04  -3.119331464050e-04 
3 1 -1.721307088041e-04  -1.069566257706e-05  -1.619807179612e-05 
4 1  2.386322472130e-04   2.333876385202e-05  -2.966155628196e-05 
5 1  4.343413242789e-06   1.886008631450e-04   2.476169872250e-04 
6 1  1.555980130217e-04   2.405565460319e-05  -4.319294280327e-05 
7 1 -4.505144588110e-05   1.192590327607e-04  -1.034585670421e-04 
8 1 -1.266143070128e-04  -1.000163625206e-04  -1.539231365269e-04 
8
Step 19000
1 1  8.322849532384e-05  -6.863098225938e-05  -2.874492813155e-04 
2 1  1.651928259106e-04   4.837469055089e-05  -1.925665178660e-04 
3 1 -1.673776010142e-04  -8.923489140796e-05   8.639606940743e-05 
4 1  4.221488746401e-04   2.327799023453e-05  -1.833472358799e-04 
5 1 -7.787137523061e-05   2.517516356276e-05   1.320402260277e-04 
6 1  1.037581346923e-04  -4.008126883589e-05   3.755982447041e-05 
7 1  1.065949203374e-04  -8.254237923023e-05   9.344837863834e-05 
8 1 -2.203544628018e-04   9.774535766052e-05  -1.498917439942e-04 
8
Step 20000
1 1  9.593643957003e-05  -2.441593303848e-05  -1.268113446936e-04 
2 1  2.415055834123e-04  -9.570334226807e-05  -2.026495493893e-04 
3 1 -4.413750085099e-05   3.117315848367e-04   1.034943854542e-04 
4 1  4.733518949839e-04   6.679309088008e-05  -1.561087311996e-04 
5 1 -7.409717441317e-07   1.092484317420e-04   5.849531074609e-05 
6 1  2.625271834878e-04   2.932912389558e-04   3.447588764602e-05 
7 1  4.365369930992e-05  -7.963888577313e-05   7.301505982198e-05 
8 1 -1.658560372901e-05   1.670631481809e-05  -1.201689161612e-04 
8
Step 21000
1 1  4.024897769011e-05  -9.589694350352e-05   1.481990826528e-04 
2 1  1.743577759555e-04  -1.655778742308e-04  -5.428512868223e-05 
3 1 -2.929430825733e-04   3.294226521463e-04  -6.619437174828e-05 
4 1 -1.585428526117e-04   4.661339159900e-05  -2.589835393773e-04 
5 1  1.465296881362e-04  -6.548135017677e-05   1.430563524797e-04 
6 1  5.776835902787e-05   1.776225381954e-04   1.151554854697e-04 
7 1 -4.051562050506e-06   1.663775241143e-05   4.310011673543e-05 
8 1 -5.365124877262e-05  -1.473235688365e-04  -1.081359886591e-04 
8
Step 22000
1 1  2.614040420469e-04  -1.216675649984e-04   8.379137746184e-05 
2 1  8.755174883373e-05  -1.754824671490e-04  -1.082756071777e-04 
3 1 -2.678275103752e-04   2.348908484497e-04  -1.084450040558e-04 
4 1  1.935073507743e-05   9.114206160411e-05  -1.999454012650e-04 
5 1 -5.153505571955e-07   4.177470129537e-06   9.704223776977e-05 
6 1 -8.766819421799e-05   2.000143306866e-04   2.172234870727e-04 
7 1  6.157397538931e-05  -1.740366109795e-04   5.263441917997e-05 
8 1 -2.030432747397e-04  -6.108718271561e-05  -1.256433069111e-04 
8
Step 23000
1 1 -5.337586776243e-05  -2.827963010524e-05   1.010470952885e-04 
2 1  1.383244321862e-04  -8.667002610784e-05  -1.873020796347e-04 
3 1 -2.984819540345e-04   1.935133159514e-04   4.059321862522e-05 
4 1  1.478181340510e-04  -1.572431052601e-04  -3.099794613311e-05 
5 1 -2.617481981885e-04   1.217886230123e-04  -1.908000222002e-06 
6 1  1.133201918971e-04   4.950774075014e-05   1.727576535372e-04 
7 1  2.208920875005e-06  -2.115580868560e-06   7.736806759478e-05 
8 1 -1.519329149555e-04  -2.764663687396e-05  -3.524356367119e-05 
8
Step 24000
1 1  8.495825286068e-05   7.327827953663e-05  -1.868239830339e-05 
2 1  3.372718379967e-04   2.759531277584e-05  -2.175465198965e-05 
3 1 -2.532945206901e-04   1.692067613934e-04  -1.390883940625e-04 
4 1  2.495246177580e-04   8.544673622932e-06  -2.022628206758e-04 
5 1  8.487571304452e-06   9.964639985574e-05   1.340705928247e-04 
6 1  1.200661398139e-04   1.269836181829e-04   2.059565079337e-04 
7 1  1.942961221739e-04   2.358139788482e-04   1.436782767122e-04 
8 1 -1.561997344550e-04   6.171157162596e-05   5.789774034475e-05 
8
Step 25000
1 1  1.107086440771e-04  -3.088502371251e-05   2.996533461726e-04 
2 1  1.788468722836e-04   1.791932646845e-04   3.062659803516e-05 
3 1 -5.497462686040e-04   2.701874797540e-05  -1.508004667924e-04 
4 1  2.005203046557e-04  -9.788530776605e-07  -2.601254309492e-04 
5 1 -9.398433304534e-05   2.921595170357e-05   1.058675074406e-04 
6 1  1.548927793911e-04   2.021774813666e-04   1.159654083922e-04 
7 1  1.077493273293e-04   1.345605503942e-04   2.379082612522e-04 
8 1 -3.296114225099e-04  -1.333713591569e-04   2.485726337404e-05 
8
Step 26000
1 1  2.782712038735e-05  -1.143646794198e-04   2.224217657244e-04 
2 1  1.809385064810e-04   3.451460672939e-05   3.669747172872e-05 
3 1 -3.884148793117e-04   2.086488746115e-04   2.464119934491e-06 
4 1  6.736642527671e-05   1.373647224002e-04  -3.904074850593e-04 
5 1 -1.600593714485e-04   9.291404424394e-05   8.641816400770e-05 
6 1  8.676612192982e-06   1.269021454807e-04   1.044205152903e-04 
7 1 -1.304432883226e-04  -5.649722408282e-05   2.578874228873e-04 
8 1 -9.844215640827e-05  -1.529063022097e-04  -1.479657164037e-05 
8
Step 27000
1 1 -1.478291400411e-05  -9.740472717640e-05   1.986792418587e-04 
2 1  3.943068888445e-05  -1.862161245585e-04  -3.165718975889e-05 
3 1 -3.275574277809e-04   2.880376560074e-04   1.876405799999e-05 
4 1 -2.880141242626e-04   7.174656663236e-05  -2.072695247642e-04 
5 1 -1.615871409723e-04  -1.662081611994e-04   9.778047131700e-05 
6 1 -3.898728247244e-05   1.350997062627e-04   6.369104720882e-05 
7 1  1.030458712791e-05  -7.825216431122e-05   1.704963468243e-04 
8 1 -1.014242023666e-04  -7.995292691069e-05  -2.394149275235e-05 
8
Step 28000
1 1 -6.079854267993e-05   1.528260924820e-04   1.791609746758e-04 
2 1  4.061282162537e-04  -1.568314853735e-04  -4.687921200437e-05 
3 1 -3.366394780577e-04   5.465804876622e-05  -4.107409966389e-05 
4 1 -8.356873818971e-05   1.894696848229e-06  -2.117543578605e-04 
5 1  9.349804507449e-05  -6.669015751676e-05   1.042833967570e-04 
6 1  4.264796016474e-06   2.473805142740e-04   1.858234214680e-04 
7 1 -2.524987161253e-05   9.076954862718e-05   1.362475113306e-04 
8 1  2.446674441022e-05   8.763801852920e-05  -3.561416772805e-05 
8
Step 29000
1 1  3.862193554521e-05   1.559042153244e-04   3.138439898660e-04 
2 1  1.756872151957e-05   5.876039272344e-05   6.804038879630e-05 
3 1 -2.875839796847e-04  -7.872695630685e-05  -4.356300312000e-05 
4 1  1.323309769628e-04  -1.004393093569e-04  -1.930529562592e-04 
5 1  2.323405311738e-05   8.555900384699e-05   7.476159667429e-05 
6 1  1.047223934364e-04   1.914131416553e-04   1.941948548492e-04 
7 1 -4.544682792391e-06  -3.700030129759e-05   5.799436085509e-05 
8 1  1.953645927592e-05   2.648328560636e-04   1.346492914004e-04 
8
Step 30000
1 1 -2.144859055080e-05  -1.173636302106e-04   2.882184499258e-04 
2 1  1.313328187423e-04   6.733978329865e-05   2.253149391715e-05 
3 1 -1.978620771828e-04   6.773828489017e-05  -5.861476287063e-06 
4 1  6.030256872487e-05  -3.253095889970e-06  -3.655788867399e-04 
5 1 -1.408483545999e-04   1.073718291757e-04  -1.214118600133e-04 
6 1 -5.548431917514e-05  -1.085095277937e-06   1.672033677801e-04 
7 1 -4.872773709777e-05  -2.158286366360e-05   2.094806833633e-05 
8 1 -1.152413068032e-04   6.147635769286e-05   2.498274811588e-04 
8
Step 31000
1 1 -1.189648286192e-04  -1.628967858056e-04   4.138400589529e-04 
2 1  9.525054226191e-05   8.580186026482e-05   1.790253099993e-04 
3 1 -6.523196095884e-04   3.124708535854e-05  -9.347136216267e-05 
4 1 -1.270402229598e-04  -7.066255450245e-06  -3.428950783659e-04 
5 1 -9.853312582412e-05  -9.961833822919e-05   1.165845268537e-04 
6 1  5.310007271841e-07  -1.128759130254e-05   1.914276540235e-04 
7 1 -4.366478151350e-05  -6.398044130775e-05  -9.103165955184e-05 
8 1 -2.577938627020e-04   2.362177475764e-05   1.583586766758e-04 
8
Step 32000
1 1  1.296072653407e-04   1.124195437487e-04   2.765548984132e-04 
2 1 -6.489641891895e-05  -1.046448091207e-04   3.293460977398e-05 
3 1 -2.417470259748e-04  -1.188756684038e-04   5.135185889565e-05 
4 1 -4.423737978738e-05  -1.219055214491e-04  -4.122005601703e-04 
5 1 -2.204114929027e-04   8.804424752753e-05   1.508857701050e-04 
6 1  7.578261674447e-05   1.635862720302e-04   1.114375383425e-04 
7 1 -8.631950904617e-05  -3.692370696962e-05  -2.929919413642e-05 
8 1 -7.254806567327e-06   1.292070468075e-04   7.415126429087e-05 
8
Step 33000
1 1 -9.530396631651e-05   2.594419722950e-04   3.127603026493e-04 
2 1  6.869228953505e-05  -1.840974953754e-04  -2.971965140696e-06 
3 1 -1.148994170044e-04   8.678263323482e-05   4.581029316815e-06 
4 1 -2.416750523028e-05  -1.852634352509e-04  -2.910181577353e-04 
5 1  1.451934257639e-05  -1.273480207757e-04   1.109913453951e-04 
6 1  3.484913815645e-05   6.467772331600e-05   1.381634644511e-04 
7 1 -4.253104734301e-06   9.910703633091e-05   9.662566085822e-05 
8 1  9.942090026822e-05   1.911836040954e-04   1.127092528590e-05 
8
Step 34000
1 1 -1.499000993206e-04   9.553475004245e-05   1.845689722011e-04 
2 1  1.655497194386e-04  -7.946609722646e-05   1.806491548045e-04 
3 1 -9.651279331803e-05  -2.189018744892e-05  -6.828767182458e-05 
4 1 -2.586407925477e-05  -3.279872455345e-06  -3.043359034067e-04 
5 1 -1.631037280836e-06  -1.900199623846e-04   6.579445819783e-05 
6 1 -1.395858139306e-04   2.107512467628e-04  -7.783739270326e-05 
7 1 -6.204290569684e-05  -8.767464575166e-05   4.744616301196e-05 
8 1  1.585080915665e-04   1.690987433816e-04   1.337936136514e-04 
8
Step 35000
1 1  8.314569855173e-05  -2.033674975289e-04   2.639986185244e-04 
2 1 -9.297656918645e-05   2.509070149612e-04   2.162468130953e-04 
3 1 -2.420495194129e-04  -1.165565062622e-04  -2.435491396617e-05 
4 1 -1.804545227094e-04  -5.132204931032e-05  -2.930639413945e-04 
5 1 -1.356950643365e-04  -2.248241475976e-04   3.473711696308e-05 
6 1  8.959227433684e-05  -6.561675246561e-05   7.178937754787e-06 
7 1 -1.664034197873e-04  -4.799277240861e-05   7.260999237899e-05 
8 1  6.030900681728e-05   2.442288174713e-04  -1.160459536112e-06 
8
Step 36000
1 1  2.233402689525e-05  -7.318418160726e-05   3.183344131964e-05 
2 1 -1.051837423643e-05   9.429662951075e-05   1.260314624974e-04 
3 1 -1.043795715215e-04  -2.706107150409e-04   1.912345155053e-05 
4 1 -2.552020584200e-04  -1.772177755079e-04  -1.280883103369e-04 
5 1 -9.852199924540e-05  -3.168833654269e-05  -1.629647635739e-04 
6 1 -8.118833203494e-05   9.021521459832e-05  -8.266723321751e-05 
7 1 -5.609762634482e-05  -7.420706126964e-05  -7.714014612952e-05 
8 1 -1.157114127591e-04  -7.554153507222e-05   1.086990974476e-04 
8
Step 37000
1 1 -1.504806797597e-04   1.788501226139e-04   2.939574341687e-05 
2 1  1.545248418518e-04  -7.554485323335e-05   2.331651396205e-04 
3 1  4.920314076424e-05  -8.341781167112e-05   2.055379311232e-05 
4 1 -1.007470419984e-04   1.448674640629e-04  -1.408233410477e-04 
5 1 -5.081787427806e-05  -1.026074575941e-04   1.616486795898e-05 
6 1 -6.698939378206e-06   7.494197355812e-05   2.542064580953e-05 
7 1  8.486781625461e-05  -6.033271101716e-05  -6.239933713240e-05 
8 1  1.124499864336e-04  -1.348104383696e-06   2.071654149525e-04 
8
Step 38000
1 1 -1.818466856166e-04   1.142495424138e-04  -6.466035385371e-08 
2 1  2.455773581723e-04  -6.344262700273e-05  -4.681764146712e-05 
3 1  1.650687085825e-04   1.283407664839e-06   1.117469198460e-04 
4 1 -5.098777726008e-05  -4.883305890987e-05  -8.806003192354e-05 
5 1 -1.264225832576e-04  -1.663104960380e-04  -9.803990003404e-06 
6 1  1.452056630622e-04  -3.596340692442e-05  -2.841357768290e-05 
7 1  3.639042326094e-05   1.011601481371e-04  -6.304216742213e-07 
8 1  1.290657250103e-04   6.203036080154e-05  -1.243471778013e-05 
8
Step 39000
1 1  1.114504070593e-04  -3.962071836375e-06   7.606145685336e-05 
2 1 -1.238048347112e-04   2.841970202119e-05   7.869556348779e-05 
3 1  1.378857470259e-04  -7.250496020617e-05   1.940404393046e-04 
4 1 -1.302085574678e-04  -2.255680222697e-04  -5.765850153671e-05 
5 1 -2.356511222816e-05  -1.044965425268e-05   2.398191828033e-05 
6 1 -1.454182536137e-04   3.739636625812e-05  -1.122235685784e-04 
7 1 -4.589149745216e-05  -1.208144803473e-04  -2.436254307216e-04 
8 1  1.959913107069e-04   7.874632475294e-05   1.935161782799e-05 
8
Step 40000
1 1 -6.427333516898e-05  -1.728082151668e-04  -2.156514237476e-04 
2 1 -1.610153009620e-05  -5.009260661292e-05   2.059725720325e-04 
3 1 -2.011642827802e-05  -5.390549539510e-05   1.548969913382e-04 
4 1 -2.008459584632e-04  -1.406057680392e-04   1.588645818172e-05 
5 1 -1.088806747115e-04  -2.093800147309e-04   3.681503331352e-05 
6 1 -1.149154922079e-04   1.281314123571e-05  -2.357812357541e-04 
7 1 -2.226240344835e-04  -2.314731893469e-04  -2.182145707840e-04 
8 1  3.344406170875e-05   7.187741921711e-05  -3.086531069556e-06 
8
Step 41000
1 1 -1.165554919153e-04  -1.348576837374e-04  -1.698911954233e-04 
2 1  1.473450307076e-04   1.955623363974e-04   3.041706138672e-04 
3 1  7.280314333778e-05  -1.381048337701e-04   9.300720019010e-05 
4 1  6.180923914992e-05   6.942445565415e-05   8.612089370488e-06 
5 1 -9.509718331263e-05   6.711841392911e-05   1.231029066700e-04 
6 1 -1.156327841996e-04   2.919326355909e-05  -2.159730139812e-04 
7 1 -1.515074663179e-04  -3.463619474417e-04  -1.036283553129e-04 
8 1  3.177148744738e-04   1.378277790840e-05  -3.149412991502e-05 
8
Step 42000
1 1  9.737540331302e-06  -3.345368556183e-06  -1.426573020917e-04 
2 1 -2.227399824814e-04   1.895437982403e-04  -2.201396811392e-05 
3 1  3.149717815759e-04  -1.500055333271e-04   3.707280089892e-05 
4 1 -5.601534881394e-05  -5.686519099841e-05   1.298025247324e-04 
5 1  4.965198285118e-05   1.211536490102e-04   1.422876215611e-04 
6 1 -1.074175933266e-05  -1.127649693028e-04  -8.540985236353e-05 
7 1  5.638103926720e-05  -2.512903878303e-04  -3.059576454800e-04 
8 1  1.387464805726e-04   9.871845790876e-05   3.755651711571e-05 
8
Step 43000
1 1  1.127456728492e-04   2.072510648973e-04  -5.624141461668e-05 
2 1  2.711550208548e-05  -8.083180960045e-05  -8.654305902517e-06 
3 1  2.101744385831e-04  -6.179303448921e-05   1.075934752914e-04 
4 1  2.819662710476e-05   1.363001452679e-05   3.007816201272e-04 
5 1 -2.219749988084e-05  -1.729395853200e-05   1.475696497611e-04 
6 1 -1.128810000343e-05   1.180901368699e-04  -2.053460986313e-04 
7 1  3.169509848717e-05  -1.277503494450e-04  -2.444870779986e-04 
8 1  1.716165971204e-04  -1.168802668709e-05   9.006876968713e-06 
8
Step 44000
1 1 -3.850512277483e-05  -4.121330614832e-05  -2.563336972465e-04 
2 1 -4.613396424177e-05  -1.325911691997e-04   4.728034473394e-05 
3 1  3.104102104731e-05  -6.999239657403e-05   2.771822240372e-05 
4 1 -4.513560093418e-05  -1.581338911685e-05   1.519025461594e-04 
5 1 -3.586876514721e-05  -2.020410862958e-04   2.108430841579e-04 
6 1 -2.598856397953e-04  -1.320795074099e-04  -2.272608445856e-04 
7 1 -1.405421819542e-04  -1.277033920138e-04  -3.474430054321e-04 
8 1  2.567333354055e-05  -2.182594272020e-04  -4.294415952362e-05 
8
Step 45000
1 1  1.104433991341e-04  -1.994922451398e-04  -8.607470089339e-06 
2 1 -2.653602200734e-04   1.303841689465e-04   6.673415571659e-05 
3 1  3.472272414257e-04   1.360731954243e-04   1.982278403503e-04 
4 1 -1.333986409721e-04   2.658223534452e-05   1.352205048168e-04 
5 1  2.030459519609e-04   6.394255780601e-05   9.235507865881e-05 
6 1 -1.139864086111e-04  -1.027822576875e-04  -7.357172318847e-05 
7 1 -1.177198572502e-04  -5.428803604338e-05  -2.477459734277e-04 
8 1  1.573636253832e-04  -1.395153903297e-04  -4.125008481765e-05 
8
Step 46000
1 1  9.976854912274e-05  -4.887504523867e-05  -2.914592878848e-04 
2 1 -1.520256645651e-04   2.560907375736e-04   5.946184454101e-05 
3 1  1.454794259688e-04  -2.028150059236e-05   9.701441321063e-05 
4 1 -5.491433838341e-05   7.696274008054e-05   1.301408492324e-04 
5 1  2.355200946705e-04  -8.851526365738e-05   2.585643933636e-04 
6 1 -3.628393125829e-05   1.856722379100e-05  -2.261899405731e-04 
7 1 -1.202880028828e-04  -1.803745626502e-04  -1.206486568467e-04 
8 1  2.781528136085e-04  -4.525417001434e-05   9.106458981924e-05 
8
Step 47000
1 1  8.136844846848e-05   1.845776211906e-04  -3.520297838387e-04 
2 1  2.202486364628e-05   7.790802794349e-05   1.972788498749e-04 
3 1  1.496007675948e-04  -1.642554709453e-04   8.550964467911e-05 
4 1 -3.517484041094e-05   1.648012992034e-04   2.532160977224e-04 
5 1  2.148630906897e-04  -2.039855528085e-05   2.198438963252e-04 
6 1  1.021733462455e-05   1.106098077842e-04  -3.251721013725e-04 
7 1 -2.611146405058e-05  -7.729917751107e-05  -2.260366569730e-05 
8 1  3.733294525740e-04   1.262021101108e-05   5.223558268285e-05 
8
Step 48000
1 1 -1.124813418817e-05  -1.054710149436e-05  -1.584063431583e-04 
2 1 -2.108214169372e-04   4.952959080440e-05  -1.891334186922e-04 
3 1  4.372940441702e-04  -2.080832109274e-04   1.876920139097e-04 
4 1 -2.225341459045e-04   6.430963892101e-05   2.177978519539e-04 
5 1  5.052904517398e-05   1.513668907181e-05   1.814798888985e-04 
6 1  1.147575510440e-06  -1.800914574585e-04  -1.295178023982e-04 
7 1 -2.516388894391e-04  -1.947521450297e-04  -7.342501251114e-05 
8 1  2.327087100594e-05   1.088107308566e-04  -9.276496468215e-05 
8
Step 49000
1 1  1.067350774417e-04  -4.554546433636e-07   3.083561368638e-05 
2 1 -8.330705309772e-06  -8.982755008072e-05  -1.830592101338e-05 
3 1  1.261697222674e-04   1.042365656911e-04  -4.092230119570e-05 
4 1 -1.334689660009e-05   1.986753257064e-04   1.602652976923e-04 
5 1 -4.893915052646e-05  -1.037192203858e-04   5.945957970296e-05 
6 1  3.598552215490e-05  -3.431275335615e-05  -7.552212924257e-05 
7 1 -3.547014245379e-05  -1.226399881072e-04   8.048386531618e-06 
8 1 -4.179688353118e-06   9.498193687235e-05  -5.241887797586e-05 
8
Step 50000
1 1  1.514624343853e-04   1.201189337985e-04  -2.291806828442e-04 
2 1 -9.937150093710e-05  -4.704150194359e-05   9.505502662120e-05 
3 1  1.984091593892e-05   2.680514411612e-04   6.617833037609e-05 
4 1  3.107296667107e-05   7.288200315259e-05   2.054329278454e-04 
5 1  1.036922742104e-04  -1.921107099419e-05   1.066835904271e-04 
6 1  2.889870461092e-05  -9.701345269181e-05  -3.188070305462e-04 
7 1 -2.514317348796e-04  -8.450158724243e-05  -4.302279621625e-05 
8 1  1.168461284194e-04  -1.121405136086e-04   1.250115181125e-04 
8
Step 51000
1 1  1.520502112637e-04   2.154577496966e-04  -1.425297394930e-04 
2 1 -1.263527385924e-04   1.167131933197e-04  -1.161804272024e-04 
3 1  3.081522414764e-04   1.355881956421e-04   2.192423991314e-04 
4 1 -2.229545539576e-05   1.189573515233e-04   1.903912249043e-04 
5 1  2.428539128357e-04   2.219286829489e-04  -1.584283375907e-05 
6 1  9.904187889122e-05  -9.504988080048e-05   8.631398854742e-05 
7 1  7.533705000951e-05   8.768821747867e-05  -1.992079855000e-05 
8 1  3.010480205770e-04   6.627079341508e-05   1.860621859630e-04 
8
Step 52000
1 1  6.977501986656e-05   1.500578237517e-04  -2.141389788027e-04 
2 1 -1.431286690991e-04  -4.955520035356e-06  -9.088524413225e-05 
3 1  2.838092734347e-04  -2.098545267046e-05   8.987284551012e-05 
4 1 -4.009363401398e-05  -1.852467820706e-05   1.139494855213e-04 
5 1  1.303971827167e-04   1.961090124214e-04   4.828754994087e-05 
6 1 -1.099611201380e-04  -6.645039525436e-05   5.802875815714e-06 
7 1 -1.525455421912e-04  -2.145813122598e-04   4.271790423317e-05 
8 1  9.869861842027e-05   3.680446624025e-05   5.936173586255e-05 
8
Step 53000
1 1 -9.543604163533e-06   1.805979564019e-04   1.346657765274e-04 
2 1 -2.538392131479e-05  -1.115265600973e-05  -3.191494733606e-05 
3 1  2.021030228328e-04  -9.243682613528e-05  -2.122578535730e-04 
4 1 -1.898439930997e-04   8.152645149278e-05   1.857026286091e-05 
5 1  1.838538155797e-04   2.062031148449e-04   2.208013453375e-04 
6 1 -7.301536872698e-06  -2.466831846012e-06  -2.105962805570e-04 
7 1 -1.581572063382e-04  -1.743103302359e-04   7.104634752484e-05 
8 1  3.234445327130e-06   2.702062644801e-05   5.768229442963e-05 
8
Step 54000
1 1  2.264699491471e-04   1.423148516111e-04   3.991500932101e-05 
2 1 -1.926246092265e-04   1.300675202038e-04  -7.445353017724e-06 
3 1  2.482844051116e-04  -7.118293997721e-05  -1.137669672104e-04 
4 1 -2.373823241177e-04   2.740635987122e-04   1.676662753708e-04 
5 1  1.466010133082e-04   1.015661641869e-04   3.413315836760e-05 