8
Step 0
1 1  0.000000000000e+00   0.000000000000e+00   0.000000000000e+00 
2 1  0.000000000000e+00   0.000000000000e+00   0.000000000000e+00 
3 1  0.000000000000e+00   0.000000000000e+00   0.000000000000e+00 
4 1  0.000000000000e+00   0.000000000000e+00   0.000000000000e+00 
5 1  0.000000000000e+00   0.000000000000e+00   0.000000000000e+00 
6 1  0.000000000000e+00   0.000000000000e+00   0.000000000000e+00 
7 1  0.000000000000e+00   0.000000000000e+00   0.000000000000e+00 
8 1  0.000000000000e+00   0.000000000000e+00   0.000000000000e+00 
8
Step 100
1 1  5.190481018051e-05  -7.642007486129e-05   1.477105393582e-04 
2 1  2.853071846930e-04   2.539052516908e-05  -5.201276593742e-04 
3 1 -8.042838585143e-06   2.144425569811e-04  -2.570610955603e-04 
4 1  8.434122059781e-05  -1.384527442198e-05  -2.489005323783e-04 
5 1 -2.060637114766e-04   8.398350754849e-05  -9.658797665281e-05 
6 1 -2.774069509840e-04  -3.402675527519e-04   2.492792609129e-04 
7 1 -1.210023716447e-04   6.723741250123e-05   8.189132664556e-05 
8 1 -7.499391775077e-06   1.562866695153e-07  -4.713700534525e-04 
8
Step 200
1 1 -2.505855219445e-04   2.747381350812e-05   1.919889008486e-05 
2 1 -2.349766813767e-04   4.747306579243e-04   9.919760334739e-05 
3 1  2.093631447061e-04   3.973834214035e-05  -3.709322820073e-04 
4 1  2.769571541893e-05  -1.410602545521e-04   3.036084489245e-04 
5 1 -1.281151079140e-04   2.247072717596e-05  -3.639285217952e-04 
6 1 -5.281799790372e-04  -4.001464216024e-05  -1.218411848609e-04 
7 1  1.208966031503e-04   6.725686103183e-06   1.353977941480e-04 
8 1 -6.114726619463e-06   1.785371404975e-04   1.179125292452e-04 
8
Step 300
1 1 -3.307533349568e-04   1.370456752367e-04  -1.130054966999e-04 
2 1 -3.535214071817e-04   3.517000319049e-04   5.724774989821e-04 
3 1  2.269845341838e-04  -1.147255644168e-04  -2.402200102458e-05 
4 1 -1.350431593845e-05  -1.533141251073e-05   3.415876691850e-04 
5 1  5.536300871901e-05  -3.986683027833e-05  -1.065002169006e-04 
6 1 -2.198496296286e-04   1.814822302099e-04  -2.269414371415e-04 
7 1  1.940161203590e-04  -2.479135210962e-05   6.214120739802e-05 
8 1  2.402520989741e-05   1.652463220978e-04   5.148301495746e-04 
8
Step 400
1 1 -7.492236659562e-05   1.575985226847e-04  -1.263235081671e-04 
2 1  4.839790019424e-05  -1.699179159934e-04   3.523146297146e-04 
3 1  1.645490439204e-05  -1.171549529931e-04   3.217850614947e-04 
4 1  2.687707784447e-05   1.426221753689e-04  -1.428560845320e-04 
5 1  1.412363585465e-04  -2.785218037311e-05   2.561432266076e-04 
6 1  3.004734513860e-04   9.622960909147e-05   1.479146349668e-06 
7 1  4.204752661488e-05   8.122118611732e-05  -1.266288949581e-04 
8 1  4.410513815226e-05   1.035015663909e-04   2.644754662103e-04 
8
Step 500
1 1  1.991670751901e-04   4.412948211967e-05  -2.398853010417e-05 
2 1  3.836230489954e-04  -4.406051832459e-04  -2.092558013646e-04 
3 1 -1.763952792860e-04   1.066430815044e-05   2.700919796441e-04 
4 1  4.652701612154e-05   9.540256645765e-05  -4.562760293629e-04 
5 1  5.049066807689e-05   6.830604884560e-05   2.072792168476e-04 
6 1  4.702036033109e-04  -1.583334948124e-04   1.603614395752e-04 
7 1 -1.314230332385e-04   2.150666348031e-04  -2.292032900976e-04 
8 1  4.558322782015e-05   6.373948392857e-05  -2.676101893189e-04 
8
Step 600
1 1  1.668902193910e-04  -1.190520965021e-04   8.369249514503e-05 
2 1  2.008300726562e-04  -1.683963298037e-04  -4.132199683176e-04 
3 1 -1.310076182308e-04   8.597627500638e-05  -5.315353093091e-05 
4 1 -2.430465772990e-05  -7.998889719474e-05  -1.779779197514e-04 
5 1 -6.598277418155e-05   1.355846752714e-04  -1.593731294131e-04 
6 1  1.611240369593e-04  -2.784540225736e-04   1.221074246845e-05 
7 1 -1.265852756663e-04   1.605394464536e-04  -1.113222317833e-04 
8 1  3.634722801225e-05  -2.056835108550e-05  -4.323187143500e-04 
8
Step 700
1 1 -8.665955087304e-05  -1.701081347381e-04   9.005953905660e-05 
2 1 -2.400215818110e-04   2.636844731870e-04  -8.972957098594e-05 
3 1  8.660216425577e-05  -2.693561565422e-05  -2.313827661329e-04 
4 1 -9.437677611933e-05  -1.248527896244e-04   2.995133025584e-04 
5 1 -2.808611942712e-05   4.571826775109e-05  -3.035139468129e-04 
6 1 -2.321764121637e-04  -1.158102304283e-04  -1.886821113628e-04 
7 1  3.790806231452e-05  -1.017947497248e-04   1.018188894739e-04 
8 1  5.761660481741e-06  -1.393739622966e-04  -8.826478207798e-05 
8
Step 800
1 1 -1.952272326139e-04  -4.063742040256e-05  -4.655915114834e-06 
2 1 -3.611943283668e-04   3.292226214225e-04   2.680991428784e-04 
3 1  2.058561453504e-04  -2.076354901965e-04  -9.414219054178e-05 
4 1 -4.585587789109e-05   2.161183438949e-05   3.427199781774e-04 
5 1  1.143475908556e-04  -1.500798558582e-04  -3.330483140584e-06 
6 1 -2.982507651005e-04   1.840340990833e-04  -1.118840212471e-04 
7 1  1.595393480402e-04  -3.068706314066e-04   1.634643953527e-04 
8 1 -5.469355367042e-05  -1.447078621189e-04   2.901294403795e-04 
8
Step 900
1 1 -4.995687058382e-06   1.470287414041e-04  -9.815707366314e-05 
2 1 -4.965926965879e-05   2.044132232810e-05   2.087716456549e-04 
3 1  8.221646590426e-05  -1.861616573650e-04   1.197233877299e-04 
4 1  7.944645656669e-05   1.334838259956e-04  -4.537979987071e-05 
5 1  1.310471550747e-04  -2.321445009207e-04   3.384500469664e-04 
6 1 -7.422622194720e-05   3.479328889537e-04   1.382728533219e-04 
7 1  9.130886034248e-05  -2.157608161207e-04   2.260689267512e-05 
8 1 -1.065502194400e-04   1.897331528559e-05   2.659026087742e-04 
8
Step 1000
1 1  2.388631495631e-04   1.923417983393e-04  -9.022021742043e-05 
2 1  2.535467971269e-04  -2.298224276303e-04  -1.207436839301e-04 
3 1 -1.400073164257e-04   1.030208545345e-04   1.278199991314e-04 
4 1  1.247451606394e-04   2.276662296466e-05  -2.796880711581e-04 
5 1 -6.816623901961e-05  -6.781391447216e-05   2.529967634632e-04 
6 1  1.104598498722e-04   2.291593766574e-04   1.780392712124e-04 
7 1 -9.392399681115e-05   8.030221554530e-05  -1.157909720961e-04 
8 1 -7.923123422626e-05   1.699028173247e-04  -4.787084325676e-05 
8
Step 1100
1 1  2.284697040833e-04   3.139478964166e-05   1.979544618337e-05 
2 1  1.822803249710e-04  -1.531504354881e-04  -2.450025629543e-04 
3 1 -2.088968432984e-04   3.626998114344e-04  -4.704487007355e-05 
4 1  3.167790298150e-05  -1.798533917011e-04  -3.043202909523e-05 
5 1 -2.680860063019e-04   1.885289525993e-04  -1.562845521967e-04 
6 1  9.071301220728e-05  -6.193246841255e-05  -7.612529805127e-05 
7 1 -1.845319129043e-04   2.457100297045e-04  -6.313473509371e-05 
8 1  3.502551505060e-05   9.649259596688e-05  -2.142777669173e-04 
8
Step 1200
1 1 -1.492954470626e-05  -1.781138744578e-04   1.352870372568e-04 
2 1 -9.155801937570e-05   5.454508453436e-05  -2.236640791095e-05 
3 1 -6.928666057246e-05   2.627004313212e-04  -1.673285587053e-04 
4 1 -8.035265735431e-05  -1.795421934398e-04   3.331172756626e-04 
5 1 -2.008846065911e-04   2.511007844545e-04  -3.577688781507e-04 
6 1  9.743849913733e-06  -2.572827149133e-04  -2.548073723595e-04 
7 1 -7.065656682008e-05   1.052379867237e-04   1.038277166877e-04 
8 1  1.373303395589e-04  -1.333184470862e-04  -6.172804096441e-05 
8
Step 1300
1 1 -2.050585655524e-04  -2.119816240841e-04   1.531620200515e-04 
2 1 -1.584993272597e-04   8.584204959018e-05   1.971193652145e-04 
3 1  9.150900543661e-05  -1.261166995292e-04  -1.096914812899e-04 
4 1 -7.911466282436e-05   8.529709373845e-05   2.768443270957e-04 
5 1  9.798162672488e-05   5.053196469073e-05  -1.047479910993e-04 
6 1  3.013577861064e-05  -1.850763141494e-04  -5.736998599637e-05 
7 1  1.277209913530e-04  -1.435022495329e-04   1.454785256765e-04 
8 1  1.141765878424e-04  -2.209883786882e-04   1.400942283554e-04 
8
Step 1400
1 1 -1.668542805600e-04  -2.141439473939e-05   5.638255263479e-05 
2 1  4.145421017026e-05  -3.827619948345e-05   8.659722927971e-05 
3 1  9.391757206398e-05  -3.653511461623e-04   2.302550603068e-05 
4 1  1.023665004672e-05   3.218675354922e-04  -1.466203477632e-04 
5 1  2.987346806202e-04  -1.743032191332e-04   2.487845351105e-04 
6 1  8.401567827129e-05   6.202548325730e-05   2.845017238977e-04 
7 1  1.885050072644e-04  -1.859075697738e-04  -1.514090586730e-05 
8 1 -2.443464216083e-05  -3.075170540779e-05   9.520367547127e-05 
8
Step 1500
1 1 -1.567314357604e-05   1.998974376231e-04  -7.476547257876e-05 
2 1  1.762812641726e-04  -5.888516792677e-05  -2.044646139369e-04 
3 1 -1.514176905860e-05  -1.778629493306e-04   9.390131782493e-05 
4 1  5.778189351651e-05   2.276855551107e-04  -3.895229056796e-04 
5 1  1.778705216330e-04  -1.768100445847e-04   2.399396942558e-04 
6 1  1.774431779103e-05   2.067755825144e-04   2.977159504209e-04 
7 1  3.858618006511e-05   1.915052399222e-05  -1.778028692902e-04 
8 1 -1.343216618816e-04   2.080686851035e-04  -1.205869615910e-04 
8
Step 1600
1 1  5.848354585706e-05   2.164853671239e-04  -1.447418950102e-04 
2 1  3.041568981414e-05   8.829836926140e-05  -2.593263702606e-04 
3 1 -5.070595553888e-05   1.921387932201e-04   1.014568971612e-04 
4 1  1.347451473911e-05  -1.333097482639e-04  -1.750902299856e-04 
5 1 -1.015428322024e-04  -4.736785767795e-06  -8.933374051267e-05 
6 1 -1.330457657268e-04   7.850873865555e-05  -7.392346706701e-05 
7 1 -1.598081537867e-04   2.089749504656e-04  -1.237864859339e-04 
8 1 -9.601285008924e-05   1.951942926387e-04  -1.942494179361e-04 
8
Step 1700
1 1  4.192083515132e-05   2.867490760400e-06  -1.205546187375e-04 
2 1 -1.869473134209e-04   1.631007566262e-04   4.019557884512e-05 
3 1  4.252312423509e-05   2.789021400242e-04   9.940094850640e-05 
4 1 -4.611098932638e-05  -3.829171088131e-04   1.556596489091e-04 
5 1 -1.997520522685e-04   9.542936520007e-05  -2.809941942645e-04 
6 1 -1.657195807846e-04  -1.853260784724e-04  -3.624029946204e-04 
7 1 -1.868150094793e-04   1.626071753553e-04   9.278208150728e-05 
8 1  4.592492690051e-05  -4.208431768701e-05  -1.340474760669e-05 
8
Step 1800
1 1  3.958754577305e-05  -2.235028686061e-04  -4.870827767856e-05 
2 1 -1.567696009941e-04  -4.829037248020e-06   3.538615650581e-04 
3 1  1.165041900780e-04  -1.432774276189e-05   6.539376226519e-05 
4 1 -4.855698173307e-05  -2.566848435097e-04   1.561236964239e-04 
5 1 -3.016478348593e-05   2.228780709329e-05  -9.216550710108e-05 
6 1 -1.106033714395e-05  -2.753375579420e-04  -1.928192726712e-04 
7 1 -1.134544484922e-05  -3.909555178426e-05   2.044452662502e-04 
8 1  1.304422558395e-04  -1.899975335832e-04   1.956217867526e-04 
8
Step 1900
1 1  6.146651204529e-05  -2.288112182754e-04   4.902025221871e-06 
2 1  8.874241677227e-05  -2.248521230747e-04   3.158104302279e-04 
3 1  3.705269960727e-05  -2.928405254494e-04  -5.119262328083e-05 
4 1 -2.089299745096e-05   1.030684671179e-04  -1.039336479183e-04 
5 1  1.428673086543e-04  -6.182711872301e-05   2.034987305110e-04 
6 1  1.424131724182e-04  -6.501017262314e-05   2.102574309733e-04 
7 1  1.763767825526e-04  -1.558385942896e-04   6.741688704714e-05 
8 1  6.244611004089e-05  -7.641582314684e-05   1.808089242219e-04 
8
Step 2000
1 1  8.530202854702e-06  -7.415047413353e-06   2.374298036810e-05 
2 1  2.135144634249e-04  -1.834742559086e-04  -2.185646474412e-05 
3 1 -1.095400829846e-04  -1.859313707359e-04  -1.794780538827e-04 
4 1 -1.368892630385e-05   3.193210909201e-04  -1.807046256413e-04 
5 1  6.392159591164e-05   8.055902248817e-06   2.188891865362e-04 
6 1  9.977131160666e-05   2.177976365087e-04   3.191547645497e-04 
7 1  1.776391494612e-04  -9.932304043529e-05  -1.515281451779e-04 
8 1 -8.096070001193e-05   1.058998748813e-04  -1.505151664984e-05 
8
Step 2100
1 1 -1.213435267076e-04   2.157634394658e-04   4.698915212955e-05 
2 1  5.450051737278e-05   1.018704647973e-04  -2.812856846759e-04 
3 1 -1.197517703345e-04   1.660523349190e-04  -1.601241666821e-04 
4 1 -1.488346152003e-06   2.021246844976e-04   7.355392503774e-05 
5 1 -1.674911581143e-04   1.433238184894e-04  -2.197475819111e-05 
6 1 -5.966243393880e-05   2.467870666804e-04   8.581942768365e-06 
7 1  3.487554715912e-06   3.286769490196e-06  -1.842761303986e-04 
8 1 -1.450600051471e-04   9.427564557312e-05  -1.388658186005e-04 
8
Step 2200
1 1 -1.604798657167e-04   2.246287835360e-04   1.059998659260e-04 
2 1 -1.590806356565e-04   2.751572560329e-04  -2.308503435980e-04 
3 1  3.950484914326e-05   3.033443372503e-04   3.313252651031e-05 
4 1  6.542426561589e-05  -6.791900033994e-05   2.979344540632e-04 
5 1 -2.243810880497e-04   1.239187155719e-04  -1.636760488949e-04 
6 1 -8.704533283651e-05   4.473505353418e-07  -2.930899133684e-04 
7 1 -1.516680064138e-04   3.187287914030e-05   1.687578942596e-06 
8 1 -6.918547635438e-05  -6.056543089501e-05  -6.840978283880e-05 
8
Step 2300
1 1  9.691785647350e-06   2.435514142228e-05   1.572988977976e-04 
2 1 -1.396436933111e-04   1.137697556083e-04  -1.220869481254e-05 
3 1  1.592642013167e-04   5.473702016814e-05   2.006412333916e-04 
4 1  1.358464551636e-04  -1.805899577244e-04   1.562664474144e-04 
5 1  1.579612007320e-05  -7.359344689830e-05  -4.488233312795e-05 
6 1  7.595157454606e-05  -1.968015015319e-04  -1.962133761610e-04 
7 1 -1.340383486361e-04   2.528697023632e-05   1.684244189657e-04 
8 1  6.533378866595e-05  -8.036979939999e-05   5.689584925575e-05 
8
Step 2400
1 1  2.419341640399e-04  -1.819779232042e-04   1.089528628222e-04 
2 1  6.261327941217e-05  -1.689866627900e-04   1.064335011564e-04 
3 1  5.533277516689e-05  -2.469287023749e-04   1.325890292753e-04 
4 1  8.670865827496e-05  -4.604648370424e-05  -1.653164332496e-04 
5 1  2.944715102608e-04  -2.144780869665e-04   9.886341393840e-05 
6 1  1.934814161138e-04  -6.910192770770e-05   1.340748930282e-04 
7 1  1.370769275364e-05   5.383825021286e-05   1.086791152120e-04 
8 1  1.385805102162e-04   1.058937232832e-04   5.604283951889e-05 
8
Step 2500
1 1  2.530021715254e-04  -2.009401442916e-04  -5.991982567223e-05 
2 1  1.441092976360e-04  -2.038954205204e-04   6.364299897781e-05 
3 1 -1.632581864414e-04  -2.065199393131e-04  -1.084405729160e-04 
4 1 -9.048128947590e-05   1.297454449078e-04  -2.155320279335e-04 
5 1  2.792588145795e-04  -1.168535258814e-04   1.896393271235e-05 
6 1  4.923969979903e-05   2.401787002834e-04   2.231139151843e-04 
7 1  1.172224331706e-04   5.690901148629e-05  -9.279423244210e-05 
8 1  1.080587414461e-04   2.098208831728e-04  -5.244829986112e-05 
8
Step 2600
1 1 -1.176822898202e-05  -3.293340778406e-05  -2.239564449528e-04 
2 1 -6.546592219702e-06   3.032239458250e-05   1.343751979672e-06 
3 1 -2.086004112543e-04   1.165344967001e-04  -2.274480655099e-04 
4 1 -2.047455524993e-04   1.092473421175e-04   5.784508370704e-05 
5 1 -2.563973687133e-05   9.481826676582e-05  -1.502586768916e-04 
6 1 -2.259482759263e-04   3.034331471280e-04  -3.499732209570e-05 
7 1  7.267595419684e-05  -5.912351440634e-05  -1.689036471823e-04 
8 1  2.099457034838e-05  -2.151378108823e-05  -1.049017854438e-04 
8
Step 2700
1 1 -2.678457812096e-04   1.530632344080e-04  -2.161603772197e-04 
2 1 -1.453095459245e-04   1.783428616152e-04  -9.600537369059e-07 
3 1  2.418935324698e-06   2.970088209291e-04  -5.912561445006e-05 
4 1 -7.321911650735e-05  -9.854381128370e-05   2.210311350965e-04 
5 1 -2.856431411980e-04   1.576357241676e-04  -9.534783453816e-05 
6 1 -2.794219833359e-04  -4.496642714468e-05  -2.250523511946e-04 
7 1 -4.813091749877e-05  -1.933835319491e-04  -1.858196144991e-05 
8 1 -5.981099698105e-05  -3.727902844059e-04  -3.831398529210e-05 
8
Step 2800
1 1 -2.304740556529e-04   1.996566781014e-04  -3.011296858968e-05 
2 1 -4.474660538394e-05   1.326292015584e-05  -5.460711553333e-06 
3 1  2.156019725454e-04   1.036098867040e-04   1.996262473090e-04 
4 1  1.827062411526e-04  -2.586595771862e-04   4.230823589383e-06 
5 1 -2.363957411680e-04   2.489882057992e-05   1.634492334951e-04 
6 1 -8.694885191399e-06  -4.414298639576e-04  -1.916383327384e-05 
7 1 -1.012516250089e-04  -1.121581869051e-04   1.655149482890e-04 
8 1 -1.083562818787e-04  -3.583285641636e-04   4.426214707818e-05 
8
Step 2900
1 1  2.666114050591e-05   8.774668113521e-05   1.444926863400e-04 
2 1  1.539478444716e-04  -2.237439538076e-04  -4.418862601130e-05 
3 1  1.643618976759e-04  -2.115190225049e-04   2.228443491486e-04 
4 1  2.191731099740e-04  -1.721313964583e-04  -2.703713153463e-04 
5 1  1.749411651795e-05  -8.500112449652e-05   2.431332450259e-04 
6 1  2.612756672708e-04  -4.104730683619e-04   3.169162944478e-04 
7 1 -3.694270372135e-05   1.915390392450e-04   1.508371357524e-04 
8 1 -1.132598364507e-04   1.102099691907e-04   5.366330476041e-05 
8
Step 3000
1 1  1.784340943609e-04  -8.695808821493e-05   1.332716904936e-04 
2 1  1.466688341586e-04  -1.551734277179e-04  -3.415944286112e-05 
3 1 -7.093344033307e-05  -2.679879341246e-04  -1.908768919116e-05 
4 1 -7.724839917744e-05   1.081775057014e-04  -1.635837230595e-04 
5 1  1.640856146756e-04  -1.890554535524e-05  -3.905902359854e-05 
6 1  1.884140124806e-04   2.808104249192e-05   2.745042262966e-04 
7 1  6.397298738237e-05   3.702598896423e-04  -3.827219668287e-05 
8 1 -5.455809324857e-05   5.073311877349e-04   4.014204606022e-05 
8
Step 3100
1 1  7.294729678863e-05  -2.068643688676e-04  -6.510622832241e-06 
2 1 -6.803657265917e-05   1.763071058509e-04   6.346859647107e-05 
3 1 -1.675426144602e-04  -5.414215628368e-05  -2.072533200441e-04 
4 1 -3.667212552800e-04   3.227357175750e-04   1.813298619759e-04 
5 1  7.652677375081e-05   8.694298419857e-05  -3.263681671232e-04 
6 1 -1.139558289374e-04   3.585372531036e-04  -1.534543722608e-04 
7 1  9.747699851286e-05   1.371989556112e-04  -1.612390804456e-04 
8 1  5.335549950863e-05   3.357940499713e-04   7.931529032504e-05 
8
Step 3200
1 1 -1.044950835841e-04  -1.993517047907e-04  -6.102152869185e-05 
2 1 -1.768926729150e-04   3.375067551254e-04   1.254438513406e-04 
3 1 -7.980223536404e-06   1.180456371741e-04  -9.777867397127e-05 
4 1 -2.558029249646e-04   2.678365167713e-04   2.168826772626e-04 
5 1 -6.294633701553e-05   3.136574919397e-05  -1.865462605922e-04 
6 1 -2.190718043214e-04   2.296256822010e-04  -4.213939430973e-04 
7 1  4.480792601133e-05  -2.868633550880e-04  -7.862783528724e-05 
8 1  1.288624610537e-04  -1.888362965659e-04   1.169505925948e-04 
8
Step 3300
1 1 -1.263122956997e-04  -5.786525812600e-05   4.529415107386e-05 
2 1 -2.597164298914e-05   1.033316701915e-04   3.273183057396e-05 
3 1  1.609209218715e-04   8.794827322027e-05   1.472743640202e-04 
4 1  1.697518926346e-04  -8.012902840553e-06  -1.585618912841e-04 
5 1 -4.251788131047e-05  -1.194088042140e-04   2.439023894273e-04 
6 1  2.273475321296e-05  -1.085225680223e-04  -1.828248057523e-04 
7 1 -3.548523719630e-05  -3.892012815031e-04   8.243481204486e-05 
8 1  9.174234232458e-05  -4.054727662832e-04   3.892451715293e-05 
8
Step 3400
1 1 -1.364612884024e-05   1.394627309436e-04   1.410219203105e-04 
2 1  1.482208647170e-04  -2.300943775119e-04  -1.186016318688e-04 
3 1  9.134007807866e-05   1.848385159522e-05   1.831707338303e-04 
4 1  4.194411479047e-04  -2.552835155546e-04  -3.871015003188e-04 
5 1  1.002982733848e-04  -1.187239331345e-04   4.002665174721e-04 
6 1  2.766209973199e-04  -1.786857835417e-04   2.314864587921e-04 
7 1 -7.549179365774e-05  -3.225241039319e-05   1.146638147839e-04 
8 1 -3.545447017022e-05  -7.733959353500e-05  -1.295238030837e-04 
8
Step 3500
1 1  6.995759759601e-05   2.503352968069e-04   4.780970826889e-05 
2 1  7.910045335868e-05  -2.533209978838e-04  -1.160575822327e-04 
3 1 -1.091214971349e-04   6.399893326040e-05  -5.546719767958e-05 
4 1  2.179803818361e-04  -2.665330788917e-04  -6.056292187326e-05 
5 1  1.536348263234e-04   7.004244383393e-05   6.015264976009e-05 
6 1  1.846698917845e-04   7.797647898360e-05   2.847358147540e-04 
7 1 -5.298666780571e-05   3.341803600724e-04  -4.165152195983e-06 
8 1 -1.253834512356e-04   3.230383151879e-04  -2.116979173505e-04 
8
Step 3600
1 1  8.196761403479e-05   1.693434254161e-04  -1.598528850035e-04 
2 1 -1.319502865656e-04   1.548974665399e-05   6.659201740916e-05 
3 1 -1.474818815928e-04   1.096150653780e-04  -2.749605394208e-04 
4 1 -1.582820946642e-04  -5.991124503965e-05   4.437154941129e-04 
5 1  1.744227865256e-05   1.867414750726e-04  -3.516321805891e-04 
6 1 -1.550298339190e-04   2.642734859988e-04  -4.155938222234e-05 
7 1  4.792637687803e-06   2.484497486414e-04  -1.150197334168e-04 
8 1 -7.622628854141e-05   2.763998636289e-04  -1.033542570495e-04 
8
Step 3700
1 1  1.025105984510e-04  -5.644326908008e-05  -2.301619422060e-04 
2 1 -1.702330758857e-04   1.978947163722e-04   2.024019356943e-04 
3 1  2.884144253493e-05  -1.760034495868e-05  -2.002977730088e-04 
4 1 -2.577100064813e-04   1.574236503727e-04   4.504822709463e-04 
5 1 -1.798477473435e-04   4.291237674870e-05  -3.317988357447e-04 
6 1 -3.282154204884e-04   9.524135400293e-05  -2.702816246632e-04 
7 1  4.664778556223e-05  -1.668035778144e-04  -9.080924833029e-05 
8 1  7.135323376002e-05  -1.227320840198e-04   8.750562563596e-05 
8
Step 3800
1 1  1.315299885114e-04  -2.349014585864e-04  -5.260538922340e-05 
2 1  3.231548644674e-05   7.608392322276e-05   9.396953361281e-05 
3 1  1.542894226735e-04  -2.193777882365e-04   9.630341608530e-05 
4 1 -1.744160255736e-05   1.950070069447e-04  -7.308654113030e-05 
5 1 -2.362808680099e-04  -1.843544844270e-04   5.505469762334e-05 
6 1 -1.344579981831e-04  -2.234599574286e-04  -1.009851454015e-04 
7 1  3.520096514936e-05  -3.693846810176e-04   2.610820507012e-05 
8 1  1.677740775318e-04  -3.553363466939e-04   1.668944820045e-04 
8
Step 3900
1 1  5.075525474311e-05  -1.924945137711e-04   1.898210392001e-04 
2 1  1.948663146773e-04  -1.458175842509e-04  -1.610446097095e-04 
3 1  2.578500883928e-05  -2.097593785783e-04   2.950828429757e-04 
4 1  1.940772520581e-04   5.573787591281e-05  -4.439907183599e-04 
5 1 -8.613287277920e-05  -1.728099455292e-04   3.022957467278e-04 
6 1  1.862592567671e-04  -2.785044045240e-04   2.089624021915e-04 
7 1 -1.528992029545e-05  -9.954783536038e-05   1.026648526144e-04 
8 1  1.025742927642e-04  -1.728178548543e-04   7.877017036969e-05 
8
Step 4000
1 1 -1.572280380317e-04   4.236179138640e-05   2.337829959512e-04 
2 1  8.678029981390e-05  -1.533658765658e-04  -2.781070809184e-04 
3 1 -1.917207684132e-04   6.993155135054e-05   2.013887406532e-04 
4 1  7.963645076308e-05  -8.866762166201e-05  -1.844346719376e-04 
5 1  1.480785725426e-04   9.195606012700e-05   1.429628409924e-04 
6 1  2.722546513023e-04   4.623922123411e-06   2.318900078491e-04 
7 1 -4.839554821839e-05   2.917311073559e-04   7.211420677265e-05 
8 1 -7.891256314038e-05   1.311101313753e-04  -5.239837953480e-05 
8
Step 4100
1 1 -2.880590138281e-04   2.408611024978e-04   5.362923033949e-05 
2 1 -1.397917414350e-04   5.525721876425e-05  -1.294653421137e-04 
3 1 -1.752599414144e-04   3.076118038243e-04  -6.057457054494e-05 
4 1 -2.073563609468e-04  -9.017395312901e-05   3.164197568773e-04 
5 1  2.774545941085e-04   2.634616771963e-04  -1.374284860096e-04 
6 1  6.824524485888e-05   2.692438998639e-04  -4.710195347941e-05 
7 1 -2.260293871264e-05   3.087121673153e-04  -1.503730904589e-05 
8 1 -2.121190571973e-04   1.771803668543e-04  -9.134734833535e-05 
8
Step 4200
1 1 -1.423096371078e-04   1.910379711178e-04  -1.180461188390e-04 
2 1 -1.561643921885e-04   1.927833871130e-04   1.154441587001e-04 
3 1  9.896648148513e-05   2.006970148174e-04  -2.184913176625e-04 
4 1 -2.754614785246e-04   1.844780241260e-05   3.231136323649e-04 
5 1  1.998656456141e-04   9.151622864619e-05  -1.395523134103e-04 
6 1 -1.586695085738e-04   1.898218876673e-04  -2.354948418954e-04 
7 1  4.140366225412e-05  -4.601986367815e-05  -6.609242435277e-05 
8 1 -1.643272711272e-04   3.530699206060e-06  -3.585786575205e-05 
8
Step 4300
1 1  1.627208352719e-04  -7.306369332307e-05  -9.367646341049e-05 
2 1  7.581325911116e-05   8.562110952942e-05   2.078894661145e-04 
3 1  2.828300429301e-04  -1.254797469429e-04  -1.457883698283e-04 
4 1 -8.981955253095e-06   7.577001476146e-05  -2.174941789539e-04 
5 1 -2.554572104924e-05  -2.108399226501e-04   9.330792363731e-05 
6 1 -1.733935472797e-04  -1.187595075432e-04  -8.870552074378e-05 
7 1  7.997735465265e-05  -2.889094468655e-04  -4.058638244217e-05 
8 1  3.660956084456e-05  -6.697067619812e-05   2.645804338973e-05 
8
Step 4400
1 1  2.733535882682e-04  -2.824123271825e-04   2.738915855089e-05 
2 1  2.349850822750e-04  -1.032686985776e-04   1.090245307758e-04 
3 1  1.169945778341e-04  -2.595915957145e-04   3.917491116667e-05 
4 1  2.852864661876e-04  -8.697680246665e-06  -5.726393666895e-04 
5 1 -2.238514258591e-04  -2.312255256900e-04   1.706449944800e-04 
6 1 -2.436086331522e-05  -2.692698339888e-04   1.645777217239e-04 
7 1  5.590787656708e-05  -1.056312360576e-04   2.426345971003e-05 
8 1  2.162018351899e-04   6.660124108030e-05   4.435318111448e-05 
8
Step 4500
1 1  5.142130510785e-05  -2.101706029819e-04   9.274081954117e-06 
2 1  8.519217906630e-05  -1.202941764061e-04  -1.065949337385e-05 
3 1 -1.897285861006e-04  -6.066981465138e-05   1.386695170373e-04 
4 1  2.736236053367e-04  -1.345164293190e-04  -2.280193846076e-04 
5 1 -2.502609987146e-04   6.358379511706e-05  -5.483901000861e-05 
6 1  8.361119227048e-05  -1.119993903494e-04   1.666572502076e-04 
7 1 -9.048889358046e-06   2.282031659374e-04   5.888512119171e-05 
8 1  2.119108045749e-04   1.492671143827e-04   3.757023496693e-05 
8
Step 4600
1 1 -2.210107274797e-04   8.341271835415e-05  -1.646637577948e-04 
2 1 -1.893585175347e-04   3.447362613839e-05  -2.461468608595e-05 
3 1 -2.229517262567e-04   1.598343542145e-04   7.907227677040e-05 
4 1 -8.291538959853e-06  -1.260519559411e-04   3.931517105438e-04 
5 1 -9.871936240588e-05   2.588672451707e-04  -2.625493118856e-04 
6 1  6.423938974439e-05   1.105730433437e-04  -6.645079109066e-05 
7 1 -6.946312180089e-05   2.349828633991e-04   2.479692077592e-05 
8 1  1.893528607103e-05  -4.701379707937e-06   2.620135352443e-05 
8
Step 4700
1 1 -1.882769264741e-04   2.987108705968e-04  -2.401106821059e-04 
2 1 -2.300029405878e-04   1.292608032149e-04   1.703235043874e-05 
3 1  6.973720940123e-05   8.033485448887e-05  -4.971453368680e-05 
4 1 -2.283042718090e-04   4.428251879537e-05   5.012582555839e-04 
5 1  9.271526422272e-05   5.874054925591e-05  -1.281362851140e-04 
6 1  1.895159247330e-06   1.266566220598e-04  -1.939130272809e-04 
7 1 -1.000944191204e-04  -1.159371187456e-04  -5.016937416473e-05 
8 1 -1.929667140740e-04  -1.959305471011e-04  -2.857610804304e-06 
8
Step 4800
1 1  1.058962328534e-04   2.159248975667e-04  -3.045483725786e-05 
2 1  2.869599273160e-06   2.688761183417e-05   6.262968795146e-06 
3 1  2.847954141436e-04  -1.723933649033e-04  -1.083158294615e-04 
4 1 -1.763597162052e-04   2.035154117395e-04   2.558474850874e-05 
5 1  1.712892933170e-04  -2.756447984169e-04   1.969529743341e-04 
6 1 -1.188638994688e-05  -3.369641897087e-06  -5.214626371211e-05 
7 1 -9.272112663647e-05  -3.675551294293e-04  -8.834163060879e-05 
8 1 -2.322405936751e-04  -1.279258121191e-04  -4.973569649819e-05 
8
Step 4900
1 1  2.757706823819e-04  -7.508554275951e-05   2.972561517645e-04 
2 1  1.902121104968e-04  -1.417146917160e-04  -5.535390816994e-05 
3 1  1.065617866222e-04  -2.059027529277e-04  -4.480430935265e-05 
4 1  2.701414659897e-05   1.722274417260e-04  -3.398639009330e-04 
5 1  1.028611997939e-04  -2.632761987498e-04   2.873714117726e-04 
6 1  7.207551271530e-06  -3.064759436723e-05   1.311674032325e-04 
7 1 -2.994487516890e-05  -1.884656328545e-04  -3.277121042510e-05 
8 1 -6.311888252394e-05   1.351975357047e-04  -6.959083868771e-05 
8
Step 5000
1 1  1.072390925791e-04  -2.741926394799e-04   3.894081169644e-04 
2 1  9.877150734030e-05  -1.678640398686e-04  -8.131937086760e-05 
3 1 -2.561266721648e-04   7.819550212196e-05   6.555762043274e-05 
4 1  1.367488784516e-04  -2.138724782400e-05  -1.297983998391e-04 
5 1 -1.760710870196e-05   1.328255800776e-04   2.767750430358e-05 
6 1  5.383669493537e-06   9.351360594363e-05   9.072311162610e-05 
7 1  8.331724902360e-05   1.981124356573e-04   7.660706473771e-05 
8 1  1.547459957458e-04   2.309941139745e-04  -2.677634653746e-05 
8
Step 5100
1 1 -1.666127692614e-04  -1.874873603684e-04   1.338791632894e-04 
2 1 -1.160238998832e-04  -2.874736932081e-05  -4.345603603600e-05 
3 1 -3.339132787893e-04   3.329594990958e-04   1.016313623266e-04 
4 1  7.663675881179e-05  -1.731700059714e-04   2.774746656188e-04 
5 1 -6.936034393355e-05   4.248833034024e-04  -2.393485591383e-04 
6 1 -1.292739796483e-05   1.561215547613e-04  -9.413856765280e-05 
7 1  1.742956078980e-04   3.255859118610e-04   1.201298522908e-04 
8 1  2.156505600325e-04   7.168719254781e-06   4.165231708558e-05 
8
Step 5200
1 1 -1.953531263985e-04   7.876004990025e-05  -2.022164578679e-04 
2 1 -1.533122950237e-04   1.199172431375e-04   3.512894202778e-06 
3 1 -1.500323911841e-05   2.266159725749e-04   2.348753909889e-05 
4 1 -2.731288897921e-05  -1.441006310127e-04   2.535792540957e-04 
5 1 -2.256467033921e-05   2.310339480162e-04  -1.908348997547e-04 
6 1 -8.525467471838e-06   1.163254081986e-05  -1.321472373192e-04 
7 1  1.408182591640e-04   8.906671351445e-05   2.815330749756e-05 
8 1  7.523836997520e-05  -2.506885197245e-04   6.350749303393e-05 
8
Step 5300
1 1  2.176331715625e-05   2.468174477949e-04  -2.869549721169e-04 
2 1  1.691188930701e-05   1.568174744306e-04   2.179706017967e-05 
3 1  3.070188282876e-04  -1.188776416211e-04  -8.310712238907e-05 
4 1 -4.698982339740e-05  -5.354104483971e-06  -1.653029509493e-04 
5 1  5.277228770635e-05  -2.216062708087e-04   5.771553561074e-05 
6 1  1.590787630588e-05  -1.825387568828e-04   4.822335123120e-05 
7 1 -2.687936421683e-05  -1.611764491468e-04  -1.142578932614e-04 
8 1 -1.069164761538e-04  -2.042126162618e-04   2.277305617007e-05 
8
Step 5400
1 1  1.603795895700e-04   1.599358949023e-04  -9.893070638790e-05 
2 1  1.472663478170e-04   1.063887928505e-04   3.489003553183e-05 
3 1  2.413458063650e-04  -2.908342988986e-04  -9.968308510308e-05 
4 1  8.328584922537e-06   7.826697188157e-05  -3.534291942484e-04 
5 1  6.969582235574e-05  -3.841588437234e-04   1.525685411050e-04 
6 1  1.826116243039e-05  -1.713932842688e-04   1.944829352662e-04 