8
Step 0
1 1  0.000000000000e+00   0.000000000000e+00   0.000000000000e+00 
2 1  0.000000000000e+00   0.000000000000e+00   0.000000000000e+00 
3 1  0.000000000000e+00   0.000000000000e+00   0.000000000000e+00 
4 1  0.000000000000e+00   0.000000000000e+00   0.000000000000e+00 
5 1  0.000000000000e+00   0.000000000000e+00   0.000000000000e+00 
6 1  0.000000000000e+00   0.000000000000e+00   0.000000000000e+00 
7 1  0.000000000000e+00   0.000000000000e+00   0.000000000000e+00 
8 1  0.000000000000e+00   0.000000000000e+00   0.000000000000e+00 
8
Step 1000
1 1  3.479943667707e-04  -3.224287052023e-04  -2.572026678531e-06 
2 1 -3.016885427178e-05  -2.720380108753e-04   3.174992277643e-04 
3 1  2.902398263775e-04  -2.833929718866e-04  -1.308711038980e-04 
4 1 -9.921609888834e-05  -3.295106821962e-04  -2.864868932530e-04 
5 1  2.596943018064e-04  -1.269984131720e-04   1.699641371397e-04 
6 1  1.797443725938e-04  -1.772251567293e-04   9.921922286525e-05 
7 1  2.229665851554e-04  -2.025123269102e-04   1.914282746955e-04 
8 1 -1.104704045083e-04   1.079461425604e-04   1.291387084338e-04 
8
Step 2000
1 1  1.965997254916e-04   3.277895330437e-05  -1.213170512654e-05 
2 1  2.663207436200e-07  -1.411088629232e-05  -3.635440838851e-05 
3 1  3.327570051714e-04  -3.557557608559e-04   8.523571372152e-05 
4 1  1.671447172451e-04  -2.675248037414e-04  -2.813325890553e-04 
5 1  4.696942976334e-05  -3.781602460115e-04   4.910969346095e-05 
6 1  9.641016902925e-05  -4.395125963531e-05   1.205330601041e-05 
7 1  3.270341437122e-05  -6.034980710382e-05   1.739750463052e-05 
8 1 -4.709961858988e-05   2.990605570948e-04   1.061347656656e-04 
8
Step 3000
1 1 -1.585378786903e-05   6.375959206981e-05   4.951347190303e-05 
2 1  1.480803483025e-04   1.217223008182e-04  -2.182483994465e-04 
3 1  3.024507128977e-04  -2.096411455691e-04  -8.220156070146e-07 
4 1  2.093505254511e-04  -9.796308443183e-05  -2.568515557273e-04 
5 1 -3.124843655943e-04  -2.569891310829e-04   2.901170909189e-04 
6 1  1.017310988660e-04  -2.329276026623e-04   9.474960020471e-05 
7 1  5.502484368315e-05  -4.952346023114e-05   8.495005318206e-05 
8 1 -1.993214982468e-04   4.900387841860e-05  -4.942664698746e-05 
8
Step 4000
1 1  6.373958415221e-05  -8.895138379889e-05   5.838496837996e-05 
2 1  1.035487781127e-04  -3.418856902988e-06  -1.583488652470e-04 
3 1  2.121731749222e-04  -1.499481547062e-04  -1.437106971697e-05 
4 1  1.513891289361e-04   1.123313470581e-05  -3.340755404841e-04 
5 1 -7.455026101130e-05  -1.649765137656e-04   2.642561942784e-04 
6 1 -3.659390135068e-06  -1.916793993930e-04  -2.578435850378e-05 
7 1  1.544042921276e-04  -2.610173598935e-04  -7.416140606997e-06 
8 1 -4.837920701939e-05  -7.510107044247e-05  -2.394614033885e-04 
8
Step 5000
1 1  2.493943548599e-04  -3.259375919612e-04   1.180624307235e-04 
2 1  1.733484885957e-04   3.883934832949e-05  -1.212162807880e-04 
3 1 -2.011051183536e-05  -1.216198868687e-04  -1.517674850332e-04 
4 1  3.278376221652e-05   1.555456760498e-04  -2.035500805758e-04 
5 1 -2.759279825545e-04  -1.879737676812e-04  -1.518313517348e-05 
6 1  4.334942585744e-05  -2.143758713616e-04  -6.864274627523e-05 
7 1 -1.438628641418e-05  -7.601609827772e-05   4.180831419775e-06 
8 1  2.495359085563e-04  -1.721493700287e-04   2.036542575427e-05 
8
Step 6000
1 1  3.785184888117e-04  -8.918692189771e-05  -7.887781037433e-05 
2 1  1.049444415994e-04   8.533005153180e-05  -4.940274189881e-05 
3 1  2.630553358860e-04  -8.795064534952e-05  -1.127438025989e-04 
4 1 -8.412504280467e-05  -2.110838389752e-04  -3.247742655858e-04 
5 1 -2.201116655369e-04  -1.866194658142e-04  -8.872301255856e-05 
6 1 -1.837441221317e-04  -2.346544631342e-04  -7.983327302446e-05 
7 1 -1.451115812348e-05   1.888242030672e-04  -4.980002785742e-05 
8 1  9.610626342804e-05   3.291867605729e-05  -1.625643165902e-04 
8
Step 7000
1 1  1.156950272570e-04   2.608454695673e-04   1.130434658727e-04 
2 1  9.238536795604e-05   3.194550641921e-05  -4.092104036834e-04 
3 1  2.668592276945e-04   7.900408146901e-05  -8.343537883994e-05 
4 1 -2.083259632295e-04  -2.015607630448e-05  -1.060666596480e-04 
5 1  8.555977071198e-05  -1.649977981754e-04   1.567499547471e-04 
6 1 -4.632957183866e-05  -2.934103371891e-05  -9.775257710433e-05 
7 1 -9.086496673774e-05  -4.605051837443e-05  -1.083753565108e-04 
8 1 -2.770524139228e-04   2.032134694441e-04  -2.037514918946e-04 
8
Step 8000
1 1  6.520658000703e-05   2.466743953293e-04  -2.960070923308e-04 
2 1  2.888914079991e-05   9.462809400750e-05  -1.190657158431e-04 
3 1  2.188574585937e-04   3.968323087175e-05  -2.395565274889e-04 
4 1 -1.472025949569e-04  -8.493417593368e-05  -2.162441838780e-04 
5 1 -2.316302164986e-04  -1.531388467697e-04   1.279940040887e-04 
6 1 -3.911691199818e-05  -6.756928746508e-05  -9.617399566677e-05 
7 1 -1.324096149824e-04  -1.507739218865e-04  -2.129040742001e-04 
8 1 -6.081297240617e-05  -1.262631538162e-05  -1.025935976396e-04 
8
Step 9000
1 1  1.011702626081e-04  -6.552251353103e-05  -7.396419547657e-06 
2 1 -5.505312285935e-06   9.847222073255e-05  -1.886238874800e-04 
3 1  8.224243271996e-05  -3.092644360167e-05  -5.847701609080e-05 
4 1 -2.145268482609e-04   1.659221015735e-04  -2.871038070508e-04 
5 1 -1.699769481730e-04  -1.094393393516e-04   1.761403783966e-05 
6 1 -1.072318894646e-04   9.247077902475e-05  -2.164136489882e-04 
7 1  2.286607012316e-04  -1.992120304202e-04  -6.507613826007e-05 
8 1 -1.514958068958e-04   2.083385221047e-04  -3.055221686106e-05 
8
Step 10000
1 1  2.190505429610e-04  -3.523682494478e-06  -1.289189099121e-04 
2 1  1.167614911171e-04   1.019847999495e-05  -1.063317347716e-04 
3 1 -3.386505025554e-05  -7.754469348840e-05  -2.483340441245e-04 
4 1 -1.565854616288e-04   1.644123763745e-04  -8.174520682228e-05 
5 1 -3.883738650985e-04  -9.431988690910e-05   2.027403321282e-05 
6 1 -1.326644212930e-04   1.937058929252e-04  -2.157910472871e-04 
7 1  2.230805777500e-04  -1.829682670976e-04  -9.334266875589e-05 
8 1 -1.591213509554e-04   2.440409237814e-04  -2.373258103377e-04 
8
Step 11000
1 1  8.193904487136e-05   1.611200560520e-04  -3.560255468618e-05 
2 1 -2.966093712162e-05   1.429006238601e-04  -9.779114769209e-05 
3 1 -2.021357966721e-04   6.485623978391e-05  -2.116226128266e-04 
4 1 -1.311232169847e-04   6.624171826341e-05   1.294601853527e-05 
5 1  6.959026884781e-05   5.748737336300e-05   2.683205617381e-05 
6 1 -2.482996172330e-05   2.104261005382e-04  -2.009904117316e-04 
7 1 -1.012632886712e-04   1.285080691963e-04  -1.487314498946e-04 
8 1 -2.292724462587e-04   2.052613810657e-04  -1.811092696968e-04 
8
Step 12000
1 1 -5.738740733253e-05   3.812741028413e-04  -2.758219012382e-04 
2 1 -1.310642325694e-04   2.281798872642e-04  -2.686529105078e-04 
3 1 -1.120040667266e-04   1.686761882553e-06   1.417438550994e-04 
4 1 -1.229861761970e-04   4.480983363864e-07   2.945226014633e-05 
5 1  8.249480589951e-05  -9.630610463632e-07  -7.300700372018e-05 
6 1 -1.395619264503e-04   9.155485917594e-05  -2.498743915376e-04 
7 1 -1.411623392016e-04   1.157395851603e-04  -3.284492281868e-06 
8 1 -1.579584028374e-04   7.978194048119e-05  -2.116552961354e-04 
8
Step 13000
1 1 -1.204965140583e-04   1.415031358078e-04  -1.062138816684e-04 
2 1 -2.140957767847e-04   1.149876373457e-04  -1.822601387885e-04 
3 1 -7.492148063960e-05   1.993282904644e-04   1.214429569641e-05 
4 1 -1.823462817283e-04  -6.904904084538e-05  -1.164955386754e-04 
5 1 -8.721592943620e-05   7.499713979092e-05  -9.663709761518e-05 
6 1  6.164382051724e-05   5.494885238272e-05  -2.454741073582e-05 
7 1  4.301432360193e-05   3.295066302130e-04   4.551397470967e-05 
8 1 -6.299024605531e-05   1.684637917172e-05  -8.744667271435e-05 
8
Step 14000
1 1 -1.233298964483e-04  -1.034355193306e-04   5.228672128380e-05 
2 1  5.491788245963e-05  -1.532868101626e-04  -3.493433385719e-04 
3 1 -1.691854706436e-04   2.469538799883e-04   4.092102362746e-07 
4 1 -3.756651649565e-04   4.149487637961e-05  -9.736804143980e-05 
5 1 -2.311328703604e-04   2.455497137857e-04   6.583089139400e-06 
6 1  1.435034420757e-04   8.502008608175e-06  -5.027757125930e-05 
7 1 -1.059787532646e-05   2.001100932867e-04  -6.247806100330e-06 
8 1  2.220303385550e-05  -6.560045457233e-06  -1.989296154506e-04 
8
Step 15000
1 1 -3.338351071576e-05  -6.137136875143e-05   1.350407996328e-05 
2 1 -1.262522457614e-04   1.235028478399e-04   6.387146007532e-06 
3 1 -3.333848435874e-04   7.452894773827e-05   1.590041429014e-05 
4 1  1.334026467696e-04   1.329915955319e-04   1.672363081170e-04 
5 1 -2.562621354566e-04   4.105768535853e-04  -7.865544685412e-05 
6 1  5.626844506409e-05   3.307241185695e-04  -1.602721824079e-04 
7 1  8.789278221979e-05   2.869408725615e-04  -4.267852673475e-05 
8 1 -2.410936245170e-05   7.824245397515e-05  -2.473931704655e-04 
8
Step 16000
1 1 -1.279927152471e-04   1.189798521081e-04  -1.937727584366e-04 
2 1 -2.050363662780e-04   2.276858425204e-04  -1.609208940831e-04 
3 1 -3.811669741657e-04  -1.591753916577e-05   8.884327316095e-05 
4 1  1.814683566072e-04  -9.519327699004e-05   2.701664416934e-04 
5 1 -1.341467864233e-04   1.003370058270e-04  -3.401716688684e-05 
6 1 -1.390794545749e-04   1.520174670908e-04  -1.449514152012e-04 
7 1  1.420983153876e-04   8.887915432434e-05   9.906692015264e-05 
8 1 -1.721386445575e-04   4.087441684462e-04  -1.618173017650e-04 
8
Step 17000
1 1 -3.037510001559e-04   1.871322191497e-04  -1.064539854665e-04 
2 1 -1.979407050716e-05   1.388821095851e-04  -1.318437755008e-04 
3 1 -2.607285756551e-04  -4.677178717929e-06   8.364118455958e-06 
4 1  1.737264082454e-04  -6.237962283646e-05   2.365022509259e-04 
5 1 -9.201021453883e-05  -3.659637336579e-05  -1.455208834713e-04 
6 1 -8.295412152339e-05   3.412616448129e-04  -1.104972132752e-04 
7 1  8.174092229703e-05   5.988576161069e-05   2.464060210859e-04 
8 1 -1.294243651628e-04   4.007355371251e-04  -9.163119891765e-06 
8
Step 18000
1 1 -1.101000427655e-04  -1.524522426308e-04   3.447349529313e-06 
2 1 -1.654245001551e-04  -5.729351239460e-05  -9.348023590357e-05 
3 1 -2.657362552098e-04   2.984363386919e-04  -1.489731499244e-04 
4 1 -1.496369351501e-04   9.860570826595e-06   2.612730843983e-04 
5 1  2.201736795432e-04  -7.148823369099e-05  -4.438390182148e-05 
6 1 -1.276828108008e-04   3.296529762436e-04  -1.000793572530e-05 
7 1  9.703041410471e-06   8.591413419453e-05   8.538947050864e-05 
8 1 -4.428424937917e-05   3.091377385801e-05   4.514898908621e-05 
8
Step 19000
1 1 -1.629679023237e-04  -1.307113283870e-04   5.162147305980e-05 
2 1 -1.022136196420e-04  -2.365977510015e-04  -4.934536804079e-05 
3 1  1.082987209079e-05   2.911449493459e-04   2.203681234921e-04 
4 1  5.757610724536e-05   1.941497519712e-04   2.944470190369e-04 
5 1  1.305652147062e-04   3.056416737323e-04  -1.139301699426e-04 
6 1 -2.412390747944e-04   3.058691499212e-04  -2.489196384175e-04 
7 1  1.253211305503e-04   1.496749489572e-05   1.020395064968e-04 
8 1 -1.590339688236e-05   5.394211212478e-05   2.480499771768e-05 
8
Step 20000
1 1 -2.429244952950e-04  -5.667942287332e-06   2.570420219721e-04 
2 1  4.961881572320e-05  -4.118329332043e-05  -3.693260434750e-05 
3 1 -2.010335983734e-04   1.463330947593e-04  -1.597746126279e-05 
4 1  3.951991003301e-05  -3.159521744921e-05   3.506161358684e-04 
5 1 -2.169732289796e-04   2.253738736377e-04  -6.712108941041e-05 
6 1 -2.679802607905e-05   1.499479255413e-04  -6.873593728791e-05 
7 1  1.071229018012e-04   9.994733686247e-05   9.866933791942e-05 
8 1  5.026745155566e-05   9.927056452231e-05   3.434728865563e-06 
8
Step 21000
1 1 -1.603445763641e-04   3.164357190411e-04   1.714907618008e-04 
2 1  2.783804813629e-04   2.280257539722e-05   2.880626355310e-05 
3 1 -1.568445747974e-04   7.187394107348e-06  -5.109823389382e-05 
4 1  6.988445986739e-05  -1.030415978657e-04   1.943356824683e-04 
5 1 -4.715447276714e-06   2.384143152913e-04   1.093895070786e-04 
6 1  6.054526826402e-06   2.672106312730e-06  -1.059072802662e-04 
7 1  4.624049274881e-05   2.012279543821e-04   1.616265230737e-04 
8 1 -6.653157751969e-05   9.177661430092e-05   1.637575876325e-04 
8
Step 22000
1 1 -9.542793791155e-05  -1.630680344152e-04   1.981709837347e-04 
2 1  1.474939267758e-04   2.058975665908e-04   1.220577817918e-04 
3 1 -3.988591990551e-04  -8.991476193287e-05  -3.798895837782e-05 
4 1  1.182989161712e-04   6.012817464546e-05  -4.260837401292e-05 
5 1  3.996524949056e-06   1.060664619912e-04   5.126145328574e-05 
6 1  5.390340718723e-05  -4.577217757769e-05  -6.399842493218e-05 
7 1  1.282013428933e-04  -7.109337651381e-05   3.806015942606e-04 
8 1 -1.847140816074e-04  -2.899077593566e-04   2.225322620476e-04 
8
Step 23000
1 1  7.457327418988e-05  -1.954574144635e-04   2.221672564002e-04 
2 1  6.824693349114e-05  -1.221986882621e-05   1.067232145810e-04 
3 1 -2.171872531891e-04   2.187290417665e-04   2.440025913480e-04 
4 1  2.536755171302e-04   1.341363221362e-04   1.383336691223e-04 
5 1  1.720861712070e-05   2.552742394769e-04  -6.798289408945e-05 
6 1  8.464458517898e-05   1.280348043083e-04  -1.631876262925e-04 
7 1  2.121544546468e-05  -2.681732768387e-04   3.002697941129e-04 
8 1  1.626679262449e-05  -3.549756102505e-04   1.128368293816e-04 
8
Step 24000
1 1  5.504428415404e-05  -9.674306855227e-05   3.233284324609e-04 
2 1  1.299429500764e-04  -1.593588263221e-04   1.802007632519e-04 
3 1 -1.740044459132e-04   2.111147164189e-04   1.155377336262e-04 
4 1 -2.680950103273e-04   7.799510272249e-05   6.646553770353e-05 
5 1  1.409728097293e-04   3.998319395048e-05  -3.957645281988e-05 
6 1  6.849334392982e-05   3.900255098408e-05  -8.801106833757e-05 
7 1  1.158591584542e-04  -9.137364848906e-05   1.835806207934e-04 
8 1  1.737592476978e-04  -2.231501843940e-04   1.888205262371e-05 
8
Step 25000
1 1  3.888706644839e-04   1.240999245278e-04   2.137527557576e-04 
2 1  2.212920051053e-04  -8.371539214964e-05   9.836279650248e-05 
3 1 -1.893884102988e-04   1.855560365927e-05   1.901314139140e-05 
4 1 -5.033666955173e-06   6.255723071993e-07   1.503603534523e-04 
5 1  2.194309303384e-04  -7.754140770302e-05  -5.464543882834e-05 
6 1 -5.222075697369e-05   2.259112458387e-04   1.224061507898e-04 
7 1  1.333673577386e-04  -1.530589205633e-04   1.656799900839e-04 
8 1 -2.311986947313e-05  -6.149505421386e-05  -9.586544799947e-05 
8
Step 26000
1 1  2.035717802738e-04  -1.071745777909e-05   1.769647830769e-04 
2 1 -5.969402582333e-05  -9.744512902141e-05   8.876573109400e-05 
3 1 -2.192634497535e-04   1.053296342944e-04   1.068724203449e-04 
4 1  2.492692572882e-04  -1.925126899382e-04   2.619042291344e-04 
5 1  2.518696398544e-05   1.598163870428e-04  -2.585221021810e-04 
6 1  9.467262439495e-05  -6.560767131563e-05   7.375829801732e-05 
7 1  1.156727147830e-04  -5.434950409973e-04   2.403733661817e-04 
8 1  4.510315949243e-06  -1.286079558698e-04   2.684200112206e-04 
8
Step 27000
1 1  9.345681317647e-05  -2.808709158010e-04   5.872210878396e-06 
2 1  1.792979825744e-04   8.717960290162e-05   2.033188362758e-04 
3 1 -1.486828645447e-04   9.343203496796e-05  -1.792798142659e-05 
4 1  2.295781409431e-04  -7.421508093630e-05   1.488382607847e-04 
5 1  1.697938322881e-04   2.821843867416e-05  -2.115313986801e-04 
6 1 -4.932499805161e-05  -1.179086102402e-04   7.323120880532e-05 
7 1  2.145717089954e-04  -2.540606150974e-04   7.339539314748e-05 
8 1 -1.574667245279e-05  -2.551764881539e-04   2.150909461074e-04 
8
Step 28000
1 1  1.267893325388e-04  -3.492855839762e-04   8.518975043883e-05 
2 1  6.465588599998e-05   6.213319971417e-05   2.803539807855e-04 
3 1 -2.955546530169e-04  -1.113310944102e-05  -1.695081131655e-05 
4 1  1.610379191857e-04  -9.280743320597e-05   1.169081659333e-04 
5 1  6.136920822766e-05  -9.231114084332e-05  -1.680050931519e-04 
6 1  9.125910383199e-05  -7.615059857951e-05  -9.209721947980e-05 
7 1  2.923904409969e-04  -2.680141296472e-04   9.001720802639e-05 
8 1 -1.366112775712e-04  -2.407918055497e-04   5.245983875328e-05 
8
Step 29000
1 1  2.089127487631e-04  -1.696626240062e-04  -1.433381768371e-06 
2 1  2.361616107725e-04  -6.137613732288e-06   3.028883706175e-04 
3 1  2.700974068360e-05  -1.742603081226e-05   7.268468743828e-05 
4 1  1.729157347221e-04  -6.852494385677e-05  -1.916638523340e-04 
5 1  4.076387508874e-05   1.619175605471e-04  -8.386200805349e-05 
6 1  7.552424413679e-05   5.919214635182e-06  -1.397655879680e-04 
7 1  4.013509480992e-05  -1.474756620036e-04   1.631336419206e-04 
8 1  2.476407973808e-04  -2.685606864824e-04   2.304873718536e-05 
8
Step 30000
1 1 -2.364921994360e-04   3.505069956083e-05  -6.762052669366e-05 
2 1  1.551040244390e-04  -2.440519139433e-04   4.690831581026e-05 
3 1  3.108154668209e-04   6.101268072437e-05  -2.466513971810e-05 
4 1  8.865442202234e-05  -6.595603924584e-05   4.003427643507e-05 
5 1  1.909018775970e-04  -2.732829099543e-04  -2.401541814341e-05 
6 1 -4.787888277703e-05  -1.149671607536e-04  -8.429477940261e-05 
7 1  9.477815450275e-05  -1.847347858901e-04   3.001074993319e-04 
8 1  1.456814286937e-04  -2.551458937788e-04   8.556838223631e-05 
8
Step 31000
1 1 -3.381923506677e-04  -3.194475727183e-05  -1.168982092149e-04 
2 1  3.397480289400e-04  -1.366006910884e-04   6.155502952656e-06 
3 1  1.556271164497e-04  -6.524632018120e-05  -1.489899887461e-04 
4 1  5.622762770599e-05  -7.823258413771e-05  -1.175333816087e-04 
5 1  1.385391830516e-04  -2.764180618488e-04  -1.546388746218e-05 
6 1 -6.665087040521e-05  -1.268312083151e-04  -1.691827660753e-04 
7 1  1.323856333445e-05  -2.842837924251e-04   1.840075859728e-04 
8 1  2.683024552455e-04  -1.757935216201e-04   1.688104157598e-04 
8
Step 32000
1 1 -1.651367709055e-04  -2.687578878052e-04  -1.278352348026e-04 
2 1  3.279051423122e-05   1.607058289314e-04   9.986167415434e-05 
3 1  2.595463464036e-05  -3.347414803221e-04  -1.800238010678e-04 
4 1  1.304838389912e-04  -3.289625021185e-04   9.166387037940e-06 
5 1  1.689490596472e-04  -2.848552958348e-04  -4.909864846785e-06 
6 1  8.776522979364e-05  -1.198337894993e-04  -1.085594005563e-04 
7 1 -4.836133974295e-05  -1.507386631585e-04  -7.320698006295e-06 
8 1  1.324389925753e-04  -5.848913007322e-06  -1.116021276560e-05 
8
Step 33000
1 1 -7.216715127637e-05  -2.966851619434e-04  -1.161332652902e-04 
2 1  1.630940576436e-04   7.083989219546e-05   1.549474087833e-05 
3 1  2.474668575950e-04  -2.427052143592e-04  -1.477708755142e-04 
4 1  1.195912787080e-04  -1.469564000865e-04  -1.595760277664e-04 
5 1  8.787458384262e-05   3.398348239746e-05  -3.957114068811e-04 
6 1  2.706570097021e-05   4.671472564643e-05  -2.233931366613e-04 
7 1  1.390446872118e-04  -1.765423363678e-04  -4.844816242086e-05 
8 1 -2.124996505664e-05  -2.794792140857e-04   1.147184239118e-04 
8
Step 34000
1 1 -2.961189295307e-04  -6.502856983521e-05  -1.648601728843e-04 
2 1  2.544262630040e-04   4.027009400686e-05   1.416923649740e-04 
3 1  2.534903667395e-05  -1.416935612454e-04  -3.162146626638e-04 
4 1  1.455900619683e-04  -1.255956532884e-04  -4.406971648128e-05 
5 1  1.692695000189e-04  -6.132667504496e-05  -4.350351240234e-05 
6 1 -6.647228933208e-05   6.117589429461e-05   6.703666715851e-05 
7 1  8.039269801133e-05  -7.685929624189e-05  -1.426576581086e-04 
8 1  4.990514279800e-05  -2.368821614870e-04   1.517405439652e-04 
8
Step 35000
1 1  4.045747662243e-05   2.792440391775e-05  -9.000227765622e-05 
2 1 -1.258369563962e-04  -5.347027656848e-05  -2.057903676704e-04 
3 1  2.090263619009e-04  -1.955012527190e-04  -1.849589705297e-04 
4 1  2.592212037392e-05  -2.397579540082e-04  -9.346866540479e-05 
5 1 -4.578777904881e-05  -8.204099162663e-05  -8.988609657671e-05 
6 1  9.002299421903e-05   4.292105858982e-05   6.653177108372e-05 
7 1  9.254211081120e-05  -6.346997188693e-05   8.636906882514e-05 
8 1  3.965890492284e-05  -2.910111746582e-05  -1.588230000787e-04 
8
Step 36000
1 1  5.598179221411e-05   2.578791035454e-04  -1.011573242105e-04 
2 1 -2.410116325990e-04  -1.985478033406e-04  -1.973291245505e-04 
3 1  4.402967932164e-05  -1.784553748959e-04  -2.248192235683e-04 
4 1  2.010431713659e-05  -5.994999671292e-04  -1.381666169901e-04 
5 1  9.429826271758e-05  -1.515816045104e-04   2.748673662752e-05 
6 1 -1.181545742339e-04   8.569286674973e-05   8.573744936921e-05 
7 1 -7.184142457430e-05  -7.085334880459e-05  -5.362922379710e-05 
8 1 -4.363127787053e-05  -8.057705146232e-05  -1.541248859463e-04 
8
Step 37000
1 1 -8.560561228822e-05  -1.252883641518e-04  -1.786565874635e-04 
2 1  7.296654683183e-05  -7.046780539255e-05   1.761162466187e-04 
3 1 -3.082697378350e-05  -7.609379266625e-05  -3.279860042081e-04 
4 1  7.737671520575e-05  -1.320735250060e-04  -2.970600329350e-04 
5 1  2.695203354013e-04  -1.299520323517e-04  -1.378077808283e-04 
6 1 -9.916993205454e-05   2.772677177960e-04  -1.604534653836e-04 
7 1 -1.815671142949e-04  -2.017154528503e-04  -5.647193010917e-05 
8 1 -5.841241616765e-06  -3.093288847723e-05  -1.451699124830e-04 
8
Step 38000
1 1  2.412640699224e-04  -3.297994519434e-04  -1.489403475153e-04 
2 1 -3.588020810301e-05   3.199368410024e-04   1.234743007967e-04 
3 1 -2.808831632139e-05  -3.373143829735e-05  -1.581286012516e-04 
4 1 -1.062674898573e-04   2.460533705662e-05  -3.009359931949e-04 
5 1 -3.849345137594e-06   5.188968805388e-06  -3.034499869927e-05 
6 1  2.824730146086e-05   4.477183199685e-05  -6.381838966506e-05 
7 1 -1.449649104385e-04  -1.324690354430e-04   4.908782564050e-05 
8 1  5.217206811680e-05   3.565675555842e-05  -2.716596965851e-04 
8
Step 39000
1 1  2.423769485837e-04  -1.414407153112e-04  -2.552587570866e-04 
2 1 -1.496562706814e-04   2.582439997457e-04   2.614739287816e-05 
3 1 -2.811983403595e-05  -1.046512847297e-04  -2.301796842086e-04 
4 1 -1.970495825628e-04  -2.021089879954e-04  -1.077875621072e-04 
5 1  5.310834048475e-05   6.580677989349e-05   4.395941219307e-06 
6 1 -3.355181190116e-05   7.483662716277e-05   7.482007233014e-05 
7 1 -8.015173047537e-05   5.481816001366e-06  -2.018635878738e-04 
8 1 -4.746425062010e-05   1.965919598033e-05  -1.202271724386e-04 
8
Step 40000
1 1 -1.054344072153e-04   2.557063922451e-04  -2.387636471947e-04 
2 1  9.814582934823e-06   1.175462796555e-04  -2.709166828568e-05 
3 1  9.707501433830e-05  -1.540859043214e-04  -8.701114839504e-05 
4 1 -2.037972977266e-04   8.848915959538e-05  -1.588119140429e-04 
5 1 -1.323169232307e-04  -1.707815291251e-04   8.786501223586e-05 
6 1 -1.253312038109e-04  -2.145278683993e-05   5.100975935177e-05 
7 1 -1.385147194090e-04   8.991879750356e-05   6.469219146508e-06 
8 1  2.027792685981e-05  -2.570699886692e-05   3.179169665732e-06 
8
Step 41000
1 1 -1.435671937745e-04   1.292448743679e-05  -1.949353924589e-04 
2 1 -3.172045292767e-05   6.918185963046e-05  -5.387047875738e-05 
3 1  1.908856898844e-04  -7.500919294653e-06  -1.287914125643e-04 
4 1 -8.319211091940e-05  -7.497419806543e-05  -2.510347338989e-04 
5 1 -9.187196062250e-05  -1.251651534160e-04   8.505522112176e-05 
6 1 -1.478502485871e-04  -1.589351094615e-04  -4.627916833562e-05 
7 1 -2.119006865427e-04   1.952579586456e-04  -1.588443845783e-04 
8 1 -1.821134261290e-04  -3.673830492821e-05  -1.078340830575e-04 
8
Step 42000
1 1 -1.119485761250e-05   3.116757238044e-04   6.531577250600e-05 
2 1  5.801985513580e-05  -9.243103752426e-05   3.671537287476e-05 
3 1  2.726854777812e-04   1.540619204560e-04   2.288611514545e-05 
4 1 -2.841830243164e-04   1.472194568555e-04  -2.214150569897e-04 
5 1 -8.384720047531e-05   9.358310292845e-05   6.688408596243e-06 
6 1 -1.987538975000e-04  -1.775274016811e-04  -1.024761067082e-04 
7 1 -2.498081204986e-04   2.383921888414e-05  -2.032842542997e-04 
8 1  4.312479774448e-05   1.373640744673e-04  -6.741167986477e-05 
8
Step 43000
1 1 -1.353327362912e-04   8.895120493898e-05  -2.618164610128e-04 
2 1  1.158397791528e-04   1.183850154179e-04   5.793906248633e-06 
3 1  2.028305122405e-04   1.306265052851e-05   1.238604138693e-04 
4 1 -1.831351521681e-04   2.875246334421e-05  -2.071353572670e-05 
5 1 -3.909691723290e-05  -2.005762952943e-04   2.709483544447e-04 
6 1 -1.170971991158e-04   8.091925459020e-05  -1.797493126497e-04 
7 1 -2.640803533340e-04   1.549244176762e-04  -2.852639050584e-04 
8 1 -1.175285015993e-04   2.583772393256e-04  -1.497807325478e-04 
8
Step 44000
1 1 -2.290398974470e-04   1.683962104382e-04  -2.890924976848e-04 
2 1  1.128421958875e-04   1.800086977465e-04   1.420499977286e-04 
3 1  1.135201264940e-04   4.534180747181e-05   9.968353566353e-05 
4 1 -6.935825557439e-05   1.520042700467e-04   6.083087108038e-05 
5 1 -1.630811264524e-04   6.486357042729e-05   2.824645243945e-04 
6 1 -3.380057509231e-04   1.600661692930e-04  -1.718602886025e-04 
7 1 -2.132287753410e-04  -9.719021743786e-05  -5.682521288419e-05 
8 1  7.853097452142e-05   2.205267656239e-04  -4.476775261547e-05 
8
Step 45000
1 1 -9.840125397595e-05  -1.041630392432e-05   5.582558387030e-05 
2 1 -3.402972600816e-04   1.733475473890e-04  -2.457393093679e-04 
3 1  3.609783900201e-04   3.874989297359e-05   5.979660094524e-05 
4 1 -1.526237950495e-04   4.846704851273e-05   1.307151675103e-04 
5 1 -2.329937419070e-04  -1.302973327738e-05   1.776337434361e-04 
6 1 -9.130443688111e-05  -8.110585556625e-05   7.264157545948e-05 
7 1 -1.285230363786e-04  -4.973410058005e-05  -1.157636691698e-04 
8 1 -2.847110521573e-04   3.405636308896e-04  -1.109247926685e-04 
8
Step 46000
1 1  1.234852079390e-04   3.052617736317e-04   2.102354877777e-04 
2 1 -8.043969343048e-07   6.545460905476e-05   6.591308462123e-05 
3 1  1.462143591000e-04   8.799038156075e-05  -1.038187044118e-05 
4 1 -2.290379750013e-05   4.035529570607e-05   5.620041744046e-05 
5 1 -1.864466783313e-04  -3.463046961985e-05   1.348116177580e-04 
6 1 -1.279507404898e-04   3.225271953040e-04   8.979447844236e-05 
7 1  5.423676548696e-06   4.825371935750e-05  -9.938403173597e-05 
8 1 -1.826014772332e-04   1.429627622748e-04  -1.690131267842e-04 
8
Step 47000
1 1 -3.343097896435e-05   8.135987308512e-05  -7.190896521466e-05 
2 1 -5.148028709570e-05   2.768367848279e-05   2.502196571079e-05 
3 1  5.188833614047e-05   9.976122687017e-05   5.460686485713e-05 
4 1  2.953816361060e-05  -4.308328197669e-05   1.279841589453e-04 
5 1 -7.001866625643e-05  -4.707380391536e-05   3.021835512468e-04 
6 1 -1.250437281133e-04   7.142472135025e-05   3.608894205550e-05 
7 1 -1.591625867771e-04   1.875177586011e-04  -2.389683253895e-04 
8 1 -6.081482206149e-05   1.157416738393e-04  -2.039692792757e-04 
8
Step 48000
1 1  9.490188646069e-05  -1.271849559652e-04  -1.013638196485e-04 
2 1 -2.424003322463e-04   1.830710195315e-04   5.115910817731e-05 
3 1  1.514241222980e-04   3.420983149770e-04   2.385904761173e-04 
4 1 -2.623358469196e-05   6.921126079392e-05   2.195409841711e-04 
5 1  1.092288189598e-04   2.778808568095e-04   2.861706977335e-04 
6 1  2.570224291382e-05   1.427903019242e-04   3.797679774354e-04 
7 1 -9.684453348206e-05   3.242017305419e-04  -1.339588363936e-04 
8 1 -5.600285891678e-05   9.276197054594e-05  -1.696643226137e-04 
8
Step 49000
1 1 -3.193563085042e-07  -2.144750926678e-04  -1.255215042596e-04 
2 1 -1.914723082825e-04   1.580981897831e-05   7.346150451342e-06 
3 1 -1.041124597312e-04   1.367265871771e-04   1.903786950630e-04 
4 1 -2.997722354553e-04   5.024670199573e-05  -1.162758969705e-04 
5 1  1.182071610103e-04   1.635721880259e-04   5.083056257913e-04 
6 1 -8.288228965828e-05   2.386773821094e-04   2.017280460827e-04 
7 1 -8.149580788926e-05   3.679560707765e-05   9.488840068651e-05 
8 1  6.784771319561e-05  -7.858497291103e-05   9.892776654324e-05 
8
Step 50000
1 1  2.010848862183e-04  -1.835787107886e-04   3.460689782878e-04 
2 1 -4.184605078901e-05   1.130091009571e-04   1.004287152934e-04 
3 1  4.177748463276e-05   4.305306758806e-05   7.642241080789e-05 
4 1 -2.597122075568e-04   2.753154705375e-05  -1.431191648690e-04 
5 1  8.651295318043e-05  -5.104949789204e-05   4.328040071854e-04 
6 1  5.824658589592e-05   2.051186264171e-04   9.415720059857e-05 
7 1 -1.743083620928e-04   2.976741813363e-04  -6.464237033252e-05 
8 1 -8.110925195167e-05   1.556955745238e-04   1.292180060036e-05 
8
Step 51000
1 1  6.471178777151e-05  -2.553271787678e-05   2.360489066562e-04 
2 1 -2.106766436898e-05   1.386142457135e-05   9.780375730651e-05 
3 1  4.829844912011e-05  -1.100233850143e-05   3.110520222641e-05 
4 1 -9.417814040659e-05  -5.464222030989e-05  -1.335066686053e-04 
5 1  1.281754279033e-04  -5.519337350126e-05   3.400774554364e-04 
6 1  7.493103660866e-05   1.827931536998e-04   7.610429654923e-05 
7 1 -6.733535926099e-07   6.599802030765e-05  -5.778626270163e-05 
8 1  5.052652190327e-05   1.817925299697e-04   6.982831029961e-05 
8
Step 52000
1 1  2.753208372473e-04  -2.023310431650e-04   1.262645894564e-04 
2 1 -4.418051723614e-06  -2.314947921830e-04  -3.622900091243e-05 
3 1  3.653429954727e-05   8.139276707182e-05   1.168779002377e-04 
4 1 -7.333872969688e-05   3.942504986159e-04  -9.853674840989e-05 
5 1  1.415072598333e-04  -1.005195538127e-05   3.955686846974e-04 
6 1  2.425459942815e-04   1.223360555722e-04   7.063982925390e-05 
7 1  2.074245383139e-04   1.082271816353e-04  -3.031180227272e-05 
8 1 -1.020254189614e-04   5.146304218239e-04   1.637756549265e-04 
8
Step 53000
1 1  9.490378469201e-05  -3.182044901497e-04   3.501688145475e-05 
2 1  5.708673267879e-05  -2.600439007607e-04   1.508542169872e-04 
3 1 -2.242585099112e-04   1.275846919207e-04   2.263696172658e-05 
4 1 -1.764527998728e-04   4.466140684563e-04   4.680756085245e-05 
5 1 -4.284050112498e-05  -1.723659550529e-05   1.331167411390e-04 
6 1  1.979316844414e-04   2.701993581752e-05   6.598256028946e-05 
7 1  7.512850700621e-05  -1.995921779071e-05   1.314528493708e-04 
8 1 -6.750437932398e-05   3.733075724826e-05   3.689031106990e-04 
8
Step 54000
1 1  2.085655463529e-04  -1.486421982710e-04   3.342440359022e-04 
2 1  4.876811305356e-05  -1.962684236654e-04  -1.158838020418e-05 
3 1 -1.633108853217e-04   4.631748202583e-05   3.557406788779e-05 
4 1 -1.416173560352e-04   1.080276223524e-04   9.898964960024e-06 
5 1  7.455740084932e-05   6.539259603061e-07   1.750418953610e-04 