8
Step 0
1 1  0.000000000000e+00   0.000000000000e+00   0.000000000000e+00 
2 1  0.000000000000e+00   0.000000000000e+00   0.000000000000e+00 
3 1  0.000000000000e+00   0.000000000000e+00   0.000000000000e+00 
4 1  0.000000000000e+00   0.000000000000e+00   0.000000000000e+00 
5 1  0.000000000000e+00   0.000000000000e+00   0.000000000000e+00 
6 1  0.000000000000e+00   0.000000000000e+00   0.000000000000e+00 
7 1  0.000000000000e+00   0.000000000000e+00   0.000000000000e+00 
8 1  0.000000000000e+00   0.000000000000e+00   0.000000000000e+00 
8
Step 1000
1 1 -7.080048590988e-05  -1.944366073167e-04   4.839274543734e-05 
2 1  1.065469369591e-04  -2.180507284563e-05   5.366478958437e-06 
3 1  1.033084685219e-04  -3.283079070633e-04  -7.149884344447e-05 
4 1 -6.723027158260e-05   3.634727661567e-04  -1.163269853695e-04 
5 1  7.021705126080e-05  -1.938290627730e-04  -7.930252812744e-05 
6 1  1.585237455358e-04  -5.795590216292e-05   8.885368958138e-05 
7 1  4.651253565504e-05   1.937710753401e-04   8.025475961267e-05 
8 1  2.081834674963e-04  -3.092973409498e-05   1.952846070904e-04 
8
Step 2000
1 1 -2.124260866972e-04   2.798288097967e-04  -1.810329870995e-04 
2 1  1.387397093446e-04   3.241404417638e-04  -1.509699386199e-04 
3 1 -3.379094035560e-04   1.280776229044e-04   2.354684388146e-04 
4 1  2.992972773888e-05   2.533641325417e-04   1.241314546840e-05 
5 1 -2.513682427039e-04   2.653099355193e-05  -1.410906616906e-04 
6 1 -1.768802677647e-04   2.572801028262e-04  -1.718932326640e-04 
7 1 -2.949814985281e-04   3.262830189011e-04  -8.351163755108e-07 
8 1  9.520975222070e-05   2.078121420147e-05   2.357451199889e-05 
8
Step 3000
1 1 -1.174362979696e-04   3.505503102705e-04  -2.024835778617e-04 
2 1  2.049463248036e-05   3.323325455228e-04  -1.635491190650e-04 
3 1 -3.531061482911e-04   2.272975068849e-04   1.970975214611e-04 
4 1  1.567362785177e-04  -1.162433279449e-04   7.131234625940e-05 
5 1 -2.639034559375e-04   1.466411859491e-04  -4.099007596280e-05 
6 1 -2.770464697700e-04   2.007220479390e-04  -1.869733665747e-04 
7 1 -2.956752142083e-04   2.007805024093e-05  -4.358765682074e-05 
8 1 -1.737194116860e-04  -8.880724525750e-06  -7.829713002607e-05 
8
Step 4000
1 1  1.975107036405e-04   1.743089180640e-05  -1.259477755025e-04 
2 1 -8.043230970510e-05  -5.254703784660e-05   5.911124736431e-05 
3 1 -3.706556714210e-05  -5.203707296535e-05   7.423061911330e-05 
4 1  1.221573956276e-04  -3.902096640073e-04  -8.208128308368e-05 
5 1  9.905124602261e-05  -6.377674702548e-05   1.042927649225e-04 
6 1 -6.171108151805e-05  -8.243141089378e-05  -2.104951142543e-05 
7 1 -4.888139622399e-05  -2.101310564757e-04   4.036162347588e-05 
8 1 -2.231367717176e-04   2.656371339014e-05  -2.182714048377e-05 
8
Step 5000
1 1  3.477627310294e-04  -3.225735221730e-04  -2.387982558204e-06 
2 1 -3.055364451615e-05  -2.721488235138e-04   3.175932770438e-04 
3 1  2.910104758690e-04  -2.835981193797e-04  -1.313260302471e-04 
4 1 -9.955371698814e-05  -3.293121758116e-04  -2.861558681623e-04 
5 1  2.600166279194e-04  -1.274168418035e-04   1.696426016489e-04 
6 1  1.799105118879e-04  -1.773374872629e-04   9.947496676861e-05 
7 1  2.227587451008e-04  -2.022868143604e-04   1.912475838478e-04 
8 1 -1.105958395256e-04   1.078157136305e-04   1.293590281691e-04 
8
Step 6000
1 1  1.036596182232e-04  -3.160972576628e-04   1.003682641316e-04 
2 1 -1.003772492316e-04  -1.735630970583e-04   3.247232516752e-04 
3 1  2.271223569747e-04  -9.657662315139e-05  -2.903014380859e-04 
4 1 -2.636637595159e-04   5.080957065622e-05  -6.273189864378e-05 
5 1  2.033406012455e-04   7.756290811718e-05   4.927279488943e-05 
6 1  1.600142705981e-04  -1.082451352223e-05   6.928136719861e-05 
7 1  2.115907536393e-04   8.644611424190e-05   1.582894126659e-04 
8 1  1.160556053499e-04   3.455548703689e-05   1.179059496883e-04 
8
Step 7000
1 1 -2.529505075552e-04   2.169936828834e-05   1.286737199375e-04 
2 1  1.138012156855e-05   4.386403600195e-05   2.337164192598e-05 
3 1 -1.263412144217e-04   3.018964140749e-04  -1.403501487086e-04 
4 1 -1.577238663069e-04   3.798788203393e-04   2.848243167625e-04 
5 1 -1.186166063170e-04   2.865247811991e-04  -9.765096505929e-05 
6 1 -3.568090462789e-05   8.737502522709e-05  -3.243470732017e-05 
7 1  9.969460927342e-06   1.906914239020e-04  -4.464368826007e-05 
8 1  1.898590500637e-04  -1.156208288213e-04  -6.173458301238e-05 
8
Step 8000
1 1 -3.181877372038e-04   2.675993814919e-04   8.155020807166e-05 
2 1  1.363012454984e-04   2.066225053558e-04  -2.866697179441e-04 
3 1 -2.257868538515e-04   3.628948114641e-04   1.265451702241e-04 
4 1  1.376674519802e-04   3.303598195261e-04   2.737775243716e-04 
5 1 -3.122982827474e-04   9.961358276279e-05  -5.778573426939e-05 
6 1 -1.199924134546e-04   1.136466207123e-05  -3.866329580294e-05 
7 1 -1.438095751287e-04   4.243008138295e-05  -2.114546594148e-04 
8 1  9.469644323863e-05  -1.610120945480e-04  -1.846968857191e-04 
8
Step 9000
1 1 -6.691307150258e-05   2.331591585536e-04   1.208384010823e-05 
2 1  1.162981827089e-04   1.048291256805e-04  -2.918144693234e-04 
3 1  7.756938874561e-05  -1.384104591854e-05   2.161609169054e-04 
4 1  3.158892045772e-04   4.528772452895e-06  -7.740378199019e-05 
5 1 -1.353965362859e-04  -1.088064731414e-04   6.493365017169e-05 
6 1 -2.488794018736e-05  -1.172972358819e-04   1.679616343484e-05 
7 1 -9.132434674582e-05  -1.369587959629e-04  -1.713571307792e-04 
8 1 -9.100971170389e-05  -5.146126848582e-05  -8.520530558414e-05 
8
Step 10000
1 1  1.964699081802e-04   3.270270050364e-05  -1.203674461863e-05 
2 1 -1.491064267912e-07  -1.390884688937e-05  -3.610445623850e-05 
3 1  3.331097173272e-04  -3.560152449517e-04   8.487561480167e-05 
4 1  1.666467773095e-04  -2.677014959888e-04  -2.809973388461e-04 
5 1  4.732443495632e-05  -3.785857129940e-04   4.890510693340e-05 
6 1  9.618517832702e-05  -4.383705513460e-05   1.212656732375e-05 
7 1  3.270723910905e-05  -6.030100353118e-05   1.748887466816e-05 
8 1 -4.697817246430e-05   2.993008947783e-04   1.061727104058e-04 
8
Step 11000
1 1  2.317903616847e-04  -1.442577410816e-04  -4.301979355472e-05 
2 1 -2.153445062199e-04  -9.005331200564e-05   2.075742634279e-04 
3 1  1.305149421806e-04  -2.573676771446e-04  -7.932955113850e-05 
4 1 -1.588912703171e-04  -2.359712710368e-04  -8.529192952234e-05 
5 1  2.541488217757e-04  -1.271643560349e-04  -7.930675629408e-05 
6 1  5.695548364435e-05   1.729883923940e-04  -4.533528038345e-05 
7 1  6.731827467918e-05   1.193945025329e-04   1.303991762586e-04 
8 1  9.870193112060e-05   3.017439977243e-04   1.623430423120e-04 
8
Step 12000
1 1  2.651885995811e-05  -1.137891999654e-04  -1.027782334998e-04 
2 1 -1.945762769831e-04  -1.409089442222e-04   2.377278537526e-04 
3 1 -2.675231148946e-04   1.216961777132e-04  -7.398606628622e-05 
4 1 -2.847637599538e-04  -3.708705832113e-06   2.388190254821e-04 
5 1  2.546430445685e-04   2.736687636702e-04  -1.822119368235e-04 
6 1 -8.176673694616e-05   2.335776733369e-04  -6.888603406573e-05 
7 1  2.302443590937e-05   7.500073378276e-05   5.328322363694e-05 
8 1  1.075548954606e-04  -5.735583242497e-05   2.477183487118e-05 
8
Step 13000
1 1 -8.129792167087e-05  -3.853091998119e-05  -4.879097098536e-05 
2 1  5.384132382437e-05  -8.857293892216e-05  -2.571334344250e-05 
3 1 -3.640025273038e-04   2.950199024454e-04   1.165990717601e-05 
4 1 -1.012112412826e-04   1.400537786410e-04   2.043489033617e-04 
5 1  5.472555963022e-05   2.871631834394e-04  -8.839595612476e-05 
6 1 -1.468338825381e-04   7.788929186744e-06   1.566023845587e-05 
7 1 -3.555056514619e-06  -1.763070550030e-04  -6.978988615403e-05 
8 1 -7.175812859143e-05  -3.588036889450e-04  -1.150574696831e-04 
8
Step 14000
1 1 -3.268393324287e-05   9.094417322291e-06  -2.899210430080e-05 
2 1  2.512449608173e-04   1.322224552834e-05  -2.444254410813e-04 
3 1 -3.920274713812e-05   1.043220713193e-04   4.868384589536e-05 
4 1  1.516273957013e-04   7.070238646931e-05  -1.014436732227e-04 
5 1 -2.466371865592e-04  -6.794403061866e-05   2.276537624547e-04 
6 1 -4.851097726860e-05  -2.541906956088e-04   1.085581413366e-04 
7 1  4.254874337451e-05  -2.955143308067e-04  -6.162734106110e-05 
8 1 -1.998436460890e-04  -2.770006909040e-04  -1.827198696657e-04 
8
Step 15000
1 1 -1.600725027960e-05   6.386954300573e-05   4.936378257625e-05 
2 1  1.477135522293e-04   1.219002068964e-04  -2.179583161195e-04 
3 1  3.026285662421e-04  -2.100445458588e-04  -9.921796038109e-07 
4 1  2.092031791073e-04  -9.806520452508e-05  -2.565635465274e-04 
5 1 -3.123052454887e-04  -2.573134301883e-04   2.898120662714e-04 
6 1  1.017378063940e-04  -2.327003461293e-04   9.472922805404e-05 
7 1  5.489026610379e-05  -4.915679936257e-05   8.507830057079e-05 
8 1 -1.994414187383e-04   4.953289527289e-05  -4.904684159397e-05 
8
Step 16000
1 1 -5.417996534973e-05   5.158753455056e-05   1.183335139846e-04 
2 1 -1.185842696880e-04   1.524441330251e-04   4.371292543716e-05 
3 1  2.355844172619e-04  -2.120018902447e-04  -4.948759034671e-05 
4 1  3.805780904258e-05  -1.040379060178e-04  -9.936666734085e-05 
5 1 -1.144834817158e-04  -5.101243953809e-05   8.484030454393e-06 
6 1  1.319315183765e-04   4.469015481899e-05  -3.986518729152e-06 
7 1 -4.166368521980e-05   3.069357909937e-04   1.642864705676e-04 
8 1 -4.608003854168e-05   2.380989363698e-04   1.807182543075e-04 
8
Step 17000
1 1 -6.654557012190e-05  -1.023296298898e-05   5.467450017017e-05 
2 1 -1.845845364068e-04   5.368815426727e-05   2.556116369196e-04 
3 1 -1.320301990469e-04   5.027469414719e-05  -3.716576286919e-05 
4 1 -1.688262525162e-04   2.123807969085e-05   2.223187947286e-04 
5 1  1.651663289315e-04   2.025062550338e-04  -3.115652759800e-04 
6 1  4.551462762922e-05   2.292895007688e-04  -6.443573896655e-05 
7 1 -1.489123261602e-04   3.774913761313e-04   4.888786637483e-05 
8 1  1.564389191772e-04   1.698984456394e-04   2.336954643601e-04 
8
Step 18000
1 1  3.226310876533e-05  -1.010139501709e-04  -7.461651605394e-05 
2 1 -1.352097086117e-06  -8.829880254413e-05   1.727774516378e-04 
3 1 -2.834494582493e-04   2.196382076066e-04  -1.195490855972e-05 
4 1 -1.736730182886e-04   1.923486113339e-04   2.119883519727e-04 
5 1  2.226096820474e-04   1.054654824763e-04  -2.443846311566e-04 
6 1 -2.835896132950e-05   9.967281069687e-05  -4.712867810026e-05 
7 1 -1.322268671055e-04   7.578341859597e-05  -1.322236232302e-04 
8 1  2.719645861743e-04  -3.760622525485e-05   8.664091843501e-05 
8
Step 19000
1 1  1.071821512586e-04  -1.043067220386e-04  -6.333265448801e-05 
2 1  1.970456451737e-04  -1.057662657824e-04  -4.751806113446e-05 
3 1 -9.163039077300e-05   4.428918877127e-05  -1.344875516553e-06 
4 1  1.918776444681e-05   1.661723965210e-04  -1.250382002948e-04 
5 1  6.126397471276e-05  -1.622741273920e-04   8.611543844361e-05 
6 1 -1.964265426353e-05  -1.522633278488e-04  -2.144863929910e-05 
7 1  1.671337099876e-05  -2.378704863862e-04  -1.590600932955e-04 
8 1  2.031095737629e-04  -1.394595242277e-04  -1.845808456066e-04 
8
Step 20000
1 1  6.352112296252e-05  -8.896666486675e-05   5.843488841435e-05 
2 1  1.030885059171e-04  -3.189543669832e-06  -1.582031852427e-04 
3 1  2.123705635304e-04  -1.501746321761e-04  -1.443609016929e-05 
4 1  1.514036332914e-04   1.087844924394e-05  -3.339751361383e-04 
5 1 -7.458679771056e-05  -1.650039931106e-04   2.643523401573e-04 
6 1 -3.663047773818e-06  -1.913922324637e-04  -2.572934298037e-05 
7 1  1.545495993406e-04  -2.610535344362e-04  -7.305425422411e-06 
8 1 -4.887149494559e-05  -7.466794744038e-05  -2.394143991862e-04 
8
Step 21000
1 1 -1.292286433596e-04   1.456510056996e-04   6.498246278625e-05 
2 1 -1.492760811086e-04   6.369815837563e-05  -5.026675981881e-05 
3 1  2.489103504067e-04  -1.292676507491e-04   1.362358425641e-05 
4 1  1.354480582620e-04  -1.895678438398e-04  -1.287769656805e-04 
5 1 -4.016719733838e-05  -3.454170453629e-05   1.811296163635e-04 
6 1 -2.464521493377e-05   3.497018220313e-05  -2.434422170666e-05 
7 1  1.418608554575e-04  -3.655516499261e-05   1.275845207225e-04 
8 1 -2.533782935296e-04   1.476217918387e-04  -7.328761427220e-05 
8
Step 22000
1 1 -2.036724903746e-04   2.754895817297e-04  -3.833306540038e-05 
2 1 -2.296992725609e-04  -3.796546714326e-06   1.034156998360e-04 
3 1  3.889479505114e-05   9.501504511039e-05   4.869484492375e-05 
4 1 -2.811788249888e-05  -2.134422267989e-04   2.646338461184e-04 
5 1  1.064368471615e-04   1.785556069481e-04  -6.310549257689e-05 
6 1 -7.343894581663e-05   2.229376508926e-04   2.931981643576e-05 
7 1  1.847549607986e-05   1.392795195724e-04   7.552102202684e-05 
8 1 -2.212772530228e-04   1.642298427444e-04   9.650201416076e-05 
8
Step 23000
1 1  4.629056087218e-05   1.407133926542e-04  -1.695810703202e-04 
2 1 -6.141695918443e-05  -2.946611307122e-05   8.841739662233e-05 
3 1 -7.027054643412e-05   9.833649026562e-05   1.153188406023e-04 
4 1 -1.435192414578e-04  -6.563779774436e-06   2.924247197664e-04 
5 1  8.683394231581e-05   1.693410590407e-04  -2.125465386875e-04 
6 1 -5.061256531631e-05   1.398925905904e-04   7.981393020322e-05 
7 1 -7.706767865325e-05   9.423909804938e-05  -9.062979495664e-05 
8 1 -7.748630226115e-05  -2.855373808430e-05   1.516774610336e-04 
8
Step 24000
1 1  3.236628900238e-04  -8.801098540668e-05  -1.116703996857e-04 
2 1  2.030265368819e-04  -1.012044791271e-04  -2.981142638384e-05 
3 1 -1.384674229370e-04   9.433887260731e-05  -2.681459171772e-05 
4 1 -4.003999731514e-05   4.919403180960e-06   6.224697146746e-05 
5 1 -1.495201381119e-04  -3.253941297955e-05  -1.379683625251e-04 
6 1 -1.371793900432e-05  -1.139317786459e-04   4.441088147620e-05 
7 1 -7.516856154371e-05  -3.593826805831e-05  -1.408968014042e-04 
8 1  1.761027200381e-04  -1.631522063929e-04   8.851564132312e-06 
8
Step 25000
1 1  2.490316236347e-04  -3.261495428967e-04   1.182196643937e-04 
2 1  1.728142997060e-04   3.892335888415e-05  -1.213249297010e-04 
3 1 -1.991200699533e-05  -1.221167738540e-04  -1.513655661607e-04 
4 1  3.290560091931e-05   1.559034912560e-04  -2.038977716842e-04 
5 1 -2.761709263795e-04  -1.882003276195e-04  -1.513480213639e-05 
6 1  4.341183830573e-05  -2.142356646058e-04  -6.894497188971e-05 
7 1 -1.418274904741e-05  -7.614418331735e-05   4.522826083064e-06 
8 1  2.494187341023e-04  -1.721719303066e-04   2.057127341005e-05 
8
Step 26000
1 1 -1.080600251643e-04  -2.205482613054e-04   2.328382229661e-04 
2 1 -3.112799364952e-05   1.009631595390e-04  -1.055230003293e-04 
3 1 -2.245411429049e-05  -2.103536016799e-04   2.109235829204e-05 
4 1  3.313600777044e-05   1.575817398635e-04  -1.240727059156e-04 
5 1 -1.453274004042e-04  -3.969960122099e-05   7.957914175382e-05 
6 1  8.128139722669e-05  -4.518620574061e-05  -9.951624586860e-05 
7 1  2.350521742461e-05  -3.066583730396e-05   1.723831943341e-04 
8 1  1.236571884128e-04  -3.185799630859e-07   2.469746168319e-05 
8
Step 27000
1 1 -4.218030341386e-04   8.514825784405e-05   1.410366686124e-04 
2 1 -1.414634446137e-04   2.954814479606e-05   3.909867965321e-05 
3 1 -1.499710702406e-04   5.589387055114e-05   1.529204461810e-04 
4 1  6.005240637194e-05   1.055487598558e-04   8.718300534647e-05 
5 1  2.264420745290e-04   1.270020709785e-04   1.082948441930e-04 
6 1  1.116302458298e-04   1.869755593522e-04   7.325712294125e-06 
7 1  1.805513665529e-05  -2.947188222579e-05   1.306779038267e-04 
8 1 -1.359919241285e-04   8.312135487428e-05   3.337250884691e-05 
8
Step 28000
1 1 -3.052945092529e-04   3.100590212733e-04  -6.142193318934e-05 
2 1 -1.940505554776e-05  -6.030635615748e-05   1.331030051428e-05 
3 1 -1.111724432187e-04   2.966674465428e-04   1.052209078603e-05 
4 1  3.543363029917e-05  -1.087297808416e-04   1.753704013270e-04 
5 1  4.287672381202e-04   1.062509265137e-04   1.406613293415e-04 
6 1  5.844219507412e-05   2.157130318277e-04   1.253518034096e-04 
7 1 -8.114883140024e-09  -4.424857051687e-05  -7.839625621934e-05 
8 1 -2.680229276921e-04   1.323964191304e-04  -6.753365021929e-05 
8
Step 29000
1 1  1.372487518479e-04   2.378432727246e-04  -1.978697725299e-04 
2 1  1.092221700963e-04  -4.284538766893e-05  -4.990605241052e-05 
3 1  1.701698257141e-04   1.349449694660e-04  -1.821528419368e-04 
4 1 -2.307193818450e-05  -1.608760775347e-04  -1.165000696085e-04 
5 1  2.015282141106e-04  -6.741224181492e-05   1.218643707391e-04 
6 1 -6.377524898450e-05  -1.274147800559e-05   8.144603961894e-05 
7 1 -1.900279641394e-05   3.111224398531e-05  -1.941318236851e-04 
8 1 -2.000401515963e-04   9.027759411030e-05  -1.757266908295e-04 
8
Step 30000
1 1  3.781566429167e-04  -8.961724549772e-05  -7.875389865090e-05 
2 1  1.047948311171e-04   8.533831403557e-05  -4.923135660745e-05 
3 1  2.631001851549e-04  -8.837818749103e-05  -1.126990637926e-04 
4 1 -8.459329332199e-05  -2.104980392490e-04  -3.248995240851e-04 
5 1 -2.205852448229e-04  -1.867308909200e-04  -8.890021464252e-05 
6 1 -1.838982434521e-04  -2.348137577602e-04  -8.023264314766e-05 
7 1 -1.460328824056e-05   1.889484425387e-04  -4.926362498118e-05 
8 1  9.669181660214e-05   3.288196356053e-05  -1.621056825506e-04 
8
Step 31000
1 1  1.744235613563e-04  -3.033282966303e-04   1.424252204433e-05 
2 1 -1.289724166686e-04   8.262649345938e-05   1.335002669310e-04 
3 1  1.143833838369e-04  -2.375535146730e-04   1.023940494541e-04 
4 1 -6.962223527936e-05  -6.819832247065e-05  -1.544435864614e-04 
5 1 -4.053646093292e-04  -5.935506569410e-05  -2.444858910058e-04 
6 1 -1.490677423932e-04  -2.282937694626e-04  -1.195326067837e-04 
7 1 -2.079786313078e-06   2.362139754208e-04   1.782333152128e-04 
8 1  3.874181726736e-04  -7.898956200710e-05   5.305868301133e-05 
8
Step 32000
1 1 -1.519330699487e-04  -2.156264324347e-04  -4.761138650738e-05 
2 1 -2.155544068852e-04  -3.854407121734e-05   3.448669051012e-04 
3 1 -1.626533274218e-04  -1.786098633084e-04   1.562902015330e-04 
4 1  8.611307529687e-05   1.286976811964e-04   1.477432378712e-04 
5 1 -1.820407989970e-04   9.483977914371e-05  -1.161953007811e-04 
6 1  2.557696673085e-05  -9.967254578927e-07  -1.619515880960e-06 
7 1  2.585968388472e-05   3.530498774880e-05   1.687296119006e-04 
8 1  2.730753815252e-04  -1.623633932088e-04   2.382211776691e-04 
8
Step 33000
1 1 -2.068915658430e-04   2.160726696552e-05  -1.371406333203e-04 
2 1  3.614645453883e-05  -1.217881342877e-04   2.244689746588e-04 
3 1 -2.196120455245e-04   3.340217269869e-05  -1.351246215939e-05 
4 1  1.118594474384e-04   1.849081313448e-04   2.984464103396e-04 
5 1  1.140900108702e-04   1.601652651474e-04  -5.449028039135e-06 
6 1  1.659319530307e-04   1.584624265855e-04   1.356301938533e-04 
7 1  3.040808938823e-05  -2.460750943803e-04  -8.828627174644e-05 
8 1 -1.194293829395e-04  -1.514665245495e-04   2.265794753238e-04 
8
Step 34000
1 1 -3.026366084022e-05   3.468621909426e-04  -9.879168289898e-05 
2 1  2.325179143300e-04  -1.791966814119e-04  -1.962146269596e-04 
3 1  1.352913648602e-05   1.516220751684e-04  -1.789594785843e-04 
4 1 -7.837130075183e-05   9.271703564690e-05   1.155222522805e-04 
5 1  1.941634334908e-04   3.834228553095e-06   1.747245533416e-04 
6 1  1.447150667213e-04   1.012089869072e-04   7.951181511760e-05 
7 1 -2.518351434107e-05  -2.957616762712e-04  -2.653622086773e-04 
8 1 -3.479901231994e-04   2.769797883108e-05  -2.719297997340e-05 
8
Step 35000
1 1  1.155108352610e-04   2.605017065277e-04   1.137386910242e-04 
2 1  9.210341420742e-05   3.218964706115e-05  -4.095369873618e-04 
3 1  2.670426792033e-04   7.874392758738e-05  -8.329923715512e-05 
4 1 -2.088239315392e-04  -1.999175200040e-05  -1.061937680281e-04 
5 1  8.542398214024e-05  -1.650126633562e-04   1.566203911785e-04 
6 1 -4.671567323890e-05  -2.937345139863e-05  -9.789311751759e-05 
7 1 -9.088676898579e-05  -4.570996259273e-05  -1.078491301027e-04 
8 1 -2.765679122072e-04   2.034293179309e-04  -2.038140199416e-04 
8
Step 36000
1 1  7.155448410469e-05  -6.108494706156e-05   3.396246735921e-04 
2 1 -1.647623088698e-04   1.980484144371e-04  -1.821777633333e-04 
3 1  1.621633770933e-04  -4.391445103405e-05   1.718560657286e-04 
4 1 -1.049702338209e-04  -5.392207431947e-05  -7.227244219731e-05 
5 1 -3.718800831047e-06  -5.681630605305e-05  -6.412011382594e-05 
6 1 -1.279335768474e-04  -9.126892206986e-05  -1.504233339535e-04 
7 1 -5.618478791534e-05   2.173494983179e-04   1.976070498034e-04 
8 1  1.719268058615e-05   1.617766104015e-04  -1.258824359599e-04 
8
Step 37000
1 1 -2.673966506812e-05  -3.051047489694e-04   2.901338099591e-04 
2 1 -1.612531216646e-04   8.860106343582e-05   1.553086778257e-04 
3 1 -1.977898184069e-04  -5.166282627891e-05   2.606471997701e-04 
4 1  1.508698021486e-04  -4.321848792430e-06   9.482227850388e-05 
5 1  7.537039659809e-05   1.332133783434e-04  -1.776623555205e-04 
6 1 -4.764172396125e-05   5.379972182728e-05  -5.577552691828e-06 
7 1  9.795103634356e-05   1.998447408146e-04   2.635411476004e-04 
8 1  2.311036373968e-04   1.168607414467e-05   6.281488111062e-05 
8
Step 38000
1 1 -2.033823181735e-05  -2.444180723946e-04  -1.465494137083e-05 
2 1  4.285668198587e-05  -5.720758213624e-05   1.460107977340e-04 
3 1 -3.394649297651e-04   1.734582252187e-05   5.822123369670e-05 
4 1  3.083302768538e-04   2.493155777986e-05   8.783534315142e-05 
5 1  9.687286977874e-05   1.902275949526e-04  -6.880309675077e-05 
6 1  9.597906155480e-05   1.703512910955e-04   1.149639733832e-04 
7 1  2.232622455188e-04  -3.205387981450e-05   3.392089760982e-05 
8 1  1.854813842467e-04  -9.113610796463e-05   1.285110678193e-04 
8
Step 39000
1 1  4.089652449781e-05   4.122179537166e-05  -2.965062374865e-04 
2 1  1.930337413708e-04  -9.295868821028e-05  -3.310657557058e-05 
3 1 -9.510574231180e-05   9.040239325740e-05  -2.434602111475e-04 
4 1  1.308423130760e-04  -3.727794941195e-06  -1.208618697926e-04 
5 1 -5.951514631520e-05   1.926823472204e-05   1.107441051450e-04 
6 1  8.976866749292e-05   1.843250690512e-04   7.247340899116e-05 
7 1  1.394083482382e-04  -2.234064437305e-04  -2.386794423967e-04 
8 1  1.357103002676e-05  -9.147234521630e-05  -1.521570550657e-05 
8
Step 40000
1 1  6.507285418256e-05   2.468927546881e-04  -2.952815087952e-04 
2 1  2.857811707904e-05   9.485910798363e-05  -1.190980553602e-04 
3 1  2.196275927653e-04   3.902181528251e-05  -2.393489373615e-04 
4 1 -1.477297398502e-04  -8.485397361476e-05  -2.161062094794e-04 
5 1 -2.315786629715e-04  -1.534351204167e-04   1.277796456956e-04 
6 1 -3.911104597719e-05  -6.806624346606e-05  -9.610920087958e-05 
7 1 -1.327718435959e-04  -1.497301094310e-04  -2.126422374176e-04 
8 1 -6.079908880687e-05  -1.230290745235e-05  -1.025146054811e-04 
8
Step 41000
1 1 -7.105576594140e-05   2.042973775644e-04  -4.735607224662e-05 
2 1 -1.539710967326e-04   1.561483920571e-04   8.459370999588e-05 
3 1  2.652256208307e-04  -1.625629969485e-05  -4.164306510276e-05 
4 1 -2.000281481017e-04  -1.304233949801e-04  -1.799459551529e-05 
5 1 -1.687867932515e-04  -1.302132462770e-04  -6.989419580070e-06 
6 1 -8.605265654962e-05  -2.638466103405e-04  -7.706843574227e-05 
7 1 -3.327272267141e-04   8.571779541954e-05   3.736541358468e-05 
8 1 -3.798118223390e-06  -7.101161249631e-05  -6.694660205374e-05 
8
Step 42000
1 1 -1.339512928621e-04   1.330490487013e-05   9.487627627822e-05 
2 1 -8.673555345940e-05  -4.239731330106e-05   2.115553832059e-04 
3 1  3.251273823240e-05  -3.075052175602e-05   1.720299103583e-04 
4 1 -1.630545516418e-05  -7.523001487577e-05   2.206898997274e-04 
5 1  7.012297114304e-05   7.726276527736e-06  -6.814703700632e-05 
6 1 -1.420068263370e-05  -2.445447722210e-04   8.267388642157e-05 
7 1 -2.242986023862e-04   2.299014280781e-04   1.928524965004e-04 
8 1  4.831375007994e-05  -1.079411113274e-04   6.068713347230e-05 
8
Step 43000
1 1 -7.682545358956e-06  -1.368479050520e-04   5.382072991299e-05 
2 1  1.254949454179e-04  -3.191579336687e-04   8.047390132232e-05 
3 1 -2.008897187440e-04  -5.080569159554e-05   1.267748967702e-04 
4 1  1.158464952938e-04   9.217924357622e-05   1.535664034901e-04 
5 1  1.940943133517e-04   7.459991087935e-05  -5.696668528200e-06 
6 1  6.833359490333e-05   3.842509719162e-05   1.996204128416e-04 
7 1  1.074673696953e-04   1.337337837648e-04   9.256021531375e-05 
8 1 -2.762032417038e-05   5.600774548928e-06   5.572073999872e-05 
8
Step 44000
1 1  1.442807774084e-04  -1.273539606838e-04  -4.118442266818e-05 
2 1  1.627627984351e-04  -2.073806463069e-04  -1.653364782546e-04 
3 1 -1.666745548435e-04  -9.864058278168e-05  -3.360745441957e-05 
4 1 -1.114656314011e-05   2.130582646648e-04  -1.585751726337e-04 
5 1  3.148402320982e-05  -1.529533592463e-05   8.783436538678e-05 
6 1  1.212144512912e-05   2.284627573282e-04   4.092417409600e-05 
7 1  3.331935933776e-04  -8.442093620734e-05  -6.914979893787e-05 
8 1 -1.217235121550e-04   1.565269446527e-04  -3.534256654229e-05 
8
Step 45000
1 1  1.008317794724e-04  -6.541711993432e-05  -7.196054353407e-06 
2 1 -5.850285844645e-06   9.904531580680e-05  -1.886610793981e-04 
3 1  8.327038807726e-05  -3.103382896342e-05  -5.794204886670e-05 
4 1 -2.147234269266e-04   1.655094990501e-04  -2.871802890357e-04 
5 1 -1.701801056675e-04  -1.096173903418e-04   1.731757444993e-05 
6 1 -1.073918013269e-04   9.188238826570e-05  -2.161898718867e-04 
7 1  2.286467988166e-04  -1.994704439937e-04  -6.507665608474e-05 
8 1 -1.515491834566e-04   2.081582244136e-04  -3.048855554283e-05 
8
Step 46000
1 1 -1.188621526500e-04  -5.150452628666e-07   1.468239875643e-04 
2 1 -2.061365899931e-04   2.894030350554e-04   9.207218378339e-06 
3 1  2.318220048880e-04   7.587877215830e-05   4.464524926116e-05 
4 1 -1.658937970352e-04  -6.144458219354e-05  -8.233427448944e-05 
5 1 -7.070239128650e-05  -4.492582769051e-05  -1.185104376991e-04 
6 1 -8.148523866979e-05  -1.398659791850e-04  -2.052320937332e-04 
7 1 -7.927028615817e-05  -9.890441526427e-05   5.702776150878e-05 
8 1 -1.035004655273e-05   3.089225754968e-06   1.207280875856e-04 
8
Step 47000
1 1 -1.853517350579e-04   8.147946746656e-05   1.381612489545e-04 
2 1 -1.641187322670e-04   1.543727393765e-04   1.687229602075e-04 
3 1  6.300892746365e-05   1.005863841581e-04   1.068548879789e-04 
4 1  1.652571445101e-04  -2.408381523379e-04   2.704810780911e-04 
5 1  2.191490301840e-04   1.159352846584e-04  -9.763245721855e-05 
6 1  7.774490208553e-05  -1.815932331083e-04   6.018094875403e-05 
7 1 -2.825150049214e-04   1.242222808610e-04   7.295080698641e-05 
8 1  1.727565880145e-04  -1.968586541554e-04   1.534793218707e-04 
8
Step 48000
1 1 -3.967751911656e-05   6.370215279189e-05   4.713103860312e-06 
2 1  6.860675562950e-05  -7.743239428013e-05   8.315395554228e-05 
3 1 -1.754038920809e-04   5.758434075937e-05   1.017138871018e-05 
4 1  3.382237169079e-04  -1.449592823523e-04   2.240237650505e-04 
5 1  3.165987269751e-04   1.898396360502e-04   3.308889598944e-05 
6 1  2.038978202025e-04   7.547779622817e-05   2.540293865942e-04 
7 1 -1.739590853522e-04   2.201687621700e-04  -3.546817134876e-05 
8 1  1.676233235000e-04  -1.580331109939e-04  -2.001690828539e-05 
8
Step 49000
1 1  1.471684147125e-04   5.297881214005e-05  -9.392594762748e-05 
2 1  2.248075162801e-04  -1.502725206419e-04  -1.241100535947e-04 
3 1 -1.610374002351e-04   2.453450701380e-05  -2.156979144365e-04 
4 1  1.187786892108e-04   8.933556353376e-06  -3.336241495125e-05 
5 1  3.408147009460e-06   6.895069473930e-05   1.060847958622e-04 
6 1  1.008810060883e-04   3.052009772658e-04   9.450987726847e-05 
7 1  3.811495035700e-05   1.303052988983e-04  -1.875824428179e-04 
8 1  2.651581306517e-05   8.076483049034e-05  -1.722029774468e-04 
8
Step 50000
1 1  2.195539552310e-04  -3.906177044782e-06  -1.290074806922e-04 
2 1  1.165125997616e-04   1.036567384032e-05  -1.060751084986e-04 
3 1 -3.353536472624e-05  -7.720834837025e-05  -2.484909908799e-04 
4 1 -1.572474113439e-04   1.646230353174e-04  -8.222577310305e-05 
5 1 -3.895465460665e-04  -9.507410326081e-05   2.028830387286e-05 
6 1 -1.330737712692e-04   1.934292037342e-04  -2.158213027347e-04 
7 1  2.238296593673e-04  -1.839232969508e-04  -9.316155358311e-05 
8 1 -1.596500100096e-04   2.445142792159e-04  -2.373158000146e-04 
8
Step 51000
1 1  4.759822766208e-05  -1.433853040407e-04   3.949425239858e-05 
2 1 -7.737533374811e-05   1.411496577608e-04   5.036088758754e-05 
3 1  1.421826429938e-04  -1.561427242606e-04  -1.861045136974e-05 
4 1 -2.061721426314e-04   2.099937995699e-04  -2.376924979962e-06 
5 1 -3.940195331705e-04  -1.875204705534e-04  -9.911827577256e-05 
6 1 -2.225399009720e-04  -1.480294952616e-04  -2.468670957794e-04 
7 1  1.891374258325e-04  -3.708855515297e-04   1.300267162953e-04 
8 1 -1.154871990960e-04   1.117738360397e-04  -3.186747308836e-05 
8
Step 52000
1 1 -1.656628801210e-04  -1.091989229404e-04   1.041582171351e-04 
2 1 -1.288439373092e-04  -1.263104495206e-05   1.306023515349e-04 
3 1  1.845758645551e-04  -1.576886145945e-05   3.043788532292e-04 
4 1 -3.085358799505e-05  -3.475292911141e-05  -8.940573487287e-06 
5 1  5.248146161618e-06  -9.158199580429e-05  -4.717839629368e-05 
6 1 -6.371695052013e-05  -3.265961237556e-04   6.622613633641e-05 
7 1  8.025044305595e-06  -1.784934103378e-04   2.084230333053e-04 
8 1  1.049597626907e-04  -2.126714066977e-04   1.886343744340e-04 
8
Step 53000
1 1 -1.477821354376e-04   8.491343342411e-05  -8.649110155682e-05 
2 1 -4.763379984825e-05  -2.100049114470e-04  -2.862392282497e-05 
3 1 -5.233255267462e-06   9.811987324408e-05   3.767826703558e-04 
4 1  1.794289785555e-04  -2.143807476804e-04  -2.022566649113e-05 
5 1  3.493378264611e-04   8.323697925732e-05   6.830681518632e-05 
6 1  1.317258218622e-04  -1.414131666308e-04   3.087125847142e-04 
7 1 -1.751552300911e-04   2.169710580422e-04   5.171335346346e-05 
8 1  1.738957518340e-04  -2.888454204938e-04   1.758786670853e-04 
8
Step 54000
1 1  1.506293860167e-05   2.291776912282e-04  -2.284026586993e-04 
2 1  1.483061738827e-05  -1.379799822633e-04  -1.983633772484e-04 
3 1 -1.875552192672e-04   1.217084655207e-04   1.181522406433e-04 
4 1  7.642914861620e-05  -1.278084309642e-04  -2.810929294861e-05 
5 1  3.218438653568e-04   1.581226316655e-04   1.221275781509e-04 