8
Step 0
1 1  0.000000000000e+00   0.000000000000e+00   0.000000000000e+00 
2 1  0.000000000000e+00   0.000000000000e+00   0.000000000000e+00 
3 1  0.000000000000e+00   0.000000000000e+00   0.000000000000e+00 
4 1  0.000000000000e+00   0.000000000000e+00   0.000000000000e+00 
5 1  0.000000000000e+00   0.000000000000e+00   0.000000000000e+00 
6 1  0.000000000000e+00   0.000000000000e+00   0.000000000000e+00 
7 1  0.000000000000e+00   0.000000000000e+00   0.000000000000e+00 
8 1  0.000000000000e+00   0.000000000000e+00   0.000000000000e+00 
8
Step 1000
1 1 -1.501358995565e-04  -7.466882057532e-06  -9.724951974988e-05 
2 1 -2.396994250760e-04  -2.198480767824e-05   1.302279297957e-04 
3 1  1.117744725682e-04   1.276579414469e-04  -8.311298948689e-06 
4 1  1.381170451987e-04  -3.810830913391e-04   5.104762619545e-04 
5 1  1.116414224184e-05   2.760535227163e-04  -2.468058473416e-04 
6 1 -2.333971866775e-04   4.583126404916e-05  -3.113142319999e-04 
7 1 -1.082935739130e-04  -1.285827852747e-04  -5.905054056268e-05 
8 1 -2.171937500748e-04  -2.085146263404e-04   3.017708071606e-05 
8
Step 2000
1 1 -1.438671433748e-04  -7.964425335126e-05  -8.757018184064e-06 
2 1 -8.391364270801e-05   1.997670135742e-04  -4.409523047323e-05 
3 1 -2.615862936067e-05   2.810340721236e-04   1.730373808083e-05 
4 1  1.114613880305e-04   6.680228590123e-05   2.653926259132e-04 
5 1 -3.458774057616e-04   1.976859838095e-04  -2.274856484465e-04 
6 1 -2.272197717684e-05  -1.547970975619e-04  -2.087588677341e-04 
7 1  2.360101620789e-05  -3.825007850413e-05   7.084239079299e-05 
8 1  1.913594051080e-04  -3.709164807823e-04   1.051710620765e-04 
8
Step 3000
1 1 -1.492924603076e-04  -9.045759206999e-05  -1.674859090600e-05 
2 1 -1.784460223288e-04   1.227038418756e-04   1.567605698750e-04 
3 1 -2.474848620412e-05   2.578308787416e-04   5.893607632898e-05 
4 1 -1.795337093251e-05   4.111258842134e-05   2.874364951841e-04 
5 1 -3.779127269888e-05   1.186241628420e-04  -2.079843119073e-04 
6 1 -3.289307559387e-04  -2.379144466902e-04  -2.848591266946e-04 
7 1 -2.557201578269e-04  -1.584141552570e-04  -6.334481365344e-05 
8 1  1.437572346581e-04  -4.331610637230e-04   1.198178246441e-04 
8
Step 4000
1 1 -1.783793244697e-04   5.616363347375e-05  -7.280052163893e-05 
2 1 -3.932245437092e-05   2.091129013378e-04  -2.668401508519e-06 
3 1  1.516766018738e-04   2.143232564391e-04  -8.382699741516e-05 
4 1 -2.652411966459e-04   8.535092106392e-05   5.967195760467e-05 
5 1  1.394515601652e-04   2.076605586714e-06   6.453141803355e-05 
6 1 -1.533092381163e-04  -1.936910173746e-05  -8.265579703852e-05 
7 1  9.306387724676e-05  -2.604632810285e-04   5.658478223627e-05 
8 1 -9.380152195766e-05  -1.814904017754e-04   1.497156923531e-04 
8
Step 5000
1 1 -2.026629813410e-05  -2.120690509562e-05   8.561910670679e-05 
2 1 -1.837102241537e-04   1.507039925892e-04   1.713180674238e-04 
3 1 -8.906622859608e-05   1.531899538951e-04  -1.257546587432e-04 
4 1  1.450699322293e-05   2.184891701948e-04   2.025408397016e-04 
5 1  1.611276238049e-05   5.124060374518e-05  -2.118467272903e-05 
6 1 -1.133177343080e-04  -7.878390019614e-06  -1.738908636970e-04 
7 1  7.803004484733e-05  -3.831742303541e-04  -1.312771345923e-05 
8 1 -7.427165201100e-06  -2.143607599443e-04   1.313977951516e-04 
8
Step 6000
1 1 -5.333837187609e-05   1.663017550276e-04  -4.304724131805e-05 
2 1 -4.985163416719e-05   3.013052527307e-05   5.854100023713e-05 
3 1 -1.645249835894e-05   3.175824435129e-05  -1.442639228559e-04 
4 1  9.641845554357e-06  -1.299240044340e-04  -1.885222797320e-05 
5 1  5.608386108062e-05   8.240337814633e-05   1.656457777106e-04 
6 1  2.480148194949e-05   4.237375667196e-05   9.828720904922e-05 
7 1 -8.806023800555e-05   7.910432092415e-05   5.287196258312e-05 
8 1  8.191288183042e-05  -1.906187065525e-04   8.093829929730e-05 
8
Step 7000
1 1 -7.835160860601e-05  -3.854389367212e-05  -6.694853948873e-05 
2 1 -1.515922053698e-04   9.515800616835e-05   1.596482868052e-04 
3 1  1.237071298842e-04   4.312094826383e-05   5.424600821252e-05 
4 1 -3.407430335745e-05   1.388505254281e-04  -2.676015092954e-04 
5 1 -1.276738664359e-04   6.548382989455e-05   1.849874632514e-04 
6 1  2.102005212793e-04  -1.443132860777e-04   1.211152135798e-04 
7 1  1.005876225268e-04   1.164559457896e-04   1.024170507300e-04 
8 1  1.596524669982e-04  -2.091832367330e-04   1.029666133206e-04 
8
Step 8000
1 1 -6.940562949617e-05   8.383375365673e-05  -8.768308588309e-05 
2 1  7.718002726976e-05  -2.779759676538e-05   3.607128982798e-05 
3 1  6.536202983232e-05  -3.887228517941e-04  -1.070989767044e-04 
4 1  3.493753529758e-05  -1.808675389891e-05  -8.795449281746e-05 
5 1 -5.009725065413e-05  -1.559201368704e-04   2.557229906679e-04 
6 1  7.327138730518e-06   1.456226869869e-04   2.061791789759e-04 
7 1  5.898650966194e-05   1.027346973295e-04   8.416986342160e-05 
8 1 -8.170534932468e-06   9.973357370148e-05   5.609417713744e-05 
8
Step 9000
1 1 -1.674327090417e-04   7.544669674687e-05  -3.113827738078e-05 
2 1  2.005137074848e-04  -8.846917139305e-05   1.902313567465e-05 
3 1  3.424557154706e-04  -5.610453044474e-06   1.066077699623e-04 
4 1  1.214684285555e-05   7.182270067075e-05  -1.955128541978e-04 
5 1  1.687830079601e-04  -1.662887183080e-04   8.789087773062e-05 
6 1 -5.715423338419e-05   2.420599295532e-04   1.774987772679e-04 
7 1  2.564994872081e-04   4.361538388620e-05   5.442096519272e-05 
8 1  1.222597334595e-04   1.143754918911e-04   8.431394960085e-05 
8
Step 10000
1 1 -3.452001973770e-05   1.420201681457e-04   7.080994146020e-05 
2 1  2.652060842962e-04  -2.082681184060e-04  -1.082839288948e-04 
3 1  1.692040508619e-04  -3.425889928601e-04  -6.955237266825e-05 
4 1 -1.986196991712e-04  -4.519154398716e-05  -2.259258491755e-04 
5 1  1.604472074692e-05  -1.863797086051e-04   3.600065642019e-04 
6 1 -8.447673682516e-06  -4.652068732892e-05   9.317460309767e-05 
7 1 -5.013599441689e-05   2.746620292671e-04  -1.247686499748e-04 
8 1 -3.317520506223e-05   4.798027611813e-05   8.834349527191e-05 
8
Step 11000
1 1  2.958297654691e-05   1.805650948524e-04  -5.090598284940e-05 
2 1  2.601223082548e-04  -5.229369521061e-06  -6.458942217302e-05 
3 1  3.138354140442e-04  -2.267459089706e-04   5.537793964375e-05 
4 1 -3.344650809688e-06  -6.254084133550e-05  -2.963220537180e-04 
5 1 -1.828216692581e-05  -1.196413820074e-04   2.547192235618e-04 
6 1  3.406624389139e-04  -3.300688797706e-05  -1.319410572309e-06 
7 1 -1.099441622382e-04   3.668239542193e-04  -6.475204235183e-05 
8 1  6.471271018761e-05   1.525174983100e-04  -1.007396144406e-05 
8
Step 12000
1 1  3.933690031236e-04  -2.884513616007e-06   1.269523700988e-04 
2 1  5.280340806670e-05  -8.135379001213e-05  -3.513203553341e-05 
3 1  7.271788593021e-05  -8.599735663773e-05   8.401517824955e-05 
4 1 -3.065267239235e-04   5.453618170979e-05  -4.094012921017e-04 
5 1 -5.100040838986e-05  -2.305670105943e-04   1.769767329691e-04 
6 1  8.563898189828e-05   1.096286417459e-04   1.546842735007e-04 
7 1 -1.647312659370e-04  -3.964926077340e-05  -1.587053243332e-04 
8 1 -9.488269975785e-05   9.340434717414e-05  -3.103949387667e-04 
8
Step 13000
1 1  3.487191120058e-04   1.417741005972e-04   1.852522785626e-05 
2 1  2.038652248899e-04  -5.839996854935e-05  -9.523554922141e-05 
3 1 -6.986120316814e-05  -7.844758784190e-05   1.320051968217e-04 
4 1 -9.626724023187e-05  -6.219079999191e-05  -1.363309866623e-04 
5 1  1.522723549309e-04  -2.312689738619e-04   7.158489164223e-05 
6 1  5.532862943482e-05   2.899057817347e-04   1.350159723297e-04 
7 1  1.159935465481e-04   2.294806060218e-04  -2.903414881816e-04 
8 1 -1.308083505470e-04   2.385431171094e-04  -2.592892803538e-04 
8
Step 14000
1 1  3.031214932454e-04  -2.247948538991e-04   1.025559486305e-04 
2 1 -4.731651721058e-06   2.967703634208e-05  -8.776130622699e-05 
3 1 -1.707576957237e-04   1.095944623388e-04   1.653945765921e-04 
4 1 -4.999016187810e-05   2.425596918861e-06  -4.013229260389e-04 
5 1 -2.301595958945e-04  -1.719341022513e-04  -8.501544407462e-05 
6 1  2.939961366357e-05  -3.826924416163e-05  -5.152992326976e-05 
7 1 -1.204305351463e-04   1.531578388152e-04  -2.073791536410e-04 
8 1 -1.635249112574e-04   5.980723929013e-05  -2.270474888241e-04 
8
Step 15000
1 1  1.358330399337e-04  -5.891511161706e-05   2.813462739498e-06 
2 1  1.480015776361e-04  -2.889555263195e-04  -1.467220806338e-04 
3 1 -1.038220897570e-04   1.219183495245e-04   1.069159577033e-04 
4 1 -2.352008987492e-04   7.493518240307e-06  -3.548955872327e-04 
5 1 -1.716945637697e-04  -2.129332954907e-04   8.688105350381e-05 
6 1  1.360255239349e-04  -1.157022163370e-05  -9.577467380764e-05 
7 1 -1.552576842831e-04   3.042410905507e-04  -1.831203417302e-04 
8 1  7.690982116679e-05   2.083830766978e-04  -2.550441135330e-04 
8
Step 16000
1 1 -1.584835730212e-04  -2.329924026198e-04  -1.380476551226e-06 
2 1  1.379448232869e-04  -7.811686977920e-05  -8.286325845841e-05 
3 1 -2.409485729996e-06   1.371227959465e-04   7.227041227316e-05 
4 1 -8.357583006264e-05   1.915513152705e-04  -4.154021298518e-04 
5 1 -1.704726050522e-04  -2.063600919048e-04  -6.484073570709e-05 
6 1  8.821627731147e-06  -1.199472747678e-04  -1.366197887288e-04 
7 1 -1.714197437912e-05   2.100870979804e-04  -1.788299272051e-04 
8 1 -5.574724410674e-05   3.056210120951e-04   7.927670197634e-05 
8
Step 17000
1 1  4.452944088902e-06  -7.408899041886e-05   1.305763406788e-04 
2 1 -1.719169442805e-04  -2.001593272574e-04  -2.169642655992e-04 
3 1 -1.363044832414e-04  -1.211299832660e-04   1.562907050658e-04 
4 1 -1.946606813628e-04   2.010881500671e-04  -2.454917905253e-04 
5 1 -2.225319594186e-04   2.744859576679e-06  -6.792844782932e-05 
6 1  8.624964997789e-05   4.806359516360e-05  -1.312710961220e-04 
7 1  1.056885424987e-05   4.576570830077e-06  -2.524999802593e-04 
8 1 -1.949290921627e-04   9.802645538881e-05   5.447054743600e-05 
8
Step 18000
1 1  3.178802161087e-05   8.128949881119e-05   2.348274933820e-04 
2 1 -6.318897215741e-05  -2.345654077139e-04  -1.842215275755e-04 
3 1 -2.649843682272e-04   1.298057735570e-04   5.314965676751e-06 
4 1 -1.034464551971e-05   1.357101972810e-04  -1.224308455458e-04 
5 1 -1.470227714553e-05  -1.603337799674e-04  -7.262341122027e-05 
6 1  4.984389949276e-06   2.002312153618e-04  -2.572561246239e-05 
7 1  2.715798502139e-05  -6.273090844938e-05  -3.624630444585e-05 
8 1  3.222359548880e-06   1.988150658522e-04  -5.829928612075e-05 
8
Step 19000
1 1  1.362676294632e-04  -1.112835489839e-04   1.203756849242e-04 
2 1 -1.370592793090e-04  -9.005087102561e-05   3.567063000597e-06 
3 1 -4.424861495640e-04   1.012053031472e-04  -1.844956620302e-07 
4 1 -3.493519394672e-05  -1.247374986407e-05  -4.028178921884e-05 
5 1 -2.840584621259e-05   5.530787929834e-05  -8.521939386770e-05 
6 1 -1.313426281453e-04   4.055722558741e-05  -2.285353659498e-05 
7 1 -9.586127518507e-05  -1.672717712624e-04  -2.929391731510e-05 
8 1  5.151760620858e-05   9.838766337281e-06   7.964861748825e-05 
8
Step 20000
1 1 -4.968838854100e-05   1.205768625904e-04   4.465778170918e-05 
2 1 -1.656628436466e-05   8.178380565186e-05  -8.877368753991e-05 
3 1  4.275233160726e-05   8.889612853636e-05   2.585422224152e-04 
4 1 -4.519243644317e-05   1.391840137873e-04   2.071745573110e-06 
5 1  1.353504680430e-05   8.218578599258e-05   1.449287072531e-04 
6 1  3.037772548886e-04  -2.037341171668e-04   1.881197098276e-05 
7 1  8.345748254064e-06   1.360651152932e-04  -2.033432269170e-05 
8 1  9.336120401627e-05  -2.742997778127e-06   1.993148616788e-04 
8
Step 21000
1 1 -1.535144808544e-04   9.360438594188e-05   7.120069296975e-06 
2 1  4.436983454697e-05  -5.720230880636e-05   2.006988450384e-04 
3 1 -1.010824013110e-04   8.932114359673e-05   2.150252196515e-04 
4 1  1.009447971557e-04   2.525342270115e-05   7.410682244149e-05 
5 1 -8.053249322902e-05  -1.723362473523e-04   1.066798793150e-04 
6 1  1.533061007583e-05  -1.029562202645e-04  -1.934195733633e-04 
7 1 -1.699083839972e-04  -1.147964025655e-04   6.274476093518e-06 
8 1 -5.196828554626e-05  -1.531802348774e-04   1.748090158460e-04 
8
Step 22000
1 1 -7.635245800678e-05   2.213155770198e-04   3.291972566227e-05 
2 1  7.984070014950e-05   4.642875267697e-05   9.472075132664e-05 
3 1  2.093769410682e-04   8.556927395390e-05   2.027318942900e-04 
4 1  9.390517624488e-05   1.742658951801e-04   2.434424085406e-04 
5 1  1.340923124648e-04  -1.080645418272e-04   4.898837733142e-06 
6 1  1.205829290867e-04  -3.758602177711e-05  -9.574731420829e-05 
7 1  1.460719243334e-04  -3.524811299906e-04   5.795052530266e-05 
8 1  1.250922074321e-04   8.689793195828e-05   3.160451979800e-04 
8
Step 23000
1 1 -1.454874510985e-04   1.788270674117e-04   9.651603870431e-05 
2 1  5.629621028937e-05  -9.548137542715e-05   1.460613723480e-05 
3 1  2.297265757020e-04  -1.647429386196e-04   2.307638518297e-04 
4 1  3.263746234869e-05  -4.251932759603e-05   2.572840447358e-04 
5 1 -1.739797380414e-05  -1.258051510868e-05  -2.224091320201e-04 
6 1  1.061210041208e-04  -1.030174414649e-04   4.963194389376e-05 
7 1 -5.944747896708e-05  -1.954703251246e-04   9.794449777184e-05 
8 1  7.428535034036e-06  -1.135221980313e-04   2.068888841749e-04 
8
Step 24000
1 1 -2.366791706898e-05   1.103106521829e-04   7.890968679478e-06 
2 1 -5.795451803314e-05   3.955514754207e-05   1.257799555195e-04 
3 1  1.047540660420e-04   1.250614072679e-04   1.195941844147e-04 
4 1  3.845232973462e-04  -9.556261532938e-05   2.239600672276e-04 
5 1  1.537354094427e-04   1.856705605208e-04  -1.196756782603e-04 
6 1  2.235959673071e-04   3.301377693035e-05  -8.066634553836e-05 
7 1 -1.766014084086e-07  -1.611259637932e-04   1.563874674574e-04 
8 1  3.030341179797e-04  -4.035236647919e-04   2.257930072269e-04 
8
Step 25000
1 1 -1.040708129036e-04   1.525895124527e-04  -1.487915685845e-04 
2 1 -8.035531554181e-05  -7.898374674681e-05   9.206403198748e-06 
3 1  1.605236180130e-04  -2.970351915962e-04   3.975584649931e-05 
4 1  9.947947840577e-05  -1.028444175251e-04  -1.359840913518e-05 
5 1  1.126944997594e-04   3.155080994390e-04   4.879729287813e-06 
6 1  7.983737334834e-05  -4.873956704171e-05   8.201176415010e-05 
7 1  2.063898769397e-05  -1.873882876968e-04   8.877168929417e-05 
8 1  1.989106124954e-04  -2.557602674654e-04   8.419862215557e-05 
8
Step 26000
1 1  1.089179524091e-04  -9.657957279318e-05  -3.275564242262e-04 
2 1  3.042864622412e-06  -4.222253900292e-05   2.296543072482e-04 
3 1  1.162849547393e-04  -2.851340015632e-04  -2.515311323895e-04 
4 1  9.666991117587e-05   1.195465195652e-04   7.387963542202e-05 
5 1  1.048879517134e-04   2.135773669492e-04  -2.428380888884e-04 
6 1  2.951685201768e-04   1.160640459463e-04  -3.018988231098e-05 
7 1  4.677293388738e-05  -3.367892110774e-04   1.166567572626e-04 
8 1 -1.546413762244e-04  -2.074087307960e-04   9.728870205246e-05 
8
Step 27000
1 1 -2.457395324162e-05  -2.193540785314e-05  -4.773467311570e-04 
2 1  1.037609218113e-05  -8.991665344291e-05  -5.574519979197e-05 
3 1  1.996690032050e-04   3.619641438365e-05  -2.561208599121e-04 
4 1 -4.357512683609e-06  -5.437958791754e-05   1.149058412901e-04 
5 1 -6.074719489453e-06   1.151607557690e-04  -1.508035871511e-04 
6 1  2.301344045933e-04   2.242677900022e-04   8.682951117936e-05 
7 1  4.099334544006e-05  -9.662021523256e-05   1.335593484385e-04 
8 1  9.888036780478e-05  -1.754612881027e-04   9.480194619578e-05 
8
Step 28000
1 1  3.534860004153e-05  -3.598475645565e-05  -1.859341002455e-04 
2 1  5.307723090583e-05  -9.294739351207e-06  -4.000391433471e-05 
3 1  3.448681886364e-05  -2.264831285199e-04  -2.164284020932e-04 
4 1 -2.320908498570e-04  -1.567727504020e-04   5.605520488437e-05 
5 1  4.721819414307e-05   2.941396293409e-04  -3.885234863856e-04 
6 1 -2.148503491978e-05  -1.373722957407e-04  -3.944819896951e-05 
7 1 -1.383105932188e-04  -1.915653260160e-05   7.998457336836e-05 
8 1 -1.129188325100e-04  -1.128466503038e-04  -2.433594037735e-04 
8
Step 29000
1 1  2.698746591221e-05  -7.870213931531e-05  -3.949313613448e-04 
2 1 -1.447388511253e-04   2.561713787609e-04  -1.820622442162e-04 
3 1  7.368058206789e-05  -4.972514401693e-05  -2.000842217680e-04 
4 1  1.956938698379e-04  -3.545755806403e-06   2.553462632610e-04 
5 1 -5.207799414438e-05   1.534781570040e-04  -9.288895597186e-05 
6 1  9.084651076799e-05  -1.254165250458e-04  -4.548040623671e-05 
7 1 -5.621428175879e-06   1.809947523202e-04  -1.237966884477e-06 
8 1 -1.651595083066e-04  -1.723327833324e-04  -1.912330400845e-04 
8
Step 30000
1 1  1.031459867627e-04   1.242537656256e-04   1.075408021500e-05 
2 1 -1.629797348886e-04   1.069545798323e-04  -9.913136318192e-07 
3 1 -1.860475251088e-05  -3.305384405246e-04  -1.410373281221e-04 
4 1 -5.443602049431e-05  -2.454419873400e-04  -1.743718147639e-04 
5 1 -3.198724382176e-04   2.166683049442e-05  -1.107845871114e-04 
6 1 -1.067509419867e-04   5.884094045847e-05   7.432974060727e-05 
7 1 -3.580897610450e-04  -4.439156278243e-05  -1.818316676804e-04 
8 1 -1.263984253709e-04   1.517132524657e-06  -3.024966743993e-04 
8
Step 31000
1 1  1.296730197009e-04   8.649683973339e-05  -2.101381428342e-04 
2 1 -2.857898946416e-04   2.351986770070e-04   8.388928976875e-05 
3 1  1.075225495221e-04  -1.114700652600e-04  -1.471107740783e-04 
4 1  2.183403142621e-05  -1.065491270232e-05   8.097280290153e-05 
5 1  1.502454430417e-04   5.394624363871e-05   3.852401289832e-06 
6 1 -1.313376141623e-04  -1.335685095064e-04   1.888563111023e-04 
7 1 -2.547170584804e-04  -5.134214410892e-06  -1.088101735064e-04 
8 1 -2.037486047839e-04   2.617356460608e-04  -3.179059640576e-04 
8
Step 32000
1 1 -1.014790806896e-04   2.681870008080e-04   1.602019213553e-04 
2 1 -2.333763192673e-04  -4.995119663571e-05   1.058873547223e-04 
3 1  1.817961417062e-05  -7.518388145005e-05  -2.223316958994e-04 
4 1 -1.077426699624e-04  -2.665399870738e-04   1.829019320183e-04 
5 1 -1.542818271167e-04  -2.122103270470e-04  -1.676976731469e-04 
6 1 -3.259177852983e-04   2.146540645120e-05   9.635462400153e-05 
7 1 -1.712868564009e-04   3.133405313102e-04  -7.213587821011e-05 
8 1 -4.386226427536e-04   1.270158190378e-05  -3.095740391459e-04 
8
Step 33000
1 1  2.089616063721e-05   1.177335418464e-04   5.288425927558e-05 
2 1  2.614039059251e-05  -8.613181883058e-06   1.117225968761e-04 
3 1 -1.355280649768e-04   1.323804123229e-04  -1.054497334058e-04 
4 1 -1.632626261834e-04  -1.317987211265e-04  -5.710780877670e-05 
5 1  1.606147158050e-05  -9.578681993514e-05   2.995264103518e-04 
6 1 -4.409617666080e-05   5.328728285698e-05   2.675112649354e-04 
7 1 -2.672816314177e-04   2.338343376059e-04  -6.187634391597e-05 
8 1 -1.934523249337e-04   9.561598411041e-05  -2.141911833404e-04 
8
Step 34000
1 1 -1.697244609310e-04   8.859520129501e-05   1.841162316366e-04 
2 1 -1.208010314835e-04   2.808781764964e-05   2.008710658005e-05 
3 1 -1.413922877377e-04  -1.645619641202e-04   1.105713741287e-04 
4 1 -1.170726046640e-04  -1.511725413569e-04   1.141733474644e-04 
5 1 -1.870152388224e-05   7.967033774360e-05   1.296968531093e-04 
6 1  2.855979585697e-05   4.425136354187e-05   8.544638846815e-05 
7 1 -1.580659741135e-04   1.103884185667e-04   1.148870813974e-04 
8 1 -1.198139935857e-04   1.117168833818e-04  -1.119710568840e-05 
8
Step 35000
1 1 -3.457040172299e-06  -1.012216903319e-04   2.991199618295e-04 
2 1 -7.856680525897e-05   1.016902524755e-04   7.974717372379e-05 
3 1 -5.641762472900e-05  -9.208353214914e-05  -1.823544768033e-04 
4 1 -1.427267301772e-04  -2.179326721917e-05   1.752790902109e-04 
5 1 -2.087955834359e-04  -2.107176547718e-05   1.397365453402e-04 
6 1  1.770332729036e-04   1.829107155710e-04   3.602735619494e-04 
7 1  1.003609514798e-04   1.646633436857e-04   1.984008460795e-04 
8 1 -1.311668006023e-04   1.471855727795e-05  -1.136167720708e-04 
8
Step 36000
1 1 -1.820157427847e-04  -1.918022902607e-04   2.268812532698e-04 
2 1 -3.156040624246e-04  -4.403647989567e-05   3.872836540816e-04 
3 1  5.018515143391e-05   5.540060554645e-05   1.311859722153e-04 
4 1 -6.416891236927e-05   1.290779048673e-04   5.511397102800e-05 
5 1  2.921672677315e-04  -1.427249130973e-04   3.162665380901e-04 
6 1  3.297315551875e-05   8.262729868095e-05   1.481105117456e-04 
7 1  2.033805874465e-04   1.776256313385e-04   5.509677902020e-05 
8 1  7.398756495962e-06  -1.179537779794e-04   6.544127114574e-05 
8
Step 37000
1 1  1.737405293933e-04  -2.255164056839e-04   3.624255382171e-04 
2 1 -3.403149050207e-05  -3.021777447381e-04   7.674646519940e-05 
3 1 -1.896811305746e-05   1.516649007789e-04   8.491306590009e-05 
4 1 -9.168851190445e-05   2.467646098769e-05  -8.970602032287e-05 
5 1  1.409467798458e-04   2.648500273917e-05   9.854203000840e-05 
6 1 -1.240754864284e-05   2.344778285085e-05   2.454810300950e-04 
7 1  1.588283918105e-04  -7.721339831139e-05   2.658750076256e-04 
8 1  1.938393182393e-05   4.980816829547e-05   1.674928223589e-04 
8
Step 38000
1 1 -3.843854573630e-05  -2.346004591371e-04   1.759906912241e-06 
2 1  1.167129098511e-04  -1.951541119411e-04   3.496854469879e-04 
3 1 -1.840327882536e-04   1.105294337334e-04   3.079059084606e-04 
4 1  1.581972798649e-04   1.322586711050e-04   2.376546191266e-05 
5 1  2.143789043490e-04  -1.136768241486e-04   2.130603836380e-04 
6 1  3.681509705451e-04  -1.110399445303e-05   2.823642224784e-04 
7 1  1.589993059218e-04   1.304322738996e-04   9.179416795896e-05 
8 1  1.691165520677e-04   1.165593343589e-04  -1.124031368252e-05 
8
Step 39000
1 1  1.952414702646e-04  -1.133770513276e-04   2.037710795515e-04 
2 1 -5.955575135216e-05  -7.071736836836e-05  -1.351019189088e-04 
3 1 -6.264809675769e-05  -1.797760435515e-04   1.787222628816e-04 
4 1  5.744329408119e-05   9.612328170136e-05  -1.636695193038e-04 
5 1  1.500383302798e-04  -1.618830503235e-04   9.004159815928e-05 
6 1  1.231363993711e-04  -1.386758534277e-05   1.072350371947e-05 
7 1 -1.097411979879e-04   1.039227942136e-04   1.250330586634e-05 
8 1  1.566710680031e-04  -8.500732280070e-05   2.332202438371e-04 
8
Step 40000
1 1  1.153181663350e-05  -1.183372233761e-04   9.616730458323e-05 
2 1  1.508156010675e-04   8.041886909890e-06  -1.330370288887e-04 
3 1  1.187031710631e-04  -2.530164232293e-05   2.648102930215e-04 
4 1  5.038323047739e-05  -1.988084869555e-05   5.124322946652e-05 
5 1  1.847939412290e-04  -7.282273465842e-05  -4.048378132315e-05 
6 1  2.660142924503e-04   1.170758245471e-05  -6.775188880739e-05 
7 1  1.770762284792e-04  -2.387270749960e-05  -7.404932310070e-05 
8 1  1.325737610176e-04   1.692457152920e-04   4.833860924540e-05 
8
Step 41000
1 1 -1.110258495153e-04  -1.974352505052e-05   3.276641117757e-06 
2 1  1.463681503554e-04  -2.282417447546e-05  -4.760940673994e-05 
3 1  6.095484718809e-05   2.536616094570e-04  -2.212632694595e-04 
4 1 -4.811533651411e-05   1.398735311329e-05  -1.579891012823e-04 
5 1  1.971486153646e-05  -2.046380879640e-04   1.718757083101e-05 
6 1  6.738309199058e-06   2.453715426921e-05  -1.878809056089e-04 
7 1  2.180061884040e-04  -2.256875468900e-04   9.773487432573e-05 
8 1 -4.419387746049e-05  -9.272793901849e-05  -9.822488446283e-05 
8
Step 42000
1 1  4.421909574740e-06   9.990306780002e-05  -5.507937275796e-05 
2 1  2.088253372686e-04  -5.667497902198e-05  -1.813055074909e-04 
3 1 -1.016193787614e-04   1.603641965927e-04  -7.941283434108e-05 
4 1 -1.439916029843e-06   1.324841457441e-04  -2.905547097754e-04 
5 1  9.252969705017e-05   4.243360969081e-05  -1.256608953803e-04 
6 1  1.578240619815e-04   1.408457964152e-04  -3.276173751155e-04 
7 1  1.310863750271e-04  -1.857241971449e-04   6.496567226280e-05 
8 1  1.673859544280e-04  -2.132363738035e-04   1.238371010269e-04 
8
Step 43000
1 1 -2.346320943641e-04   7.964923064910e-05  -2.414551535862e-04 
2 1  6.469168554423e-05   4.056276456038e-05  -1.388461196297e-04 
3 1 -3.070951166577e-04   1.236968517717e-04   1.555836180993e-04 
4 1 -4.946547967015e-05   1.496248724469e-04  -5.558283651322e-04 
5 1 -2.311942448958e-04   1.292420429370e-04  -2.216212613808e-04 
6 1  1.226480650672e-04  -2.246879663157e-04  -4.807656153766e-05 
7 1  2.527437790801e-05  -3.589979238061e-04  -1.787832010101e-04 
8 1  1.930511175764e-04   9.036703059476e-05  -2.507274745760e-05 
8
Step 44000
1 1  5.766115246692e-05   2.472246805879e-04  -1.373406966183e-04 
2 1 -4.036817636568e-05  -1.510016737048e-04  -3.490160243324e-04 
3 1 -1.448325086661e-04  -8.083139883587e-05   2.595403727470e-04 
4 1  1.596094038603e-04   3.404592569626e-04  -3.655026206781e-04 
5 1  3.140107513042e-05   1.108933953592e-04  -3.167792643393e-04 
6 1 -2.558503565473e-05   6.469686605198e-05  -2.815457166760e-04 
7 1 -5.613131265186e-05  -3.103731129476e-04  -4.892937957996e-05 
8 1  1.813983484642e-06   7.026956512857e-05   1.234224109686e-05 
8
Step 45000
1 1 -1.285850812847e-04   1.313500884759e-04  -4.396538430897e-04 
2 1  3.759243739957e-05  -2.591892481475e-05  -2.423204610005e-04 
3 1 -1.713504540018e-04   1.291209821710e-04   3.523947277353e-04 
4 1 -1.109439439392e-04   2.686899744031e-04  -3.140667870853e-05 
5 1 -3.946534180685e-05   3.525540258270e-05  -2.918860438712e-04 
6 1 -7.257914698671e-06   2.021713631692e-04  -3.102696706030e-04 
7 1 -9.466627859246e-05  -6.664487518314e-05   2.143264416581e-04 
8 1 -9.335701523531e-05  -1.612314756654e-04   8.387078836348e-05 
8
Step 46000
1 1  6.922152592545e-05   1.434365242768e-04  -1.126864850189e-04 
2 1  1.407294439431e-04  -7.460927427752e-05  -1.377809256449e-04 
3 1 -5.802923687959e-06   1.096251518648e-04   1.008430321596e-04 
4 1  1.376414937909e-04  -5.449417946195e-05   7.788773066901e-05 
5 1 -1.456984335068e-04   1.273120324019e-04  -2.264864714048e-04 
6 1 -1.862095069553e-04   1.055787289777e-04  -3.724134029595e-04 
7 1 -1.529536037590e-04  -4.235773092172e-05   3.459301906791e-05 
8 1 -2.532141644917e-04   8.735769451454e-05  -2.279152471882e-05 
8
Step 47000
1 1  2.894472082223e-05   1.706437292854e-05  -2.561021173375e-04 
2 1  2.181357052894e-04   1.932251798854e-04   1.504405579169e-06 
3 1 -1.209554553903e-04  -8.953420207598e-05   1.301964968193e-04 
4 1  5.104049938230e-05  -1.377293844897e-04   6.244665457659e-05 
5 1 -1.313672739611e-04   6.374415817007e-05   2.403231708767e-04 
6 1 -1.060925206787e-04   3.495711325606e-04  -2.063749122081e-04 
7 1 -3.022188952487e-04  -4.221588448501e-05  -5.392253753065e-05 
8 1 -1.292948152601e-04   2.157489883751e-04   2.255658026216e-04 
8
Step 48000
1 1 -6.800459862830e-05   9.196911744601e-05   8.983789700684e-05 
2 1  2.253649568755e-04   1.609553521014e-04   1.501186050627e-04 
3 1  1.237254895709e-04  -1.882065257891e-04   1.887532452761e-04 
4 1  1.360112155788e-04   8.835387752864e-05  -1.810978172907e-04 
5 1 -2.108554738661e-04  -1.287526260265e-04   2.824179446691e-04 
6 1 -3.170564056192e-04   1.414026027246e-04  -1.556039461322e-05 
7 1 -3.949048698872e-04   7.092664362451e-06  -1.857954322511e-04 
8 1  6.876923320899e-06   2.085077291744e-04   1.380472057275e-05 
8
Step 49000
1 1  1.068915715118e-04   9.926789177175e-06   8.597727657976e-05 
2 1  1.338933817176e-04   1.267970181610e-04  -4.836232435145e-07 
3 1  2.265358152656e-04  -2.993207230164e-05   2.552365538757e-05 
4 1  1.411508433570e-04  -5.217745750297e-05   1.997256018005e-04 
5 1 -1.059450535035e-04   1.640246064962e-04   1.205986598817e-04 
6 1 -4.017248378773e-04   4.985615245567e-05   2.863443232936e-04 
7 1 -9.318573648658e-05   1.404562211461e-05   1.952507450309e-04 
8 1  3.260521509779e-05   2.785284577457e-04   1.365027989896e-04 
8
Step 50000
1 1 -6.156383603968e-05  -8.217425634317e-05   3.112380794357e-04 
2 1 -1.579904702455e-05   2.358406041935e-05  -8.570910878925e-05 
3 1 -1.092555918331e-05  -7.088135827554e-06   2.825413862186e-05 
4 1  2.777878768060e-05  -3.467004622256e-06   2.722041178361e-04 
5 1 -4.883296080917e-05  -4.809202728631e-05  -8.257744104601e-05 
6 1 -1.481217282704e-04  -4.807535755110e-05   1.254202703858e-04 
7 1  4.443720693956e-05  -5.507706044090e-05   1.972982928598e-04 
8 1 -7.222138896125e-05   1.150162921242e-04   1.348058474408e-04 
8
Step 51000
1 1  2.618733101707e-04   1.091885961168e-04   1.321754745271e-04 
2 1 -4.947940180005e-05  -3.567531568796e-05   7.588912243861e-05 
3 1 -2.602703521257e-05  -1.849531758198e-04   2.189911322600e-05 
4 1  2.619065573302e-04   1.222972367058e-04   8.913133202031e-05 
5 1 -2.051536912991e-04   4.136763102961e-05   1.958230950346e-05 
6 1  3.635408840937e-05  -1.419872329065e-04   1.024928636980e-05 
7 1  5.130801327950e-05  -7.272377650053e-05   4.476819539948e-04 
8 1  6.424258139753e-05   9.849277260175e-05   1.076654639284e-04 
8
Step 52000
1 1 -1.847797874954e-04  -1.364096398418e-04   1.591652753842e-04 
2 1 -2.151305439270e-04   3.704253984110e-04  -3.293152712755e-05 
3 1 -1.256891841734e-04  -2.856504356987e-04  -1.101860055442e-05 
4 1  7.159164801313e-05  -2.566805102229e-04   5.124494974936e-05 
5 1  6.519383576840e-05  -8.235160507565e-05   2.027294831820e-04 
6 1  2.481119102545e-04  -1.144776523165e-04  -3.145517573941e-05 
7 1  9.400250500277e-05  -7.196761579631e-05   2.571991156372e-04 
8 1  1.656367989443e-04   1.845141088786e-05   1.238735537014e-04 
8
Step 53000
1 1  6.966482422411e-05  -5.807437976932e-05  -9.544407523196e-05 
2 1 -4.180033945058e-05   9.267111055920e-05   2.164772561085e-05 
3 1  2.070026032483e-05  -1.450030024857e-04  -1.202213066476e-05 
4 1  1.804030985212e-06  -4.007860516707e-05   5.094488781567e-05 
5 1  1.784764376444e-04  -1.355424540330e-05  -1.033129544384e-04 
6 1 -2.749898400861e-06  -1.024563676934e-04   1.268325416563e-04 
7 1  2.200494851125e-04  -2.753266179803e-04  -6.729636309396e-06 
8 1  1.917904170856e-04   2.519730352895e-05   2.995122806104e-04 
8
Step 54000
1 1 -2.804732353718e-04  -2.780911194430e-04  -8.129250238715e-05 
2 1 -2.597639735038e-04  -9.473269139013e-05  -3.223849022811e-05 
3 1  5.160200412141e-05  -2.708204303743e-04  -2.293881206788e-04 
4 1  1.781201466757e-04  -2.509893690647e-04   3.334747747154e-04 
5 1  5.045204596531e-05  -1.677660721895e-04  -4.972522161976e-05 