8
Step 0
1 1 0.00000000000000000e+00 0.00000000000000000e+00 0.00000000000000000e+00
2 1 0.00000000000000000e+00 0.00000000000000000e+00 0.00000000000000000e+00
3 1 0.00000000000000000e+00 0.00000000000000000e+00 0.00000000000000000e+00
4 1 0.00000000000000000e+00 0.00000000000000000e+00 0.00000000000000000e+00
5 1 0.00000000000000000e+00 0.00000000000000000e+00 0.00000000000000000e+00
6 1 0.00000000000000000e+00 0.00000000000000000e+00 0.00000000000000000e+00
7 1 0.00000000000000000e+00 0.00000000000000000e+00 0.00000000000000000e+00
8 1 0.00000000000000000e+00 0.00000000000000000e+00 0.00000000000000000e+00
8
Step 1000
1 1 -1.80766668394017610e-06 -3.44903707424594348e-07 1.99364780392325123e-06
2 1 -2.24998729576462577e-06 2.93315425694570065e-06 1.63975681167842457e-06
3 1 2.53748069916925775e-06 1.83032690061300985e-06 9.41655809596148902e-07
4 1 -3.45595481866501894e-06 1.41855764465738857e-06 -1.64154508668047741e-06
5 1 -2.57752398853493019e-06 1.46657353806245111e-06 2.36024276901781681e-06
6 1 -1.07416309952145328e-06 -3.70545046112802491e-06 -1.80571275091371372e-06
7 1 8.83317918122281133e-07 -6.11544226055883329e-07 2.61672811888026672e-06
8 1 1.39116344537204310e-06 -7.39873472324785164e-07 1.98643825588452200e-07
8
Step 2000
1 1 1.19151206183729966e-06 1.33938728516857690e-06 -1.13391430703642811e-06
2 1 1.36509166665190526e-06 -1.65300160905729554e-06 -1.15209160080199427e-06
3 1 -1.84319889946600080e-06 -1.21230435099290359e-06 -6.16910051435338628e-07
4 1 2.81540683949481050e-06 -1.78181523892752462e-06 1.88676939460144297e-06
5 1 1.49305114386082546e-06 -1.33562897500504487e-06 -1.73891587494347545e-06
6 1 1.30662721374680676e-06 3.43033773464908631e-06 2.78143720328615877e-07
7 1 6.91512173103672330e-08 5.90375657065190400e-07 -2.62011150067313488e-06
8 1 -1.11985910723820733e-06 1.81914655423359154e-06 -6.36669487721484283e-07
8
Step 3000
1 1 -1.53323377811472724e-07 -1.95018470892292201e-06 3.92103428545852031e-07
2 1 -2.54085232343334114e-08 1.06208965362322592e-07 2.07373258743316089e-07
3 1 7.16504418897566909e-07 5.13060306763699955e-07 -2.56178502721419418e-08
4 1 -2.13106940141913062e-06 1.89869105963081169e-06 -1.65568288561030518e-06
5 1 -5.12177366424932923e-07 1.11466538965292075e-06 9.14294105461747813e-07
6 1 -1.00097768816284736e-06 -2.66675101042200323e-06 9.53936118077484487e-07
7 1 -6.50070588613954427e-07 -5.93773579300280289e-07 2.33259758702086808e-06
8 1 6.31179735779098426e-07 -2.68399716574773171e-06 7.26798885622373818e-07
8
Step 4000
1 1 -8.84163889989679248e-07 1.82845046803351566e-06 9.35383255078827431e-08
2 1 -1.39819054272878885e-06 1.26508568895592722e-06 7.71370900778400660e-07
3 1 5.37908545299602164e-07 1.62827380496458168e-07 7.91864897739989927e-07
4 1 1.36819966587307734e-06 -1.72385328167602542e-06 1.03093842181443667e-06
5 1 -3.00428726930638522e-07 -9.21458945486639518e-07 -1.32949277395033516e-07
6 1 3.32079269844699783e-07 1.50688424592204941e-06 -1.70620534498222298e-06
7 1 6.91635834348829178e-07 6.75378464163990280e-07 -1.57569095525851098e-06
8 1 -1.47403167139139836e-07 3.07022675318127459e-06 -4.49000812776961450e-07
8
Step 5000
1 1 1.55406698919642279e-06 -1.03283575867762762e-06 -1.86393600277369620e-07
2 1 2.52405980848010844e-06 -2.07604140829897677e-06 -1.40489235582348733e-06
3 1 -1.63939661781987266e-06 -6.32044817769586280e-07 -1.51808435459622365e-06
4 1 -7.30062132786503409e-07 1.34248920856945568e-06 -2.96213458201370622e-07
5 1 7.37156488996582368e-07 7.75281151549998118e-07 -4.52487126368969882e-07
6 1 3.42357372335166860e-07 -3.02517165605214224e-07 1.98703637865563889e-06
7 1 -2.21043300821952016e-07 -8.58587184614011235e-07 5.52506055271950355e-07
8 1 -1.08182346285062248e-07 -2.83042286784674631e-06 -5.12679986490968577e-09
8
Step 6000
1 1 -1.65144157115796498e-06 -1.74350162274922359e-07 -1.34110261964021824e-07
2 1 -3.10612988203573799e-06 2.14646284349437047e-06 1.50556538007360592e-06
3 1 2.44913017047541074e-06 7.87373213019331619e-07 2.10282678230160553e-06
4 1 3.46532277528924928e-07 -8.59003669237370525e-07 -2.95992007590818524e-07
5 1 -6.53267870589604046e-07 -6.00413191569934479e-07 8.11290391067970314e-07
6 1 -6.54603765017196302e-07 -6.78042530247336289e-07 -1.92619596872127234e-06
7 1 -5.64050048172927798e-07 1.18167926555423262e-06 4.51450950825265459e-07
8 1 7.82400641272581887e-08 1.94781992690717343e-06 3.61699428669067731e-07
8
Step 7000
1 1 1.20737283893198825e-06 1.48710734869131536e-06 8.52425283972398911e-07
2 1 3.13289852586891239e-06 -1.50772306225106585e-06 -1.09216866732687536e-06
3 1 -3.07910240614240014e-06 -6.00089571590743066e-07 -2.60637796313256652e-06
4 1 -2.97363739134447708e-07 3.86103057566288186e-07 6.36072626693365025e-07
5 1 -1.15315145216685713e-08 3.24996105762477477e-07 -9.83332500933260816e-07
6 1 4.23357549540665845e-07 1.32378438571232372e-06 1.75087902340176495e-06
7 1 1.43561138057399215e-06 -1.73522620870792506e-06 -1.22026237840510335e-06
8 1 1.91199040905886388e-07 -6.32733659661302035e-07 -3.75747789208427531e-07
8
Step 8000
1 1 -2.34870682543245240e-07 -2.16408266253806345e-06 -1.70445066025580279e-06
2 1 -2.10658811393846830e-06 1.90589403437044642e-07 7.07867135241823706e-08
3 1 2.97353165681711537e-06 2.79342430715895292e-08 2.52498307042877926e-06
4 1 5.82736275733349826e-07 1.46482629454301072e-07 -4.25380343768310170e-07
5 1 1.03259207537521169e-06 8.91891870518091496e-08 8.38536138925568052e-07
6 1 5.70291269287210718e-07 -1.28525334379106106e-06 -1.39127411427795771e-06
7 1 -1.91550303951950927e-06 2.21125017850618500e-06 1.28782535211182469e-06
8 1 -6.51727039914337423e-07 -1.07558437803791934e-06 -1.27238102740120148e-07
8
Step 9000
1 1 -7.29901782121176001e-07 1.60920691469310469e-06 2.27160074285426187e-06
2 1 2.27064610243732424e-07 1.44903841338577260e-06 9.25602346994948845e-07
3 1 -2.11024281219885963e-06 7.91425556504608986e-07 -1.72034265683293833e-06
4 1 -1.11766680651547544e-06 -3.35878171309342517e-07 2.69142382762367026e-08
5 1 -1.76398546202211281e-06 -7.13466417211143683e-07 -4.01524960843869654e-07
6 1 -1.68554569462439304e-06 5.62407037762869970e-07 9.07801187244174380e-07
7 1 1.58461848754298822e-06 -2.13219228535817631e-06 -5.02364432146332767e-07
8 1 9.18676994276432980e-07 2.11500745630776351e-06 8.68505390102033581e-07
8
Step 10000
1 1 1.07102331115422518e-06 -3.32101254505882763e-07 -2.36716765204925491e-06
2 1 1.33509841174214400e-06 -2.57685374935727097e-06 -1.17084268420532345e-06
3 1 1.05913405972555502e-06 -1.32924418092164096e-06 8.12767322319722874e-07
4 1 1.53551477293135525e-06 9.21352964024205482e-08 8.68637723879200691e-08
5 1 1.79585037124328491e-06 1.30593399553665322e-06 -9.24588111407728494e-08
6 1 2.12314674302419284e-06 2.17866419189090746e-07 -4.29093458976270412e-07
7 1 -8.61138430084587532e-07 1.74240943992940740e-06 -4.80863273930163084e-07
8 1 -9.78962986730229914e-07 -1.80035925401900059e-06 -1.40782344767156449e-06
8
Step 11000
1 1 -8.05619262072311368e-07 -1.04607523774311459e-06 2.11077467080351324e-06
2 1 -2.21268886196777849e-06 3.03326074127659017e-06 6.82445772554644839e-07
3 1 -8.99450002330025137e-08 1.36438772565077844e-06 -1.69637486180583813e-07
4 1 -1.63215460730060902e-06 2.84876759703788919e-07 1.98304948541247090e-08
5 1 -1.30049917887390471e-06 -1.68962342456419948e-06 5.22114554861143468e-07
6 1 -1.88505433184135401e-06 -7.13392171870080394e-07 -3.15983323976281054e-08
7 1 1.36552736394927670e-07 -1.36732902401238051e-06 1.24135802604197523e-06
8 1 1.04831673770956503e-06 4.26085229380813761e-07 1.68946609442562105e-06
8
Step 12000
1 1 1.19778340089351750e-07 2.11345491465088796e-06 -1.55514256067941991e-06
2 1 2.36018534131127693e-06 -2.82279059506270265e-06 3.27030898965712705e-07
3 1 -6.84009188063429547e-07 -8.73515116243393297e-07 -2.08443904783990779e-07
4 1 1.27651092225486480e-06 -6.45871675623734085e-07 -3.09170734159424489e-07
5 1 4.38265275689307662e-07 1.69060185265347756e-06 -8.11197049935502945e-07
6 1 1.02180348648134897e-06 8.21060756412679545e-07 4.69028394217696900e-07
7 1 4.16524804486234058e-07 9.49449933410423823e-07 -1.53996333497413093e-06
8 1 -1.13970758401535486e-06 1.57373617924488391e-06 -1.59521098269141904e-06
8
Step 13000
1 1 6.92538029209102712e-07 -2.54664875078980012e-06 8.20781947017189148e-07
2 1 -1.89604165433155437e-06 2.08535062191185712e-06 -1.44755048160393932e-06
3 1 1.13206059627642913e-06 5.71940388030156242e-08 4.01528264390471202e-07
4 1 -4.87077337975739305e-07 9.25763937309289568e-07 6.32519037928794393e-07
5 1 4.82699291002601685e-07 -1.29958921676399880e-06 9.39809503660817988e-07
6 1 1.90683191514004678e-07 -5.97094851234829432e-07 -7.87642598824041540e-07
7 1 -7.16920405143550145e-07 -4.81161509677860215e-07 1.26721178205897031e-06
8 1 1.21495735845257364e-06 -3.51895335292954060e-06 1.13693894737973271e-06
8
Step 14000
1 1 -1.29293036824492845e-06 2.14433545267867691e-06 -1.74444785211800812e-08
2 1 1.00967922377970649e-06 -9.54893639904062684e-07 2.18656431940069382e-06
3 1 -1.15054517146052641e-06 7.58007147438687439e-07 -4.40416575008805158e-07
4 1 -5.54790875486743676e-07 -9.85246008633036568e-07 -6.32983437918610693e-07
5 1 -1.05787212551132167e-06 6.00194320729787418e-07 -9.10752486561786282e-07
6 1 -1.23894270432469909e-06 1.91979723103104480e-07 8.18312666086009058e-07
7 1 8.13990304275465745e-07 -7.70601775599826499e-09 -5.16419345119575238e-07
8 1 -1.16729580584854549e-06 4.59637700339387991e-06 -5.05011858091489045e-07
8
Step 15000
1 1 1.42294356788352580e-06 -1.07392483104110182e-06 -7.24985353989480450e-07
2 1 -6.81831314214144501e-08 -2.89927688361669020e-07 -2.20237253100580288e-06
3 1 7.20493722082109485e-07 -1.19352460760418722e-06 3.73917025674765567e-07
4 1 1.45136370748559377e-06 6.71021415925550235e-07 4.28294351273314807e-10
5 1 1.04630229673193039e-06 2.03656506504094946e-07 7.95169779716885685e-07
6 1 1.58250002129147681e-06 1.52391195695902891e-07 -4.60468085194176303e-07
7 1 -8.82717448327833633e-07 4.62173180434879960e-07 -3.27381405214296661e-07
8 1 8.91760970076586559e-07 -4.32616525225562176e-06 6.21969882187261884e-08
8
Step 16000
1 1 -1.07490763394749013e-06 -2.59272307495488780e-07 1.19645859716588119e-06
2 1 -5.87447045332806720e-07 1.33811628972220703e-06 1.53581909340764508e-06
3 1 1.10866253470571589e-07 1.02252227229123498e-06 -3.22952102491616300e-07
4 1 -1.90952303401700420e-06 5.29717648983179570e-09 1.13130403125919249e-06
5 1 -4.95421221707811178e-07 -8.34147568864658916e-07 -6.65860411341546889e-07
6 1 -1.11497087178436545e-06 -2.66893229574829000e-07 -2.00533738714689492e-07
7 1 1.01269647651946602e-06 -8.07532056208840340e-07 9.16336185255743483e-07
8 1 -4.63202110147435027e-07 2.91695713524175149e-06 -1.04661193768657517e-07
8
Step 17000
1 1 3.79812578100947050e-07 1.29754228438589162e-06 -1.15303342238348836e-06
2 1 7.31870954957758280e-07 -1.87252437787766238e-06 -2.64683371485619246e-07
3 1 -1.10429841669628007e-06 -1.25850879885134068e-07 3.53187732914889795e-07
4 1 1.71666638935727083e-06 -9.03465107684600683e-07 -2.34560725024407538e-06
5 1 -3.84453543381990173e-07 9.65967970257122577e-07 4.87571062721865888e-07
6 1 9.40161819086310967e-09 3.97593752718461611e-08 9.68976549193690085e-07
7 1 -1.04815453370892201e-06 8.66259649469153259e-07 -1.00986709646125976e-06
8 1 1.68633596083467278e-08 -7.11371065697956573e-07 6.73496769353944385e-07
8
Step 18000
1 1 2.35640494698964100e-07 -1.62243921766660983e-06 5.63189018433852963e-07
2 1 -3.71778712772705486e-07 1.63900127203594814e-06 -1.01755426058705217e-06
3 1 1.76960330370161537e-06 -1.16157879146463766e-06 -4.82091402740826928e-07
4 1 -9.32483180300097570e-07 1.67003551265154173e-06 2.88253694013478379e-06
5 1 9.99174485279282840e-07 -5.31130382207173752e-07 -2.07557380697386537e-07
6 1 1.05563404886342150e-06 3.99015948967834670e-07 -1.38384265816494923e-06
7 1 8.35454037899741279e-07 -6.04165630274956337e-07 6.55075618327266584e-07
8 1 2.25066263644142920e-07 -1.23236020033647080e-06 -1.40491500854945683e-06
8
Step 19000
1 1 -5.73542578580603572e-07 1.38053904502189329e-06 2.17407008686703836e-07
2 1 -1.55769631634309896e-07 -8.94570191920600989e-07 1.74262612383028144e-06
3 1 -1.74571926817892987e-06 2.10230188143801653e-06 5.97870734460857559e-07
4 1 8.96778851194415689e-08 -2.01059059096987711e-06 -2.32321876380228169e-06
5 1 -9.72016198313868764e-07 -1.91730179805422002e-07 -1.38442001447105726e-07
6 1 -1.46339775553157040e-06 -7.71330517648858348e-07 1.14006142034572298e-06
7 1 -4.51144118394461507e-07 2.09320068211029159e-07 -2.27274211300830976e-07
8 1 -1.86644110949717443e-07 1.95276531833920868e-06 1.81547010599335842e-06
8
Step 20000
1 1 6.94331823527097161e-07 -9.76009395498974343e-07 -8.71852747990426176e-07
2 1 5.99125050381133204e-07 6.62893933486615136e-08 -1.75907318025338073e-06
3 1 1.12861052575883378e-06 -2.27037129423284655e-06 -5.87984243314543820e-07
4 1 3.67163082426556074e-07 1.85978413799292582e-06 8.42105683417647195e-07
5 1 4.55247927861274590e-07 9.01199600614717196e-07 4.66646663230675902e-07
6 1 1.10601376908602927e-06 9.13013657411930835e-07 -3.47770066814441102e-07
7 1 -1.06630516687365293e-08 1.94994707099966196e-07 1.14490557658244309e-08
8 1 -3.30350992008018353e-09 -1.44077011978076909e-06 -1.75191894882362797e-06
8
Step 21000
1 1 -7.64873545651085045e-07 4.47816285780799543e-07 1.10733944130672736e-06
2 1 -9.00951988671085400e-07 5.39073904345974044e-07 1.43584978318553530e-06
3 1 -1.02529034139925550e-07 1.82444518021183303e-06 3.33699297650673949e-07
4 1 -2.99492178070421211e-07 -1.42561148256495244e-06 7.46809003889195850e-07
5 1 1.89716390866830451e-07 -1.47523080543309972e-06 -7.13723133824136162e-07
6 1 -4.32944370580170381e-07 -9.48013552195682714e-07 -5.97909847873542921e-07
7 1 3.81103640035145687e-07 -5.94315501648264678e-07 1.07043437327156058e-07
8 1 1.53306599241218028e-07 3.57135825356131062e-07 1.43633602518776628e-06
8
Step 22000
1 1 8.61870190500219147e-07 3.01085785215976475e-07 -8.24138426916851783e-07
2 1 1.07160943636302346e-06 -8.28298727755146297e-07 -9.87595695396320817e-07
3 1 -1.17268346251737741e-06 -9.77607340160300684e-07 1.29393168567914812e-07
4 1 -1.17781536500642582e-07 8.21446233957475648e-07 -1.98041876587590101e-06
5 1 -8.85671270650900473e-07 1.87604748496828190e-06 8.63236626963989704e-07
6 1 -3.05143456471811044e-07 9.27596964504808892e-07 1.41008724605078784e-06
7 1 -5.53921661888524131e-07 9.02932673281776106e-07 -2.47840721071176175e-07
8 1 -1.44443725533284374e-07 9.06355881140607957e-07 -1.02436978928653524e-06
8
Step 23000
1 1 -1.12575334324171942e-06 -1.01699484174281612e-06 3.47380426851674411e-07
2 1 -1.15074208538217527e-06 7.86463887436512164e-07 5.17499786922434748e-07
3 1 2.44133153111986909e-06 -1.72591265420961209e-07 -7.40300207167577886e-07
4 1 8.02724987347326987e-07 -9.98402350986538130e-08 2.85716423143746022e-06
5 1 1.54985575278729953e-06 -2.09818386276559305e-06 -9.24467421941058562e-07
6 1 1.01367316148158913e-06 -8.52586849011625889e-07 -1.98540576543675743e-06
7 1 5.42234460865803870e-07 -1.05533443000986184e-06 3.70249629251544169e-07
8 1 -4.13465934672095818e-08 -2.13363513227228653e-06 6.20118545020462238e-07
8
Step 24000
1 1 1.17852707519381478e-06 1.75376914512696794e-06 7.83070326928320160e-07
2 1 7.82420204841195342e-07 -3.71200106285030030e-07 -1.74896806821443148e-07
3 1 -2.94027923971535512e-06 1.46280359816035977e-06 1.22830757560175826e-06
4 1 -1.33222231329234313e-06 -7.51935104422701015e-07 -2.15652718295521022e-06
5 1 -1.68674918683276150e-06 1.63631361119335437e-06 7.18757072686386722e-07
6 1 -1.14515853056248237e-06 5.61277308687472146e-07 1.59873282868962681e-06
7 1 -1.02321294103408523e-07 9.23416882266668906e-07 -6.73789740220946807e-07
8 1 5.44543200080117292e-07 2.31799298676789619e-06 -1.48103443346436163e-07
8
Step 25000
1 1 -1.12351357269726314e-06 -2.15325844293483343e-06 -2.08455071447289686e-06
2 1 -2.32044212396905251e-07 -5.67497166512590732e-08 7.67656402356099220e-08
3 1 2.60367805596734537e-06 -2.42195004061370151e-06 -1.19397310008505498e-06
4 1 1.41703778663282277e-06 1.44011712707871071e-06 6.23744571266452699e-07
5 1 1.59735057877761629e-06 -9.15372971820391909e-07 -4.41169902615628457e-07
6 1 9.35759462791945964e-07 -1.83904146845756181e-07 -6.25309351743318746e-07
7 1 -4.91563638895431461e-07 -6.53825383359467184e-07 1.01931657024655975e-06
8 1 -1.20451948647275114e-06 -1.66528614616845675e-06 -1.86704377453799430e-07
8
Step 26000
1 1 1.05162716218375562e-06 2.02023477777692826e-06 3.00722924969007085e-06
2 1 -2.76057478118597221e-07 2.46970273203779906e-07 -2.30330056161475413e-07
3 1 -1.52136015149520207e-06 2.78259706864971091e-06 4.88964007990986920e-07
4 1 -9.73925709086772687e-07 -1.74047848938551593e-06 9.31838611935921540e-07
5 1 -1.47684917029028820e-06 2.49209716632565338e-07 1.29609027356610954e-07
6 1 -6.69691899631266832e-07 -1.62863369957190994e-07 -4.87365660525166498e-07
7 1 9.26014933027589100e-07 4.19384637706135660e-07 -1.25486266817235314e-06
8 1 1.73279662446583063e-06 5.65186716158328874e-07 2.99816030553342688e-07
8
Step 27000
1 1 -9.28014658217474404e-07 -1.17348920243293069e-06 -3.09033414419220116e-06
2 1 5.17190130150237793e-07 -1.06450128608109614e-08 5.02091811413157760e-07
3 1 -4.94537764215787753e-08 -2.42004533743689382e-06 8.22081509820506080e-07
4 1 8.61152938105714657e-08 1.48729349437491165e-06 -1.72004337273091642e-06
5 1 1.46677313369447864e-06 1.89923798649248063e-07 1.67850982936778099e-07
6 1 6.00121227548599742e-07 3.83248579039180542e-07 1.20780321158815131e-06
7 1 -9.26315737313696687e-07 -3.15003064343254966e-07 1.19946566189006769e-06
8 1 -1.82301885355487376e-06 4.25241604987194781e-07 -2.33433629203057199e-07
8
Step 28000
1 1 8.63248771706607424e-07 -3.38199322378802795e-07 2.09569066218328217e-06
2 1 -3.90075685791287565e-07 -4.42515207353816302e-07 -6.13716841048290666e-07
3 1 1.53373606490075070e-06 1.55468478046019509e-06 -2.23747134806077801e-06
4 1 8.16457566362371023e-07 -7.20074298644601538e-07 1.28808075309409748e-06
5 1 -1.45193599306150353e-06 -3.08250504791592999e-07 -3.22754589570625475e-07
6 1 -7.40786081705856566e-07 -3.64921793051738897e-07 -1.16495476566872953e-06
7 1 4.43209320484083595e-07 3.24477605754321802e-07 -7.74908427820770433e-07
8 1 1.43030925917733261e-06 -8.14683184778851026e-07 6.60641917642372301e-08
8
Step 29000
1 1 -9.32091660159440575e-07 1.80470417934931160e-06 -3.89998316790170888e-07
2 1 6.38601907155784152e-08 5.86726088253739106e-07 4.19464041650713335e-07
3 1 -2.24024152802265817e-06 -6.98672453576021473e-07 2.92238838339807760e-06
4 1 -1.16164892759746777e-06 -2.44571161144555174e-07 -4.72780115025706493e-08
5 1 1.21002994025599499e-06 1.28530726121323560e-07 2.12631304290005351e-07
6 1 8.72990721829071249e-07 8.36330850729968453e-08 5.35767725098440520e-07
7 1 2.46769838084737256e-07 -4.08344032174043596e-07 2.11018743364772237e-07
8 1 -8.31263722667992942e-07 5.37296984080511956e-07 1.35288954200869238e-07
8
Step 30000
1 1 1.18125367066952226e-06 -2.60658944487511928e-06 -1.14075231730295349e-06
2 1 1.18014989948083582e-07 -2.24870014536526100e-07 -3.42510863123066338e-08
3 1 2.16051858664907561e-06 1.82790972686349278e-07 -2.80610676600834104e-06
4 1 7.87231377460250447e-07 1.13211462268669049e-06 -1.04814264719377338e-06
5 1 -7.83655331557558347e-07 2.22318802773547641e-07 1.37478785778797903e-07
6 1 -9.06873652742179248e-07 4.67227265062985966e-07 8.25329291491805238e-08
7 1 -8.09013849830700195e-07 6.84753022459124300e-07 1.50707596122183542e-07
8 1 4.58874947274136738e-07 -1.06378715149279817e-07 -3.98413791143113012e-07
8
Step 31000
1 1 -1.44548673556787103e-06 2.64416884967251028e-06 2.16227865878697737e-06
2 1 -1.62032351394442790e-07 -5.60616267299905790e-07 -4.99409951830174587e-07
3 1 -1.55569771148932992e-06 -6.53389139360868438e-08 2.19034901157525950e-06
4 1 1.18535577518051198e-07 -1.88513074697503773e-06 1.81947561673497384e-06
5 1 4.63711575575830848e-07 -5.55200865183578572e-07 -6.31366210106580182e-07
6 1 1.00762031675483352e-06 -1.15905306047563402e-06 -5.43625605449121853e-07
7 1 1.18228311538303226e-06 -1.11410939763793709e-06 -2.40606414350328006e-07
8 1 -4.50396425581733981e-07 -3.61586987836225786e-07 6.36250786932317560e-07
8
Step 32000
1 1 1.52439179769454390e-06 -1.71770941431975169e-06 -2.43986909836716301e-06
2 1 4.55356780034282218e-08 1.68911531129666589e-06 1.03879573266844144e-06
3 1 5.23595408981657951e-07 1.63037922598162215e-07 -1.02302215680229256e-06
4 1 -1.51897408377096927e-06 2.37625398377596779e-06 -1.99301112832992901e-06
5 1 -1.45752363930810025e-07 7.18121521309592858e-07 1.18950469610192760e-06
6 1 -1.11200679418455787e-06 1.90512641921579011e-06 6.74493293229376609e-07
7 1 -1.30591796102100313e-06 1.57310179946100751e-06 5.00335835054118468e-08
8 1 7.84375201823918578e-07 6.44181832886198550e-07 -8.39749767480901355e-07
8
Step 33000
1 1 -1.18153912475272015e-06 -1.87198852186724813e-07 1.62498369792799315e-06
2 1 2.12060205602312619e-07 -2.67038027051891577e-06 -1.25255247451030797e-06
3 1 7.11038731212871287e-07 -1.96516196829428989e-07 -4.68781496106603934e-07
4 1 3.03863939748591918e-06 -2.35548092619819575e-06 1.35241154812845946e-06
5 1 -7.75122846184506747e-08 -5.84199848487166269e-07 -1.58064217128007032e-06
6 1 1.23898555701082882e-06 -2.39535466994799055e-06 -3.55488425618119401e-07
7 1 1.10071042570561415e-06 -1.91270458404436211e-06 3.19881980500656782e-07
8 1 -1.30801729612663362e-06 -5.08869190905774738e-07 9.04166576481107564e-07
8
Step 34000
1 1 4.56110982469249465e-07 2.16244317575748490e-06 1.88218829042414025e-07
2 1 -4.13135889634552266e-07 2.75806261092889318e-06 8.77610292070210490e-07
3 1 -1.58665005480612112e-06 1.76709304913423828e-08 1.51355708617789616e-06
4 1 -3.72176081889471248e-06 1.72053445430049206e-06 -2.66932587375785779e-07
5 1 -1.33608908377559853e-08 1.26954111580345437e-07 1.38788610021207784e-06
6 1 -1.40353309018506247e-06 2.17522023597635516e-06 -1.84129417119262184e-07
7 1 -5.74764204425596518e-07 1.84559550864129454e-06 -5.66354097734008072e-07
8 1 1.73133892172371945e-06 3.11644283307691893e-08 -6.54174886304514039e-07
8
Step 35000
1 1 2.06995724242051193e-07 -2.94179216590800386e-06 -2.09455934628690016e-06
2 1 3.28257723087685752e-07 -1.87846366797377905e-06 -7.65937888688657536e-08
3 1 1.68849727877620499e-06 1.84608939726955041e-07 -1.51405329128485412e-06
4 1 2.97978459687398920e-06 -8.33895538876991321e-07 -4.33450718832646110e-07
5 1 3.68484439026102098e-07 4.47336085399187166e-07 -4.91751744173933947e-07
6 1 1.50466236573015270e-06 -1.24566121687800885e-06 5.22664558519011564e-07
7 1 -6.22138179707004342e-08 -1.29269943630827594e-06 4.71784649124300480e-07
8 1 -1.85543571306679480e-06 3.88856922350252419e-07 1.38640960731437823e-07
8
Step 36000
1 1 -4.67049150030997095e-07 2.33706373346486913e-06 3.29353946988745148e-06
2 1 6.09523825771076326e-08 7.86113162237363909e-07 -8.32102310021567214e-07
3 1 -1.20987185283736133e-06 -1.19009796429974471e-07 7.12334294831310784e-07
4 1 -1.33969487587114268e-06 1.51672847665777940e-07 4.70266523793233254e-07
5 1 -7.35216221887711537e-07 -8.33835207620483171e-07 -7.38659259299663353e-07
6 1 -1.48354292611638395e-06 1.28697018038919751e-07 -6.08215374791086769e-07
7 1 5.96364476649037102e-07 5.25157584416922901e-07 -1.61175258616275095e-07
8 1 1.79310657308633410e-06 -5.02060643409983945e-07 3.78730040788518049e-07
8
Step 37000
1 1 2.59856055460040993e-07 -7.42512799526925470e-07 -3.34907637871393052e-06
2 1 -6.20373207176229574e-07 1.99025309390187454e-08 1.62883787590934920e-06
3 1 4.81483792757354431e-07 -3.23822552874627206e-07 5.28801235736517968e-07
4 1 -5.78397305953794789e-07 1.78200259466938328e-07 -8.61863041534500166e-08
5 1 1.00184793933046167e-06 7.76112566510809912e-07 1.90828440296704308e-06
6 1 1.27738142977345598e-06 7.56519918321655700e-07 5.22592506648613264e-07
7 1 -9.35932987141328320e-07 2.17158895149897682e-07 -1.98214348681791982e-07
8 1 -1.53968395012622682e-06 2.30983556884289694e-07 -6.83581634464278646e-07
8
Step 38000
1 1 2.70743125125268187e-07 -1.14653513699547794e-06 2.40823769198141272e-06
2 1 1.09039502752695977e-06 -2.36273247219170447e-07 -2.10235202253342006e-06
3 1 7.20296435401984045e-08 1.11133814810148614e-06 -1.72657431071685616e-06
4 1 2.16810506278182876e-06 -1.39715712578443716e-07 -3.20249253350353542e-07
5 1 -1.15159163360339403e-06 -2.27638422668530586e-07 -2.75118605135763375e-06
6 1 -8.93754012645663637e-07 -1.06269034568178828e-06 -3.91206663818711857e-07
7 1 1.06765307039776495e-06 -8.39596841545594624e-07 4.09990950187623078e-07
8 1 1.16081508991328867e-06 3.15367653706934181e-07 6.88503804749318154e-07
8
Step 39000
1 1 -8.61881122089730627e-07 2.72858038795061250e-06 -8.90601164086215865e-07
2 1 -1.24793221444142457e-06 -1.62741459648382028e-07 2.13118516208597150e-06
3 1 -2.42467804221726704e-07 -2.10479811870583118e-06 2.53527428573515080e-06
4 1 -3.16907233057637211e-06 -1.99199659913792025e-07 5.48027696555619915e-07
5 1 1.16849446978209926e-06 -7.74079259530352811e-07 3.15246358671946527e-06
6 1 3.47945247609419724e-07 7.29943209341446529e-07 2.96723568648858153e-07
7 1 -9.02707109664022912e-07 1.25359723289057708e-06 -4.39386479582538232e-07
8 1 -6.04734592199328370e-07 -9.90323583853706896e-07 -4.34480874473591689e-07
8
Step 40000
1 1 1.19281886623691011e-06 -3.39307994260688899e-06 -7.55442896058073178e-07
2 1 8.95249788851236664e-07 1.02114264076882909e-06 -1.63605251724316761e-06
3 1 -1.54827267083411149e-08 2.92332877000656239e-06 -2.61104608687833099e-06
4 1 3.21159525548717707e-06 6.45293134476322165e-07 -4.52108970933828902e-07
5 1 -9.69852942362729998e-07 2.02006565287185002e-06 -2.83583805567549914e-06
6 1 3.13961922536850671e-07 2.02789879128034498e-07 -3.48148138010812613e-07
7 1 3.24973184938557968e-07 -1.27898705310803217e-06 3.06821533932854212e-07
8 1 -2.01213814336820750e-07 1.53270862128717402e-06 1.23620135472280138e-08
8
Step 41000
1 1 -1.06355296803370845e-06 2.76204791446164306e-06 1.76265444564836508e-06
2 1 9.16377608741971278e-09 -1.74655041424093434e-06 8.00192982917175889e-07
3 1 4.07707721136687540e-07 -2.90648576583041370e-06 1.78887754178664679e-06
4 1 -1.98861505264793984e-06 -1.01706050936000020e-06 7.62084752303698592e-08
5 1 5.70954065944426744e-07 -3.02438564250936793e-06 1.74184765844007859e-06
6 1 -8.52890645570290521e-07 -1.37925904155898652e-06 5.69890006084003009e-07
7 1 5.60058979806957386e-07 7.59101271354037345e-07 -2.03893898281068230e-07
8 1 1.15418791976798805e-06 -1.58812579921982726e-06 3.71968829117424180e-07
8
Step 42000
1 1 7.10227189219350770e-07 -1.26378146667210156e-06 -1.63291611311315171e-06
2 1 -1.09061017531658952e-06 1.91976436666278966e-06 -1.55215918572277004e-08
3 1 -6.46823853170604842e-07 1.98368914997089000e-06 -5.50577942004486836e-07
4 1 4.88731480320628683e-08 1.23434278321562734e-06 1.49926675257206533e-07
5 1 -2.11284346072836719e-07 3.37776953816920702e-06 -4.45035045062454855e-07
6 1 1.03109097857121896e-06 2.12938594618702905e-06 -7.62137837259805449e-07
7 1 -1.24906113878583957e-06 9.77006548163999723e-08 2.86886565140075139e-07
8 1 -1.79699894734694936e-06 1.23449792738090457e-06 -5.45554164226472339e-07
8
Step 43000
1 1 -4.59530948980575934e-07 -3.08785513995735011e-07 5.70493385980197663e-07
2 1 1.85455103308759775e-06 -1.46710387971095762e-06 -3.63953561721520902e-07
3 1 5.90517032797160974e-07 -5.75897193331782008e-07 -4.41997916354021256e-07
4 1 1.74545547275532458e-06 -1.30399509021943395e-06 1.64725313785451016e-07
5 1 1.07814062317253572e-08 -2.86715581380939246e-06 -4.41299538700287698e-07
6 1 -8.34671441516732325e-07 -2.01662949609219885e-06 7.32333862279037614e-07
7 1 1.26303359600754952e-06 -9.51901720014616016e-07 -4.96733471815696348e-07
8 1 1.71730322619927711e-06 -6.86695988287232346e-07 5.01680375096695971e-07
8
Step 44000
1 1 4.92966262004488420e-07 1.35460965803474742e-06 6.74053417885049412e-07
2 1 -1.97900578340141774e-06 6.75734079599928029e-07 4.43403716635239075e-07
3 1 -3.16668821268329080e-07 -5.86131491074945664e-07 9.03727576859755595e-07
4 1 -2.69559902085902811e-06 1.30588007528464341e-06 -1.06424655953942248e-06
5 1 9.62925631726781785e-08 1.70807240074614036e-06 6.52538660508183083e-07
6 1 4.72057816143852636e-07 1.03083723136463561e-06 -4.33176914986352603e-07
7 1 -4.92637041667108812e-07 1.48907687958704058e-06 6.33093599109894682e-07
8 1 -9.31186935262315319e-07 2.30006025338615357e-07 -3.50319227462469697e-07
8
Step 45000
1 1 -7.14208801434999837e-07 -1.82147768362244543e-06 -1.49892567068630220e-06
2 1 1.63430598185802548e-06 -5.16705287397788247e-08 -3.76697976657226411e-07
3 1 7.00876722734531388e-08 9.93228025840570923e-07 -9.31607468521266606e-07
4 1 2.74295757828837141e-06 -1.28528268821039461e-06 2.14538768076609431e-06
5 1 -2.90077728529205941e-07 -5.11586838834532020e-07 -3.68302710034195481e-07
6 1 -2.60843614231686519e-07 1.99151324624179868e-07 1.92370989623703773e-07
7 1 -6.21533700192389620e-07 -1.58412307394202404e-06 -4.69007423099881554e-07
8 1 -7.28524761393119876e-08 -4.82987856285080443e-09 2.31526695127092408e-07
8
Step 46000
1 1 9.53128637991802145e-07 1.81059252216408453e-06 1.73104421343663808e-06
2 1 -1.10541076583018590e-06 -2.47848055997105399e-07 1.44376894258706609e-07
3 1 7.41688123832707754e-09 -6.38420323361471551e-07 6.67635354673900150e-07
4 1 -2.20187808519374826e-06 1.31503275916827288e-06 -3.10144402343777267e-06
5 1 6.36246381318214553e-07 -3.46829916463128289e-07 -1.75329638768673591e-07
6 1 2.96708481249196468e-07 -1.13250000896812879e-06 -1.77720638730500157e-07
7 1 1.67276390025428545e-06 1.37845436806729388e-06 -2.61826680921863315e-08
8 1 8.39687835539928452e-07 -2.48824612316567832e-08 -1.96558472534354967e-07
8
Step 47000
1 1 -1.01050595730204455e-06 -1.38698641669860978e-06 -1.32061346697402737e-06
2 1 4.88243214732998062e-07 2.17794446666068647e-07 1.59813600467975627e-07
3 1 1.90627492587541242e-07 -3.53095084871832285e-07 -2.28000689287422778e-07