8
Step 0
1 1  0.000000000000e+00   0.000000000000e+00   0.000000000000e+00 
2 1  0.000000000000e+00   0.000000000000e+00   0.000000000000e+00 
3 1  0.000000000000e+00   0.000000000000e+00   0.000000000000e+00 
4 1  0.000000000000e+00   0.000000000000e+00   0.000000000000e+00 
5 1  0.000000000000e+00   0.000000000000e+00   0.000000000000e+00 
6 1  0.000000000000e+00   0.000000000000e+00   0.000000000000e+00 
7 1  0.000000000000e+00   0.000000000000e+00   0.000000000000e+00 
8 1  0.000000000000e+00   0.000000000000e+00   0.000000000000e+00 
8
Step 1000
1 1 -3.156676596226e-06  -1.261830900175e-04   1.772801309334e-04 
2 1 -2.575834783769e-04   4.352674640790e-04   1.777044630743e-04 
3 1 -2.308056765571e-05   1.091034492718e-04  -2.297050944510e-04 
4 1 -2.468968281920e-04   1.227309364802e-04   2.780250764507e-04 
5 1 -2.327077953918e-04  -1.317071871564e-04  -1.371558271248e-04 
6 1 -1.103828063286e-04   1.280457913766e-06  -1.710338277420e-04 
7 1  1.311776348447e-04  -2.775942236923e-05   3.474232806749e-04 
8 1  2.901062671395e-04  -3.446037873979e-05   2.869350649469e-04 
8
Step 2000
1 1 -9.448026589930e-05   7.631610891439e-05   1.051973660864e-04 
2 1 -2.482881018199e-04   9.984404408979e-05   2.153156246698e-04 
3 1  1.573813937180e-04   7.114464374222e-06  -4.827521940200e-05 
4 1 -1.348253851199e-04  -2.344667886578e-04   3.258263711227e-04 
5 1  3.233366317523e-05   3.801995232810e-05   3.254187641134e-06 
6 1 -8.178127153035e-05  -4.314458263195e-05  -2.634792847234e-04 
7 1 -9.414110939033e-05  -9.697435879888e-05   1.055682289925e-04 
8 1 -1.586895695594e-04   2.858946840076e-05   7.804171161759e-05 
8
Step 3000
1 1 -1.756828912777e-04   1.807112997921e-05  -1.841752057703e-05 
2 1 -9.643359650435e-05   3.039418434481e-04   4.407886431088e-05 
3 1  2.819123840017e-04  -1.279865769659e-04   6.232939659839e-05 
4 1 -1.662666975728e-04   5.204816899052e-05   4.658317173110e-05 
5 1 -2.478560732961e-04  -5.099382960651e-05   8.193230048672e-05 
6 1  1.164498739619e-04  -1.874423424053e-05  -2.188427805700e-04 
7 1  2.142244611477e-04  -1.603937955186e-04   1.742253609084e-04 
8 1 -1.223480114862e-04  -1.682358887471e-06   1.660309177544e-04 
8
Step 4000
1 1 -4.203891063637e-05  -2.868276879439e-05  -5.009977343135e-06 
2 1 -1.151458290495e-04   8.956193679067e-05   1.057090037410e-04 
3 1  8.019621334588e-05  -1.166980008493e-04   7.261244257485e-05 
4 1 -8.259532569099e-05   1.275042733487e-04   2.179894307807e-04 
5 1 -3.391304828705e-05  -4.093018687963e-05  -5.073949813654e-05 
6 1 -8.142167735676e-06  -1.289006215379e-05  -2.675664006122e-04 
7 1 -2.627853126414e-05  -1.413500638658e-04  -3.415577778648e-05 
8 1  5.990185626569e-06  -2.551031421085e-04  -5.566054269507e-06 
8
Step 5000
1 1 -5.455573886866e-05   1.664812571131e-04  -1.478223583751e-04 
2 1  4.221306821963e-05  -7.196833677590e-05  -1.822758759166e-04 
3 1  2.755486353063e-04  -4.677301978564e-06   8.464679690753e-05 
4 1 -1.742312105235e-04  -1.712082335740e-04   1.007388406480e-04 
5 1  1.371326469160e-04   2.110624132906e-05   4.120584987076e-05 
6 1  6.755421885862e-05   6.968766165410e-05  -5.677355787601e-05 
7 1  1.017285282431e-04   1.297102905159e-04   3.423152091915e-05 
8 1 -4.335715445345e-05  -1.920227274591e-04  -1.123130884466e-04 
8
Step 6000
1 1  8.697143204190e-05  -1.225994717652e-04  -1.750740297852e-04 
2 1 -5.347641681294e-06  -4.167781210860e-05  -3.574504662132e-05 
3 1  9.642641629977e-05   6.115864805174e-06   1.756015244372e-04 
4 1  1.522167338951e-04   1.401283486434e-04   1.342132191208e-04 
5 1 -6.708832018646e-05   5.156799177342e-05  -8.054783407243e-05 
6 1  1.577176218333e-04  -1.371754156146e-05  -2.320151755282e-04 
7 1  2.472307348172e-04  -1.509116055347e-04  -3.440119062641e-05 
8 1 -3.476041017818e-05  -1.012878477084e-04  -1.153155264571e-04 
8
Step 7000
1 1  6.992628030451e-05   1.764935352195e-05  -3.038683880353e-04 
2 1  2.214847411644e-04  -1.861914200857e-04  -1.773621047386e-04 
3 1  3.335705513918e-05  -1.821988334437e-04  -4.840629311228e-05 
4 1  2.368920154840e-04  -6.740805014330e-05   1.327073873852e-04 
5 1  5.467999171637e-05  -1.394333076534e-04   1.551818324321e-07 
6 1  4.293652251310e-05   1.719831201567e-04  -1.149719335464e-04 
7 1  6.867932333399e-05  -5.772057863295e-05   6.801570953006e-05 
8 1 -9.840279635250e-05   1.426104917705e-04  -1.571112700383e-04 
8
Step 8000
1 1  9.429640702406e-05  -1.278623736574e-04  -2.546552169928e-04 
2 1  1.112788463475e-04  -1.751117383990e-04  -1.976542500510e-04 
3 1  2.301470730510e-04   3.102621437902e-04   2.459989373589e-04 
4 1  1.611557697380e-04   1.629261104431e-04  -7.349098916699e-05 
5 1  2.505618243186e-04   1.111246000745e-04  -2.933363061837e-05 
6 1  2.933639273101e-05   1.452032681598e-05  -1.538225580921e-04 
7 1  2.170928278893e-04  -4.598686012204e-05   1.155002840778e-05 
8 1  5.119234249735e-05  -9.812461303910e-05  -1.294397790401e-04 
8
Step 9000
1 1  2.228267962456e-04  -5.001954974395e-05  -9.588239543733e-05 
2 1  2.381814867089e-04  -2.154869926868e-04  -3.097890462789e-04 
3 1 -1.650469605614e-04  -1.212500785465e-05  -1.373578934232e-05 
4 1  2.377822433664e-04   2.223318433024e-05  -2.904822114020e-05 
5 1  4.158409520945e-06   1.858904497158e-04   2.443520298220e-04 
6 1  1.523248674531e-04   2.397886600260e-05  -4.389947984951e-05 
7 1 -4.342012298134e-05   1.185422280176e-04  -1.020445752403e-04 
8 1 -1.260932158267e-04  -9.849601969930e-05  -1.536335472261e-04 
8
Step 10000
1 1  9.507837604371e-05  -2.497233655869e-05  -1.237389322070e-04 
2 1  2.435872033815e-04  -9.402099303627e-05  -1.993696584958e-04 
3 1 -4.547872621092e-05   3.107018169023e-04   9.907080190096e-05 
4 1  4.710459204280e-04   6.516202097455e-05  -1.535741054670e-04 
5 1 -1.811272417147e-06   1.051152963317e-04   5.888899048558e-05 
6 1  2.616461064018e-04   2.941659416829e-04   3.447841142601e-05 
7 1  4.471811104527e-05  -7.826340063784e-05   7.532562882758e-05 
8 1 -1.510806171199e-05   1.789541951750e-05  -1.189224816828e-04 
8
Step 11000
1 1  2.581301195250e-04  -1.238356322320e-04   7.901688632097e-05 
2 1  8.648294752226e-05  -1.759882951342e-04  -1.069231699542e-04 
3 1 -2.596098446806e-04   2.363537729981e-04  -1.040279433607e-04 
4 1  1.714182838211e-05   9.096305738396e-05  -2.049758337122e-04 
5 1 -1.389320970368e-06   3.663921763412e-07   9.891268349554e-05 
6 1 -8.641707107563e-05   1.999403193331e-04   2.158329588598e-04 
7 1  6.074767500502e-05  -1.735925481442e-04   5.421255593724e-05 
8 1 -2.027581253309e-04  -6.062681777734e-05  -1.218115996623e-04 
8
Step 12000
1 1  1.082088414895e-04   7.544813871885e-05  -1.191977592923e-05 
2 1  3.491133596754e-04   2.094110371777e-05  -2.215297116391e-05 
3 1 -2.482712300083e-04   1.689267015714e-04  -1.492146343599e-04 
4 1  2.353101628507e-04   5.656602054588e-06  -2.151062265270e-04 
5 1  6.539654324969e-06   8.324344713207e-05   1.379413521120e-04 
6 1  1.268016032868e-04   1.235672183829e-04   2.166937139226e-04 
7 1  1.970663680716e-04   2.484448385116e-04   1.493563303366e-04 
8 1 -1.583845006794e-04   5.999471347265e-05   5.287501655173e-05 
8
Step 13000
1 1  2.994096029402e-05  -1.275581081770e-04   1.941802937311e-04 
2 1  1.911176643561e-04   3.276372574013e-05   3.857077857691e-05 
3 1 -3.696055434602e-04   2.049613165751e-04  -5.543933573374e-06 
4 1  8.457995217734e-05   1.396057220031e-04  -3.764843785820e-04 
5 1 -1.475977637258e-04   8.009086440371e-05   7.820531235217e-05 
6 1  1.692887362108e-05   1.200555293500e-04   9.851076991403e-05 
7 1 -1.123078846411e-04  -5.035295599799e-05   2.597110060745e-04 
8 1 -9.520550899654e-05  -1.552309549613e-04  -1.163286728694e-05 
8
Step 14000
1 1 -5.205284724251e-05   1.825155000933e-04   2.021630827223e-04 
2 1  4.351737626988e-04  -1.550995505236e-04  -4.027587969275e-05 
3 1 -3.486602736933e-04   3.961108923245e-05  -7.376053332094e-05 
4 1 -8.684705502073e-05   1.676945122394e-05  -1.966620395064e-04 
5 1  1.196575218609e-04  -7.808004980413e-05   1.169607155820e-04 
6 1  1.552273416998e-05   2.747540349608e-04   2.075766620404e-04 
7 1 -1.937905240844e-05   1.175236282299e-04   1.340405616468e-04 
8 1  1.256686576944e-05   9.443038748462e-05  -4.364608001635e-05 
8
Step 15000
1 1 -7.390211856129e-05  -1.420397772942e-04   2.300297960765e-04 
2 1  1.193039787053e-04   7.330639035212e-05   2.576613563567e-05 
3 1 -1.941176236350e-04   6.437162690088e-05  -2.419011246549e-05 
4 1  7.963101764202e-05   7.136300073710e-06  -3.634095084747e-04 
5 1 -1.419962019046e-04   8.990866526206e-05  -8.310036747662e-05 
6 1 -5.046961310866e-05  -4.885047377230e-05   1.362932290201e-04 
7 1 -5.692309929760e-05  -2.274856903721e-05   2.220530575403e-05 
8 1 -1.136167732158e-04   5.713952709938e-05   2.411489657337e-04 
8
Step 16000
1 1  1.172474261861e-04   1.262330696972e-04   2.269534904871e-04 
2 1 -9.117371231391e-05  -1.069145780659e-04   2.336708679042e-05 
3 1 -1.367924364844e-04  -1.094647971054e-04   9.651616133806e-05 
4 1 -6.583825140946e-05  -1.043095318501e-04  -3.269926466476e-04 
5 1 -1.843485791892e-04   1.047157270246e-04   1.515113568315e-04 
6 1  7.539172738175e-05   1.738850079229e-04   5.340616212925e-05 
7 1 -6.124596815044e-05  -3.121288674872e-05   1.687992094517e-05 
8 1  1.818919206066e-05   1.397568648573e-04   6.287515501540e-05 
8
Step 17000
1 1 -1.610436960375e-04   1.354756100850e-04   1.626987794715e-04 
2 1  1.239751824598e-04  -6.136208428235e-05   1.936706829962e-04 
3 1 -1.320428706120e-04  -2.092774401608e-05  -5.013854362622e-05 
4 1 -4.150901849038e-05  -1.853445939264e-05  -3.220409531195e-04 
5 1  2.763897618660e-05  -2.258245971716e-04   7.688927707428e-05 
6 1 -1.620436122465e-04   2.461249285251e-04  -3.722429077960e-05 
7 1 -6.340823382617e-05  -7.644887563585e-05   3.954655103203e-05 
8 1  1.539493785548e-04   2.267400467099e-04   1.673442796622e-04 
8
Step 18000
1 1 -1.137335745040e-06  -4.337100076141e-05   2.769595158249e-05 
2 1 -2.531195504478e-05   3.459110719049e-05   1.608259840849e-04 
3 1 -9.377940969836e-05  -2.906542633182e-04   1.168025927697e-05 
4 1 -2.648990631382e-04  -1.596442494605e-04  -1.469621398406e-04 
5 1 -1.089698905107e-04  -9.415239812959e-05  -1.408704139975e-04 
6 1 -1.231339036077e-04   2.154443073260e-04  -1.324838409832e-04 
7 1 -7.012515123718e-05  -8.223560781982e-05  -1.437516726620e-04 
8 1  1.651819957555e-05  -5.057735317362e-05   1.417493681433e-04 
8
Step 19000
1 1 -1.226125232838e-04   1.174469041897e-04  -2.710624904420e-06 
2 1  1.458744031304e-04  -7.146123756453e-05  -3.794644576124e-05 
3 1  1.697869043266e-04  -5.707230245341e-05   1.490215950341e-04 
4 1 -2.355079697427e-04  -4.336946074677e-05  -1.109977474568e-04 
5 1 -1.502808133607e-04  -2.091367314988e-04  -2.616832647672e-05 
6 1  2.383055859801e-04   4.930087394279e-05  -1.564709759918e-04 
7 1 -9.185562115908e-06   1.435983580194e-04   1.407144095991e-05 
8 1  1.140768262514e-04   4.803635820300e-05  -2.254639436785e-05 
8
Step 20000
1 1 -6.126154839938e-05  -1.253666475877e-04  -1.317480996365e-04 
2 1  2.338104919318e-05  -1.230336397299e-04   2.293060115838e-04 
3 1 -9.118929341738e-05   4.733493156922e-05   3.579336501870e-05 
4 1 -1.731128518608e-04  -1.664009571802e-04  -6.083802486009e-07 
5 1  2.056765238428e-05  -2.541675569315e-04  -9.975794496088e-08 
6 1 -1.649466693978e-04   9.610958379754e-05  -2.747267967266e-04 
7 1 -1.943268861541e-04  -1.714017413454e-04  -1.557951087699e-04 
8 1  9.383410484296e-05   2.847266763174e-05   8.405811631386e-06 
8
Step 21000
1 1 -1.469180788213e-06  -6.936439737274e-07  -1.363887776193e-04 
2 1 -1.429076026183e-04   9.015123997721e-05  -1.793638787323e-05 
3 1  3.256369575367e-04  -1.194297294001e-04   1.220880716397e-04 
4 1 -1.835273389321e-04   5.267972822140e-05   1.373631971028e-04 
5 1  1.085465585033e-04   6.623582141953e-05   4.695867323851e-05 
6 1  3.421140193799e-05  -5.016687166826e-05  -1.059694486186e-04 
7 1  1.171707434624e-04  -2.399343373354e-04  -3.501889194096e-04 
8 1  1.425700569334e-04   1.549693820700e-04   9.125939698680e-05 
8
Step 22000
1 1 -3.029643710513e-05   1.372345596190e-05  -2.027377484014e-04 
2 1 -2.468178510898e-05  -1.083083347776e-04   1.892618787151e-05 
3 1  2.902526323928e-05  -2.393704968276e-04   1.200082210119e-04 
4 1 -7.256438621919e-05   3.279587466970e-05   1.274686819021e-04 
5 1 -5.994330811611e-05  -1.286852950796e-04   1.528157409364e-04 
6 1 -1.099596421612e-04  -1.252250090985e-04  -2.886135281807e-04 
7 1 -2.635012120530e-04  -1.031132047495e-04  -3.351176745814e-04 
8 1 -2.169473601150e-05  -1.737176308043e-04  -5.135852735697e-07 
8
Step 23000
1 1  8.891806352943e-05  -2.456591587598e-05  -2.014368401753e-04 
2 1 -6.621863344088e-05   4.334359937964e-05  -1.092477742681e-04 
3 1  4.102307031153e-05   1.710312247704e-04   8.157326334913e-05 
4 1  6.205762410350e-05   1.637005193013e-04   1.868195119132e-04 
5 1  2.341018264760e-04  -1.018916016378e-04   2.896709439345e-04 
6 1  4.185096466336e-05   4.409904309390e-06  -3.335552106946e-04 
7 1 -1.243970546059e-04  -1.522211687233e-04  -1.161326763565e-04 
8 1  2.768485767766e-04  -9.920704033075e-05   7.686308841215e-05 
8
Step 24000
1 1 -6.100481701181e-05   4.437509426156e-05  -1.006352344240e-04 
2 1 -1.267718333245e-04   2.873331600299e-07  -2.308798920213e-04 
3 1  2.346365647058e-04  -1.729223511684e-04   1.289419911150e-04 
4 1 -1.742931965165e-04  -1.607279510099e-05   1.844600866136e-04 
5 1  9.289733900574e-05   6.958457716992e-05   6.593015814586e-05 
6 1  3.755247263804e-06  -1.495808973661e-04  -8.639993676825e-05 
7 1 -1.598784775956e-04  -1.220915474067e-04  -4.760384516385e-05 
8 1 -4.181550969883e-05   1.004548844643e-04  -6.377088697826e-05 
8
Step 25000
1 1  8.033864306902e-05   1.192853106853e-05  -1.104408246843e-04 
2 1 -1.650332440992e-04   4.550392646426e-05  -2.625468852538e-05 
3 1  9.878044114174e-06   9.413428706858e-05  -1.735028804037e-05 
4 1  4.514950415469e-05   4.578200746711e-05   1.923659719472e-04 
5 1  1.346922514299e-04   7.759903773963e-05   2.060302096497e-05 
6 1  1.310296645994e-04  -3.860988884577e-05  -1.758285801117e-04 
7 1 -1.875322031930e-04  -9.914460921274e-05  -7.081535955933e-05 
8 1 -1.360179186617e-05  -2.060650557994e-04   8.872625256436e-05 
8
Step 26000
1 1  2.562240478470e-05   2.952404877550e-04  -1.213266514177e-04 
2 1 -1.934856433894e-04  -6.089682090642e-05  -2.342929335151e-04 
3 1  1.919619138667e-04   5.508469689064e-05  -6.028276755375e-06 
4 1 -9.323943023798e-05  -8.804860928509e-05   5.466641504543e-05 
5 1  8.128487689810e-05   1.348262501611e-04   1.079424014215e-04 
6 1 -8.467526272119e-05  -5.569312033967e-05   5.257753990414e-05 
7 1 -2.285489525579e-04  -8.420558356584e-05   1.814812375848e-05 
8 1  2.573451239179e-04  -9.240082349736e-05   1.576837168544e-04 
8
Step 27000
1 1  9.004464617576e-05   2.206763090732e-04   2.976857458506e-05 
2 1 -8.017167102452e-05   3.174869483213e-05  -8.940993037956e-07 
3 1  1.515958214048e-04  -1.478043616933e-04  -1.571714149994e-04 
4 1 -1.383329784546e-04   1.295119463530e-04   9.544162530256e-05 
5 1  1.809604567571e-04   2.058285234044e-04  -4.750297876294e-05 
6 1 -7.556220183542e-05  -1.661693082627e-04  -4.041354440736e-05 
7 1 -9.964453369635e-05  -1.587159361800e-04   1.362954177828e-04 
8 1 -8.092288813975e-05  -8.558806460762e-06   1.325033455127e-04 
8
Step 28000
1 1 -4.827649645562e-05   2.227991981027e-04  -6.044759052780e-05 
2 1 -1.028494005220e-04   3.623710162415e-05  -1.410638918105e-04 
3 1  1.756015231042e-04   1.796331315326e-04  -1.636052491179e-04 
4 1  1.538036594562e-04   2.539444979741e-04   1.467943598143e-04 
5 1  1.094265977431e-04  -6.849160602777e-05   1.739876971098e-04 
6 1  6.331729234909e-05   3.781210908971e-05   8.917290188542e-06 
7 1 -4.785643776316e-05   3.176045338991e-05   8.436832212436e-05 
8 1  3.136900275591e-05  -1.676045446807e-04   2.606125985227e-04 
8
Step 29000
1 1  1.341495304599e-05   3.057830938632e-04   2.667468060839e-04 
2 1 -1.766469218138e-05  -5.496203823904e-05   1.566220057060e-05 
3 1  1.254319521568e-04  -7.932411293204e-05  -9.686523100896e-05 
4 1 -2.209985172984e-04  -7.303737442595e-05  -1.527016917066e-04 
5 1  4.258320168197e-05   1.059496422111e-04  -1.020977241981e-04 
6 1 -6.893773139926e-05   2.213223610045e-05   6.714250041063e-05 
7 1 -4.117115972345e-04  -2.191442336442e-04   1.103005499456e-05 
8 1 -5.386393470540e-05  -1.058098396233e-04   4.807181676688e-05 
8
Step 30000
1 1  8.384195808010e-05   2.064697931461e-04  -1.076202423090e-04 
2 1 -1.725417892347e-04   9.734313651985e-05   1.066273983751e-05 
3 1  1.325878189009e-04   2.107422817487e-04  -2.603317262233e-04 
4 1  4.831475533554e-05   1.917908112638e-04   1.678329307278e-04 
5 1  3.855860048503e-04   2.549047667615e-04   1.166175529750e-04 
6 1 -1.946374169417e-05  -1.863875926610e-04   1.549257329098e-04 
7 1 -4.023964907624e-05  -5.197248314375e-05   1.932495004343e-04 
8 1 -1.556018905026e-04  -2.904961089802e-05   1.436972992671e-04 
8
Step 31000
1 1 -4.826178408102e-05   4.236550502315e-04   2.009357759402e-04 
2 1 -8.692765811265e-05  -2.025950080317e-04   8.001627899783e-05 
3 1 -4.554938547784e-05   3.086626763877e-05  -2.601536219409e-04 
4 1 -2.958297389686e-05   1.304871953007e-05  -6.581560411759e-05 
5 1 -1.393673733950e-05  -9.177326349304e-05  -2.220527614990e-05 
6 1 -1.744704372888e-04  -2.737295003635e-05   3.506081169765e-05 
7 1 -1.177713884009e-04   1.384914480553e-04   1.332791854890e-04 
8 1 -1.806482263699e-04  -1.205385012958e-04   4.267605290917e-05 
8
Step 32000
1 1  3.003320692679e-05   1.450992599229e-04   2.154890493229e-05 
2 1 -3.191011934496e-05  -1.083655519510e-05   6.259908172893e-06 
3 1  9.267238809362e-05   9.925724858441e-05  -7.153032954228e-05 
4 1 -8.670771224073e-05   2.066543821736e-04  -2.081256257387e-04 
5 1  2.961256582483e-04   1.018027033482e-04   8.804208738557e-05 
6 1  1.068516943452e-04  -1.028587733847e-04   1.100795622817e-04 
7 1 -2.436088632553e-04  -1.166415790814e-04   4.125989780331e-05 
8 1  7.515619181123e-06   2.109182336487e-04   1.057208496563e-05 
8
Step 33000
1 1 -1.743038152503e-04   1.517560318706e-04   2.029163703988e-04 
2 1 -1.256506889899e-04  -4.368507098732e-05   3.436853889800e-05 
3 1  1.541705679117e-04  -1.040151072723e-04  -1.943979122063e-04 
4 1 -1.078086407300e-04  -9.575751984497e-05   1.433244235409e-04 
5 1  1.314435418410e-04   9.278750744814e-05  -1.851659361299e-04 
6 1 -1.763773788232e-04  -1.340797541292e-04  -1.049303167204e-04 
7 1 -3.725896212799e-05   7.382022722078e-05   5.850696519329e-05 
8 1 -2.216556394648e-04   1.082182196213e-04  -2.077773327969e-05 
8
Step 34000
1 1  1.006026685313e-04  -3.920513005466e-05   4.351516773886e-05 
2 1  1.155487473306e-04  -2.475195601660e-05   1.994390683038e-04 
3 1  1.027318777010e-04   2.153853148494e-05  -3.319851631266e-04 
4 1 -1.474660869501e-04   7.466984255679e-06  -1.157334850034e-04 
5 1 -2.577257471141e-05  -2.023246520870e-05   3.841994143360e-05 
6 1 -8.058503490899e-05  -3.418163259141e-05   2.093193117077e-04 
7 1  4.911092240865e-05   2.342381727614e-04  -1.770321197257e-05 
8 1 -9.143834527796e-05   2.506230866168e-05  -1.279490273905e-04 
8
Step 35000
1 1 -3.984422772856e-05  -4.417324126928e-05   2.638085874151e-05 
2 1 -1.253177351584e-04  -1.758040321923e-04   1.811683032672e-04 
3 1  3.846305210742e-05  -1.210371248493e-04   1.021819696920e-04 
4 1 -1.334440577675e-04  -1.371867967044e-04  -2.336440666321e-04 
5 1  2.569598005264e-04  -1.433821536788e-06   1.063696566577e-04 
6 1 -1.124451728162e-04  -3.486253182323e-05  -4.596860832565e-05 
7 1 -1.917172572304e-04   1.139336743321e-04  -2.400203049120e-04 
8 1  2.088059466549e-04   2.355859059062e-04   3.794134768463e-05 
8
Step 36000
1 1  1.474310211068e-04  -1.096205544462e-04   1.153258961741e-04 
2 1  1.191629258304e-04  -2.030182065894e-04   4.616681061763e-06 
3 1  3.498730208012e-05  -3.927008985002e-05  -9.255509030138e-05 
4 1 -1.561759186307e-04  -1.973643060115e-04  -8.044454036511e-05 
5 1 -5.863459257623e-05   3.983175382246e-05  -1.309086208578e-04 
6 1 -9.242693779589e-05   7.800780291613e-05  -1.995246971477e-05 
7 1 -6.940314085695e-05   3.031530968972e-05  -1.646786086723e-06 
8 1  8.802932174016e-05   1.683746019410e-04  -1.488340341896e-04 
8
Step 37000
1 1 -7.311918831095e-05  -1.817392129724e-04  -4.067438228462e-05 
2 1  5.010214944053e-05  -3.049718222892e-05   3.345549624511e-04 
3 1  9.497166643615e-05  -5.143673393123e-05   1.652384082792e-04 
4 1 -6.687506080482e-05  -1.646209760444e-05   5.744952636036e-05 
5 1  2.049698096341e-04  -9.636139899861e-05   8.604779841304e-05 
6 1  5.785875856809e-05   2.033695779789e-05   2.805861748008e-05 
7 1  5.032079390971e-05   2.568000632529e-04  -1.510966220390e-04 
8 1  8.060652624011e-05  -5.361556174185e-05  -3.010703166190e-04 
8
Step 38000
1 1  2.946935831585e-04  -1.011841794197e-04   1.953292511476e-04 
2 1  6.254712228662e-05  -5.074179519562e-05  -1.388118147204e-04 
3 1  5.938740681357e-05  -1.420241796424e-04   1.373486353784e-04 
4 1 -1.533238459157e-04  -1.052857630808e-04  -1.092419886000e-04 
5 1  5.233550218707e-05   5.856304901206e-05  -7.431783967457e-05 
6 1 -7.665327744420e-05   5.421238481848e-05   1.209847495487e-05 
7 1 -5.675962145444e-05  -1.171545858024e-05   1.462529061862e-05 
8 1  2.778913035616e-05  -4.160573307169e-05   1.431117758108e-05 
8
Step 39000
1 1  2.745073497197e-05  -1.088583462865e-04   1.657862406890e-05 
2 1  2.731296983020e-04  -4.136006534553e-05   2.674494796347e-04 
3 1 -4.725752008768e-05   9.579204726413e-05   2.262657319352e-04 
4 1  8.142839840682e-05  -1.493492947606e-04   3.447168686329e-05 
5 1 -1.176500961747e-05   3.488054602053e-05   7.025785084670e-05 
6 1  1.987668493551e-04   2.255022025168e-06   7.804073575553e-05 
7 1  2.862323566010e-04  -1.014187143948e-04   7.977864718506e-05 
8 1  3.226789427917e-05   2.666467915763e-04  -4.546610290999e-04 
8
Step 40000
1 1  1.964240193248e-04  -3.028393171511e-05   2.072366828636e-04 
2 1 -5.220057344153e-05  -2.454964268084e-05   2.253484160568e-04 
3 1  1.772958000284e-06   1.252219847590e-04  -2.008588437423e-05 
4 1  6.593367381024e-05  -5.182376080287e-05  -2.852147310078e-04 
5 1 -5.334232863800e-05  -1.171178283881e-04   1.713156151734e-04 
6 1 -7.413361714207e-05  -1.342773845158e-04  -5.949690801745e-06 
7 1  3.286051376601e-05   7.148361123976e-05   6.466493729966e-05 
8 1  9.833947051526e-05  -2.154340671097e-04  -3.037373239887e-04 
8
Step 41000
1 1  1.944971878111e-04   2.468358462583e-05   1.867080881522e-04 
2 1  6.379548288543e-05   6.727938218343e-05  -6.443796742773e-05 
3 1  1.181382826158e-04   6.714609923565e-05   3.450183146004e-04 
4 1  6.140496055371e-05  -3.386582131873e-05  -1.182044817373e-04 
5 1  4.256641730806e-05   4.149748241797e-05  -3.488631414191e-05 
6 1  1.192868461916e-04   3.636942194066e-05   9.015537457000e-05 
7 1  8.634486962989e-05   9.427341059517e-05  -9.270307434508e-05 
8 1  3.133548395432e-04  -2.001744433855e-04  -8.853751616001e-06 
8
Step 42000
1 1 -8.900539033947e-05   2.564824654361e-05   1.972262892460e-05 
2 1  6.611498755041e-05   1.783863135197e-04   9.123779245887e-05 
3 1 -6.865412209510e-06   1.641701913655e-04   1.384902218387e-04 
4 1  5.247512136836e-05  -1.943161079758e-05  -2.331655406996e-04 
5 1 -2.033415085168e-04  -1.104951777131e-04  -1.140013391742e-04 
6 1 -1.095496267134e-04   5.730836021332e-06   3.027350699321e-04 
7 1  1.476125312287e-04  -2.663851238231e-04   4.492177297087e-05 
8 1  1.651258736284e-04  -7.438137377559e-05  -1.747173076851e-04 
8
Step 43000
1 1  1.586605664005e-04   2.492180979220e-04   1.751611819970e-04 
2 1 -9.953749047163e-06   1.818540968225e-05  -1.402538134295e-04 
3 1 -7.623587028683e-05  -1.028364897652e-04   1.395849903011e-04 
4 1  1.492125452041e-04   5.859363259622e-05  -1.146966037321e-04 
5 1  4.297638931202e-06  -2.188536700440e-05  -1.496067307001e-04 
6 1  5.075590083661e-05   2.948870152628e-04  -7.789638134341e-05 
7 1  5.668918308415e-05  -1.010829106557e-04   7.772248615648e-05 
8 1  1.206355322375e-04  -3.824819834309e-04  -7.663455439951e-06 
8
Step 44000
1 1 -1.768873281894e-04   2.247000949015e-04   2.656800350624e-05 
2 1  2.063327287300e-05   6.123695975878e-05  -1.989039064572e-04 
3 1 -1.219627763907e-04   1.165376390293e-04   1.917161195739e-04 
4 1 -3.657919872200e-05  -1.106321197807e-04  -2.282815866645e-05 
5 1 -1.785781976666e-04   1.351390299778e-04  -1.001510260768e-04 
6 1  5.006422303516e-05   3.557818746315e-05   3.135277396743e-05 
7 1  4.765327249484e-05  -1.305937098996e-04   1.543552470012e-04 
8 1  2.093806795319e-04  -2.992157026102e-04  -1.832711996089e-05 
8
Step 45000
1 1 -7.508574790859e-06   2.568483574726e-04   1.931837407871e-04 
2 1 -3.026161042460e-05  -3.221379336650e-05  -3.257067675310e-04 
3 1 -1.074458023362e-05   8.293927594146e-05  -3.429745751859e-05 
4 1  1.570879475915e-04  -9.186241170402e-05  -5.470960377283e-05 
5 1 -2.658918700800e-05   2.289271539657e-04  -1.065338577490e-04 
6 1 -1.598743949397e-04   9.052463818932e-05  -7.767447716317e-05 
7 1  6.043552646283e-05  -2.605248572639e-04   3.340190414619e-05 
8 1  1.047574374136e-04  -9.264171906971e-05   5.550953736174e-05 
8
Step 46000
1 1 -1.234793117730e-04   1.334351130688e-04  -1.531460546416e-04 
2 1 -5.069407597453e-05   1.114293584499e-04  -3.646077410479e-04 
3 1 -1.129652270548e-04   4.177508327695e-05   9.726007767003e-05 
4 1 -6.603844781745e-05   9.089038054326e-05  -9.965878627449e-05 
5 1 -1.232320714769e-04   5.294867892514e-07   8.859145758558e-05 
6 1  4.991229122770e-05   1.991841168951e-04  -6.039880612872e-05 
7 1 -4.709823948822e-06   2.202689693001e-05   3.632744419836e-05 
8 1 -1.262374614543e-05  -2.103362643961e-04   3.002461970968e-04 
8
Step 47000
1 1 -6.136610122242e-05   2.249337893003e-04   1.473926163649e-04 
2 1 -1.024751536898e-04  -1.706204582264e-04  -3.014625850055e-04 
3 1  3.539718036149e-05   8.840526033077e-05   7.288227566566e-05 
4 1  1.831964794251e-04   6.263937398248e-05  -1.910079052780e-04 
5 1 -1.559267127323e-04   7.822790238061e-05  -1.587014121874e-04 
6 1 -7.940724171010e-05  -8.226350544823e-05  -2.784208047495e-05 
7 1 -8.828310039102e-05   5.283852020073e-05  -1.184141659311e-04 
8 1 -1.962168633251e-04  -5.267475097688e-05   1.687766252897e-05 
8
Step 48000
1 1  1.218236273241e-05   9.110133037039e-05  -7.905481198582e-05 
2 1 -1.248778567168e-04  -1.399104029958e-04  -2.839255061518e-04 
3 1 -3.003019043409e-05   1.295450450462e-04   2.078584331465e-05 
4 1  1.462778754889e-04  -1.229138335913e-04   1.070818857679e-04 
5 1  3.146709829664e-05   2.693305984837e-04  -1.844781547311e-04 
6 1 -8.496544631416e-05   1.467283714795e-04   1.175781169379e-04 
7 1 -9.736617634488e-05  -9.528407325742e-05   5.796753576532e-05 
8 1 -2.184956405043e-04   1.202726899449e-04   2.028475555001e-04 
8
Step 49000
1 1 -1.311618540469e-04  -1.626838686318e-05  -2.706660411826e-05 
2 1 -6.731095908805e-05  -1.867992837670e-04  -1.651041727845e-04 
3 1 -4.820395038000e-05  -4.887215284092e-05   1.074074414835e-04 
4 1  9.152228894193e-05   2.840687125581e-04  -3.041940007954e-05 
5 1 -9.014678987395e-05  -4.628856231598e-05  -2.472521800992e-04 
6 1 -6.422737230468e-05   6.591743129151e-05  -1.285891150693e-04 
7 1 -2.395275005889e-04  -8.032981842377e-05  -2.584327238343e-05 
8 1 -1.702403264211e-04   9.148132502835e-06   6.845981201047e-05 
8
Step 50000
1 1  2.166761928852e-04  -1.331763972588e-05  -1.291402477137e-04 
2 1  2.692268373168e-05  -2.386144019762e-04  -2.756947973576e-05 
3 1 -2.525043630614e-06  -1.372144595561e-04   5.762131046014e-05 
4 1  2.228607534558e-04   2.038357845464e-04   8.650852666304e-05 
5 1 -2.213437693233e-04   1.586042828778e-04  -7.130303520021e-05 
6 1 -1.897922814072e-04  -6.745219340296e-07  -3.067777711811e-04 
7 1 -2.063758702855e-04   8.706690927935e-05   1.472260559150e-04 
8 1 -9.473038272549e-05   4.171589795751e-05   1.478914930342e-04 
8
Step 51000
1 1 -1.241874317560e-04  -1.872861625919e-04   1.252065092461e-04 
2 1 -1.468078948088e-05  -1.807105420638e-04  -4.539156370608e-05 
3 1 -3.059528803828e-05  -4.169247075705e-05   6.601099210474e-05 
4 1 -8.880795101307e-05  -1.011302104903e-04   2.154732738234e-04 
5 1 -4.625430078665e-05  -9.966437563150e-05  -4.487058569520e-05 
6 1 -4.646719839102e-05  -6.307563118975e-05  -2.293462069246e-04 
7 1  1.693596023978e-05   1.611551649149e-04  -2.706466011285e-04 
8 1 -1.910256578407e-04   5.316318693248e-05   2.350946670027e-04 
8
Step 52000
1 1  2.017917069773e-04  -1.257751216114e-05  -4.555182070170e-05 
2 1  1.798002839619e-04  -4.867578539277e-04   1.760630834606e-04 
3 1  1.219030028059e-04  -8.317806937289e-05   1.502275753006e-04 
4 1  1.095388833281e-04   3.183931273736e-04   1.628341818416e-04 
5 1 -1.551190603693e-04  -5.342322187117e-05  -1.725708126648e-04 
6 1 -1.671742565977e-04  -1.151055094631e-04  -1.550735058996e-05 
7 1  8.388283077831e-05   4.322605678706e-06  -2.137528752292e-04 
8 1 -1.901572142496e-04   1.631571430610e-04   3.024328661511e-04 
8
Step 53000
1 1 -1.871769305171e-04  -2.630901267584e-04   6.364165280719e-06 
2 1 -5.591375322497e-05  -1.449688914708e-04   1.689597826975e-04 
3 1 -1.010311383293e-06  -9.377400620264e-05  -2.810471608290e-05 
4 1  1.075417324390e-04  -8.855316070139e-05   1.938645496384e-04 
5 1 -1.508755705880e-04  -2.570039680979e-04   4.919050443472e-05 
6 1  1.418218242856e-04  -1.325966049156e-04  -8.218946203961e-05 
7 1  7.151217626838e-05   1.595446023400e-04   1.021034337520e-04 
8 1 -7.040269162301e-05   2.259101925310e-04   1.194044211900e-05 
8
Step 54000
1 1  1.919394482005e-04  -2.657437306473e-05  -1.170450353257e-04 
2 1  1.007515887040e-04  -2.329812252985e-04   2.129139299079e-04 
3 1  1.152918847055e-04  -8.534723089474e-05   1.261793091921e-04 
4 1 -1.095854376896e-04   3.573101741928e-05   2.080099925334e-04 
5 1  1.365920893948e-05  -7.159230757020e-05  -3.607202807795e-05 