8
Step 0
1 1  0.000000000000e+00   0.000000000000e+00   0.000000000000e+00 
2 1  0.000000000000e+00   0.000000000000e+00   0.000000000000e+00 
3 1  0.000000000000e+00   0.000000000000e+00   0.000000000000e+00 
4 1  0.000000000000e+00   0.000000000000e+00   0.000000000000e+00 
5 1  0.000000000000e+00   0.000000000000e+00   0.000000000000e+00 
6 1  0.000000000000e+00   0.000000000000e+00   0.000000000000e+00 
7 1  0.000000000000e+00   0.000000000000e+00   0.000000000000e+00 
8 1  0.000000000000e+00   0.000000000000e+00   0.000000000000e+00 
8
Step 1000
1 1 -1.245640089617e-04  -2.636356931615e-04  -8.295956173058e-05 
2 1 -3.008116666166e-04   1.130731498004e-04   2.004934761245e-04 
3 1  1.131466634809e-04  -5.044777129195e-05  -6.013345264288e-05 
4 1  5.917987398618e-05  -1.607328962884e-04   4.457908950271e-04 
5 1  2.103500096382e-04   2.303849971495e-04  -5.606977697509e-04 
6 1 -1.961376193489e-04   1.068749641302e-04  -2.631594309878e-04 
7 1 -1.045357661942e-04   8.291323422764e-05  -1.576643408910e-04 
8 1  1.386954272328e-04  -2.041524775027e-04   1.469557136511e-04 
8
Step 2000
1 1 -1.500165675593e-04  -7.659135883515e-06  -9.740597756847e-05 
2 1 -2.396574951882e-04  -2.239786365444e-05   1.302606196907e-04 
3 1  1.118989475346e-04   1.270698464519e-04  -8.734798226154e-06 
4 1  1.381944547153e-04  -3.809773409665e-04   5.106330508600e-04 
5 1  1.190565198409e-05   2.756616919313e-04  -2.470413662370e-04 
6 1 -2.332616246280e-04   4.595086361932e-05  -3.107262089798e-04 
7 1 -1.082613376376e-04  -1.285742069699e-04  -5.938398285946e-05 
8 1 -2.171480435908e-04  -2.085714854875e-04   3.038471529029e-05 
8
Step 3000
1 1 -1.905662152123e-04  -3.704133068401e-05  -1.195783351325e-04 
2 1 -1.461554876357e-04   1.065114528648e-04   5.250093060017e-07 
3 1  2.130359791627e-05   4.709931437332e-05   7.774018130500e-05 
4 1  1.759799843576e-04  -2.094275605237e-04   2.050811936298e-04 
5 1 -2.473194482802e-05   1.853978452474e-04  -2.139193697177e-04 
6 1 -1.959920651266e-04  -3.728297997896e-05  -2.656288805945e-04 
7 1 -1.367564312883e-04  -4.073936369996e-05   1.032652521410e-04 
8 1  9.905459031061e-06  -1.222797376658e-04   3.448188757358e-05 
8
Step 4000
1 1 -1.436969583141e-04  -7.987461964307e-05  -9.037912755200e-06 
2 1 -8.378876686573e-05   1.991545024323e-04  -4.398143425563e-05 
3 1 -2.570521751640e-05   2.802197050535e-04   1.762429430621e-05 
4 1  1.122638887434e-04   6.644486104100e-05   2.647658839164e-04 
5 1 -3.456770896196e-04   1.971789043541e-04  -2.272282410775e-04 
6 1 -2.241114931341e-05  -1.547396887602e-04  -2.086311946457e-04 
7 1  2.365979361041e-05  -3.850177223650e-05   7.087659110798e-05 
8 1  1.909673665167e-04  -3.706706973888e-04   1.051204969747e-04 
8
Step 5000
1 1 -9.310584537922e-06  -1.889681843359e-04  -7.536279639755e-06 
2 1 -1.089968233230e-04   1.838807508655e-04  -5.188913246367e-05 
3 1 -7.558631156446e-05   3.729407096615e-04   6.699851510162e-05 
4 1  1.109878862571e-04  -1.604301396491e-05   2.297060837705e-04 
5 1 -9.956133720257e-05   2.302242545498e-04  -1.966475935779e-04 
6 1 -2.246437153092e-04  -1.586486213907e-04  -2.135850264134e-04 
7 1  4.822266424595e-06  -1.313341830345e-04   2.965111394972e-05 
8 1  1.373851772820e-04  -4.653875001155e-04  -7.948873378599e-05 
8
Step 6000
1 1 -1.487303194955e-04  -9.135837854372e-05  -1.650334633034e-05 
2 1 -1.775628965132e-04   1.216045592479e-04   1.561483702847e-04 
3 1 -2.487363845236e-05   2.576727234821e-04   5.935752469798e-05 
4 1 -1.714442756999e-05   4.160573444078e-05   2.865408045509e-04 
5 1 -3.746020934758e-05   1.183734258698e-04  -2.074764808823e-04 
6 1 -3.283026687240e-04  -2.381648721171e-04  -2.846593738094e-04 
7 1 -2.551904153487e-04  -1.587948669789e-04  -6.342187617224e-05 
8 1  1.441042663466e-04  -4.333802651149e-04   1.193892251251e-04 
8
Step 7000
1 1  2.507898425881e-05   5.390248679435e-05  -1.878180591104e-04 
2 1 -1.575471089040e-04   1.422474863733e-04   1.688402248768e-04 
3 1  9.523380244154e-05   1.245499121616e-04  -1.238292711306e-04 
4 1 -5.624642629749e-06  -1.768071998195e-04   2.626274228797e-04 
5 1 -1.157876734227e-04   1.344376280091e-04  -2.147783792335e-04 
6 1 -3.524138513449e-04   2.310678521471e-05  -1.560207071323e-04 
7 1 -2.123489435216e-04  -1.589952311506e-04   3.574329379468e-06 
8 1  1.288338779986e-04  -3.885834750133e-04   1.467319033805e-04 
8
Step 8000
1 1 -1.776531048235e-04   5.551938096064e-05  -7.269902930890e-05 
2 1 -3.844170543322e-05   2.085893735187e-04  -2.858889996459e-06 
3 1  1.515389429713e-04   2.137360351621e-04  -8.348410678097e-05 
4 1 -2.649860217601e-04   8.433055548523e-05   5.874633067359e-05 
5 1  1.395260943030e-04   2.238715691717e-06   6.478020176513e-05 
6 1 -1.532856788729e-04  -2.013198294314e-05  -8.158595716264e-05 
7 1  9.321984565706e-05  -2.606664587430e-04   5.642404032997e-05 
8 1 -9.320077389608e-05  -1.815312114580e-04   1.495686943422e-04 
8
Step 9000
1 1  3.599134209420e-05  -4.474098590371e-05  -1.290206276718e-04 
2 1  2.200745921374e-06   2.365192925757e-04   2.000824891665e-04 
3 1  9.416214612831e-05   2.157579521566e-04  -3.130603777643e-04 
4 1 -1.249354849133e-04   3.442391449364e-04   2.202369176155e-04 
5 1 -3.820992814321e-05   1.792368525307e-05  -4.136195578568e-06 
6 1  3.438722331219e-05  -7.950025249310e-05  -1.371706802489e-04 
7 1  7.708300330969e-05  -4.867111560064e-04  -7.005947450121e-05 
8 1 -2.179841649448e-05  -1.543054921814e-04   1.977461176030e-04 
8
Step 10000
1 1 -1.976885510864e-05  -2.206694591085e-05   8.587625523948e-05 
2 1 -1.828383750163e-04   1.507130596237e-04   1.710418321821e-04 
3 1 -8.878647659611e-05   1.533174545873e-04  -1.258767208129e-04 
4 1  1.478615739699e-05   2.188985329354e-04   2.019917501040e-04 
5 1  1.604976348631e-05   5.106426673267e-05  -2.077891411055e-05 
6 1 -1.129443224994e-04  -8.170444488936e-06  -1.731504493040e-04 
7 1  7.863748401833e-05  -3.840795113442e-04  -1.399960930403e-05 
8 1 -7.263524671971e-06  -2.145705279038e-04   1.313276176227e-04 
8
Step 11000
1 1  1.783175599550e-05   7.106404627667e-05  -1.673624061018e-04 
2 1 -2.611325072508e-05   1.878394650207e-05   1.291914189156e-04 
3 1  1.555766898130e-05  -1.358215964198e-04  -4.471044708124e-05 
4 1 -6.043024415441e-05   1.296811477822e-04  -3.529920407842e-05 
5 1 -1.166663379515e-04  -1.241715383739e-04   2.632694036230e-06 
6 1 -1.781294639628e-04  -6.751267757369e-07  -1.946834368106e-05 
7 1  6.771918532394e-05  -1.568533427541e-04   1.462345206851e-04 
8 1 -1.550529274600e-04  -1.586474663683e-04   6.025340804030e-05 
8
Step 12000
1 1 -5.264208402319e-05   1.662750051915e-04  -4.236943629483e-05 
2 1 -4.890638977739e-05   2.956809173946e-05   5.879186017972e-05 
3 1 -1.664844614538e-05   3.193995816486e-05  -1.450731991481e-04 
4 1  8.823755789705e-06  -1.298006515256e-04  -1.967558898490e-05 
5 1  5.643663300669e-05   8.168981781100e-05   1.661578867808e-04 
6 1  2.478908966750e-05   4.244879746699e-05   9.895243677890e-05 
7 1 -8.780171855900e-05   7.802910973432e-05   5.254620328168e-05 
8 1  8.173673983806e-05  -1.902602794661e-04   8.096749344931e-05 
8
Step 13000
1 1 -5.955834830609e-05   7.627345684008e-05  -1.121118888432e-04 
2 1  1.434092678590e-04   4.311819495160e-05  -1.735048567345e-04 
3 1  7.173090190889e-06   2.591872687904e-04   1.674704835125e-04 
4 1 -7.167892056904e-05   1.624986369493e-04  -1.817688722493e-04 
5 1  2.091226686494e-04   1.460125590977e-04   2.131573555272e-04 
6 1  8.528640088058e-05  -1.361748036740e-04   6.332271450888e-05 
7 1 -6.306911601355e-05   4.647841364245e-05   1.146770793989e-04 
8 1  2.389265680258e-04  -3.910658651680e-04   9.739212044211e-05 
8
Step 14000
1 1 -7.904625668185e-05  -3.808053906574e-05  -6.699578249109e-05 
2 1 -1.508281255512e-04   9.531477763339e-05   1.586675200662e-04 
3 1  1.231401201790e-04   4.405544182459e-05   5.378505222042e-05 
4 1 -3.374152822982e-05   1.390693862177e-04  -2.668022482465e-04 
5 1 -1.264825671131e-04   6.545302573743e-05   1.841940230166e-04 
6 1  2.098468017637e-04  -1.430006511706e-04   1.219601564600e-04 
7 1  9.980839121427e-05   1.166879348126e-04   1.022307344508e-04 
8 1  1.601961675647e-04  -2.090485332458e-04   1.032796325621e-04 
8
Step 15000
1 1  8.108495629010e-05  -2.160500614866e-05   2.845283301088e-05 
2 1 -3.895750892540e-05  -1.757658815879e-04  -1.176731740369e-04 
3 1 -1.754183760481e-05  -3.324135682670e-05  -4.074398782178e-06 
4 1 -8.269560855375e-05  -6.340032736482e-06  -8.402130840483e-05 
5 1 -1.414273204913e-04   7.225107333001e-06   1.722520620939e-04 
6 1  2.277519994518e-04  -1.149320288168e-04   1.749993651982e-04 
7 1  3.353127700238e-05   1.229207580361e-04   9.359935515066e-05 
8 1  4.776459943348e-05  -6.978629047188e-05   3.627617658104e-05 
8
Step 16000
1 1 -7.012866971177e-05   8.365425422410e-05  -8.495074492518e-05 
2 1  7.780551636986e-05  -2.632567017887e-05   3.757111464956e-05 
3 1  6.308889389783e-05  -3.881912367467e-04  -1.090594068203e-04 
4 1  3.513898971139e-05  -1.642628003901e-05  -8.839662333666e-05 
5 1 -4.986495780495e-05  -1.545988459470e-04   2.568203669634e-04 
6 1  8.507194518897e-06   1.464199127268e-04   2.085080284203e-04 
7 1  5.901876258797e-05   1.047274626168e-04   8.382931350176e-05 
8 1 -7.733455997901e-06   9.847347735893e-05   5.807330923467e-05 
8
Step 17000
1 1  1.491855783469e-04   2.020496048623e-05  -2.915558149293e-04 
2 1 -9.747293321860e-05   2.240132790067e-06   8.646101100679e-05 
3 1  3.224248986623e-04  -1.383760830744e-04  -1.257008671146e-04 
4 1  8.155640104868e-05   3.554292421521e-05  -1.608575367331e-04 
5 1  1.984315619444e-04  -2.334077123339e-04   1.925027071395e-04 
6 1 -3.065014331721e-05   1.693975625744e-04   2.429344725431e-04 
7 1  1.084474535434e-04  -2.101296038505e-06   8.945372148664e-05 
8 1  1.098343908113e-04   1.596384969090e-04   1.172111595662e-04 
8
Step 18000
1 1 -1.682296537860e-04   7.618585291915e-05  -3.347715961570e-05 
2 1  1.975845213317e-04  -8.940996383623e-05   1.936330458150e-05 
3 1  3.443343328866e-04  -6.084673447441e-06   1.091332822274e-04 
4 1  1.493295721758e-05   7.234202174295e-05  -1.948329651388e-04 
5 1  1.681077264325e-04  -1.653616804007e-04   8.505991874398e-05 
6 1 -5.813377836553e-05   2.435829083970e-04   1.785901219144e-04 
7 1  2.560065489810e-04   4.618433618024e-05   5.412364346562e-05 
8 1  1.226043490317e-04   1.150462402435e-04   8.347622788869e-05 
8
Step 19000
1 1  2.643448350960e-05  -1.470170847584e-04   6.917940650810e-05 
2 1  8.401092712046e-05  -1.941129341390e-04   2.976250119843e-05 
3 1  2.492710255142e-04   1.954015541658e-05  -2.466400709030e-04 
4 1 -3.353878483556e-04   3.964346151833e-05  -3.212173763370e-04 
5 1  8.739210429274e-05  -3.221424055043e-04   3.460833309152e-04 
6 1  4.108746254011e-05   1.242386937586e-04   2.330035354877e-04 
7 1  1.092865154087e-04   7.713304350483e-05  -7.180395203714e-05 
8 1  1.325753844969e-04   8.504717910798e-05   8.094056867496e-05 
8
Step 20000
1 1 -3.281341328934e-05   1.401641971350e-04   7.540841167318e-05 
2 1  2.681183604962e-04  -2.084705398639e-04  -1.090920011001e-04 
3 1  1.605428729707e-04  -3.360278868438e-04  -6.780873555286e-05 
4 1 -1.964909214224e-04  -4.583135177723e-05  -2.246841710606e-04 
5 1  1.618722291391e-05  -1.796461247184e-04   3.616375273672e-04 
6 1 -8.362465779062e-06  -4.577512096681e-05   9.313418936604e-05 
7 1 -5.148381711895e-05   2.775865078883e-04  -1.269245492843e-04 
8 1 -3.123702419317e-05   4.670349168124e-05   8.656480743432e-05 
8
Step 21000
1 1 -3.468673316937e-05   5.207355413801e-05  -9.014419504495e-05 
2 1  2.265987873700e-04   1.169156876743e-05  -8.114155370215e-05 
3 1  2.571906374470e-04  -3.228957983908e-04  -2.272497708596e-05 
4 1  8.578364593100e-05   2.823079036268e-05  -2.928425310440e-04 
5 1 -1.868533603969e-04  -1.279539404788e-04   3.221578003107e-04 
6 1  2.056792923544e-04  -1.168313251859e-04   1.083279196610e-04 
7 1  9.028764350239e-05   2.030411024826e-04   9.471859008647e-06 
8 1  2.219330975996e-05   1.258383859083e-04  -1.135961927410e-05 
8
Step 22000
1 1  2.716024521913e-05   1.778060509213e-04  -5.262110504942e-05 
2 1  2.581040841716e-04  -3.073816175154e-06  -6.498190558942e-05 
3 1  3.148916854559e-04  -2.206159062856e-04   6.129622993015e-05 
4 1 -2.682629224426e-06  -6.158305597133e-05  -2.984754508674e-04 
5 1 -1.672558466790e-05  -1.141597855183e-04   2.537800935452e-04 
6 1  3.388100723531e-04  -3.567604985719e-05  -1.642886618554e-06 
7 1 -1.093443317378e-04   3.651454381716e-04  -6.737483820329e-05 
8 1  6.591297231311e-05   1.507794283489e-04  -8.844340458612e-06 
8
Step 23000
1 1  1.115393563754e-04   4.976721337892e-05   1.825184481818e-04 
2 1  2.465488789243e-04  -7.207713006076e-05  -3.470000359400e-05 
3 1 -1.776567501515e-05  -7.441344629808e-05  -2.179074783543e-05 
4 1 -1.810603501617e-04   6.118980705065e-05  -4.712663150912e-04 
5 1  7.304519615829e-05  -1.172080006154e-04   2.489513442167e-04 
6 1  1.428813838027e-04   6.885787662798e-05   5.595825434374e-05 
7 1  6.304585721002e-07   2.191728470990e-04  -3.642458820632e-05 
8 1  7.005808856896e-05  -1.284825742584e-04  -7.327304361253e-05 
8
Step 24000
1 1  3.856176770740e-04  -3.318600098199e-06   1.333281166921e-04 
2 1  4.362819845169e-05  -7.943154557476e-05  -3.598906144333e-05 
3 1  6.724922508317e-05  -8.715756519429e-05   8.847901523637e-05 
4 1 -3.058901949214e-04   6.132350868123e-05  -4.074829664722e-04 
5 1 -5.017017302963e-05  -2.277932123145e-04   1.744704302902e-04 
6 1  7.818168381057e-05   1.126457115356e-04   1.510333728891e-04 
7 1 -1.637300881867e-04  -4.175995198733e-05  -1.683689389630e-04 
8 1 -9.531252238253e-05   9.969297474561e-05  -3.071568363140e-04 
8
Step 25000
1 1  1.788792097308e-04  -4.131670157924e-05   1.814331242767e-05 
2 1  1.005670636484e-04  -2.890508809168e-04  -2.130026650894e-04 
3 1  1.302385804206e-05   1.503047706457e-04   1.830537360977e-04 
4 1 -3.289849819794e-04  -1.397980750339e-04  -3.033279078062e-04 
5 1 -1.855420248035e-04  -1.831410059344e-04  -4.623239611959e-05 
6 1  2.606434369387e-05  -5.926753305049e-05   1.301846134991e-04 
7 1 -3.559029295410e-05  -4.487194415049e-05  -1.925480944107e-04 
8 1  5.048107437977e-05   9.506101991504e-05  -1.490731731950e-04 
8
Step 26000
1 1  3.490692667410e-04   1.304033492273e-04  -4.640075323195e-06 
2 1  1.971868650531e-04  -6.898437842953e-05  -1.042312464752e-04 
3 1 -5.894308687973e-05  -7.469391609971e-05   1.440564204775e-04 
4 1 -9.761826498157e-05  -7.407821030765e-05  -1.339049682601e-04 
5 1  1.504972697905e-04  -2.416446377653e-04   4.850506182254e-05 
6 1  5.354621570828e-05   2.805141057817e-04   1.355022984795e-04 
7 1  1.249020623036e-04   2.163936496981e-04  -3.019811302423e-04 
8 1 -1.336948867206e-04   2.419792170877e-04  -2.683263633959e-04 
8
Step 27000
1 1  3.450197536288e-04  -8.140354949723e-06  -2.761615266347e-05 
2 1  3.644879068555e-05  -5.528109976132e-05   1.503063919372e-05 
3 1 -8.485926135714e-05  -7.129906933044e-05   3.430446702572e-05 
4 1  7.485440913553e-05   2.454290422553e-05  -3.068577331230e-04 
5 1 -1.230546440654e-04  -1.836439617203e-04  -6.075487670425e-05 
6 1  1.769509025181e-04   3.235514600858e-05   1.115480701747e-04 
7 1  8.489287741201e-05   4.669814392446e-05  -1.975394185856e-04 
8 1 -1.461853984257e-04   3.047830555495e-04  -7.218197343340e-05 
8
Step 28000
1 1  3.304462683363e-04  -2.331591960132e-04   1.102382679157e-04 
2 1  9.354548143920e-06   3.161524599145e-05  -7.647816082280e-05 
3 1 -1.962790033717e-04   1.231577651223e-04   1.638688735411e-04 
4 1 -8.079426506550e-05   7.418833025579e-06  -4.034603037453e-04 
5 1 -2.308664547052e-04  -1.700556577669e-04  -9.656367087139e-05 
6 1  2.816724018762e-05  -1.572425742495e-05  -3.546700031791e-05 
7 1 -1.181771868159e-04   1.417699544434e-04  -2.137487148796e-04 
8 1 -1.592367331763e-04   4.754472058808e-05  -2.364559086610e-04 
8
Step 29000
1 1  8.199074780830e-05  -2.521630345090e-04  -1.598689928972e-04 
2 1  3.326591997263e-05  -2.245203279953e-04   6.039145778310e-05 
3 1 -2.312423694183e-04   1.723493406556e-04   1.506442290359e-04 
4 1 -2.651665012528e-04   1.876669155206e-04  -3.386526634156e-04 
5 1 -2.569877208912e-04  -3.787368467461e-04   5.555536126907e-05 
6 1 -2.097294519791e-05  -6.937134762863e-05  -9.142269776547e-05 
7 1 -1.249433258098e-05   3.979037786382e-05  -1.828245789162e-04 
8 1 -2.153348046667e-04   9.423012877186e-05  -2.001874516408e-04 
8
Step 30000
1 1  1.351486967610e-04  -8.842198432860e-05  -2.160392295104e-05 
2 1  1.387105365080e-04  -2.855002439556e-04  -1.481695284312e-04 
3 1 -1.498327631520e-04   1.328881234991e-04   1.144586743182e-04 
4 1 -2.218959383763e-04  -6.007750608006e-06  -3.637910644129e-04 
5 1 -2.017653418516e-04  -1.969563728031e-04   8.414514116209e-05 
6 1  1.305913088591e-04  -1.217272959422e-05  -1.038604343395e-04 
7 1 -1.449186480890e-04   2.601697612734e-04  -1.695348022156e-04 
8 1  7.251070933200e-05   1.969590901334e-04  -2.483274142928e-04 
8
Step 31000
1 1 -1.212203581871e-04   8.563532506735e-05  -6.400735769186e-05 
2 1  8.388002759269e-05  -2.599905188325e-04  -1.587707985628e-04 
3 1 -1.747030396305e-05  -4.289062561096e-05   2.286461708544e-04 
4 1  1.359116671043e-05  -4.410353078307e-05  -2.637785434942e-04 
5 1 -1.091844047917e-04  -1.340550931959e-04   1.431862772690e-04 
6 1 -1.363525997711e-05  -2.290874099880e-05  -1.071634044239e-04 
7 1 -1.458406098986e-04   3.013989028370e-04  -1.476849974960e-04 
8 1  1.575031828387e-04   2.459585871630e-04  -1.937124032169e-04 
8
Step 32000
1 1 -1.420911596127e-04  -2.351723784966e-04   4.072252778492e-05 
2 1  1.487256882859e-04  -8.093935125973e-05  -1.105384497873e-04 
3 1  3.231448341037e-05   1.448998094787e-04   1.267790999201e-04 
4 1 -1.040283317711e-04   2.105144614795e-04  -3.931723725438e-04 
5 1 -1.718621520220e-04  -1.536882291607e-04  -1.067901161536e-04 
6 1  1.480055847540e-05  -1.098521544931e-04  -1.520923252239e-04 
7 1 -2.480148365588e-06   1.485309933996e-04  -1.635530098824e-04 
8 1 -6.226086619076e-05   3.025141294957e-04   1.062018834046e-04 
8
Step 33000
1 1 -1.247176547761e-04  -2.634238143873e-04   9.319702707722e-05 
2 1 -1.863059669292e-05  -2.979764900547e-05  -2.041211725466e-04 
3 1 -3.531524638132e-04  -7.735579126748e-05   8.921421390513e-05 
4 1 -1.315088427254e-04   4.001733910632e-07  -1.774766015875e-04 
5 1 -2.476697462145e-04  -2.048832101312e-04   3.463273177848e-05 
6 1 -3.377438628466e-05  -7.933310698616e-05  -9.762506608091e-05 
7 1 -2.606740803253e-04   1.018052303203e-04  -2.406497832970e-04 
8 1 -1.412161031194e-04   4.145781246975e-05  -5.594333565044e-05 
8
Step 34000
1 1  6.176543645330e-05  -9.145426138314e-05   1.416161411737e-04 
2 1 -1.730220692122e-04  -1.608818312476e-04  -1.997501516988e-04 
3 1 -1.929585296504e-04  -8.163182688668e-05   1.555576067461e-04 
4 1 -1.456347430319e-04   1.084935713587e-04  -1.609442859639e-04 
5 1 -1.552592450329e-04   4.331219891891e-05  -9.136201350018e-05 
6 1  6.212411068835e-05   3.519545030731e-05  -8.415582385135e-05 
7 1 -3.345613257030e-05   4.116199274628e-06  -2.773672982663e-04 
8 1 -2.156839107596e-04   5.160649077140e-05   1.198687730244e-05 
8
Step 35000
1 1 -1.282431073791e-04   2.272760403733e-04   1.102792843010e-04 
2 1  3.843949677905e-05  -3.170976493381e-04  -2.768478071281e-04 
3 1 -1.218008151640e-04   1.620166538420e-04   9.641356887469e-05 
4 1  7.716050994422e-06  -1.587047875494e-05   4.196602803585e-06 
5 1 -4.717794259452e-05  -3.101628128579e-05   2.713619053072e-05 
6 1  1.382106891373e-06   1.642482027768e-04   9.532919595944e-05 
7 1  6.735075271823e-05   5.591001848783e-05  -1.224308017381e-04 
8 1 -7.333993407611e-05   9.704610840600e-05   2.134845832414e-05 
8
Step 36000
1 1  3.910719630472e-05   1.231058874734e-04   3.065702679306e-04 
2 1 -1.490499630683e-05  -2.866802836351e-04  -1.921533501869e-04 
3 1 -3.355769553398e-04   2.234692963611e-04   6.949117730954e-06 
4 1  1.407119497423e-04   1.086753798459e-04  -7.644654270023e-05 
5 1 -2.372082858186e-05  -1.072291179077e-04   9.867739275959e-06 
6 1  1.806799536590e-06   2.168401844392e-04   5.502287881814e-06 
7 1  1.656241873424e-05  -3.229336317080e-05  -1.791623891858e-05 
8 1  8.628761790723e-05   2.053025538008e-04  -8.307892052769e-05 
8
Step 37000
1 1  1.553480192372e-04   4.186874835985e-05   2.387812000201e-04 
2 1 -3.158344753100e-04  -1.385717881943e-04  -1.206619296425e-04 
3 1 -3.760671068525e-04   1.260713816704e-04   1.366049117824e-04 
4 1 -7.494641277726e-05  -9.180110044380e-05  -8.199109899143e-06 
5 1 -5.288067209696e-06   3.335606137759e-05   2.176707233604e-05 
6 1 -4.835609385908e-05   1.667536233485e-05   9.028901301760e-05 
7 1 -1.620721137948e-04  -1.184151189582e-04  -3.751011793801e-05 
8 1 -1.467384130236e-04   1.780155172639e-04  -3.661957145050e-05 
8
Step 38000
1 1  1.792344963713e-04  -1.131127918823e-04   1.367304143077e-04 
2 1 -1.574146504839e-04  -7.285593270294e-05  -2.949767614701e-05 
3 1 -4.597948897965e-04   1.171544643666e-04   7.115431038548e-05 
4 1 -4.443881034566e-05   4.371012274393e-05  -2.311451758312e-05 
5 1  3.491748589867e-06   5.394244628608e-05  -7.026882474979e-05 
6 1 -6.945602509269e-05   1.118127856517e-06  -1.936481415625e-05 
7 1 -1.314145677161e-04  -1.673642660732e-04   1.703148407638e-05 
8 1  2.185582858815e-05  -3.343363564652e-05   3.287538314835e-05 
8
Step 39000
1 1  8.358717647310e-05   9.969165011556e-05   2.749551244989e-05 
2 1 -9.954288463045e-06   6.917206136314e-05   4.915672340559e-05 
3 1 -2.772596348063e-04   1.260885593522e-04   1.720089607270e-04 
4 1 -2.194445635679e-05   3.040940614120e-04  -1.721550623024e-05 
5 1 -5.713316418611e-05  -8.995417540619e-06   1.667928776171e-05 
6 1  7.618829190296e-05  -7.295807752902e-05   5.523461271809e-05 
7 1 -7.646630399130e-05  -1.790038377845e-04   1.423055764082e-04 
8 1 -1.616810175259e-05  -1.244283213931e-04   1.854977944061e-04 
8
Step 40000
1 1  9.358118004741e-05   8.237427970860e-05   2.251090238592e-04 
2 1 -1.373865877084e-05   6.024335932982e-05  -2.479462721750e-05 
3 1  5.372807022233e-05   2.343941888223e-04   1.643842467358e-04 
4 1  7.809721788902e-06   2.192347584296e-04   5.545538831933e-06 
5 1  1.071274411063e-04   1.550451180491e-04   1.404750477041e-04 
6 1  2.803697517241e-04  -1.407913371517e-04   1.277310560381e-04 
7 1  6.410701306005e-05   1.643921156169e-04   8.149539965002e-05 
8 1  8.695151981903e-05   1.687278087315e-06   1.940167626292e-04 
8
Step 41000
1 1 -1.951472892579e-05   4.044765789060e-04   2.469812010777e-04 
2 1  1.344551055082e-04  -1.960950006757e-04  -1.082356655679e-04 
3 1 -5.003707350251e-05   5.753426893912e-05   2.525491801714e-04 
4 1 -1.037120719341e-04   1.359571879167e-04   3.489941225458e-05 
5 1 -5.921546488826e-05   1.594274882539e-05  -3.909801225431e-06 
6 1  4.147151671240e-05  -1.156208611773e-04  -1.745428644247e-05 
7 1 -7.461576082919e-05   1.762024132971e-05   4.583136528389e-05 
8 1  5.702760155979e-05  -1.274362321785e-04   3.606885791495e-04 
8
Step 42000
1 1 -1.996332609801e-04   1.460324077537e-04   1.175107405075e-04 
2 1  8.933601195475e-05  -2.055896519059e-04   1.386320088879e-04 
3 1  2.332822322608e-05   1.117620996783e-05   2.268029305378e-04 
4 1  5.083401104271e-05   9.276473601016e-05   5.168017701764e-05 
5 1 -8.320087115085e-05  -1.106370150854e-04   6.985678458843e-05 
6 1 -1.192023228465e-04  -1.008057963975e-04  -1.848829146846e-04 
7 1 -1.505818646791e-04  -1.482341217145e-04  -4.365720444418e-05 
8 1 -7.169598216534e-05  -1.275505787914e-04   1.678755930101e-04 
8
Step 43000
1 1 -6.232948666202e-05   2.168349220498e-04   2.304850942670e-04 
2 1  1.699554442287e-04   5.420797191130e-05  -4.895858288689e-06 
3 1  6.175636145451e-05   1.224859308766e-04   2.500305393465e-04 
4 1  2.372455083420e-05   2.905467261667e-04   1.125784416023e-04 
5 1 -4.326772049892e-05   8.871956597981e-05  -6.390718754786e-05 
6 1 -1.066559471599e-04  -3.258198750679e-04  -8.557629173754e-05 
7 1 -1.099195951978e-04  -2.999700422507e-04   1.674231131044e-04 
8 1  1.341974690679e-04  -8.800609571267e-05   3.578851726377e-04 
8
Step 44000
1 1  7.084002097193e-05   2.761962051967e-04   1.555400277511e-04 
2 1  1.029672793016e-04   4.924352966205e-06   3.536425905587e-05 
3 1  1.631591414428e-04  -1.543617670141e-05   1.853779334642e-04 
4 1  1.456501519938e-04   2.243704674898e-04   2.783806206018e-04 
5 1  7.108404611662e-05   4.693416727397e-05  -3.532228687539e-05 
6 1  9.057951527373e-05  -6.651733350286e-05   4.711906390992e-06 
7 1  1.033077513499e-04  -3.312982517353e-04   7.892863287437e-05 
8 1  1.240001521694e-04   1.291358989044e-04   2.547516471192e-04 
8
Step 45000
1 1 -6.202396139319e-05   4.959831591160e-04   1.826406361202e-04 
2 1  9.250254118538e-05   1.168636548222e-04   1.184506166565e-04 
3 1  1.920716518430e-04  -1.298758543900e-04   1.615939329991e-04 
4 1  2.785279323232e-04   1.355061290534e-04   4.188348162271e-04 
5 1  1.850184464567e-05   1.572146907123e-04  -4.997679507993e-06 
6 1  2.058407859692e-05   1.193069212690e-04  -1.387412583658e-04 
7 1  7.891828882945e-05  -3.708037928819e-04   2.488700021549e-04 
8 1  1.202290865582e-04  -2.229373024294e-05   2.326573253516e-04 
8
Step 46000
1 1 -1.033353131193e-04   2.491794190674e-04   2.145604030373e-04 
2 1 -2.217426286574e-05  -3.125437831661e-05  -1.502949552372e-04 
3 1  2.545934964417e-04  -1.242733534858e-04   8.273885935654e-05 
4 1  2.130871902590e-04  -6.254018900575e-06   4.222140553520e-04 
5 1 -1.285283916495e-04   2.550672072836e-05  -1.749422354319e-04 
6 1  9.093761047221e-05  -1.611160151583e-04   1.347012539175e-04 
7 1  1.602203585287e-05  -2.933207156609e-04   7.789398304405e-05 
8 1 -1.246822022640e-05  -7.906531611057e-05   5.755271801336e-05 
8
Step 47000
1 1  1.001722997334e-04   2.016814189586e-04   2.154943840722e-04 
2 1 -1.108566499777e-04   5.018973597637e-05   9.217136187248e-05 
3 1  1.415295965554e-04   3.859177175533e-05  -3.089423069415e-05 
4 1  2.300994782119e-04  -9.215588878199e-05   2.935167927660e-04 
5 1  3.901193775829e-05   1.542005002383e-04  -5.602400692774e-05 
6 1  1.935087685470e-05  -7.255565904695e-05   9.996192621831e-05 
7 1 -1.303951929000e-04  -3.770069538602e-04   5.640286828717e-05 
8 1 -1.315540771994e-04  -3.340501374063e-04   4.676375247929e-06 
8
Step 48000
1 1 -3.789601274412e-05   1.569344104645e-04   4.241299482828e-05 
2 1  2.870273641018e-05   6.615167051999e-05   3.654253593058e-05 
3 1  1.951071833737e-04  -1.524803919812e-05   1.187413781739e-04 
4 1  2.670703987848e-04  -1.377926415038e-05   2.503261163035e-04 
5 1  1.532818045076e-04   2.077042573581e-04  -4.781908685091e-07 
6 1  1.244626274312e-04  -5.774709011792e-07   5.607323940952e-05 
7 1 -2.073203143409e-05  -1.319702971909e-04   1.181016438920e-04 
8 1  1.958290016017e-04  -3.381039136108e-04   1.219024242097e-04 
8
Step 49000
1 1  9.667435898005e-05   1.468450771761e-04  -1.620201842977e-04 
2 1 -6.624326782818e-05   2.355902769201e-04   2.180850268128e-04 
3 1  2.256387897339e-04  -2.510779136278e-05   1.212673469469e-04 
4 1  3.350644446232e-04  -1.061921053766e-04   2.988623043296e-04 
5 1  2.750592903296e-04   2.853118577922e-04   1.570516506301e-05 
6 1  6.818747332561e-05   7.518779434054e-05   1.279233573990e-04 
7 1 -7.726534625714e-05  -2.701844754067e-05   3.999666710442e-05 
8 1  2.922561051526e-04  -3.187093104186e-04   1.441182877187e-04 
8
Step 50000
1 1 -1.075161716672e-04   1.390679105842e-05  -2.139925693823e-05 
2 1 -1.340204856270e-04   8.324475505069e-05   1.777404411756e-05 
3 1  2.371732757376e-04  -2.477691348165e-04   3.349016069959e-05 
4 1  1.025566956654e-04  -4.840442956864e-05   1.989093930540e-05 
5 1  2.536570926051e-04   3.417657723924e-04   5.716546181859e-05 
6 1  9.527463009449e-05  -6.890271438334e-05   1.039510866356e-04 
7 1 -3.559047364689e-05  -1.974189277445e-04   5.051156458398e-05 
8 1  1.539417806152e-04  -3.790042807778e-04   7.967217063594e-05 
8
Step 51000
1 1  8.881379058248e-05  -1.024394952450e-04   1.419505071816e-04 
2 1  6.003471075373e-06   1.172454368802e-04  -1.028192005409e-04 
3 1  1.511246734611e-04  -1.690275690325e-04  -1.174625293025e-04 
4 1  1.022843385889e-04   1.543072953388e-05   6.571680431091e-05 
5 1  1.415054980234e-04  -2.913619053023e-05  -1.492989866519e-05 
6 1  2.310177907805e-04  -2.620926830032e-05   4.558410372191e-05 
7 1 -1.725640140681e-04  -4.837958317765e-05   7.653887144879e-05 
8 1 -1.129196968874e-04  -9.551414877242e-05  -7.394016715030e-05 
8
Step 52000
1 1 -3.079256716488e-06  -1.530897069774e-05  -1.534327404079e-04 
2 1  7.667938291652e-05  -1.747630656286e-06   1.627281407855e-04 
3 1  4.178995899195e-05  -3.028928039623e-04  -4.165753526545e-04 
4 1  1.425794089052e-04  -4.933395986771e-05   1.757735768640e-04 
5 1 -1.127189002587e-05   1.046925652903e-04  -2.028454387046e-04 
6 1  1.922975988765e-04   5.500081480350e-05  -1.010938694120e-04 
7 1  1.689411624541e-05  -2.415134075220e-04   6.305878525472e-05 
8 1  5.623348207940e-05  -2.531332575822e-04   1.557671651062e-04 
8
Step 53000
1 1  4.305464233341e-05  -1.185960091648e-04  -1.363961322936e-04 
2 1 -7.012550719882e-05   1.014181613949e-04  -4.465990742106e-05 
3 1  2.739316544160e-04  -1.921537640705e-04  -3.585625730796e-05 
4 1  2.366599122538e-04   1.568252721854e-04   1.969975691169e-04 
5 1  4.178976349879e-05   3.340025454411e-05  -2.110311509018e-04 
6 1  1.364748524828e-04  -1.140535821486e-04  -7.048135396188e-06 
7 1  1.150295654505e-04   6.130382849113e-05   8.291161975721e-06 
8 1 -4.795185846540e-05   1.690471985948e-04   8.542673422997e-05 
8
Step 54000
1 1 -4.491676047771e-05  -1.772946115581e-04  -3.604749107851e-04 
2 1 -2.610013532243e-05   9.121081751278e-05   7.128600637722e-05 
3 1  3.713334341417e-05  -1.204653085792e-04  -3.278883172801e-04 
4 1  1.405607571814e-04   1.308062462326e-04   1.130287136598e-04 
5 1  3.253651795382e-05   5.619117297019e-05  -3.465988467041e-04 