8
Step 0
1 1  0.000000000000e+00   0.000000000000e+00   0.000000000000e+00 
2 1  0.000000000000e+00   0.000000000000e+00   0.000000000000e+00 
3 1  0.000000000000e+00   0.000000000000e+00   0.000000000000e+00 
4 1  0.000000000000e+00   0.000000000000e+00   0.000000000000e+00 
5 1  0.000000000000e+00   0.000000000000e+00   0.000000000000e+00 
6 1  0.000000000000e+00   0.000000000000e+00   0.000000000000e+00 
7 1  0.000000000000e+00   0.000000000000e+00   0.000000000000e+00 
8 1  0.000000000000e+00   0.000000000000e+00   0.000000000000e+00 
8
Step 1000
1 1  3.575288136467e-05  -6.425021416999e-05   4.262461315116e-05 
2 1  1.594942150549e-04  -8.517855304133e-05  -1.625824951330e-04 
3 1 -2.422869298955e-05   1.283923931141e-04  -5.811787279897e-05 
4 1 -1.719494622686e-06   1.031025169575e-05  -1.512022023774e-04 
5 1 -6.008436053856e-05   6.060630848912e-05   2.465992991219e-05 
6 1 -6.838100600568e-05  -1.873817487137e-04   1.440504712588e-04 
7 1 -5.817236442104e-05   7.936615770665e-07   8.545751172798e-05 
8 1  2.135995404812e-06  -7.068983219569e-05  -1.821295934458e-04 
8
Step 2000
1 1 -5.510590574139e-05  -6.906966449820e-06   6.782042707269e-05 
2 1  1.089566240774e-04   6.236459631766e-05  -1.355682454660e-04 
3 1  2.769290006467e-05   8.705338669439e-05  -9.253366862462e-05 
4 1  1.737113758150e-05   1.311388048701e-05  -9.452522442572e-05 
5 1 -9.515199729700e-05   4.793516928896e-05  -5.901367032378e-05 
6 1 -1.475829500080e-04  -1.644661060005e-04   9.781464030664e-05 
7 1 -1.278415918515e-05   5.695237351186e-05   5.663371512148e-05 
8 1  9.307012652904e-08   3.061215015878e-05  -1.437901751051e-04 
8
Step 3000
1 1 -1.314384428902e-04   5.108190417418e-05   5.511434578075e-05 
2 1  4.865784629482e-06   1.859888533394e-04  -4.966196492036e-05 
3 1  7.354036233305e-05   2.282123700335e-05  -7.831433650001e-05 
4 1  2.621732607290e-05   1.647126727294e-05  -9.368214668209e-06 
5 1 -9.135274600164e-05  -9.530084676303e-06  -1.042393609210e-04 
6 1 -1.774225481637e-04  -8.295731598385e-05   2.298891307828e-05 
7 1  2.863142461170e-05   8.503000232879e-05   1.310779010454e-05 
8 1 -7.145573699015e-06   1.282213767907e-04  -4.256741604306e-05 
8
Step 4000
1 1 -1.581411267441e-04   8.286323501392e-05   2.171650167082e-05 
2 1 -9.119850215656e-05   2.171437306004e-04   5.470060204620e-05 
3 1  9.651160643694e-05  -4.330896285725e-05  -3.260407597735e-05 
4 1  3.405683146229e-05   1.388482398660e-05   6.150932613836e-05 
5 1 -6.974983622729e-05  -4.114450217862e-05  -8.447387062660e-05 
6 1 -1.440542292189e-04   1.465763498862e-05  -4.903392452382e-05 
7 1  4.300714960425e-05   7.606670584718e-05  -3.253798107917e-05 
8 1  1.252591274971e-05   1.500474548281e-04   5.728308823216e-05 
8
Step 5000
1 1 -1.222058630452e-04   6.465798628913e-05  -1.244671074251e-05 
2 1 -1.325816626585e-04   1.535108864620e-04   1.228346612229e-04 
3 1  9.087863676221e-05  -9.051129641259e-05   2.089686807243e-05 
4 1  4.474275115048e-05  -1.339765716142e-06   9.116532371983e-05 
5 1 -1.456496855399e-05  -3.794355498681e-05  -3.944042507940e-05 
6 1 -5.880685074967e-05   8.200735844159e-05  -9.272244329493e-05 
7 1  3.208724245291e-05   3.904295781355e-05  -6.831175688050e-05 
8 1  2.832087707198e-05   1.106055089908e-04   1.331958119126e-04 
8
Step 6000
1 1 -3.337185797923e-05   2.544815520591e-05  -5.735237815291e-05 
2 1 -1.108667130452e-04   1.834020214626e-05   1.445322921583e-04 
3 1  5.917530807418e-05  -1.056315026860e-04   6.025279611192e-05 
4 1  5.156307041006e-05  -2.573270133290e-05   7.585537436676e-05 
5 1  6.207132598685e-05  -2.433689615912e-05   1.729190040356e-05 
6 1  4.555834312719e-05   9.603222526982e-05  -9.805958633940e-05 
7 1  6.676354507299e-06  -4.598822640783e-06  -8.374608781264e-05 
8 1  3.015683567115e-05   5.274413159909e-05   1.454997265974e-04 
8
Step 7000
1 1  6.993859098932e-05  -8.876502224056e-06  -8.746391686333e-05 
2 1 -4.303224869978e-05  -1.272879185684e-04   1.125356523238e-04 
3 1  9.977552376574e-06  -8.835018685662e-05   5.625578394723e-05 
4 1  4.441619039441e-05  -4.760977058762e-05   3.335109822716e-05 
5 1  1.014618044873e-04   2.520048523882e-05   6.676615808493e-05 
6 1  1.299903953599e-04   6.173733333187e-05  -7.085319702387e-05 
7 1 -1.553840093220e-05  -3.385369134539e-05  -7.380580465881e-05 
8 1  4.502471775279e-05  -2.879547086397e-05   9.724199480697e-05 
8
Step 8000
1 1  1.374222049827e-04  -3.018970360430e-05  -6.954842147489e-05 
2 1  4.632138525489e-05  -2.096471312005e-04   3.970309638668e-05 
3 1 -4.305812541954e-05  -4.711964530108e-05   1.969872186328e-05 
4 1  1.640998778588e-05  -5.215102593032e-05  -1.104246964447e-05 
5 1  1.029270935484e-04   6.426689539260e-05   7.098999475268e-05 
6 1  1.637594524497e-04   6.204425424816e-06  -2.665324390189e-05 
7 1 -1.778055516645e-05  -4.039932888625e-05  -4.146907732710e-05 
8 1  3.862682079665e-05  -7.918887317636e-05   1.813795655131e-05 
8
Step 9000
1 1  1.412446018822e-04  -2.900417807325e-05  -1.438739540683e-05 
2 1  1.094445915377e-04  -1.887289133343e-04  -3.955116996109e-05 
3 1 -8.156751989438e-05   8.349617528664e-06  -2.251018482172e-05 
4 1 -2.772418317301e-05  -3.249842284622e-05  -3.356949163696e-05 
5 1  7.129058405140e-05   6.155475569409e-05   4.147489042173e-05 
6 1  1.362923648867e-04  -4.120423175608e-05   1.495518387158e-05 
7 1  2.318126271677e-06  -3.146410475728e-05   3.307528708662e-06 
8 1  2.787640793417e-06  -7.865460753523e-05  -6.528887139101e-05 
8
Step 10000
1 1  8.689191829239e-05  -2.935821988254e-06   4.002106530334e-05 
2 1  1.110207405872e-04  -8.032477106691e-05  -8.781408695175e-05 
3 1 -8.913301705361e-05   5.867378338353e-05  -4.983406859901e-05 
4 1 -7.092004651037e-05   8.371867192292e-06  -2.495850319968e-05 
5 1  2.138062654435e-07   3.742085095846e-05   7.724595400837e-06 
6 1  6.000298647692e-05  -5.904204578490e-05   3.996500637029e-05 
7 1  3.031198842891e-05  -1.940793485223e-05   4.673219689187e-05 
8 1 -3.188705449747e-05  -5.987781985868e-05  -1.211193569587e-04 
8
Step 11000
1 1 -5.821499738345e-06   2.376829161346e-05   8.310322999079e-05 
2 1  5.624054420812e-05   6.591178639113e-05  -1.016276817466e-04 
3 1 -6.456650325156e-05   8.638461248711e-05  -5.268403604857e-05 
4 1 -9.132683111254e-05   5.725683428290e-05   4.240772639251e-06 
5 1 -6.730838538670e-05  -1.205386420397e-05  -3.041299515158e-05 
6 1 -3.492639651248e-05  -3.949233907468e-05   4.542182602101e-05 
7 1  4.592425129430e-05  -1.243421428787e-05   7.366497853623e-05 
8 1 -5.665488510740e-05  -2.650655490295e-05  -1.117445416288e-04 
8
Step 12000
1 1 -9.661357472923e-05   3.361358773275e-05   9.805783085541e-05 
2 1 -1.335227083015e-05   1.790088976088e-04  -8.439357599447e-05 
3 1 -1.794194563541e-05   8.490010102885e-05  -2.043182694548e-05 
4 1 -7.336492520197e-05   9.124785134018e-05   3.158435364735e-05 
5 1 -9.461938096484e-05  -7.269214838751e-05  -5.126419188197e-05 
6 1 -1.107664884882e-04   5.363585134973e-06   3.543917827047e-05 
7 1  3.722662501036e-05  -1.598504676335e-05   7.165312870821e-05 
8 1 -7.780392149811e-05   1.321269611819e-05  -6.128701835185e-05 
8
Step 13000
1 1 -1.358988597957e-04   2.372746360775e-05   6.171220346405e-05 
2 1 -7.166389899009e-05   2.046466205852e-04  -4.047852868030e-05 
3 1  3.434608750267e-05   5.639400599709e-05   3.066747779621e-05 
4 1 -1.794114422106e-05   8.740445118058e-05   3.670992721448e-05 
5 1 -8.296344958309e-05  -9.370831069287e-05  -3.660952566169e-05 
6 1 -1.390857882767e-04   4.870803732940e-05   1.750764501619e-05 
7 1  1.310138314136e-06  -2.183619005199e-05   4.263617114331e-05 
8 1 -7.093023542798e-05   2.351432922004e-05  -2.213446298356e-06 
8
Step 14000
1 1 -1.075444072534e-04  -6.734169560274e-06  -1.050079194516e-05 
2 1 -9.532389328363e-05   1.334938632406e-04   7.722329158721e-06 
3 1  7.198875846126e-05   1.028467684196e-05   7.150617601232e-05 
4 1  5.341762226701e-05   4.200859717851e-05   1.376593225040e-05 
5 1 -4.147979026602e-05  -7.359486244979e-05  -1.673638936244e-05 
6 1 -1.114560432905e-04   6.985589207316e-05   2.615099122346e-06 
7 1 -4.765249055599e-05  -1.568664993641e-05  -9.488760144404e-07 
8 1 -2.851314711885e-05   1.750928062681e-05   6.032613218887e-05 
8
Step 15000
1 1 -3.426326772331e-05  -4.304779619193e-05  -7.392801301302e-05 
2 1 -7.369224383211e-05  -3.413522911541e-06   3.685042478308e-05 
3 1  7.875227246156e-05  -3.811949477467e-05   7.656461796511e-05 
4 1  1.075250777364e-04  -2.675683110004e-05  -2.715626291109e-05 
5 1  2.138954689466e-05  -2.854304363584e-05   1.750154917714e-06 
6 1 -4.253566274767e-05   5.950933744415e-05  -4.307650932110e-06 
7 1 -8.533427320016e-05   9.523354006438e-06  -4.072659484108e-05 
8 1  2.907799654657e-05   1.703598558422e-05   9.498064880682e-05 
8
Step 16000
1 1  5.349634090695e-05  -6.180664947606e-05  -1.049846780311e-04 
2 1 -1.333797648758e-05  -1.373447276835e-04   4.763198457346e-05 
3 1  4.952923672754e-05  -6.922177915338e-05   4.931614119591e-05 
4 1  1.151920195850e-04  -9.488518521254e-05  -6.402130670548e-05 
5 1  6.607049205217e-05   4.033090322738e-05   1.875808271364e-05 
6 1  3.663152963386e-05   1.674299967603e-05  -4.896553440528e-06 
7 1 -8.936926886830e-05   4.692343444958e-05  -5.998830745200e-05 
8 1  7.747717174750e-05   1.312493487525e-05   7.748974802747e-05 
8
Step 17000
1 1  1.174175034671e-04  -5.638162745357e-05  -9.331302535954e-05 
2 1  4.653022864333e-05  -1.998531474915e-04   4.968505073575e-05 
3 1  8.789030130098e-07  -7.147292688063e-05  -1.189914686689e-06 
4 1  6.805924405084e-05  -1.297535964967e-04  -7.591399137161e-05 
5 1  7.099298163342e-05   9.830807279198e-05   2.042736401323e-05 
6 1  9.175353415837e-05  -3.974479691157e-05  -1.458238777068e-06 
7 1 -5.337732259304e-05   7.953831950028e-05  -4.925898870949e-05 
8 1  9.964091932719e-05   1.105716405860e-05   2.977960795338e-05 
8
Step 18000
1 1  1.192852635592e-04  -2.831413973281e-05  -3.360622569511e-05 
2 1  7.274094177285e-05  -1.685169648359e-04   3.904613593745e-05 
3 1 -4.618931902546e-05  -4.856962029407e-05  -6.040206358080e-05 
4 1 -1.584458638992e-05  -1.093027715596e-04  -5.161425843097e-05 
5 1  4.042851687693e-05   1.082340320138e-04   6.914540750920e-06 
6 1  1.018157581866e-04  -8.343710663440e-05   1.937636659030e-06 
7 1  1.206517777035e-05   8.663665578040e-05  -1.505721543092e-05 
8 1  9.365561068205e-05   2.385645534717e-05  -1.384180451996e-05 
8
Step 19000
1 1  6.115317706968e-05   1.724993393503e-05   4.664525914740e-05 
2 1  6.184404252699e-05  -6.127177881017e-05   2.330595225388e-05 
3 1 -7.076822159819e-05  -1.116489602456e-05  -1.019471014119e-04 
4 1 -9.950577017009e-05  -3.832874856264e-05   8.208315806537e-07 
5 1 -5.920533786824e-06   7.175720852325e-05  -2.612947665981e-06 
6 1  6.575439694277e-05  -9.718148612053e-05   2.629784346501e-07 
7 1  8.004617384482e-05   5.489412464221e-05   2.615685403305e-05 
8 1  5.039142581460e-05   3.053530608819e-05  -4.235746701209e-05 
8
Step 20000
1 1 -2.067275560325e-05   5.770889189812e-05   1.013873718053e-04 
2 1  2.855035870439e-05   8.067477562828e-05   1.498222055190e-05 
3 1 -6.209634704280e-05   2.610968507344e-05  -1.020081304852e-04 
4 1 -1.421003595159e-04   5.032552197410e-05   5.732519018665e-05 
5 1 -4.710117541828e-05   3.605268698462e-06  -5.310949579701e-06 
6 1  1.749208909077e-06  -7.344650093936e-05  -5.139053924365e-06 
7 1  1.191681360147e-04  -1.057796890151e-05   5.231911723890e-05 
8 1 -1.998439955265e-05   1.734231250043e-05  -4.682188769262e-05 
8
Step 21000
1 1 -9.243391541313e-05   7.325385796636e-05   1.086262702156e-04 
2 1 -1.739338099523e-05   1.819317087520e-04   8.442311245322e-06 
3 1 -1.983419727282e-05   4.855210578997e-05  -6.020012630685e-05 
4 1 -1.172110538202e-04   1.248224736199e-04   8.988746661501e-05 
5 1 -5.937966632312e-05  -7.116783684666e-05   1.303392166813e-06 
6 1 -5.624152409224e-05  -1.714082943625e-05  -1.251180994576e-05 
7 1  1.107505853749e-04  -8.566720379114e-05   4.701784639679e-05 
8 1 -8.469407579111e-05  -7.840345577755e-06  -2.943072110121e-05 
8
Step 22000
1 1 -1.227760286231e-04   6.523027144671e-05   6.762938184344e-05 
2 1 -5.336371569228e-05   1.878111839009e-04  -7.794751766196e-06 
3 1  3.422550050936e-05   4.698550177962e-05  -2.038957292008e-07 
4 1 -3.347396483853e-05   1.492491381257e-04   8.287978087528e-05 
5 1 -3.605191808851e-05  -1.134816822824e-04   1.685664155828e-05 
6 1 -8.098335967224e-05   4.924946184890e-05  -1.873901842940e-05 
7 1  5.730348642132e-05  -1.356352727394e-04   1.244303304448e-05 
8 1 -1.129497415031e-04  -3.367955126555e-05   5.428322242978e-07 
8
Step 23000
1 1 -9.103234722812e-05   3.725561330273e-05  -8.710490936609e-06 
2 1 -5.483353526277e-05   1.104896181390e-04  -2.646590181181e-05 
3 1  7.166014678673e-05   2.783060975390e-05   6.236300555644e-05 
4 1  7.165229614310e-05   1.082740140112e-04   3.961062930617e-05 
5 1  8.534542390739e-06  -1.041659937349e-04   2.905469294219e-05 
6 1 -6.253781145151e-05   9.845498183098e-05  -2.133112456745e-05 
7 1 -2.038818573011e-05  -1.334394629137e-04  -3.410508106760e-05 
8 1 -1.037844355934e-04  -5.498607090948e-05   1.874268532786e-05 
8
Step 24000
1 1 -1.698423951092e-05  -2.655167012014e-06  -8.164137950322e-05 
2 1 -2.565922614248e-05  -9.396909757600e-06  -3.984122034446e-05 
3 1  7.663324694854e-05   2.199139560180e-06   1.072705958405e-04 
4 1  1.492255364051e-04   2.017502903516e-05  -1.950203700138e-05 
5 1  4.993242369350e-05  -4.761021021923e-05   2.628191358370e-05 
6 1 -1.094811018071e-05   1.131419963001e-04  -1.846686586133e-05 
7 1 -9.043775682394e-05  -7.409756925672e-05  -7.028613852089e-05 
8 1 -5.854115195974e-05  -5.815951526885e-05   1.190540630366e-05 
8
Step 25000
1 1  5.869650128774e-05  -3.565933353123e-05  -1.115622446821e-04 
2 1  8.467455007022e-06  -1.301127926321e-04  -4.992293837542e-05 
3 1  4.632603297509e-05  -1.908472899490e-05   1.160086417926e-04 
4 1  1.608286267484e-04  -7.372844202727e-05  -6.562315364224e-05 
5 1  6.673276639630e-05   3.213752048508e-05   5.630817208885e-06 
6 1  4.966129419340e-05   8.678407216303e-05  -1.106326872632e-05 
7 1 -1.211885267976e-04   2.355656417373e-05  -7.340630642083e-05 
8 1  1.058939049390e-05  -3.067862372283e-05  -7.707980292445e-06 
8
Step 26000
1 1  1.054269444581e-04  -5.044697007597e-05  -8.731215880276e-05 
2 1  3.351091094777e-05  -1.878871059621e-04  -4.992402179523e-05 
3 1 -9.674542082632e-06  -2.688425085083e-05   8.469938367047e-05 
4 1  9.581955522112e-05  -1.374087944524e-04  -7.546280088917e-05 
5 1  4.961294493109e-05   9.673121995186e-05  -2.773499540138e-05 
6 1  8.587774145708e-05   2.722218568065e-05   1.015569792453e-06 
7 1 -1.014157514374e-04   1.180439032718e-04  -3.486855266721e-05 
8 1  7.525419958047e-05   1.554415803493e-05  -2.266681018816e-05 
8
Step 27000
1 1  1.042923137390e-04  -5.149996702422e-05  -2.165571799812e-05 
2 1  4.062706335975e-05  -1.488045331135e-04  -3.036998271413e-05 
3 1 -6.689721051894e-05  -2.084705090420e-05   2.663065542248e-05 
4 1 -1.723513459582e-05  -1.408191935234e-04  -4.605116254237e-05 
5 1  4.515886112238e-06   1.138975914553e-04  -5.730630958330e-05 
6 1  7.895770064304e-05  -4.229967222632e-05   1.586805542505e-05 
7 1 -4.299922745863e-05   1.662293444697e-04   2.942376532516e-05 
8 1  1.105086371560e-04   5.378576469189e-05  -2.610156730556e-05 
8
Step 28000
1 1  5.528841764701e-05  -4.152145376171e-05   5.599723637433e-05 
2 1  2.605518777318e-05  -4.905395054289e-05   2.815510715145e-06 
3 1 -9.422910465518e-05  -7.645480971526e-06  -3.737028602728e-05 
4 1 -1.262262346222e-04  -8.161477561674e-05   4.496961587405e-06 
5 1 -4.587932657346e-05   8.103775060566e-05  -6.634903231399e-05 
6 1  3.208955903035e-05  -9.396318837273e-05   2.945331778130e-05 
7 1  2.716953260436e-05   1.451971537885e-04   8.881894138602e-05 
8 1  1.041873198530e-04   6.705663039383e-05  -1.253196588703e-05 
8
Step 29000
1 1 -1.114329331131e-05  -2.689069075258e-05   1.037332362439e-04 
2 1 -1.678006213746e-06   6.044810274569e-05   3.340243092742e-05 
3 1 -8.233993085935e-05   4.849469075714e-06  -8.753841939773e-05 
4 1 -1.793234882438e-04   1.006986817656e-05   4.779237163635e-05 
5 1 -7.473235858930e-05   1.304266749131e-05  -4.717578766302e-05 
6 1 -3.350955311467e-05  -1.098260137773e-04   3.919668167190e-05 
7 1  7.902508439280e-05   6.199066587456e-05   1.142096454238e-04 
8 1  5.916208613516e-05   5.224661202976e-05   1.984829816472e-05 
8
Step 30000
1 1 -6.408998032108e-05  -1.434146955967e-05   9.899489058308e-05 
2 1 -2.462735312469e-05   1.417084241140e-04   5.340422300715e-05 
3 1 -3.800715040031e-05   1.208446842473e-05  -1.108069989258e-04 
4 1 -1.504307054440e-04   9.240112786284e-05   5.904475794688e-05 
5 1 -6.856604075202e-05  -6.031045428788e-05  -2.521240110208e-06 
6 1 -8.829494701490e-05  -8.653633408485e-05   4.086198001345e-05 
7 1  9.042528030351e-05  -4.898852779249e-05   8.782732667709e-05 
8 1 -1.804588105096e-06   9.532273906022e-06   5.125994917031e-05 
8
Step 31000
1 1 -8.217099090401e-05  -6.515900580521e-07   4.484535388375e-05 
2 1 -3.146868794137e-05   1.561738833648e-04   5.927476327943e-05 
3 1  2.192218659058e-05   1.195032307261e-05  -1.018095383111e-04 
4 1 -5.359915306511e-05   1.286133825557e-04   2.961189109749e-05 
5 1 -3.180961969039e-05  -1.040344829222e-04   5.103211770475e-05 
6 1 -1.058766339636e-04  -3.266376169271e-05   3.137653803297e-05 
7 1  6.083198855409e-05  -1.367494516047e-04   1.629489139465e-05 
8 1 -5.628143213463e-05  -4.084914188245e-05   6.167011908049e-05 
8
Step 32000
1 1 -5.977615239793e-05   1.864508537798e-05  -3.419641197267e-05 
2 1 -2.016497198338e-05   9.477273985382e-05   4.820534609343e-05 
3 1  7.190941352036e-05   7.546797107084e-06  -6.453390996769e-05 
4 1  6.662996212594e-05   1.039838307431e-04  -2.386112529838e-05 
5 1  1.758737588482e-05  -9.749587473435e-05   8.860310910324e-05 
6 1 -7.768994250039e-05   3.000802787529e-05   9.681950918600e-06 
7 1  8.770871357589e-06  -1.608401614591e-04  -6.927300352010e-05 
8 1 -9.102620701310e-05  -6.812471274567e-05   4.685838985145e-05 
8
Step 33000
1 1 -1.702557269538e-05   3.933843641759e-05  -9.561482662198e-05 
2 1 -1.933225880184e-06  -3.079456912646e-07   2.192172172102e-05 
3 1  9.261369146793e-05   2.486675035060e-06  -9.311992478090e-06 
4 1  1.542746423110e-04   3.469664332403e-05  -6.923668302256e-05 
5 1  5.760826696608e-05  -4.814620426928e-05   9.197267680749e-05 
6 1 -1.627284266559e-05   7.592618335270e-05  -1.944096465725e-05 
7 1 -3.897407652280e-05  -1.127905384414e-04  -1.300608344386e-04 
8 1 -9.292266418809e-05  -5.680455605503e-05   8.282567268386e-06 
8
Step 34000
1 1  1.716705800595e-05   5.711558972614e-05  -1.062064686118e-04 
2 1  1.280336357914e-05  -7.873588751199e-05  -4.755982457421e-06 
3 1  7.867425108317e-05  -3.220255206828e-07   4.559443575536e-05 
4 1  1.695462923950e-04  -4.758450977172e-05  -8.039240830575e-05 
5 1  6.880383878843e-05   1.735592589289e-05   5.777321281330e-05 
6 1  5.044205252807e-05   8.783154290386e-05  -4.816487764491e-05 
7 1 -5.936914221317e-05  -1.325075387991e-05  -1.355140139343e-04 
8 1 -6.031700807298e-05  -1.407390087156e-05  -4.046305342411e-05 
8
Step 35000
1 1  3.303898174526e-05   6.734741382459e-05  -6.822916616654e-05 
2 1  1.882859833298e-05  -1.151418259504e-04  -2.029498278145e-05 
3 1  4.033705105177e-05  -2.702286307302e-06   8.508889397710e-05 
4 1  1.079536701786e-04  -1.022109521270e-04  -4.550109642705e-05 
5 1  4.543184252927e-05   6.994024150384e-05  -6.449281689153e-07 
6 1  9.181092363848e-05   6.574118773239e-05  -6.643457999047e-05 
7 1 -4.232656241414e-05   8.915089632964e-05  -7.882180857261e-05 
8 1 -1.454289605546e-05   3.810197262603e-05  -7.459124154173e-05 
8
Step 36000
1 1  2.387707408707e-05   5.410224010761e-05   5.064643683425e-06 
2 1  1.549173120611e-05  -9.851719648015e-05  -2.672603047979e-05 
3 1 -5.846942807930e-06  -6.661303746202e-06   1.007753026697e-04 
4 1  9.515274880444e-07  -1.015776994918e-04   2.504224164561e-05 
5 1  3.353508462426e-06   8.774979420436e-05  -6.031457036909e-05 
6 1  9.738817376597e-05   2.082292764514e-05  -6.650183255575e-05 
7 1 -8.880960905236e-07   1.413732318059e-04   1.648759863797e-05 
8 1  2.987882998444e-05   7.652421011662e-05  -8.357909601708e-05 
8
Step 37000
1 1 -1.306498936132e-06   1.143902113048e-05   8.249695492790e-05 
2 1  6.143837097138e-06  -4.097148807667e-05  -3.214708642783e-05 
3 1 -4.032430714084e-05  -1.329508034286e-05   8.977055324903e-05 
4 1 -1.011891473131e-04  -5.077392685114e-05   9.678131839820e-05 
5 1 -3.135088203592e-05   6.529686638518e-05  -9.748266482237e-05 
6 1  6.723258948947e-05  -2.729684810684e-05  -4.410344424681e-05 
7 1  4.163634009082e-05   1.213863258360e-04   1.048896230878e-04 
8 1  6.481297681022e-05   7.989864450175e-05  -6.173818450601e-05 
8
Step 38000
1 1 -1.405868684825e-05  -4.340447540977e-05   1.175300653078e-04 
2 1 -2.235291659613e-06   2.336123305340e-05  -3.654868239700e-05 
3 1 -5.670912392662e-05  -1.774074679672e-05   5.440218033931e-05 
4 1 -1.452570293739e-04   2.239899628282e-05   1.289233313456e-04 
5 1 -4.587957129912e-05   1.553987548049e-05  -9.569474769268e-05 
6 1  1.256673481483e-05  -5.582270887549e-05  -3.493588633965e-06 
7 1  6.520769021614e-05   4.122132791937e-05   1.470215892916e-04 
8 1  7.808321754889e-05   3.513212938194e-05  -1.369828317844e-05 
8
Step 39000
1 1 -9.221130781873e-07  -8.474616090845e-05   9.203027680639e-05 
2 1 -6.621838209264e-06   6.068473778577e-05  -3.990752239718e-05 
3 1 -5.765378254154e-05  -1.852138540625e-05   2.202883375713e-06 
4 1 -1.185420161094e-04   8.039651764896e-05   1.039752437671e-04 
5 1 -3.488750760426e-05  -3.342516110185e-05  -5.740952614755e-05 
6 1 -3.606104655314e-05  -5.348723710903e-05   4.160775970463e-05 
7 1  5.241500346920e-05  -6.290254204444e-05   1.225558358461e-04 
8 1  6.999965234284e-05  -3.462145839789e-05   4.135069883270e-05 
8
Step 40000
1 1  2.504983594280e-05  -9.861467891441e-05   2.857009337865e-05 
2 1  1.279874402387e-06   5.953791868666e-05  -4.350146247019e-05 
3 1 -4.869689857389e-05  -1.306706023752e-05  -5.105938438017e-05 
4 1 -4.581693157590e-05   9.835667903889e-05   2.787020556099e-05 
5 1 -3.112133623592e-06  -5.873305321440e-05  -6.076393230759e-07 
6 1 -5.813423808894e-05  -2.763685617127e-05   7.623483226880e-05 
7 1  1.388587206238e-06  -1.357608556627e-04   3.836356579083e-05 
8 1  4.350727454695e-05  -9.039738966927e-05   8.147423276248e-05 
8
Step 41000
1 1  5.130318713883e-05  -7.101366271017e-05  -4.934376941661e-05 
2 1  5.864773259339e-06   3.348501949745e-05  -3.864696464440e-05 
3 1 -3.708882750357e-05   5.017068935687e-06  -8.567190923031e-05 
4 1  4.773626054107e-05   6.596528105419e-05  -7.023735928642e-05 
5 1  2.625887836977e-05  -5.292113126023e-05   5.327973286213e-05 
6 1 -6.266066596509e-05   9.899955221165e-06   8.875461215204e-05 
7 1 -6.156281109730e-05  -1.344760030960e-04  -6.384787933096e-05 
8 1  2.504936682583e-06  -1.175220396271e-04   9.569107197308e-05 
8
Step 42000
1 1  5.754551528156e-05  -4.717025965344e-06  -1.089738182441e-04 
2 1 -4.185483564556e-06   2.936264307540e-06  -7.303591519167e-06 
3 1 -2.340141437334e-05   2.994145071612e-05  -9.533252533017e-05 
4 1  1.125710738211e-04   4.497431039255e-07  -1.434869053143e-04 
5 1  3.318424851144e-05  -2.320946092255e-05   8.467992237546e-05 
6 1 -4.470321936388e-05   3.710915973975e-05   6.986923237624e-05 
7 1 -1.037813887481e-04  -6.085541790909e-05  -1.301621763183e-04 
8 1 -4.792861231538e-05  -9.745042935216e-05   7.570305432842e-05 
8
Step 43000
1 1  2.547357524671e-05   6.717796748986e-05  -1.155488860917e-04 
2 1 -2.396555583832e-05  -1.255077824368e-05   4.248808277280e-05 
3 1 -2.499489988449e-06   4.873873528807e-05  -7.494607541941e-05 
4 1  1.103938049132e-04  -6.870768350456e-05  -1.529924257601e-04 
5 1  2.101275757707e-05   1.099378169035e-05   8.218456664367e-05 
6 1 -1.411523251936e-05   3.784434311168e-05   2.568590929080e-05 
7 1 -1.103967235898e-04   4.531119985214e-05  -1.378137046191e-04 
8 1 -8.018783942494e-05  -1.922957038450e-05   2.966299482279e-05 
8
Step 44000
1 1 -3.103458880722e-05   1.057982277552e-04  -7.064144321188e-05 
2 1 -3.299967413467e-05  -5.759013847032e-06   9.598071976283e-05 
3 1  2.609881925051e-05   5.118819149492e-05  -2.915340330734e-05 
4 1  5.490684439843e-05  -1.010659531766e-04  -9.950592523421e-05 
5 1 -5.031068109778e-06   3.113208926101e-05   5.102090290794e-05 
6 1  5.734062505821e-06   1.457692746286e-05  -2.609706531740e-05 
7 1 -6.613623685624e-05   1.365605257969e-04  -8.067296129789e-05 
8 1 -9.251439502349e-05   7.049848063367e-05  -2.919701288528e-05 
8
Step 45000
1 1 -8.652320992726e-05   9.382966480384e-05   2.464102900475e-06 
2 1 -2.777810848325e-05   9.996349220542e-06   1.257902321303e-04 
3 1  6.148809592536e-05   3.486574098151e-05   2.549201033527e-05 
4 1 -1.916890936373e-05  -8.511111710215e-05  -1.023309770860e-05 
5 1 -3.095792505442e-05   2.823378784440e-05   5.072959950594e-06 
6 1  1.178581318431e-05  -1.894411724101e-05  -6.922892940179e-05 
7 1  2.088786537180e-05   1.664638609324e-04   1.868754940876e-05 
8 1 -7.831580969978e-05   1.312042011559e-04  -7.870341317581e-05 
8
Step 46000
1 1 -1.130433929409e-04   3.252072000414e-05   7.256931036441e-05 
2 1 -6.091752568823e-06   1.433735451556e-05   1.091873896954e-04 
3 1  9.300500662761e-05  -2.710091154368e-06   6.228972419591e-05 
4 1 -8.322864259724e-05  -3.157892847280e-05   8.622070976469e-05 
5 1 -3.974224286748e-05   6.153774896063e-06  -3.726496465659e-05 
6 1  1.160136774137e-05  -4.571566958795e-05  -8.854717858184e-05 
7 1  1.121444240335e-04   1.160345968692e-04   1.078721362895e-04 
8 1 -2.686650346125e-05   1.527316131854e-04  -1.040790165386e-04 
8
Step 47000
1 1 -9.066621957526e-05  -5.371810767554e-05   1.103673147841e-04 
2 1  2.998494262237e-05   4.036687032060e-07   3.948522847084e-05 
3 1  9.993952307204e-05  -4.930122323869e-05   7.208063865344e-05 
4 1 -1.040750684641e-04   3.849425895796e-05   1.422412497624e-04 
5 1 -2.500688815304e-05  -1.835608054187e-05  -5.782192864164e-05 
6 1  5.113646051970e-06  -4.732362707772e-05  -7.305176697643e-05 
7 1  1.663726390636e-04   7.997712249638e-06   1.390963978703e-04 
8 1  4.729112894051e-05   1.164521935208e-04  -9.327222539842e-05 
8
Step 48000
1 1 -1.913890260713e-05  -1.126529767366e-04   9.417437401194e-05 
2 1  6.950808723777e-05  -2.877494402260e-05  -5.089491717243e-05 
3 1  6.903912607152e-05  -8.441117560183e-05   5.624483512365e-05 
4 1 -6.861565154900e-05   9.696556532821e-05   1.290932611402e-04 
5 1 -1.764162644941e-07  -2.755260460351e-05  -5.425119181587e-05 
6 1  2.723847680220e-06  -2.139744191190e-05  -3.369359438929e-05 
7 1  1.612921152657e-04  -1.105356702102e-04   1.090029875127e-04 
8 1  9.778335516558e-05   2.508840413969e-05  -5.071001719778e-05 
8
Step 49000
1 1  6.200976922764e-05  -1.100557424447e-04   4.345002199711e-05 
2 1  8.064015263861e-05  -5.852898053660e-05  -1.320146005568e-04 
3 1  6.226944549298e-06  -8.791908210391e-05   2.256591638631e-05 
4 1 -5.278825937620e-07   1.045256231145e-04   6.341737372837e-05 
5 1  2.238663992870e-05  -1.590913471101e-05  -3.272294502227e-05 
6 1  1.380571217227e-05   1.811687478875e-05   1.031720291940e-05 
7 1  9.178928662942e-05  -1.808182972978e-04   2.877989882597e-05 
8 1  1.160846609771e-04  -7.159029954618e-05   1.257317741377e-05 
8
Step 50000
1 1  1.171035085659e-04  -5.152921406479e-05  -1.205293209777e-05 
2 1  4.804607632840e-05  -6.402447613239e-05  -1.726940086374e-04 
3 1 -7.124565898330e-05  -5.279449928003e-05  -1.015778557117e-05 
4 1  6.622885870053e-05   6.319466313156e-05  -1.572089506110e-05 
5 1  3.290180124658e-05   9.582533935969e-06  -3.214313477538e-06 
6 1  2.776144976995e-05   5.530371643476e-05   4.844239777221e-05 
7 1 -2.040381751730e-05  -1.717657078831e-04  -6.747329407809e-05 
8 1  1.010765456278e-04  -1.355579955933e-04   6.643532506485e-05 
8
Step 51000
1 1  1.285464254284e-04   4.568735618638e-05  -5.752181488738e-05 
2 1 -1.098377722582e-05  -3.284403961449e-05  -1.504987099753e-04 
3 1 -1.352828029784e-04   4.255446002749e-06  -2.523908326727e-05 
4 1  9.877223411607e-05   1.176916752608e-06  -7.105329577205e-05 
5 1  2.791794278718e-05   3.608927081131e-05   1.815540418674e-05 
6 1  4.061275690936e-05   6.887706858156e-05   6.089702951386e-05 
7 1 -1.293586279691e-04  -8.935170437431e-05  -1.289079847072e-04 
8 1  3.697366969319e-05  -1.563613845454e-04   1.028168498769e-04 
8
Step 52000
1 1  8.701617685612e-05   1.376730269252e-04  -7.530984518175e-05 
2 1 -6.757159009639e-05   2.328073345228e-05  -6.129314932435e-05 
3 1 -1.536037157838e-04   6.331618093989e-05  -2.113892566064e-05 
4 1  8.074420414791e-05  -6.246540819471e-05  -8.626047630606e-05 
5 1  1.187529559216e-05   4.764261711587e-05   2.121383312761e-05 
6 1  4.551173559592e-05   4.817600170630e-05   4.231657758093e-05 
7 1 -1.917964937777e-04   2.534088793606e-05  -1.241407516169e-04 
8 1 -5.035986749101e-05  -1.212967201089e-04   1.059982294210e-04 
8
Step 53000
1 1  5.633547928673e-06   1.628826578411e-04  -5.526280843889e-05 
2 1 -1.072439370222e-04   7.795281414687e-05   4.692631993962e-05 
3 1 -1.115816498799e-04   1.007123941507e-04  -7.121091482018e-06 
4 1  2.750913337272e-05  -1.007711022996e-04  -5.258271887174e-05 
5 1 -3.371302637471e-06   3.504478224361e-05   1.144585581603e-05 
6 1  2.928164177096e-05   7.672972950616e-06   1.429125106311e-05 
7 1 -1.810107410637e-04   1.278833887161e-04  -6.893540286642e-05 
8 1 -1.056720528056e-04  -4.916547041837e-05   6.608064373070e-05 
8
Step 54000
1 1 -6.909660065731e-05   1.039607478360e-04  -2.020964595048e-05 
2 1 -1.030136148425e-04   1.026226563685e-04   1.219692846864e-04 
3 1 -2.666862689871e-05   9.676237385481e-05   5.924936909056e-06 
4 1 -3.447271247486e-05  -8.858420119581e-05   5.409370663787e-06 
5 1 -8.558214313230e-06   2.984160056553e-06   1.706105749329e-07 