8
Step 0
1 1  0.000000000000e+00   0.000000000000e+00   0.000000000000e+00 
2 1  0.000000000000e+00   0.000000000000e+00   0.000000000000e+00 
3 1  0.000000000000e+00   0.000000000000e+00   0.000000000000e+00 
4 1  0.000000000000e+00   0.000000000000e+00   0.000000000000e+00 
5 1  0.000000000000e+00   0.000000000000e+00   0.000000000000e+00 
6 1  0.000000000000e+00   0.000000000000e+00   0.000000000000e+00 
7 1  0.000000000000e+00   0.000000000000e+00   0.000000000000e+00 
8 1  0.000000000000e+00   0.000000000000e+00   0.000000000000e+00 
8
Step 1000
1 1  1.913063569677e-04   3.693651373250e-05  -2.557272221823e-04 
2 1  2.282997713777e-04  -3.496474863860e-04  -6.641780240680e-05 
3 1 -2.534905878810e-04  -3.083793369399e-04  -2.545152310526e-05 
4 1  3.751904590676e-04  -8.486922841339e-05   1.355343539348e-04 
5 1  4.069522337834e-04  -1.077864431699e-04  -2.632878358609e-04 
6 1  7.993499060007e-05   3.914290583283e-04   2.029447765536e-04 
7 1 -5.510698530659e-05   3.952803522322e-05  -3.648127728296e-04 
8 1 -6.407136058048e-05  -8.674685949199e-05   9.830142770878e-05 
8
Step 2000
1 1  5.352404860181e-05   1.063813356308e-05   1.401037072264e-05 
2 1  2.299811329061e-04  -1.991592305162e-04  -2.799606384075e-04 
3 1 -5.220214752039e-05   2.178864323353e-04   9.960275397244e-05 
4 1  2.214174766182e-05   6.312469620245e-05  -3.146009225283e-04 
5 1  7.436845230514e-05   1.720544001652e-04   1.778155451046e-04 
6 1 -6.957828674263e-05  -7.275605661609e-05   1.922014535530e-04 
7 1 -3.862513928178e-05  -1.452507589822e-04   4.158965826495e-05 
8 1 -4.034636785930e-05  -2.963384346432e-04  -3.372115713262e-04 
8
Step 3000
1 1  1.987674743242e-04   8.043603986185e-06  -2.354645385575e-04 
2 1  6.720876360493e-05  -2.692375555577e-04   9.129591581329e-05 
3 1 -1.675638315059e-04  -2.130225095150e-04   8.441000186652e-05 
4 1  2.035999827423e-04  -6.332224855536e-05  -1.076951416948e-04 
5 1  3.156864679668e-04  -1.384561095718e-04  -1.566133332511e-04 
6 1  5.217423183512e-05   4.056280447089e-04   2.256633880124e-04 
7 1 -3.301710435167e-05   1.884637055328e-05  -3.205067095642e-04 
8 1 -9.041083976599e-06   1.046938416899e-04   1.067266463352e-04 
8
Step 4000
1 1 -8.461797886879e-05   3.106014156843e-05   7.968814459442e-05 
2 1  1.493842921468e-04  -4.634821816882e-05  -2.418664740946e-04 
3 1 -2.919343217312e-05   2.175364103289e-04  -4.697619660619e-05 
4 1  7.609737095174e-05   1.230382486127e-04  -1.944534762182e-04 
5 1 -5.679221733126e-05   1.517454448530e-04   9.401348156361e-05 
6 1 -3.432540851684e-04  -1.607275411904e-04   2.339671724923e-04 
7 1 -6.253519089083e-05   2.057859851937e-05   3.484830988805e-05 
8 1  2.846888496500e-05  -1.042714247257e-04  -2.754938471583e-04 
8
Step 5000
1 1  2.496710013533e-04  -1.286589085337e-05  -1.013799564407e-04 
2 1 -1.873036739976e-05  -2.359199687654e-04   8.506472498709e-05 
3 1 -1.365013565185e-04  -5.693900158919e-05   8.717884235204e-05 
4 1 -9.189785847825e-05  -8.162256115926e-05  -7.737680270758e-05 
5 1  1.455731839812e-04  -1.896916073452e-04   9.650330786781e-05 
6 1  6.889578790634e-05   3.280611207626e-04   1.887467834065e-04 
7 1  6.754291828866e-05   2.792334718800e-05  -2.074183912698e-04 
8 1  8.932247231709e-05   7.756310542996e-05  -1.514392268504e-05 
8
Step 6000
1 1 -1.716976786399e-04   1.831949472175e-04   6.953007964084e-05 
2 1  3.339084175335e-05   8.351467921560e-05  -1.675253437351e-04 
3 1 -1.052969388989e-04   9.155117566160e-05  -1.009190655178e-04 
4 1  5.685772021420e-05   1.478385125945e-04   1.476836904875e-04 
5 1  9.603581790902e-05   3.328769659509e-05  -4.429767637768e-05 
6 1 -1.828020207538e-04   8.366347252204e-05   9.041712828193e-05 
7 1 -1.474415543811e-04   4.791477941412e-05  -1.140490492038e-04 
8 1 -9.471408298070e-06  -6.054400799310e-05  -1.399213629598e-04 
8
Step 7000
1 1  1.735576879966e-04  -5.549714561749e-05   2.808308806603e-05 
2 1 -5.004813044240e-05  -1.751886962071e-04   9.176400442147e-05 
3 1 -1.003914923375e-04   1.276446821715e-04   2.369636484140e-04 
4 1 -1.855824583824e-04  -7.295005475881e-06  -3.111212395605e-04 
5 1  2.070481624717e-04  -9.288192399653e-05   1.745107672301e-04 
6 1  8.472414878255e-05   2.269091300844e-04   9.716130481784e-05 
7 1 -1.914315396523e-04  -1.420401645476e-04   1.728194893542e-05 
8 1  1.029268996018e-04  -1.022007223937e-04  -2.018682609171e-05 
8
Step 8000
1 1 -1.447218524076e-04   1.606501358573e-04  -2.098451855128e-05 
2 1  5.161569220581e-07   5.540195779771e-05  -8.553734570403e-05 
3 1 -8.702985683571e-05   1.347898584836e-05  -8.992354981849e-05 
4 1  1.975494773114e-04   2.589772640940e-05   1.668558320529e-04 
5 1  1.597962134008e-04  -6.976247134059e-05  -6.278845593631e-05 
6 1 -2.849921796935e-04   2.359361450385e-04   4.552134697595e-05 
7 1 -2.384901001345e-04   5.869855918986e-05  -1.778835951351e-04 
8 1  1.182359034794e-04   1.040979104034e-04   6.009279411446e-05 
8
Step 9000
1 1  1.153304709023e-04  -6.062316878307e-05   1.276955612047e-04 
2 1 -2.182610967700e-05  -9.457602793955e-05   2.243662996149e-06 
3 1 -2.076370573015e-05   2.262604618746e-04   1.028031043940e-04 
4 1 -1.777066514646e-04  -6.175174783816e-06  -2.156140122105e-04 
5 1 -1.792971887587e-04  -2.822899692757e-05   2.518350446577e-04 
6 1 -1.118167468116e-04  -3.971256377913e-05   1.236231527981e-04 
7 1  2.403011426613e-05  -1.378758247897e-04   5.947410975860e-05 
8 1  1.988452053195e-04  -8.383264738978e-05  -1.229442211259e-04 
8
Step 10000
1 1 -8.214402531841e-05   1.600921486567e-04  -3.231349213481e-05 
2 1 -3.500856663337e-05   5.453086138532e-05   2.319790266939e-05 
3 1 -1.170903781005e-04  -1.066588861045e-04  -1.324665241803e-04 
4 1  1.840206385167e-04  -8.297370786881e-05   3.757905764782e-04 
5 1  5.488100645596e-05  -1.608021454242e-04  -1.686225184953e-04 
6 1  9.402276125340e-05   3.424445124639e-04  -4.535624844082e-05 
7 1 -6.850460518046e-05   4.672389819669e-05  -3.215087759137e-04 
8 1 -2.895393162893e-05   1.850991404626e-04   1.831967345880e-04 
8
Step 11000
1 1 -5.426715085783e-06  -3.032434983198e-05   1.931688813510e-04 
2 1  3.642530424784e-05  -2.620044392664e-05  -7.521526362723e-05 
3 1  1.844473886519e-05   2.859330749611e-04   7.000267113918e-05 
4 1 -1.922755050914e-04   8.183791252264e-05  -2.185841930739e-04 
5 1 -8.864871605740e-05   7.366553896216e-05   1.642489516810e-04 
6 1 -1.609179663669e-05  -1.398402824761e-04   9.596875116190e-05 
7 1 -1.295357560454e-04  -2.490657378763e-04   4.971234711530e-05 
8 1  3.307761623401e-05  -1.653206748265e-04  -5.534909142945e-05 
8
Step 12000
1 1  5.019090911205e-05   3.846690736204e-05  -1.428027321741e-04 
2 1 -5.865509095763e-05  -7.823912873864e-05   7.590770367160e-05 
3 1 -8.386242708536e-05  -1.223342210993e-04   1.327065794040e-05 
4 1  1.468622567024e-04  -1.223329691800e-04   1.495326382103e-04 
5 1  2.156178413674e-04  -2.474294773749e-04  -7.190611030819e-05 
6 1 -5.217104455171e-06   2.784982157574e-04   3.978241159741e-06 
7 1 -5.553361727720e-05   4.458232604854e-05  -2.434656907650e-04 
8 1  1.409762348738e-04   2.561627784458e-04   1.965406693733e-04 
8
Step 13000
1 1 -1.050491061062e-04   4.065746090748e-05   1.873721476463e-04 
2 1  3.996887457959e-06   6.239102436034e-05  -1.610509562806e-04 
3 1  2.664512597610e-05   2.732192348639e-04  -8.044149458648e-05 
4 1 -4.004170580480e-05   9.638601165563e-05  -4.791152893741e-05 
5 1 -2.176924288949e-04  -9.309938591669e-06   1.842290925332e-04 
6 1 -2.655689543838e-04  -1.961535745440e-04   4.855078312714e-05 
7 1  7.163429585105e-05  -1.071324959922e-04  -6.577196304889e-05 
8 1  8.398114923751e-05  -9.481737486296e-05  -6.540769052102e-05 
8
Step 14000
1 1  1.471190304849e-04  -2.758704974338e-05  -6.978251012383e-05 
2 1 -4.264587650114e-05  -1.088951251595e-04   5.986956758293e-05 
3 1 -1.869270558892e-05  -8.249169729682e-05   8.842921775669e-05 
4 1  4.945167123683e-05  -2.193613552557e-04   3.986643626438e-05 
5 1  6.119297666537e-05  -2.076962912641e-04   5.798748003060e-05 
6 1  1.647333533705e-04   2.560785489032e-04  -1.196333493868e-04 
7 1  1.113368858629e-04   6.575328013427e-05  -1.715924406453e-04 
8 1  2.885852983173e-06   6.790180297280e-05   2.044077570133e-04 
8
Step 15000
1 1 -1.919787076376e-04   1.135218316711e-04   1.430432720803e-04 
2 1  5.792854883653e-05   1.567135289806e-04  -2.094581979785e-04 
3 1  1.832181733253e-05   1.072610059130e-04  -1.643242609121e-04 
4 1  1.097534408745e-04   6.094340797952e-05   1.557235314978e-04 
5 1 -1.803469813474e-04   9.118460743838e-05  -4.113444218868e-05 
6 1 -1.699633640734e-04  -4.383632710398e-05  -8.889717402903e-05 
7 1 -3.073370015011e-05  -1.627037057507e-04  -6.308630841545e-05 
8 1 -4.702771004605e-05   1.811150188005e-06   4.472467845669e-05 
8
Step 16000
1 1  1.824441961476e-04  -1.453669725596e-04  -6.898291520138e-05 
2 1 -6.472769755510e-06  -1.767679938463e-04   8.274069916615e-05 
3 1  1.533449275342e-05  -3.685570514835e-05   2.408466073425e-04 
4 1 -1.286427684495e-04  -1.023856035420e-04  -2.923678587401e-04 
5 1  1.150961173230e-04  -9.826144280323e-05   1.128691247002e-04 
6 1  1.872071183829e-04   9.208721141412e-06   3.678820925959e-05 
7 1  3.292303228219e-05  -1.178769246177e-04   8.770678786987e-05 
8 1  9.785226368784e-05   1.449778127370e-04   2.950197316888e-05 
8
Step 17000
1 1 -2.254410310526e-04   1.612138612067e-04   6.193215026463e-06 
2 1  2.668214478162e-05   1.712677330064e-04  -1.639027289528e-04 
3 1 -2.755944110911e-05   4.567808139151e-05  -2.161008983681e-04 
4 1  2.304470688187e-04   6.125714025614e-05   2.737601167654e-04 
5 1 -1.187632858960e-05  -7.235933695682e-05  -7.737397608609e-05 
6 1 -2.491544180323e-04  -2.736845603786e-05   1.684773434622e-05 
7 1 -5.962472514822e-05   6.832133103832e-05  -2.694010798433e-04 
8 1 -1.296123267894e-05   1.527614856798e-04   4.990412506910e-05 
8
Step 18000
1 1  1.617459366910e-04  -1.396281338000e-04   7.231902813723e-05 
2 1  2.227659738973e-05  -1.493765952003e-04   5.764736371789e-05 
3 1  3.398701605178e-05   1.093979819360e-04   1.162311232399e-04 
4 1 -1.151764924320e-04  -9.877147808512e-05  -2.158710442896e-04 
5 1 -7.384395252146e-05  -1.020967234774e-04   2.081233755169e-04 
6 1  3.717688765172e-05   1.859988340034e-05  -2.356488963628e-05 
7 1  1.327106096703e-04  -2.852379213507e-05   4.473834674199e-05 
8 1  3.609217661630e-05  -1.924390318424e-04   4.866900125919e-05 
8
Step 19000
1 1 -1.288985011745e-04   1.588408654788e-04  -9.113529376585e-05 
2 1 -3.101595253545e-06   1.050868650687e-04  -7.837792121422e-05 
3 1 -2.244014451348e-05  -1.000243958877e-04  -1.764596608772e-04 
4 1  2.618234392908e-04  -1.260551827740e-04   3.275467973528e-04 
5 1  9.409654298700e-05  -9.432417568692e-06  -1.869107661842e-04 
6 1 -4.381001180035e-05   1.774084384935e-04  -1.397961188601e-04 
7 1 -4.357190865395e-05   5.768004478527e-05  -1.238516874036e-04 
8 1 -9.067279294367e-05   2.630594706153e-04   1.005709060552e-04 
8
Step 20000
1 1  7.969021830634e-05  -1.017186063651e-04   1.460531087728e-04 
2 1  3.668412651612e-05  -1.056062269513e-04  -4.056132960104e-05 
3 1  6.395050746588e-05   1.821336863218e-04   1.223955506495e-04 
4 1 -1.803525996906e-04   4.334432896952e-05  -2.995248008988e-04 
5 1 -1.849022593524e-04   5.726134649193e-05   1.979533007283e-04 
6 1  1.060153323844e-05  -2.334365092204e-04   1.148542034552e-04 
7 1  2.962541553581e-05  -1.811242905408e-04   1.886358989540e-04 
8 1  5.751360130116e-05  -1.265490596949e-04  -1.359845587016e-04 
8
Step 21000
1 1 -1.520267779611e-05   7.516310519224e-05  -1.925434954060e-04 
2 1 -4.839178477690e-05   3.224751108778e-05  -3.621536573746e-05 
3 1 -8.992944723626e-06  -1.439564504102e-04  -1.852732093299e-05 
4 1  2.039984831237e-04  -1.252851795979e-04   2.264306459173e-04 
5 1  2.320135913857e-04  -1.179456966989e-04  -1.603656745877e-04 
6 1  8.296669219033e-05   1.188223986096e-04  -1.209807620700e-05 
7 1 -1.782947618295e-04   2.102114007586e-04  -1.799334801540e-04 
8 1  4.837279019636e-06   2.994888920377e-04   1.306635357703e-04 
8
Step 22000
1 1 -6.216641136197e-05  -3.840268176127e-05   2.064899398664e-04 
2 1  4.152636269284e-05   7.039507393255e-05  -1.164133220727e-04 
3 1  6.283331006088e-05   2.194556747754e-04   6.362439807562e-07 
4 1 -8.138250400105e-05   1.111905810542e-04  -1.153331207257e-04 
5 1 -2.459663623441e-04  -4.670587398601e-05   1.519646509823e-04 
6 1 -2.894168200022e-04  -1.473410896974e-04   9.225508292124e-05 
7 1  2.063949155431e-05   3.775585432729e-06  -3.194283868826e-05 
8 1  1.226669970875e-04  -3.252583376461e-04  -4.099078833456e-05 
8
Step 23000
1 1  1.246727287576e-04  -1.529054386605e-05  -1.872710345575e-04 
2 1 -1.638552463453e-05  -1.058461269860e-04   9.424209121644e-05 
3 1 -2.828671833577e-06  -1.625353894853e-04   1.340680720624e-04 
4 1  4.814792586065e-05  -2.673686132398e-04   3.867386153536e-05 
5 1  2.032435794580e-04  -1.761701382338e-04  -2.754090439015e-05 
6 1  1.469434652295e-04   2.799201619751e-04  -9.867853858838e-05 
7 1  9.798949678544e-05   1.382569095386e-04  -5.398732662324e-05 
8 1 -8.473905475497e-06   2.414914918501e-04   1.065660544094e-04 
8
Step 24000
1 1 -1.434358578249e-04   7.610995874797e-05   1.624251039516e-04 
2 1  2.402743331303e-05   1.352811153063e-04  -1.242121411507e-04 
3 1  1.583733247275e-05   1.435329623377e-04  -1.515206865775e-04 
4 1  1.655637422767e-05   8.600942420386e-05   7.288041098842e-05 
5 1 -1.947684331867e-04   1.066856331256e-04   9.876236739836e-06 
6 1 -2.142619783191e-04  -1.856699507799e-04   1.042807064646e-04 
7 1 -9.122201308377e-05  -8.203495752979e-05   4.807372197502e-06 
8 1 -2.375149606885e-05  -5.451122119636e-05  -1.484513321338e-04 
8
Step 25000
1 1  2.405673351141e-04  -1.641318456716e-04  -1.084984085342e-04 
2 1  8.111294847428e-07  -2.116924514365e-04   1.230461833892e-04 
3 1 -4.330636974528e-06  -1.232171488724e-04   2.024422284791e-04 
4 1 -7.548878204764e-05  -2.039849775517e-04  -1.574001060731e-04 
5 1  2.157668133258e-04  -9.152283238826e-05   9.247975977346e-05 
6 1  3.466058003633e-04   2.311914233155e-05  -1.123227957887e-05 
7 1 -1.115812925792e-04   9.905177657533e-05   1.312713389519e-04 
8 1  5.190248895562e-05   1.784400360884e-04   1.747226358896e-06 
8
Step 26000
1 1 -2.097450981067e-04   1.450349770014e-04   8.299911654498e-05 
2 1 -1.571471975008e-05   2.087464204035e-04  -1.400752332576e-04 
3 1 -1.009031088708e-05   1.144789728736e-04  -1.864903816935e-04 
4 1  1.943301911936e-04   1.240517072114e-04   2.078475784370e-04 
5 1 -9.806777078518e-05   1.341689229047e-05  -7.557551560054e-05 
6 1 -2.939366355371e-04  -1.689011178232e-04   5.777497871771e-05 
7 1 -2.118844296691e-04   1.047875696946e-04  -1.506653103752e-04 
8 1  5.221985420029e-05  -7.642073017627e-06  -7.383648738942e-05 
8
Step 27000
1 1  2.262856357753e-04  -1.773138846937e-04   1.325591292999e-05 
2 1  3.154959722884e-05  -1.916713480870e-04   1.052321625117e-04 
3 1  6.356393741386e-05  -8.115744695288e-06   2.985396837833e-04 
4 1 -1.775338948214e-04  -1.350661221616e-04  -2.944925333265e-04 
5 1  6.245679519400e-06  -1.811678606734e-04   1.643786602736e-04 
6 1  1.417277012898e-04   2.158582895745e-05   1.672521077082e-05 
7 1  1.225241547155e-04   3.244109983547e-05   1.277802326540e-04 
8 1  7.908238260305e-05  -8.048951742090e-05  -7.182733919067e-06 
8
Step 28000
1 1 -1.694133973783e-04   1.855901220792e-04  -6.676926428737e-05 
2 1 -4.513595223733e-05   1.961132415803e-04  -1.074893318831e-04 
3 1  1.682687384819e-05  -1.403946380657e-05  -1.749350735688e-04 
4 1  1.669250420243e-04  -8.533396311276e-06   2.962329122729e-04 
5 1  2.306587126481e-05   4.977006173958e-05  -1.843821231651e-04 
6 1 -7.000041841784e-05   2.548736662046e-05  -3.908812179198e-05 
7 1 -1.938994626380e-04   3.315859594942e-05  -1.195943250599e-04 
8 1 -7.906285202678e-05   2.358142878221e-04  -1.933084284059e-05 
8
Step 29000
1 1  1.323001373536e-04  -1.619813235575e-04   1.216694648457e-04 
2 1  4.330773598578e-05  -1.242257991705e-04   5.889620639991e-05 
3 1  4.475289404141e-05   6.452726402503e-05   1.527131019057e-04 
4 1 -2.268099732178e-04   3.689332932255e-05  -2.917114425742e-04 
5 1 -6.154021578937e-05   4.571531083262e-05   1.417002853207e-04 
6 1  2.521126858670e-04  -2.563273404917e-04   1.857178935702e-04 
7 1 -1.440256390594e-04  -2.122566680449e-04   2.361434107189e-04 
8 1  7.319092237389e-05  -8.100478107573e-05  -1.755139572242e-04 
8
Step 30000
1 1 -6.961200714957e-05   1.251707114061e-04  -1.448473664222e-04 
2 1 -5.452065214271e-05   1.142967153926e-04  -5.449285819528e-05 
3 1 -1.611536480535e-05  -6.730290525426e-05  -1.192003184375e-04 
4 1  1.829767027669e-04  -7.736875584809e-05   2.190501841626e-04 
5 1  1.858099928348e-04  -1.761930423938e-05  -1.372209641115e-04 
6 1  8.555773390789e-05   9.851013646794e-05  -7.962968863044e-05 
7 1 -1.879261317011e-04   9.284268780155e-05  -1.231534773744e-04 
8 1 -7.869463870645e-05   3.532912152058e-04   3.280423131700e-05 
8
Step 31000
1 1 -4.884088092433e-06  -7.299876349124e-05   2.064168624137e-04 
2 1  2.844508561570e-05   2.140896291940e-05  -3.080657980416e-05 
3 1  3.291740394060e-05   1.524844649617e-04   5.332276951821e-05 
4 1 -1.156627626111e-04   1.625887292633e-04  -1.939640454144e-04 
5 1 -1.963842508405e-04  -3.143936363766e-06   1.188143202559e-04 
6 1 -1.463788059114e-04  -2.269682859928e-04   1.053322723369e-04 
7 1  1.016697618052e-04  -1.477130353257e-04   1.278468904607e-04 
8 1 -1.103597983090e-06  -2.914887443456e-04  -1.052719317508e-04 
8
Step 32000
1 1  4.560473701786e-05   7.260193339128e-05  -2.446398881260e-04 
2 1 -4.048976314650e-05  -2.203616813357e-05   6.151949261333e-05 
3 1  1.243485243101e-06  -1.367416598299e-04   6.828456898108e-05 
4 1  1.326055895743e-04  -1.867431624279e-04   7.971337774513e-05 
5 1  2.256801269969e-04  -1.130664818702e-04  -1.006889927136e-04 
6 1  2.452440465597e-04   2.329919287427e-04  -1.483610015845e-04 
7 1  2.317160464933e-05   8.575561052867e-05  -4.267905412001e-05 
8 1 -1.754297537402e-04   3.615561357414e-04   9.289456973666e-05 
8
Step 33000
1 1 -1.329164796436e-04   3.395426416068e-05   1.950895639760e-04 
2 1 -1.078782455758e-05   1.315975986304e-04  -8.546478320339e-05 
3 1  3.114834409733e-05   1.596454269435e-04  -1.005838339210e-04 
4 1 -3.867651392176e-05   2.061969814219e-04  -3.656215643569e-05 
5 1 -2.891833992645e-04   1.558319591777e-04  -2.596045372996e-05 
6 1 -4.657519914469e-05  -2.075235593475e-04   1.879367584914e-04 
7 1 -5.234246561118e-05  -3.143718784492e-04   1.094955549011e-04 
8 1 -7.598009078431e-05  -1.771118564900e-04  -1.862359287037e-04 
8
Step 34000
1 1  1.547442040714e-04  -9.308209300107e-05  -1.549453948378e-04 
2 1 -1.288881929732e-05  -1.252457943348e-04   7.296958831830e-05 
3 1  2.370133809312e-05  -1.383102793528e-04   1.300371468802e-04 
4 1 -6.186412049297e-05  -1.847539851334e-04  -7.493242707294e-05 
5 1  2.361225688421e-04  -2.712951892949e-05   2.470088155000e-05 
6 1  3.855338985985e-04   1.026667656247e-04  -2.280112813231e-05 
7 1 -4.465897795509e-05   3.464351855252e-05  -1.539406388742e-06 
8 1  1.308259202229e-05   2.835899562107e-04   5.580699902216e-05 
8
Step 35000
1 1 -2.117062026274e-04   1.344145068835e-04   1.093857260043e-04 
2 1 -5.304450343120e-05   2.201612672843e-04  -1.218858545072e-04 
3 1  1.078777285633e-05   1.341568568988e-04  -1.868340675834e-04 
4 1  8.114798418711e-05   2.135344306269e-04   1.344288504058e-04 
5 1 -1.342695094739e-04   1.279982758779e-04  -5.500228177236e-05 
6 1 -2.347936533151e-04  -2.122858015719e-04   8.876470075218e-05 
7 1 -1.028742271600e-04  -1.094241896737e-04  -6.453702658971e-05 
8 1 -4.575686509224e-05  -9.751957964854e-05  -1.077310271162e-04 
8
Step 36000
1 1  1.605527999626e-04  -1.257652293423e-04  -7.847208791912e-05 
2 1  2.595029526256e-05  -1.802572906720e-04   1.113599095370e-04 
3 1  3.110786640770e-05  -1.194695088471e-04   2.407917194424e-04 
4 1 -7.607852041395e-05  -6.670372722678e-05  -2.065374121252e-04 
5 1  1.165834501020e-04  -1.764452920223e-04   7.434881115313e-05 
6 1  2.883451714761e-04   9.550957695187e-05  -2.126095403387e-05 
7 1  2.111767008512e-04   5.116983056575e-06   1.018049515867e-04 
8 1 -7.858714174577e-05   1.832024644516e-05   6.912662325897e-05 
8
Step 37000
1 1 -2.036952847900e-04   1.822350873767e-04  -2.927726638054e-05 
2 1 -5.877378705641e-05   1.976374367473e-04  -1.043343505722e-04 
3 1  8.280671255882e-06   4.961167773479e-05  -1.660184888233e-04 
4 1  1.595493903889e-04   1.126070718338e-04   1.921066718438e-04 
5 1 -7.984191024719e-05   7.865739290929e-05  -1.616151862996e-04 
6 1 -6.418386374345e-05   8.277216740190e-05  -3.470097957436e-05 
7 1 -3.783146587652e-05  -1.470910642151e-04  -7.278139054000e-05 
8 1 -2.391974430423e-04   1.189481888047e-04  -9.706436109394e-06 
8
Step 38000
1 1  1.678971600727e-04  -2.041811755909e-04   8.151033728078e-05 
2 1  8.889710114742e-05  -1.925270033502e-04   9.496370110936e-05 
3 1  4.265673468291e-05  -7.120575824611e-05   1.883708042891e-04 
4 1 -2.173594199334e-04  -3.594424973554e-06  -3.023856755118e-04 
5 1 -7.146148470049e-06  -6.260424382717e-05   1.408049874581e-04 
6 1  3.831674980272e-04  -5.411825589011e-05   1.500262975835e-04 
7 1 -6.981847884536e-05  -3.068359119685e-04   1.600593752257e-04 
8 1  5.860418654379e-05   8.689193418398e-05  -3.458330545018e-05 
8
Step 39000
1 1 -1.174179693203e-04   1.237967999514e-04  -9.855299804113e-05 
2 1 -4.977646620059e-05   1.241326491262e-04  -6.714559254365e-05 
3 1 -1.314345833037e-05  -2.670268192546e-05  -1.693741331544e-04 
4 1  1.446864100966e-04   4.749474287564e-06   1.708852168719e-04 
5 1  7.126886651916e-05   8.717078928273e-06  -1.261736091579e-04 
6 1  9.138006518134e-05   8.511360958254e-05  -5.358728366536e-05 
7 1 -2.172869564956e-04   8.974267079583e-06  -1.401486033214e-04 
8 1 -8.307668885625e-05   3.507020338275e-04   6.588721406267e-05 
8
Step 40000
1 1  3.667236527135e-05  -1.524100374143e-04   2.051252618417e-04 
2 1  6.722364466482e-05  -7.692963991069e-05   2.181979984366e-05 
3 1  2.493758892049e-05  -4.348405236061e-05   6.736968263437e-05 
4 1 -1.368812567734e-04   1.191609893696e-04  -1.666109981699e-04 
5 1 -1.483147295181e-04  -7.954706028430e-05   7.871212678923e-05 
6 1 -5.485133616880e-05  -2.223622306395e-04   8.054016215738e-05 
7 1  1.460666857112e-05   4.889031162599e-06   1.280429141071e-04 
8 1  2.061760088556e-04  -2.911173709606e-04   6.059609976602e-05 
8
Step 41000
1 1 -2.358683267310e-05   1.223520675759e-04  -2.656916874910e-04 
2 1 -2.506028073754e-05   8.179701253349e-06   2.158039062916e-07 
3 1 -6.226792558797e-06  -1.657645789467e-04  -2.235683584656e-05 
4 1  1.841281464991e-04  -1.575341426499e-04   1.576364598056e-04 
5 1  2.331223561744e-04  -9.955656734453e-05  -9.412447218775e-05 
6 1  2.077467272440e-04   4.069197965370e-04  -2.271349413056e-04 
7 1 -2.935730532086e-05   1.148522338178e-04  -8.168749408081e-05 
8 1 -2.036802555812e-04   3.883122981219e-04   1.086797904326e-04 
8
Step 42000
1 1 -4.646662717687e-05  -3.521025796152e-05   2.025688486754e-04 
2 1  4.853528733578e-05   2.680552204084e-05   1.377209054379e-05 
3 1  1.256309047981e-05   1.887683140084e-05   1.388040098603e-05 
4 1 -5.924518777617e-05   2.057586225467e-04  -5.495304703010e-05 
5 1 -2.710517056549e-04  -1.188095260690e-05   2.349578197223e-05 
6 1 -4.869218440099e-05  -1.212891611581e-04   1.351200356819e-04 
7 1 -8.357027918239e-05  -2.546480372016e-04   1.221517512996e-04 
8 1  5.563776375724e-05  -2.430749015032e-04  -1.547099501844e-04 
8
Step 43000
1 1  8.876373851085e-05  -1.260059893264e-05  -1.611299389288e-04 
2 1  7.030279167123e-06  -8.160624294668e-05   6.099551872086e-05 
3 1 -1.445540234068e-05  -1.439104583937e-04   6.465443386037e-05 
4 1  3.727726533464e-05  -1.967155152097e-04   3.697450209002e-05 
5 1  1.908148776292e-04  -7.596225193352e-05  -5.670036464589e-05 
6 1  3.269486041109e-04   2.220999076581e-04  -5.402667372016e-05 
7 1 -4.839613967797e-05   4.350202597991e-05  -7.914291790412e-05 
8 1 -9.341871434835e-05   3.667538192349e-04   6.697575794195e-05 
8
Step 44000
1 1 -1.466647306904e-04   6.521474593919e-05   1.956345192765e-04 
2 1  2.919558798606e-06   1.604536076811e-04  -5.827475559902e-05 
3 1 -1.209432398786e-05   9.964959301335e-05  -1.204727944602e-04 
4 1 -7.936558152488e-07   1.684466810005e-04   1.022441433343e-04 
5 1 -2.033166551311e-04   9.447530246728e-05  -5.424715038108e-05 
6 1 -1.868741979847e-04  -1.588784236774e-04   1.055450052866e-04 
7 1 -1.412958690150e-04  -1.248970376322e-04  -3.396763241968e-07 
8 1  7.561245937843e-06  -2.854623271491e-04  -1.216041681191e-04 
8
Step 45000
1 1  1.426508468244e-04  -7.503598575917e-05  -9.824185134212e-05 
2 1  5.349359049829e-05  -1.299355102392e-04   9.557757319286e-05 
3 1  9.397269370519e-06  -1.818567789711e-04   1.519794090870e-04 
4 1 -4.527143282709e-05  -1.532609199538e-04  -9.114274256038e-05 
5 1  1.800276369235e-04  -1.179054674222e-04   6.172256535884e-05 
6 1  2.326273229866e-04   1.557613293910e-04  -8.361355726844e-05 
7 1  5.828704286360e-05   1.866901804869e-04   2.967566741274e-05 
8 1  3.382042150431e-05   3.702996156252e-05   5.298174476314e-05 
8
Step 46000
1 1 -2.214975745187e-04   2.116502535539e-04   6.107936316679e-05 
2 1 -3.999015050876e-05   2.418404205981e-04  -9.603348299971e-05 
3 1  8.244055230816e-07   8.945414691782e-05  -1.847238243616e-04 
4 1  1.502302242963e-04   1.845583244477e-04   2.584771213538e-04 
5 1 -2.043158126187e-04   1.086217261322e-04  -9.104285891970e-05 
6 1 -2.914802085483e-04   6.324420315815e-05  -7.495422865722e-05 
7 1  7.094556422966e-06  -1.820848157780e-04   5.517184130287e-05 
8 1 -2.113580589047e-04  -1.150347571274e-04  -2.418067877622e-04 
8
Step 47000
1 1  1.678892793109e-04  -1.628533340534e-04   9.671144564761e-06 
2 1  8.072285417937e-05  -1.967297054067e-04   1.149274821401e-04 
3 1  4.558341406636e-06  -1.353818359859e-04   2.183081292790e-04 
4 1 -1.570791243017e-04  -1.033237325886e-04  -1.128737179018e-04 
5 1  3.840798089900e-05  -1.529055664999e-04   6.309361946141e-05 
6 1  2.342178853393e-04   4.197717839903e-06   3.259764812725e-05 
7 1  1.431800293322e-04   8.501629080777e-05   1.170825157701e-04 
8 1  1.683284119587e-04  -9.346662835984e-05  -1.992198075045e-05 
8
Step 48000
1 1 -2.119849371832e-04   2.562292758584e-04  -8.799071622781e-05 
2 1 -8.779385972394e-05   2.262112836731e-04  -9.363151450403e-05 
3 1 -6.832997494242e-05   1.220557939524e-04  -2.011008423468e-04 
4 1  8.879686368258e-05  -1.743425550307e-05   2.143602576896e-04 
5 1  1.956468386200e-05   1.556649497855e-04  -1.090164736730e-04 
6 1 -3.983024681361e-05   1.979055776002e-04  -5.720687547583e-05 
7 1 -1.623845004492e-04  -7.879181354206e-05  -1.258557748377e-04 
8 1 -1.422865872723e-04   9.622743146236e-05  -9.986350822976e-05 
8
Step 49000
1 1  1.293796430763e-04  -1.823711933977e-04   1.648823580596e-04 
2 1  1.051352712309e-04  -1.428019314789e-04   8.545874301099e-05 
3 1  1.508198180708e-05  -6.283752035378e-05   1.531647483978e-04 
4 1 -2.102874523314e-04   5.580658405307e-05  -2.222518688574e-04 
5 1 -1.122909677042e-04   8.930926615829e-06   5.284159593128e-05 
6 1  1.567919921647e-05  -1.983391600318e-04   1.461424212416e-04 
7 1  1.861684320395e-04   5.003894175874e-05   1.835734200852e-04 
8 1  1.973303860817e-04  -4.622208564103e-04   4.915661796697e-06 
8
Step 50000
1 1 -8.179939788959e-05   1.624237702402e-04  -1.814840971555e-04 
2 1 -5.000255689823e-05   1.172422737184e-04  -7.888170890827e-05 
3 1 -2.613442782011e-05   3.257865534968e-05  -1.339262690790e-04 
4 1  1.334688315215e-04  -4.931615841773e-05   1.541259882594e-04 
5 1  1.637463039294e-04   7.947957023187e-05  -2.174056599933e-05 
6 1 -1.648186335411e-04   2.000589784287e-04  -1.812866598527e-04 
7 1  7.144952504166e-05   2.444470841539e-04  -1.310362455706e-04 
8 1 -1.676152275022e-04   7.731455730516e-05   3.132800828378e-05 
8
Step 51000
1 1 -3.447899817780e-08  -1.046214833577e-04   1.905753434570e-04 
2 1  6.345030220062e-05  -3.579956695742e-05   1.004583483061e-05 
3 1  9.453003313689e-06  -1.623114228166e-05   6.235455342382e-05 
4 1 -1.066754048596e-04   1.319350556912e-04  -5.047023296039e-05 
5 1 -2.047887830319e-04   6.208603637244e-06   4.638873867819e-05 
6 1 -6.296267454910e-05  -2.003048430356e-04   6.981257030373e-05 
7 1  2.018329825091e-04  -1.744145685903e-06   2.065790300013e-04 
8 1  3.928339295453e-06  -4.407653984598e-04  -1.032654071056e-04 
8
Step 52000
1 1  1.283868049953e-05   8.584326667762e-05  -2.238963500772e-04 
2 1 -1.902669291234e-06  -8.111725855429e-06  -3.081390798823e-05 
3 1 -2.820426953156e-05  -5.683828952709e-05   2.468995131132e-06 
4 1  6.018022769482e-05  -1.359966422858e-04   8.014598551260e-05 
5 1  2.050064212224e-04  -6.203091959646e-05  -3.378726639677e-05 
6 1  1.744715965856e-04   2.707081967483e-04  -2.191579999692e-04 
7 1  4.852332898551e-05   3.173759172806e-04  -6.638399215658e-05 
8 1 -1.035987844124e-04   1.599528441316e-04   9.299542761216e-05 
8
Step 53000
1 1 -6.449894235862e-05   9.035129607340e-06   1.619992858471e-04 
2 1  2.043719972576e-05   6.481310620962e-05   1.751049505295e-06 
3 1 -1.621604287922e-05   4.365047871567e-05   1.606381211916e-06 
4 1 -4.311390513918e-05   1.365898380433e-04   4.316347907810e-05 
5 1 -2.062104007370e-04   7.325836574676e-05  -1.008395426470e-04 
6 1 -2.090777859503e-04  -1.659647189327e-04   1.182740736398e-04 
7 1  1.254438537070e-06  -1.037602309356e-04   8.288264502385e-05 
8 1  6.875960230095e-05  -3.654331258504e-04  -7.166614408665e-05 
8
Step 54000
1 1  1.514533931737e-04  -6.451076149993e-05  -1.752643355951e-04 
2 1  6.306392074678e-05  -1.331062800786e-04   2.761238216980e-05 
3 1 -1.449491115618e-05  -1.183318987756e-04   1.120179212035e-04 
4 1 -4.549179846917e-05  -1.739819935505e-04  -1.434026272216e-04 
5 1  3.618256480798e-04  -3.283085589688e-05   3.023638197445e-05 