8
Step 0
1 1 0.00000000000000000e+00 0.00000000000000000e+00 0.00000000000000000e+00
2 1 0.00000000000000000e+00 0.00000000000000000e+00 0.00000000000000000e+00
3 1 0.00000000000000000e+00 0.00000000000000000e+00 0.00000000000000000e+00
4 1 0.00000000000000000e+00 0.00000000000000000e+00 0.00000000000000000e+00
5 1 0.00000000000000000e+00 0.00000000000000000e+00 0.00000000000000000e+00
6 1 0.00000000000000000e+00 0.00000000000000000e+00 0.00000000000000000e+00
7 1 0.00000000000000000e+00 0.00000000000000000e+00 0.00000000000000000e+00
8 1 0.00000000000000000e+00 0.00000000000000000e+00 0.00000000000000000e+00
8
Step 10
1 1 3.93759472831430400e-06 -2.66713166594310410e-06 2.77685966935737862e-06
2 1 9.11153847051887198e-06 -7.70375127125123060e-06 -9.89650676948469970e-06
3 1 -3.05697145829335645e-06 5.17450504751002602e-06 2.75631974872291534e-06
4 1 1.75215333410923702e-07 3.58202781092824271e-06 -1.05447606209431247e-05
5 1 -2.14406730760276138e-06 1.78268510067330506e-06 6.19875166727951405e-06
6 1 3.10798764884665286e-06 -6.59491826471272691e-06 7.37648373957409776e-06
7 1 -4.48205181940131539e-06 3.96349094930185822e-07 1.10100771957448069e-06
8 1 5.55829053266674004e-07 -5.11623011948467217e-06 -1.00471723363858224e-05
8
Step 20
1 1 3.83397710888346428e-06 -2.55582160236862192e-06 2.92136965367628256e-06
2 1 9.27114923239825025e-06 -7.12615593604161715e-06 -1.05876711897665587e-05
3 1 -2.89025992532068867e-06 5.20466942355273225e-06 1.90070405615586673e-06
4 1 4.81850127330744265e-07 3.26668244859527301e-06 -1.04462757643577495e-05
5 1 -2.46637054054841834e-06 1.82482846478971614e-06 5.49387770731998168e-06
6 1 2.27900030485876981e-06 -6.95983619000362958e-06 7.48213791164472240e-06
7 1 -4.47035590533185823e-06 6.03305352571171622e-07 1.07729047946872148e-06
8 1 4.67329038853158578e-07 -4.59798103800257826e-06 -1.05670160076052778e-05
8
Step 30
1 1 3.67349380435493606e-06 -2.44046105161755566e-06 3.03403222523662500e-06
2 1 9.28105603520623964e-06 -6.43939932898258767e-06 -1.11224802184186984e-05
3 1 -2.67869485762462979e-06 5.19681023872325775e-06 1.01142592158330042e-06
4 1 7.56102708056316816e-07 2.90424712195051307e-06 -1.01965853133919623e-05
5 1 -2.76758530555349107e-06 1.85084755170556737e-06 4.70735358862278501e-06
6 1 1.39197471425212882e-06 -7.23340831412596602e-06 7.48430803925732830e-06
7 1 -4.39658615925291795e-06 7.87670012707873218e-07 1.07435106121900256e-06
8 1 3.76892531095998378e-07 -4.04890547482647340e-06 -1.09369220066969004e-05
8
Step 40
1 1 3.45521180807961858e-06 -2.32084345557461324e-06 3.11355922083322633e-06
2 1 9.14236562939275442e-06 -5.65232151125216411e-06 -1.14926188778607588e-05
3 1 -2.42379444777202337e-06 5.15173711774198733e-06 1.02048798537056659e-07
4 1 9.95356747037968403e-07 2.50221781555472980e-06 -9.79966764436174099e-06
5 1 -3.04397873415803997e-06 1.86138301202626615e-06 3.85215474960295469e-06
6 1 4.58258338536754278e-07 -7.41409591391197389e-06 7.38342572471947830e-06
7 1 -4.26199044138703600e-06 9.47083247664548070e-07 1.09249094141269116e-06
8 1 2.86757515455338754e-07 -3.47696114713556604e-06 -1.11514694817002477e-05
8
Step 50
1 1 3.17920692837490284e-06 -2.19660615657855967e-06 3.15903957934263611e-06
2 1 8.85861269445152857e-06 -4.77540798480709048e-06 -1.16922704128598262e-05
3 1 -2.12779781481064324e-06 5.07046768831699836e-06 -8.13517800090806811e-07
4 1 1.19770992058180700e-06 2.06864643340270547e-06 -9.26190969451214070e-06
5 1 -3.29203610529199554e-06 1.85706593961464901e-06 2.94240640573951760e-06
6 1 -5.09884291322800721e-07 -7.50160822562981640e-06 7.18163712053936937e-06
7 1 -4.06868615354685438e-06 1.07962440206049023e-06 1.13146481655203164e-06
8 1 1.99006973955365349e-07 -2.89011678706213885e-06 -1.12075284264751468e-05
8
Step 60
1 1 2.84659639087298119e-06 -2.06725481850795750e-06 3.16995978803698269e-06
2 1 8.43571082891982386e-06 -3.82065440666351193e-06 -1.17182195293993996e-05
3 1 -1.79364194793682086e-06 4.95421633535032055e-06 -1.72121778384419831e-06
4 1 1.36198770771602451e-06 1.61200606890806736e-06 -8.59203437918404962e-06
5 1 -3.50852363110633674e-06 1.83850603450457724e-06 1.99317134934167908e-06
6 1 -1.49942613031237571e-06 -7.49689930112108766e-06 6.88276834990411518e-06
7 1 -3.81964038427217264e-06 1.18385450554980680e-06 1.19047834019947125e-06
8 1 1.15533791648928687e-07 -2.29622832566924695e-06 -1.11043213683109307e-05
8
Step 70
1 1 2.45955665485443752e-06 -1.93219467985974201e-06 3.14622126046563612e-06
2 1 7.88186839928842669e-06 -2.80140559222801697e-06 -1.15699264538033533e-05
3 1 -1.42492827147742744e-06 4.80438682253688840e-06 -2.60705748152799314e-06
4 1 1.48774646409862021e-06 1.14104812055933548e-06 -7.80099193552178882e-06
5 1 -3.69055042100683589e-06 1.80628688735413997e-06 1.02021530882250630e-06
6 1 -2.49675214296386018e-06 -7.40215183281203589e-06 6.49226588343144183e-06
7 1 -3.51864045537244417e-06 1.25885281880440207e-06 1.26819547731494611e-06
8 1 3.80113845986447296e-08 -1.70292041154709886e-06 -1.08434585291135645e-05
8
Step 80
1 1 2.02132404629742737e-06 -1.79076817251692772e-06 3.08815307370735833e-06
2 1 7.20746609005150516e-06 -1.73216748569436332e-06 -1.12495666343947670e-05
3 1 -1.02587823765955357e-06 4.62256838507592675e-06 -3.45732378630933348e-06
4 1 1.57526514960771869e-06 6.64651721106952794e-07 -6.90181121795395059e-06
5 1 -3.83562751368809264e-06 1.76096853061710875e-06 3.97493101274378278e-08
6 1 -3.48785465260760503e-06 -7.22074577383151454e-06 6.01711008318575750e-06
7 1 -3.17025253848755423e-06 1.30424567968948963e-06 1.36275620771401739e-06
8 1 -3.21292074446907017e-08 -1.11747437015134455e-06 -1.04289421725077220e-05
8
Step 90
1 1 1.53617562319398832e-06 -1.64229795131994109e-06 2.99651835547081459e-06
2 1 6.42489327602045485e-06 -6.28391608876125816e-07 -1.07620298931960487e-05
3 1 -6.01277472599370979e-07 4.41053456797471733e-06 -4.25880954000530928e-06
4 1 1.62552489809206639e-06 1.91666699466767629e-07 -5.90940749481517264e-06
5 1 -3.94172162759576707e-06 1.70309688558246123e-06 -9.31849784207612520e-07
6 1 -4.45854890356823185e-06 -6.95720936519717662e-06 5.46570021384749782e-06
7 1 -2.77976599645755571e-06 1.32022571821442257e-06 1.47180530701513766e-06
8 1 -9.37151277403473872e-08 -5.46723976872003940e-07 -9.86713509021524797e-06
8
Step 100
1 1 1.00938786071865264e-06 -1.48613385950041156e-06 2.87251267868764216e-06
2 1 5.54834143123495332e-06 4.93767105472723728e-07 -1.01148726595938501e-05
3 1 -1.56408309852769864e-07 4.17024381912626480e-06 -4.99904244749681981e-06
4 1 1.64017562020840066e-06 -2.69247722537945649e-07 -4.84034475870940026e-06
5 1 -4.00730121496956993e-06 1.63321920887883045e-06 -1.87833710952134806e-06
6 1 -5.39470634471765071e-06 -6.61715043268028150e-06 4.84770985616368779e-06
7 1 -2.35312150514753784e-06 1.30755950611974785e-06 1.59253276770877320e-06
8 1 -1.45839951908314638e-07 3.03929185854399438e-09 -9.16668817796578997e-06
8
Step 110
1 1 4.47171317086122723e-07 -1.32170185945688179e-06 2.71775310838529516e-06
2 1 4.59355466129904002e-06 1.61771635991943768e-06 -9.31821773621968049e-06
3 1 3.03028970502947468e-07 3.90384066309587949e-06 -5.66651199572681555e-06
4 1 1.62148906064872409e-06 -7.09785217647742737e-07 -3.71255289079561787e-06
5 1 -4.03137255385334157e-06 1.55190415003565600e-06 -2.78391001088705550e-06
6 1 -6.28250106032212792e-06 -6.20716654581311068e-06 4.17391282653337126e-06
7 1 -1.89682181938288880e-06 1.26758194214821835e-06 1.72172608151407067e-06
8 1 -1.87864182916514523e-07 5.26149637524602858e-07 -8.33842291367500741e-06
8
Step 120
1 1 -1.43419597742164833e-07 -1.14855254963772690e-06 2.53425704290091679e-06
2 1 3.57753994410556455e-06 2.72671162077934177e-06 -8.38459788760292463e-06
3 1 7.71005265841931423e-07 3.61365619380510443e-06 -6.25088728124302865e-06
4 1 1.57229819319175839e-06 -1.12215133156015325e-06 -2.54500300489878632e-06
5 1 -4.01350399616128299e-06 1.45976462083193540e-06 -3.63352214667042583e-06
6 1 -7.10866274250053714e-06 -5.73473379156023414e-06 3.45598131237045367e-06
7 1 -1.41782520274147268e-06 1.20217616248205771e-06 1.85583409938171795e-06
8 1 -2.19408130637203692e-07 1.01763697488167478e-06 -7.39516627590133676e-06
8
Step 130
1 1 -7.54601349992930525e-07 -9.66406627775851875e-07 2.32441066237529326e-06
2 1 2.51824252633376294e-06 3.80415349794264784e-06 -7.32874229170898269e-06
3 1 1.24126053428239429e-06 3.30220663805786766e-06 -6.74321757631017870e-06
4 1 1.49592350013430391e-06 -1.49921408168135089e-06 -1.35734762013753090e-06
5 1 -3.95383710138493747e-06 1.35748139441248702e-06 -4.41319092396765610e-06
6 1 -7.86072789353111701e-06 -5.20807539419305707e-06 2.70625980258843242e-06
7 1 -9.23422938422344401e-07 1.11373849082282612e-06 1.99104155547425898e-06
8 1 -2.40337708570190490e-07 1.47328177694502164e-06 -6.35153810439005468e-06
8
Step 140
1 1 -1.37799863311494851e-06 -7.75194602509495095e-07 2.09092757970781160e-06
2 1 1.43419480581791923e-06 4.83388882429284694e-06 -6.16730830274569737e-06
3 1 1.70740819076680221e-06 2.97218885428345080e-06 -7.13610709177503658e-06
4 1 1.39608748311291275e-06 -1.83464071603469624e-06 -1.69535566888298570e-07
5 1 -3.85308418611004697e-06 1.24582523898560125e-06 -5.11028638733843103e-06
6 1 -8.52727982702406533e-06 -4.63601304464842961e-06 1.93752029468410426e-06
7 1 -4.21103831919109104e-07 1.00512885245384911e-06 2.12335264654664566e-06
8 1 -2.50744098327440567e-07 1.88965324922657053e-06 -5.22369386733163664e-06
8
Step 150
1 1 -2.00480095952464590e-06 -5.75088241534528421e-07 1.83679909778596964e-06
2 1 3.44149544143013527e-07 5.80050574348004826e-06 -4.91856467267744125e-06
3 1 2.16304324871194014e-06 2.62647183131955987e-06 -7.42385585674700528e-06
4 1 1.27681959881524416e-06 -2.12301528447242649e-06 9.98585721128188947e-07
5 1 -3.71251273459334516e-06 1.12567547895397622e-06 -5.71378939619920977e-06
6 1 -9.09816771811732802e-06 -4.02780537940223639e-06 1.16270593367257648e-06
7 1 8.15899663680653034e-08 8.79608083912797016e-07 2.24868137501487565e-06
8 1 -2.50918627091234788e-07 2.26412994645068511e-06 -4.02902892874348465e-06
8
Step 160
1 1 -2.62593374143139645e-06 -3.66521699005425350e-07 1.56523820985005248e-06
2 1 -7.33289984345165309e-07 6.68961276884328231e-06 -3.60203592046967199e-06
3 1 2.60185112192001549e-06 2.26808352487881054e-06 -7.60255996592857278e-06
4 1 1.14235459534266379e-06 -2.35993234359181913e-06 2.12766605998011770e-06
5 1 -3.53391803528141912e-06 9.98033182220716986e-07 -6.21450784411474378e-06
6 1 -9.56469556669460968e-06 -3.39297934245101601e-06 3.94671430880458481e-07
7 1 5.77210334213420392e-07 7.40764554434489282e-07 2.36294577805097159e-06
8 1 -2.41324515415992346e-07 2.59490270495625784e-06 -2.78585331344205022e-06
8
Step 170
1 1 -3.23223804951138556e-06 -1.50200984626334176e-07 1.27962002895322633e-06
2 1 -1.78002961104642170e-06 7.48809233789182911e-06 -2.23812044688175120e-06
3 1 3.01771393803132612e-06 1.90019269654051524e-06 -7.67016656821354009e-06
4 1 9.97027826496688133e-07 -2.54206332002961747e-06 3.19923150341447634e-06
5 1 -3.31958619662013766e-06 8.64027690353911303e-07 -6.60524181862517443e-06
6 1 -9.91977350460780872e-06 -2.74116095632048756e-06 -3.54070880362507082e-07
7 1 1.05854754704290932e-06 5.92433334511911286e-07 2.46216276120280153e-06
8 1 -2.22567319294069540e-07 2.88096058477400239e-06 -1.51304824690350321e-06
8
Step 180
1 1 -3.81465263100948496e-06 7.28986229266087033e-08 9.83421600206295279e-07
2 1 -2.77882093511726938e-06 8.18432084185674951e-06 -8.47696834874657660e-07
3 1 3.40481141763842208e-06 1.52608578152968578e-06 -7.62648168933740257e-06
4 1 8.45171436860975545e-07 -2.66719368298852621e-06 4.19603237779511508e-06
5 1 -3.07225021379030072e-06 7.24915900242466899e-07 -6.88089181497065381e-06
6 1 -1.01580262824367389e-05 -2.08191215180979617e-06 -1.07159078246600900e-06
7 1 1.51876532063065643e-06 4.38611656987729309e-07 2.54254010626100327e-06
8 1 -1.95365857616751041e-07 3.12206126492796295e-06 -2.29717054644541015e-07
8
Step 190
1 1 -4.36439170812239634e-06 3.01546553271235395e-07 6.80163972055247651e-07
2 1 -3.71356414091957438e-06 8.76834930380069367e-06 5.48266761534995885e-07
3 1 3.75771380981210771e-06 1.14913918176950516e-06 -7.47313199053836892e-06
4 1 6.91015268142139477e-07 -2.73423093120288354e-06 5.10234863952557906e-06
5 1 -2.79504189821920585e-06 5.82074493347735840e-07 -7.03850804748596874e-06
6 1 -1.02758567534126460e-05 -1.42457968933920048e-06 -1.74675821119303974e-06
7 1 1.95152075658506152e-06 2.83374503957932382e-07 2.60056237651025776e-06
8 1 -1.60525158917666820e-07 3.31868788857186010e-06 1.04515689028570577e-06
8
Step 200
1 1 -4.87311258904541517e-06 5.34280613806342322e-07 3.73358972386839027e-07
2 1 -4.56956896497109269e-06 9.23204153051118985e-06 1.92908626932667810e-06
3 1 4.07146497623741477e-06 7.72787724722456717e-07 -7.21348447869749296e-06
4 1 5.38595918963184810e-07 -2.74318522849063032e-06 5.90424435982365973e-06
5 1 -2.49144220455357433e-06 4.36986074201111400e-07 -7.07728302621331766e-06
6 1 -1.02714653470583170e-05 -7.78160904684593599e-07 -2.36943382523654995e-06
7 1 2.35106463539073245e-06 1.30793771982729256e-07 2.63306790460712767e-06
8 1 -1.18912501554943685e-07 3.47199463169019598e-06 2.29303363662773394e-06
8
Step 210
1 1 -5.33306815187103024e-06 7.69437828220840967e-07 6.64624128288278158e-08
2 1 -5.33376931485759793e-06 9.56916930950778710e-06 3.27470691348573205e-06
3 1 4.34165439351150744e-06 4.00490300930954786e-07 -6.85253059651851848e-06
4 1 3.91676645469381537e-07 -2.69512605876561457e-06 6.58976733202929259e-06
5 1 -2.16523184901493642e-06 2.91220785687006690e-07 -6.99849327412544553e-06
6 1 -1.01448294405808426e-05 -1.51189222184765205e-07 -2.93062846177578917e-06
7 1 2.71231924244383254e-06 -1.51363342671621900e-08 2.63731477360636828e-06
8 1 -7.14370347674220913e-08 3.58374326420954908e-06 3.49611226174948713e-06
8
Step 220
1 1 -5.73724066670961098e-06 1.00518946815330390e-06 -2.37165445508542957e-07
2 1 -5.99489063179440042e-06 9.77546668613649799e-06 4.56601190229792538e-06
3 1 4.56447750726686019e-06 3.56938451294168360e-08 -6.39674269248152929e-06
4 1 2.53679831950485582e-07 -2.59211929491199236e-06 7.14909399857859838e-06
5 1 -1.82044325122999745e-06 1.46415292331073050e-07 -6.80539878575753738e-06
6 1 -9.89764876260923731e-06 4.48359603577915878e-07 -3.42263003126154286e-06
7 1 3.03093292583821530e-06 -1.50566110489802600e-07 2.61103459161720271e-06
8 1 -1.90328695609192040e-08 3.65623275395795779e-06 4.63759234361506550e-06
8
Step 230
1 1 -6.07945499917194929e-06 1.23957731547722867e-06 -5.34292229210573861e-07
2 1 -6.54357220944868246e-06 9.84864722307135566e-06 5.78509029337733045e-06
3 1 4.73678444917540012e-06 -3.18203179692462691e-07 -5.85391140353407031e-06
4 1 1.27632743739541988e-07 -2.43714946578965335e-06 7.57462345841872443e-06
5 1 -1.46131394233975217e-06 4.25099738163251271e-09 -6.50311018913194238e-06
6 1 -9.53326419529913867e-06 1.01314139913413214e-06 -3.83909836538096504e-06
7 1 3.30331254822851973e-06 -2.71848943568900011e-07 2.55247377872606445e-06
8 1 3.73549590942061469e-08 3.69222364704018653e-06 5.70189830244073281e-06
8
Step 240
1 1 -6.35447075426413822e-06 1.47054866005399121e-06 -8.21839407479905812e-07
2 1 -6.97244890981393239e-06 9.78838922595165204e-06 6.91546338253407677e-06
3 1 4.85611756857853130e-06 -6.57886806802514250e-07 -5.23297197961400298e-06
4 1 1.61263577933725494e-08 -2.23403177102025919e-06 7.86102674514560637e-06
5 1 -1.09224085201019940e-06 -1.33566999376590283e-07 -6.09843347278004641e-06
6 1 -9.05655746929543113e-06 1.53649993751130817e-06 -4.17513000952154271e-06
7 1 3.52663659350807525e-06 -3.75592263932584804e-07 2.46042288655132230e-06
8 1 9.67825416492354576e-08 3.69485865954628971e-06 6.67486665678499159e-06
8
Step 250
1 1 -6.55805415784623291e-06 1.69598834006897431e-06 -1.09690317357918652e-06
2 1 -7.27619784189087283e-06 9.59629417657683703e-06 7.94227188134528549e-06
3 1 4.92073850819575153e-06 -9.80162415385375515e-07 -4.54382623347051684e-06
4 1 -7.87136256112963613e-08 -1.98731766388069301e-06 8.00525862998565158e-06
5 1 -7.17734441920466917e-07 -2.65329291294312427e-07 -5.59970078269455645e-06
6 1 -8.47383838171553730e-06 2.01250888623163434e-06 -4.42729581628296492e-06
7 1 3.69885269374399699e-06 -4.58702117275296720e-07 2.33423503886958506e-06
8 1 1.58318084974235659e-07 3.66758071279248547e-06 7.54389862026106272e-06
8
Step 260
1 1 -6.68703128139009336e-06 1.91374707983864837e-06 -1.35677175717305986e-06
2 1 -7.45155561533243881e-06 9.27582315212941933e-06 8.85242803007349321e-06
3 1 4.92964566224633670e-06 -1.28198809429042619e-06 -3.79716494480360529e-06
4 1 -1.55244888894845524e-07 -1.70219680603936188e-06 8.00653896171590346e-06
5 1 -3.42371532548965507e-07 -3.89339673493350842e-07 -5.01659361095873952e-06
6 1 -7.79272459547966069e-06 2.43600267302234887e-06 -4.59365444690118788e-06
7 1 3.81866366303786277e-06 -5.18422891975016672e-07 2.17383485431751269e-06
8 1 2.21052613319667203e-07 3.61404955826737784e-06 8.29808193126122835e-06
8
Step 270
1 1 -6.73932453580171982e-06 2.12166627179390375e-06 -1.59894059322646678e-06
2 1 -7.49731096387594753e-06 8.83221502875417081e-06 9.63473752695141135e-06
3 1 4.88258280718614698e-06 -1.56050656361151662e-06 -3.00429356620769071e-06
4 1 -2.12317133067853679e-07 -1.38439712067667447e-06 7.86630930226372841e-06
5 1 2.92541661158993445e-08 -5.03931159773768418e-07 -4.35996221472809863e-06
6 1 -7.02201717388093565e-06 2.80259928061435554e-06 -4.67374462413343471e-06
7 1 3.88550581772815752e-06 -5.52373633674954987e-07 1.97971919305619760e-06
8 1 2.84110850328914415e-07 3.53805814200179025e-06 8.92828629708952744e-06
8
Step 280
1 1 -6.71397422832392881e-06 2.31760002615422134e-06 -1.82112648950948574e-06
2 1 -7.41427617417633158e-06 8.27238902158116166e-06 1.02799958522009590e-05
3 1 4.78003951830572507e-06 -1.81307595599200176e-06 -2.17696231258019952e-06
4 1 -2.49272533501386421e-07 -1.04008372673922497e-06 7.58816877457053943e-06
5 1 3.92584447684475913e-07 -6.07481332070932602e-07 -3.64164280872301151e-06
6 1 -6.17157313820916133e-06 3.10871729092924578e-06 -4.66855836845798419e-06
7 1 3.89952259037483632e-06 -5.58581979827525138e-07 1.75295081880795157e-06
8 1 3.46662408940323788e-07 3.44344990210397658e-06 9.42723645623370764e-06
8
Step 290
1 1 -6.61114650571247386e-06 2.49943568818470233e-06 -2.02128153376743923e-06
2 1 -7.20523919767612695e-06 7.60483285077076691e-06 1.07810624832451156e-05
3 1 4.62324372277974724e-06 -2.03729986830632513e-06 -1.32720040917121021e-06
4 1 -2.65939030968247372e-07 -6.75756857151594272e-07 7.17779104718181937e-06
5 1 7.43152091450564455e-07 -6.98428040113487617e-07 -2.87427232246327951e-06
6 1 -5.25217480430787272e-06 3.35158862278763756e-06 -4.58049667646240866e-06
7 1 3.86153542328967814e-06 -5.35516178840770329e-07 1.49514568029102039e-06
8 1 4.07933101790192801e-07 3.33403823315006021e-06 9.78956584649574152e-06
8
Step 300
1 1 -6.43212835258526603e-06 2.66511408994342263e-06 -2.19760704579546471e-06
2 1 -6.87489686740838740e-06 6.83947675725108659e-06 1.11329149648647099e-05
3 1 4.41414644575788912e-06 -2.23105703755860173e-06 -4.67153547812899319e-07
4 1 -2.62617135640782531e-07 -2.98148507280629364e-07 6.64282261022350300e-06
5 1 1.07663911570984612e-06 -7.75286421206921351e-07 -2.07109949404504820e-06
6 1 -4.27539464182307558e-06 3.52926750859811930e-06 -4.41330834171332057e-06
7 1 3.77301286707336608e-06 -4.82115044506023359e-07 1.20845409471334857e-06
8 1 4.67215950454712482e-07 3.21352936218812964e-06 1.00118524950827246e-05
8
Step 310
1 1 -6.17930963995953861e-06 2.81265061069665661e-06 -2.34856747358335912e-06
2 1 -6.42976851386369182e-06 5.98755287784666800e-06 1.13326831466822312e-05
3 1 4.15539853974772675e-06 -2.39253079161735102e-06 3.91076536094532595e-07
4 1 -2.40060599455439818e-07 8.58824751190254439e-08 5.99276121335626655e-06
5 1 1.38893703565302231e-06 -8.36667965955697233e-07 -1.24579081899342389e-06
6 1 -3.25345398110052174e-06 3.64063545801658195e-06 -4.17201201763005011e-06
7 1 3.63603788033658737e-06 -3.97815137180929612e-07 8.95535751205813895e-07
8 1 5.23881337981889416e-07 3.08544985946594589e-06 1.00926373026197102e-05
8
Step 320
1 1 -5.85615166977385846e-06 2.94015774977073071e-06 -2.47290379957772939e-06
2 1 -5.87808861598265096e-06 5.06143921699637703e-06 1.13796624205032520e-05
3 1 3.85031900410446554e-06 -2.52023812098585681e-06 1.23559108119967237e-06
4 1 -1.99451064051579195e-07 4.69456907388553044e-07 5.23881268419553288e-06
5 1 1.67620797507616304e-06 -8.81301983520328452e-07 -4.12230301367309868e-07
6 1 -2.19907404668805579e-06 3.68540134218099305e-06 -3.86280127976847464e-06
7 1 3.45327264059292296e-06 -2.82574027967680686e-07 5.59528209666319576e-07
8 1 5.77385713012958993e-07 2.95307996159309860e-06 1.00324236227825062e-05
8
Step 330
1 1 -5.46714134332408272e-06 3.04586945824825889e-06 -2.56964578741132820e-06
2 1 -5.22967699757578205e-06 4.07448764478818722e-06 1.12753037050115108e-05
3 1 3.50285444402000721e-06 -2.61305787104299643e-06 2.05485188289649306e-06
4 1 -1.42366653478164954e-07 8.45783005194846260e-07 4.39372436600607539e-06
5 1 1.93494517814565587e-06 -9.08059393174596375e-07 4.15687094931604719e-07
6 1 -1.12531843374068150e-06 3.66409534645921473e-06 -3.49293241630310471e-06
7 1 3.22791978797481119e-06 -1.36888230329957014e-07 2.04008486951545959e-07
8 1 6.27278299146776053e-07 2.81939382684614770e-06 9.83365613172904102e-06
8
Step 340
1 1 -5.01773005539290609e-06 3.12816701454747292e-06 -2.63812227150383488e-06
2 1 -4.49578547909659623e-06 3.04083597079368682e-06 1.10231773809302796e-05
3 1 3.11752931128216608e-06 -2.67025722586525710e-06 2.83783645887912329e-06
4 1 -7.07444677492688161e-08 1.20826438666547580e-06 3.47159405931400833e-06
5 1 2.16203125587770125e-06 -9.15978353722185302e-07 1.22426712314402433e-06
6 1 -4.54271295440506965e-08 3.57805539943029209e-06 -3.07059496955893517e-06
7 1 2.96367893925378467e-06 3.81957094027793170e-08 -1.67052594252222420e-07
8 1 6.73205368562238511e-07 2.68700777714447715e-06 9.50067655849642508e-06
8
Step 350
1 1 -4.51425669357989702e-06 3.18560582983750924e-06 -2.67796867184381294e-06
2 1 -3.68892075302190317e-06 1.97520509885571993e-06 1.06289084416326375e-05
3 1 2.69938681371344258e-06 -2.69151539839517828e-06 3.57418882635349388e-06
4 1 1.31629588849354581e-08 1.55060682871079746e-06 2.48765450762034846e-06
5 1 2.35479239116457588e-06 -9.04290891158629216e-07 2.00023050318713047e-06
6 1 1.02735664370746697e-06 3.42940478438845157e-06 -2.60476563438220508e-06
7 1 2.66469749869694306e-06 2.41078388592757853e-07 -5.49343384974986288e-07
8 1 7.14911782815487422e-07 2.55813750545320044e-06 9.03965396054405000e-06
8
Step 360
1 1 -3.96385467078138150e-06 3.21694227859367937e-06 -2.68913099612468368e-06
2 1 -2.82264445145091489e-06 8.92683425929949062e-07 1.01000807790155396e-05
3 1 2.25392075437691763e-06 -2.67694329725196560e-06 4.25436305473566537e-06
4 1 1.06836961932983005e-07 1.86692174949329662e-06 1.45803496526021016e-06
5 1 2.51104672499177759e-06 -8.72449433940874842e-07 2.73092589758175557e-06
6 1 2.07996429674776033e-06 3.22101995002744546e-06 -2.10504691917355262e-06
7 1 2.33551519669431585e-06 4.69614177644552361e-07 -9.38271461862738953e-07
8 1 7.52239667120374156e-07 2.43456513002890403e-06 8.45848785961776961e-06
8
Step 370
1 1 -3.37434366614530240e-06 3.22115949286544764e-06 -2.67186575620908592e-06
2 1 -1.91135276195724092e-06 -1.91498152476375890e-07 9.44610968507845934e-06
3 1 1.78699902192917243e-06 -2.62709793015908223e-06 4.86975615065406689e-06
4 1 2.07547260936802335e-07 2.15182402540225351e-06 3.99503024677177968e-07
5 1 2.62914526067802639e-06 -8.20152033975547921e-07 3.40453675076108566e-06
6 1 3.09968093710749900e-06 2.95648801374102594e-06 -1.58149289092128286e-06
7 1 1.98100233104948859e-06 7.21128120449298260e-07 -1.32903008518943138e-06
8 1 7.85124251148400060e-07 2.31761684354304029e-06 7.76668361895039995e-06
8
Step 380
1 1 -2.75410759610110021e-06 3.19749104171292846e-06 -2.62673545390030618e-06
2 1 -9.70039344715780347e-07 -1.26219619528203616e-06 8.67808316538445957e-06
3 1 1.30477994101978644e-06 -2.54299043058271532e-06 5.41282657740954999e-06
4 1 3.12410822766332989e-07 2.40052158277257862e-06 -6.70808552606834518e-07
5 1 2.70800385088383943e-06 -7.47365043941152038e-07 4.01027652421583112e-06
6 1 4.07432135462109311e-06 2.64005403299001089e-06 -1.04442523696094910e-06
7 1 1.60629228413401792e-06 9.92443470281734963e-07 -1.71666998123371446e-06
8 1 8.13587065840497574e-07 2.20815172285458370e-06 6.97520080498927063e-06
8
Step 390
1 1 -2.11196116784125969e-06 3.14544152751296142e-06 -2.55459955468433395e-06
2 1 -1.40465308937872691e-08 -2.30458440050906901e-06 7.80857433485012922e-06
3 1 8.13623140599133731e-07 -2.42608684135893187e-06 5.87719485313139185e-06
4 1 4.18453915775801188e-07 2.60889426383271615e-06 -1.73568396409704840e-06
5 1 2.74712516093148481e-06 -6.54342127664456644e-07 4.53856675106224616e-06
6 1 4.99239828343616571e-06 2.27655873528742905e-06 -5.04243661153360675e-07
7 1 1.21670945610663163e-06 1.27991973301719024e-06 -2.09617500351870011e-06
8 1 8.37726820439042300e-07 2.10656202755781215e-06 6.09627675789486643e-06
8
Step 400
1 1 -1.45700807063790478e-06 3.06480334119160226e-06 -2.45660113626905134e-06
2 1 9.41189318878892384e-07 -3.30437740020436686e-06 6.85142878185494028e-06
3 1 3.19996946041265850e-07 -2.27830112398055013e-06 6.25772319952104068e-06
4 1 5.22675952641881567e-07 2.77355975267089850e-06 -2.77810856170952367e-06
5 1 2.74660990596271343e-06 -5.41638677906574324e-07 4.98119273808811215e-06
6 1 5.84327836365313101e-06 1.87136796995941362e-06 2.87648170639479214e-08
7 1 8.17694213516919744e-07 1.57950060918958044e-06 -2.46253996387668370e-06
8 1 8.57708387553764195e-07 2.01278502545337292e-06 5.14322900174750891e-06
8
Step 410
1 1 -7.98494342480201162e-07 2.95566909097373365e-06 -2.33414963992044613e-06
2 1 1.88039196013217005e-06 -4.24804310661917951e-06 5.82153213617492139e-06
3 1 -1.69615500429456333e-07 -2.10198024054030268e-06 6.55057206108079317e-06
4 1 6.22113561479906108e-07 2.89192482928190397e-06 -3.78154791012681276e-06
5 1 2.70715710163290833e-06 -4.10120974196304553e-07 5.33143261033975913e-06
6 1 6.61732172228343328e-06 1.43029560558896248e-06 5.44612852566523455e-07
7 1 4.14726745645621066e-07 1.88677080590307366e-06 -2.81084879377391253e-06
8 1 8.73750389793939156e-07 1.92632605435720221e-06 4.13024127638434891e-06
8
Step 420
1 1 -1.45660651297733485e-07 2.81843951095710821e-06 -2.18890033931627615e-06
2 1 2.78869261482267373e-06 -5.12299856420486105e-06 4.73456399365093602e-06
3 1 -6.48809163752850645e-07 -1.89988152833107228e-06 6.75323237369644870e-06
4 1 7.13903273110535650e-07 2.96222084030915473e-06 -4.73021476095047283e-06
5 1 2.63005350487214909e-06 -2.60969696595498251e-07 5.58415661063303747e-06
6 1 7.30600194732666967e-06 9.59521892837566387e-07 1.03379134997291519e-06
7 1 1.32518155278968292e-08 2.19702036758127315e-06 -3.13635121122193819e-06
8 1 8.86111906095647877e-07 1.84629218476394540e-06 3.07213872631908437e-06
8
Step 430
1 1 4.92402865144215253e-07 2.65382692499665089e-06 -2.02273125465197587e-06
2 1 3.65186473814854620e-06 -5.91778515525795536e-06 3.60674473672145204e-06
3 1 -1.11134700996038185e-06 -1.67514290932148582e-06 6.86453359532258073e-06
4 1 7.95341272658665878e-07 2.98352295858810594e-06 -5.60931777013768320e-06
5 1 2.51715280954255937e-06 -9.56776837499772980e-08 5.73589497755006266e-06
6 1 7.90200432069739474e-06 4.65509414414676503e-07 1.48743535522340067e-06
7 1 -3.81393713757608633e-07 2.50531497549147750e-06 -3.43453621971591404e-06
8 1 8.95078800617070788e-07 1.77143551482634667e-06 1.98415805816824075e-06
8
Step 440
1 1 1.10689592121024572e-06 2.46285455363751507e-06 -1.83771827103380561e-06
2 1 4.45654131600138402e-06 -6.62222015662863964e-06 2.45458162732823937e-06
3 1 -1.55124509724948135e-06 -1.43124671309715118e-06 6.88462857986438667e-06
4 1 8.63938825873653411e-07 2.95575346933710452e-06 -6.40528695676659871e-06
5 1 2.37084546594095566e-06 8.39579456313713994e-08 5.78487415492428694e-06
6 1 8.39930135718511560e-06 -4.50813480338761267e-08 1.89747369628890782e-06
7 1 -7.64048977695766955e-07 2.80657059730707010e-06 -3.70120102481083217e-06
8 1 9.00950128125171001e-07 1.70020483651669307e-06 8.81718269206124360e-07
8
Step 450
1 1 1.68943885691135218e-06 2.24685208474000427e-06 -1.63610917397563417e-06
2 1 5.19041096640899120e-06 -7.22752289796966658e-06 1.29461990035741216e-06
3 1 -1.96285149514649795e-06 -1.17197802276629574e-06 6.81495725611873870e-06
4 1 9.17472231053466482e-07 2.87966989593119191e-06 -7.10597229897767795e-06
5 1 2.19402019073597872e-06 2.75849021512879952e-07 5.73102236716982437e-06
6 1 8.79320581647206741e-06 -5.65475059576647618e-07 2.25675968172986320e-06
7 1 -1.12979163909213307e-06 3.09563091975393311e-06 -3.93251427993478118e-06
8 1 9.04024997586535044e-07 1.63080418395760563e-06 -2.19803080562375983e-07
8
Step 460
1 1 2.23219283741272204e-06 2.00744797383336342e-06 -1.42029720600414539e-06
2 1 5.84239037581598293e-06 -7.72641497342545474e-06 1.43203579764654571e-07
3 1 -2.34091810986474636e-06 -9.01378476635664788e-07 6.65819168179621674e-06
4 1 9.54026433543156865e-07 2.75683920867896758e-06 -7.70081330243339817e-06
5 1 1.99001831921189934e-06 4.77634521817584746e-07 5.57594659690191167e-06
6 1 9.08040228472279751e-06 -1.08886179824473702e-06 2.55918110303713493e-06
7 1 -1.47399411770836512e-06 3.36734614497784874e-06 -4.12507291925596766e-06
8 1 9.04590193260554946e-07 1.56125662749077860e-06 -1.30528401347389730e-06
8
Step 470
1 1 2.72796815700783715e-06 1.74655890380523148e-06 -1.19279459909319844e-06
2 1 6.40277180028108376e-06 -8.11319497627558818e-06 -9.83750458109414923e-07
3 1 -2.68066492543755366e-06 -6.23696388432286527e-07 6.41816534076722960e-06
4 1 9.72031735316168173e-07 2.58959961786391383e-06 -8.18097868629795917e-06
5 1 1.76258213492626722e-06 6.86703341391214949e-07 5.32288364618316883e-06