8
Step 0
1 1  0.000000000000e+00   0.000000000000e+00   0.000000000000e+00 
2 1  0.000000000000e+00   0.000000000000e+00   0.000000000000e+00 
3 1  0.000000000000e+00   0.000000000000e+00   0.000000000000e+00 
4 1  0.000000000000e+00   0.000000000000e+00   0.000000000000e+00 
5 1  0.000000000000e+00   0.000000000000e+00   0.000000000000e+00 
6 1  0.000000000000e+00   0.000000000000e+00   0.000000000000e+00 
7 1  0.000000000000e+00   0.000000000000e+00   0.000000000000e+00 
8 1  0.000000000000e+00   0.000000000000e+00   0.000000000000e+00 
8
Step 1000
1 1  4.067083123253e-04  -3.806568534734e-04   1.705964209646e-06 
2 1  5.690827130266e-06  -2.822995581289e-04   3.827603271038e-04 
3 1  1.487407661769e-04  -4.390957162786e-04  -2.713893400752e-04 
4 1 -1.396520805866e-04  -3.094227556681e-04  -2.560579782574e-04 
5 1  4.197973009512e-04  -8.510040386900e-05   2.803540817379e-04 
6 1  1.967944471905e-04  -1.975244071424e-04   1.146852533683e-04 
7 1  2.748046647939e-04  -2.383595416545e-04   2.416432503402e-04 
8 1 -6.025939942878e-05   1.095752420951e-04   1.044766200917e-04 
8
Step 2000
1 1  2.577354469201e-04   3.237636581359e-05  -6.634475520275e-05 
2 1  7.535634558837e-05  -3.426755562141e-05   5.194675434785e-05 
3 1  2.265728055389e-04  -5.715081307723e-04   4.185036452241e-05 
4 1  2.551205891383e-04  -2.940931513259e-04  -2.996596831375e-04 
5 1  1.603145691777e-04  -3.465621521270e-04  -6.346310238263e-06 
6 1  1.328182743374e-04  -5.967466457843e-05  -4.961303849591e-06 
7 1  3.660727335354e-05  -5.261085422547e-05   3.897735534786e-05 
8 1 -3.735341066676e-05   2.889354216994e-04   1.501109163957e-04 
8
Step 3000
1 1  2.470891980094e-05   5.069885881300e-05  -3.970091315805e-05 
2 1  3.046090718681e-04   2.117341431449e-04  -3.165867286773e-04 
3 1  3.156298464107e-04  -3.193775176648e-04   2.130557741592e-05 
4 1  2.927489186818e-04  -1.392528112841e-04  -2.716729714827e-04 
5 1 -4.359256348851e-04  -2.404893964431e-04   4.340013545945e-04 
6 1  1.743879825006e-04  -3.596909036099e-04   1.384515892662e-04 
7 1  7.557092754626e-05  -6.153487967960e-05   1.422993589973e-04 
8 1 -3.489607385210e-04  -7.167342627182e-07  -9.704796169169e-05 
8
Step 4000
1 1  1.488424288033e-04  -2.052449047772e-04   2.398980941151e-05 
2 1  2.304954471319e-04   1.396929518319e-05  -2.547198080642e-04 
3 1  2.182822903481e-04  -2.431023183161e-04  -3.292548309879e-05 
4 1  1.861677661101e-04   4.508378267225e-05  -3.782229172927e-04 
5 1 -1.344902090447e-04  -2.165076942449e-04   3.090457723344e-04 
6 1 -1.379696476656e-06  -3.105636993346e-04  -6.977713751690e-05 
7 1  2.126955036034e-04  -3.821623022238e-04  -3.306999300352e-06 
8 1 -2.878340969587e-05  -7.902964637260e-05  -3.082491310442e-04 
8
Step 5000
1 1  5.074960027557e-04  -5.893769260250e-04   1.558289873825e-04 
2 1  2.925373709397e-04   2.448184142964e-05  -1.279372885092e-04 
3 1 -1.142902777275e-04   1.162604225094e-04  -3.639997664324e-04 
4 1 -9.552300974181e-05  -1.531805792261e-04   5.632643029618e-06 
5 1 -3.776958817060e-04  -4.982833080479e-05  -1.226635808891e-04 
6 1  1.309445142742e-04  -3.935597445488e-04  -7.593698129423e-05 
7 1 -1.719824356951e-05  -8.214453709247e-05   5.806251389984e-05 
8 1  3.324269057726e-04  -1.605880655954e-04  -7.425315876862e-05 
8
Step 6000
1 1  4.711646085955e-04  -1.629287748004e-04  -6.050790727891e-05 
2 1  1.225046469877e-04   7.491073127260e-05  -2.282389223689e-04 
3 1  1.632542173770e-04   4.901046200854e-05   4.931300044511e-05 
4 1 -1.048395870347e-04  -2.381214295657e-04  -4.287569364861e-04 
5 1 -1.119075557659e-05  -2.140886157018e-04   1.218080619136e-04 
6 1 -1.479863045033e-04  -2.441145349813e-04  -1.401995242894e-04 
7 1  7.462110752213e-06   1.626993116899e-04  -6.621013890016e-05 
8 1 -2.993238326498e-05  -2.509200393291e-05  -3.770996184256e-04 
8
Step 7000
1 1  1.641889476851e-04   3.847313464617e-04   1.749404985705e-04 
2 1  2.484734460747e-04   1.589189228406e-04  -6.667476958984e-04 
3 1 -4.942521990557e-05   4.907342040688e-05   4.525183365981e-05 
4 1  2.032176148352e-04   9.730752791872e-05  -1.169144445231e-04 
5 1  2.697594522074e-05  -1.742476301315e-04   2.426689057272e-04 
6 1 -4.059558106213e-05   1.095648722215e-04  -5.152086193874e-05 
7 1 -1.985453521629e-04  -9.952093269502e-05  -1.387178812787e-04 
8 1 -4.921756941656e-04   9.581182343275e-05  -3.870786460932e-04 
8
Step 8000
1 1  1.002496840501e-04   1.335375544666e-04  -3.395055725079e-04 
2 1  9.412815450198e-05   3.001099967681e-04  -2.071452386520e-04 
3 1 -1.584352799735e-05  -1.349796631885e-04  -2.231673464273e-04 
4 1  8.759576850769e-05   1.228670042285e-04  -1.941084298806e-04 
5 1 -2.373638518158e-04  -3.317994018183e-04   1.340539820600e-04 
6 1 -1.276633911463e-04   1.475879662432e-04  -1.581159604864e-04 
7 1 -1.262372009026e-04  -2.201832318390e-04  -2.601651465998e-04 
8 1 -1.566326543574e-04  -8.787370862665e-05  -2.178192602342e-04 
8
Step 9000
1 1  7.948223837964e-05   8.067207503266e-05   4.908606692803e-05 
2 1  1.084198818138e-04  -1.324780612063e-04  -3.330314051778e-04 
3 1 -5.861747478134e-05  -1.144127992884e-04  -1.935651890621e-04 
4 1 -1.842806071560e-04   5.878244087774e-04  -3.228175307050e-04 
5 1 -1.416284080647e-04  -4.161660942990e-04  -6.485945906561e-05 
6 1 -2.926848254730e-05   8.740783357995e-05  -2.907229884591e-04 
7 1  3.724785287511e-04  -3.089956904391e-04   1.728106395618e-05 
8 1 -3.695378750752e-04   3.541619919219e-04  -5.259283775815e-05 
8
Step 10000
1 1  3.316915375063e-04   1.113437058040e-04  -3.501591334565e-04 
2 1  1.408574464899e-05   4.056392261834e-05   3.957449247684e-05 
3 1 -4.696686211320e-05  -8.453099996053e-05  -2.813267156140e-04 
4 1 -3.309137851312e-04  -1.881431318149e-05  -1.417789976302e-05 
5 1 -6.958823196371e-05  -1.639170216200e-04  -3.222668353506e-04 
6 1 -7.447688646562e-05   2.254127269951e-04  -7.963825204577e-05 
7 1  6.696488295819e-05  -3.285357521468e-05  -1.509162152098e-04 
8 1 -1.660020332439e-04   2.859686253891e-04  -2.763940947312e-04 
8
Step 11000
1 1 -1.574141971824e-04   5.571818447984e-04   6.701894720797e-05 
2 1  8.947407582323e-05   1.063835801549e-04  -1.995924524012e-04 
3 1 -1.974189569055e-04   1.001631958622e-04  -3.395589541486e-04 
4 1  9.939172679690e-05  -7.648262543973e-05   9.054050297155e-05 
5 1  2.047507556106e-04   1.953744544545e-04  -2.565739111282e-04 
6 1 -3.369458958707e-04   3.110457607105e-04  -1.705011802431e-04 
7 1 -2.732963996223e-04   2.177721550800e-04  -9.093224703301e-05 
8 1 -3.243956433972e-04   3.144906945837e-04  -2.174633050298e-04 
8
Step 12000
1 1 -2.074771987853e-04   5.034124611220e-04  -2.978508056219e-04 
2 1 -1.718835333743e-04   3.107987062077e-04  -7.287447156648e-05 
3 1 -1.900018701202e-04   1.506001925730e-04  -6.157977150752e-06 
4 1  1.035907283645e-04  -1.717222489075e-04   7.167461262582e-05 
5 1 -4.177868880026e-05   8.591570511221e-05  -3.545102296728e-04 
6 1 -8.917020821068e-05   1.331734554831e-04  -2.437263951096e-04 
7 1 -3.363755776697e-04   3.258507553988e-04   7.877150061843e-05 
8 1 -2.293857758169e-04   9.677597989215e-05  -4.036167776104e-04 
8
Step 13000
1 1 -3.536502718506e-04   4.975608285829e-04  -3.344970087806e-04 
2 1 -2.217000720321e-04  -1.050286719369e-04  -2.259097878570e-04 
3 1 -3.545366982879e-04   7.902449627401e-05   8.325680515825e-05 
4 1  1.690487906890e-04  -3.397994658782e-05   1.188538739817e-04 
5 1 -4.036102926980e-04   4.090895367689e-04  -3.222274197999e-04 
6 1  1.710738271513e-04  -5.776372441765e-05   9.572379435920e-05 
7 1  6.263149770364e-05   5.915878539508e-04  -1.286838163437e-04 
8 1  2.195343993121e-05   1.171967062507e-06  -2.076587145118e-04 
8
Step 14000
1 1 -4.491580949692e-04   9.857517549997e-05  -1.506692721561e-04 
2 1  1.385060041499e-04  -1.679309148888e-04  -2.249777919475e-04 
3 1 -5.301269718196e-04  -5.828700061232e-05   1.193896726704e-05 
4 1  9.662764074647e-05   7.670791406572e-05   1.138346597158e-04 
5 1 -4.802840795781e-04   3.246901210220e-04  -2.749266153795e-04 
6 1  3.348468292583e-04   1.251264452099e-04  -1.853066638167e-04 
7 1  8.731089219667e-05   1.803476599835e-04   1.162746442738e-04 
8 1 -1.030213893985e-04   1.310513411697e-04  -2.210615439278e-04 
8
Step 15000
1 1 -1.066913309985e-04   2.117097787389e-04  -1.632543588282e-04 
2 1 -1.840603705809e-04   5.462831931614e-05   2.596973832046e-04 
3 1 -3.938570890646e-04   4.034741645915e-04   8.675780186206e-05 
4 1  2.341911638466e-04   2.292624123292e-04   9.109976160764e-05 
5 1 -8.496806225096e-05   1.728537458963e-04  -8.695599867489e-06 
6 1 -1.379505682513e-04   5.426555447359e-04  -2.191281378679e-04 
7 1 -7.044057359773e-05   2.635071984837e-04  -1.911719211949e-04 
8 1 -6.499039700276e-05   3.062343968904e-04  -2.596567540952e-04 
8
Step 16000
1 1 -3.027335943902e-04   3.858244221386e-04   3.033961029798e-05 
2 1 -1.401829760672e-04   8.644377623194e-05  -1.685816978402e-04 
3 1 -4.621689662470e-04   3.493033877513e-04   2.872112877824e-04 
4 1 -1.198956538508e-04   9.165912090087e-05   2.551447700553e-04 
5 1  1.549835689840e-04   9.400859770754e-05  -1.245196554637e-04 
6 1 -3.829268982324e-04   2.935117994255e-04  -3.568973592967e-05 
7 1  2.196072155913e-04  -2.302277894913e-05   2.211548947838e-05 
8 1 -3.651781317577e-04   5.091288435117e-04  -4.525021846599e-04 
8
Step 17000
1 1 -2.652665257034e-04  -5.786905770957e-05  -2.847054077445e-04 
2 1 -5.720334021673e-04   3.851660388825e-04   1.688857794240e-06 
3 1 -2.653012038515e-04   6.478335067945e-05   7.107406044427e-05 
4 1 -1.118755272701e-04  -6.294563045486e-05   5.012799702399e-04 
5 1 -1.754598476351e-04   4.075325624215e-04  -1.957448051305e-04 
6 1 -1.471274134073e-04   6.290442934304e-04  -1.176498244457e-04 
7 1  3.188552662169e-04   2.653044193439e-05   1.528229677688e-04 
8 1  2.201938739280e-04   2.267415132153e-04  -9.841253821240e-05 
8
Step 18000
1 1 -1.083299656618e-04  -2.098042006986e-04  -1.104864508040e-04 
2 1 -3.704339085841e-04  -2.088545212097e-04  -8.968068390474e-05 
3 1 -5.651364787613e-04   1.147687222017e-04  -8.114102297610e-06 
4 1 -1.334006083706e-04   8.076608712243e-05   4.119947139730e-04 
5 1  1.905682921462e-04   2.201876631529e-04  -7.637894824812e-05 
6 1 -2.353142272094e-04   3.599584465699e-04  -4.520898419354e-05 
7 1  4.534372424883e-04  -3.642535865101e-05   6.074268929228e-06 
8 1  1.146033548956e-04   1.534994462102e-04   3.278331887600e-04 
8
Step 19000
1 1 -4.119579146107e-05  -8.651409530683e-05  -4.223301889761e-05 
2 1 -3.926845083375e-04  -2.484961243432e-04   3.750374677424e-04 
3 1  1.020716846555e-04   9.993404392876e-05   1.459756376092e-04 
4 1 -1.206461767079e-06   4.884405620740e-04   2.081509572105e-04 
5 1 -1.591586708290e-04   2.752735880619e-04  -2.936180261772e-04 
6 1  7.233606862162e-05   9.302483830335e-05   1.661444149606e-04 
7 1  2.429044368185e-04   3.119426868262e-04   1.150262899647e-04 
8 1 -1.606403945956e-04   1.655166039940e-04  -8.803023906050e-05 
8
Step 20000
1 1 -2.752792966009e-04   8.564841520070e-05   3.027508299532e-04 
2 1  1.467634746752e-04  -1.791388126341e-04   2.664335473599e-04 
3 1 -3.265965901906e-04   1.114839969884e-04   1.723508993563e-05 
4 1  1.498345538677e-04   3.800388847149e-04   5.548376342635e-04 
5 1 -1.206127026403e-04   3.831495705972e-04  -1.514939141219e-04 
6 1  9.380477250341e-05   1.774776905817e-04   1.106654264527e-04 
7 1 -2.739415796012e-04  -7.112650361009e-05  -1.733902561094e-04 
8 1 -1.471643988981e-04   1.258375240831e-04   9.677248693758e-05 
8
Step 21000
1 1 -1.704833642823e-04  -5.505870030537e-05   2.140026660983e-04 
2 1 -1.968345280442e-04   1.365436430972e-04   2.014055515945e-05 
3 1 -3.270094512440e-04   1.603259606804e-04   2.585893984265e-04 
4 1  1.896764913051e-04  -5.109334806617e-06   2.697929091536e-04 
5 1  1.571685558100e-04   2.886992486904e-04  -2.305360664915e-04 
6 1 -5.985256213078e-05   3.323528734428e-04   3.229865530604e-05 
7 1 -2.196602475882e-05   1.254491471324e-04   2.363327927220e-04 
8 1  1.310522424356e-04  -1.863557463968e-05   1.743079325377e-04 
8
Step 22000
1 1 -2.039078911454e-04  -3.948474160528e-04   3.933346140345e-06 
2 1 -2.158590139448e-04  -2.186691789873e-04   1.137279289975e-04 
3 1 -5.295653665258e-04   1.116925405878e-04  -1.892858724883e-05 
4 1  2.336560697221e-04  -2.862829999613e-04   3.386214172298e-04 
5 1  1.707657417297e-04   2.550407727204e-04  -2.247613595585e-04 
6 1  2.885625738298e-04   1.314168242661e-04   2.426429888162e-04 
7 1  5.973575222009e-05  -5.499092206110e-05   6.443273137685e-04 
8 1 -2.073590456907e-05  -2.318337818612e-04   2.223014085103e-04 
8
Step 23000
1 1 -9.098497865418e-05  -5.795619149245e-04   2.070665305620e-04 
2 1  8.078223990648e-05  -2.135349166238e-04   3.514439625685e-04 
3 1  1.852663759018e-04   3.377560904763e-04   2.157691064232e-04 
4 1  1.675915335123e-04  -2.057450321867e-04   3.222652290241e-04 
5 1  1.166967486105e-04   3.371084351242e-04  -5.527481897413e-04 
6 1  2.865557895236e-05  -2.733245736503e-04   4.167893915037e-05 
7 1  1.222381098232e-05  -1.081132141261e-04   5.634941794399e-04 
8 1  1.631455768242e-04   2.275963216945e-04   2.805518070451e-05 
8
Step 24000
1 1  3.661443586424e-04  -2.516631637899e-04   2.925692773438e-04 
2 1 -2.062680336520e-04   2.862927052816e-06   5.895837067776e-04 
3 1  5.486421402526e-06   6.749518394375e-05  -1.229390496281e-06 
4 1 -5.922053366811e-05  -2.204223795143e-04   3.379552139078e-04 
5 1  1.711877747295e-04   3.295610522380e-04  -1.389704329429e-04 
6 1 -3.696990443795e-06  -2.203306274375e-04  -8.126861076782e-05 
7 1 -4.240750092049e-06  -9.895561931079e-05   3.839944182180e-04 
8 1 -1.986111996129e-05  -3.336900997371e-05   1.863365909871e-04 
8
Step 25000
1 1 -5.344901129441e-05   1.593818817767e-04   9.285580281616e-05 
2 1  3.094623878215e-05  -1.783640185007e-04   5.519981921620e-04 
3 1  4.259538046574e-05   1.367465019578e-04  -1.978168688726e-04 
4 1  2.182248908960e-04  -2.010812831971e-04   3.919191324391e-04 
5 1  9.448924010163e-05   4.528533084762e-05  -4.619210684629e-04 
6 1 -3.601793644710e-05  -2.854775346553e-04  -4.250152947159e-05 
7 1 -6.259197991305e-05  -1.552199355217e-04   3.164636086631e-04 
8 1  1.510098067004e-04   1.226682588569e-04   4.731698186793e-04 
8
Step 26000
1 1 -1.236482563238e-04  -1.863671812931e-04  -2.138190441701e-05 
2 1 -2.769286062865e-04  -9.621636625949e-05   2.665966825417e-04 
3 1  1.250203362041e-04  -2.409514815760e-04  -2.059637274560e-05 
4 1  2.105889263622e-04  -2.506719504233e-04   1.417436972744e-04 
5 1  1.730932723585e-04  -2.482581414874e-04  -2.130487600740e-04 
6 1  2.439601293106e-04  -2.895717255460e-04   2.809540435810e-04 
7 1  1.030059402036e-04  -2.151276992639e-04   4.179902241008e-04 
8 1  6.520677454237e-05   1.376171967477e-04   5.416828574414e-04 
8
Step 27000
1 1  1.896617042588e-04  -4.421036286657e-04   7.015877246907e-05 
2 1  1.447355562081e-04  -4.178443663134e-05   2.948225893753e-04 
3 1  1.000946730595e-04  -9.644791251978e-05  -2.351582368550e-04 
4 1  2.741048405241e-04  -2.094656453935e-04   2.939108272439e-04 
5 1  1.681688819781e-04  -3.118919986135e-04  -2.226697531106e-04 
6 1 -1.633855724707e-04   1.254020130544e-05  -9.310802157372e-05 
7 1  3.155591732280e-04  -5.723661532422e-04   1.608614342200e-04 
8 1  1.956233711237e-04  -2.589564712455e-04   5.490027117341e-04 
8
Step 28000
1 1  1.881944456606e-04  -2.802350479348e-04   1.193300933619e-04 
2 1  3.419429671720e-04  -4.655548211540e-05   3.992925994371e-04 
3 1  2.702730336540e-04  -1.831728454460e-04  -6.252654445239e-06 
4 1 -4.629530076452e-04  -1.471996643930e-04   2.260841266478e-04 
5 1 -6.899855515384e-05  -1.145621308840e-04  -3.300694648486e-04 
6 1 -8.137578845124e-05   1.302435684390e-04   7.371902195760e-05 
7 1  2.589771424437e-04  -5.267771199312e-04   2.651435376181e-04 
8 1  4.707323687873e-04  -4.400351566051e-04   3.313759161331e-04 
8
Step 29000
1 1  6.759076243225e-05  -2.272956776866e-04   2.361155828785e-04 
2 1  3.153437682025e-04   2.820644792057e-04   1.069772568369e-04 
3 1  4.615224367871e-04  -1.867981251393e-04   2.050685134253e-05 
4 1 -1.522307881748e-04   7.321277220186e-06   1.017281802423e-04 
5 1  3.662131121171e-05  -2.043216051266e-04  -2.450411251204e-04 
6 1 -1.002140773335e-04  -1.669579359411e-04   8.753541058452e-05 
7 1  2.567549662372e-04  -2.626740537220e-04   5.241099198734e-05 
8 1  1.136718972917e-04  -2.037208325975e-04   6.407616663217e-05 
8
Step 30000
1 1 -6.179390883875e-05   5.464768772730e-05  -7.936101775684e-05 
2 1 -2.999735677350e-04   1.097816565860e-04   7.580981005729e-05 
3 1  4.679487090225e-04   1.068887567238e-05  -1.933244965325e-04 
4 1  1.174665825806e-04  -5.463729399975e-04   1.242377531330e-04 
5 1  3.157035822588e-05  -3.081847229168e-04  -8.186489636862e-05 
6 1 -1.561134999651e-04  -4.610411349896e-04   1.746792301675e-04 
7 1  5.046041555013e-05  -1.441540885572e-04   2.972569686365e-04 
8 1  4.103770328239e-04  -1.752992524829e-04   1.908858936198e-04 
8
Step 31000
1 1  2.054318889203e-04  -2.373904670597e-04  -5.802620151174e-05 
2 1  2.897151526136e-05   1.930261033928e-04  -7.152969455003e-05 
3 1  3.321478630041e-04  -2.837349146764e-04  -3.244266563816e-04 
4 1  2.532338603443e-04  -3.217541722538e-04   2.483337524866e-04 
5 1 -1.256946835612e-04   4.502921866629e-05  -3.075450132862e-04 
6 1  2.739332075595e-05  -3.944157337799e-04   4.490089409177e-05 
7 1  3.226955768523e-05  -5.046377768134e-04   5.819984661603e-05 
8 1  4.094857513575e-04  -6.137715381017e-04   1.790528961416e-04 
8
Step 32000
1 1 -1.452343189456e-05  -1.276407341425e-04  -2.753565040176e-04 
2 1  5.404182111835e-04  -8.784940938297e-05   4.783044171754e-05 
3 1 -3.834682809713e-05   1.470177567708e-04   2.103611347340e-05 
4 1  1.655121372104e-04  -3.859323896296e-04   1.339751956725e-04 
5 1 -1.545226295957e-04   1.161461123103e-04  -2.857654527680e-04 
6 1  8.655631857969e-05  -2.806309309191e-04   1.533156684089e-04 
7 1  1.983222231352e-04  -3.689833338435e-04  -1.834758511102e-05 
8 1  2.995493647300e-04  -5.503775395653e-04   1.855004386032e-04 
8
Step 33000
1 1  3.050127323295e-04  -3.399175648497e-04  -1.621266066228e-04 
2 1  1.435978703099e-04   8.623215280078e-05   1.567915978122e-05 
3 1  2.934386782823e-04   1.027099857937e-04  -5.800555776435e-06 
4 1  5.484436405986e-05  -2.137559342183e-04  -1.035130518331e-04 
5 1 -1.126364932618e-05   2.154114828494e-04  -6.914420913062e-05 
6 1  7.626721393047e-05  -1.856589640340e-04  -3.348828942335e-05 
7 1 -6.979338229472e-05  -3.989601832183e-04  -1.334975958496e-04 
8 1 -8.859745926017e-05  -2.169931558836e-04  -2.435598554849e-04 
8
Step 34000
1 1 -2.677209041910e-04  -3.207620086228e-05  -3.254251713599e-04 
2 1  8.349675665311e-05   3.112571344575e-04   1.597269902359e-04 
3 1  2.755651281944e-04  -7.656909017933e-05  -1.244518780569e-04 
4 1  9.499355973721e-05   2.365976370548e-06  -2.194332711431e-04 
5 1  3.897405113037e-04  -2.900272310648e-04   8.409187659734e-05 
6 1 -3.769937862032e-04   2.905679533122e-04  -1.386169936133e-04 
7 1  6.631403242123e-05  -5.134503775296e-04  -2.569607131455e-04 
8 1  8.586905072099e-06   6.216935764327e-05   2.208703191917e-04 
8
Step 35000
1 1 -1.547470567854e-05  -1.223747206944e-04  -3.286548006527e-04 
2 1 -3.702491500724e-05   1.854744566349e-04  -1.825472415514e-04 
3 1  6.142846639929e-04  -1.888382491669e-04  -1.772500054587e-04 
4 1 -2.015076498275e-04   5.138257593422e-05  -1.899314280008e-04 
5 1  2.085937376564e-04  -3.714086287970e-04  -6.624136997163e-05 
6 1  5.555808468603e-05   2.236970382716e-05  -7.621155565317e-05 
7 1 -3.595606521588e-06  -4.571367759015e-04  -1.106803022632e-04 
8 1 -1.875154165982e-04  -1.515250094321e-04  -1.082808033768e-04 
8
Step 36000
1 1  1.979354149040e-04  -7.578121986607e-05  -3.818314246808e-04 
2 1  3.358691843825e-05   8.069533289456e-05  -8.804068340479e-05 
3 1  1.866356548895e-04  -2.122634424363e-04  -2.144877022525e-04 
4 1 -2.356121680492e-04   1.957082262837e-04  -2.308473353548e-05 
5 1  1.837808457471e-04  -2.785778370757e-04  -1.920063212964e-04 
6 1 -8.421138031389e-05  -4.124980917715e-05  -1.163391291467e-04 
7 1  1.085078430624e-04  -4.290739496082e-04   6.238065133413e-05 
8 1 -1.818328899601e-06   1.113792693861e-04  -1.070563835875e-04 
8
Step 37000
1 1  1.207346944535e-04  -9.047901185400e-05  -3.767788912349e-04 
2 1  2.766663511053e-04  -3.857799346679e-04   2.241070959915e-04 
3 1  1.280366890882e-04  -4.776370744861e-06  -3.972476815941e-04 
4 1 -6.753681711383e-05   1.640885329785e-04   1.765630859937e-05 
5 1  2.266959821319e-04   3.508928708500e-04  -7.537781373905e-05 
6 1 -1.475950283580e-04   3.416481329451e-05  -2.937303560800e-04 
7 1 -2.907210564846e-04   2.326041768440e-05  -5.494146221162e-04 
8 1 -2.172492151792e-05  -3.353772574414e-05   4.033088629396e-05 
8
Step 38000
1 1 -1.046692670658e-04   3.484481858742e-05  -8.350465729173e-05 
2 1  1.097263379125e-04   2.594566418620e-04  -1.165270045407e-04 
3 1  2.388315872033e-04   4.054630852778e-05  -4.011571543984e-04 
4 1 -1.421640041794e-04  -7.644066258102e-05  -9.377893038957e-05 
5 1 -2.294445985888e-04   6.803421016702e-04  -2.283333496111e-04 
6 1  6.294501507007e-05   1.863715131979e-04   4.113896426744e-05 
7 1 -2.496327281669e-04   2.544308737499e-04  -7.108172946844e-05 
8 1 -9.093581790710e-05  -1.263473520103e-04  -2.517932912444e-04 
8
Step 39000
1 1 -1.174590521360e-04   1.795840837752e-04  -3.247305362508e-04 
2 1  1.746315814610e-04   2.145945625200e-05  -2.110025151032e-06 
3 1  1.172001076652e-05   3.023365724334e-04  -2.727917429694e-04 
4 1 -5.658607222385e-05  -2.706347655714e-04  -2.945276076844e-04 
5 1 -3.552987541587e-04  -8.463018753503e-05  -5.866206850237e-05 
6 1 -1.044931763617e-04   3.769019320785e-05  -6.101212406676e-05 
7 1 -6.756636979895e-05   3.194326547096e-04  -4.072926332634e-04 
8 1 -1.178425594362e-04  -4.891753305160e-06  -6.582196197570e-05 
8
Step 40000
1 1  2.041354841564e-04   1.172709962185e-04  -2.953748145182e-04 
2 1 -1.586729659895e-04   5.340403729068e-04  -4.704453614820e-05 
3 1  3.776727324354e-04  -2.976910950269e-06  -2.571974818232e-04 
4 1 -1.439139602918e-04  -1.312928933600e-04  -3.147603546297e-04 
5 1 -3.266809972562e-04  -8.343182705825e-05   2.883401090768e-04 
6 1 -1.115060622462e-04  -5.166052554104e-05  -2.028836236442e-05 
7 1 -2.426272014331e-04   3.142256941318e-04  -4.900921644709e-04 
8 1  1.679371365771e-04   1.565510559278e-04  -6.003784650692e-05 
8
Step 41000
1 1  1.677470902853e-05  -2.078145425815e-04  -6.823329271575e-05 
2 1  9.200276445882e-05  -3.488405833653e-05  -3.514722748728e-04 
3 1  2.821295587364e-04   1.713401032478e-04  -6.995333537118e-05 
4 1 -2.236737235012e-04   2.625268478977e-04  -1.084353962706e-04 
5 1 -2.009305283435e-04  -1.788058763854e-04   1.421561452410e-04 
6 1 -2.716341900985e-04   3.769321334258e-04   1.653688410860e-05 
7 1 -1.863679716641e-04  -1.342100128725e-05  -3.211463313075e-04 
8 1 -4.862612066881e-05   3.557310798579e-04  -4.268372829517e-04 
8
Step 42000
1 1  5.619996565395e-05   3.392990338732e-04  -1.717155752691e-04 
2 1 -2.059660111815e-05   8.509886724356e-05  -3.344444290884e-05 
3 1  7.602866787930e-05   3.151980241730e-04   2.719163506042e-04 
4 1 -2.041636896686e-04   5.030419377699e-04  -3.190618933115e-04 
5 1 -2.083222867132e-04   3.481037141907e-06   1.808407310355e-04 
6 1 -1.832238066052e-04   2.604590536037e-04   7.774384310018e-05 
7 1 -8.549924728376e-05   1.991208414675e-04  -4.093644529534e-04 
8 1 -2.283589049311e-04   5.413858382570e-04  -4.588060319526e-04 
8
Step 43000
1 1 -1.341078723965e-04   2.087399072023e-04  -2.142914343754e-04 
2 1  1.699900555887e-04   2.230426577762e-04   2.089371856692e-05 
3 1 -1.677149537651e-04   1.592222423060e-04  -9.721162794256e-05 
4 1 -5.541907345436e-04   3.129273548404e-04  -2.270656976118e-05 
5 1 -9.118845091222e-05  -7.158064519420e-07   9.216616698490e-06 
6 1 -1.289015944226e-04   3.258608455259e-04   2.485905792325e-04 
7 1 -1.072103191119e-04   5.789144257069e-05  -3.491420119457e-04 
8 1 -1.588721824514e-04   4.337018899550e-04  -2.977309984925e-04 
8
Step 44000
1 1 -5.152796893586e-05   2.156276387422e-04  -2.918375365824e-04 
2 1 -1.114133967685e-05   4.698019368225e-04   1.267780098305e-04 
3 1 -1.716297988862e-04   2.041750486692e-04  -2.769570677851e-04 
4 1 -1.648229568384e-04  -2.837661084284e-05   5.776064667753e-05 
5 1  9.152173897911e-05  -4.134889937857e-06   3.459304243635e-04 
6 1 -2.741282057161e-04   1.844067748303e-04   2.669938356014e-04 
7 1 -1.179553472731e-04   5.368390075370e-06  -5.209730226510e-04 
8 1 -1.414159239771e-04   4.007996360915e-04  -2.056382132476e-04 
8
Step 45000
1 1  1.842971288114e-04  -1.356216390647e-04  -7.814975208882e-05 
2 1 -7.678981935968e-05   5.055516280019e-05  -1.219589238447e-04 
3 1 -3.030565390750e-05   1.426605138258e-04   3.438104732186e-05 
4 1 -2.694459881305e-04   1.003359784258e-04   2.162002788061e-04 
5 1 -1.165381636479e-05   1.491558464140e-04   2.564346433767e-04 
6 1 -4.065865113189e-05   1.879490862005e-04   1.999590505518e-04 
7 1 -4.184153722330e-05   3.206680159956e-04  -5.547661569804e-04 
8 1 -4.232232600394e-04   3.131387494787e-05  -5.901394997169e-05 
8
Step 46000
1 1 -2.126289968502e-04   1.483018849156e-04  -8.950187707040e-05 
2 1  2.557555228082e-04  -4.600351096264e-05  -3.238730769819e-05 
3 1 -1.481677170012e-04   5.065585627701e-04   7.851329015062e-05 
4 1 -3.804093774072e-04   7.656570236546e-04   1.718342089332e-04 
5 1  1.648753663538e-04   2.102289472121e-04   3.007496117571e-04 
6 1 -6.248269064882e-05   1.529129447562e-04  -1.640011990176e-04 
7 1 -1.373522263624e-04   8.584551437601e-05  -4.325738838125e-04 
8 1 -8.640220504802e-05   1.823093110017e-04   3.018372163871e-04 
8
Step 47000
1 1 -4.537421604111e-04   5.407317126753e-06   2.328813996054e-04 
2 1  2.747625596238e-05   2.667953752129e-04  -2.644239966738e-04 
3 1 -4.146488894790e-04   3.008740061314e-05   2.379690849264e-04 
4 1 -1.764976399767e-04   4.258930756772e-04  -2.882902648228e-05 
5 1 -2.600689132522e-04   3.509483709433e-04   2.221441075673e-04 
6 1  6.033492550802e-05   2.139252956044e-04  -5.995176699016e-05 
7 1 -1.150421002814e-05   1.961773546301e-05   3.355696542549e-05 
8 1 -2.548016906866e-05   1.943683290093e-04   1.570737747102e-04 
8
Step 48000
1 1 -8.574313322226e-05   4.580802029895e-04   9.797234967210e-05 
2 1 -2.273330188273e-04  -1.929795519732e-04  -1.103362982733e-04 
3 1 -2.603360494629e-04   4.080371886788e-04   1.161880255702e-04 
4 1 -4.550546794522e-05   6.090105063098e-05   2.656245405347e-04 
5 1  4.713039523742e-05   3.099637099483e-04   2.559750865221e-04 
6 1  3.939965015959e-04   4.128292082067e-04   1.009900207785e-04 
7 1 -1.210207404068e-04   6.256402668859e-06  -2.501081657759e-05 
8 1 -2.958585651085e-04  -1.790262273368e-04  -1.175079722247e-04 
8
Step 49000
1 1 -1.243654915191e-04  -6.976094783384e-05   1.022822801329e-04 
2 1 -2.491814691645e-04  -3.118572796590e-04   2.334237029278e-05 
3 1 -1.715856482517e-04  -6.444620197638e-06  -1.601953420066e-04 
4 1  6.912046832087e-05   1.720725713147e-04   9.472976663361e-05 
5 1 -1.948719140549e-05  -2.372079341086e-06   4.056518039341e-04 
6 1  2.930808783412e-04   2.476596892365e-04   2.504024404101e-04 
7 1 -4.304585703421e-04  -7.709718105760e-05   1.169004557808e-04 
8 1  1.424888517119e-04   1.649844009873e-06   2.054740569506e-04 
8
Step 50000
1 1 -9.263304911809e-05  -2.323953966801e-05   2.527077771681e-04 
2 1 -1.165685885359e-04  -3.912593390961e-06   1.089192886033e-04 
3 1 -2.717787000474e-04   2.884349916580e-04  -1.195187264949e-04 
4 1  8.104948128248e-05  -1.337149691470e-04   2.857471323704e-04 
5 1  1.892742707253e-04  -1.073137788741e-04   9.777495404252e-05 
6 1  1.029907758518e-04   2.606943477326e-04  -1.282486785923e-04 
7 1  7.277782713132e-06   6.828090889147e-05   1.523109944527e-04 
8 1  6.451487897599e-05   1.259420163211e-04   3.403005719374e-04 
8
Step 51000
1 1 -4.097034055041e-05   1.688918048354e-04   1.835572568499e-04 
2 1 -5.837347550126e-04  -2.706748878468e-04   2.321025575270e-04 
3 1 -3.206566961353e-04   4.020054651513e-05   1.127984063135e-04 
4 1  7.873828172554e-05   1.824811562910e-04   1.006078267411e-04 
5 1  1.699023518842e-04  -2.702870838879e-05   2.714826711722e-04 
6 1  1.456784856460e-05   1.138589556613e-04   2.643028334809e-04 
7 1  1.721373524279e-05   1.195733445309e-04   2.001895302622e-04 
8 1  2.276665925984e-04   2.201308655656e-04   1.147311716089e-04 
8
Step 52000
1 1 -4.725760567802e-04  -5.269521232771e-05   3.190230004981e-04 
2 1 -1.666713863069e-04  -4.892944234522e-05  -2.697811126657e-04 
3 1 -2.421944287570e-05  -6.780931018662e-05   4.372154743090e-04 
4 1 -1.585420780437e-04   2.993811344625e-04  -7.394975464534e-05 
5 1  2.515565900677e-04  -2.445225640969e-04   3.412740207783e-04 
6 1  3.374193806944e-04   2.728053957313e-04   5.023478135525e-04 
7 1  1.526853669981e-04  -4.030872155974e-05   7.764773755866e-06 
8 1 -7.780010075739e-05  -9.730512663613e-06  -1.310011061005e-04 
8
Step 53000
1 1 -4.653880704038e-04  -6.326379881681e-05   2.598659473453e-04 
2 1 -1.516982901352e-04  -3.368323355459e-04  -1.102797197113e-04 
3 1  2.429058518392e-04  -4.128641178821e-04   3.053986546441e-04 
4 1  6.355094942141e-05  -1.777177085898e-05  -3.252663822268e-06 
5 1  3.687277479443e-04  -4.404601149413e-04   2.668969803793e-04 
6 1  2.951710259678e-05  -1.549115738673e-05   5.214323068549e-04 
7 1  2.884032325202e-04  -7.870115763821e-05   1.608087323625e-04 
8 1 -3.285874146262e-04   1.942430534338e-04   9.798559284213e-05 
8
Step 54000
1 1  2.433784097169e-05  -6.287870952449e-05   4.378629719659e-04 
2 1  7.464929958305e-05  -1.967069657197e-04  -1.208736685681e-04 
3 1 -2.463852534013e-05  -1.997178635604e-04   5.659922341565e-05 
4 1  1.147667421184e-05  -2.102314170041e-04  -7.673214108784e-05 
5 1  1.052464895731e-04  -6.701037803352e-04   9.942573941427e-05 