8
Step 0
1  7.395189469585e+00   2.868572838882e+01  -2.182869978595e+01 
1  3.581768520100e+01  -5.040078629445e+01  -1.872152468762e+01 
1 -8.956057854562e+00   4.753479582038e+00   1.574679953468e+00 
1  1.977878075509e+01   3.607585693886e+01  -2.422827477529e+01 
1  7.002853144553e+01   7.647335132185e+01   2.165794942044e+00 
1  2.570063494682e+01  -1.914862205628e+01   1.732125061436e+00 
1  5.826318678326e+01  -1.353795077675e+01  -5.974027404880e+01 
1  5.370653369435e+01  -9.140397982714e+00  -5.549262301199e+01 
8
Step 1000
1  2.311079214369e+01   4.517121901074e+01  -2.514129848520e+01 
1  4.365548646832e+01  -5.098078038167e+01  -5.462486606414e+01 
1 -4.349468226249e+01  -6.266081893524e+00  -2.827010294802e+01 
1  2.257470071485e+01   1.386149315140e+01   1.484049707899e+01 
1  6.096308904796e+01   3.897020569709e+01  -1.410438599183e+01 
1  3.982107405762e+01   2.743928355027e+00  -3.157822650987e+00 
1  6.302178199315e+01  -2.177853404458e+01  -5.223801977362e+01 
1  1.105337002454e+01   2.908063283414e+00  -6.687559998194e+01 
8
Step 2000
1  2.399629774618e+01   5.157377150185e+01  -1.732357296876e+01 
1  2.790443877684e+01  -2.643981854353e+01  -6.337228980445e+01 
1 -5.502850598241e+01  -1.716828325687e+01  -4.369711194070e+01 
1  1.494248693341e+01  -9.599976174999e+00   5.502208763825e+01 
1  3.004369615625e+01  -6.666449064241e+00  -2.014678871608e+01 
1  4.051242872872e+01   2.351447558175e+01  -1.911899977029e+01 
1  4.947460795935e+01  -2.597528119137e+01  -2.680036638554e+01 
1 -3.415040472514e+01   1.244350555398e+01  -4.977825744854e+01 
8
Step 3000
1  1.378524295842e+01   4.373235781152e+01  -3.887838903615e+00 
1 -7.605458584631e-01   6.073425845974e+00  -4.684812353050e+01 
1 -4.520669591801e+01  -2.308739503747e+01  -3.959500921570e+01 
1  2.562946545866e+00  -2.410158895772e+01   8.170702761118e+01 
1 -5.957603461772e+00  -4.135973930148e+01  -1.393448753488e+01 
1  3.077042074388e+01   3.741166135551e+01  -3.599309396180e+01 
1  2.011590582789e+01  -2.622808531190e+01   6.093264897044e+00 
1 -6.617462254799e+01   9.887740935552e+00  -1.335427642019e+01 
8
Step 4000
1  1.624699308474e+00   2.321657279464e+01   7.838481518246e+00 
1 -2.521186947547e+01   2.719500649447e+01  -1.816634762021e+01 
1 -2.468403910892e+01  -2.138778177585e+01  -2.048051583567e+01 
1 -7.124978913924e+00  -2.564446862861e+01   8.461463648568e+01 
1 -3.034618209810e+01  -5.360719690303e+01  -6.289059411323e-01 
1  1.691673584273e+01   4.138876896561e+01  -4.186344129481e+01 
1 -1.531024465210e+01  -2.239167206711e+01   3.284335138324e+01 
1 -7.532121393056e+01  -5.311549531413e+00   2.424563855610e+01 
8
Step 5000
1 -4.729673615427e+00  -3.890181730958e+00   1.341841700528e+01 
1 -3.318188084379e+01   2.761275654164e+01   7.881463554781e+00 
1 -5.206124001019e+00  -1.232432350240e+01   3.714145857830e+00 
1 -1.011994546819e+01  -1.679227413603e+01   6.257989610559e+01 
1 -3.582257477014e+01  -4.376360382625e+01   1.150062054440e+01 
1  4.430634544939e+00   3.561065297853e+01  -3.079486181502e+01 
1 -4.507593549468e+01  -1.398958555534e+01   4.451917044553e+01 
1 -6.118282303068e+01  -2.520114600206e+01   4.721811802070e+01 
8
Step 6000
1 -2.654264968740e+00  -2.993374734034e+01   1.247153512824e+01 
1 -2.195513262945e+01   1.022505471256e+01   2.171804187623e+01 
1  5.980617223626e+00   1.889320843415e+00   2.319442989084e+01 
1 -7.108133612263e+00  -3.123919584207e+00   2.195153791019e+01 
1 -2.499378290739e+01  -2.009085675834e+01   1.568759867539e+01 
1 -4.179242685495e+00   2.198568812683e+01  -4.666350586813e+00 
1 -5.980523175575e+01  -7.984718089583e-01   3.918939238210e+01 
1 -2.971144264063e+01  -3.871791439016e+01   4.800073838641e+01 
8
Step 7000
1  5.160193870042e+00  -4.714622489875e+01   7.521846501151e+00 
1  2.005614501821e+00  -1.318275277758e+01   2.050488635145e+01 
1  7.203699287473e+00   1.737283982620e+01   3.090563521729e+01 
1 -2.053349101019e+00   9.394968828613e+00  -2.509705643640e+01 
1 -6.871484428522e+00   5.658427788600e+00   9.104310487962e+00 
1 -8.966899482310e+00   3.550958465260e+00   2.762754657651e+01 
1 -5.425280012152e+01   1.568602356491e+01   2.100582795057e+01 
1  9.015543728859e+00  -3.654039401775e+01   2.804119365609e+01 
8
Step 8000
1  1.234212111008e+01  -5.014877830313e+01   2.218588896420e+00 
1  2.572559460788e+01  -2.781868414519e+01   8.448133868998e+00 
1  2.195392340004e+00   2.911418148407e+01   2.489364268132e+01 
1  2.965344333454e-01   1.635824491603e+01  -6.350580160733e+01 
1  7.595095974288e+00   2.250882680538e+01  -5.466614413085e+00 
1 -1.173274938731e+01  -1.566194264946e+01   5.313685326311e+01 
1 -3.006006461435e+01   3.127802863729e+01  -1.248835179890e+00 
1  4.282227744104e+01  -1.625677170079e+01  -2.528523325519e+00 
8
Step 9000
1  1.268044455204e+01  -3.836438014094e+01  -1.017263673396e+00 
1  3.641474944426e+01  -2.427109444446e+01  -5.794840098841e+00 
1 -2.351778720900e+00   3.262668226044e+01   8.923279742905e+00 
1 -2.399705732991e+00   1.636609023861e+01  -8.147254797118e+01 
1  1.132825798288e+01   2.510387662165e+01  -2.073337600610e+01 
1 -1.464083681801e+01  -3.155086032353e+01   6.105392016974e+01 
1  4.092762230160e+00   4.024459757502e+01  -1.825262250969e+01 
1  6.178310095178e+01   1.544988365980e+01  -2.955903606234e+01 
8
Step 10000
1  3.722781712295e+00  -1.570951554395e+01  -2.210953472652e+00 
1  2.772639765984e+01  -3.346646428409e+00  -1.378397390207e+01 
1 -7.402529727576e-01   2.531253491097e+01  -9.929311741232e+00 
1 -8.501926641172e+00   1.058844466609e+01  -7.435690513810e+01 
1  4.288708561671e+00   1.509756425612e+01  -2.854706158693e+01 
1 -1.856454918710e+01  -4.058753978971e+01   4.723767504928e+01 
1  3.608181474200e+01   3.752487716427e+01  -2.429205681280e+01 
1  6.105880105772e+01   4.592828729606e+01  -4.133114095821e+01 
8
Step 11000
1 -1.173211916801e+01   1.095074178698e+01  -3.217737498147e+00 
1  2.342620837905e+00   2.444547990557e+01  -1.075304493356e+01 
1  8.748810823311e+00   7.440093810094e+00  -2.414566783546e+01 
1 -1.321628490158e+01   1.466621367022e+00  -4.513376931650e+01 
1 -7.301034417954e+00  -6.803513421891e-01  -2.338232181022e+01 
1 -2.214209963562e+01  -3.998323342328e+01   1.540116615867e+01 
1  5.428695958458e+01   2.093664674285e+01  -1.888073524002e+01 
1  4.132643426409e+01   6.158635645915e+01  -3.273815790429e+01 
8
Step 12000
1 -2.622472373769e+01   3.342029425428e+01  -6.003235704559e+00 
1 -2.828470635797e+01   4.322354629705e+01   2.400065664461e+00 
1  2.244045342691e+01  -1.659864388090e+01  -2.822093474081e+01 
1 -1.122380613188e+01  -8.104198826633e+00  -3.945184404272e+00 
1 -1.426894757339e+01  -1.316767137105e+01  -5.253918858814e+00 
1 -2.211333741757e+01  -2.859077958743e+01  -2.328065613621e+01 
1  5.159646679714e+01  -6.428232398556e+00  -6.635674408311e+00 
1  9.077543308684e+00   5.353771727972e+01  -7.717021103170e+00 
8
Step 13000
1 -3.120553779090e+01   4.504434317656e+01  -1.063708193398e+01 
1 -4.858580700079e+01   4.029666534916e+01   1.904570931939e+01 
1  3.247103753610e+01  -3.849544636820e+01  -2.112241484048e+01 
1 -4.507464640573e-01  -1.542036755932e+01   3.487280127827e+01 
1 -9.870098399808e+00  -1.543262272824e+01   1.895341074551e+01 
1 -1.521082652656e+01  -8.396454310742e+00  -5.391178750124e+01 
1  2.959331728223e+01  -3.553016404338e+01   4.799135419327e+00 
1 -2.453785715220e+01   2.333610099693e+01   2.139021822001e+01 
8
Step 14000
1 -2.231493037512e+01   4.370239219973e+01  -1.447166826917e+01 
1 -4.742694968679e+01   1.456610299647e+01   3.021567936092e+01 
1  3.114724604641e+01  -4.933691542746e+01  -6.752418985095e+00 
1  1.564010982879e+01  -1.862417969760e+01   5.943463819373e+01 
1  5.572919717194e+00  -6.638509922191e+00   3.849510877459e+01 
1 -5.113527456698e-01   1.548132438154e+01  -6.523804433378e+01 
1 -1.435876848713e+00  -5.503732240513e+01   9.069308513287e+00 
1 -4.837483439101e+01  -1.672933432990e+01   3.996342586795e+01 
8
Step 15000
1 -2.036146791120e+00   3.188694040420e+01  -1.336580643598e+01 
1 -2.381456613157e+01  -2.242310933944e+01   2.919197942746e+01 
1  1.529567143281e+01  -4.339357138431e+01   8.542304154317e+00 
1  2.934288465321e+01  -1.670234402324e+01   6.509253453793e+01 
1  2.457380123181e+01   7.857515078275e+00   4.416390373831e+01 
1  1.943849115505e+01   3.649017842128e+01  -5.447682275952e+01 
1 -2.781867138008e+01  -5.659638552828e+01   4.577157198491e+00 
1 -5.586294833663e+01  -5.015494005961e+01   3.848370566502e+01 
8
Step 16000
1  2.130144613570e+01   1.452015204454e+01  -4.200195107624e+00 
1  1.302260743252e+01  -5.201550586168e+01   1.423723020598e+01 
1 -1.173194192016e+01  -2.030146534052e+01   1.900073335863e+01 
1  3.233371518532e+01  -9.225469472161e+00   5.425763560595e+01 
1  3.620920526353e+01   1.950699835372e+01   3.208511482045e+01 
1  3.879520933054e+01   4.837756404615e+01  -2.706803475666e+01 
1 -3.855010160090e+01  -3.812833889323e+01  -5.125135372270e+00 
1 -4.634359155975e+01  -6.356100731501e+01   1.648185265306e+01 
8
Step 17000
1  3.687378276917e+01  -3.235862878510e+00   1.231026698090e+01 
1  4.714925572093e+01  -5.716120819171e+01  -1.045211489747e+01 
1 -4.028218702419e+01   1.366295618798e+01   2.146162146440e+01 
1  2.008399895560e+01   3.124787761964e+00   3.371291741148e+01 
1  3.156967476729e+01   2.069513114068e+01   5.613831005801e+00 
1  4.986938855232e+01   4.682020436373e+01   5.994269202355e+00 
1 -2.980455705299e+01  -5.196742348936e+00  -1.335167016327e+01 
1 -2.442942612341e+01  -5.197397442036e+01  -1.682061588129e+01 
8
Step 18000
1  3.665209327421e+01  -1.758028148179e+01   3.012542195963e+01 
1  6.271883930708e+01  -3.220711926650e+01  -3.567640382619e+01 
1 -5.771107251997e+01   4.622879455825e+01   1.638438660226e+01 
1 -4.451345070209e+00   1.758578748973e+01   1.124884528567e+01 
1  9.386559624711e+00   9.086652232083e+00  -2.496729431460e+01 
1  4.635612024213e+01   3.142710684837e+01   3.239225410117e+01 
1 -7.312599700130e+00   2.996544103514e+01  -1.385041599877e+01 
1  1.580809152966e+00  -2.173415695645e+01  -4.562315528686e+01 
8
Step 19000
1  2.045040722652e+01  -2.707953033080e+01   3.992089049998e+01 
1  5.242588969529e+01   1.191387593131e+01  -5.110817943054e+01 
1 -5.485036046687e+01   6.391705912812e+01   7.360669653532e+00 
1 -3.096915219972e+01   2.945079418124e+01  -7.970666195868e+00 
1 -2.173788015966e+01  -1.025330017314e+01  -4.680324350277e+01 
1  2.704095837411e+01   6.731952457553e+00   4.416803741745e+01 
1  1.586837028594e+01   5.353237413213e+01  -4.609189108235e+00 
1  2.297755455320e+01   1.198040838098e+01  -5.524294868536e+01 
8
Step 20000
1 -3.738623294808e+00  -3.220990493945e+01   3.420730742980e+01 
1  2.134488459142e+01   5.305555276262e+01  -5.030919892643e+01 
1 -3.128789089677e+01   5.871006923433e+01  -1.237304732956e+00 
1 -4.706748935436e+01   3.382233391217e+01  -2.327021574763e+01 
1 -4.746960746000e+01  -2.747695245323e+01  -5.105949598680e+01 
1 -3.225223465572e+00  -1.956723509219e+01   4.120480537642e+01 
1  2.655679806939e+01   5.692156656631e+01   1.082227244622e+01 
1  3.436932675434e+01   3.365434928429e+01  -4.003723191449e+01 
8
Step 21000
1 -2.455553526756e+01  -3.344462222437e+01   1.180405394778e+01 
1 -1.682367250030e+01   7.003604097823e+01  -3.306086106470e+01 
1  4.578009945905e+00   3.157457443271e+01  -6.646486495969e+00 
1 -4.459257697776e+01   2.769036631217e+01  -3.659149671890e+01 
1 -5.515272548386e+01  -3.342873625168e+01  -3.662040926677e+01 
1 -3.582652458432e+01  -3.963294476832e+01   2.946864555892e+01 
1  1.843351505310e+01   4.002258023943e+01   2.540417665172e+01 
1  3.475320693622e+01   3.552959455230e+01  -5.678163733711e+00 
8
Step 22000
1 -3.278905162404e+01  -2.993600731019e+01  -2.023428556355e+01 
1 -4.620715141678e+01   5.315537579995e+01  -4.903651186338e+00 
1  3.877941558471e+01  -7.461150555366e+00  -8.290140622114e+00 
1 -2.341572426812e+01   1.146763836194e+01  -4.853098869343e+01 
1 -3.973479932606e+01  -2.423278256607e+01  -9.974208016956e+00 
1 -6.090201898495e+01  -4.746460195988e+01   1.661155731816e+01 
1 -4.971812569171e+00   1.058002644273e+01   3.186659798000e+01 
1  2.627002344721e+01   2.050448592706e+01   3.333961664136e+01 
8
Step 23000
1 -2.594477760139e+01  -2.042997906212e+01  -4.784423945423e+01 
1 -5.554803130871e+01   1.070593175038e+01   2.447455488521e+01 
1  5.718232905233e+01  -4.187702215901e+01  -7.229561085440e+00 
1  7.247373810641e+00  -9.909170033620e+00  -5.591023898726e+01 
1 -7.538548750617e+00  -4.018513511979e+00   1.711755031319e+01 
1 -7.013714280679e+01  -4.102326048199e+01   7.951157548959e+00 
1 -3.098598146372e+01  -1.831617792180e+01   2.632721737602e+01 
1  1.316560659498e+01   6.679106062268e-01   5.923060627213e+01 
8
Step 24000
1 -1.002472754191e+01  -5.307525897564e+00  -5.732190489566e+01 
1 -4.445319903280e+01  -3.448907161232e+01   4.566623163162e+01 
1  5.359632540609e+01  -5.706648261466e+01  -5.251465815514e+00 
1  3.314890310099e+01  -2.857112342865e+01  -5.330400476365e+01 
1  2.615890354877e+01   1.684735566832e+01   3.384330227194e+01 
1 -6.088672648645e+01  -2.390569898094e+01   3.675699796017e+00 
1 -4.454027843911e+01  -3.489555338435e+01   1.101196669534e+01 
1  2.148004913362e-01  -1.000763993877e+01   6.081597580991e+01 
8
Step 25000
1  5.117148128268e+00   1.261322741554e+01  -4.350542647097e+01 
1 -2.173775465388e+01  -5.989868074662e+01   5.386765343529e+01 
1  3.262472534581e+01  -4.834386446393e+01  -3.659777140295e+00 
1  4.362440239921e+01  -3.777429126189e+01  -3.685594066878e+01 
1  4.665151806665e+01   2.842934797929e+01   3.623419682767e+01 
1 -3.667392189616e+01  -3.049631324539e+00  -1.204406964902e-01 
1 -3.721030163017e+01  -3.512678062551e+01  -7.530853860461e+00 
1 -9.431255818134e+00  -5.027589641877e+00   3.915479626405e+01 
8
Step 26000
1  1.191650812558e+01   2.842482476574e+01  -1.162026960168e+01 
1  1.663739304407e+00  -5.454272259192e+01   4.867314520178e+01 
1  5.320245754176e+00  -2.131584002295e+01  -2.750137641837e+00 
1  3.600989503148e+01  -3.423659031285e+01  -7.464605940774e+00 
1  4.660527953234e+01   2.610436379576e+01   2.701596153507e+01 
1 -4.511929490594e+00   1.469238259007e+01  -7.339939103082e+00 
1 -1.061623281011e+01  -2.273293250466e+01  -2.229715987684e+01 
1 -1.456385217718e+01   1.163959601460e+01   4.476456844385e+00 
8
Step 27000
1  8.424249671822e+00   3.644987345254e+01   2.441011907993e+01 
1  1.753051562817e+01  -2.316249584404e+01   3.266189915545e+01 
1 -1.598071043776e+01   1.091747803309e+01  -2.113928223361e+00 
1  1.598521826028e+01  -1.924740915378e+01   2.702232297644e+01 
1  2.826095119736e+01   1.218998590350e+01   1.278109148996e+01 
1  2.652589023971e+01   2.444335633325e+01  -1.831539249425e+01 
1  2.410276617171e+01  -6.201097761976e+00  -2.851132162384e+01 
1 -1.519395550030e+01   2.829459797349e+01  -2.856882241238e+01 
8
Step 28000
1 -1.044806443449e+00   3.360928689388e+01   4.836635069139e+01 
1  2.331631943229e+01   1.617427014641e+01   1.048985381924e+01 
1 -2.365731062823e+01   3.381013190476e+01  -1.136936096232e+00 
1 -5.343336851152e+00   1.158729407909e+00   5.429917559622e+01 
1  2.168654292763e+00  -5.263566641497e+00   3.070964077258e-01 
1  4.812023390894e+01   2.517765783879e+01  -2.915665434025e+01 
1  5.134648258482e+01   5.822811434437e+00  -2.573294756486e+01 
1 -1.230200972917e+01   3.279583020194e+01  -4.752007061229e+01 
8
Step 29000
1 -9.501693611317e+00   2.128572191785e+01   5.094857116857e+01 
1  2.174348129593e+01   4.427256790783e+01  -1.341149095501e+01 
1 -1.832438181685e+01   3.929715438386e+01   6.540008955866e-01 
1 -1.853509146773e+01   1.955771686265e+01   6.485109295599e+01 
1 -2.001480918310e+01  -1.781183003545e+01  -7.277707352635e+00 
1  5.637142875134e+01   1.951326385736e+01  -3.466227236651e+01 
1  5.995426693181e+01   9.528730231874e+00  -1.712654061350e+01 
1 -7.223269426047e+00   2.016613772802e+01  -4.807538170554e+01 
8
Step 30000
1 -1.142078876037e+01   3.785540772096e+00   3.166562792507e+01 
1  1.678455367757e+01   4.937415778925e+01  -3.531742845925e+01 
1 -6.026177243830e+00   2.685049342149e+01   3.375008745875e+00 
1 -1.960566754396e+01   2.992437770931e+01   5.474906680049e+01 
1 -3.076106142262e+01  -2.030245856718e+01  -1.054182872180e+01 
1  5.077112611642e+01   1.105644850383e+01  -3.080156412633e+01 
1  4.599139558698e+01   6.212221667695e+00  -6.421908033457e+00 
1 -1.095040428040e+00  -6.491131729033e+00  -3.252120210149e+01 
8
Step 31000
1 -4.705760040842e+00  -1.287820072555e+01  -2.131270245596e+00 
1  1.098201690358e+01   2.922441895595e+01  -5.049947761842e+01 
1  5.107110025490e+00   1.996677812695e+00   6.552648944594e+00 
1 -1.005963406256e+01   2.846314911671e+01   2.611578882955e+01 
1 -2.740479447542e+01  -1.182537622215e+01  -1.169600333073e+01 
1  3.263731132388e+01   2.930568504897e+00  -1.610592730316e+01 
1  1.258277525561e+01   2.155114895419e-01   3.535216915250e+00 
1  4.765990914817e+00  -3.723879700706e+01  -7.005968347029e+00 
8
Step 32000
1  7.898198476368e+00  -2.269301872688e+01  -3.604691638088e+01 
1  4.762498578575e+00  -6.723902966647e+00  -5.349252961556e+01 
1  8.059659943847e+00  -2.434296693981e+01   9.155692986597e+00 
1  3.543123807345e+00   1.551216490344e+01  -1.141193456334e+01 
1 -1.297652105698e+01   3.310874574315e+00  -1.277991382084e+01 
1  6.013869129290e+00  -2.890622190680e+00   6.399065159715e+00 
1 -2.912977104084e+01  -3.201158496800e+00   1.118691023263e+01 
1  8.660108276784e+00  -5.790089504729e+01   1.946803457040e+01 
8
Step 33000
1  1.971082992690e+01  -2.298882418909e+01  -5.464903687957e+01 
1 -2.948606732869e+00  -4.041583686056e+01  -4.106622307588e+01 
1  9.907661176243e-01  -4.008048962596e+01   1.010575747261e+01 
1  1.269843776138e+01  -3.477059711087e+00  -4.365617994208e+01 
1  4.844065048741e+00   1.704834556521e+01  -1.414009262253e+01 
1 -2.246009072133e+01  -6.263662289911e+00   2.943659737200e+01 
1 -6.348245104541e+01  -8.393983790012e-01   1.644868534158e+01 
1  9.230517659339e+00  -5.725227367739e+01   3.812880035702e+01 
8
Step 34000
1  2.406733487567e+01  -1.600437832467e+01  -4.966547671268e+01 
1 -1.302525616324e+01  -5.529303547646e+01  -1.428916259080e+01 
1 -1.161675277028e+01  -3.804121468490e+01   8.805375071042e+00 
1  1.196938222552e+01  -2.063043305516e+01  -5.928601865954e+01 
1  1.819211700121e+01   2.213022040021e+01  -1.404299662197e+01 
1 -4.601984973108e+01  -8.547126965263e+00   4.509285943026e+01 
1 -7.786414430808e+01   6.561994242677e+00   1.997577322282e+01 
1  6.255326127603e+00  -3.320244233730e+01   4.412537750113e+01 
8
Step 35000
1  1.754646185240e+01  -7.056085895764e+00  -2.254475494208e+01 
1 -2.428274536469e+01  -4.358294627115e+01   2.147639117617e+01 
1 -2.160198938544e+01  -1.807853284453e+01   5.247882692481e+00 
1  1.375398663898e+00  -2.906764507197e+01  -5.382483419188e+01 
1  2.248643573012e+01   1.542814806856e+01  -9.769474290458e+00 
1 -5.902610281133e+01  -1.119247098077e+01   4.765463166530e+01 
1 -6.642260545800e+01   1.504319112820e+01   2.174376233138e+01 
1  7.654511877206e-01   7.293009571341e+00   3.671285873674e+01 
8
Step 36000
1  1.578277152159e+00  -1.854975083693e+00   1.599231474308e+01 
1 -3.237184644043e+01  -9.208182367782e+00   5.592495574379e+01 
1 -2.078157468419e+01   1.275384360935e+01   6.911702879655e-02 
1 -1.369170016634e+01  -2.502770707747e+01  -3.041208407348e+01 
1  1.728008504225e+01  -6.558405962510e-01   2.673230739567e-01 
1 -5.703381014159e+01  -1.441427447308e+01   3.503972585369e+01 
1 -3.119160053145e+01   1.920725968797e+01   2.037225830993e+01 
1 -4.940523758379e+00   4.987670186321e+01   1.836014691930e+01 
8
Step 37000
1 -1.694354336762e+01  -3.336116245933e+00   4.829660697150e+01 
1 -3.117891559006e+01   3.136303225880e+01   7.541470817343e+01 
1 -5.950928935420e+00   4.098415149409e+01  -5.489718461216e+00 
1 -2.439038861858e+01  -1.028674178280e+01  -1.929442477004e-02 
1  6.328091031006e+00  -1.803785764805e+01   1.411636866185e+01 
1 -3.920426798543e+01  -1.664343717730e+01   1.103123594098e+01 
1  1.603652921787e+01   1.498572045242e+01   1.408028662514e+01 
1 -7.830366388529e+00   7.662185212393e+01  -4.943300958218e+00 
8
Step 38000
1 -2.919758948991e+01  -9.049763922967e+00   5.930484917108e+01 
1 -1.720523793584e+01   5.741651913897e+01   7.061220463505e+01 
1  1.766403740535e+01   5.339556924705e+01  -1.026274279816e+01 
1 -2.375671709948e+01   7.891306484247e+00   2.383924023800e+01 
1 -4.583554550943e+00  -2.722446624322e+01   2.641041799396e+01 
1 -1.038032145886e+01  -1.539170368160e+01  -1.556178768614e+01 
1  5.820151719668e+01   2.580805021053e+00   2.451998101658e+00 
1 -5.992408252593e+00   7.613409013644e+01  -2.569605393591e+01 
8
Step 39000
1 -2.975080838589e+01  -1.243265841568e+01   4.491733684955e+01 
1  7.513348990446e+00   5.624373083097e+01   4.163968552446e+01 
1  3.911993995131e+01   4.409765778965e+01  -1.364303154338e+01 
1 -1.086586404808e+01   2.098605575320e+01   3.297284374125e+01 
1 -1.135266596080e+01  -2.304046617443e+01   3.122287032007e+01 
1  2.116114098835e+01  -8.834471108447e+00  -3.577808940421e+01 
1  8.166002831556e+01  -1.361820685941e+01  -1.274343918003e+01 
1  6.242457430476e-02   4.934830616554e+01  -3.820870347714e+01 
8
Step 40000
1 -1.878400381822e+01  -6.779393584230e+00   1.265463890388e+01 
1  3.496857317156e+01   2.844498219804e+01  -2.067470790314e+00 
1  4.687688614432e+01   1.630303408499e+01  -1.512494535654e+01 
1  8.982110865384e+00   2.304481382199e+01   2.734209053044e+01 
1 -1.303688626829e+01  -6.936511275926e+00   2.475593324499e+01 
1  4.626467850211e+01   2.799673232687e+00  -4.372809691526e+01 
1  7.982028139216e+01  -2.692269461032e+01  -2.730876595071e+01 
1  7.486442467304e+00   7.520167616952e+00  -3.951190299585e+01 
8
Step 41000
1 -1.999647952797e+00   9.863266532514e+00  -2.153731163643e+01 
1  5.315993157319e+01  -1.199974332313e+01  -4.403161815978e+01 
1  3.466725959537e+01  -1.848739206268e+01  -1.384075973528e+01 
1  2.634894583928e+01   1.341127853301e+01   1.428795570636e+01 
1 -1.127652692868e+01   1.331857032386e+01   7.818869755290e+00 
1  5.736082031686e+01   1.625703720405e+01  -3.836100028944e+01 
1  5.477609625833e+01  -3.100995061025e+01  -3.535605340936e+01 
1  1.222108922156e+01  -3.226704628724e+01  -2.986794491243e+01 
8
Step 42000
1  1.255361098802e+01   3.184097839380e+01  -4.152757598262e+01 
1  5.246299431294e+01  -4.498903051660e+01  -6.831703088592e+01 
1  6.039098134781e+00  -4.582445327138e+01  -8.883498701731e+00 
1  3.267815827267e+01  -2.490902881759e+00   4.127427465147e+00 
1 -8.495550766081e+00   2.767842519587e+01  -1.366757320649e+01 
1  5.209650145361e+01   2.633387271314e+01  -2.378514931474e+01 
1  1.670453476951e+01  -2.354843332955e+01  -3.230042154418e+01 
1  1.141030685869e+01  -5.553944546265e+01  -1.295803983196e+01 
8
Step 43000
1  1.942149918878e+01   4.839075217333e+01  -3.967198153197e+01 
1  3.117940230141e+01  -5.577843651388e+01  -6.761838239210e+01 
1 -2.776161801257e+01  -5.574960791888e+01  -6.585019892231e-02 
1  2.493944004877e+01  -1.627288665765e+01   3.670033885337e+00 
1 -5.828440118471e+00   2.949291758122e+01  -3.168507403007e+01 
1  3.393952073693e+01   2.858895226351e+01  -6.236406051098e+00 
1 -2.166033538457e+01  -7.452656096384e+00  -1.753538402983e+01 
1  5.155367117154e+00  -5.752916817395e+01   6.009550725780e+00 
8
Step 44000
1  1.803309843703e+01   4.864400751731e+01  -1.897897664548e+01 
1 -3.842872548258e+00  -4.075088179762e+01  -4.486269488940e+01 
1 -5.332753469394e+01  -4.571195320175e+01   1.123697816020e+01 
1  6.400341504209e+00  -2.059845579663e+01   1.268977509353e+01 
1 -2.523581110997e+00   1.803937169680e+01  -3.928126947522e+01 
1  9.642227008038e+00   2.120790742323e+01   9.219244213195e+00 
1 -4.981207574028e+01   1.076709717290e+01   4.965017934432e+00 
1 -3.694804359135e+00  -4.287685486755e+01   2.216875387137e+01 
8
Step 45000
1  1.206048441635e+01   2.719313735580e+01   8.998137869790e+00 
1 -3.914318206778e+01  -7.863059854955e+00  -1.116334510192e+01 
1 -6.006254354148e+01  -2.035590093841e+01   2.153221976250e+01 
1 -1.481630344127e+01  -1.237499263423e+01   2.400352226872e+01 
1  2.906210335798e+00  -1.468652481479e+00  -3.284525491783e+01 
1 -1.312437464234e+01   6.054175763987e+00   1.985472124885e+01 
1 -6.141433590095e+01   2.357280782893e+01   2.708399360985e+01 
1 -1.081472429723e+01  -2.156338068870e+01   3.170484190834e+01 
8
Step 46000
1  6.761511141250e+00  -1.107661982698e+01   2.962860730328e+01 
1 -5.989208452397e+01   2.706948771788e+01   1.898926276233e+01 
1 -4.500402857829e+01   1.041939655363e+01   2.619872856364e+01 
1 -2.926813526499e+01   5.142349206104e+00   2.726766549100e+01 
1  1.069519927476e+01  -2.006657123591e+01  -1.412761156009e+01 
1 -2.833086542428e+01  -1.144791515244e+01   2.521614389578e+01 
1 -5.568693222622e+01   2.588737461312e+01   3.941588797718e+01 
1 -1.261429686066e+01  -3.478905961449e+00   3.268106056238e+01 
8
Step 47000
1  5.319094733435e+00  -5.199017168216e+01   3.292513721845e+01 
1 -5.728192861676e+01   4.870949092533e+01   3.497423941758e+01 
1 -1.416523793584e+01   3.604917703838e+01   2.188962709376e+01 
1 -3.099876334466e+01   2.365095914572e+01   1.528536083265e+01 
1  1.864361692524e+01  -2.966646480551e+01   1.023119857775e+01 
1 -3.384886725699e+01  -2.474114280038e+01   2.615589714665e+01 
1 -3.693806848867e+01   1.766918264040e+01   3.612739100138e+01 
1 -8.366886011296e+00   6.682505883329e+00   2.558369536838e+01 
8
Step 48000
1  6.858708887243e+00  -7.847593631417e+01   1.781183010803e+01 
1 -3.212758396103e+01   4.903932665547e+01   3.424519332283e+01 
1  2.112827715526e+01   4.924530275881e+01   8.325959132815e+00 
1 -1.990677961523e+01   3.377415810852e+01  -1.170726782703e+01 
1  2.268440982626e+01  -2.669108574677e+01   3.162869841900e+01 
1 -3.128319314038e+01  -2.905076964147e+01   2.339416640029e+01 
1 -1.184485918801e+01   3.344551769405e+00   1.781132672579e+01 
1 -4.177117616592e-01   1.054096245786e+01   1.272334141371e+01 
8
Step 49000
1  7.251168149949e+00  -7.740337541770e+01  -8.407981165291e+00 
1  6.019398614440e+00   2.917633187523e+01   2.172000124830e+01 
1  4.882276164592e+01   4.706028334531e+01  -1.110364746284e+01 
1 -1.148740401832e+00   2.891213593150e+01  -4.531489455358e+01 
1  1.872646079595e+01  -1.292849410413e+01   4.236013104562e+01 
1 -2.414729914538e+01  -2.298298068537e+01   1.690607154248e+01 
1  1.281058976041e+01  -1.059681369465e+01  -8.565993797076e+00 
1  7.152692650255e+00   1.318030630361e+01  -2.544333104742e+00 
8
Step 50000
1  1.941902318972e+00  -4.553773821347e+01  -3.332384693228e+01 
1  4.216528225628e+01  -1.911662348117e+00   6.627115761640e+00 
1  5.986981788957e+01   3.078610912735e+01  -2.980424745656e+01 
1  1.704617805412e+01   8.431219745023e+00  -7.139446649340e+01 
1  5.196880660424e+00   5.418953869520e+00   3.810810296130e+01 
1 -1.595140778475e+01  -9.059794862489e+00   6.569491181932e+00 
1  3.129611314768e+01  -1.835520882112e+01  -3.175588156729e+01 
1  1.035290177964e+01   1.890358730458e+01  -1.636121820464e+01 
8
Step 51000
1 -1.055199536207e+01   7.227584720601e+00  -4.482243424390e+01 
1  6.157354236263e+01  -3.118646337648e+01  -2.194492864369e+00 
1  5.127835749121e+01   5.504383809124e+00  -4.014891668784e+01 
1  2.689902881761e+01  -2.087022255225e+01  -7.595340557929e+01 
1 -1.490650139054e+01   2.033790621393e+01   2.000801891437e+01 
1 -8.650755491458e+00   7.049311308411e+00  -6.629602705349e+00 
1  3.991178016662e+01  -1.732129807292e+01  -4.082353459822e+01 
1  7.256616875307e+00   2.781566403979e+01  -2.525009779651e+01 
8
Step 52000
1 -2.657809077481e+01   6.069291914767e+01  -3.683658959340e+01 
1  5.624141028010e+01  -4.714724539563e+01  -9.355829284098e-01 
1  2.709423822869e+01  -2.124818342497e+01  -3.684004100291e+01 
1  2.474791062766e+01  -4.677039969989e+01  -5.234496489698e+01 
1 -3.418779439451e+01   2.569627286028e+01  -5.224186266167e+00 
1 -1.976169797167e+00   1.888904111100e+01  -1.991437631189e+01 
1  3.773025761067e+01  -9.093333683642e+00  -3.078633319596e+01 
1 -7.973618006704e-01   3.514415269777e+01  -2.723808425169e+01 
8
Step 53000
1 -3.820547136786e+01   9.275496278163e+01  -1.250163706439e+01 
1  2.892069862803e+01  -4.468612261629e+01   7.173882585222e+00 
1 -3.395876933152e+00  -4.151304711644e+01  -1.971359176752e+01 
1  1.281463472713e+01  -5.670559420461e+01  -5.895185336711e+00 
1 -4.364773808545e+01   2.017168214723e+01  -2.770752061018e+01 
1  5.859015633836e+00   2.212015090417e+01  -2.919917769376e+01 
1  2.671520643429e+01   1.598822879302e+00  -5.989032985081e+00 
1 -9.693277337480e+00   3.387646351353e+01  -2.252595074017e+01 
8
Step 54000
1 -3.721742787239e+01   9.018041589134e+01   1.705990175002e+01 
1 -7.482463119720e+00  -2.716967398286e+01   1.383354426434e+01 
1 -2.957586594958e+01  -4.941780036977e+01   5.433272963651e+00 
1 -1.949782482443e+00  -4.417459646912e+01   4.684544386040e+01 
1 -3.725574995746e+01   7.916650539297e+00  -3.876333938126e+01 
1  1.631249830583e+01   1.666526232036e+01  -3.081694845678e+01 
1  1.113769959973e+01   9.510935503058e+00   2.111432635018e+01 
1 -1.458395653743e+01   1.957142977523e+01  -1.344427632297e+01 
8
Step 55000
1 -2.035017387053e+01   5.579192266930e+01   3.863251514965e+01 
1 -3.624562362691e+01  -4.226857272207e+00   1.094667592130e+01 
1 -4.411642191068e+01  -4.336454292704e+01   2.917279268972e+01 
1 -1.182079957897e+01  -1.289175869918e+01   8.557967057519e+01 
1 -1.578442291946e+01  -3.899926002706e+00  -3.529292775819e+01 
1  2.859718823899e+01   6.702684978032e+00  -2.358620260105e+01 
1 -3.965612359596e+00   1.180844564919e+01   3.634818118827e+01 
1 -1.246220403800e+01  -5.690334544230e+00  -3.424145095341e+00 
8
Step 56000
1  7.990652449001e+00   6.362129341950e+00   4.393314629923e+01 
1 -4.542616959824e+01   1.383107027200e+01  -4.114043324047e+00 