8
Step 0
1 1.39748825551200468e+01 5.42081696338564996e+01 -4.12502637145741176e+01
1 6.76856145659056949e+01 -9.52436813211538436e+01 -3.53785538339906509e+01
1 -1.69244962808761841e+01 8.98277443199455661e+00 2.97571380721552714e+00
1 3.73764782190754659e+01 6.81734884372274905e+01 -4.57848032008425605e+01
1 1.32334743617293725e+02 1.44513687947378003e+02 4.09275922922765290e+00
1 4.85671606455685492e+01 -3.61856508787949736e+01 3.27324193705891275e+00
1 1.10101464733509715e+02 -2.55830189233402763e+01 -1.12892755091165839e+02
1 1.01490638462739952e+02 -1.72728486323217680e+01 -1.04865858063218212e+02
8
Step 1000
1 -9.59187609087604542e+00 -1.55928184039846851e+01 2.96980523630304987e+01
1 -7.15474073853130079e+01 5.93455349065710180e+01 1.96743016195405964e+01
1 -9.66800254337831966e+00 -2.41076282432914404e+01 1.02771705247581817e+01
1 -2.28431055758566401e+01 -3.68782173988014108e+01 1.28035096095335376e+02
1 -8.03503604337007715e+01 -9.67340118023519722e+01 2.50297951216434207e+01
1 5.96950294323585151e+00 7.50704952085910548e+01 -6.01777350970454563e+01
1 -1.03654414943602433e+02 -2.68132591803277585e+01 9.94921197373477071e+01
1 -1.30054286951442464e+02 -5.54573748214441835e+01 1.04966369258426937e+02
8
Step 2000
1 9.14677127597940220e+00 -3.06500958190834361e+01 -3.71765393971549551e+00
1 5.76504746176573022e+01 -1.07935000737952009e+01 -3.15722738831635539e+01
1 -7.86411107939561571e+00 5.11644126581687786e+01 -1.91190991283938629e+01
1 -1.64165079179882447e+01 2.52351462636653956e+01 -1.40107647084893500e+02
1 1.09191784111809618e+01 3.57148609322082677e+01 -5.64596923511808413e+01
1 -3.16408024921983788e+01 -7.52223521853579342e+01 9.07270379056485297e+01
1 7.09433695319252848e+01 7.21622059456775986e+01 -4.81743443872704518e+01
1 1.19682140199938829e+02 8.25495234649476544e+01 -8.37902171158879270e+01
8
Step 3000
1 -6.88463250421885498e+00 5.88234837742543490e+01 -2.62345191586350346e+01
1 -4.13771639048015132e+01 -4.00713981577448521e+01 5.99597953626166529e+01
1 4.27008058092626470e+01 -7.95657150644798179e+01 1.78889461192456345e+01
1 5.85082936811014989e+01 -3.42907752196854361e+01 9.90021314432677286e+01
1 4.91087885082371969e+01 1.36226956466158349e+01 7.94298739621641374e+01
1 2.35583531974779596e+01 5.63684743342818351e+01 -9.03929079853679269e+01
1 -4.77554372187321405e+01 -9.94510406240482467e+01 1.19753388836264674e+00
1 -9.45149224789604290e+01 -7.67847029612411802e+01 6.78733557890381149e+01
8
Step 4000
1 -7.24801277226884144e-01 -5.88780620092908507e+01 5.50009289834379302e+01
1 2.97266805686917372e+01 8.63805347878645478e+01 -8.80416822652368722e+01
1 -7.08084344019991505e+01 9.98050643673189484e+01 -7.04761557539256600e+00
1 -8.45840746077572021e+01 5.69454481549465612e+01 -2.18648204043446199e+01
1 -8.58811369587626530e+01 -4.32507672704368176e+01 -8.37769433651109807e+01
1 1.41909719528224603e+01 -2.77946992373623090e+01 5.92692806924204945e+01
1 4.42323972242195538e+01 9.89458670518490493e+01 2.20343738303759089e+01
1 6.24935680236542339e+01 4.58093377229860295e+01 -6.36028177640995409e+01
8
Step 5000
1 1.59848258284467182e+01 3.16501726250523561e+01 -7.35335364704470607e+01
1 -2.36778829690788157e+01 -1.18597401602109187e+02 9.64989825826287984e+01
1 6.98671204931458192e+01 -1.00959414392926774e+02 -5.08174867948649389e+00
1 8.26469354225917385e+01 -7.97489047481293625e+01 -6.11705531617302611e+01
1 9.26145274439898571e+01 5.32322487652701426e+01 6.42462908670086961e+01
1 -6.40033733406977774e+01 2.64569265298995160e-01 -4.69301427053117681e+00
1 -6.16151689985128641e+01 -6.62160071418250027e+01 -1.60714680515832917e+01
1 -3.01154785936845357e+01 -6.50683990447792926e+00 6.55452513706978834e+01
8
Step 6000
1 -3.53028759303032302e+01 4.19603599258619919e+00 7.40007333311262698e+01
1 2.53476366373662643e+01 1.28078285338371046e+02 -7.77945793789327382e+01
1 -3.37919657489788321e+01 8.39790666212009853e+01 7.88943979053219380e+00
1 -5.54276987316548926e+01 9.10333464538762200e+01 1.11212527940709222e+02
1 -7.66307274256734701e+01 -4.77319468032491940e+01 -2.57113085387094813e+01
1 1.00444390590509656e+02 1.45319639225313502e+01 -5.16218763189954686e+01
1 9.27189536043732545e+01 1.32850630281579019e+01 -1.06320139182850557e+01
1 6.92302602236653275e+00 -2.01849248616771106e+01 -6.89796615126938235e+01
8
Step 7000
1 5.06999873492012938e+01 -2.30148341532404821e+01 -5.46272184157405718e+01
1 -3.80854753103816392e+01 -1.13954382456408851e+02 4.11396737827071917e+01
1 -2.60753286195167959e+01 -5.94299534939270515e+01 5.59552398147059993e+00
1 1.83712775958524155e+01 -8.72703898468214732e+01 -1.04676168458443030e+02
1 5.35584614710120448e+01 3.25015257006859031e+01 -2.02117312278327219e+01
1 -1.06517543930420672e+02 -1.20501611433598246e+01 8.85163694442012172e+01
1 -1.27101992617868049e+02 4.11560211472990503e+01 4.21386992998102414e+01
1 2.32830385154524544e+00 2.19755795536043834e+01 7.02298384117234491e+01
8
Step 8000
1 -6.05963759252090242e+01 5.36663730835729691e+00 2.29111148145063908e+01
1 6.45729215402503343e+01 9.21243585706374404e+01 -1.72233959964262495e+00
1 1.01638451361689960e+02 4.76032772328852047e+01 -3.18977081055185394e+01
1 9.27003915623925501e+00 7.72170652089794771e+01 4.14710915743586455e+01
1 -3.52797286661546465e+01 -1.61079733149309554e+01 6.73841249064555257e+01
1 8.12439897514309592e+01 -5.14093313701443932e+00 -1.03237218233905921e+02
1 1.67012890219377255e+02 -8.47736389164654298e+01 -6.89508795767883100e+01
1 2.11032022563702082e+00 9.07660091045549144e+00 -7.36078524894082022e+01
8
Step 9000
1 4.19900248811140884e+01 4.32045689199255705e+01 1.95786935735082537e+01
1 -7.92220044272388293e+01 -5.28862536560630048e+01 -2.09469694271383098e+01
1 -1.37234618293497078e+02 -4.88361689876570253e+01 5.31607285968176697e+01
1 -1.48638007997089741e+01 -5.10727381412008654e+01 6.58680616891805926e+01
1 1.29224504119387085e+01 4.39415943508704476e+00 -8.90406363413181339e+01
1 -1.28753820338431506e+01 2.10526697872143096e+01 6.54082904908738243e+01
1 -1.49515471631291234e+02 8.43793653548087690e+01 7.24361182387716696e+01
1 -8.43168459326728836e+00 -5.31797496941141574e+01 5.61725813947441992e+01
8
Step 10000
1 -8.91160909452066718e-01 -7.74722615566016231e+01 -5.45802984835677591e+01
1 7.54987605076676402e+01 1.81458824293925822e+01 8.79242444815704793e+00
1 1.14150060603871609e+02 5.89630569217523828e+01 -5.85044591731995780e+01
1 7.70241329457818402e+00 2.62016212483940549e+01 -1.42298970903750018e+02
1 1.05246140850340986e+01 2.28797753322140540e+00 8.06319667095759769e+01
1 -4.24455243006713729e+01 -1.83963038750985959e+01 -8.35262889321180957e+00
1 8.64781917723281737e+01 -5.38786590843129503e+01 -6.78201152470332715e+01
1 8.75022938404682371e+00 6.48179027125369345e+01 -2.58901897225779933e+01
8
Step 11000
1 -4.28075818983414180e+01 7.28561061033055211e+01 6.45053126745931138e+01
1 -6.26475696312862027e+01 -1.95861160401779943e+00 3.20351101283861155e+01
1 -5.55764484651800146e+01 -7.08792348727965873e+01 4.69475385470515079e+01
1 2.65603057978283097e-01 -1.07392387167667298e+01 1.54563353811916159e+02
1 -3.02530110604304134e+01 -7.50103808204302958e+00 -4.98436529670884099e+01
1 5.68225624180242121e+01 -2.46501278574048666e+00 -3.19587019505500258e+01
1 -1.89556965530245130e+01 2.05608058584523761e+01 6.89248348071701713e+01
1 -1.09268325461678124e+01 -4.04448293159434371e+01 -6.77109124353225678e+00
8
Step 12000
1 7.15691632567051528e+01 -3.36926659433112548e+01 -4.16677922434193562e+01
1 5.49549115208828596e+01 4.24266776128689482e+00 -8.11318053607038365e+01
1 -4.91080095881257339e+00 7.79100246537780379e+01 -2.70627077810401744e+01
1 -2.62988476886807465e+00 4.14599910538550098e+00 -1.06943216358126904e+02
1 4.01480251498453526e+01 1.28176571246342306e+01 9.31801894412716436e+00
1 -3.34288618390607439e+01 3.21187377445122095e+01 4.03114669751099015e+01
1 -1.88993241860324055e+01 2.37404841633442132e+00 -8.19147178714276976e+01
1 2.69362640221484106e+01 4.50681924704303949e+00 2.85914605394879686e+01
8
Step 13000
1 -7.79171891863753672e+01 -3.33091622384033599e+01 -8.83941922760378951e+00
1 -4.95622893336529984e+01 -2.60112220145716897e+01 1.18723494351934164e+02
1 5.36204580851902364e+01 -8.27453919964064966e+01 8.80005022077196131e+00
1 -6.19674188188614039e+00 -5.03332872191317549e+00 1.54362003575888469e+01
1 -3.47665175408902059e+01 -1.72699544804052678e+01 3.10952997325329861e+01
1 -1.74402358627394527e+01 -5.82646273524119138e+01 -1.71949394013267991e+01
1 2.89006165099612531e+01 -1.46299563259844465e+01 1.07546765350697910e+02
1 -5.53510062554104536e+01 3.06497376666613945e+01 -3.82626803670818560e+01
8
Step 14000
1 4.83023282717879212e+01 1.07125635661425633e+02 6.90858342482478207e+01
1 3.69206295772284534e+01 5.76780659528697441e+01 -1.14910705071872499e+02
1 -7.00013353029274867e+01 7.55181815252411042e+01 -4.06503306786639307e+00
1 2.89826375704589445e+01 9.14415786731135505e+00 8.89511023564675156e+01
1 4.88976778879118612e+00 1.72924910383295298e+01 -5.91253900982333462e+01
1 7.15055642292481224e+01 6.06736581351144935e+01 -3.11402875898078690e+01
1 -1.82074604411001815e+01 1.48267736047755800e+01 -1.20539449369581007e+02
1 7.95366999164165804e+01 -4.84069919019324715e+01 3.45294855183339564e+01
8
Step 15000
1 4.47840364223320275e+00 -1.47862425799668642e+02 -1.04517599470707211e+02
1 -2.02516553661089560e+01 -8.87409518642757433e+01 6.74803460414702698e+01
1 4.41729316878352662e+01 -6.19824431724038192e+01 2.52389424957840838e+01
1 -5.88961281967501904e+01 -9.85532640196392862e+00 -1.48570990016623654e+02
1 4.02708156459011235e+01 -1.21301883357864266e+01 6.40052508976925623e+01
1 -9.15754085827676647e+01 -3.27903824266979882e+01 8.12200476775525289e+01
1 3.44326417128869400e+00 -5.08238791151160907e+00 1.03117677960205782e+02
1 -8.50195200191769089e+01 3.56957107402067848e+01 -2.47664342023459092e+01
8
Step 16000
1 -5.05528674633733459e+01 1.23680753479546937e+02 9.32286470334603621e+01
1 3.60628709205698739e+00 1.13497548361788049e+02 3.60713900399099074e+00
1 1.52216957829104516e+01 4.96509553312194498e+01 -6.84098165570298988e+01
1 8.28176176256401817e+01 5.37624504006205939e+00 1.30871819737414967e+02
1 -7.66320166766090267e+01 3.78367696850931612e+00 -4.43330983457992289e+01
1 6.00028878398908887e+01 -1.48464001379968575e+01 -1.11422204805553051e+02
1 2.69195989045080886e+00 -1.10164479716638759e+01 -4.94511509489744654e+01
1 7.15479065381620245e+01 -1.94582220853247945e-01 1.49542924337851613e+01
8
Step 17000
1 5.86136143416524931e+01 -3.45728241617946992e+01 -3.84399887929510768e+01
1 1.15704123563953587e+01 -1.23997112707563772e+02 -6.59051826234561986e+01
1 -8.65464468633737312e+01 -4.11348934173357961e+01 1.09877775931733439e+02
1 -8.70721072366101083e+01 -1.73444897178630475e+00 -4.54630092946794591e+01
1 7.44082766123078017e+01 2.52080528256330805e+00 9.94043774542421765e+00
1 8.95794416299711926e+00 5.96064492076720356e+01 1.09835143032241064e+02
1 1.15743418298632683e+00 2.80784500493028020e+01 -2.66701953737886939e+01
1 -4.86621077665557635e+01 -3.36706024410465403e+01 -1.79412576917543376e+00
8
Step 18000
1 -1.97763540853844191e+01 -6.50581777451968719e+01 -2.66167361053415839e+01
1 -2.46937652071699425e+01 1.10760655878481785e+02 8.40335948373356700e+01
1 1.31019848221113904e+02 3.37994529529995233e+01 -1.12886073393092801e+02
1 6.48063480262349287e+01 4.64296091582692405e+00 -5.27832306174531780e+01
1 -2.21143468714111258e+01 -1.08397269345787839e+00 2.14115868785936918e+01
1 -6.96921091279705536e+01 -7.47258189014828673e+01 -7.97872162145865786e+01
1 -4.48912755051562584e+00 -3.70878568737787759e+01 8.85741510698119470e+01
1 2.41346237875151317e+01 4.16403948983800944e+01 -1.71355665361573308e+01
8
Step 19000
1 -3.70279444420624131e+01 1.01762085826216321e+02 7.01524207280385355e+01
1 2.79229323595971479e+01 -7.66348037739993089e+01 -4.77263470679791624e+01
1 -1.25786903490264379e+02 -1.83052775700749280e+01 6.99373162133639710e+01
1 -3.28126112932783371e+01 -1.54781341938320232e+01 1.01984712403152386e+02
1 -5.71052639830880224e+01 -1.01843550947094723e+01 -3.07852321934995814e+01
1 8.21741235993147114e+01 4.84078157596364917e+01 4.44397468643372164e+01
1 6.10323287134472992e+00 2.93031105674160699e+01 -9.98824746435689264e+01
1 -2.90856077935816915e+00 -1.17591525929375731e+01 3.79291064482901348e+01
8
Step 20000
1 8.58491358321157918e+01 -6.90774924990595309e+01 -8.97858675844538681e+01
1 -3.29061054835965621e+01 6.11299789096266792e+01 -5.93648532483216140e+00
1 1.05164790284560027e+02 4.63728517804254103e+00 -1.42500638053112532e+01
1 1.50944450259376453e+01 3.25183685203275772e+01 -1.04553367130446489e+02
1 1.34844048445576561e+02 2.77336229132875047e+01 1.91364382032982867e+01
1 -6.67313226160329407e+01 -8.18203795726566163e+00 -3.38080833995162209e+01
1 -2.99145846611604327e+00 -1.89415771181365002e+01 8.47757672176712447e+01
1 -1.01981725522683817e+01 -3.16866422172168036e+01 -5.85459729047087194e+01
8
Step 21000
1 -1.06908901799062193e+02 -3.00000049751793227e+01 7.93302668916047793e+01
1 3.99564352538839032e+01 -5.55046465725815992e+01 5.72947464109146551e+01
1 -6.56605949302393697e+01 6.90137819319127654e+00 -4.61258403523684137e+01
1 -1.23552366516598084e+01 -4.82788686446618627e+01 6.86723945907986177e+01
1 -1.77207235466942080e+02 -4.43930193191668323e+01 1.19750438519182083e+01
1 3.52215655559049523e+01 -3.38859721480679568e+01 3.53490152698452178e+01
1 -2.76863849884530566e+00 6.69260980184819054e+00 -4.72445629662254163e+01
1 1.92473309223309137e+01 6.64327028969963322e+01 6.67156208441188170e+01
8
Step 22000
1 9.23259323889874679e+01 1.59861626921410419e+02 -3.95673661271746155e+01
1 -4.56810316628980502e+01 4.86477062151742601e+01 -8.71653572308184863e+01
1 1.86291792179880744e+01 -1.65221974591532579e+01 8.74863064899469549e+01
1 2.57205811662910939e+01 5.53230841370871715e+01 -2.17184384595671567e+01
1 1.62306792996798549e+02 5.36855574328974186e+01 -5.04031465905809881e+01
1 -5.36328122522553130e+00 6.06006458921431062e+01 -3.28093838035998857e+01
1 5.86099270113704751e+00 7.41858652362456539e+00 2.74189850687178627e+00
1 -2.52241570738534371e+01 -7.41169908888668800e+01 -5.51036086257100806e+01
8
Step 23000
1 -4.97596914575730267e+01 -2.77772251511799652e+02 -2.63711734580307535e+01
1 4.46796986874801476e+01 -2.98275437991434735e+01 8.63399608474453544e+01
1 2.60128035603539445e+01 2.13538192245031233e+01 -9.17601342778593221e+01
1 -5.42053716412796334e+01 -4.68541977492769774e+01 -9.69843919938169918e+00
1 -9.01507781397089616e+01 -5.11273914674397929e+01 8.19974398261590096e+01
1 -1.05470291857103771e+01 -5.97679507172224547e+01 1.30506699043519170e+01
1 -4.40536846004964833e+00 -2.04905287919947803e+01 3.53140764879939582e+01
1 2.60190713092390382e+01 4.86100014426533775e+01 2.27568289263251025e+01
8
Step 24000
1 6.06690217721966008e+00 3.15943918498102960e+02 7.79054465389665438e+01
1 -2.85896613188785231e+01 2.03360843071369235e+00 -4.85856134749400113e+01
1 -5.48294722461546797e+01 -1.56473866267432253e+01 4.99202013303218806e+01
1 8.58001814867222521e+01 2.22670996722770340e+01 -3.35786939319560407e+00
1 -1.93712429072002692e+01 3.56860020236003379e+01 -9.46146679020311723e+01
1 5.23219941320659121e+00 2.75719938789231591e+01 3.09027493814744041e+01
1 -5.19757641168492857e+00 2.37151651905334759e+01 -4.89376680730485916e+01
1 -2.40581740169775777e+01 9.18608951348487857e+00 2.24174145486649472e+01
8
Step 25000
1 1.17950267932920969e+01 -2.44145275556406432e+02 -7.60473211242082243e+01
1 4.56535751112305876e-01 1.65845615801959845e+01 -1.32224953126731481e+01
1 5.25464286015726643e+01 -3.67364160321674671e+00 1.84594007164935192e+01
1 -1.06848782667002993e+02 1.07098351340446634e+01 5.01379266990900092e+01
1 1.07296332981509465e+02 -5.93306030547963825e+00 9.11415131580082658e+01
1 7.06950071121005141e+00 2.29059234289960330e+01 -7.75650985331404570e+01
1 1.77766582486648268e+01 -8.16831560765221099e+00 3.47086036172412875e+01
1 2.03907569760059211e+01 -7.22559976117774454e+01 -6.39214471256516603e+01
8
Step 26000
1 4.60293913692007950e-01 1.30944421152133572e+02 3.30813858338704634e+01
1 2.97376331703794961e+01 -1.37091177271514777e+01 7.12658587421823597e+01
1 -2.79150817072916482e+01 2.96630739860526198e+01 -7.76072150488603540e+01
1 1.19712606192609769e+02 -3.88565101920118323e+01 -9.96544038398705965e+01
1 -1.32402205919144080e+02 -2.62276316065258541e+01 -8.76016390089607739e+01
1 -5.74145178232242603e+00 -6.54365622721360438e+01 1.04701942199484989e+02
1 -2.53289677327848963e+01 -2.30996878334878666e+01 -1.11196313141597489e+01
1 -1.08231754141129421e+01 1.13274651891385361e+02 8.74351091159340257e+01
8
Step 27000
1 -3.14657431575868571e+01 -2.85688601168474356e+01 2.49501416735708688e+01
1 -5.36154976212418148e+01 -1.64968901876939036e+01 -1.03096648007416690e+02
1 -6.10596327658334292e+00 -5.26840597798968133e+01 1.03491732685643967e+02
1 -1.15400976605847205e+02 5.35262664616815798e+01 1.19898291763917001e+02
1 8.63729437367601633e+01 4.75279691533442374e+01 8.15324771644277178e+01
1 -1.83726795788344894e+01 7.84370841892835671e+01 -9.64203422013017075e+01
1 2.44609705718830277e+01 5.87742885335343956e+01 -5.94422554463287955e+00
1 -6.94464697805877140e+00 -1.14841718376407783e+02 -8.22873143032474985e+01
8
Step 28000
1 6.03208642427925454e+01 -2.69425262194061439e+01 -7.70056841221939976e+01
1 6.29372978977839068e+01 6.28718258983593117e+01 9.90441718012062182e+01
1 4.00761687828216751e+01 5.98330334059235085e+01 -9.22417115947705639e+01
1 8.56367812953731544e+01 -4.86645504113494312e+01 -9.50986039473822302e+01
1 4.43433571610189325e+00 -5.08077879393514991e+01 -6.91130457940254104e+01
1 5.32482653153417331e+01 -5.33239313577930503e+01 5.25390133657154976e+01
1 -2.01905532690079852e+01 -7.89080467786922526e+01 9.47037169090672393e+00
1 2.22064907693702125e+01 7.65946176453885386e+01 4.94774781980722693e+01
8
Step 29000
1 -6.48530937457174872e+01 2.07092345822394321e+01 1.08809436632074821e+02
1 -5.85729026366110759e+01 -9.18126294801155325e+01 -6.73584354405361836e+01
1 -6.67080785066439717e+01 -4.37775932171269204e+01 6.17185463243587762e+01
1 -3.71089235315849635e+01 2.49062263403920205e+01 4.38672811184858631e+01
1 -8.72768454061833410e+01 3.88980443172667023e+01 4.85570209251451885e+01
1 -7.31827990712307042e+01 3.65646701532566842e+00 3.46189780349407528e+00
1 2.10564985348249820e+01 6.86785860024035202e+01 -6.23081170716797228e+00
1 -2.25942644540954980e+01 -2.30180188990552885e+01 -4.38925890537912533e+00
8
Step 30000
1 3.91229435535673602e+01 3.13703104414248095e+01 -1.15443278392312777e+02
1 5.06140776045006788e+01 8.54862455556089742e+01 2.24773289646014724e+01
1 8.01251981282797914e+01 1.00301840770840638e+01 -2.90238625271374886e+01
1 -1.52656890215925447e+01 6.56362315821051645e+00 -6.90168828359056130e-01
1 1.24886852013009047e+02 -2.28241893713536612e+01 -2.19785842670801941e+01
1 6.26120917832172168e+01 4.36622245978561594e+01 -4.23293251042010041e+01
1 -2.94178921206763171e+01 -3.22830474931746281e+01 8.29076413610440532e+00
1 3.32239906423850906e+00 -1.70604866459273268e+01 -3.30223352897479643e+01
8
Step 31000
1 -1.77826325384763306e+00 -9.68112889125020644e+01 1.00863964660116665e+02
1 -4.56453776482255762e+01 -4.80386001592794969e+01 1.71203697325796789e+01
1 -7.75543132569370499e+01 3.21936377326309469e+01 5.94144987066968255e+00
1 5.94263306915863438e+01 -3.49687017327694107e+01 -1.43007289165077012e+01
1 -1.14480805588227796e+02 1.08786064266255398e+01 -7.44391351411665081e+00
1 -2.89398824563823496e+01 -6.94542595021492133e+01 5.06460214153470147e+01
1 4.03207844861857652e+01 -2.06072678811125840e+01 -2.11866570202018849e+01
1 2.83477375471135460e+01 3.39589689375933261e+01 5.37995241620666249e+01
8
Step 32000
1 -2.65696085555493902e+01 1.57490727769562483e+02 -8.47623131721158956e+01
1 5.75622331003547245e+01 -2.57004590649140230e+00 -3.38988649257351184e+01
1 6.44070969367811443e+01 -7.06472838653634909e+01 7.39465810589777450e-01
1 -8.85882383664831252e+01 5.49374041859267095e+01 -8.82154424486766331e+00
1 7.48816627092515290e+01 -9.60521438294956731e+00 3.72465313710390191e+01
1 -1.11333241135022494e+01 6.72666231615026362e+01 -3.03497957351705239e+01
1 -4.74619036615948175e+01 8.07382361740753254e+01 4.55663952682228128e+01
1 -6.10896911698952394e+01 -2.65253568354867220e+01 -5.92042880215661711e+01
8
Step 33000
1 3.40203253179237848e+01 -1.89634842639769516e+02 7.14702506943021518e+01
1 -9.20787082150886533e+01 5.14232526412546775e+01 1.76424357582562976e+01
1 -3.87888023324287232e+01 8.29150572119447133e+01 6.68608237096773816e+00
1 8.68346212870522152e+01 -5.78692827155272909e+01 7.17674151344557743e+01
1 -1.32340187218653913e+01 2.13844231724231477e+01 -6.31769999150274231e+01
1 4.49107442345187593e+01 -2.74354224977850478e+01 -1.63905069023611247e+01
1 3.83844054603218723e+01 -1.32078416468670696e+02 -7.26548971205508565e+01
1 7.87137222279772573e+01 -1.14682914806961627e+01 4.63205171022011584e+01
8
Step 34000
1 -1.39645586507565529e+01 1.66719360238553264e+02 -5.89864717069747613e+01
1 1.25339263933447270e+02 -5.92876380001805998e+01 2.67936363160254771e+01
1 -4.04359525993572433e+00 -4.11314760897027654e+01 -1.40318034154960891e+01
1 -4.52554839289646367e+01 2.53710191666962395e+01 -1.33969247971543467e+02
1 -4.29984076586396284e+01 -3.56571836257381491e+01 7.44834912231205237e+01
1 -4.82950135427648135e+01 -4.14422155563035375e+01 5.88612917580440609e+01
1 -5.69020442945163740e+00 1.39407314046352752e+02 7.10503111769786670e+01
1 -5.43429731766028254e+01 6.31661643704138314e+01 -1.68329085434507206e+01
8
Step 35000
1 -1.18006723898390113e+01 -1.25514664336996574e+02 5.61426573185175641e+01
1 -1.41689797779843417e+02 1.90888296488422213e+01 -6.66199901718745195e+01
1 4.37777020325175599e+01 -2.45795869238534692e+01 5.37127099783970063e+00
1 -4.40305571694437159e+00 2.73647620862448804e+01 1.41102533540664240e+02
1 5.60389449102181274e+01 4.24005465886946453e+01 -6.52917717806835753e+01
1 1.83192732718022349e+01 9.25712730048091856e+01 -5.94326286311178436e+01
1 -3.03148492249731198e+01 -1.04238347159295230e+02 -3.46352086257623455e+01
1 1.20993999065796509e+00 -9.06484525961386112e+01 -6.09268009851816483e+00
8
Step 36000
1 1.62237444321724986e+01 1.07037089010907422e+02 -6.13758023347728923e+01
1 1.48610983962968163e+02 3.16209570621883316e+01 7.10389308404179616e+01
1 -6.00735524702717854e+01 7.40790528111494666e+01 1.39152898288869835e+01
1 4.04297400148335981e+01 -8.29212124775329187e+01 -9.07907722715526546e+01
1 -3.53790055645142090e+01 -4.10380702806549849e+01 4.09610561816813430e+01
1 1.99018910010060956e+01 -1.06928480877121956e+02 2.23208832522018241e+01
1 5.06146066297033030e+01 5.56502114760502380e+01 -1.49527078198568795e+01
1 5.02166088830722757e+01 8.63457096402237028e+01 1.37180988753532027e+01
8
Step 37000
1 6.71510364573664997e+00 -1.17686194352623701e+02 6.74940613972179762e+01
1 -1.50865129251101365e+02 -6.35007695911173684e+01 -3.25962103054934786e+01
1 4.13002941281490124e+01 -8.88192578776342572e+01 -3.24465089538512785e+01
1 -5.75390227575106863e+01 1.26636805864677896e+02 7.50441460888033696e+00
1 4.11884370076446249e+00 3.35551643699879207e+01 -6.46218371199847130e+00
1 -4.43856378679894803e+01 8.76624931830009615e+01 2.83401170045028117e+01
1 -4.51539826448301866e+01 -1.53419663714003800e+01 5.60282097201029075e+01
1 -8.11802144067668650e+01 -5.56138844338290212e+01 -1.28917006043337086e+01
8
Step 38000
1 -4.15594388606846294e+01 1.28755695907666848e+02 -6.30011320457120476e+01
1 1.38601143000708930e+02 5.93138438043348657e+01 -3.99695145935078244e+01
1 1.62305518397606399e+01 6.30074337217686349e+01 3.16164254194846031e+01
1 5.55589923031474910e+01 -1.38801837824554241e+02 7.99629175438951449e+01
1 1.66308943326613168e+01 -2.17129447838042040e+01 -3.22379279545912354e+01
1 4.18122019982540749e+01 -4.27898868670965271e+01 -6.56133921815711005e+01
1 1.37661679141396860e+01 -6.71873989194196675e+00 -7.06261563893750974e+01
1 7.98190418213925597e+01 1.10066742767671375e+01 1.17128650611698344e+01
8
Step 39000
1 6.39722671578302737e+01 -1.15700539919649927e+02 4.71246956270128194e+01
1 -1.08827365278826036e+02 -2.07015242795830225e+01 1.20848275947264312e+02
1 -9.42001605405389171e+01 -8.37822150949349798e+00 -6.32630204521995232e+00
1 -3.77034121626407952e+01 1.08895518951507881e+02 -1.42489329989699229e+02
1 -1.42622010076393959e+01 9.89539654570618765e+00 6.35008693496498537e+01
1 -1.25212570726981358e+01 -1.27042060670799835e+01 7.07117994401687895e+01
1 2.60073293410626185e+01 6.24505050472134293e+00 5.35126553004189844e+01
1 -5.07070834457822528e+01 2.71846564604790686e+01 -1.15165410046000556e+01
8
Step 40000
1 -5.67951311360910935e+01 7.65637376392977842e+01 -3.08066030572152734e+01
1 6.80273962263112537e+01 -2.95896078650261707e+01 -1.73496007821400923e+02
1 1.67263017169028728e+02 -4.88446085294275250e+01 -3.12565560332348511e+01
1 1.65998374564682116e+01 -4.29357288275174156e+01 1.58314146565007263e+02
1 -1.10910352250110158e+01 -2.57243565788129391e+00 -7.63196325561380746e+01
1 -2.97526237488218577e+01 5.76295986361003756e+01 -3.93466352746701133e+01
1 -4.90927153712114119e+01 1.42319589235613169e+01 -1.35307270012303587e+01
1 1.12122769338373871e+01 -4.01954734807853384e+01 8.95779224129861085e+00
8
Step 41000
1 2.09208976898439900e+01 -3.52344271896248316e+01 3.15302487915852758e+01
1 -2.41690919190010760e+01 5.16336684447410335e+01 1.65519404791370732e+02
1 -2.04120730399380307e+02 7.83663689103142502e+01 6.10020869227194353e+01
1 -5.80174161535311406e+00 -3.37447563427192776e+01 -1.27114878603293931e+02
1 4.63998130600133010e+01 6.97519897476017614e-01 6.28511062687258004e+01
1 6.44411229028992096e+01 -7.72771674759560341e+01 -1.41288770178536431e+01
1 3.83729708116980746e+01 -4.10014158769400510e+01 -2.46576265534083454e+01
1 1.51931387122733828e+01 1.94263863164719837e+01 -8.31163022365276838e-01
8
Step 42000
1 2.11494859772385055e+01 2.55635405830577511e+01 -5.61870356711206895e+01
1 -1.56143393013511709e+01 -2.19968189783719161e+01 -9.42160744994174024e+01
1 1.87245702864131147e+02 -7.12395131626500131e+01 -6.65760586162957679e+01
1 7.83099403248918247e+00 8.58966175192608574e+01 7.93079782380847718e+01
1 -7.06970753011998880e+01 -3.51118237475910444e+00 -2.17998743561479493e+01
1 -7.68025080285043771e+01 7.75775225620945719e+01 5.85065127378092384e+01
1 3.42701778575618538e-02 5.46193507066173467e+01 3.37437432961391792e+01
1 -1.61582683934307987e+01 2.25185063680239637e+01 -1.13032951694385293e+01
8
Step 43000
1 -4.49801179109149487e+01 -5.77792028268837043e+01 8.46225204929206001e+01
1 4.25290813156024470e+01 -3.92381781601713158e+01 -5.38728886740679336e+00
1 -1.30016135889395315e+02 4.82775621795247289e+01 4.25931541242423677e+01
1 -1.67019274864463725e+01 -8.94375721030581730e+01 -5.13927523262273880e+01
1 7.20233100308565923e+01 6.05714394444144588e+00 -3.05262019468675589e+01
1 6.67929782607333209e+01 -7.21669922743722481e+01 -6.61854262209776039e+01
1 -4.18030831972188111e+01 -4.25327674086843572e+01 -8.91703484728699536e+00
1 9.84523352022200537e-01 -6.08549652919133806e+01 2.33555358405553122e+01
8
Step 44000
1 4.29968343526875074e+01 1.05188719313953371e+02 -9.58204160917669441e+01
1 -5.10725895290004388e+01 9.00387029639793752e+01 8.18031273825269949e+01
1 5.93610389008901578e+01 -3.20505363366545737e+01 -5.38456418003577686e-01
1 2.51583270430956425e+01 4.67991212206664144e+01 5.15829792953252522e+01
1 -5.42416046515029677e+01 -4.51052031100730488e+00 7.30002533897079786e+01
1 -4.49777993538310668e+01 6.84302202076789285e+01 3.20540002953223180e+01
1 6.47537649600340472e+01 8.85042421335533191e+00 -3.11600572438210541e+01
1 1.40910373721091222e+01 7.51876143050230326e+01 -3.07880354914735825e+01
8
Step 45000
1 -2.04597352909973900e+01 -1.37312749439702003e+02 8.26725149978749414e+01
1 3.85384180829322460e+01 -9.82049261661367723e+01 -9.71897262337022312e+01
1 -3.10731895802471758e+00 3.24321198194423772e+01 -3.68147179341304280e+01
1 -3.08981707992231200e+01 1.88891173174292391e+01 -6.79830094684547248e+01
1 2.93431587480530993e+01 -1.10712088436643219e+00 -9.07970594272136964e+01
1 2.44513802063620709e+01 -6.48116093137489315e+01 2.57032509451597555e+01
1 -6.23673560351825884e+01 3.17975442990177868e+01 6.23465302019030290e+01
1 -2.30996070709182604e+01 -5.74270691564979572e+01 2.85455063857876894e+01
8
Step 46000
1 -8.95837393696460893e+00 1.44029137247667279e+02 -4.81747102873483968e+01
1 -1.04541801113978963e+01 6.02600796622627257e+01 4.46472717062333757e+01
1 -2.52411831010402636e+01 -4.56646445606893607e+01 5.18042636970085653e+01
1 3.73216648160050042e+01 -8.26129051543059774e+01 8.44486045225983162e+01
1 -9.08588363960288525e+00 1.18142363432958462e+01 8.39537535531619881e+01
1 -1.31329197652757106e+01 5.98886012732446176e+01 -8.28385897523182422e+01
1 4.29907568330444292e+01 -6.47085916554444367e+01 -7.11025368667004898e+01
1 2.95799724191861202e+01 1.60181301545009980e+01 -1.82454598258993563e+01
8
Step 47000
1 3.15733392337283227e+01 -1.29690055185005690e+02 1.85866364134771289e+00
1 -2.56359132998471537e+01 9.27495468425561675e+00 6.00711179852075503e+01
1 1.98872125808574403e+01 6.28848378081750994e+01 -4.36649263326823345e+01
1 -4.88004365775303981e+01 1.23115159982670022e+02 -9.20140112240848538e+01
1 2.64609893403201379e+00 -2.62610693265370969e+01 -6.07187817772735627e+01
1 1.32537625191296478e+01 -5.13329603418289651e+01 1.16819750227645756e+02
1 -1.93781931986504752e+01 7.88642850987740189e+01 5.49244847178018816e+01
1 -4.20069236173379323e+01 3.35366884461166919e+01 4.09564434573407876e+00
8
Step 48000
1 -3.96782949987866189e+01 1.07710941840450246e+02 3.88932641270599433e+01
1 6.01143537926707126e+01 -8.17201076865700458e+01 -1.88727304748519401e+02
1 1.90370347948461074e+01 -6.82466107849267729e+01 2.72257786253362255e+01
1 7.54970103074955006e+01 -1.28508405819314845e+02 9.14074503562430039e+01
1 -7.35875942215049772e+00 4.42347786191981669e+01 3.62563156308710575e+01