8
Step 0
1 -2.085286265275e+01   6.292774221803e+01   4.528091614985e+01 
1  7.223371578599e+01  -7.160191957723e+00  -4.811401682497e+01 
1  3.521294812006e+01  -5.574803034824e+01   6.932730076890e+01 
1  5.834431226767e+01   3.413925235964e+01  -3.833126681060e+01 
1 -5.863304183448e+01  -3.561420874390e+01   7.616396741191e+01 
1  7.540330238677e+01  -3.575458675880e+01  -1.940912708350e+01 
1 -7.609144493216e+01   6.472004551485e+01  -6.113465809600e+01 
1 -1.136950171554e+01   5.790460616002e+01  -3.822221383630e+01 
8
Step 100
1  3.593771172993e+01   5.075076314381e+00   4.286976082454e+01 
1  1.395052274471e+01   2.196287795529e+01  -7.239467450440e+01 
1  2.789453164249e+01  -5.420770311909e+01   2.748975805497e+00 
1  5.110620619591e+01  -1.261372918897e+01   3.615704085421e+00 
1 -3.652596120483e+01  -1.710420436857e+01  -5.182771473727e+00 
1  1.128394770585e+01   1.945865087798e+01  -2.642250574529e+01 
1 -7.152943208456e+01   3.519286305646e+01  -6.348430127489e+01 
1  9.115458261296e+00   3.530789029309e+01  -3.719452468210e+01 
8
Step 200
1  6.137037665924e+01  -4.479372723330e+01   1.205706767566e+01 
1 -6.152635217907e+01   3.464494905853e+01  -2.748607735913e+01 
1  4.642457614721e+00  -2.566620305399e+01  -5.508765369269e+01 
1  1.866573721239e+01  -3.644017184008e+01   8.130364523257e+01 
1  2.041092022517e+01   5.787126644552e+00  -7.263191077513e+01 
1 -4.511838593779e+01   9.023032865450e+01  -3.472618425909e+01 
1 -8.567733141640e+00  -2.877332422407e+01  -3.721920230887e+01 
1  4.284609573648e+01  -1.632916788547e+01   5.470065265254e+00 
8
Step 300
1  6.262628421786e+01  -3.834695632809e+01  -9.003056159737e+00 
1 -7.315339544024e+01   1.557102622966e+01   1.376387165464e+01 
1 -2.453126405323e+01   2.798861619207e+00  -6.008594428776e+01 
1 -1.279714764802e+01  -1.946243395955e+01   9.367399744119e+01 
1  4.721928508346e+01  -6.224197039775e+00  -4.036918492068e+01 
1 -4.237299806197e+01   1.145160095823e+02  -1.229423253008e+01 
1  5.401004726854e+01  -8.264385171177e+01   2.205066872952e+00 
1  4.782242413476e+01  -4.209366569986e+01   3.511444274024e+01 
8
Step 400
1  5.416062752644e+01   7.278348050626e+00  -3.885308058803e+00 
1 -2.249690979601e+01  -1.330258434518e+01   2.174146963138e-01 
1 -4.269967968197e+01   2.422865670754e+01  -3.481695643863e+01 
1 -2.500872020898e+01   4.994975756881e+00   3.160684666445e+01 
1  1.624605120273e+01  -3.153854459184e+01   4.410634462642e+01 
1 -7.555265355300e+00   7.607141614770e+01   2.702740922566e+01 
1  6.844069848807e+01  -8.980025555523e+01   3.429491192780e+01 
1  1.077093580283e+01  -2.341933708309e+01   1.869939660294e+01 
8
Step 500
1  3.149900875326e+01   4.085831543273e+01   1.080027967564e+01 
1  2.501513382225e+01  -2.467717008706e+01  -4.162742514842e+01 
1 -3.863030977227e+01   4.277839530434e+01  -1.415472305813e+01 
1 -1.572667594608e+01  -8.863971809610e-01  -2.065495561682e+01 
1 -3.806668857526e+01  -2.517688784669e+01   7.448394222506e+01 
1  7.026276829482e+00   1.050360408291e+01   3.797758723435e+01 
1  3.094106524800e+01  -5.092824482504e+01   4.238480834952e+01 
1 -4.191279219877e+01   4.229576378510e+00  -2.023484209414e+01 
8
Step 600
1 -8.115737881852e+00   3.156758351315e+01   1.241230040271e+01 
1  2.464818332735e+01  -1.816585910376e+01  -5.039923666670e+01 
1 -1.703901681690e+01   5.026372266866e+01  -3.205252231658e+00 
1  2.281191632638e+00  -2.954058654953e+01  -3.660145419666e+00 
1 -5.603711811923e+01   1.454013831991e+01   1.802225135139e+01 
1 -7.870635381844e+00  -3.483005503268e+01   9.126556123203e+00 
1 -2.069868407648e+01  -7.897589382784e-01   2.482266220723e+01 
1 -6.889055040644e+01  -1.676165983558e-01  -3.428068008399e+01 
8
Step 700
1 -4.388440941250e+01  -5.485769135959e+00   6.078534163127e-01 
1 -7.772749496977e-02  -1.306375444247e+01  -1.089431639817e+01 
1  4.283461530705e+00   3.098325753870e+01   1.160868234776e+01 
1  1.125508662893e+01  -3.610435902942e+01   3.829383445945e+01 
1 -1.851865380650e+01   4.034932201069e+01  -5.377997995935e+01 
1 -1.514033616736e+01  -4.461182345109e+01  -1.669006841015e+01 
1 -4.450381864044e+01   3.020089144940e+01  -2.276610908786e+00 
1 -5.071593843789e+01  -2.848216799631e+01  -1.000249160380e+01 
8
Step 800
1 -4.867171409014e+01  -3.390768624490e+01  -7.481050986720e+00 
1 -1.930529223037e+00  -1.456731395726e+01   3.053819056523e+01 
1  9.648574954799e+00  -1.002922651899e+01   2.901560767627e+01 
1  2.332628696866e+00   3.248623509277e+00   2.359879623186e+01 
1  3.287778970821e+01   1.901453730236e+01  -6.405555745627e+01 
1  9.109679020372e+00  -3.709185460634e+01  -5.742429363345e-01 
1 -3.114527092897e+01   4.211799386095e+01  -1.685355113504e+01 
1 -2.595173393038e+00  -3.599717509031e+01   2.082075441311e+01 
8
Step 900
1 -2.409734173596e+01  -3.463770166608e+01  -4.140733326632e+00 
1  2.264330398733e+01  -5.505334055735e+00   2.971497072796e+01 
1 -2.105343595793e-02  -4.107287502639e+01   3.138989666862e+01 
1 -1.589553593292e+01   5.561464989881e+01  -5.171762912820e+01 
1  4.434598483643e+01  -2.342777650530e+01  -1.977749871018e+01 
1  3.812241531019e+01  -3.307988082341e+01   3.662654980198e+01 
1 -5.346467926809e+00   4.959974866068e+01  -8.608232775021e+00 
1  4.161910645654e+01  -2.627341065510e+00   2.458546175198e+01 
8
Step 1000
1 -1.178777514459e+00  -1.716735275880e+01  -1.995469026198e+00 
1  3.376510797808e+01   2.200441845898e+01   2.440990120288e-01 
1 -7.759838661648e+00  -3.783314425142e+01   1.379252866748e+01 
1 -2.347360070775e+01   6.396065411607e+01  -1.064940055148e+02 
1  1.139474317547e+01  -3.457398160146e+01   1.587137633302e+01 
1  3.002371481596e+01  -3.361686740170e+01   4.022464951699e+01 
1  5.337165331503e+00   5.175108738078e+01   1.183499452901e+01 
1  5.453883435176e+01   3.954561504726e+01   4.411362740563e+00 
8
Step 1100
1 -1.481017733819e+00  -4.267616196725e-01  -1.462753949804e+01 
1  8.011497557272e+00   4.379146417091e+01  -8.510484450985e+00 
1  2.368201966374e+00  -1.476459943821e+01  -4.649859315477e+00 
1 -9.114575965596e+00   1.201369881959e+01  -8.027389520259e+01 
1 -1.907073057252e+01  -2.906146329670e+00   1.379917684239e+01 
1 -1.360059086237e+01  -2.684899273615e+01  -3.922434611377e+00 
1 -9.627563408468e-01   3.290028467015e+01   2.208123167616e+01 
1  3.140894107763e+01   4.831427068751e+01  -1.117024224988e+01 
8
Step 1200
1 -1.132830774772e+01   7.881894532611e+00  -3.376666172461e+01 
1 -2.853237195986e+01   2.933200242265e+01   2.256560031002e+01 
1  2.703487157898e+01  -5.869699335247e+00  -6.111048044732e+00 
1  1.481155046389e+01  -5.460551346498e+01  -5.889464056875e+00 
1 -8.377977595809e+00   3.007257177092e+01   5.271101046486e+00 
1 -4.608783597857e+01  -7.635306122842e+00  -4.801491349711e+01 
1 -4.690589668246e+00  -7.699469306599e+00   8.751510564044e+00 
1 -9.741902465873e+00   2.324520315597e+01  -6.860171848564e+00 
8
Step 1300
1 -3.807675813757e+00   1.192986451724e+01  -3.498784351126e+01 
1 -3.600195523931e+01  -1.266220699279e+01   5.730149080162e+01 
1  4.358831367173e+01  -1.699310187131e+01   8.123915719228e-01 
1  2.203427317213e+01  -7.374809337634e+01   3.943629267375e+01 
1  2.480145682552e+01   2.569189667736e+01   2.153550306860e+01 
1 -3.295093082297e+01   1.494387174499e+01  -4.318981677317e+01 
1  7.654140274693e+00  -4.228793082992e+01  -1.835515780019e+01 
1 -3.911396398258e+01  -9.893782233700e-02   4.909423795316e+00 
8
Step 1400
1  2.121902432681e+01   1.530358640814e+01  -7.431992475234e+00 
1 -1.312003248379e+01  -3.669347803912e+01   5.042263729178e+01 
1  3.255344765789e+01  -1.610265972824e+01  -4.975125538628e+00 
1  3.110317794264e+00  -3.051198218503e+01   3.396173853657e+01 
1  2.855155901932e+01  -2.991325313665e+00   4.193531923912e+01 
1  7.161717749716e+00   2.812811988743e+01  -2.494000663640e+00 
1  2.633279830552e+01  -4.367069164888e+01  -3.524950004629e+01 
1 -3.569727937920e+01  -2.999747965551e+00   7.176332472349e+00 
8
Step 1500
1  3.522307382074e+01   1.506253955240e+01   3.073456321054e+01 
1  7.352523584788e+00  -1.550834257420e+01   1.128566887281e+00 
1 -1.341075145038e+00   1.905260159853e+01  -2.319185052653e+01 
1 -1.949865792340e+01   3.327851589685e+01   2.295099528066e+01 
1 -1.470035351428e+01  -1.483971765497e+01   2.558996399053e+01 
1  3.103788709340e+01   2.774597507972e+01   2.031114972532e+01 
1  3.058388546249e+01  -1.803068096669e+01  -2.698612861802e+01 
1 -2.976748218555e+00  -4.601981015647e+00   1.609958616130e+00 
8
Step 1600
1  1.949627412728e+01   9.153927294105e+00   4.952515475612e+01 
1  5.713481840529e+00   2.169852987662e+01  -4.818890511009e+01 
1 -3.164423000041e+01   5.961490631063e+01  -2.858369066797e+01 
1 -1.413486201518e+01   6.356120829680e+01   4.149005248315e+01 
1 -6.044931850529e+01   1.477919808962e+00  -2.295067223141e+01 
1  2.426730068970e+01   2.123686636167e+01   2.298837123718e+00 
1  1.297429285234e+01   1.615032224285e+00  -2.105270846702e+00 
1  3.086718288481e+01  -2.352171332914e+01   9.133380212334e-01 
8
Step 1700
1 -8.265873987487e+00   3.004765669083e+00   3.854624197536e+01 
1 -2.559044362170e+00   2.361264259554e+01  -6.130930472101e+01 
1 -3.690813521931e+01   5.442904632696e+01  -6.227090944325e+00 
1  1.986756161669e+01   4.463151939053e+01   6.324422897443e+01 
1 -5.189416830786e+01   1.474580951998e+01  -5.189732958269e+01 
1  9.997370022207e+00   2.008356185321e+01  -2.204630323147e+01 
1 -1.291173165049e+01  -3.784138790342e+00   1.701251711166e+01 
1  3.579217073724e+01  -4.022913558734e+01   6.246291413979e+00 
8
Step 1800
1 -1.665367491837e+01   3.112661033375e+00   1.387221428762e+01 
1  2.688599396003e+00  -1.622421804603e+01  -4.150553012771e+01 
1 -2.146296458608e+01  -2.121902743986e+00   2.409464709404e+01 
1  4.586369438172e+01   3.345377396566e+00   4.426235779277e+01 
1  1.231772794810e+01  -5.894333699930e-01  -2.991451649874e+01 
1  6.872668948539e+00   2.745669451858e+01  -1.316796133349e+01 
1 -2.876979584078e+01  -1.784358729515e+01   1.744283819979e+01 
1  7.816568724702e+00  -2.140963127230e+01   4.642369304458e+00 
8
Step 1900
1  1.953138184933e-02   6.078970863765e+00  -3.849157866450e+00 
1  1.404549697593e+01  -4.787018176089e+01  -1.589527006914e+01 
1 -7.010593044698e+00  -5.267706610618e+01   2.969139186871e+01 
1  2.990266941983e+01  -2.529482262480e+01  -8.623328309657e+00 
1  7.224245899910e+01  -2.579749390866e+01   1.200630293552e+01 
1  2.638670634552e+00   3.156127595784e+01   1.918033202598e+01 
1 -2.811526595696e+01  -1.379349601660e+01   6.339922444186e+00 
1 -2.572735764548e+01   2.444004536917e+01  -1.066214039276e+01 
8
Step 2000
1  1.634890849901e+01   3.075637713981e-01  -1.154920658970e+01 
1  1.065138032699e+01  -2.777858948125e+01  -1.531853820045e+00 
1 -6.092148348098e+00  -4.201726163787e+01   7.162151803254e+00 
1 -1.588378658814e+01  -2.996352094757e+01  -4.450163026916e+01 
1  7.062843492932e+01  -2.299507551562e+01   2.205713473433e+01 
1 -1.944874744730e+01   1.425209469825e+01   3.262507398126e+01 
1 -1.649869567836e+01   8.897287012244e+00  -2.291427568835e-02 
1 -3.249090023707e+01   4.363792535785e+01  -2.716019422411e+01 
8
Step 2100
1  1.042540423164e+01  -1.781551320008e+01  -2.010574758367e+01 
1 -5.181271543489e+00   2.417488044338e+01   5.497443503159e+00 
1 -9.225260823487e+00   1.329945399314e+01  -1.337555450277e+01 
1 -4.470393193311e+01  -2.275375562333e+01  -3.966588935322e+01 
1  1.246052712767e+01   1.060436326461e+01  -3.132743517444e+00 
1 -4.371815140711e+01  -2.810829720768e+01   1.403287010917e+01 
1 -1.383100643378e-01   2.628897447901e+01   4.628643576474e+00 
1 -8.471867215375e+00   4.678320883288e+00  -2.685693492219e+01 
8
Step 2200
1 -1.075582960842e+01  -3.347818631768e+01  -3.326472672310e+01 
1 -8.023254778543e+00   4.901317268000e+01   1.362773179690e+01 
1 -7.259337720138e-01   4.298032309630e+01  -8.071212258043e+00 
1 -3.005554917347e+01  -1.667086303048e+01  -2.553887472769e+01 
1 -4.664919199186e+01   3.560627492340e+01  -1.854149615860e+01 
1 -3.457249048571e+01  -7.166242823626e+01  -3.960024573864e+00 
1  1.728489466154e+01   2.429086777343e+01   1.199485254414e+01 
1  1.904742883371e+01  -5.183188997456e+01  -7.067026503150e+00 
8
Step 2300
1 -2.534016204447e+01  -2.679382156296e+01  -4.000236334026e+01 
1  1.097574404853e+01   2.315749414592e+01   2.367892804710e+01 
1  1.905475594315e+01   9.186652342590e+00   9.844470611020e+00 
1  1.289300945969e+00  -1.181514979697e+01  -3.603340466342e+01 
1 -6.158772529228e+01   2.091513361747e+01   3.209507206596e+00 
1  1.182713656215e+01  -8.167593133833e+01   6.925490316303e+00 
1  2.838419895168e+01   1.607862697043e+01   1.145828451195e+01 
1  2.220635862060e+01  -5.473318104491e+01   1.819887556582e+01 
8
Step 2400
1 -2.573863576560e+01   2.747800458128e+00  -2.837064758801e+01 
1  2.493574749938e+01  -1.525102244852e+01   3.262239938125e+01 
1  3.326519606261e+01  -4.746918237273e+01   1.043884480287e+01 
1  4.262904285627e+00  -1.073535093980e+00  -5.285401512139e+01 
1 -3.553566660466e+01  -1.630435174370e+01   3.311790543605e+01 
1  5.094040524611e+01  -4.633358916729e+01   2.684663354566e+01 
1  2.179856985114e+01   1.783635346770e+01   1.960572985411e+00 
1  2.156168395473e+00   8.954506910856e+00   3.486950238072e+01 
8
Step 2500
1 -2.127681930572e+01   3.007114059517e+01  -6.851835438126e-01 
1  5.558549407790e+00  -1.902874233519e+01   3.796650041421e+01 
1  2.854503120411e+01  -5.751318258206e+01  -9.867070252024e+00 
1 -2.435674026180e+01   1.676632478378e+01  -3.108933717877e+01 
1 -6.688793502123e-01  -3.262983410407e+01   2.673204817837e+01 
1  3.809757244060e+01   8.109910788566e+00   1.373539686159e+01 
1 -4.540018952206e+00   2.078057216155e+01  -9.582146408638e+00 
1 -1.563263466946e+01   7.157685352964e+01   3.797062254650e+01 
8
Step 2600
1 -1.657986542267e+01   2.837973341707e+01   2.846926301437e+01 
1 -3.260512577287e+01   6.793135801835e+00   3.391964345741e+01 
1  1.048283728764e+01  -7.028583355711e+00  -2.091800361474e+01 
1 -3.699717434109e+01   3.314961590169e+01   2.897051635223e+01 
1  2.152159670666e+01  -1.264066898710e+01  -1.184539575558e+01 
1 -1.267237824374e+01   4.150501052541e+01  -3.452193771155e+01 
1 -3.159472619353e+01   2.798742643413e+00  -1.720331148898e+01 
1 -1.275695624534e+01   6.370299888993e+01   2.663551347191e+01 
8
Step 2700
1 -1.915769371720e+00  -1.574662346180e-01   4.591772950042e+01 
1 -4.346758139313e+01   1.611062854445e+01   1.189064661367e+01 
1 -4.111699748577e+00   4.618455799882e+01  -4.899915477838e-01 
1  3.172362144125e+00   3.727586589015e+01   6.863268701474e+01 
1  3.250895169194e+01   1.458757739276e+01  -3.223230019303e+01 
1 -3.883339321235e+01   4.179269001153e+01  -6.752870219230e+01 
1 -3.102192091455e+01  -3.344115090868e+01  -1.903392677720e+01 
1  1.317994955086e+00   1.522207828525e+00   3.795407082054e-01 
8
Step 2800
1  2.760182555444e+01  -2.338430518940e+01   4.730291742194e+01 
1 -1.065763695091e+01  -9.570782060684e+00  -2.489300438495e+01 
1 -7.274543340324e+00   4.565663342273e+01   2.918255004990e+01 
1  6.474677181984e+01   2.580177268443e+01   4.697429888144e+01 
1  3.743396846516e+01   1.711503514284e+01  -7.847948018786e+00 
1 -7.075342924634e+00   3.612215810842e+01  -4.461362603344e+01 
1  3.077094406989e+00  -5.359020023026e+01  -1.387354575274e+01 
1  4.364107452529e+00  -3.299684640501e+01  -3.233477371958e+01 
8
Step 2900
1  5.442878460662e+01  -1.439249635541e+01   3.247691971701e+01 
1  2.563999567061e+01  -3.260508101322e+01  -5.275972859867e+01 
1 -6.058195080618e+00   4.415953120828e+00   2.545273697762e+01 
1  7.880525405579e+01   4.207408185220e+00   1.778366658413e+00 
1  2.948591600631e+01   1.825633044923e+00   2.428714563047e+01 
1  3.992187733151e+01   5.073284221402e+01   9.868133866679e+00 
1  3.986929898374e+01  -3.444584885206e+01  -1.080130720326e+00 
1 -6.970167724977e+00  -2.668312398449e+00  -4.972917848173e+01 
8
Step 3000
1  5.527860041163e+01   1.706074124186e+01   3.312002924195e+00 
1  2.087193958289e+01  -1.488695616537e+01  -4.796878966394e+01 
1 -9.378993978458e+00  -2.038715002298e+01  -1.649425781378e+01 
1  2.701128781703e+01  -1.892300894055e+01   7.009714988053e-02 
1  2.089505321578e+00  -1.540435702773e+00   1.456922989924e+01 
1  3.633708665660e+01   6.925068555540e+01   3.734118573576e+01 
1  3.966083095933e+01   1.852542988044e+00   1.363496272135e+01 
1 -1.180009986155e+01   3.336305728153e+01  -3.496868256766e+01 
8
Step 3100
1  3.160805477453e+01   3.545027530731e+01  -2.910956918762e+01 
1 -1.231612154640e+01   2.248846858423e+01  -1.752824295758e+01 
1 -1.688276743470e+01  -5.843261563678e+00  -5.045359183719e+01 
1 -3.060835513469e+01  -3.566371260581e+01   4.291404989545e+01 
1 -3.203786612013e+01   1.295415590553e+01  -2.822131510412e+01 
1 -1.963126026318e+01   4.950275507213e+01   2.068343824359e+01 
1 -2.219664091835e+00   1.526994678405e+01   1.822618232909e+01 
1  5.866577725910e+00   3.247288219720e+00  -1.597472908502e-01 
8
Step 3200
1  7.337415288875e+00   2.024933179522e+01  -4.341203557867e+01 
1 -2.203525665699e+01   2.591899304081e+01   3.904181278898e+00 
1 -2.334804548336e+01   1.462194182575e+01  -3.395776673822e+01 
1 -3.163747097325e+01  -3.774538177731e+01   6.241062963803e+01 
1 -4.684188079249e+01   1.961995463926e+01  -4.737223309156e+01 
1 -6.069314884771e+01  -1.661006634736e+01  -5.468944549183e-01 
1 -4.617925445972e+01   1.070379780650e+00   6.788527883974e+00 
1  3.203066614258e+01  -7.132495621208e+01   2.062207716965e+01 
8
Step 3300
1 -5.702692758900e+00  -1.157328969228e+01  -2.716584161530e+01 
1  8.445533505495e+00  -1.191983784066e+01  -4.265061609672e+00 
1 -2.632151851868e+01   8.273901024487e+00   1.744010177774e+01 
1  6.866011561962e+00  -1.973000526808e+01   1.848619957315e+01 
1 -3.074562928836e+01   1.550983933634e+00  -1.571840753893e+01 
1 -3.730508718373e+01  -8.119874511767e+01   7.681837346067e+00 
1 -4.885813129577e+01  -7.332777953701e+00  -9.363629544197e+00 
1  3.661689239552e+01  -9.782569170636e+01   1.050638538047e+01 
8
Step 3400
1 -2.132130515918e+01  -2.782322839793e+01   5.387796868601e+00 
1  3.791667775624e+01  -3.809058424865e+01  -2.273702538053e+01 
1 -2.298803025465e+01  -1.045836293288e+01   4.940650143143e+01 
1  1.541584257857e+01   1.241907340978e+01  -4.619958846161e+01 
1  1.583593853611e+00  -2.335928233243e+01   3.107006155904e+01 
1  2.100835281175e+01  -9.080421436116e+01   2.772266903537e+01 
1 -7.568325871166e+00   9.831378296981e+00  -1.131113211994e+01 
1  9.054317572710e+00  -3.518139396798e+01  -9.295947067422e+00 
8
Step 3500
1 -4.972494778535e+01  -1.751566769383e+01   2.333021764474e+01 
1  2.685241485829e+01  -1.286845893724e+01  -1.854989069980e+01 
1 -6.613774621366e+00  -8.643109361138e+00   3.438952665859e+01 
1 -3.022454057412e+01   3.747833406369e+01  -6.861927656994e+01 
1  2.595424474920e+01  -2.750253543508e+01   4.532334264343e+01 
1  4.624127104492e+01  -4.663418318506e+01   2.315495242488e+01 
1  3.858771260386e+01   3.040094769856e+01   4.710415761276e+00 
1 -2.823776829769e+01   5.158179667962e+01  -7.170786499185e+00 
8
Step 3600
1 -7.149357689950e+01   1.384768238421e+00   1.112035943077e+01 
1 -8.143028115885e+00   3.287010475964e+01   1.148883594452e+01 
1  2.391522431864e+01   1.121116735591e+01  -1.700483715541e-02 
1 -7.414284327896e+01   3.286346213378e+01  -4.976231611348e+01 
1  3.075126539578e+01  -1.061189660763e+01   2.539789960591e+01 
1  1.598792442750e+01   1.064898792023e+00  -4.754756959615e+00 
1  4.960933234437e+01   2.646632151824e+01   2.047868297353e+01 
1 -4.394732816911e+01   7.598101060172e+01   1.703604275194e+01 
8
Step 3700
1 -5.695990822122e+01   7.268755819996e+00  -1.580952837850e+01 
1 -2.211781226592e+01   3.878940555565e+01   3.951111089346e+01 
1  5.282541878034e+01   1.413586779083e+01  -1.218048368946e+01 
1 -5.344469094581e+01  -2.962010615446e+00  -3.795120741569e+01 
1  1.876510387327e+01   4.613548923579e+00   3.165016613775e+00 
1 -2.841645018221e+01   1.447642755932e+01  -2.138091450244e+01 
1  2.044884350834e+01   7.180127787085e+00   1.673238064609e+01 
1 -2.828988763301e+01   3.301836385449e+01   3.269596213680e+01 
8
Step 3800
1 -6.563121486730e+00  -2.118820231960e+00  -2.911653529144e+01 
1 -4.924062801342e+00  -4.642549972883e+00   4.410858272417e+01 
1  5.524481424554e+01  -1.486590927236e+01   2.664326659091e+00 
1  2.139956257833e+01  -4.197256552870e+01  -4.720089630871e+01 
1 -3.062549695622e+00   5.634185071235e+00  -5.735813829779e+00 
1 -3.800130343847e+01   3.968530823726e+00  -1.051116444240e+01 
1 -2.062028785890e+01   3.265885773375e+00  -3.780820720716e+00 
1  2.448293860106e+00  -1.010452225794e+01   1.902870080013e+01 
8
Step 3900
1  4.249887714691e+01  -1.216540761707e+01  -1.776161257238e+01 
1  9.162520835802e+00  -4.253104002636e+01   3.339744566745e+01 
1  2.337456348079e+01  -4.418234757966e+01   1.182167056390e+01 
1  7.679542443235e+01  -4.596867486645e+01  -3.450939550076e+01 
1 -2.614268565289e+01   2.989640019333e+00  -1.430002842761e+01 
1 -8.919554925957e+00   2.601198656183e+00   3.557825599894e+00 
1 -4.031598140441e+01   1.658966447125e+01  -1.961021110576e+01 
1  2.404537594590e+01  -5.829030297096e+00  -7.688133636452e+00 
8
Step 4000
1  5.719205927868e+01  -1.090031563880e+01   2.942595739441e+00 
1 -4.573758575843e+00  -2.699920324341e+01   2.468222188693e+01 
1 -1.902295569256e+01  -3.437695620512e+01  -9.202215760235e+00 
1  6.269915936279e+01  -3.753729171538e+00   2.992680279147e+01 
1 -3.768544932899e+01   8.274634554287e+00  -3.044047200049e+01 
1  2.424929664108e+01   1.985043896958e+01  -6.254246524243e+00 
1 -2.827274321892e+01   1.083894794396e+01  -1.718794798323e+01 
1  2.468112581224e+01   2.117212164327e+01  -1.609234413928e+01 
8
Step 4100
1  4.283849800558e+01  -4.642751758944e-01   1.287078687690e+01 
1 -2.382699781220e+01   2.110879730666e+01   1.394179676878e+01 
1 -3.737523259452e+01   8.867727821922e+00  -4.255259649717e+01 
1  5.660764883622e+00   5.159452912464e+01   1.015942214584e+02 
1 -2.616211972798e+01   1.318233737289e+01  -3.519264347574e+01 
1  3.363127991208e+01   3.416356818397e+01  -2.808901927139e+01 
1 -6.333898020013e-01  -3.449486965120e+01  -5.493080437820e+00 
1  9.616249118554e+00   2.120780460048e+01  -1.529109462899e+00 
8
Step 4200
1  2.753327061388e+01   9.526291235246e+00   1.128606727887e+01 
1 -1.358889653821e+01   3.999185716861e+01  -1.619648941097e+01 
1 -2.342145320510e+01   3.868301895864e+01  -4.665821560458e+01 
1 -3.003623516912e+01   6.863382388440e+01   1.062416719624e+02 
1  4.732969403423e+00   3.124543115607e+00  -1.042941166456e+01 
1  2.193514954258e+01   2.773924078264e+01  -2.654534796240e+01 
1  1.793952366832e+01  -7.991280642875e+01  -2.412139823513e-01 
1 -6.928474015972e+00  -9.458545205105e+00   8.427329492609e+00 
8
Step 4300
1  2.060447357644e+01   1.449379377713e+01   1.393491404430e+01 
1  1.756725412444e+01   7.532942207550e+00  -6.041382424675e+01 
1 -4.080062270696e+00   2.574884367590e+01  -6.210579632736e+00 
1 -1.925300247690e+01   2.843027711128e+01   3.830245484313e+01 
1  3.416787859100e+01  -1.520488180820e+01   2.608191984148e+01 
1  5.736888322221e+00   1.184181939785e+01   5.382719487724e+00 
1  1.656763317189e+01  -6.472070192741e+01  -9.564716710081e-01 
1 -1.331326093187e+01  -3.097898212294e+01  -7.088435122268e+00 
8
Step 4400
1  5.723238140841e+00   1.598633890543e+01   2.799712007180e+01 
1  2.432141042308e+01  -3.273625755387e+01  -8.076972732935e+01 
1 -7.588948093380e+00  -6.974688143697e+00   4.616997849171e+01 
1  6.870979299576e+00  -3.375227124718e+01  -2.666806951184e+01 
1  4.103146072321e+01  -1.687530976750e+01   3.549520281947e+01 
1 -7.997621241602e+00   8.030675430427e+00   3.244788689246e+01 
1  4.248466126570e+00   1.270731087699e+01   4.878282350341e+00 
1 -6.747981789625e+00  -2.155896352730e+01  -3.191922580695e+01 
8
Step 4500
1 -2.442199058471e+01   1.395600922458e+01   3.948995217753e+01 
1 -9.841845967321e+00  -3.003786590170e+01  -4.853327047779e+01 
1 -2.781956797719e+01  -1.556304566153e+01   6.176369549874e+01 
1  1.128701664806e+01  -6.098461715435e+01  -2.766956907737e+01 
1  2.395282135219e+01   6.975958794866e+00   9.028050419591e+00 
1 -2.024019816875e+01   1.469693029644e+01   2.312331650220e+01 
1 -2.299996982911e+00   7.818172484093e+01   1.735533654415e+01 
1  6.260328076270e+00  -6.194178348907e+00  -3.242517749926e+01 
8
Step 4600
1 -4.740932464699e+01   4.691777229037e+00   2.995786387244e+01 
1 -4.204173121323e+01   9.494366483163e+00   1.462738818522e+01 
1 -3.265441618529e+01   9.393230799749e+00   2.701726397705e+01 
1 -3.843140998726e+00  -3.295456209632e+01   5.445844275536e+00 
1  4.266054607432e-01   3.287894662429e+01  -1.771535478472e+01 
1 -2.569513781527e+01   8.711719384717e+00  -7.295118676999e+00 
1  3.131669390742e+00   6.617841165721e+01   1.800475143303e+01 
1  1.560248546878e+01  -1.369430450998e+01  -2.099654025855e+00 
8
Step 4700
1 -3.797761106983e+01  -1.113815740338e+01  -1.050945885761e+00 
1 -2.281704256311e+01   3.626385496970e+01   5.462568313472e+01 
1 -5.058727951398e+00   3.495599556325e+01  -2.416145352631e+01 
1 -1.272440169902e+01   1.549816098902e+01   1.547657359945e+00 
1 -1.305504454938e+01   3.206751070767e+01  -1.085690810325e+01 
1 -1.459179042632e+01  -1.959759845597e+01  -1.706858149645e+01 
1  1.127374585605e+01  -9.143932162397e-01  -4.293425646268e+00 
1  1.532854289393e+01  -3.120721696995e+01   2.913863729223e+01 
8
Step 4800
1 -6.101645661554e+00  -2.275209880384e+01  -3.496724144272e+01 
1  3.532609218112e+01   2.216859789938e+01   4.395352966544e+01 
1  3.468037623938e+01   2.810116913024e+01  -4.555367145432e+01 
1 -7.760254234312e+00   3.315717704118e+01  -4.985732597169e+01 
1 -1.534060999446e+01   5.514281327292e+00   1.717952547648e+01 
1  9.404720850253e+00  -4.782404912077e+01   6.989046081283e+00 
1  9.408879466791e+00  -3.838454867649e+01  -2.978786097960e+01 
1  7.253776938434e+00  -2.342435522729e+01   3.146074819686e+01 
8
Step 4900
1  1.220764258587e+01  -1.838748811981e+01  -5.374452626444e+01 
1  6.835630440515e+01  -9.001706969177e+00   9.664326136033e+00 
1  5.246662487847e+01  -7.586582373733e+00  -2.423414125112e+01 
1 -6.201998350729e+00   8.333058579657e+00  -8.547787003423e+01 
1 -1.534083879056e+01  -2.034147761671e+01   2.599363640036e+01 
1  2.506457695250e+01  -4.744341391351e+01   3.333790346073e+01 
1 -3.079495367973e+00  -4.797658498625e+00  -2.566093344591e+01 
1 -3.331871770554e+00   1.345474283900e+01   1.011889051823e+01 
8
Step 5000
1  2.366487730909e+00  -4.407588157302e-01  -5.331030280590e+01 
1  3.958385855627e+01  -2.002657799996e+01  -5.235426670220e+00 
1  3.748788804842e+01  -4.164424914836e+01   1.196559759960e+01 
1 -1.777046472038e+01  -2.189727836366e+01  -5.840863339871e+01 
1 -1.736940500991e+01  -2.896957570052e+01   2.470516049586e+00 
1  1.516426610032e+01  -1.968957145593e+01   2.801694592788e+01 
1 -1.392067621697e+01   4.696665233831e+01   1.164740743908e+01 
1 -1.429915972118e+01   4.374130128021e+01  -5.765215663894e+00 
8
Step 5100
1 -1.016854965763e+01   1.334481979047e+01  -3.784315470613e+01 
1 -1.729408285646e+01  -7.605427452554e+00   6.263840721933e+00 
1  8.001157521790e+00  -5.023889078504e+01   2.781418201471e+01 
1 -2.591723112713e+01  -1.755841030056e+01  -5.564614048616e-01 
1 -1.641443165268e+01  -2.872623080758e+01  -2.370784659522e+01 
1 -1.198700204019e+01   6.457849825328e+00  -4.353261953671e+00 
1 -1.225211159541e+01   3.789111183952e+01   4.501656641876e+01 
1 -2.565595249903e+01   4.031150426267e+01  -1.301249951823e+00 
8
Step 5200
1  2.527360405658e+00   8.059759852823e+00  -1.046389221098e+01 
1 -4.387539903532e+01   2.645035973640e+00   1.479532724057e+01 
1 -1.351606182177e+01  -3.246097859786e+01   1.570902083564e+01 
1 -1.074779571547e+01   1.709253168465e+01   2.601250161219e+01 
1 -6.314703050364e+00  -3.034425482956e+01  -2.210868600598e+01 
1 -2.864782985418e+01   1.011625933223e+01  -3.116445543545e+01 
1 -1.295950340351e+00  -3.588763829121e+01   3.638184265563e+01 
1 -3.198870611218e+01   1.879229959071e+01   9.633884957066e+00 
8
Step 5300
1  2.852517412651e+01  -9.677032432873e+00   2.449121266681e+01 
1 -2.860595913244e+01  -2.115687290815e+00   3.664495022831e-01 
1 -2.086448258282e+01  -1.567195696828e+00  -3.581439938237e+00 
1  1.993670081368e+01   3.908388665120e+01   1.489158155326e+01 
1  1.157609109132e+01  -2.478620117036e+01  -6.695825498656e-01 
1 -1.622679308695e+01   1.633219256701e+00  -3.288394008836e+01 
1  4.980256727334e+00  -9.435216105563e+01  -7.475076384177e+00 
1 -2.157070359018e+01   1.042521313223e+01   8.047261657527e+00 
8
Step 5400
1  3.025464875286e+01  -1.666586621756e+01   5.425362221214e+01 
1 -1.051845709206e+01  -6.218383052049e+00  -1.997056156683e+01 
1 -2.022146932996e+01   2.783412077424e+01  -1.049085091394e+01 
1  3.714870273208e+01   1.787909354569e+01   1.546248519125e+01 
1  2.804194085149e+01   2.996052122250e+00   1.048800076307e+01 
1  1.532277114603e+01   5.299088491100e+00  -1.875028632424e+01 
1 -2.118909884349e+00  -6.825684580067e+01  -4.110853652602e+01 
1  1.033806608435e+01   1.521883831768e+01  -4.223880908190e+00 
8
Step 5500
1 -1.309759149413e+00   4.982666613321e-01   6.190156708143e+01 
1 -1.693333158620e+01   4.681332569065e+00  -1.866962006894e+01 
1 -1.666458048140e+01   4.311101650396e+01  -8.481474554983e+00 
1  2.725187718998e+01  -2.831399079439e+01   5.110518175814e+01 
1  3.167950985215e+01   4.349375518570e+01   2.457773109493e+00 
1  3.752680000866e+01   2.698172603460e+01  -4.888502496535e+00 
1 -1.492830524791e+01   1.903650370153e+01  -3.370099661154e+01 
1  4.689653638836e+01   5.118790581532e+00  -1.145764821134e+01 
8
Step 5600
1 -2.844587524826e+01   2.777028867040e+01   4.242699071917e+01 
1 -2.634426864150e+01   1.735456640712e+01   1.970573772922e+00 
1 -1.064331364597e+01   3.530121937102e+01  -1.269973299520e+01 