8
Step 0
1 -3.472934504792e+01   2.985585161505e+01   4.552711624413e+01 
1 -3.872914153085e+01   5.183552870333e+01   2.841252880511e+01 
1  6.597310272429e+01   3.473535297890e+01   3.212630301548e+01 
1 -6.209027598665e+01   1.844554586020e+01  -3.110501871492e+01 
1 -4.675834713363e+01   3.854789838996e+01   6.659078998682e+01 
1 -1.328434623653e+01  -5.953552595268e+01  -6.135440417252e+01 
1  6.150941286889e+01  -3.705897999201e+01   2.680974576907e+01 
1  1.897523860070e+01  -3.176705575740e+00  -2.894581516525e+01 
8
Step 1000
1 -3.575975392395e+01   5.546508863463e+01  -3.689190959217e+01 
1 -3.725911463361e+01   3.113978235655e+01   7.615035272068e+01 
1  4.910106085657e+01   3.612497473387e+01   3.785767408343e+01 
1 -5.339056906585e+01  -2.669565976514e+01  -3.081149485303e+01 
1 -2.887322253275e+01  -9.018439379276e+00   1.594260267197e+01 
1 -1.481687034399e+01  -5.573005447909e+01  -2.993301348690e+01 
1  3.872616058249e+01   1.626865005271e+01  -7.716627646111e-01 
1 -2.240517034862e+01   5.218340677980e+01   3.047385931477e+01 
8
Step 2000
1 -5.794984188415e+01   1.670600207363e+01  -1.591079207814e+01 
1 -2.185881165225e+01   7.055398409815e+00   3.462615424623e+01 
1  2.379356195602e+01  -8.241165352785e+00  -2.488158982559e+01 
1 -7.521301588421e+01   2.797907083036e+01   1.169588218239e+01 
1 -1.215472831503e+01  -3.022254974515e+01  -8.441429963907e-01 
1 -2.106327348805e+00  -3.084619256783e+01   2.109388865380e+01 
1  3.339989760016e+01  -1.581633262352e+01   3.247892398821e-01 
1  3.809946010068e+00  -2.817853659054e+01   2.304761599582e+01 
8
Step 3000
1  1.010429047786e+01   3.309230374842e+01   6.176273959264e+00 
1 -3.251352517895e+01  -6.845164024028e+00   2.040929169544e+01 
1  8.362574477465e+00  -2.067999222446e+01  -4.006286628937e+00 
1 -3.486825544566e+01   1.735261010272e+01   8.255931969768e+01 
1  1.634723594309e+01  -5.874556051513e+01  -8.394186758838e+00 
1  9.983857382455e+00   1.302147938024e+01  -3.573172694662e+01 
1 -4.002875294429e-01   8.286114586197e+00   1.721625769104e-01 
1  1.754952991852e+01   1.866871588876e+01   1.855013033364e+00 
8
Step 4000
1 -4.599513812885e+01   4.187981936711e+01   1.838250809756e+00 
1 -4.031314206286e+01  -9.277406805548e+00   3.888178919166e+00 
1  1.185519877643e+01  -2.130634614120e+00   4.029292296386e+01 
1  2.252130511907e+01  -1.893315930795e+01   2.063726863493e+01 
1  1.573711470925e+01  -2.638523401247e+01   4.754963855269e+01 
1  3.697934947952e+01   1.535945383184e+01  -3.422019020622e+01 
1 -1.298301996919e+00  -9.103730913330e+00   8.441297128514e+00 
1 -8.232961041722e+00  -1.587472882195e+01  -3.683355125201e+01 
8
Step 5000
1 -3.338505872339e+01  -3.150934154327e+01  -1.717644432758e+01 
1 -1.012383881766e+01  -2.634295053159e+01   2.135815628378e+01 
1  2.067178683436e+01  -1.814246254573e+01   3.902064343646e+01 
1  2.154314182437e+01  -5.280251089266e+01  -4.477773292094e+01 
1 -2.775831923790e+01   4.531846202810e+00   2.407300242019e+01 
1 -1.488503092031e+01  -2.359871953864e+01  -2.482349212386e+01 
1  4.778308863462e+00  -7.272460073059e+00   8.048238956574e+00 
1  3.805827883236e+01   9.935424605555e+00  -1.868223534361e+01 
8
Step 6000
1 -4.366619432147e+01   2.528491243203e+01  -5.356265203409e+01 
1 -2.947717467908e+01   3.305245173801e+01   1.042096211895e+01 
1  1.815528111538e+01  -3.702104064348e+01   4.879703147394e+00 
1  2.136663106146e+01  -7.585566034688e+01   2.559893959100e+01 
1  1.470323068336e+01  -2.050408054350e+01   1.920208804358e+01 
1  1.726428769707e+00  -2.919914469249e+01   4.890989628535e+00 
1 -1.154633169593e+01  -9.544490873367e+00  -9.841162521640e+00 
1 -7.747599184921e+00   4.698971202973e+00  -1.614822890077e+01 
8
Step 7000
1 -1.228686792750e+01  -3.245602917774e+01   2.886125273263e+01 
1  2.125920586058e+01  -2.467007526252e+01  -7.107123835377e+00 
1  1.911270184321e+01  -7.125795602895e+00  -3.328966730079e+01 
1  1.257019846763e+01  -1.276139022058e+01   3.707222947113e+01 
1 -2.499887923723e+00  -1.773272157141e+01   5.325298971107e+00 
1 -8.990065449044e+00   4.580443595488e+01  -1.032556846735e+00 
1  4.138195050047e+01  -2.451709028899e+01  -2.034068155481e+01 
1  1.563583551141e+00  -3.208163083254e+01  -4.332083053396e+01 
8
Step 8000
1 -3.393868604680e+01   2.529216992233e+01   9.171507380641e+00 
1  4.488659145718e+01   1.900311970460e+01  -3.421209277543e+01 
1 -3.648362879904e+01  -3.196568630025e+01   6.806803035011e+00 
1  4.025348289650e+01  -2.369316376335e+01   4.997330226003e+01 
1  1.421518250623e+01  -2.059640115414e+01   5.720077129343e+00 
1 -3.834194098922e+01   3.195234998727e+01  -4.135464044045e+01 
1  1.428579212345e+01  -2.346113726135e+01  -1.195283569916e+01 
1 -2.067532299892e+01  -1.297664447162e+01  -3.782268310433e+01 
8
Step 9000
1 -2.446165391619e+01  -1.857366787211e+01  -2.008837941685e+01 
1  4.013823641073e+01  -2.598523307103e+01  -1.887681706397e+01 
1 -1.324845104562e+01  -2.067258403302e+01   1.196473813516e+01 
1 -3.006960629804e+01  -1.334917737887e+01  -3.146099776263e+01 
1 -1.347730422464e+01  -1.513180685724e+01  -2.873038414671e+01 
1  2.995620838784e+01  -4.797040799312e+01   8.917443834391e+00 
1 -1.480685647883e+01  -1.695151314990e+01   7.049053403061e+00 
1 -2.763995540722e+01  -6.724811108356e+00  -9.218913601683e+00 
8
Step 10000
1 -1.652640605619e+01   2.459114437911e+01  -1.170125026268e+01 
1  2.426976234203e+01  -7.182230565785e+00   1.162813850603e+00 
1 -2.924185861181e+01   1.129084819708e+01   2.942721593226e+01 
1 -2.002736359418e+01  -1.690182976501e+01  -9.548561254629e+00 
1 -1.407171218933e+01   2.823034838850e+01  -1.869235312030e+01 
1  5.118199221013e+00  -2.017414298856e+01   2.079358230450e+01 
1 -9.795246536264e+00  -1.782338657342e+01  -1.908436770010e+01 
1 -7.030882248109e+00   2.025079885356e+01  -2.519051563617e+01 
8
Step 11000
1 -2.035401823703e+01   1.371254268855e+01   6.826824902226e+00 
1  2.732130765430e+01   2.075934843659e+01  -1.948462318029e+01 
1 -6.967395540889e+01   2.149033493156e+01   1.951445530430e+01 
1  2.286751417876e+01  -4.335467399643e+01   2.233474037329e+01 
1  1.685319466818e+01   1.832753484191e+01  -3.613876965150e+00 
1  1.188402536719e+01   1.667895609624e+01   1.729099580097e+01 
1 -5.468415963144e+00  -1.493001120816e-01  -8.769633170367e-01 
1 -4.238842996633e+01  -1.227076856072e+01  -2.719554904315e+00 
8
Step 12000
1 -1.036054305654e+01  -6.185861956218e-01   5.532909722757e+01 
1 -8.361591174104e+00  -4.701625095302e-01  -3.634404345888e+01 
1 -5.793412718075e+01   6.809107500233e+00  -1.345459911899e+01 
1  1.087173111349e+01  -3.395256878989e+00   2.917012559512e+01 
1 -3.193587501841e+01  -1.662974495123e+01   1.003044899717e+01 
1  2.593412744190e+01   3.000944424572e+01  -2.260851751061e+01 
1 -1.571854627785e+01   5.284196552940e+01   1.866719229236e+01 
1 -4.554025778169e+01  -1.322897336434e+01  -4.615979818070e+01 
8
Step 13000
1  5.550578284702e+00   2.316587868307e+00   2.503238437862e+01 
1 -3.609909007336e+01   2.713259418914e+01  -4.203694699690e+01 
1 -2.264406989909e+01   6.066760991780e+00  -3.876884367821e+01 
1  3.691780878166e+00  -1.902116890992e+01  -1.032215731721e+01 
1 -1.686051294703e+01  -4.055963217693e+01   3.029757133230e+01 
1  8.066484257229e+00   1.352938260791e+01  -4.473382474070e+00 
1 -1.015583616908e+01   1.219625720138e+01   5.289281791305e+01 
1 -4.970568815594e+01  -5.446759819111e-01   2.122826075209e+00 
8
Step 14000
1  2.445202880717e+01  -2.720923149088e+01   5.031954800001e+01 
1 -2.854227663016e+01   4.207603523746e+01   1.362307661786e+01 
1 -3.707997870851e+01   1.833326970318e+01   1.344603240167e-01 
1 -4.025975354098e+01  -9.257826714227e+00  -3.021221433611e+01 
1 -2.595359585553e+00   2.111845840844e+01   3.008003409131e+01 
1  1.939243349043e+01   3.106989757718e+01   1.378670964609e+01 
1  1.925271418607e+01   4.730732122549e+00   1.886815594078e+00 
1 -7.817240692062e+00   3.469622848221e+01   1.692716348025e+00 
8
Step 15000
1 -9.733418621002e+00   4.987887995864e+01   6.077670145301e+01 
1 -1.868153195598e+00  -2.647900135116e+00   2.948025956849e+01 
1 -4.753960271309e+01   1.692917519490e+01  -9.009228316482e+00 
1 -2.525533275312e+01   7.676298577452e+00   7.837495032284e+00 
1  3.650116288904e+01   1.819590997058e+01   8.680358128766e+00 
1  9.027153598938e+00   6.899250853624e+01   3.278282140749e+01 
1 -8.368148887203e+00  -1.455225395966e+01  -6.871568645027e+00 
1  1.698670539712e+00   1.342164034428e+01   3.093046777030e+01 
8
Step 16000
1  1.983116556848e+01  -1.986255812672e+00   7.265365326410e+01 
1  2.900495270540e+01   8.930605507367e+00   2.664368095621e+01 
1 -8.367477106130e+01   3.555918230466e+01  -4.055742728857e+01 
1 -3.604399466796e+01  -3.638340956980e+01  -1.076897188137e+01 
1  9.320707209196e+00  -4.489709371561e+01  -3.099614171440e+01 
1  5.565965436367e+00   2.876721628153e+01   1.626401973723e+01 
1  2.539242402112e+01  -2.375460036637e+01   3.755045318062e+00 
1 -3.293790245596e+01   1.772250667123e+01  -1.324760208103e+01 
8
Step 17000
1  3.018700005240e+01  -3.078069052905e+01   5.735462236517e+01 
1  3.936677608917e+01   9.805923028733e+00   1.148186701268e+01 
1 -1.981418832482e+00   2.922495452990e+01  -9.212006054328e+00 
1 -2.122776807948e+01   4.216565304837e+01  -3.480526500235e+01 
1 -3.122414377818e+01   2.376458918102e+01  -2.376257585737e+01 
1  1.340117690188e+01  -5.482420274905e+01   1.255774856067e+01 
1  2.544461445609e+01   3.376119581905e+01   2.482688998107e+01 
1  2.317291336459e+01   1.395941954856e+01   1.352695318295e+01 
8
Step 18000
1 -4.912129387135e+00  -6.607587512546e+00   1.689518310287e+01 
1 -8.726531359544e+00   2.393966755365e+01   4.060383541069e+01 
1  3.823056369917e+01   2.625399820951e+00   1.187467041734e+01 
1 -1.409344384801e+01   2.523440083340e+01  -4.188878108329e+01 
1 -1.204637452590e+01  -1.887656704451e+01   3.016549332869e+01 
1  3.333968312326e+01  -5.749078686749e+01  -2.266496377163e+00 
1 -1.623551415172e+00   2.038494436184e+01   2.293777956286e+00 
1  4.532069845764e+01   3.837689341691e+01   2.970405120361e+01 
8
Step 19000
1 -4.745041118404e+00  -5.349221995378e+01  -3.756724205076e+00 
1  2.262228448389e+00   2.482763058577e+01   9.536028882617e+01 
1  2.349149864766e+01  -9.076504677300e+00   2.809836496618e+01 
1  2.261189790360e+01   3.653993168304e+01  -3.736306706832e+01 
1  2.676939599143e+01   2.636214822675e+01   1.928272797885e+01 
1 -1.271063298472e+01   5.298619213633e+01  -5.019649082318e+01 
1 -8.094960165178e+00  -4.097368228750e+01  -6.063829839098e+01 
1  5.474748152619e+01   1.546933961621e+01   6.100798390441e+00 
8
Step 20000
1 -1.614811894969e+00   1.307724621735e+01   5.976166095912e+00 
1  2.572246840329e+00  -2.189050364287e+00   2.196611362539e+01 
1  8.540573625972e+00  -7.830701794183e+01  -1.770119178238e+01 
1  1.906921702108e+01  -5.653140198221e+01  -1.627365901929e+01 
1  2.579932648750e+01  -5.313743311931e+01   2.850860751412e+01 
1 -6.991282621066e+01   5.614441244475e+01  -2.167165599615e+01 
1  2.828891441811e+00  -3.361708671043e+01  -3.242858685679e+01 
1  5.837884433337e+01   2.474475391121e+01  -9.230238755904e+00 
8
Step 21000
1  5.334173761295e+01  -4.030378446551e+01   1.464290025893e+01 
1  1.089570830101e-01  -2.283191604027e+01  -8.789103578065e+00 
1  7.258767363686e+00   1.492850620487e+01  -1.518434875977e+01 
1  4.081639540827e+01  -5.812974173467e+00   1.748463534537e+01 
1  8.857512255217e+00  -6.707988458083e+00  -7.339460227076e+00 
1  9.891538022063e+00   3.119194272570e+01  -1.914690327227e+01 
1  2.686944224932e+01   4.373359161268e+00  -2.953884211536e+00 
1  3.534541570341e+01   1.710366488244e+01  -5.707260476131e+01 
8
Step 22000
1 -6.947827216515e+00  -6.226651554650e+01  -4.275889713446e+01 
1 -3.437153195018e+01   2.665254868307e+01  -5.905409510677e+00 
1  3.583201771734e+01   1.921308246917e+01   3.926806442909e+01 
1  3.011954651347e+01  -3.778245032973e+01   5.335968745523e+01 
1  5.083370140146e+01   1.955239320177e+01   3.845907240697e+01 
1  4.788750886570e+01  -4.892424569770e+00  -1.974304535615e+01 
1  3.578849961711e+00   5.472254257461e+01   1.206546645765e+01 
1  3.991974233986e+01   1.912620532576e+01  -3.608868170612e+01 
8
Step 23000
1  8.424477055772e+00  -1.718367759376e+01  -3.214348683389e+01 
1 -4.572012903425e+01  -1.254570158294e+01   1.663779916429e+01 
1  8.844383093892e+00  -2.322832107081e+01   1.556146193798e+01 
1  4.617997261250e+00  -1.430722600134e+01  -6.371512274697e+00 
1  4.399643115460e+01   1.198859737478e+01   5.815649029456e+00 
1  2.420341800193e+01  -1.785230207485e+01  -1.829949735311e+01 
1 -3.854342736259e+00   1.057012053994e+01  -9.019778314461e+01 
1  4.720667444583e+01  -1.864498342544e+01  -6.014533742865e+01 
8
Step 24000
1  3.153532857035e+01  -1.318687058235e+01  -7.534941176265e+01 
1 -6.435604882926e+00  -3.637634625027e+01  -9.777299128374e+00 
1  1.671661539438e+01  -7.865046559856e+00   2.385716754921e+01 
1 -1.447720580322e+01   2.262128016507e+01   1.200496178560e+01 
1  2.351849302216e+01  -7.958488510259e+00  -4.147059747193e+00 
1 -3.649947393876e+00   7.068331997737e+00   3.762940145202e+00 
1  9.683217270616e-01  -1.483801675342e+01  -3.465768736020e+01 
1  2.394512794439e+01   2.410374434873e+01   2.158160762512e+01 
8
Step 25000
1 -9.551573454800e+00   3.581697396092e+01  -3.682364381509e+01 
1  5.386634372939e+01  -1.452274412464e+01  -4.512057199194e+01 
1  1.735473743105e+01   1.662862908233e+00   1.165604735139e+01 
1 -4.069783766238e+01   2.423694966606e+01   9.610206888304e+00 
1  4.450758128489e+01  -4.136302230325e+01   2.182439791986e+00 
1 -9.995257752671e+00   7.644646953663e+00  -2.369363682166e+01 
1  2.738682775061e+01  -1.035666591634e+01  -1.067504585441e+00 
1  4.165603769307e+01  -1.949548430912e+01   5.570963514484e+01 
8
Step 26000
1 -1.380631321346e+01  -6.596887418345e+00  -2.082714216048e+01 
1  2.063781259183e+01   1.724202963322e+01  -3.894576467974e+01 
1  9.745849891520e+00   3.330316927670e+01   1.190403898883e+01 
1  2.793251299894e+01   4.252699766474e+01   7.395255554270e+01 
1  1.410061524428e+01   1.376904526232e+01   4.172810239673e+00 
1  2.819105677899e+01   2.169148136355e+01  -4.073730703392e+01 
1  3.098505129388e+01   1.115283201721e+01   4.820733814985e+01 
1  2.031659176054e+01  -2.586084461034e+01   1.327482327339e+01 
8
Step 27000
1 -4.357426986534e+01   2.433290231307e+01  -2.134837734329e+01 
1 -3.028481682957e+01   2.324506900484e+01   1.672785339065e+00 
1  5.096842231785e+00  -1.914832864011e+01  -3.673058589571e+00 
1 -4.382163962360e+00  -2.849103181707e+01   1.530860948222e+01 
1 -2.104236072367e+01   1.690304912433e+01   1.001983272967e+01 
1  3.768292542818e+01  -2.097784365264e+01  -5.038227494798e+01 
1 -3.706852426270e+01  -3.258929037785e+01   9.553794495523e+00 
1  1.279823466483e+00  -6.779197651778e+01  -2.377493252119e+01 
8
Step 28000
1  3.689555141575e+01   2.881057536334e+01  -3.356133529728e+01 
1  2.075966938219e+01   1.354193980027e+01   1.592755675091e+01 
1  1.762993230976e+01  -1.444374950672e+01  -3.741609685194e+01 
1 -2.000983621477e+01   1.170954167428e+01  -4.693098368395e+01 
1  2.740477795310e+01   5.205386513487e+01   6.139931101113e+01 
1  8.521864055417e+00  -1.587915648621e+00   2.041798211929e+01 
1 -4.861068165093e+00  -4.584169628137e+01   1.020117990303e+01 
1 -4.757577088540e+00   7.104197784927e+00   5.716977365183e+01 
8
Step 29000
1 -2.279774964510e+01   4.197525376238e+01  -4.803382501313e+01 
1 -1.624987477850e+01  -1.714007480653e+01  -1.122875019530e+01 
1 -2.068925367587e+01  -1.546922225627e+00  -1.357948756997e+01 
1 -2.561751920211e+01   1.095527924327e+01   4.227840369115e+01 
1  3.335278925519e+01   2.229185612729e+00   2.725158554063e+01 
1  1.875885332034e+01  -2.419670127778e+01   3.317574982278e+01 
1  3.780744055634e+01  -8.998029712009e+00   3.355913473084e+01 
1 -2.628042647920e+01   2.044187059509e+01   8.540085995303e+01 
8
Step 30000
1 -3.476249964652e+01   8.173144336015e+00   3.261039526415e+01 
1 -6.017760369052e-03  -2.503073236278e+01  -2.437491412883e+01 
1 -8.609733009520e+00   3.692641819311e+01  -2.788287953469e+01 
1 -9.429445491507e+00   7.377548739451e+00   2.145390296341e+01 
1  4.297075806656e+01  -1.262468300627e+01  -4.755192583554e+01 
1  1.545514950460e+01  -2.954642336770e+01  -1.340556351588e+01 
1 -1.959182162345e+01   2.256171836069e+01   2.851026317835e+01 
1 -2.516802925984e+01   4.363090116060e+01   4.330811178919e+01 
8
Step 31000
1 -4.899025144777e+01  -3.838879651564e+01   1.521139995559e+01 
1 -2.353470708772e+01  -2.416392628321e+01  -2.974340513138e+01 
1 -3.394776513450e+01   2.105808355359e+01  -1.451637460175e-01 
1 -1.698731560073e+01  -3.808136812612e+01   7.879247887772e+01 
1  2.259953434744e+01  -3.017309426842e+01  -1.706402761039e+00 
1  3.618581664499e+00  -9.749604728842e+00  -5.964939075142e+01 
1 -1.595037460357e+01   3.237260698162e+01   1.473537146356e+01 
1 -3.149385547271e+01  -7.554730467034e+00   2.192171597687e+01 
8
Step 32000
1  2.602354269039e+01  -1.127892587187e+01   6.496281157054e+00 
1 -4.005855828146e+01   1.008920974689e+01  -2.045486691844e+01 
1  4.806382310177e+00  -3.659130095976e+01   7.480874864701e+00 
1 -1.334510152905e+01  -8.429699321426e+00  -1.344236748032e+01 
1 -1.728761429113e+00   2.592965608962e+01  -1.486478008744e+01 
1 -1.132465205515e+01   2.145018231327e+01   2.476162602895e+01 
1  3.956056975416e+00   1.725399593689e+01   2.332482512008e+01 
1  8.324007296864e+00  -9.517383850903e+00   5.139871450461e+01 
8
Step 33000
1 -1.521563673799e+01  -2.078616963027e+01  -2.374659167530e+01 
1 -3.826636339948e+01  -1.083623504207e+01   2.959531046061e+01 
1 -4.194482035083e+00  -4.598035750320e+01   3.422628459590e+01 
1 -3.668238400358e+01   1.288977441640e+01  -4.830957225784e+01 
1  4.931824685433e+01  -3.052119925615e+01   3.992283241594e+01 
1 -3.466026711654e+01   1.358362539298e+01   3.823958855936e+01 
1 -2.275364834835e+01   1.400280672824e+01  -8.696410651032e+00 
1  3.037916332644e+01   3.608092647422e+01   2.859256684963e+01 
8
Step 34000
1 -5.186951468910e+01  -4.622541295479e+01  -3.234743585442e+00 
1 -3.012244016583e+01  -5.677768614112e+01   4.744805819938e+01 
1 -1.796618612081e+01  -4.991475103344e+00  -2.541009903567e+01 
1 -7.195029912328e+01   5.602691170361e+00  -4.279079216302e+01 
1  1.711274723010e+01  -6.749737545599e-01  -1.449229397168e+01 
1 -1.586954851841e+01   4.264698863912e+01  -4.208481173871e+01 
1  5.031137997281e+00  -2.244533430940e-01  -3.795016664543e+01 
1 -7.954147305495e+00  -2.253458529209e+01  -7.992914038477e+00 
8
Step 35000
1 -2.922908417716e+01  -5.058517532880e+01  -1.808419745713e+00 
1  6.254426957247e+00  -6.778594201311e+01   6.932694212013e+01 
1  5.775913465931e+00   3.459655225543e+01  -3.359117719140e+01 
1  1.106836490758e+01  -1.933554035500e+01  -2.232770974174e+00 
1 -1.025650829204e+01   2.744450948845e+01  -1.314010568009e+01 
1 -2.898537917006e+01  -3.457899678264e+01   1.398542957886e+01 
1 -3.550406757366e+01   1.568509107665e+01  -2.838323598675e+01 
1 -8.559584507883e-01   1.295626580322e+00  -4.539318036844e+01 
8
Step 36000
1 -6.503226536418e+00  -6.273477226027e+01  -8.551864032790e+01 
1 -1.628444731770e+01  -3.974729600319e+01   6.109533756699e+01 
1 -3.397701031048e+01   4.758957597127e+00  -4.602829351266e+00 
1 -1.033577769194e+01   3.247238039454e+00  -4.009012587708e+01 
1 -2.515241943670e+01   3.714266854339e+01  -1.400216504297e+01 
1 -1.627809100393e+01  -3.080981343131e+01   9.912094475578e+00 
1 -2.765081303332e+00   5.256069144050e+01   4.502643544932e+01 
1  7.467578592544e+00  -2.293916496537e+01   6.452575495304e+00 
8
Step 37000
1 -2.393420737490e+01  -2.861703218215e+01  -2.013605916758e+01 
1 -4.447857396483e+01   1.723621424027e+01  -1.660405349368e+01 
1 -1.434321208666e+01  -4.225088385765e+01   2.999855070981e+01 
1  2.254193643282e+01   3.022332326803e+00  -6.085755282720e+01 
1 -5.600982637409e-02  -2.631918795793e+01  -2.790684618827e+00 
1 -1.707603340817e+01  -9.772518093507e-01   1.949487583641e+00 
1  1.155918999880e+01   1.856741912909e+01   1.512397917150e+01 
1 -4.027825418762e+00   5.632556678241e+01  -3.205705860479e+01 
8
Step 38000
1 -4.703515393221e+01  -7.071277355596e+01  -2.394510359636e+01 
1 -7.245398560113e+01   2.507305266587e+01  -3.958665064918e+00 
1 -2.348413320585e+01   9.876706866232e-01   2.833541645822e+01 
1  4.175168879621e+01   7.898211448311e+00  -4.896583627003e+01 
1 -1.075139124669e+01  -4.545529762517e+01  -2.546684731261e+01 
1 -4.525771429792e+01   1.033244735618e+01   3.353418020732e+00 
1 -3.216380499061e+01  -1.131069157851e+01  -1.931765256332e+01 
1  5.734518955652e+00  -2.194458176458e+01  -1.188953566153e+01 
8
Step 39000
1  3.287279131330e+00  -4.583563102981e+01   2.541329747033e+01 
1 -2.427130130540e+01   3.554074683170e+01  -1.945568979408e+01 
1  8.135597862290e+00   4.808512008866e+01  -1.006665045240e+01 
1  4.314001750235e+00  -3.491077056965e+01  -2.196340930840e+00 
1  3.021879229976e+01  -4.913095226302e+00   1.257552533221e+01 
1  1.936513954651e+01   1.908492520675e+01   2.157233230670e+01 
1 -3.360252963611e+00   8.506032678814e+00  -1.125557563280e+01 
1  1.732234974052e+01  -4.056332714300e+00  -3.090632406721e+01 
8
Step 40000
1  2.600283582904e+00  -2.559534094804e+01  -3.820366654054e+01 
1 -1.619735955189e+01   5.189392919925e+01  -3.297215565925e+01 
1 -1.592833387843e+01   1.716206038218e+01  -1.441570162833e+01 
1  1.088854489204e+01  -4.486641653495e+01   1.379220889030e+01 
1 -7.720417140837e-01   3.432916987504e+01   2.176663855465e+01 
1 -5.924609299530e+00   1.073619220797e+01   8.191956207333e+01 
1 -1.974986884337e+01   9.304780315765e-01   3.637196039886e+01 
1  2.325834141233e+01  -1.565797010904e+00   4.918497302251e+01 
8
Step 41000
1 -1.856117069969e+01  -2.632796692970e+00  -1.833769382464e+01 
1 -3.643429407971e+01   5.803846074100e+01   6.898604787477e+00 
1 -3.887603399777e+01  -4.127558940056e+01  -1.848479457368e+01 
1  2.590594800685e-01  -3.951153727400e+00  -2.897535180893e+01 
1  1.262855514763e+01   1.522642469225e+01   1.479515176972e+01 
1  8.859153292565e+00   3.078957699207e+00   1.468365611800e+01 
1  5.009078848391e+01   4.787663781783e+00  -1.810228610393e+01 
1 -1.460253533869e+00   1.651646104202e+01  -2.083395250390e+01 
8
Step 42000
1 -3.822298748381e+01   2.904235142572e+01   1.905015094204e+01 
1  8.768595643666e+00   1.854005723114e+01  -3.751441555784e+01 
1 -9.853379038795e+00  -3.007277623967e+01   2.663891392847e+01 
1 -2.435892163572e+00  -1.245923811199e+01   1.668087414082e+01 
1 -1.006544978110e+01  -1.632481182164e+01   3.135611481899e+01 
1 -2.920851761604e+01   9.146919264171e+00   7.978755612067e+00 
1  1.887131868516e+00  -1.114432859179e+01   4.547757673550e+01 
1  2.199497160659e+01   2.635184611445e+01  -5.038311738217e+00 
8
Step 43000
1 -5.035726748759e+01   1.315112433584e+01  -3.487052873502e+01 
1  9.964161890730e+00   1.973501657925e+01  -9.722252979747e+01 
1  4.009436901393e+01   6.818036230780e+01   5.190469260285e+01 
1  3.036454612522e+01  -1.397592540256e+01   5.179476146126e+01 
1 -2.216088039665e+01   2.062393524510e+01   2.260227324066e+01 
1  1.827263572751e+01   3.183144436803e+01  -7.161984097067e-01 
1  3.925441791024e+00  -2.567385586305e+00   5.158491118046e+01 
1  6.952014963015e+01  -4.704922497110e+01   7.195797259762e+00 
8
Step 44000
1 -1.101184688357e+01   2.201273088924e+01  -1.314721301208e+01 
1  2.629025038517e+01   2.097444041557e+01  -8.465505527095e+01 
1  2.945977253023e+01   8.820758533068e+01   3.594061782162e+01 
1 -3.666304172444e+01  -1.265812304475e+01   1.355611990213e+01 
1 -4.043805630115e+01   4.752849001369e-01   2.307486465196e+01 
1 -8.908978845199e+00   3.325560279303e+00   2.690699514401e+01 
1  3.265897851093e+01   3.471295214270e+01   4.374152932145e+01 
1 -4.787098825164e-01  -2.460433753823e+01   7.865589123057e+01 
8
Step 45000
1 -3.390834006208e+01   2.036050408665e+01  -2.797755338057e+01 
1 -1.099049011230e+01   1.301601726234e+01  -1.655896311124e+01 
1 -4.100733497037e+00  -1.822249040975e+01   6.907540876193e+00 
1 -2.710420493766e+01  -9.131834923382e+00   8.942756226659e+00 
1  9.014401822827e+00  -9.321790390607e-01   2.907736118638e+01 
1 -2.208281974317e+00  -1.790251902966e+01   2.008179029126e+01 
1  3.083879638844e+01   9.105920672063e+00  -6.552525688874e+01 
1  6.965052796149e+00   7.560488135720e+00   1.902251307950e+01 
8
Step 46000
1 -5.811250829576e+00   6.921958940434e+01   2.195001856496e+01 
1 -1.615271244474e+01  -5.156635698771e+00   7.218736211333e+00 
1  2.911243477633e+01  -1.608805911660e+01  -1.166343838948e+01 
1  5.261520791140e+01   4.611728945007e+01   2.161166414679e+01 
1  1.936343436584e-02  -6.972143078890e+00  -6.425355428873e-02 
1  2.103900464414e+01  -1.797391023040e+00   3.783283753770e+01 
1  1.361732140456e-01  -2.595249188388e+01  -5.812002466236e+00 
1 -2.022324859658e+01   2.485197712525e+01  -9.873522436324e+00 
8
Step 47000
1 -2.004756769326e+01   3.929034528968e+00  -1.618520935304e+01 
1 -2.605312191510e+01  -2.834731270914e-01  -5.048999331933e+01 
1 -1.823714576628e+00   4.593458281772e+01  -1.247218268250e+01 
1  5.127088041243e+01   3.320662748611e+01   2.260289346970e+01 
1  5.916427949994e-01  -1.297759209684e+01   4.045450178877e-01 
1  3.009275394844e+01   1.993903525595e+01   4.627349579283e+01 
1 -1.141686022095e+01  -1.866643514145e+01   5.429450970514e+01 
1  2.672750124586e+01  -2.758833412110e+00   1.042594401758e+01 
8
Step 48000
1  3.119614702564e+01  -4.373118816047e+00  -5.038711762717e+01 
1 -2.421995899593e+01  -1.940051982702e+01  -3.897912649202e+01 
1  1.943511270716e+01   6.693829773383e+01   2.191364694089e+01 
1  2.106615406587e+01  -1.403454809565e+01   2.265690576344e+01 
1 -1.638151596870e+01   2.488787962054e+00  -1.757864193391e+01 
1  5.604215383592e+00   4.017123558026e+00  -2.721824303458e+01 
1  8.322531422488e-01   3.359806708379e+01  -7.598566996473e+00 
1 -6.463866527599e+00  -2.874835045455e+01   1.949024142480e+01 
8
Step 49000
1  4.188923075753e+01  -9.267902422466e+00   2.145158470649e+01 
1 -5.432330097361e+01  -1.928556736526e+01   2.305029318504e+00 
1  7.526839772844e+00  -3.541198023392e-01  -7.038528722564e+00 
1  2.386449744409e+00  -5.326253501575e+01  -7.906113254096e+00 
1  5.052071804772e+00  -1.283553863133e+01   4.542327629468e+00 
1  1.322099654278e+01  -2.270924629004e+01   2.727733839275e+01 
1  1.282866989434e+01   2.670863890526e+01  -1.815361773610e+01 
1 -4.324286566359e+01   3.403757009377e+01  -2.158024172873e+01 
8
Step 50000
1  7.553768560791e+00  -3.516495546549e+01  -1.866198843602e+01 
1  2.063218355485e+01   1.918191818987e+01   1.216489648321e+01 
1  2.664268041246e+01  -1.858741387551e+01  -1.042469408247e+01 
1  2.668390115326e+01  -1.213912066050e+01  -3.171571374164e+01 
1  4.430488853610e+01  -6.123643227604e+00   2.827869542718e+01 
1 -1.205161093861e+00   3.235591688819e+01   1.519182540079e+01 
1  6.592656459745e+00  -7.605134337313e+00  -2.078942679119e+01 
1  1.448804364070e+01   9.821769979067e+00  -3.332369040941e+01 
8
Step 51000
1 -1.326944448217e+01  -6.384007606744e+01  -1.205921390057e+01 
1  2.094460842047e+01   7.209494511038e+00  -6.306156977314e+00 
1  1.608075806275e+01   1.173704607381e+01  -1.014513619741e+01 
1  8.926953436112e+00   2.644327520571e+01  -2.668275545894e+01 
1  1.026343626729e+01   6.129836856109e+00  -3.988442333560e+00 
1 -9.956985082949e+00  -9.565533945979e+00  -2.235142100722e+00 
1 -3.348069062396e+01   3.837831880424e+00   4.999802715820e+01 
1 -8.925171986902e+00   1.862503635751e+01   3.290453969175e+01 
8
Step 52000
1 -3.401431247606e+00  -8.423086852204e+01  -3.764886687460e+01 
1  4.651925967285e+01  -6.227827204577e+01  -4.279446929275e+01 
1  1.109160266074e+01   2.121645422667e+01   9.297201915920e+00 
1 -2.696206963199e+01  -7.234044670818e+00   1.303342466962e+01 
1  3.533128480811e+00   3.141702783248e+01  -1.310137314506e+01 
1  2.342770327927e+01  -1.560622415814e+01  -5.752001778331e+01 
1 -1.147700335164e+01   3.671351561284e+01  -9.377362564287e+00 
1  9.965452681742e-02  -2.335970921304e+01   1.699333613775e+01 
8
Step 53000
1  2.106276790779e+01  -1.365357598899e+01   4.866352633063e+01 
1  2.285378087584e+01  -5.326563872538e+01   2.232553351586e+01 
1 -5.939861388822e+00   1.073769387550e+01   2.318119081649e+01 
1 -2.244827390415e+00  -1.005375321901e+00   1.983285870779e+01 
1 -4.008097425461e+00  -1.636326185184e+00  -2.196568717145e+01 
1 -4.037057053102e+00  -1.907696878762e+01   6.866666916782e-01 
1  6.398811025079e+00   4.027681162612e+01  -5.099004588593e+01 
1 -4.031970275238e+01  -1.053036262581e+01   2.730208151371e+01 
8
Step 54000
1 -9.867083461780e+00  -1.991915092322e+01   1.997320019683e+00 
1 -1.779309752864e+01   1.650026753138e+01  -4.458341215534e+00 
1 -1.131313715725e+01  -5.380123659435e+01  -2.295787539394e+01 
1  7.461596929337e+01   3.551598870536e+01  -7.324348910997e+00 
1 -4.992145367993e-01   2.505270076621e+01  -2.942953788134e+01 
1  3.310757902846e+01  -9.364882451913e+00   5.999036485112e+01 
1  2.225376120273e+01  -2.718798244565e+01  -9.524414759336e+00 
1 -5.592956681871e+00  -7.385289233992e+00   2.954964684533e+01 
8
Step 55000
1  2.171314025750e+01  -2.422812636149e+01  -4.562780501207e+01 
1 -2.347911307802e+01   2.097427007626e+01   6.104352265658e+01 
1 -9.282444314785e+00   1.578443206377e+01  -3.827798581093e+00 
1  2.590965611943e+01   6.008434302701e+01  -7.562829208198e+00 
1 -9.676831311594e+00  -7.047982752071e+00  -2.934038146888e+01 
1 -2.131310090273e+01   3.216666595750e+01  -3.481586012145e+01 
1 -8.106978705759e+00  -4.571560983539e+01   2.213649771469e+01 
1  3.525197643288e+00  -2.118127231853e+01   6.308123781824e+01 
8
Step 56000
1  2.163545815662e+01  -2.055876683958e+01  -5.919288061467e+01 
1 -1.362699969620e+01  -5.441873433009e+01   6.354237571454e+01 