8
Step 0
1 -4.335052367192e+01   6.226770353478e+01  -1.571831079641e+01 
1 -4.197517804778e+01   5.557624918835e+01   6.050689884240e+01 
1  4.062082842113e+01  -6.869837660098e+01  -6.406602060552e+00 
1  3.202042668263e+01  -9.333787405458e+00   7.585091136361e+01 
1  2.169421302650e+01  -5.304981751903e-01  -3.452327492586e+01 
1  2.479565131470e+00   3.727202342153e+01  -7.541307749490e+01 
1  3.539535683763e+01   1.835259957186e+01  -5.811004072382e+01 
1  1.040422054410e+01   7.251222155371e+01   5.312714128624e+01 
8
Step 1000
1 -5.906827541676e+01  -2.931443035381e+01  -2.932986135245e+00 
1 -2.470201690875e+01   2.887110988617e+01   2.506109975280e+01 
1  3.792043395087e+01  -4.284933023671e+01   4.778739196139e+00 
1 -2.662312093946e+01   9.155267562836e+00  -1.702361099393e+01 
1  3.491510898782e+01   8.601680881063e+00  -3.356530935060e+01 
1 -3.614975947350e+00  -7.584032549736e+01  -1.126229045954e+01 
1  1.878326630682e+01   1.151406307655e+01   9.712628607315e-01 
1  1.363145630809e+01  -6.724817173620e+00  -6.549500318828e+00 
8
Step 2000
1  3.329418586300e+00  -1.761239495670e+00  -2.238133356040e+01 
1 -2.459369392625e+01   2.016465712983e+01  -8.115403639257e+00 
1  1.202127619632e+01   1.933492817270e+01   4.230910492640e+01 
1 -6.286104027673e+00  -5.871852572322e+01  -6.642532316556e+00 
1  1.354793087133e+01  -2.103405743545e+01  -3.826874575437e+01 
1 -2.420940839269e+01  -4.304205189337e+01  -2.862461385870e+01 
1 -3.248835975304e+01   3.132875435238e+01   2.423848626988e+01 
1  1.705624122399e+01  -1.063895080733e+01  -1.173981756750e+01 
8
Step 3000
1  3.171182514565e+00   3.131822021430e+01  -2.501043258242e+01 
1 -2.013942933752e+01  -6.584320026990e-02  -1.469737912374e+01 
1 -1.138350841296e+01   5.660824349177e+01  -9.460551167044e+00 
1  3.733359049528e+01  -3.376545354580e+01   4.674406103664e+01 
1 -1.087115484155e+01  -2.754022413119e+00   6.752492158712e+00 
1 -3.275330251129e+01   2.966485922637e+01  -3.069113309990e+01 
1 -1.417012212120e+01  -6.511633965739e+01  -2.079284442678e-01 
1  2.015090237855e+01  -9.237869647983e+01  -3.877131434979e+01 
8
Step 4000
1  5.613495799225e+01  -4.328389072659e+00  -4.914448680432e+01 
1 -1.852233860445e+01   1.186774930044e+01   6.399230252339e+01 
1  2.854663099559e+01  -2.155579701975e+01  -4.736605284383e+01 
1  2.251491042715e+01   3.402208670977e+00   3.927048393697e+01 
1 -4.408629627791e+01  -1.759047858888e+01  -3.247498148577e+01 
1 -4.119048926674e+01   1.198618903891e+01  -3.697607001157e+01 
1 -3.889130211940e-01  -4.851509441102e+01  -1.928483364538e+01 
1  2.667210879141e+01  -2.498206102333e-02  -2.059932762268e+00 
8
Step 5000
1 -2.375273997504e+01   4.001037299114e+01  -1.003580227911e+02 
1 -8.864554857905e+00   2.901133902144e+01   3.485208397588e+01 
1  5.355130921990e+01  -3.917411490720e+01  -9.098333187248e+00 
1 -1.938579506672e+01  -2.276556183819e-01  -1.509212961979e+01 
1 -2.085512489196e+01  -4.345018940693e+01  -4.132259716320e+00 
1 -2.653665473937e+00  -3.976899891552e+01  -6.595866551476e+00 
1 -3.252152836718e+01  -3.422104017102e+01  -1.291777713992e+01 
1 -2.996469539736e+01  -1.229618457547e+01   9.470413045165e+00 
8
Step 6000
1 -2.865346660601e+01  -2.983352083453e+01  -2.053839271008e+01 
1  6.036215847535e+01  -3.423296999018e+01  -5.171175398295e+01 
1  9.796730990060e+00  -4.165290152605e+00   1.321284295754e+01 
1 -3.012136192663e+01   2.429906516956e+01  -4.697570995520e+01 
1 -4.240564974361e+01   5.129457731421e+00   3.915145299951e+01 
1 -1.661059757108e+01  -2.486527015874e+01  -8.966489350958e+00 
1  3.638054249045e+01  -2.910357181345e+01   1.952651263861e+01 
1  2.061092362928e+00  -4.121788339295e+01  -2.769285954842e+01 
8
Step 7000
1  8.166597721913e-01   4.413037658237e+01  -2.854111389716e+01 
1  1.007890349916e+01   1.560457618230e+01  -8.897696775245e+01 
1 -4.993874431794e+01   1.345114951341e+01   4.697345953701e+01 
1  1.514010624484e+01  -1.617319271304e+01   4.847404489319e+01 
1  5.177719544903e+01   6.186799903784e+00   2.925510025344e+01 
1 -1.305243194287e+01  -6.105670750517e+00  -2.544901627801e+01 
1  2.982080065846e-01   5.609788361170e+00   1.198978264907e+01 
1 -1.974557726121e+00  -4.578459964015e+01  -3.159239993458e+01 
8
Step 8000
1  3.535028304311e+01  -2.865783668907e+01  -7.992389447683e+00 
1 -1.688538840109e+01  -5.501282077326e+01  -3.914544635919e+01 
1 -1.023155363488e+01   4.276627521670e+01  -3.885808214553e+01 
1 -3.789391338672e+01  -1.819582327856e+01   1.421743700260e+01 
1  1.054946781111e+01  -1.807336520299e+01  -7.706662764347e+00 
1  4.251890529319e+01   7.445365555985e+00   4.057801618094e+01 
1 -2.526609777302e+01  -2.355246553714e-01  -7.450208471973e+00 
1  2.044223605542e+01  -1.408792859248e+01  -3.805379077856e+00 
8
Step 9000
1  1.006559037222e+01  -2.696690416662e+01  -3.361762913510e+01 
1 -3.309170950219e+01   2.762599843356e+00   1.311798972596e+01 
1  9.138083235731e+00  -1.183812537628e+01  -4.364448552055e+01 
1 -5.103080255303e+00  -1.602407626823e+01  -1.553265793071e+01 
1 -2.498544846170e+01  -4.422556150461e+01   1.807759476902e+01 
1 -1.416608783388e+01  -4.771612543434e+00   3.258240146986e+01 
1  1.696012336034e+01  -3.646317813476e+01  -7.629674432987e-01 
1 -1.198551970153e+00   6.611361884843e+01  -3.397248544428e+00 
8
Step 10000
1 -1.108210189412e+01  -5.822926356504e+01  -2.036769008645e+01 
1  9.714442742949e+00   2.619490737351e+01   1.656593313357e+01 
1 -9.559906745490e+00  -1.204060819090e+01  -3.074185824536e+01 
1 -3.136979463560e+01   2.046688274567e+01  -7.880425186429e+01 
1  1.309473252680e+01  -6.056792241768e+01   6.154827705372e+01 
1  1.778557920876e+01  -2.674214251621e+01   2.809902807452e+01 
1  3.089940860979e+01  -6.737635350898e+00   2.691937747804e+01 
1 -2.197317306504e+01   7.421805770566e-01   8.878160397019e+00 
8
Step 11000
1 -4.475993595681e+01   1.518897737537e+01   4.654616405070e+01 
1  4.094333828132e+01  -3.207240447414e+01  -4.350066356585e+00 
1 -1.657527651089e+01   1.968722345762e+01   1.186334235603e+01 
1 -2.147978773037e+01   9.191787701454e+00  -1.583994501862e+01 
1 -2.770877191021e+01   1.918142227565e+01   3.200759361058e+01 
1  3.100491574984e+01   3.896720898035e+00   1.226104514457e+00 
1  1.315644415602e+00   4.173524034797e+01   2.084997323601e+00 
1  3.576387987296e+01  -3.359873884054e+01  -2.178305086737e+01 
8
Step 12000
1 -1.510715170092e+01  -1.121678185057e+01   5.680434847878e+01 
1  2.309161450871e+01   1.060274689692e+00  -5.326175317073e+01 
1 -9.266636010087e+01   1.883439337347e+01   6.254362738704e+00 
1  1.374789315558e+01  -6.812487357063e+01  -2.043656403137e+01 
1 -4.297077665317e+01   2.125483055356e+01  -1.962197153175e+01 
1  1.612537356219e+01  -1.216153545368e+01   1.904360643553e+01 
1  5.169426719393e+00  -2.887163197747e+00   2.494669066936e+01 
1 -2.511277626181e+01  -6.149499285610e+01   2.683867286026e+01 
8
Step 13000
1  4.526554685737e+01  -4.627643057143e+01   2.660510154632e+01 
1 -1.787390928843e+01  -2.647659707448e+01   6.239710830362e-01 
1 -3.799759903984e+01   2.325144168941e+01  -7.607141242896e+00 
1 -4.794293484288e+01   2.303585694385e+00  -3.265378590383e+01 
1 -4.810102235160e+01  -4.574012083869e+01  -1.735274752394e+01 
1  1.873674950030e+01  -1.134067471429e+01  -4.691891519062e-01 
1  3.710124306632e+01  -1.165263859746e+01   4.582713286612e+00 
1 -2.753245614124e+01  -4.049039505971e-01  -3.424273237499e-01 
8
Step 14000
1  1.312944474089e+01   1.627358930084e+01  -2.767545558179e+01 
1 -4.901937585729e+01  -2.937953899749e+01   3.758621774688e+01 
1  5.547458437122e+00   1.071799203549e+01  -4.751604928429e+00 
1 -6.556692307802e-01   3.591848758900e+01  -1.380119623203e+01 
1 -1.900853094899e+01  -4.621930517930e+01   2.022666597935e+01 
1  2.193223211861e+01   9.871752566836e+00   1.450486950252e+01 
1  2.105873160134e+01  -5.522054973135e+01   1.576617708220e+01 
1 -2.125085921377e+01   5.287682839174e+01   3.733644422023e+01 
8
Step 15000
1 -3.185166533753e+01  -2.639601481970e+01   5.435595539788e+00 
1 -8.811251771525e+00   2.334980789782e+01   5.703574359109e+01 
1 -8.393519383776e+01  -1.963171859704e+01   1.359797818711e+01 
1  2.014626589387e+01  -8.048072422396e+00  -1.451528428087e+01 
1  3.787945526835e+00  -3.016270759855e+01   3.857883803579e+01 
1  8.974102781737e+00  -4.182944373895e+00   3.559304687089e+00 
1  1.210205065854e+01  -5.795393687265e+00  -3.221736268666e+01 
1 -2.636504338574e+01   3.178580681042e+01  -2.017257437821e+01 
8
Step 16000
1 -7.209964208545e+01   2.497178543889e+01   3.521084630681e+01 
1  2.757878550217e+01  -4.420906625085e+01  -3.611630642635e+01 
1 -4.651290826194e+01  -2.733256041722e+00   8.567506627047e+00 
1 -6.927036435262e+00  -2.489166668285e+01  -1.385484056652e+01 
1  4.767174647342e+00  -2.444511137605e+01   3.524367495935e+01 
1 -2.195461237023e+01  -2.975599869301e+01   8.791121269203e+00 
1 -4.604321686329e+01   6.223018132603e+01  -2.189900894168e+01 
1  2.063756146966e+01  -3.119642796630e+01  -1.337203083260e+01 
8
Step 17000
1 -1.754620001178e+01   2.648442458864e+00   3.705971502355e+01 
1 -8.322246820784e+00   1.351277213807e-01  -4.963449609216e+01 
1 -3.604139449501e+01   2.689938415513e+01  -2.897685463864e+01 
1 -2.582021877577e+01  -7.729548440266e+01  -1.410391177360e+01 
1 -1.464566750025e+01  -8.656802486902e+01   2.388267521448e+01 
1  2.511692060972e+01  -2.849963932260e+01   3.074755549388e+01 
1 -3.740763831368e+01   2.805314864065e+01   1.678680518239e+01 
1 -8.144194380846e-01   4.051836294958e+01  -2.716250307140e+01 
8
Step 18000
1  5.736841312226e+00  -1.468937564417e+01   2.037163203707e+01 
1 -1.511866921151e+01   2.012470647347e+01   2.811320189808e+01 
1 -2.691412382568e+01   4.444710873998e+01  -1.174266523087e+00 
1 -1.582719850067e+01   4.197802788028e+01  -1.295626591295e+01 
1 -6.160088560802e+00  -6.543261104822e+00   7.061068578479e+00 
1  2.219092288438e+01   2.801566679177e+00   4.014782386271e+01 
1  2.009683305692e+01  -1.079671529202e+01   1.053792620123e+01 
1 -1.304604914532e+01   5.136146527665e+01   1.766055675901e+00 
8
Step 19000
1  1.387948729120e+01   8.277706020506e+01   4.637216303605e+00 
1 -6.375301492990e+01  -6.635943902712e+00   2.833477562857e+01 
1 -2.908088794370e+01  -2.498669608539e+01   8.922213702485e+00 
1 -2.862568270848e+01  -6.916177578574e+00  -2.376021132311e+01 
1  3.347826333394e+00  -3.726036989014e+01   2.558032435680e+01 
1 -2.841639967187e+01   9.188623634543e-01   3.005747061804e+01 
1 -3.004154085215e+00  -2.737158037255e+01  -1.127707969496e+01 
1 -6.743814838604e+00   1.322876447841e+01   3.507848378410e+01 
8
Step 20000
1  4.560673680291e+01   1.429830269415e+01   1.554452338135e+01 
1  1.680997134678e+01  -5.218836964707e+00   8.269826497539e+00 
1 -2.729430554514e+01   5.916477783643e+00   3.460470707784e+01 
1 -1.895246088543e+01   3.615616712092e+01  -3.856799222371e+01 
1 -2.147351533367e+01   3.367409832426e+01  -1.525719794679e+01 
1 -2.007053678018e+01   1.542049137703e+01  -3.674937730303e+01 
1 -2.890543627172e+01  -4.789608044303e+01  -8.077525314004e+00 
1  3.205602257070e+01  -3.223919887578e+01   1.138541384054e+01 
8
Step 21000
1 -1.013380206562e+01   4.631831253629e+01   1.096197558756e+01 
1  6.056428943402e+01   1.943569573400e+01  -3.609664892349e+01 
1 -4.917449876148e+00  -9.569254668600e+00   4.647222635747e+01 
1 -8.274083904190e+00   4.021942375887e+01   1.110836625130e+01 
1 -2.365721839322e+01  -3.217486337788e+00  -5.274547670703e-01 
1 -2.705860941361e+01  -1.258855161186e+01  -1.001092017039e+01 
1 -3.037580768511e+01  -6.750722236350e+00   4.101920905327e+01 
1  5.267744683918e+01   2.403475487933e+00   6.145049348736e+01 
8
Step 22000
1  1.745017856679e+01   2.873278582695e+01   5.737683099622e+01 
1 -1.270331004330e+01   1.124195192835e+01  -4.952795186787e+00 
1  5.089110694248e+01   6.334896816953e+01   2.212034397678e+01 
1  1.694514199010e+01   4.054932005281e+01   5.206116976478e+01 
1  9.954503430317e+00   2.993326052822e+01  -3.971313623952e+01 
1  1.786130250730e+01  -5.907935386374e+00  -1.762742068267e+01 
1  1.394409480672e+01  -1.712601697713e+01   8.672115713122e+00 
1  1.852613008268e+01   2.742227984669e+00   7.681574654604e+00 
8
Step 23000
1 -8.204289005925e+00   4.583108461091e+01  -1.089071599012e+01 
1 -1.301196238227e+01   2.721489947538e+00   9.136141005686e+01 
1  3.387529804490e+01   1.390506126664e+01   1.603122593332e+00 
1  1.844090004424e+01  -1.702389716979e+01   3.217957368707e+01 
1  3.452125110840e+01   5.540165812396e+01   4.364567437772e+00 
1 -3.350162682655e+00   2.306932575286e+01  -3.586833731257e+01 
1 -1.458281852562e+01  -2.262870146206e+01   2.200058565411e+01 
1 -2.976128191998e+00  -1.896614629854e+01  -3.837966687556e+00 
8
Step 24000
1  3.687770605705e+01   6.729201909030e+01   5.635012800839e+00 
1  6.773148464918e+00   1.127141767765e+01   5.176246649249e+01 
1 -2.520142577395e+01  -3.219611588058e+01  -4.244471243745e+01 
1  1.203087071917e+01  -5.371507289300e+00  -2.390976461028e+01 
1  2.557671582243e+01  -8.513577820406e+00   1.977297709696e+01 
1  5.706419447492e+00   2.793800946218e+01  -1.534848364812e+01 
1 -5.494105136084e+00  -1.911704510964e+01  -1.724211972392e+01 
1  2.187778598954e+01  -4.554829066520e+01   3.219236920459e+00 
8
Step 25000
1  4.102109057548e+01  -1.725759347081e+01  -3.038092467608e+01 
1 -4.258301783853e+00   1.529831658241e+01  -1.798879450200e+01 
1  4.205812499523e+01   2.695863253108e+01   3.989736849345e+01 
1  1.091480582734e+01   5.453372188884e+01   4.124520621696e+01 
1  3.479675378611e+01  -3.698506369342e+00  -9.331467896781e+00 
1  6.220130841769e+01   1.929534601335e+01   6.647837103221e+01 
1  1.470631274927e+01   4.816674784741e+01   2.601574418816e+01 
1  3.363984315482e+01   4.464570652928e+01   1.869844955350e+01 
8
Step 26000
1 -6.126555081727e+01  -1.753773488716e+00   2.795904680300e+01 
1  2.322468255900e+01   2.444882945434e+01  -1.230620877231e+01 
1  3.822185064162e+01  -9.358646216026e-01   3.492635698329e+01 
1 -1.952675760818e+01   1.834075863174e+01   2.375366965891e+01 
1  4.468193011256e+01  -9.018145939551e+00  -1.820602507643e+01 
1  6.230674516973e+01  -4.289334250985e+01  -9.815359333045e+00 
1  4.131885429908e+00   4.294152195030e+01  -9.065709892145e+00 
1  2.240862246651e+01   3.821589524408e+01  -1.939623089510e+01 
8
Step 27000
1  1.636455047987e+01  -5.072369289003e+01   6.702880408021e-01 
1  7.127128440617e+00   2.825320131763e+01  -1.247118211843e+01 
1  5.905121606207e+00  -2.004191952751e+01  -1.838586526993e+01 
1  2.851843314548e+01   2.801601644213e+01   2.607834990837e+01 
1 -1.705486351718e-02   5.205848718903e+01   2.237386508467e+01 
1  2.036916843272e+01  -1.520690288089e+01  -3.486168819615e+01 
1  2.892611588331e+01   2.168450782400e+00  -3.276098373037e+01 
1 -1.396786894026e+01   4.774488610225e+01  -6.238804896851e+00 
8
Step 28000
1  2.333179829843e+01   1.181261337297e+01  -6.409806147896e+01 
1 -3.957904118307e+01  -3.114426055610e+01  -2.952239627257e+01 
1  3.605923643181e+01  -3.393155105717e+00  -2.234287544567e+01 
1  6.769583091321e+00  -1.011922197917e+01   4.679389551868e+01 
1 -2.590584823334e+01   4.172382893733e+01   4.244557098120e+01 
1  1.755397886490e+01   1.107154405305e+01   3.027432591295e+00 
1  3.363131734727e+01  -3.662786246918e+00  -1.359662337845e+01 
1  3.592000078922e+01   2.524586892114e+01   2.309858172885e+01 
8
Step 29000
1  2.780742966760e+01   2.614465929293e+01  -3.298594014206e+01 
1  1.114902593559e+01  -2.628422573511e+01  -2.282386050944e+01 
1  4.071639379003e+01   4.735060447184e+01  -7.471739064826e+01 
1  1.733724832100e+01  -8.078827675725e+00   3.275229489454e+01 
1  3.792776197224e+01   2.889696882602e+01   4.539178842989e+01 
1 -2.385488999568e+01   4.763613833731e+01   1.251391055158e+01 
1  5.225760389958e+00   3.159261444110e+01   2.845715048880e+01 
1  7.602483133345e+01   2.786214529707e+01   2.177721020099e+01 
8
Step 30000
1 -6.957865006339e+01  -1.593727818450e+01  -2.942184796383e+01 
1 -3.841559186179e+00   2.001306204131e+01  -3.898776427216e+01 
1  1.246842350808e+01  -6.858856381067e+00   8.264347963490e+00 
1 -8.512996446844e+00  -2.755483410550e+01   8.235980498044e+01 
1  1.505044327046e+01   5.395390124761e+00  -1.893522118713e+01 
1  9.983632302805e+00   5.026030952529e+01  -2.212168358199e+01 
1  9.898423710053e+00   3.436206323748e+01  -8.488496012799e+00 
1 -4.954857895753e+00  -5.961173136638e+01  -1.811138972686e+01 
8
Step 31000
1 -8.803636308226e+00  -8.145624605273e+00   6.388515553833e+00 
1  1.729366575508e+01   5.442522471283e+01  -9.822163085820e+00 
1  4.313592834376e+01  -3.960330941125e+01  -2.243040872295e+01 
1 -5.134300952863e+00   1.122426085096e+01  -2.213392537560e+01 
1 -5.685598633823e+00   3.257791996871e+01  -3.744104352572e+01 
1 -8.732116755992e+00   1.668556298908e+01   2.755530702425e+01 
1 -6.856553918757e+00   4.186306491720e-02  -3.866683776292e+01 
1 -3.099795984046e+01  -3.912267354701e+01  -3.546586732470e+01 
8
Step 32000
1  1.263521377474e+01   2.312166451282e+01  -7.518595513950e+01 
1  9.339261865505e+00  -5.046857728016e+00   6.522343720088e+01 
1 -1.396909094568e+01  -1.248120075556e+01  -3.904857737122e+01 
1 -1.870649957609e+01  -5.175014904211e+00  -3.386928468031e+00 
1  8.843330480823e+00   7.734361613582e+00   5.760088521810e+01 
1 -4.881368157980e+00   3.019532686985e+00   2.649266436947e+01 
1 -1.774855182701e+01  -1.217047111854e+01   2.187942309504e+01 
1 -3.370063683400e+01  -7.304093037296e-01  -9.849468111254e+00 
8
Step 33000
1  1.008859002861e+01   5.010535854136e+01  -4.497340103656e+01 
1 -4.018184563935e+01  -4.949518406882e+01   3.757473555891e+00 
1 -2.452567787935e+01   2.586776329863e+01  -4.859857774325e+01 
1 -3.722232235381e+01   2.221502912397e+01  -4.728845686125e+01 
1  4.476610491450e+00   2.677563292073e+01   1.534182718314e+00 
1  6.211631957482e+01  -2.999436092821e+01   1.218804412262e+01 
1 -2.767133632400e+01  -1.801570002503e+01   6.457009951468e+01 
1  9.514064996768e+00   3.164465426523e+01   3.627929041975e+01 
8
Step 34000
1 -2.072910040411e+01  -7.779529953640e+00   1.537031866972e+01 
1 -5.028704944844e+01  -2.630205316317e+01  -3.390791811664e+01 
1  6.387111203756e+00   2.301002684443e+01   1.745819593846e+01 
1 -1.680064734112e+01   1.702983617500e+01  -7.906974803983e+00 
1  3.792078653099e+01  -5.135471422050e+01  -2.567623889449e+01 
1 -9.809075121751e+00  -7.047118833472e+01   4.878491362294e+00 
1 -4.699183079492e+01   2.903692349616e+01  -2.016913084658e+01 
1  1.826154086087e+01   4.126277410386e+01   1.466883228322e+01 
8
Step 35000
1  4.223085864014e+00  -5.654074796020e+01   3.143804683146e+00 
1 -2.598210142853e+01   2.440939801733e+01  -3.359634582809e+01 
1 -4.450545040701e+01   2.537244197953e+01  -7.638845588424e+00 
1 -5.006357407567e+01   1.833440378262e+01   1.161536399619e+01 
1  5.871547259435e+01  -4.984082284573e+01  -6.584989977937e+01 
1 -1.484177567557e+01  -6.429713294343e+00  -1.290599642602e+00 
1  3.176610873639e+01   1.821187190163e+01   1.697480034146e+01 
1 -5.597428808179e+01  -7.361510669111e+01   4.219383128199e+01 
8
Step 36000
1  4.970686025123e+01   1.435625347637e+01   2.391574070732e+01 
1  1.317495197039e+01   5.622190323224e+01  -6.724106500010e+00 
1 -1.923560767047e+01  -4.396421474438e+00  -4.677479817276e+00 
1  3.756186578633e+01  -3.159839485828e+01  -5.024972109487e+00 
1 -5.555246923138e+00  -2.474478415496e+01   3.184729998138e+01 
1  5.733875146814e+00  -8.941008186227e+00   4.179578148088e+01 
1  2.559214887622e+01  -5.524776841638e+00   2.941728893854e+01 
1 -1.003749884666e+01   2.460282669673e+01   9.375328491250e+00 
8
Step 37000
1  8.856032801272e+00  -1.444019683426e+00  -4.843902890616e+01 
1 -2.507670395852e+01  -1.978972960323e+01   9.354203752973e+01 
1 -5.714912418021e+01   4.294080891636e+00  -9.385406234164e+00 
1  5.516828672302e+00  -3.294507773612e+01  -8.141190134212e+01 
1 -1.809983448279e+01  -1.681942098941e+01   3.329135995653e+01 
1  4.092898088082e+00  -3.762787194506e+01   1.372280876132e+01 
1 -1.102140007790e+01   1.822101614660e+01   3.924464594604e+01 
1  3.821633445710e+01  -2.251682316089e+00  -3.547221436785e+00 
8
Step 38000
1 -1.855535100036e+01   9.227350800575e+00   5.550958343088e+01 
1  5.560726010319e+00  -5.304964701579e+01   3.197841741813e+01 
1  1.697790864546e+01   4.386942719227e+00   2.621280794677e+00 
1 -3.282689573128e+01  -6.978140673758e+01  -6.633510930278e+00 
1  4.083198979680e+01  -6.332865273201e+00  -1.278214917728e+01 
1  9.238103501732e+00  -2.173510645635e+01  -3.905645246070e+00 
1 -9.577758387834e+00  -1.372051926934e+00  -9.944664003836e+00 
1  6.757621968783e+00   1.379600466820e+01  -9.158226842301e+01 
8
Step 39000
1  9.577144693757e+00  -2.122237197513e+01  -2.562802749166e+01 
1  3.943555597346e+00  -2.576730010749e+01  -4.949646256532e+01 
1  5.103950986180e+01  -2.665243485003e+01   7.194086469903e+01 
1  8.221575306157e+00  -1.145510811269e+01   5.047161432103e+01 
1 -1.660551572262e+01  -2.670824414091e+01  -2.713757517328e+01 
1 -5.082211027763e+01   1.416797749236e+01   2.503740484865e+01 
1 -1.485083491410e+01  -1.688939052158e+01   3.890351917032e+01 
1  2.829001991694e+01  -3.778170892708e+01   1.739995440881e+01 
8
Step 40000
1  2.510550308825e+01  -4.300680962508e+00  -2.479489941495e+01 
1  3.203056747125e+01  -1.347723503190e+01  -4.496533215627e+01 
1 -2.023111813429e+01  -5.674240712706e+01   6.781719102153e+01 
1  7.704864961245e+00   3.013165066970e+01   2.536471673367e+01 
1  2.304574839718e+01  -4.011259478156e+01   4.082190468838e+00 
1  1.730241364061e+01   3.229786181683e+01  -1.117763169639e+01 
1  4.952769341854e+01   1.985207424736e+00  -3.255644022097e+00 
1 -2.873602638065e+01  -2.016005968312e+01  -1.174371378770e+01 
8
Step 41000
1 -9.518669017122e+00  -2.040092292818e+01  -4.195430472081e+00 
1  2.110981881740e+01  -4.509518615216e+01   6.066757480904e+00 
1 -4.739304776361e+01  -2.397429001835e+01   1.323310365113e+01 
1  7.267124781670e-01  -4.143179591520e+01   5.737721481088e+00 
1 -2.079702819958e+01  -5.687375501594e-01   1.540247806671e+01 
1 -1.960543455354e+01  -1.772652584311e+01   9.263469370166e+00 
1 -1.762917791420e+01  -2.301609794565e+01  -3.910612068735e+01 
1  4.462337388577e+00   9.434508034553e+00   3.655097443116e+00 
8
Step 42000
1 -3.923491380405e+01  -3.326065561402e+01   1.505426151966e+01 
1 -1.157404865817e+01  -5.565618408353e+01  -6.188659723881e+00 
1 -1.097863176609e+01   3.313973532066e+01   1.486441024828e+01 
1  6.270516781862e+00  -3.550195395604e+01  -2.916114350541e+01 
1  5.504226481854e-01   2.964943513562e+01   1.565698859837e+01 
1  3.812574069993e+01  -1.907850408939e+01  -3.659003616196e+01 
1 -2.179629408931e+01  -3.610545950863e+01  -5.998201096343e+01 
1  3.555968752656e+01  -3.182501900878e+01  -3.952156221193e+01 
8
Step 43000
1 -3.291077799882e+01  -3.936115608724e+01   2.204928338090e+01 
1  2.529933246313e+01  -3.408894229456e+00  -4.898503151216e+01 
1  5.166577070830e+00   4.768804422532e+01   1.966939583790e+01 
1 -2.721653818358e+01   1.790875381855e+01  -4.521054783388e+01 
1  6.445344730327e+00  -2.738627600425e+01   5.019008312584e+01 
1  3.230198459247e+00   3.487133196164e+00  -2.100953500089e+01 
1 -4.248532269216e+00  -3.516061266970e+01   5.907565516740e+01 
1  1.061131721310e+01  -1.368981973004e+01   2.165359959609e+01 
8
Step 44000
1 -1.031429123368e+01  -8.556735604381e+01  -4.569611556691e+01 
1 -6.344739837327e+01   5.776667439117e+01  -5.433353725208e+01 
1 -1.500276654719e+01   6.296069465639e+00  -8.382359007248e+00 
1 -1.939606857002e+01   3.628332100197e+01  -7.933835559322e+00 
1 -3.422586883316e+00  -1.243873921998e+01  -2.505175397365e+00 
1  2.069099063321e+00   2.006353589769e+01  -1.190896090275e+01 
1  3.484586143147e+01  -2.379406428456e+01   2.924232319535e+00 
1  2.224422110493e+01  -1.955820776125e+01   3.033673947011e+01 
8
Step 45000
1  3.094683768541e+01  -2.095458575089e+01   2.291526134847e+01 
1 -5.652892008387e+01  -1.750735651731e+01  -1.895472663202e+01 
1 -4.018371861031e+01  -9.942544964916e+00  -3.631429611453e+01 
1  9.049238420727e+00   4.659237784593e+00  -1.452654989420e+01 
1 -2.209440667889e+01  -2.494791565619e+01  -2.703152714802e+01 
1 -3.813608997816e+00   8.360799742116e+00   1.763409223790e+01 
1  2.215253978692e+01  -8.103396654193e+00  -2.170032652859e+01 
1 -5.143430024829e+01   3.793577155607e+01   1.816684556215e+01 
8
Step 46000
1 -4.377564819683e+01  -3.460339951918e+01   4.711900518607e+00 
1 -4.251533201516e+00  -4.106041549759e+01  -2.448510529082e+01 
1 -6.133756696523e+01  -2.644562387543e+00  -2.122034343175e+01 
1  4.711317066444e+01   8.033806770960e+00  -1.574957554866e+01 
1  9.724521822007e+00   1.899581709647e+01   4.816433844921e+00 
1 -2.391984421746e+01   5.869679216422e+00   1.428041749865e+01 
1  1.011708118375e+01  -7.730388845811e+00   9.095207794292e+00 
1  2.417718168006e+01   4.296894717826e+01   2.736367583143e+01 
8
Step 47000
1 -3.119373334737e+01  -1.609466818657e+01  -2.973134737189e+01 
1  1.941786018504e+01   1.829783214879e+00  -4.429589812670e+01 
1  3.564209426938e+01   3.478519797318e+01   1.446733175244e+01 
1  3.215281360932e+01   3.595889931075e+01  -1.186070947983e+01 
1 -2.759194168671e+01   4.893874830836e+01  -1.436867890240e+01 
1 -2.432826166344e+01   6.024194863411e+00   1.007679227155e+01 
1 -3.598889549586e+01   1.977825007691e+01   7.112422912643e+01 
1  1.973766358062e+01   3.089238094774e+00   3.839062187447e+01 
8
Step 48000
1 -1.917440464994e+01  -9.992183129560e+00  -6.360096020525e+00 
1  7.276472441927e+00  -4.753057982787e+01  -4.070098944183e+01 
1 -4.033934639697e+00   1.501233866269e+01  -1.628422250243e+01 
1 -2.678449887573e+01   1.966763885505e+01  -9.631392089319e+00 
1 -5.225657335773e+01   2.199742130027e+01  -6.923174304991e+00 
1  1.137607291762e+01   3.211244345855e+01   2.629236130707e+01 
1 -2.244746435086e+01   9.450957463316e+00   5.626281089768e+01 
1 -1.047628191371e+01   3.453881516879e+01   2.732908675644e+01 
8
Step 49000
1  4.675332269795e+00   4.717417091199e+01   4.103333722073e+00 
1  1.891504972971e+01  -4.694187196046e+01   9.969348294804e+00 
1  1.099011832747e+01  -6.584576252963e+01   2.424869379445e+01 
1  4.336823599777e-01   3.894318516789e+01  -3.192265812264e+00 
1 -1.362484094540e+01   2.747093816557e+01   5.589352942005e+00 
1 -5.724272755517e+00   4.984361787019e+01  -2.876325619982e+01 
1  7.271649874313e+00   4.106643742510e+00  -6.562579899960e+00 
1 -3.780469853539e+01   2.037955287698e+01   1.645208022041e+01 
8
Step 50000
1 -3.206348381179e+00   7.578747090866e+01   6.289974844815e+01 
1 -3.995241079532e+01  -1.310219666565e+01   2.023027576343e+01 
1  2.292957909976e+01  -6.311189392288e+01   2.862121324599e+01 
1  2.373773654800e+01   5.563027442420e+01  -1.634844658543e+01 
1  3.118341482157e+01   4.795646447832e+01   1.183342926411e+01 
1 -7.803438236136e+00  -2.668505711917e+01   4.473856857233e+01 
1 -8.383267348294e-02  -2.644004893346e+00   6.160605904024e+01 
1 -6.693971689704e+01   5.544157370028e+01   4.425615184286e+01 
8
Step 51000
1  6.696242399938e+00   2.095593925574e+01  -5.902334204134e+01 
1  2.466146972847e+00  -1.699186480448e+01  -8.896344361554e+00 
1 -6.354975942636e+00   5.615960342105e+01   2.371952192503e+01 
1  3.962671371002e+01  -9.878148780820e+00   2.930689053424e+01 
1  2.944210113935e+01   5.554426372653e+01  -1.268546118517e+01 
1 -2.003630813490e+01   3.301312247269e+01   2.934724222537e+01 
1 -3.916770906416e+00  -1.863125930572e+01   3.363764717297e+01 
1  3.123654800156e+01  -2.265529755105e+00   3.143237309523e+01 
8
Step 52000
1  5.586111767882e+01   3.166815188303e+01  -1.228774341639e+00 
1 -1.370136500091e+01   9.024156676663e+00   4.081185948594e+00 
1 -3.398147945236e+01   5.742254801531e+01   5.446433877112e+01 
1  1.274308036113e+01  -6.533803690115e+01   7.169973062613e+01 
1 -3.247644511848e+01  -4.072509703596e+01  -2.626581577816e+01 
1 -1.134493719245e+01   4.970036224469e+01  -4.342502734582e+00 
1 -3.445190615927e+01   2.559714554966e+01   2.515078622914e+00 
1  1.688271549820e+01   5.676878019698e+00   4.401652183206e+01 
8
Step 53000
1  5.804000836201e+01   4.400720399206e+01   1.227166082704e+01 
1 -1.450886113941e+01   3.207363020821e+01  -2.853658867639e+01 
1  3.637060721332e+00  -5.845849992628e+01   4.634430035656e+01 
1  1.173394222393e+01  -3.529341308352e+01   4.947745133681e+01 
1 -1.090080966860e+01  -4.570310987246e+01   5.567259963466e+01 
1  4.647806446741e+01  -2.639333481269e+00   1.025375460079e+00 
1 -9.088934021743e+00   5.996271316859e+01  -2.436034593076e+01 
1  4.380600091904e+01  -1.176704764042e+00  -2.335716596963e+01 
8
Step 54000
1  2.225776444283e+01   5.238884667350e+01   3.456955464349e+01 
1  3.505866513121e+01   5.873629192553e+01   6.549220676259e+01 
1  3.743516690145e+01  -1.880541191535e+00  -1.345366545434e+01 
1  1.794565588460e+01   2.562271683405e+00   3.450090727696e+01 
1  2.309971377930e+01  -2.501624520656e+01   7.060316713737e+01 
1 -6.595630407812e+00  -4.973082365633e+01   1.827722400254e+01 
1  3.715002298936e+01   3.772757211567e+01  -2.299089781552e+01 
1 -2.414119330805e+01   2.480375076028e+01  -1.066830347749e+00 
8
Step 55000
1 -2.212850911876e+01  -1.604419437585e+01  -2.944670252663e+01 
1  5.989000155451e+01  -1.521929037408e+00   4.492146228613e+01 
1  4.720083465226e+01  -1.587725744482e+01  -6.238708799503e+01 
1 -2.686843095841e+00   3.572697825648e+01   6.642198649761e+01 
1  1.286083906316e+01   1.290763803686e+01  -1.989353871211e+01 
1 -2.265927925950e+01  -2.577999223458e+01   2.280239740860e+01 
1  6.978898071209e+01  -2.193117019619e+00  -2.400056921725e+01 
1 -2.552107410464e+01   3.410175700986e+01  -5.507003111924e+00 
8
Step 56000
1  2.552841512459e+01  -3.751363506727e+01   2.139282221701e+00 
1  2.093256000630e+01  -5.638193096156e+00   5.587108458533e+01 