8
Step 0
1 -8.19206160314889189e+01 1.17668904556741950e+02 -2.97033021598792288e+01
1 -7.93215895090458929e+01 1.05023888631320204e+02 1.14341465972535332e+02
1 7.67622396710342514e+01 -1.29821115290509368e+02 -1.21067231261382062e+01
1 6.05098360353093767e+01 -1.76383016719461523e+01 1.43337446912598296e+02
1 4.09961205751411057e+01 -1.00249624765939416e+00 -6.52395336848756102e+01
1 4.68569894558842748e+00 7.04339154594725301e+01 -1.42510060823431303e+02
1 6.68875296348806216e+01 3.46813864137929215e+01 -1.09812060627859424e+02
1 1.96611271123377378e+01 1.37028237639027111e+02 1.00395745506992483e+02
8
Step 1000
1 9.87103936428559905e+01 -6.29348020596116271e+01 2.50705249193207536e+01
1 8.73413802195758961e+01 -1.02228597630630517e+02 -1.15949406778636359e+02
1 -1.01917159941668189e+02 9.13424211194001430e+01 5.19696619345009392e+00
1 -6.67848876590856548e+01 2.19618884918814530e+01 -5.89941143424823125e+01
1 -1.77355694892959659e+00 -2.99643011171396967e-01 2.88521524862921481e+01
1 4.74691858233789219e+01 -1.70944983213969799e+01 8.22735741761516977e+01
1 -2.97683535015111040e+01 -4.84643531741423459e+01 7.96396856155288759e+01
1 -4.88791465683041935e+01 -1.13959322362636200e+02 -1.01828005295857636e+02
8
Step 2000
1 -6.99981255024340356e+01 -6.40591421219540624e+00 -3.63084950972404883e+01
1 -7.49236839392149534e+01 5.48821146300191316e+01 7.81833485536539712e+01
1 8.58341494466982766e+01 -5.27643287569761057e+01 1.63142342879134077e+01
1 6.89981781071756757e+01 -3.13915262692268584e+01 -1.14659796128957030e+01
1 -9.63785477540851332e+00 -8.79596603451128267e+00 -1.09588559680258673e+01
1 -6.83072651231751991e+01 8.46399694227289778e+00 -1.81214790551378258e+01
1 -2.76188680413932630e+01 4.95475513299111512e+01 -3.90068967927450885e+01
1 5.05613823782606602e+01 7.18575400866963179e+01 9.10882637203426384e+01
8
Step 3000
1 2.75620231986786983e+01 5.34062451071822437e+01 5.53485037686187837e+01
1 5.32376850814226756e+01 9.19953240294597019e-01 -2.15952599772618150e+01
1 -5.82906953483774259e+01 2.36905227009067403e+01 -5.00367599062993875e+01
1 -7.89149201637636963e+01 4.18080172648262476e+01 4.93338292417160957e+01
1 5.14535021137545989e+00 1.43095205710213946e+01 1.21424109260186270e+01
1 6.04800213271122402e+01 -2.68737451069648863e+01 -2.06408134376960994e+01
1 7.95001019601702268e+01 -4.57029432683126160e+01 1.39673700059133665e+01
1 -3.91016952467077985e+01 -3.17682919020988415e+01 -6.94300025985177882e+01
8
Step 4000
1 1.56507891432208037e+01 -6.29882914096118114e+01 -6.99414410230327235e+01
1 -2.53761184137076299e+01 -5.27535611548027319e+01 -3.48902579560431860e+01
1 3.11988546235593951e+01 -5.54890044806179628e+00 8.83169936590101798e+01
1 9.47455186086639856e+01 -4.82958932548815483e+01 -5.26192141701949438e+01
1 1.42063634744790903e+01 -2.34250686537389452e+00 -1.58635286008102359e+01
1 -2.03108944804731522e+01 5.64566412890436879e+01 2.39773926853119193e+01
1 -1.08158145963648806e+02 3.70264254497271281e+01 -1.42083970424769142e+01
1 2.19764067204717151e+01 -5.80906223157889379e+00 3.07131147967866873e+01
8
Step 5000
1 -4.20069864831620379e+01 3.25843212238715552e+01 7.18262977555672535e+01
1 1.02579813982320101e+00 8.68758320586399861e+01 6.98964067361587524e+01
1 -1.81316931286911611e+01 2.11623301722570129e-01 -1.17733845405666713e+02
1 -1.09377664076458657e+02 5.20970973889066116e+01 3.29933280249960745e+01
1 -4.02549375438992882e+01 -2.09379312363663352e+01 1.79817768343368272e+01
1 -3.53428976649629760e+01 -8.14528918132932347e+01 4.35765898420104314e+00
1 1.03891443385997988e+02 -2.80166850515931358e+01 3.42259574461264791e+01
1 -5.40429445712985768e+00 2.55231557987886895e+01 1.30187182764500751e+01
8
Step 6000
1 3.94313214257022224e+01 2.29168799383004611e+01 -5.91665225119245051e+01
1 1.18649421364068495e+01 -9.67551944514221276e+01 -6.80780338615177953e+01
1 2.55360252882041898e+01 -4.19312717573502169e+00 1.24770411334669518e+02
1 1.10293567262827736e+02 -5.42995008895336966e+01 -8.68496467365291558e+00
1 5.49537070005757116e+01 4.04632049660578375e+01 -1.58042904423971997e+01
1 7.88580701299849096e+01 8.74793180170479872e+01 -4.65395609943470276e+01
1 -6.72451654289686473e+01 2.62585227951002373e+01 -5.56631778302662212e+01
1 -7.01558769308356478e+00 -1.39911944021798202e+01 -5.06902749755365960e+01
8
Step 7000
1 -8.08312004802378681e+00 -7.31981825393054919e+01 3.79587143061323147e+01
1 -1.27237696823995510e+01 8.23830489922379599e+01 2.58363038645627405e+01
1 -5.03046517634615000e+01 1.10546957113920659e+01 -9.93121845233356026e+01
1 -8.89888402122201256e+01 5.53664069672926615e+01 -4.63280567296711254e+00
1 -4.38440166112930427e+01 -4.63978416647163812e+01 6.84270921399177290e+00
1 -8.59085315100903841e+01 -6.75170255743186658e+01 7.89928058571410503e+01
1 1.31065668928980674e+01 -3.88345007179355193e+01 5.80703211176934531e+01
1 2.14601303357720248e+01 -2.60176547179960771e+01 7.36531326723605844e+01
8
Step 8000
1 -4.25450256339001740e+01 8.86829376689932616e+01 -1.56649597655588888e+01
1 6.98765172151517611e+00 -4.65647880822513400e+01 4.72307161042486783e+01
1 8.12053974248022143e+01 -7.66324367775278859e+00 4.76652966619313219e+01
1 4.74357635608265369e+01 -5.68439727275935027e+01 -1.36376411814401299e-01
1 9.14487018305874244e+00 3.49227758822614263e+01 9.06783082476177604e+00
1 5.24131556290246223e+01 2.67027412505849675e+01 -8.71519572096934354e+01
1 3.76559918800467628e+01 7.09153961914115030e+01 -3.37442824352545330e+01
1 -4.19349144302108527e+01 8.15669452310279866e+01 -8.17892189631057107e+01
8
Step 9000
1 8.93042723845858575e+01 -5.81402189039177486e+01 9.80164917102268385e-01
1 4.01462007886275085e+00 -1.27803337253201899e+00 -1.24057386120800018e+02
1 -9.60302702606201137e+01 -1.56087179352836216e+01 4.44521149366443824e-01
1 5.44525166618255518e+00 5.81161474075226678e+01 2.18877141904994801e+01
1 2.56090338200942931e+01 -7.45900001812316304e+00 -2.42556091030241738e+01
1 7.47479109672308351e+00 1.90078139229348224e+01 6.42515763820243109e+01
1 -5.42362723964435602e+01 -1.13130369461260472e+02 -8.19090268691263290e+00
1 6.37064958958967296e+01 -1.31131781251165734e+02 7.70499721772279713e+01
8
Step 10000
1 -1.03403703201617887e+02 2.35012659339858754e+00 -4.65516299676595935e+00
1 -2.13523456611798821e+01 3.89600913090098828e+01 1.65272063132626897e+02
1 9.08826194473099207e+01 3.91692805225760594e+01 -2.61429850565128845e+01
1 -4.56965181097696131e+01 -4.87086964916387544e+01 -3.01296757484272071e+01
1 -3.13923755925943304e+01 -2.25548445520378387e+01 2.92746986003342009e+01
1 -5.70632056774149277e+01 -4.87290111689602270e+01 -2.42090550216416638e+01
1 3.48112072718719716e+01 1.35167236376258643e+02 4.62857300527336264e+01
1 -8.03061653359845877e+01 1.36275850369857409e+02 -6.45942621571242341e+01
8
Step 11000
1 7.31807825154213702e+01 4.39168704876526448e+01 2.13669696773283242e+01
1 2.77575240963569492e+01 -4.74920489447132042e+01 -1.37590144154417999e+02
1 -6.21711792171822708e+01 -4.48303153883675662e+01 2.49722462781621957e+01
1 5.15974235092866209e+01 2.48824981452351039e+01 1.08926601343429930e+01
1 3.19359521512893885e+00 3.53776263013864494e+01 -1.33482000806166585e+01
1 6.08368010192656143e+01 5.04855512970684472e+01 -9.23324991682242846e+00
1 3.36728946917232319e+00 -1.13977679425843093e+02 -5.92970424110526508e+01
1 7.89008908056141536e+01 -8.07705586589683691e+01 4.39168535003597782e+01
8
Step 12000
1 -2.45662178224090049e+01 -6.86978899239582574e+01 -3.23550448741279055e+01
1 -1.09793490415794146e+01 2.82950027729128486e+01 7.10837808246556619e+01
1 3.69726252197027492e+01 2.79284905250323909e+01 -5.75786314672877531e+00
1 -3.12520171734856120e+01 8.04000973738886771e+00 2.74269640273572044e+01
1 4.12030806788675292e+01 -2.72578946818380672e+01 -1.19372900304797582e+01
1 -2.37710019616994046e+01 -3.18707633622184723e+01 1.93377157352011970e+01
1 -2.27614164995887123e+01 6.76517849494222077e+01 4.30989879987807072e+01
1 -5.47115845960737417e+01 1.28180308208584020e+01 -3.89768483081457546e+01
8
Step 13000
1 -1.98134737304109763e+01 6.53675248021117454e+01 3.55764351852343168e+01
1 -1.58811005536370669e+01 -6.51658626972551280e-01 -6.20290083470350329e+00
1 -1.76596668805537114e+01 -3.33591102265619321e+00 -1.76651432068419254e+01
1 -6.84864109209692984e-01 -4.42412062910559669e+01 -7.24979846776862189e+01
1 -8.37025653008569890e+01 4.50277896490238394e+00 3.47217088011071482e+01
1 -3.62080785781127474e+01 4.79864194040005021e+00 -1.32803113200807381e+01
1 3.05340298744550509e+01 -2.36632948127316105e+01 -7.46137017523430812e-03
1 2.40041543203917342e+01 4.19471912635870510e+01 5.17215632410069688e+01
8
Step 14000
1 4.28985186431955512e+01 -2.76177249704665115e+01 -3.21648353296243954e+01
1 4.49532284537852362e+01 -3.39798606792075901e+01 -3.96608436559076551e+01
1 2.11645763784231633e+00 -2.74470893438700649e+01 3.25951178709548088e+01
1 3.65162859452740989e+01 7.54591361808438421e+01 1.06219431269524364e+02
1 1.00161888493350560e+02 2.58644717277063378e+01 -4.57898403385931019e+01
1 9.83223823778302659e+01 1.95453267067808198e+01 -1.06223590807244106e+00
1 -3.11557178201549867e+01 -6.54068837006384918e+00 -5.56423352329805212e+01
1 -7.64612392305189514e-02 -6.61122942927527930e+01 -6.98769602473587668e+01
8
Step 15000
1 -3.47372494465577830e+01 -2.63185497889778937e+01 3.09852341106070384e+01
1 -7.08812917017956181e+01 6.93992645849592265e+01 5.34159330493382711e+01
1 1.19754531015045860e+01 5.44752020813748743e+01 -2.48607967634204776e+01
1 -6.34052309024273058e+01 -9.07051225801628789e+01 -1.10404425726274539e+02
1 -7.70261542815440521e+01 -5.05797773116713074e+01 3.81093257649567150e+01
1 -1.28354243312836388e+02 -2.96313634166117872e+01 1.05192924316848266e+01
1 2.92327012331227643e+01 1.30780777806479556e+01 9.72273419923240851e+01
1 1.56239699482806971e-01 4.10981923544955592e+01 8.17612111072606496e+01
8
Step 16000
1 7.29109469490311390e+00 6.04148011739456763e+01 -3.57085817244979751e+01
1 8.68461304978251007e+01 -8.89744530855558793e+01 -3.65225432080123937e+01
1 -3.04100882762751539e+01 -6.58564819701196740e+01 -6.08269792254621500e+00
1 6.55073295223875931e+01 8.76392881851361381e+01 7.47668141191352049e+01
1 2.66456377700730656e+01 5.89723527050409544e+01 -1.12899928925586508e+01
1 1.04065639316978661e+02 2.51626829174323490e+01 -3.91181738499154052e+00
1 -2.51177113646927168e+01 -1.53911013123647455e+00 -1.02844464923633808e+02
1 -2.38842865426465210e+01 2.53968726069368635e+01 -7.67162534610675522e+01
8
Step 17000
1 1.36041616267583141e+01 -5.51589357113168219e+01 3.58261941386572786e+01
1 -8.23206727894892225e+01 7.83843586257908669e+01 7.90278533820472262e+00
1 5.36837909362467798e+01 5.42690033528622564e+01 3.81685860646934572e+01
1 -3.89001258292855638e+01 -6.74103778646963718e+01 -1.28093581046601699e+01
1 1.96625952076585442e+01 -5.00102341553909255e+01 -2.26616265027279411e+01
1 -3.69558636949469630e+01 -1.28271091478385948e+01 -1.88157557538786868e+01
1 1.45529306895713866e+01 -1.03590460498974171e+01 7.22098378180892837e+01
1 5.13489875051122340e+01 -1.01349466716409339e+02 5.57901020681088085e+01
8
Step 18000
1 -1.26725446268572579e+01 2.54131527836941302e+01 -1.66738535490498556e+01
1 5.84559222459179821e+01 -4.85677562051358294e+01 1.00374626728587302e+01
1 -7.58676917065450027e+01 -2.63608478968203670e+01 -4.01240585847542590e+01
1 -8.29709416820342716e-01 3.81986238590101195e+01 -3.60716129486784709e+01
1 -4.09397299001465740e+01 3.09803370514664138e+01 4.41062080839117741e+01
1 -2.55642718949740448e+01 2.39980212687342664e+00 4.09780851599957003e+01
1 5.30738730036291528e+00 1.14685965677373485e+01 -3.06876633955469202e+01
1 -6.51855937922911863e+01 1.50931820038074363e+02 -3.45433201124436664e+01
8
Step 19000
1 -5.35849823184230178e+00 -2.72843617864917576e+00 -1.58575383419807778e+01
1 -3.12837869774540920e+01 1.75187438198435643e+01 -2.83821524514422352e+00
1 8.93277741442613973e+01 5.33929849938579792e+00 1.39318703887906938e+01
1 3.30375068619097902e+01 -1.26332291676505282e+01 4.82657114551026751e+01
1 2.96136971390197523e+01 -1.09176819246208812e+01 -4.29805634524477540e+01
1 5.44542201857445605e+01 -4.31265088949195441e+00 -4.48005613848791739e+01
1 -2.73433658384334670e+01 -1.10354425472027273e+00 2.76204107022807310e+00
1 6.31074004985484507e+01 -1.56180429302227253e+02 2.27027867969580619e+01
8
Step 20000
1 3.10882502402419902e+01 2.42220353988811254e+00 4.65293269485613834e+01
1 6.42035567807893504e+00 9.42949720006107839e+00 -2.29143339084968964e+01
1 -8.37228372790842599e+01 6.40826064171372156e+00 3.21720021861969769e+01
1 -4.64825356373797689e+01 -3.26686419967512176e+00 -2.71231953334105000e+01
1 6.28802775517446655e+00 -3.00686937435167634e+00 1.92892910588090700e+01
1 -4.95236994900250593e+01 1.43492202792165156e+01 2.42090177021549700e+01
1 4.68977693075049515e+01 -2.16883983714053592e+01 6.87082281463247035e+00
1 -4.64421504534141718e+01 1.22858251525755534e+02 -2.32746683431321593e+01
8
Step 21000
1 -5.16916587528951652e+01 -1.92534458367432251e+01 -6.63525861583750043e+01
1 1.35975560632045056e+01 -2.56812673073591640e+01 5.74400069493790468e+01
1 5.83953181671738690e+01 -1.20936111433973679e+01 -8.45447124826108478e+01
1 4.16741906794050294e+01 8.58939003648505839e+00 -1.35977581335470035e+01
1 -4.18872551047196922e+01 7.12585559969908822e+00 1.70767557422668510e+01
1 2.18852116340173808e+01 -2.64572311664434565e+01 9.77107516097381001e+00
1 -5.68291642491829307e+01 4.62732719046574488e+01 4.56462531385717019e-01
1 2.05292588035003227e+01 -6.70446666226327608e+01 3.26921372811467847e+01
8
Step 22000
1 5.73530250681670708e+01 3.73157973368502240e+01 7.34162570387262434e+01
1 -2.61170585794524008e+01 2.59894195933392815e+01 -8.85990291413447579e+01
1 -2.02393031689712828e+01 8.73644211172995000e+00 1.12265485191712216e+02
1 -2.47013619852603341e+01 -3.93224797118296898e+00 5.27912129875095602e+01
1 5.17639257534775723e+01 -1.02409498762853279e+00 -4.74966929296313438e+01
1 1.11254493081297046e+01 3.44591901199460224e+01 -3.88590434349534064e+01
1 5.04031576192961381e+01 -5.67176095667784708e+01 -1.56818724926087452e+01
1 8.55231372718787064e+00 1.16100765344709611e+01 -4.22500535344140076e+01
8
Step 23000
1 -4.63901437015252540e+01 -4.44811712853132448e+01 -7.12179838144676154e+01
1 2.82975326033932610e+01 -6.70060552345898941e+00 1.06144501626804612e+02
1 -1.92924425585125121e+01 3.91221840246708652e+00 -9.83611161872805013e+01
1 6.56813638927463561e+00 -7.13028401540179679e+00 -6.88672490670710289e+01
1 -2.54497174922354823e+01 -1.35297203193620117e+01 5.45454851031955243e+01
1 -3.31939797851136618e+01 -3.35015207632009790e+01 4.82513592865406409e+01
1 -2.71076407302214903e+01 4.19185878586905005e+01 2.91838240748534439e+01
1 -3.49152350048183422e+01 2.80579738357009525e+01 4.83798608313583927e+01
8
Step 24000
1 3.98685962409572952e+01 2.34293700692286926e+01 5.21743469959456334e+01
1 -2.25323036604866509e+01 -2.68039392896594713e+01 -1.02659472819974951e+02
1 5.18970771479761765e+01 -1.16071012835192171e+01 4.02046887229364813e+01
1 1.95437330288864564e+00 1.88678383072440035e+01 4.76681377557288286e+01
1 -3.16380464140563689e+01 3.62531097675455882e+01 -3.11860869024945195e+01
1 3.21300413263508560e+01 2.13067348841323181e+01 -3.06977644150600746e+01
1 -9.60140366279401647e+00 -6.72591358246987792e-01 -3.51979282139778036e+01
1 4.89656997383950667e+01 -4.56349343377385708e+01 -5.16758774599240311e+01
8
Step 25000
1 -5.58649441598278571e+01 2.72998631363792086e+01 -9.57773870076097644e+00
1 1.51900701854949229e+01 5.57917567093211773e+01 7.02689102379736141e+01
1 -6.62565528690298606e+01 3.56714031659357600e+00 5.12705554267768093e+01
1 1.62068474339925328e-01 -2.45510051139650933e+01 4.64858684871818184e+00
1 9.72908120809455568e+01 -6.02995887691443500e+01 -1.02721812866325060e+01
1 -1.14557380524877921e+01 -1.88807884608555410e-01 -7.01676170420192502e+00
1 4.97146997158142199e+01 -5.60844016498938061e+01 3.23088482235769874e+01
1 -5.04758608473773833e+01 3.87262473173046899e+01 4.35292835493511845e+01
8
Step 26000
1 8.26523316448752041e+01 -7.09330990959043959e+01 -3.62757701424396686e+01
1 -9.74366149905690904e+00 -5.55468059486075489e+01 -1.12701898166378935e+01
1 4.68640545743807735e+01 1.61503278319680348e+01 -1.28123635055746036e+02
1 -9.19449723262315466e+00 2.09482997856241653e+01 -6.08626667512946540e+01
1 -1.33966977444863943e+02 7.54414046615165290e+01 5.02049394186547246e+01
1 -1.30706161347174810e+01 -1.80824084724555583e+01 4.06270410081629691e+01
1 -7.08198052075255760e+01 1.04138792670047309e+02 -2.31304930441547931e+01
1 5.20513339928129852e+01 -1.72541996639059043e+01 -2.47307764628770990e+01
8
Step 27000
1 -9.87294646769396991e+01 7.60968145221744265e+01 5.63135989781555892e+01
1 4.81468003163823077e+00 1.64967238273144616e+01 -3.95296544491648163e+01
1 -2.76168985431439307e+00 -3.93164490604232313e+01 1.41480631725030520e+02
1 2.43836902102818449e+01 -1.06410563494093111e+01 8.35550291971033943e+01
1 1.20237198760623400e+02 -7.88926166092820722e+01 -7.62206746863733002e+01
1 2.53622982510834092e+01 1.91374038167538316e+01 -4.42915209988499754e+01
1 5.97577318162122069e+01 -1.20923807725972196e+02 1.89399992526677181e+01
1 -6.13299684363904944e+01 2.68485278260585947e+00 8.91071103255294084e+00
8
Step 28000
1 9.57486746648030902e+01 -4.31428261168837253e+01 -4.87239979993603143e+01
1 -2.31497163562907105e+00 4.51140777012834064e+01 7.04311708630170443e+01
1 -4.44257542042955578e+01 6.07200445438511807e+01 -1.00344721150407153e+02
1 -4.62771254132380392e+01 -1.54159135015491877e+00 -6.41922511152889399e+01
1 -7.18533748024874228e+01 7.19872517363577060e+01 7.86271880721360077e+01
1 -2.87461006956254863e+01 2.68065390098894907e-01 1.55833391469922624e+01
1 -2.43798460526551537e+01 1.06581509932345810e+02 -2.39650023001771899e+01
1 7.39942390130051848e+01 -3.12924130267866385e+00 2.05792260230095758e+00
8
Step 29000
1 -7.60080905477208688e+01 -1.63177351247273705e+01 1.81820287980883855e+01
1 8.28410106403305058e+00 -8.48178253744239186e+01 -8.09552383990092324e+01
1 7.51516364403587716e+01 -7.12981305818468343e+01 4.11540701109688811e+01
1 7.04468107042150820e+01 9.57261489617574846e+00 2.08305505679649983e+01
1 2.57468699151012288e+01 -5.55631031045524679e+01 -6.49098448417338858e+01
1 3.34450370733716156e+01 -3.31685205632582552e+01 2.98123651743266542e+01
1 -1.86715320154403877e+01 -7.58120971699451331e+01 3.15892868481227396e+01
1 -8.57407375327444612e+01 1.29164708324033555e+01 -5.11265403020330034e+00
8
Step 30000
1 4.18361325047836630e+01 7.42773740188592342e+01 2.69066590288998064e+01
1 -1.11326155500101702e+01 8.73830707859660691e+01 5.90990426534158004e+01
1 -7.82077990556270208e+01 6.55820569900610622e+01 1.04220031412104639e+01
1 -9.00702130074243001e+01 -1.27644633890729295e+01 2.25635946169121127e+01
1 -3.95735102873789391e+00 2.81011624867528447e+01 4.24042858767879736e+01
1 -4.72213594061964699e+01 6.42445239270432893e+01 -6.87269511860027649e+01
1 5.41110891103618386e+01 4.07421606596729262e+01 -3.25690771367197129e+01
1 8.71335834386513852e+01 -2.74333542080039301e+01 3.44682762715291346e+00
8
Step 31000
1 -7.09398989800548740e+00 -9.72838201198232753e+01 -6.77727897865259763e+01
1 2.91057981730277637e+00 -5.77171139434703520e+01 -1.11717514564258078e+01
1 5.20762074918179607e+01 -4.57820498523933352e+01 -3.37708531028871732e+01
1 9.73620662027812926e+01 8.92596082088680376e+00 -4.53548931684783128e+01
1 7.91655408403343408e+00 8.09844013571403032e+00 -1.41282327526287332e+01
1 6.73555713835774696e+01 -8.13142781210704868e+01 8.21368293121523720e+01
1 -7.17674859479280514e+01 -7.84726508001461642e+00 2.17280684433932798e+01
1 -7.37628709705030161e+01 3.94994586940243053e+01 -1.71708740890839828e+00
8
Step 32000
1 -1.17069123013241256e+01 6.83736167398876944e+01 8.38402796321125834e+01
1 1.86845830026270718e+01 1.37446333701547871e+01 -4.03386536198514207e+01
1 -5.24566606462652452e+00 2.31437531046721361e+01 1.65124149653029768e+01
1 -8.59175528534854180e+01 3.94964693285155066e+00 3.72328278630667384e+01
1 -3.03235155887728425e+01 -4.55186235241199526e+01 -1.45711496079584037e+01
1 -8.46595686567822412e+01 8.05560080968141108e+01 -6.36073690882811178e+01
1 7.15662934404834772e+01 -1.68750011064473249e+01 -8.95690698172043498e-01
1 5.36255955350588849e+01 -3.94990134345218422e+01 1.63855249002832348e+00
8
Step 33000
1 8.00557698055750677e+00 4.99193137582969548e+00 -7.49757666093132116e+01
1 -5.17832703344055929e+01 2.60607145530033897e+01 8.09714091432774126e+01
1 -4.94790724379841080e+01 -1.27511163303771369e+01 3.66230673278074548e+01
1 5.51016622208970546e+01 -2.54453804976600111e+01 1.80158398876387604e+00
1 6.36277971333057835e+01 7.54840422549344225e+01 3.92769521326695070e+01
1 9.54985200774933674e+01 -6.83079358736302567e+01 1.96778242157294194e+01
1 -6.33951067948572700e+01 3.24427371474759667e+01 -2.23682110595839632e+01
1 -3.95105981637071508e+01 1.59999430727911012e+01 -2.39211230713383660e+00
8
Step 34000
1 1.76761378052602112e+01 -9.00784193693260846e+01 4.11983377354206795e+01
1 7.53964143247532945e+01 -2.71377340115851773e+01 -9.56555032854163017e+01
1 8.25923285138558043e+01 2.65782428003004014e+01 -9.87530982102845911e+01
1 -8.64797569059074256e+00 4.33418940520762916e+01 -5.63619354493223099e+01
1 -8.85052943589820273e+01 -7.71109549941259189e+01 -4.90549393987650717e+01
1 -8.62732453086658921e+01 4.26574539791434759e+01 3.42271354658913367e+01
1 4.69350909809869847e+01 -3.46219520130496861e+01 3.19396529258034931e+01
1 3.57682745921664065e+01 3.18259275538392465e+01 4.27028391917046779e+00
8
Step 35000
1 -5.37654162422986417e+01 1.38945712235875817e+02 1.30458265792974792e+01
1 -6.60187667380626380e+01 -2.24623631753129125e+01 6.62603616212345230e+01
1 -6.41891853618098764e+01 -4.78886935800980069e+01 1.17348247783947613e+02
1 -2.38425405804384418e+01 -6.33969425877934327e+01 7.05145772588955566e+01
1 8.00750491227228451e+01 4.25191794530831615e+01 5.05002300810138962e+01
1 5.02992761255313852e+01 -2.40175059548696588e+01 -6.07951793832646459e+01
1 -2.45922917327707431e+01 3.05269746485664086e+01 -1.49657875627833441e+01
1 -4.31884837989182557e+01 -7.28650267805472112e+01 1.29852609456894186e+00
8
Step 36000
1 6.93689816284802134e+01 -1.25316567985278340e+02 -5.37392870231636692e+01
1 4.00315833279956550e+01 8.43780149844177032e+01 -2.74827697518752458e+01
1 9.79675722537951543e+00 5.96327852300454495e+01 -8.77859289976104691e+01
1 3.07921822428428271e+01 7.23084101110327993e+01 -3.65451727472019954e+01
1 -5.63146874269046407e+01 1.00958255835180175e+01 -5.41707354457375558e+01
1 -1.30074566381888133e+01 2.22794494169487329e+01 5.56272262224344729e+01
1 1.70867585401183941e+00 -2.51059090688684101e+01 -1.51725063207675657e+01
1 5.44802360180061527e+01 9.83550044541286894e+01 -1.30517647258554650e+01
8
Step 37000
1 -5.09525719361908855e+01 5.72147933981279309e+01 6.31429271803512790e+01
1 -1.15797226258729058e+01 -1.30329189561618051e+02 8.55862334662299773e-01
1 4.59318523483509509e+01 -5.17122606605470878e+01 2.84471188573620992e+01
1 -1.46647250949232522e+01 -6.62584204250056246e+01 -1.49174583876400053e+01
1 3.12014914610332887e+01 -6.05697295249302599e+01 6.27302244579604107e+01
1 -7.56043220581200970e+00 -3.20751462427258645e+01 -3.65859781484089837e+01
1 2.50065110784256781e+01 1.89220914212151960e+01 3.80589988696415844e+01
1 -5.98849471152540076e+01 -9.29162597445799037e+01 1.97228036482338744e+01
8
Step 38000
1 1.48726062600739084e+01 2.34814562897790431e+01 -3.34362286544697227e+01
1 -1.48603651582544476e+01 1.37221465757691476e+02 6.40589485433794792e+00
1 -6.94539079670364856e+01 2.38596723131303783e+01 2.37077775184281059e+01
1 -1.65436242695260383e+01 5.45152014831092870e+01 5.21359898249906024e+01
1 -1.85399340610542538e+01 8.91425856831353229e+01 -7.07340751989071492e+01
1 9.15563189613742701e+00 3.90184983783703672e+01 1.90022475567026596e+01
1 -5.21040240660747997e+01 -8.51157996819690688e+00 -3.93172575871507135e+01
1 5.19815370246476220e+01 6.29000076641292765e+01 -1.49941454663746239e+01
8
Step 39000
1 1.44998569607090531e+01 -7.42186545451482687e+01 -2.81040078028586215e+01
1 3.44971043958121726e+01 -9.90567727911751774e+01 1.32186833476694776e+01
1 6.49921834581123505e+01 1.38476375391062945e+01 -4.75695315900547868e+01
1 4.66304972865725489e+01 -4.35710188329843078e+01 -5.98294418979397804e+01
1 2.33455009239578111e+01 -8.97564856433570242e+01 7.46133513770195407e+01
1 4.18839133369633299e-01 -3.03217313494539447e+01 -8.83705553994201765e+00
1 6.34308162736964150e+01 -7.39762726356953326e+00 1.79552097221329312e+01
1 -3.59365309435451650e+01 -2.43590153275557775e+01 3.15241050347881702e+00
8
Step 40000
1 -1.68237594472424377e+01 6.93385957959423109e+01 9.51310703305529302e+01
1 -4.12685080629489320e+01 3.69040963876615322e+01 -5.00649444951258786e+01
1 -3.76452704745330067e+01 -4.09986318321699770e+01 3.53625961940051994e+01
1 -5.32300502308955572e+01 3.67800265730054008e+01 2.50069224682869518e+01
1 -4.03497595481461175e+01 6.31245770590337258e+01 -6.90414582125003022e+01
1 -7.77719652438422759e+00 7.37523594085270906e-01 7.22401996687460368e+00
1 -4.31218542965116853e+01 2.90943412030949276e+01 1.82063670586967348e+01
1 1.81074969304787778e+01 -7.29143280996955045e+00 2.75999379922053789e+00
8
Step 41000
1 -1.06168981295582334e+01 -2.40670960896447994e+01 -1.34723280067988128e+02
1 3.91519708339896439e+01 5.40343445295612046e+00 8.46680243847847720e+01
1 -5.83456975557516522e-01 3.65240774214335531e+01 -1.34672970146233317e+00
1 3.41105056125216990e+01 -3.65706431355464758e+01 4.97656772028480248e+01
1 5.78150304390319434e+01 -2.55527777305915258e+01 5.08162945901181757e+01
1 2.33439262084844279e-01 4.45427108970834240e+01 -7.38366736968764670e+00
1 -7.19280618756451950e+00 -5.51954182465827401e+01 -5.19402501660487417e+01
1 -1.02217041342641775e+01 2.05219702480061947e+01 6.86487950829840177e+00
8
Step 42000
1 5.02941044383032150e+01 -2.50119608899690604e+01 1.20450196946495026e+02
1 -3.95212967760792040e+01 -6.02778414257370221e-01 -9.70284938424968715e+01
1 3.33391203028533170e+01 5.39191235222189835e+00 -3.79600933248464969e+01
1 1.49490902224660660e-01 4.21962354646559916e+01 -1.31442841596619871e+02
1 -5.70269772007066109e+01 -3.07279743486053958e+00 -1.79826561066623576e+01
1 1.92069888356080725e+01 -8.15463648444479929e+01 -1.88607113006792937e+00
1 6.44657415708603736e+01 7.56254499408974397e+01 6.34703815628455388e+01
1 1.41013069710566832e+01 -1.44225689009429114e+01 -2.29171206032623118e+01
8
Step 43000
1 -7.32205739955913799e+01 4.34779989373686391e+01 -6.90725142284259874e+01
1 4.42586937169643022e+01 -3.94360272416822113e+01 7.36598486215102071e+01
1 -4.06804993430831985e+01 -6.13800850925951167e+01 6.29606519298020118e+01
1 -3.61405907142966498e+01 -4.03050028302692525e+01 1.66601361513087511e+02
1 2.63194204396072848e+01 1.94089706340499046e+00 -1.31461796327587503e+01
1 -3.75274778472945698e+01 8.77968433187269852e+01 2.73124810848618722e+01
1 -9.11114407689120895e+01 -7.26026673972565675e+01 -4.59871360699645493e+01
1 -9.52786617156835014e+00 -4.24833824507586932e+00 3.30827728733980706e+01
8
Step 44000
1 6.83638411557244012e+01 -3.73178927511108043e+01 1.22732178694382306e+01
1 -4.94607441334163838e+01 7.53881298865585592e+01 -3.35438841352018144e+01
1 2.31179818017326539e+01 1.02744766679838435e+02 -5.66287226088708593e+01
1 5.55102122928328114e+01 2.95029644798527784e+01 -1.47740457020314636e+02
1 1.79816262592955596e+01 2.60779788792507681e+01 2.86330622306747600e+01
1 4.44850934278450794e+01 -6.22845131604100644e+01 -6.23677399929639478e+01
1 7.37740710841873124e+01 4.95761876147049279e+01 1.54414800638472123e+01
1 -1.50888472536046887e+01 2.55598529799694347e+01 -3.56990783714913533e+01
8
Step 45000
1 -4.44748296879981311e+01 2.66640939146841411e+01 3.15287143594010963e+01
1 4.89659490599380405e+01 -8.40354050911235646e+01 2.39070500286889809e+00
1 4.97845061978254577e+00 -1.21438673047626736e+02 3.16441489766478199e+01
1 -5.14431327856452185e+01 -1.96849076094352995e+01 1.00976870919725570e+02
1 -6.00461889854003488e+01 -6.58228233055535839e+01 -2.59149221637085994e+01
1 -4.04084647831372905e+01 1.89170370033358743e+01 9.25616739527420265e+01
1 -2.83558916034538200e+01 -1.89262919198197466e+01 1.02118193646724613e+01
1 5.22262131071429820e+01 -3.75118411983365760e+01 2.79994525152317948e+01
8
Step 46000
1 1.66429757403083514e+01 -1.83917337700868231e+01 -5.03006175155560058e+01
1 -4.57253004615688710e+01 6.28899063934950675e+01 9.43680471563400047e+00
1 -3.81306134938880845e+01 1.24252924851792542e+02 -1.39771622019038233e+01
1 2.80467283596125085e+01 1.35520774234828565e+01 -5.15615077276231943e+01
1 9.57375455185273694e+01 1.04416693333373672e+02 1.16467219151174319e+01
1 3.07344675094219859e+01 3.54576906639394309e+01 -1.08727212486769716e+02
1 -2.56056982555369785e+01 -9.53879233868259213e+00 -2.43299764491776251e+01
1 -9.31221301277540618e+01 3.56353489849372167e+01 -1.36296971339087225e+01
8
Step 47000
1 4.22944442426276623e+00 5.24944311505453065e+00 3.30806300326418139e+01
1 3.08085468877123994e+01 -4.23644566005827716e+00 -3.14339683091758548e+00
1 6.00200797564196264e+01 -9.71266947925633275e+01 1.14262584094881419e+01
1 1.19728817283249640e+01 -1.46805356986980620e+01 7.39487602164778224e+00
1 -1.03589131161374453e+02 -1.09546415206257990e+02 1.14023495197514055e+01
1 -1.72429177210658544e+01 -8.66216435002035894e+01 8.21581771893708179e+01
1 6.48198801923762034e+01 2.54810670619693163e+01 2.30644350809062608e+01
1 1.09724458934589506e+02 -1.81228956167140929e+01 -5.51721559952434948e+00
8
Step 48000
1 -8.28833087662422940e+00 1.68580350684812430e+01 1.87426700126737322e+00
1 -8.01347092287653595e+00 -5.63080054585344669e+01 -6.19118814420670649e+00
1 -5.67136997264430534e+01 5.76482416954221080e+01 -2.17183113814538089e+01
1 -4.73540714013490884e+01 2.94751338105884280e+01 1.21584225091664564e+01
1 8.61403349852811431e+01 7.20287591411244250e+01 -3.42525040211230092e+01