8
Step 0
1 -8.19206160314889189e+01 1.17668904556741950e+02 -2.97033021598792288e+01
1 -7.93215895090458929e+01 1.05023888631320204e+02 1.14341465972535332e+02
1 7.67622396710342514e+01 -1.29821115290509368e+02 -1.21067231261382062e+01
1 6.05098360353093767e+01 -1.76383016719461523e+01 1.43337446912598296e+02
1 4.09961205751411057e+01 -1.00249624765939416e+00 -6.52395336848756102e+01
1 4.68569894558842748e+00 7.04339154594725301e+01 -1.42510060823431303e+02
1 6.68875296348806216e+01 3.46813864137929215e+01 -1.09812060627859424e+02
1 1.96611271123377378e+01 1.37028237639027111e+02 1.00395745506992483e+02
8
Step 10
1 -7.41964467286397564e+01 1.14542803693229686e+02 -3.22195563506236624e+01
1 -8.50205485880289729e+01 9.69903269803694315e+01 1.20580660061145338e+02
1 7.00491305815900773e+01 -1.33550788523936291e+02 -4.12428678078596178e+00
1 5.57913924035258333e+01 -1.82346810253486353e+01 1.48467023231808781e+02
1 4.68642686943365376e+01 -5.33415471641861227e+00 -5.95168381147992704e+01
1 1.72085353873406746e+01 8.29584060570667674e+01 -1.45737269319082486e+02
1 6.68670651603406014e+01 2.86616575307260248e+01 -1.10079820417801187e+02
1 1.75800185743462762e+01 1.29220852005410848e+02 1.08487257326127391e+02
8
Step 20
1 -6.58023054383645558e+01 1.10961853356454597e+02 -3.42610385581441861e+01
1 -8.91630624666802163e+01 8.76441824738741389e+01 1.25129085681973550e+02
1 6.28161231015547799e+01 -1.36395767185802043e+02 4.32630844413591475e+00
1 5.11037688652878259e+01 -1.82195615123435743e+01 1.51795463142641154e+02
1 5.23646770945164164e+01 -9.36024087248301484e+00 -5.27377799524655941e+01
1 3.02580787231678094e+01 9.43537837165042248e+01 -1.47704542847353196e+02
1 6.60815931732277733e+01 2.27110214740416758e+01 -1.10159085316864335e+02
1 1.55943977129498208e+01 1.20541882711297859e+02 1.14861702357033721e+02
8
Step 30
1 -5.67583180531442366e+01 1.06946161431275016e+02 -3.58027520139969440e+01
1 -9.17214479882047442e+01 7.70869364796889727e+01 1.27868319476646889e+02
1 5.50937315801425171e+01 -1.38350519741217511e+02 1.30967249659989253e+01
1 4.65004871372620840e+01 -1.76469749285402457e+01 1.53339445587431669e+02
1 5.74410829808495507e+01 -1.30726459703167244e+01 -4.50247706773593137e+01
1 4.36893132630562775e+01 1.04555297334187244e+02 -1.48393850100449868e+02
1 6.45336105422503721e+01 1.68662814755966828e+01 -1.10053950630909839e+02
1 1.36896418075670923e+01 1.11082315767225353e+02 1.19429433886275731e+02
8
Step 40
1 -4.70945991085230986e+01 1.02516726180136288e+02 -3.68254086664585145e+01
1 -9.26943927201837568e+01 6.54392193903849773e+01 1.28707608907187222e+02
1 4.69203277889521075e+01 -1.39416470178802172e+02 2.20328287391526771e+01
1 4.20294587213397364e+01 -1.65792414763245510e+01 1.53142351628016968e+02
1 6.20410876632347055e+01 -1.64661930596384138e+01 -3.65145349521708695e+01
1 5.73472533605131076e+01 1.13514462103927173e+02 -1.47805476744002675e+02
1 6.22365873894331969e+01 1.11602923243445087e+01 -1.09765060659871779e+02
1 1.18507553346580252e+01 1.00938716581181367e+02 1.22127372173831859e+02
8
Step 50
1 -3.68515637123963344e+01 9.76955381779072525e+01 -3.73156397932723962e+01
1 -9.21067288186322060e+01 5.28394163817996656e+01 1.27585323827280504e+02
1 3.83420018648484060e+01 -1.39601832594262248e+02 3.09769565386031971e+01
1 3.77325903289288149e+01 -1.50856570245899455e+01 1.51273535397267892e+02
1 6.61167429760451171e+01 -1.95384647825182078e+01 -2.73559425582783113e+01
1 7.10687465255958841e+01 1.21199176523009669e+02 -1.45957948803089664e+02
1 5.92147790498175581e+01 5.62164398337429283e+00 -1.09289564358490182e+02
1 1.00627986418128810e+01 9.02119862067273459e+01 1.22919906266542981e+02
8
Step 60
1 -2.60800833798959282e+01 9.25057293620838976e+01 -3.72661768163237426e+01
1 -9.00088813777408205e+01 3.94420249651223713e+01 1.24470096549155429e+02
1 2.94123087477251062e+01 -1.38921469551697243e+02 3.97702596670355106e+01
1 3.36454973946526792e+01 -1.32411079333381601e+01 1.47827279145136970e+02
1 6.96251417000572275e+01 -2.22896588851980759e+01 -1.77076655959417337e+01
1 8.46844589053525851e+01 1.27593717240679439e+02 -1.42887735936746566e+02
1 5.55029278834219681e+01 2.74403333936576121e-01 -1.08621181314338997e+02
1 8.31128343998884844e+00 7.90061378598130517e+01 1.21799520233717274e+02
8
Step 70
1 -1.48414545643802587e+01 8.69717519635371303e+01 -3.66759951592845823e+01
1 -8.64759754265857197e+01 2.54157398647313073e+01 1.19361616130280865e+02
1 2.01918819521553523e+01 -1.37396765372257477e+02 4.82551242060055330e+01
1 2.97973194937992218e+01 -1.11246194180812932e+01 1.42921411186665580e+02
1 7.25290071726932268e+01 -2.47224736933351501e+01 -7.73565651836779633e+00
1 9.80210589226758060e+01 1.32698610568011560e+02 -1.38648720164707186e+02
1 5.11458423143094620e+01 -4.86208666765507136e+00 -1.07750377279412589e+02
1 6.58252975086113068e+00 6.74270813626265948e+01 1.18787115745971988e+02
8
Step 80
1 -3.20714822197496252e+00 8.11195677561093618e+01 -3.55504090107060193e+01
1 -8.16065770641513240e+01 1.09412433781571536e+01 1.12291025262278296e+02
1 1.07478972154596129e+01 -1.35055498030926856e+02 5.62776581082685183e+01
1 2.62106346978551095e+01 -8.81784429254351032e+00 1.36695558700768430e+02
1 7.47972701316888191e+01 -2.68420213577072140e+01 2.38955177924290929e+00
1 1.10903603978164412e+02 1.36530367233903490e+02 -1.33311408848943273e+02
1 4.61978365714545802e+01 -9.77334789930534598e+00 -1.06664646458261373e+02
1 4.86397971037912136e+00 5.55814039681610836e+01 1.13931986912836521e+02
8
Step 90
1 8.74168785061128695e+00 7.49768270278934921e+01 -3.39011012952133015e+01
1 -7.55210423404331408e+01 -3.79131047248319675e+00 1.03320856850303471e+02
1 1.15337232842441595e+00 -1.31931688089150157e+02 6.36902212152623548e+01
1 2.29014729961349452e+01 -6.40350288547801583e+00 1.29309008522892043e+02
1 7.64056140628627247e+01 -2.86557627806983746e+01 1.24957105457885831e+01
1 1.23158118606067191e+02 1.39121057951322939e+02 -1.26961868920905872e+02
1 4.07220141838738954e+01 -1.44498425370822670e+01 -1.05348895242126687e+02
1 3.14446421646397312e+00 4.35751405986189582e+01 1.07311393373145279e+02
8
Step 100
1 2.09149945334513632e+01 6.85730170748533681e+01 -3.17460716030605603e+01
1 -6.83594535873179012e+01 -1.85851126011307031e+01 9.25444448835390858e+01
1 -8.51370372823534005e+00 -1.28065400590203097e+02 7.03539576165813827e+01
1 1.98794311660582217e+01 -3.96379137297835804e+00 1.20938159068108533e+02
1 7.73369648373473382e+01 -3.01734550830233204e+01 2.24118540751686446e+01
1 1.34614332001622302e+02 1.40517702935118507e+02 -1.19700363403963664e+02
1 3.47893817498796665e+01 -1.88869753890546797e+01 -1.03785919044222979e+02
1 1.41441899334697796e+00 3.15125341081148846e+01 9.90296761122571212e+01
8
Step 110
1 3.32148436851481748e+01 6.19395619155059762e+01 -2.91094856591188744e+01
1 -6.02791370491728813e+01 -3.32397885284288179e+01 8.00847522154115694e+01
1 -1.81714097719197092e+01 -1.23502476382233695e+02 7.61412730694452051e+01
1 1.71478923402897721e+01 -1.57878367810040299e+00 1.11773564829616674e+02
1 7.75818970675470041e+01 -3.14071005040991089e+01 3.19713826227975488e+01
1 1.45108520773316457e+02 1.40781449502838541e+02 -1.11639681332858714e+02
1 2.84777867659972976e+01 -2.30850145170162584e+01 -1.01956960452144088e+02
1 -3.33952602837225054e-01 1.94947956107918010e+01 8.92168686539692004e+01
8
Step 120
1 4.55367511479460774e+01 5.51098582811514959e+01 -2.60214132241040268e+01
1 -5.14517767265625352e+01 -4.75547080499780392e+01 6.60925767179962946e+01
1 -2.77350857194416704e+01 -1.18294172898641790e+02 8.09381860865737508e+01
1 1.47043526801171502e+01 6.75139848142336518e-01 1.02016599784185402e+02
1 7.71389290274428561e+01 -3.23708849030719747e+01 4.10151590428324653e+01
1 1.54486381952591472e+02 1.39986518418321538e+02 -1.02903167473470603e+02
1 2.18706837418844593e+01 -2.70489222234110613e+01 -9.98423333399617405e+01
1 -2.10657166428657439e+00 7.61888481762160996e+00 7.80267741599333675e+01
8
Step 130
1 5.77712373748114629e+01 4.81192375711362104e+01 -2.25174468950768691e+01
1 -4.20601650696861213e+01 -6.13324370153940777e+01 5.07441257338903142e+01
1 -3.71186545303146644e+01 -1.12496700680844626e+02 8.46464722455123564e+01
1 1.25408549842385995e+01 2.72679695963930646e+00 9.18757946634335241e+01
1 7.60146805109922781e+01 -3.30810945890187327e+01 4.93945318338688537e+01
1 1.62605844663011027e+02 1.38218911088628914e+02 -9.36224772278226709e+01
1 1.50557453295504136e+01 -3.07880907516671201e+01 -9.74220942690416507e+01
1 -3.90743092118820190e+00 -4.02366075797375355e+00 6.56345052039334433e+01
8
Step 140
1 6.98055953649169254e+01 4.10048490522827720e+01 -1.86382015766530564e+01
1 -3.22946584145017752e+01 -7.43822321604451417e+01 3.42379841204501290e+01
1 -4.62360360259517620e+01 -1.06170650226332327e+02 8.71855192101015319e+01
1 1.06445249902187342e+01 4.51159706119616377e+00 8.15629318131519057e+01
1 7.42238736004102009e+01 -3.35560019837569357e+01 5.69741860908626734e+01
1 1.69339719061176737e+02 1.35574884786061432e+02 -8.39351025491309599e+01
1 8.12334827098949575e+00 -3.43159807410724014e+01 -9.46767399123409206e+01
1 -5.73859553263312616e+00 -1.53478122802845185e+01 5.22335149205485578e+01
8
Step 150
1 8.15258101137541757e+01 3.38054656654503702e+01 -1.44287026311814621e+01
1 -2.23494302600913528e+01 -8.65234655869877116e+01 1.67915395635543483e+01
1 -5.50026068990461283e+01 -9.93803131790865564e+01 8.84938159729194638e+01
1 8.99820106343477022e+00 5.97277897868110941e+00 7.12890063717824063e+01
1 7.17891645325941568e+01 -3.38157134075829617e+01 6.36347207205785637e+01
1 1.74578080153083363e+02 1.32159219878111571e+02 -7.39817340007706434e+01
1 1.16497594162827856e+00 -3.76496651761327144e+01 -9.15879078090025871e+01
1 -7.60025402457341936e+00 -2.62760131141088813e+01 3.80321822065654374e+01
8
Step 160
1 9.28185619962150241e+01 2.65612198149592658e+01 -9.93767891387658153e+00
1 -1.24186351121122893e+01 -9.75888603569053998e+01 -1.36303438413100331e+00
1 -6.33366557177204612e+01 -9.21929113781005896e+01 8.85300139407696207e+01
1 7.58114259271228530e+00 7.06245171095031310e+00 6.12601801423465702e+01
1 6.87408048569767942e+01 -3.38819757600393459e+01 6.92748564042573349e+01
1 1.78230292748969504e+02 1.28083319439230735e+02 -6.39035396773292561e+01
1 -5.72841150022702372e+00 -4.08092866890458978e+01 -8.81390578429701606e+01
1 -9.49081394629481956e+00 -3.67389815586078115e+01 2.32500454950264945e+01
8
Step 170
1 1.03573240014871629e+02 1.93132818390621210e+01 -5.21678403652117328e+00
1 -2.69260672944810331e+00 -1.07427424026293963e+02 -1.99831066073394048e+01
1 -7.11607804976845131e+01 -8.46777557256847047e+01 8.72735185605383208e+01
1 6.36979747100285287e+00 7.74240453629306469e+00 5.16738620387976439e+01
1 6.51161407543278870e+01 -3.37779426392583844e+01 7.38131941479363149e+01
1 1.80226601766015023e+02 1.23463195407308902e+02 -5.38394513506920873e+01
1 -1.24679832161380766e+01 -4.38174409461192695e+01 -8.43161136103926623e+01
1 -1.14070350430784231e+01 -4.66763198851245065e+01 8.11380518833157360e+00
8
Step 180
1 1.13683890674445436e+02 1.21034978870413106e+01 -3.19774351746656804e-01
1 6.64578465085381165e+00 -1.15906982676772856e+02 -3.88200770475023162e+01
1 -7.84031798118363241e+01 -7.69053632031010039e+01 8.47245960333813599e+01
1 5.33860523294865530e+00 7.98466384957097031e+00 4.27150448975573909e+01
1 6.09589694703613176e+01 -3.35279040537398245e+01 7.71894674866017994e+01
1 1.80519237630507860e+02 1.18417404755757715e+02 -4.39235504219881747e+01
1 -1.89685637373549127e+01 -4.66985028363334251e+01 -8.01080462257252606e+01
1 -1.33441914013440730e+01 -5.60369053809255604e+01 -7.14676934951291543e+00
8
Step 190
1 1.23051034601169590e+02 4.97400615381485345e+00 4.69832538826213231e+00
1 1.54245016135160853e+01 -1.22916242526702689e+02 -5.76238677184697323e+01
1 -8.49987961712402438e+01 -6.89465638462161792e+01 8.09040073159501389e+01
1 4.46081028696320558e+00 7.77178728361521731e+00 3.45530129050218662e+01
1 5.63187800773555765e+01 -3.31569868884087740e+01 7.93652599506999792e+01
1 1.79083016823319412e+02 1.13065002689313829e+02 -3.42826405486387173e+01
1 -2.51500276747872284e+01 -4.94779147814530091e+01 -7.55073877821604498e+01
1 -1.52962533051889640e+01 -6.47790504905359796e+01 -2.23028885383180722e+01
8
Step 200
1 1.31583295227968478e+02 -2.03314947359652409e+00 9.78203831711920024e+00
1 2.34853406724407066e+01 -1.28366336647449600e+02 -7.61472655543526997e+01
1 -9.08902816714013539e+01 -6.08716296474652907e+01 7.58522077095426397e+01
1 3.70925950581440134e+00 7.09689944531568973e+00 2.73385087150585910e+01
1 5.12499111954341657e+01 -3.26908353238773515e+01 8.03241898589464967e+01
1 1.75915449008680810e+02 1.07523577150672409e+02 -2.50340807767334113e+01
1 -3.09385214879118848e+01 -5.21814574262665474e+01 -7.05106670558768229e+01
1 -1.72560795619816965e+01 -7.28704320554981564e+01 -3.71306161905848313e+01
8
Step 210
1 1.39198800369535178e+02 -8.87639137427410141e+00 1.48762068332635504e+01
1 3.06864973920236643e+01 -1.32191846870833842e+02 -9.41499871278858791e+01
1 -9.60287692603395442e+01 -5.27494541608619940e+01 6.96281716872165362e+01
1 3.05716021885204592e+00 5.96348628764756938e+00 2.12014177744432715e+01
1 4.58106602528268212e+01 -3.21552812401392529e+01 8.00715931299926353e+01
1 1.71036390768842239e+02 1.01907420358897070e+02 -1.62839342962654428e+01
1 -3.62674838631038483e+01 -5.48345222435568687e+01 -6.51187653923607854e+01
1 -1.92156118161284262e+01 -8.02878026311839079e+01 -5.14144573726315528e+01
8
Step 220
1 1.45826336111327691e+02 -1.55149527565124252e+01 1.99266982061893003e+01
1 3.69046581798596023e+01 -1.34351321517799818e+02 -1.11402366163688114e+02
1 -1.00374446730415244e+02 -4.46468055134525414e+01 6.23079166842392524e+01
1 2.47877808326525217e+00 4.38497523243272358e+00 1.62489936422198689e+01
1 4.00623772147847319e+01 -3.15760142124323941e+01 7.86337581479853611e+01
1 1.64487308179630219e+02 9.63258799554127876e+01 -8.12546601696064918e+00
1 -4.10784511455313179e+01 -5.74614034714052693e+01 -5.93371952674784282e+01
1 -2.11660637693372777e+01 -8.70165084653710039e+01 -6.49505787065373283e+01
8
Step 230
1 1.51406250613794981e+02 -2.19091871565718215e+01 2.48810311136242959e+01
1 4.20366113134752197e+01 -1.34827334321853670e+02 -1.27688601453917130e+02
1 -1.03896942889448084e+02 -3.66276674531342579e+01 5.39828049940954457e+01
1 1.95005887370907249e+00 2.38413458497597297e+00 1.25646166204649763e+01
1 3.40685708749213347e+01 -3.09782591785780497e+01 7.60567821987093424e+01
1 1.56330223729370772e+02 9.08819165265453819e+01 -6.37999912543378733e-01
1 -4.53216489344962881e+01 -6.00846237733684134e+01 -5.31763071191167569e+01
1 -2.30981000629990909e+01 -9.30498477350532909e+01 -7.75496124862602016e+01
8
Step 240
1 1.55891120788816977e+02 -2.80208410882977503e+01 2.96889178863044947e+01
1 4.60003953126894913e+01 -1.33626146095135567e+02 -1.42809540026715609e+02
1 -1.06575544801471224e+02 -2.87526741652600535e+01 4.47576996749424580e+01
1 1.44916326636412229e+00 -7.67190021054214855e-03 1.02070526966928004e+01
1 2.78940486633700786e+01 -3.03864675554659414e+01 7.24051253784926701e+01
1 1.46646426280068937e+02 8.56708780405284358e+01 6.11387270958061357e+00
1 -4.89563835156397857e+01 -6.27243046682506957e+01 -4.66514312893663075e+01
1 -2.50020015958377222e+01 -9.83883082308714876e+01 -8.90390288591786145e+01
8
Step 250
1 1.59246205491974536e+02 -3.38132936138114175e+01 3.43027247018467989e+01
1 4.87360210905048348e+01 -1.30777037013451036e+02 -1.56585003174621733e+02
1 -1.08399270491074674e+02 -2.10786361387013592e+01 3.47490398492446957e+01
1 9.56908552333178397e-01 -2.75134098573260477e+00 9.21016328097894110e+00
1 2.16041026781899603e+01 -2.98240249585192636e+01 6.77599354587487568e+01
1 1.35535016405251383e+02 8.07794872433886439e+01 1.20807579756781145e+01
1 -5.19512558171765093e+01 -6.53975896964979455e+01 -3.97829612321405222e+01
1 -2.68678159793437032e+01 -1.03038725541511496e+02 -9.92650885045901958e+01
8
Step 260
1 1.61449713915530708e+02 -3.92517710192637566e+01 3.86778578816674496e+01
1 5.02058139482072008e+01 -1.26331374265322992e+02 -1.68855687262419224e+02
1 -1.09366822744375796e+02 -1.36581474963776142e+01 2.40828854005103210e+01
1 4.57115362533582315e-01 -5.80096668321104403e+00 9.58300949374588740e+00
1 1.52637465773084582e+01 -2.93129762131433829e+01 6.22172076498696782e+01
1 1.23111345509315797e+02 7.62850270156536965e+01 1.72286303889880124e+01
1 -5.42842252600521888e+01 -6.81181259294948944e+01 -3.25963818082953338e+01
1 -2.86854934426335113e+01 -1.07013401146321897e+02 -1.08094408407367013e+02
8
Step 270
1 1.62492917285797944e+02 -4.43035474577995743e+01 4.27730881775267306e+01
1 5.03944225325023893e+01 -1.20361469092229655e+02 -1.79484684863711692e+02
1 -1.09486446981687394e+02 -6.53926074409525526e+00 1.28929638119270074e+01
1 -6.31394084947776435e-02 -9.10483429059211069e+00 1.13102970981318958e+01
1 8.93700123033194416e+00 -2.88737664590620504e+01 5.58858292126760077e+01
1 1.09505388671381525e+02 7.22547021029385803e+01 2.15387461442532562e+01
1 -5.59425511990691788e+01 -7.08956080367840258e+01 -2.51222430804328276e+01
1 -3.04450096269470407e+01 -1.10329215348708047e+02 -1.15415183755916090e+02
8
Step 280
1 1.62380126701879817e+02 -4.89381430778837725e+01 4.65508262514653239e+01
1 4.93085358482258869e+01 -1.12959261841585999e+02 -1.88358674438353319e+02
1 -1.08775710570520317e+02 2.34786783946946076e-01 1.31873569742890862e+00
1 -6.13360322944536018e-01 -1.26064549532659065e+01 1.43531174318199071e+01
1 2.68622245783897995e+00 -2.85249961172986062e+01 4.88855434773177961e+01
1 9.48600716116974922e+01 6.87451536904032992e+01 2.50073327809227806e+01
1 -5.69226362842166580e+01 -7.37353887221273823e+01 -1.73960762740721648e+01
1 -3.21364772865763797e+01 -1.13006763641327765e+02 -1.21138109716629629e+02
8
Step 290
1 1.61128551595346153e+02 -5.31275298293616984e+01 4.99773616014761899e+01
1 4.69763387932183178e+01 -1.04234856876243740e+02 -1.95388819951031905e+02
1 -1.07261213703110627e+02 6.62580946802000703e+00 -1.04965171441194371e+01
1 -1.19955764985961322e+00 -1.62456297650263082e+01 1.86499528604303499e+01
1 -3.42853780299088085e+00 -2.82831874199400382e+01 4.13448539238534849e+01
1 7.93295547884561785e+01 6.58021054439479798e+01 2.76450832058351601e+01
1 -5.72297901566278924e+01 -7.66381597281520897e+01 -9.45824526305988122e+00
1 -3.37502489532625916e+01 -1.15069537943923478e+02 -1.25197039425727979e+02
8
Step 300
1 1.58768043751020429e+02 -5.68463521541814245e+01 5.30230744176166198e+01
1 4.34467243484723866e+01 -9.43149141665844724e+01 -2.00511408331282553e+02
1 -1.04978234497272027e+02 1.26008843290756509e+01 -2.24075850213253176e+01
1 -1.82425380333513587e+00 -1.99595364183600665e+01 2.41179290862923565e+01
1 -9.35014498636982161e+00 -2.81625610247909037e+01 3.33988787777115093e+01
1 6.30774649293023444e+01 6.34601247919426115e+01 2.94764744103030090e+01
1 -5.68779248083899631e+01 -7.95997084429933750e+01 -1.35372474092415529e+00
1 -3.52770122113404341e+01 -1.16543167159624517e+02 -1.27549401650831982e+02
8
Step 310
1 1.55340722989073214e+02 -6.00721656428519637e+01 5.56626259137982160e+01
1 3.87882693037968309e+01 -8.33408936139321526e+01 -2.03688235942757586e+02
1 -1.01970304585497800e+02 1.81325429095069950e+01 -3.42692109801120779e+01
1 -2.48656777002282059e+00 -2.36838331171870315e+01 3.06543081648702049e+01
1 -1.50249753494381739e+01 -2.81748227386104304e+01 2.51871613755091417e+01
1 4.62750578236783383e+01 6.17424899790148487e+01 3.05389236560763315e+01
1 -5.58891860334074693e+01 -8.26107559968699690e+01 6.86820435708463428e+00
1 -3.67078785042166729e+01 -1.17454725394906518e+02 -1.28176386376867157e+02
8
Step 320
1 1.50900474046742801e+02 -6.27856920919249006e+01 5.78751282872074313e+01
1 3.30879724861673168e+01 -7.14671431639658579e+01 -2.04906738776517528e+02
1 -9.82887071329658397e+01 2.31989451632261172e+01 -4.59379616702068887e+01
1 -3.18237348266072573e+00 -2.73537738478888990e+01 3.81382231084069616e+01
1 -2.04034903832700749e+01 -2.83289622501203233e+01 1.68514416684394277e+01
1 2.90992964152527378e+01 6.06611603554281587e+01 3.08817891124909885e+01
1 -5.42935198109296380e+01 -8.56568831931136003e+01 1.51543503702368820e+01
1 -3.80344655041969020e+01 -1.17832111435262775e+02 -1.27082892196100445e+02
8
Step 330
1 1.45512301008344167e+02 -6.49710848667485408e+01 5.96442913003635340e+01
1 2.64497513493462257e+01 -5.88588230808357196e+01 -2.04179847975824771e+02
1 -9.39918875763860058e+01 2.77840310372808226e+01 -5.72740841567854417e+01
1 -3.90452797577860355e+00 -3.09053265357741402e+01 4.64326562674207182e+01
1 -2.54407881124206838e+01 -2.86310676871742515e+01 8.53339905620197570e+00
1 1.17308346104439760e+01 6.02168532058394206e+01 3.05652189748872267e+01
1 -5.21281689831421602e+01 -8.87185503358260945e+01 2.34481024832311746e+01
1 -3.92489721832046143e+01 -1.17703499832909273e+02 -1.24297218488661599e+02
8
Step 340
1 1.39251526332296294e+02 -6.66161946363544928e+01 6.09585391464080359e+01
1 1.89926950317981458e+01 -4.56896658941668790e+01 -2.01545544806301450e+02
1 -8.91447685817772850e+01 3.18776409324104364e+01 -6.81433347183235867e+01
1 -4.64316458799278475e+00 -3.42762817648955007e+01 5.53866590900170905e+01
1 -3.00971222183860405e+01 -2.90841614362661218e+01 3.72384981953971517e-01
1 -5.64809158343893536e+00 6.03992342168992664e+01 2.96588534532126040e+01
1 -4.94370946029128717e+01 -9.17712157884478046e+01 3.16900188392157780e+01
1 -4.03442449625031330e+01 -1.17096862177718336e+02 -1.19870479852716386e+02
8
Step 350
1 1.32202826036672462e+02 -6.77128228723552894e+01 6.18110891763000083e+01
1 1.08490792429825049e+01 -3.21395831882647727e+01 -1.97066088564599909e+02
1 -8.38179645469797237e+01 3.54755931742886617e+01 -7.84187554002150478e+01
1 -5.38604541103042056e+00 -3.74073354581692072e+01 6.48378011536848788e+01
1 -3.43383757653860755e+01 -2.96880637304869559e+01 -7.49682638995301875e+00
1 -2.28558498855377650e+01 6.11872298815708007e+01 2.82403875538309137e+01
1 -4.62703178263445523e+01 -9.47855558878629409e+01 3.98185059901645886e+01
1 -4.13138328094658860e+01 -1.16039556551779938e+02 -1.13875721024648954e+02
8
Step 360
1 1.24459100301066997e+02 -6.82569493067823601e+01 6.21999834775491749e+01
1 2.16215944729205622e+00 -1.83921446395373778e+01 -1.90826897336496899e+02
1 -7.80868968298811552e+01 3.85797053537119368e+01 -8.79823650849852328e+01
1 -6.11896571782767662e+00 -4.02431250954452793e+01 7.46148231324629592e+01
1 -3.81364736051525597e+01 -3.04392908501629655e+01 -1.49462314835520544e+01
1 -3.97136440925457137e+01 6.25494686212569064e+01 2.63940086212646854e+01
1 -4.26831818348313448e+01 -9.77277857928151974e+01 4.77705783882459372e+01
1 -4.21520289678293594e+01 -1.14557983475230472e+02 -1.06406717563514377e+02
8
Step 370
1 1.16120188538152732e+02 -6.82489199542113028e+01 6.21280652316054756e+01
1 -6.91622796872781542e+00 -4.63196924274632149e+00 -1.82935074074402081e+02
1 -7.20308178964946251e+01 4.11977470013289562e+01 -9.67267257111115129e+01
1 -6.82620142579693212e+00 -4.27331964947128995e+01 8.45404537359044639e+01
1 -4.14697166964602246e+01 -3.13309943293696058e+01 -2.18566891875688682e+01
1 -5.60477494141787602e+01 6.44448534788952827e+01 2.42087300987933460e+01
1 -3.87355383306721066e+01 -1.00560077274284680e+02 5.54826808886037242e+01
1 -4.28538971919598310e+01 -1.12677307461411814e+02 -9.75764598585844141e+01
8
Step 380
1 1.07291448494724804e+02 -6.76935842449536409e+01 6.16028940685845399e+01
1 -1.62282136162438135e+01 8.95791880741423263e+00 -1.73517587354116557e+02
1 -6.57317597270606910e+01 4.33433134007503114e+01 -1.04556342174704511e+02
1 -7.49098902653600973e+00 -4.48328774920689028e+01 9.44343369848967882e+01
1 -4.43230227389006330e+01 -3.23529463843204397e+01 -2.81198619707738189e+01
1 -7.16916978180831705e+01 6.68232635636308885e+01 2.17766506299277438e+01
1 -3.44908688076800729e+01 -1.03241065789895771e+02 6.28915526106556442e+01
1 -4.34152808967692962e+01 -1.10421244249521010e+02 -8.75153337649468597e+01
8
Step 390
1 9.80822286650106605e+01 -6.66003730085680417e+01 6.06365979279563874e+01
1 -2.56125379970113620e+01 2.21987085886633722e+01 -1.62719134937740819e+02
1 -5.92734280532537881e+01 4.50356140368781865e+01 -1.11388856902305619e+02
1 -8.09602611252481985e+00 -4.65040363227162885e+01 1.04116005675528811e+02
1 -4.66880605504703396e+01 -3.34915750520322462e+01 -3.36399574633889529e+01
1 -8.64883561127001030e+01 6.96263749334777486e+01 1.91911741697484111e+01
1 -3.00153561383289684e+01 -1.05726435904161804e+02 6.99351076230313566e+01
1 -4.38327944781847521e+01 -1.07811914558970813e+02 -7.63690280706906606e+01
8
Step 400
1 8.86042708655458284e+01 -6.49833130379331010e+01 5.92456627317685474e+01
1 -3.49072278880326365e+01 3.49183311318242033e+01 -1.50699736193753665e+02
1 -5.27400684291560609e+01 4.62991736748881806e+01 -1.17156006898041227e+02
1 -8.62397988586604569e+00 -4.77157060694145585e+01 1.13407831223310822e+02
1 -4.85632701114204153e+01 -3.47300505099429415e+01 -3.83352269009306497e+01
1 -1.00291841042194505e+02 7.27885853197113590e+01 1.65452311194774104e+01
1 -2.53769262008981684e+01 -1.07969571663846537e+02 7.65533071790394217e+01
1 -4.41037971090039846e+01 -1.04869765575551980e+02 -6.42962145776564995e+01
8
Step 410
1 7.89700842004234858e+01 -6.28609781908749170e+01 5.74506649303377515e+01
1 -4.39522423198772785e+01 4.69538368955959768e+01 -1.37632113957248777e+02
1 -4.62153321544224767e+01 4.71634487298845997e+01 -1.21804321372126026e+02
1 -9.05799098714771844e+00 -4.84445618054139544e+01 1.22137880182114799e+02
1 -4.99537655441580029e+01 -3.60484220395746107e+01 -4.21391860174942039e+01
1 -1.12969222864960585e+02 7.62380219997966861e+01 1.39295419329777665e+01
1 -2.06442816596817131e+01 -1.09922257232497046e+02 8.26889997287079126e+01
1 -4.42263504474726190e+01 -1.01613561193658541e+02 -5.14660586010387817e+01
8
Step 420
1 6.92913323214945081e+01 -6.02563808631434839e+01 5.52759551616887705e+01
1 -5.25920271008065541e+01 5.81535688197544474e+01 -1.23698935599116922e+02
1 -3.97811694499427233e+01 4.76623657896345918e+01 -1.25295550447065679e+02
1 -9.38216066097873380e+00 -4.86752433452839171e+01 1.30142613557875478e+02
1 -5.08711237865404371e+01 -3.74238033863454334e+01 -4.50015359600040838e+01
1 -1.24401980682020337e+02 7.98976089658943067e+01 1.14309629565681554e+01
1 -1.58859502825050587e+01 -1.11535413061645457e+02 8.82887084270799107e+01
1 -4.41991627761785253e+01 -9.80604412599395374e+01 -3.80556245384615153e+01
8
Step 430
1 5.96772729371854282e+01 -5.71968106814596169e+01 5.27493034592423911e+01
1 -6.06779244182624424e+01 6.83790901414957801e+01 -1.09089985876147566e+02
1 -3.35167742342864727e+01 4.78337923789343051e+01 -1.27606828230857104e+02
1 -9.58201058553134644e+00 -4.84005230144266605e+01 1.37269375632007780e+02
1 -5.13330666449554442e+01 -3.88306030735690371e+01 -4.68887749453104234e+01
1 -1.34487187445240863e+02 8.36861687172836923e+01 9.13094975236045769e+00
1 -1.11693683612959784e+01 -1.12759854043239343e+02 9.33033508042921653e+01
1 -4.40215229922182729e+01 -9.42260487437159782e+01 -2.42472420839522549e+01
8
Step 440
1 5.02332825816144179e+01 -5.37136290654278454e+01 4.99015174087679370e+01
1 -6.80703950951195367e+01 7.75068409032605530e+01 -9.39993405796764705e+01
1 -2.74975999337159251e+01 4.77189519858752220e+01 -1.28730585087144277e+02
1 -9.64490644532036789e+00 -4.76213237505695233e+01 1.43378632709626316e+02
1 -5.13630477200841113e+01 -4.02407956668637965e+01 -4.77845039785161845e+01
1 -1.43138418025877627e+02 8.75195355270164299e+01 7.10416654999252106e+00
1 -6.56001625585483961e+00 -1.13547058164703415e+02 9.76888809181501898e+01
1 -4.36932285011164510e+01 -9.01247220247991123e+01 -1.02258939005432108e+01
8
Step 450
1 4.10594917711448133e+01 -4.98420287512906270e+01 4.67660443646711101e+01
1 -7.46410238744956018e+01 8.54295120804259938e+01 -7.86226011039804291e+01
1 -2.17944597984847697e+01 4.73617959268347448e+01 -1.28674232881210685e+02
1 -9.56043827233591337e+00 -4.63465975067431941e+01 1.48345936982847292e+02
1 -5.09897580424168524e+01 -4.16242300497605200e+01 -4.76894404980043163e+01
1 -1.50286387909692451e+02 9.13116605163850608e+01 5.41726276887102820e+00
1 -2.12061841893518066e+00 -1.13849936751818490e+02 1.01406849870112168e+02
1 -4.32145113751959542e+01 -8.57697475126876157e+01 3.82332377352135078e+00
8
Step 460
1 3.22495470892539871e+01 -4.56207665378298231e+01 4.33785674518543516e+01
1 -8.02742908312447554e+01 9.20571395873365645e+01 -6.31542375566610161e+01
1 -1.64727190958714864e+01 4.68083439576420943e+01 -1.27459652523432709e+02
1 -9.32075246857305650e+00 -4.45930769425537932e+01 1.52063604549313510e+02
1 -5.02465650606226006e+01 -4.29489713449450718e+01 -4.66211612880382447e+01
1 -1.55879341339795843e+02 9.49756936565859746e+01 4.12782981070348587e+00
1 2.08958478863647734e+00 -1.13623599959552521e+02 1.04424885310660329e+02
1 -4.25859671184628894e+01 -8.11736657784691857e+01 1.77176283127614944e+01
8
Step 470
1 2.38895086463728568e+01 -4.10918756675153247e+01 3.97766029120273501e+01
1 -8.48691030654103429e+01 9.73179306338016801e+01 -4.77850740077923604e+01
1 -1.15915811248697782e+01 4.61060039699841226e+01 -1.25122515061477529e+02
1 -8.92083204311963662e+00 -4.23849146761619551e+01 1.54442107930964823e+02
1 -4.91708990649631090e+01 -4.41816740010760256e+01 -4.46135999830024090e+01
1 -1.59883215017791940e+02 9.84250331128692864e+01 3.28354446236661035e+00
1 6.01549091415082060e+00 -1.12826113317508160e+02 1.06717093970298848e+02
1 -4.18084900733419147e+01 -7.63486224596534271e+01 3.12788395329298154e+01
8
Step 480
1 1.60568847064913420e+01 -3.63003617710048019e+01 3.59991037835616154e+01
1 -8.83400890992908785e+01 1.01158841216027241e+02 -3.26999359302316464e+01
1 -7.20346485554442317e+00 4.53028790687877176e+01 -1.21711466239184972e+02
1 -8.35872281355393909e+00 -3.97532241051490232e+01 1.55411191186244452e+02
1 -4.78035995541067820e+01 -4.52879845284623457e+01 -4.17163251498432501e+01