8
Step 0
1 -3.472934504792e+01   2.985585161505e+01   4.552711624413e+01 
1 -3.872914153085e+01   5.183552870333e+01   2.841252880511e+01 
1  6.597310272429e+01   3.473535297890e+01   3.212630301548e+01 
1 -6.209027598665e+01   1.844554586020e+01  -3.110501871492e+01 
1 -4.675834713363e+01   3.854789838996e+01   6.659078998682e+01 
1 -1.328434623653e+01  -5.953552595268e+01  -6.135440417252e+01 
1  6.150941286889e+01  -3.705897999201e+01   2.680974576907e+01 
1  1.897523860070e+01  -3.176705575740e+00  -2.894581516525e+01 
8
Step 1000
1  3.500432720531e+01  -3.716184729010e+01   5.311546284407e+01 
1 -5.988193282291e+00   2.967775840252e+01  -2.184153530311e+01 
1 -4.992538620411e+01   1.021510732633e+01  -1.428944952390e+01 
1 -3.561720514098e+01   1.118213299592e+01   4.323144536812e+01 
1 -6.046051316888e+01  -3.975822692793e+01  -1.085114948999e+01 
1  5.265598899796e+01   2.016490894542e+01  -3.051307710231e+01 
1 -5.539677995363e+01   4.282914197280e+01   4.647911550651e+01 
1  2.930842827899e+01  -7.356678381676e+00   3.157456465119e+01 
8
Step 2000
1 -3.575232908261e+01   5.545003873363e+01  -3.682936680077e+01 
1 -3.719181370189e+01   3.113826168904e+01   7.611251739375e+01 
1  4.909008501453e+01   3.614381672141e+01   3.794870533561e+01 
1 -5.336625846676e+01  -2.662902434344e+01  -3.077258861112e+01 
1 -2.897014051319e+01  -9.022119647881e+00   1.590221034096e+01 
1 -1.474295556260e+01  -5.585253679231e+01  -2.996351184745e+01 
1  3.865247269155e+01   1.634614108479e+01  -7.674518806216e-01 
1 -2.231373490131e+01   5.214346505289e+01   3.049763372881e+01 
8
Step 3000
1  7.512450672722e-01   2.471175087031e+01   4.113833382151e+01 
1 -2.851559935904e+01   6.434040339233e+01  -1.507478787218e+01 
1 -7.637282528607e+00  -2.198476151934e+01  -2.273840268620e+01 
1  1.385383106192e+00   3.087079717258e+01   4.737176534412e+01 
1  1.131960516315e+01  -2.700382075557e+01   2.690720517966e+01 
1 -1.302267607459e+01   8.290705800456e+01  -2.473035824535e+01 
1 -1.268704148176e+01  -1.988316851698e+01   2.317786740979e+01 
1 -7.580104366142e+00   2.226229010708e+01   1.497994352196e+01 
8
Step 4000
1 -5.792627261236e+01   1.677539251490e+01  -1.584610004658e+01 
1 -2.184680899764e+01   7.063282408434e+00   3.461326157646e+01 
1  2.381421543728e+01  -8.243407236527e+00  -2.486224169488e+01 
1 -7.522524164150e+01   2.799154550261e+01   1.166808390540e+01 
1 -1.221747162949e+01  -3.024508334654e+01  -8.087904797528e-01 
1 -2.135037741564e+00  -3.093111471985e+01   2.115450975218e+01 
1  3.342316129371e+01  -1.578726510570e+01   3.664568236830e-01 
1  3.826178071901e+00  -2.818433360333e+01   2.303283497893e+01 
8
Step 5000
1  2.130599517383e+01  -4.840696380862e+01   2.988934633578e+00 
1 -2.505683560234e+01   2.869959742007e+01   6.315236958417e+01 
1  2.086213196668e+01  -4.947217418453e+01  -9.036007522533e+00 
1 -3.065389953275e+01  -3.136443445232e+00   2.299143332524e+00 
1  2.194725800994e+01   9.210182301341e+00   1.002176008019e+01 
1  9.597115267603e+00   3.883670236428e+01  -3.874876147215e+01 
1  2.957690569841e+01  -3.006531846463e+01   2.229456048977e+01 
1 -2.103464477997e+01   4.709588738964e+01   2.973765084229e+01 
8
Step 6000
1  1.012846069491e+01   3.310062618106e+01   6.199517632659e+00 
1 -3.252683828524e+01  -6.882947379119e+00   2.052173615801e+01 
1  8.385239131038e+00  -2.074851716072e+01  -4.105936176006e+00 
1 -3.501761771737e+01   1.740070024333e+01   8.249388871517e+01 
1  1.641226014563e+01  -5.877792861022e+01  -8.288650646076e+00 
1  9.975623361757e+00   1.299491700691e+01  -3.567819224275e+01 
1 -3.233813514598e-01   8.194196850077e+00   1.740362110147e-01 
1  1.751925205493e+01   1.868259060704e+01   1.937882431216e+00 
8
Step 7000
1 -3.347096311143e+01   2.749782335224e+01  -1.707545852693e+01 
1  2.456517632799e+00   9.492612528691e+00  -2.012355567835e+00 
1  4.134712109031e+01  -2.280569180402e+01   2.219057663161e+01 
1 -1.032124650581e+01  -4.230811449919e+01  -7.464016101421e+00 
1 -1.542527081257e+01   2.072685602175e+01  -2.753635630665e+00 
1  1.822008263319e+01  -2.179990188880e+01   6.861931136440e+00 
1  1.434129191700e+01   2.395457443244e+01   3.272596412689e+01 
1 -5.481968390510e+01   2.209115513873e+01   9.472590185509e+00 
8
Step 8000
1 -4.599473695125e+01   4.206030440365e+01   1.867783193608e+00 
1 -4.027423331898e+01  -9.292834918724e+00   3.962735052760e+00 
1  1.198257811232e+01  -2.267913514593e+00   4.014999689451e+01 
1  2.248788036785e+01  -1.894929154972e+01   2.063140255730e+01 
1  1.583269857921e+01  -2.651576759703e+01   4.767750070488e+01 
1  3.703797367970e+01   1.532000664033e+01  -3.407281660738e+01 
1 -1.246902350415e+00  -9.115499354525e+00   8.444308661192e+00 
1 -8.355635998434e+00  -1.565576413925e+01  -3.686047759062e+01 
8
Step 9000
1  1.304581382021e+01  -2.935938703485e+01  -3.690878726434e+00 
1  2.182889732493e+01  -2.909936401949e+00  -3.184756859765e+01 
1  6.376460435732e+00  -1.691931604422e+01   3.489391233189e+01 
1 -4.639852683242e+00   2.180185486174e+00   1.971739290783e+01 
1 -2.023782185869e+01   1.705360270455e+01  -2.253230117897e+01 
1  2.264813329713e+01  -1.462805109736e+01   2.282542931965e-01 
1  2.229065937930e+01   3.094962530263e+01   1.795050218020e+01 
1  2.601958824957e+01  -6.174257253411e+01   1.207393797158e+01 
8
Step 10000
1 -3.340278040147e+01  -3.150121234722e+01  -1.713168847880e+01 
1 -9.987213074545e+00  -2.642078885950e+01   2.139680630960e+01 
1  2.066930801992e+01  -1.835083505807e+01   3.899997091034e+01 
1  2.144973743025e+01  -5.257988467632e+01  -4.501996620469e+01 
1 -2.775821208655e+01   4.395822531879e+00   2.426540208363e+01 
1 -1.473156860637e+01  -2.361014491772e+01  -2.468245958577e+01 
1  4.783857662983e+00  -7.301683606123e+00   8.024117867552e+00 
1  3.813435625110e+01   9.873356575598e+00  -1.865345091740e+01 
8
Step 11000
1  4.191578830911e+01  -3.291699575250e+00   2.937622625232e+00 
1  2.816268550521e+01  -1.402431475007e+01  -2.734911591137e+01 
1  1.437206772170e+01  -1.334593731685e+01   1.591136187859e+01 
1  5.239385197753e+00   4.500626416991e+01   7.051108496857e+01 
1  2.889038832713e+01  -7.088906194432e+00  -1.493717678430e+01 
1  3.046529873157e+01   4.844916942827e+01  -2.624711358432e+01 
1  1.807047727845e+01   1.413260741509e+01   4.941690716856e-01 
1 -2.013603480215e+01  -2.367571001407e+01  -2.928907599081e+01 
8
Step 12000
1 -4.373498509031e+01   2.537245198551e+01  -5.333466698587e+01 
1 -2.950416265999e+01   3.320709488506e+01   1.027998068966e+01 
1  1.814994735479e+01  -3.729952407328e+01   4.826106490044e+00 
1  2.130564870540e+01  -7.580496586826e+01   2.549521069867e+01 
1  1.499142377034e+01  -2.038995383963e+01   1.947573004061e+01 
1  1.874685001539e+00  -2.923464513984e+01   4.958530300167e+00 
1 -1.165931056294e+01  -9.419131217004e+00  -9.822117604261e+00 
1 -7.812744989975e+00   4.831181687370e+00  -1.606583484962e+01 
8
Step 13000
1  2.839572890799e+01  -4.905571272868e+00  -4.354629695434e+01 
1  2.083808102078e+01  -4.654493201077e+01  -2.785806242643e+01 
1  5.518770883162e+01  -5.956461330560e+00   2.289205104073e+01 
1 -7.880459010662e+00   2.581547626759e+01   1.144952527731e+01 
1  3.176730873818e+01  -4.549491571539e+01  -3.699036687820e+01 
1 -3.702696517254e-01  -5.252555558065e+00  -3.532612329515e+01 
1  2.301560350595e+01  -5.126134636181e+01   2.226114470990e+01 
1 -2.096717793698e+01   2.771686943562e+01   1.641171868702e+01 
8
Step 14000
1 -1.223332349878e+01  -3.262702480317e+01   2.887051416241e+01 
1  2.129815644492e+01  -2.434513566563e+01  -6.587909770217e+00 
1  1.931740624565e+01  -7.118457300527e+00  -3.345849932054e+01 
1  1.252661025312e+01  -1.254031554707e+01   3.679682896587e+01 
1 -2.381425528907e+00  -1.768205495661e+01   5.176613386018e+00 
1 -8.873427281957e+00   4.566064671453e+01  -8.272254704551e-01 
1  4.114002918616e+01  -2.448046104593e+01  -2.023998101197e+01 
1  1.770840045442e+00  -3.187580062565e+01  -4.291186565062e+01 
8
Step 15000
1  6.004967776882e+01  -3.925382044028e+01  -4.498520329955e+01 
1  2.712495072579e+01  -5.519251233666e+01  -6.735372654850e+00 
1  3.726939296286e+01   1.780191587827e+01   2.388733927025e+01 
1  9.751353968269e+00   9.211993513875e+00  -3.260606955001e+01 
1  1.089187555153e+01   3.228017383770e+01  -2.370820439610e+00 
1  1.915588285670e+01  -2.469734706028e+01  -9.109741443476e+00 
1  7.309565620941e+00  -3.097365369070e+01  -1.590116703862e+01 
1 -1.565711059443e+01   1.274816350917e+01  -1.570026098318e+01 
8
Step 16000
1 -3.371795542147e+01   2.540674300006e+01   9.630307004813e+00 
1  4.482946843725e+01   1.936767866022e+01  -3.403411319121e+01 
1 -3.667557870323e+01  -3.180259012426e+01   6.545024356667e+00 
1  4.055884364386e+01  -2.365318371524e+01   4.962609735467e+01 
1  1.409514842050e+01  -2.022746026363e+01   5.931715157053e+00 
1 -3.790060521614e+01   3.190928177683e+01  -4.125257704037e+01 
1  1.421929431872e+01  -2.336025495131e+01  -1.189120877825e+01 
1 -2.079535114560e+01  -1.279482418577e+01  -3.772231085596e+01 
8
Step 17000
1  4.499391010398e+01   4.700655848434e+00  -3.460549495728e+01 
1  1.993542720137e+01   1.341719323950e+00  -3.474558712323e+01 
1 -6.389641599841e+00   4.506161156279e+01   1.552727110767e+01 
1  5.448787298891e+01   1.063236543857e+01  -3.020721354097e+01 
1 -2.139239117747e-01   2.289762953741e+01   2.697243315677e+01 
1  5.079355937064e+01  -3.875816897968e+01  -2.010344585124e+01 
1 -7.048634508857e+00   3.276921152404e+00   1.263701795934e+01 
1 -1.274700659388e+00  -3.595995549428e+01  -1.582111758499e+01 
8
Step 18000
1 -2.464331540266e+01  -1.890737093548e+01  -1.963062146826e+01 
1  4.068094573397e+01  -2.605270281878e+01  -1.935734721449e+01 
1 -1.394750662009e+01  -2.007154398408e+01   1.244272836676e+01 
1 -3.046043691338e+01  -1.415689068409e+01  -3.288739976180e+01 
1 -1.400105084570e+01  -1.471739766444e+01  -2.850263822788e+01 
1  3.000453231035e+01  -4.888071449356e+01   9.090189222273e+00 
1 -1.481682304462e+01  -1.699295866040e+01   7.100327221558e+00 
1 -2.789173821458e+01  -6.800132221292e+00  -9.655918773797e+00 
8
Step 19000
1  9.907290773570e+01  -5.713962665758e+01   8.520627015760e+00 
1 -1.434256834720e+01  -4.304357311496e+01  -4.892227458941e+01 
1 -2.899021861088e+01   8.141103934672e+01   1.198547385219e+01 
1  8.327899236486e+01   4.060176394249e+01   1.521045695157e+01 
1  2.077589671598e+01   5.868395540288e+01   1.023008759230e+01 
1  3.950578424824e+01   6.316335397873e+01  -3.289865545034e+01 
1 -2.068034102890e-01  -9.134509668395e-01   9.492673077581e+00 
1  3.607743337543e+00  -8.632987515283e+01  -5.778269237188e+01 
8
Step 20000
1 -1.613442679391e+01   2.465771354129e+01  -1.075678704201e+01 
1  2.457633803308e+01  -7.097486406986e+00   6.714265660396e-01 
1 -3.006199551540e+01   1.202598789158e+01   2.847755111018e+01 
1 -1.990211582306e+01  -1.708449875819e+01  -1.037157877181e+01 
1 -1.370440341520e+01   2.894185011908e+01  -1.842050200731e+01 
1  4.783374234932e+00  -2.011768428315e+01   2.047585634413e+01 
1 -9.485694448581e+00  -1.744620094302e+01  -1.936015033374e+01 
1 -7.419138940560e+00   1.998647419589e+01  -2.513640144163e+01 
8
Step 21000
1  5.352984386546e+01  -1.041512216800e+01  -1.145693142193e+01 
1  2.254717469478e+00  -6.372080023824e+00  -2.419482466730e+01 
1 -3.753269469340e+01   3.358504550866e+01  -4.633105303957e+01 
1  5.038206021292e+01   2.100785352573e+00  -1.502059667583e+01 
1 -1.395836780025e+01  -9.786669352862e+00  -2.321844701689e+01 
1 -3.045492507857e+01   2.445448768714e+01   3.608804148953e+01 
1  3.777690403780e+01  -4.303257950487e+01   3.240638910227e+01 
1 -2.661268873107e+01   1.826685418891e+01  -2.669063544331e+01 
8
Step 22000
1 -2.043458608434e+01   1.463670520148e+01   6.744365835766e+00 
1  2.760566220194e+01   2.027404798084e+01  -1.988137361589e+01 
1 -6.922603178011e+01   2.131588132873e+01   2.021959431537e+01 
1  2.372688306766e+01  -4.368336330388e+01   2.245828001519e+01 
1  1.680934571321e+01   1.836844770932e+01  -3.979580184025e+00 
1  1.178403294408e+01   1.744180524017e+01   1.724353270543e+01 
1 -5.471863838299e+00  -3.077547569089e-01  -1.327419217076e+00 
1 -4.208708410958e+01  -1.192864036046e+01  -2.755571295942e+00 
8
Step 23000
1  2.381645257675e+01  -8.160663098142e+01  -4.312697544328e+01 
1 -1.564404283597e+01  -1.897654961785e+01   1.272045635432e+01 
1 -2.100388968340e+01   4.498565870083e+01  -2.650410196108e+01 
1  3.783541986051e+01   5.850557833082e+01  -5.051907059194e+01 
1  2.984022628734e+00  -3.665362850857e+00  -1.060121376019e+01 
1 -3.780534836253e+01   1.568799238412e+01   2.352390310834e+01 
1  4.551435073704e+01  -6.549594652523e+01   1.750105917418e+01 
1 -3.919929338481e+00  -1.123903803829e+01   3.214254130985e+01 
8
Step 24000
1 -9.467646022261e+00  -7.165277666381e-01   5.196905338085e+01 
1 -9.495821059172e+00   1.642550625916e+00  -3.383919169613e+01 
1 -5.645273526478e+01   5.763821161865e+00  -1.135840191463e+01 
1  1.213147295802e+01  -4.494349704341e+00   3.035624702506e+01 
1 -3.033053416520e+01  -1.711388925450e+01   7.486898244834e+00 
1  2.507824132299e+01   2.982336147388e+01  -2.213006764442e+01 
1 -1.596774763650e+01   4.827703755157e+01   1.825177161085e+01 
1 -4.522541428077e+01  -1.253430552280e+01  -4.453407828202e+01 
8
Step 25000
1 -5.425402271403e+01   4.004792911329e+01  -2.872527700317e+01 
1  8.320869751581e+01  -1.263110176924e+01   3.773795476188e+01 
1 -1.644532309219e+01   3.715599515593e+01  -1.133175347161e+01 
1  2.121792179603e+01   2.535874738970e+01  -5.743498575967e+01 
1 -2.854172133807e+00   5.132596907521e+01   2.406506299559e+01 
1 -4.876235162964e+00   9.299598596642e+00   3.248283547336e+01 
1  1.817780364265e+00   1.012994591404e+01   2.608463760565e+01 
1  3.157310344279e+01   3.193041685107e+01   2.338723822130e+01 
8
Step 26000
1  4.348498119179e+00   5.096005632466e-01   2.404793468672e+01 
1 -3.802378601661e+01   3.247544813421e+01  -3.855202390603e+01 
1 -2.167619262512e+01   2.807792230055e+00  -4.041106084589e+01 
1  4.782708625263e+00  -1.762642391415e+01  -9.023008393571e+00 
1 -1.553382856127e+01  -3.892273557337e+01   3.034304295545e+01 
1  6.137317574631e+00   1.498328819391e+01  -5.836543196339e+00 
1 -7.835792858433e+00   1.312409880747e+01   5.395664707276e+01 
1 -4.948190176965e+01   1.031208338825e+00   2.389936388820e+00 
8
Step 27000
1 -8.749149902040e+01   2.252533741109e+00   7.294669155891e+00 
1  5.729253928053e+01  -1.851898970698e+01   2.549589401276e+00 
1 -5.486637804191e+01   1.856579630502e+01  -1.192026981246e+01 
1  3.850125077885e+01   6.095313424800e+00  -1.905287783737e+01 
1 -8.080495911491e+00   5.744660421999e+01   1.560004212604e+01 
1 -9.231763875001e+00  -1.772097972142e+01   2.364306117304e+01 
1 -3.324011263584e+01   1.966848900011e+00   1.701634650419e+01 
1  1.656947088592e+01  -3.235267274542e+01   2.767469783792e+01 
8
Step 28000
1  2.309975188770e+01  -2.471469032131e+01   4.565266604609e+01 
1 -2.638207414932e+01   4.351127080094e+01   1.692732983826e+01 
1 -3.363113024873e+01   1.392319683140e+01  -1.702468352823e+00 
1 -3.894694464772e+01  -6.260199935531e+00  -3.646419753523e+01 
1 -6.203591713950e+00   2.117285193820e+01   2.600195701062e+01 
1  1.998134044872e+01   2.480460625033e+01   2.007788902737e+01 
1  1.875382662731e+01   4.329904677637e+00   7.809528675748e-01 
1 -9.242024060933e+00   3.431214286223e+01   2.736870787891e+00 
8
Step 29000
1 -1.130424777209e+01   1.372807199270e+01   2.868294438095e+01 
1  4.557804728918e+01  -9.177321264696e+00  -2.832108299953e+01 
1 -2.853260181434e+01  -1.576605275808e+01  -7.043701830773e+00 
1  3.857752260415e+00   5.382689480975e-01  -3.599202555933e+01 
1 -1.691493400511e+01   9.349364903558e-01  -3.282222128122e+00 
1 -3.078388915490e+01   1.703213849855e+01   7.699371812327e+00 
1  5.114065889646e+00   1.961210262301e+01   3.078636808784e+01 
1 -1.738951368131e+01  -1.086875609146e+01   3.580503227277e+00 
8
Step 30000
1 -8.983408457773e+00   5.916533710093e+01   7.561759019397e+01 
1 -6.052447950840e+00   8.471733164071e-01   2.536826507356e+01 
1 -5.227768229972e+01   2.494610616091e+01  -9.880879216677e+00 
1 -1.180173954381e+00  -3.309070534869e+00   2.318475311346e+00 
1  3.022423501248e+01   2.668776230545e+01   1.095578572269e+01 
1  1.700377485288e+01   7.743912052023e+01   4.564989184613e+01 
1 -1.486658010617e+01  -1.651142811804e+01  -3.038385992624e+00 
1 -1.078778598280e+01   2.412228854396e+01   2.769761878243e+01 
8
Step 31000
1  1.630582416216e+01   3.945919927507e+01   1.482728349988e+01 
1 -1.683180172475e+01   1.088571271402e+00  -2.637564358796e+01 
1  9.146992581066e+00  -3.154282968079e+01  -5.476152554966e+00 
1  3.378398489879e-01   1.438634511005e+01  -3.935685226521e+01 
1 -3.382656364210e+01   6.232241720726e+00   2.829509095130e+01 
1 -1.323226915170e+01   1.114481919469e+00   4.230285485231e+01 
1 -1.030864199523e+00  -2.818991367264e+01   4.675216839590e+01 
1 -4.228313624120e+00   2.244619361235e+01   3.035196665544e+01 
8
Step 32000
1  8.683001404059e+00  -6.312884860722e-01   7.592860524420e+01 
1  2.322525371870e+01   7.553568064076e+00   1.596475876286e+01 
1 -1.087901277956e+02   3.847047206892e+01  -3.880673875871e+01 
1 -3.070800077101e+01  -3.931423765168e+01  -1.110118923240e+01 
1  6.385620165460e+00  -4.708988645057e+01  -2.050848096874e+01 
1 -3.781843341660e+00   2.181912981911e+01   2.175352909395e+01 
1  1.809364075741e+01  -2.111866592515e+01   1.229514207099e+00 
1 -3.655879967989e+01   7.901259639477e+00  -5.836875954614e+00 
8
Step 33000
1  1.327605520257e+01   1.243707596288e+01  -3.702912457615e+00 
1 -2.880994186471e+01   2.082394385055e+01   7.645585194965e+01 
1 -2.078974594036e+01  -1.757040939788e+01   1.970097252624e+01 
1  2.030101185331e+01  -1.246913302514e+01   1.162186837676e+00 
1  6.683930527729e+00   3.064356459736e+01   2.136715785791e+01 
1  7.971477655267e-01   7.727458051544e+01   6.175489852801e+00 
1 -2.694990625237e+01  -2.521783554309e+01  -3.319131997399e+00 
1  8.460598082921e+00   2.587648650999e+01  -1.030576959970e+00 
8
Step 34000
1  3.229591587560e+01  -2.205397289813e+01   5.881681742572e+01 
1  3.488992916927e+01   1.475335360317e+01   1.187851006591e+01 
1 -1.658213509071e+01   3.314682989933e+01  -9.646813030260e+00 
1 -2.591174789755e+01   4.939850369036e+01  -3.611179995270e+01 
1 -1.651869993907e+01   1.987952024244e+01  -1.636901317353e+01 
1  7.816946192379e+00  -4.673435748330e+01   1.236847001881e+01 
1  3.617758568068e+01   3.527915948693e+01   3.100036931911e+01 
1  1.983389512977e+01   1.839237082680e+01   1.852032929383e+01 
8
Step 35000
1 -3.305820637877e+01   4.462308319600e+01  -2.545556454595e+01 
1  2.710035789192e+01   4.612176225474e+00   2.894713551913e+01 
1 -3.008499581058e+01  -2.503826028621e+01   4.519289415016e+00 
1 -1.788480135746e+01  -6.389364947568e+01  -3.469407553560e+00 
1 -1.280136425942e+01  -1.626956660621e+01   3.189071028557e+01 
1 -3.724942076606e+01   3.768369868678e+01   2.354451835248e+01 
1 -3.510858653303e+01  -1.604174493815e+01   8.766729456899e+00 
1  4.505523771483e-01  -1.234964930335e+01   5.500568576315e+00 
8
Step 36000
1  9.104215785662e+00   3.187306418468e+00   2.453403085466e+01 
1 -1.888462762588e+01   2.881256953782e+01   4.312949980969e+01 
1  3.428828848764e+01   3.969754654035e-01   1.384668779684e+01 
1 -1.277760314229e+01   4.194066319135e+01  -3.874392234217e+01 
1 -1.986012580940e+01  -3.857818246772e+00   2.909712265477e+01 
1  3.442886653997e+01  -4.659533750817e+01   4.695374795736e-01 
1  9.652967505572e+00   1.242552802494e+01   1.715478397748e+01 
1  4.640799372296e+01   4.618029467234e+01   2.920286963127e+01 
8
Step 37000
1 -5.892263657903e+01   1.353447376279e+01  -1.138076647033e+01 
1  7.494643126039e+01  -1.704318092757e+01  -2.407959707275e+01 
1  3.143165944409e+01  -2.971891788513e+01   2.526240277214e+01 
1 -4.625097875876e+01  -2.506562483641e+01  -7.996336319992e+00 
1 -6.033101325916e+00  -4.573617678325e+01  -1.441096158813e+01 
1 -1.506676375645e+01  -1.712120088434e+01  -3.748502534080e+01 
1 -2.653383967780e+01   1.513432767094e+01  -8.758718437722e+00 
1 -1.988349000498e+01  -3.346211023348e+01   1.095191877790e+01 
8
Step 38000
1  6.700176104102e+00  -3.318122583865e+01   1.965992219266e+01 
1  1.150715620698e+01   8.957398028878e+00   9.349786836602e+01 
1  1.689314930181e+01  -1.887584908952e+01   1.982624099627e+01 
1  5.133882816102e+00   3.419168352313e+01  -4.125195377807e+01 
1  1.496037810816e+01   4.361853843923e+01   2.501655512566e+01 
1 -4.977793285785e+00   4.068210631904e+01  -3.660487387797e+01 
1 -1.198706927268e+01  -3.438960444967e+01  -6.656075130226e+01 
1  5.293003560253e+01   1.492902367353e+01   1.761008779516e+01 
8
Step 39000
1 -4.343067769554e+01   1.143603396725e+01  -2.377459792896e+01 
1  2.870487234726e+01   1.671079673646e+01  -3.756260426723e+01 
1  6.873070139816e+01  -1.336652017911e+01   1.651230639119e+01 
1 -1.124805056592e+01  -1.604708521261e+01   6.042630455712e+01 
1 -4.947590745595e+01  -2.410139805156e+01  -1.186206521622e+01 
1  1.785785307719e+01  -1.591537520111e+01  -9.793744248793e+00 
1  4.448998938654e+01   8.012613296168e+00   1.579640323987e+01 
1 -1.378590062037e+01   3.195925385886e+01   1.033423288156e+01 
8
Step 40000
1  6.301296214416e+00   1.417052506307e+01   1.000675918412e+00 
1  2.300866384309e+01  -3.019392159599e+01   2.097178760919e+01 
1 -1.699996367791e+00  -5.436020833801e+01  -9.284823190279e+00 
1  4.574099263204e+00  -3.386857749849e+01  -1.014386821696e+01 
1  1.522613793556e+01  -3.146207571293e+01   2.794869659955e+01 
1 -5.063094672968e+01   3.746124431491e+01  -1.715615898497e+01 
1 -9.735600051721e+00  -1.929801558710e+01  -3.783803856735e+01 
1  5.802679235288e+01   2.108638543067e+00  -1.967952668447e+01 
8
Step 41000
1 -3.003614749715e+01   1.378910795514e+01  -1.323317169380e+01 
1 -5.478976671123e+01   4.880118766454e+00  -1.125205361416e+01 
1  4.830684421548e+01  -3.492921333530e+01   1.482922886916e+00 
1 -1.270808230973e+01  -2.496217924823e+01   3.694367961105e+01 
1 -5.300731993600e+00   1.405137806083e+01  -2.090352391661e+01 
1  1.303519138678e+00  -3.430855783193e+01  -1.348643644079e+01 
1  3.102737999917e+00  -4.599238359391e+01  -2.621192326170e+01 
1 -2.004329340361e+01   7.711546220544e+00   1.609063278063e+01 
8
Step 42000
1  4.167907336391e+01  -2.044904824983e+01   3.391441943547e+00 
1  2.796442920850e+01  -2.782997305355e+01   1.280003289779e+01 
1  2.348061145177e+01  -1.197624710678e+00   4.599729856777e+00 
1  2.429725341112e+01   1.553585778188e+00   1.380331012157e+01 
1  1.488689801097e+00  -6.950605524171e+00  -8.236904752708e+00 
1  1.045704432432e+01   3.473786066442e+01  -3.029672705477e+01 
1  2.878848965697e+01  -8.738376087397e+00   8.112823608338e+00 
1  4.620160254001e+01   2.538851067262e+01  -5.970795370891e+01 
8
Step 43000
1  2.076584819435e+01  -1.259049734083e+01  -4.490150647306e+01 
1 -5.300645254807e+00   1.254205763375e+01   1.626748519159e+01 
1 -2.344750632971e+01  -2.306027153540e+01  -6.762433474237e+00 
1 -4.247296266275e+01  -4.250740262908e+01  -9.400018685326e+00 
1  3.479568397814e+01  -3.798096129701e+00   3.070664738443e+01 
1 -1.519284148614e+01  -4.270495998016e+00  -2.216350756427e+01 
1 -4.964910851726e+01  -2.003711887185e+01  -7.628636098740e+01 
1  1.425654570353e+01  -4.530311919514e+01  -5.786462018399e+00 
8
Step 44000
1 -2.433116750439e+01  -5.213915593078e+01  -4.171635553390e+01 
1 -1.705409999102e+01   1.140291136099e+01  -1.701792121567e+01 
1  6.520223473017e+01   1.275875098679e+00   4.412223975998e+01 
1  8.280230222967e+00   1.653006629212e+01   3.377988896860e+01 
1  5.090048203460e+00   2.703485553237e+01   2.768927085838e+01 
1  5.193430649960e+01  -1.546786710305e+00  -3.735736840899e-01 
1  1.414835090858e+01   4.198978829212e+01  -8.757963320893e-02 
1  3.464803844223e+01   1.619991495140e+01  -2.771712356271e+01 
8
Step 45000
1  1.897396635879e+01  -2.169913054104e+01  -7.600211143582e+01 
1  3.806346118870e+00   5.870627623247e+00  -3.887797164514e+00 
1 -3.753608913184e+01  -1.007456019049e+01   2.039807280530e+00 
1 -2.249091100069e+01  -3.501828815051e+01  -3.422586074604e+01 
1  1.874396101705e+01  -2.124379819682e+01   4.967060886944e+01 
1 -4.060963777035e+01   1.121496394465e+01  -5.555071629272e+01 
1 -3.286585165616e+01  -2.613201705315e+01  -1.332485525917e+01 
1  2.452547579726e+01  -5.857664046652e+01   3.764141910940e+01 
8
Step 46000
1  2.100951636117e+00  -1.246258424551e+01   1.404109037963e+01 
1 -1.636514956401e+01  -4.493595486232e+01   2.346293260626e+01 
1  6.631076488132e+01  -3.120491256143e+01   6.097919050618e+00 
1 -3.299690819493e+01   1.456246104266e+01  -1.227260506682e+01 
1 -2.476174878381e+00   1.172231220200e+01  -2.095207663813e+01 
1 -2.299630148733e-01  -2.346621902841e+01  -2.518430670577e+01 
1 -2.805862817917e+00   5.912307538990e+00  -5.874385769668e+01 
1  2.661544580134e+01  -8.380383721903e+00  -2.826530950000e+01 
8
Step 47000
1  1.051388647362e+01  -8.228945049104e+00  -2.515951174388e+01 
1  7.016930707172e+00   3.103518528137e+01  -2.932093462850e+01 
1  8.492380974502e+00   1.177405616020e+01   2.113610462698e+01 
1  1.370610530393e+01   1.772026721581e+01   7.533070124581e+00 
1  2.026950855134e+01  -3.627662547782e+01   4.022375396126e+01 
1  1.736931143438e+01  -3.007832065132e+01  -4.452949906871e+01 
1 -1.432127699142e+01   1.441175066531e+01  -2.031573959234e+01 
1 -1.453203582477e+01   3.322114243588e+01  -7.138157175342e+00 
8
Step 48000
1  1.348519146423e+01   1.519211246053e+01  -6.569644095996e+01 
1  2.662168002773e+01  -6.719076689237e+01   6.732473527484e+00 
1  2.828569012729e-01  -1.282512031286e+01  -8.408882744372e+00 
1 -4.401569874956e+01   2.819402256210e+01   1.471615600841e+01 
1  2.357426229105e+01   1.123311648121e+01  -4.824527298326e+00 
1 -3.456887034691e+01   1.861173564247e+01  -2.178203306466e+01 
1  2.259590392523e+01  -4.399848658822e+01  -2.948218376761e+01 
1  5.432427516115e+01   1.492858835798e+01   1.313452157982e+01 
8
Step 49000
1 -1.384697346813e+01  -2.895491771026e+01  -1.480237592161e+00 
1 -6.096191921727e+01   3.456886504221e+01  -2.685497187445e+01 
1  3.510934625920e+01   5.861860212882e+00   3.395029783157e+01 
1 -6.931315154920e+00   3.241742847030e+01   5.821977560446e+01 
1 -2.092053517118e+01  -3.250161595969e+00   2.744247695875e+00 
1  2.169191187928e+01  -3.882026633750e+01  -4.766796580517e+01 
1 -5.297841120675e+01  -4.102511166428e+01   5.445183659523e+00 
1 -4.860866699669e+01   6.487491222146e+00   3.336444471775e+00 
8
Step 50000
1 -4.473682747477e-02   3.120139738116e+01  -8.269333496542e+00 
1  3.279140372407e+01  -1.167383416648e+01  -2.040378551651e+01 
1  1.779481945448e+01  -4.579217683938e+00  -2.215260812765e+01 
1 -2.591142969505e+01   8.949892667230e+00   7.358429292060e+00 
1 -9.334430420568e+00  -1.155567930251e+01  -1.448720158188e+01 
1 -3.319396852237e+01   9.601617387167e+00  -2.493470469215e+01 
1  6.137555837552e+01  -1.557249275160e+01   4.289799552288e+00 
1  4.516202076246e+01   1.944144034545e+01   5.474574934763e+01 
8
Step 51000
1  2.814822696684e+01   4.958718249845e+01  -1.946782582504e+01 
1 -6.287914498693e+01  -2.008199726224e+01  -2.966316372408e+00 
1  4.845284830633e+01   5.435494380259e+00   1.515344272609e+01 
1 -8.765697094109e+00  -3.195808540110e+01   1.074123789154e+01 
1  2.290553753680e+01  -3.730037265124e+01   2.490488455528e+00 
1 -3.368238410939e+01  -3.675254319731e+01  -6.372337880133e+01 
1 -7.218522985833e+01  -4.564134391669e+01  -4.036017241986e+01 
1 -1.153121526775e+01   8.210421136836e+00  -4.284373673310e+01 
8
Step 52000
1 -3.446868295507e+01   1.428040404671e+01  -4.664561414993e+00 
1 -1.209944516792e+01   4.372524370959e+00  -3.547202413065e+01 
1  2.164900158808e+01   1.957448595695e+01  -1.387331425177e+01 
1  2.720928958751e+01   2.456703095150e+01   3.156798360512e+01 
1 -1.157673387967e+01   4.151230863582e+01   6.526293566308e+00 
1  1.027348258149e+01   1.010785172355e+01  -3.200098885979e+01 
1  3.587782475660e+01  -5.303924938816e+00   1.974170934031e+01 
1  1.610068591336e+01  -1.939076975956e+01   6.571103403377e+00 
8
Step 53000
1  2.353651555631e+01   1.817643715464e+01  -4.011599700866e+01 
1 -1.922950901378e+01  -2.610391588320e+01  -2.113186584098e+00 
1  2.064948650420e+01   4.706924636981e+01   3.625629277101e+01 
1 -4.174460979876e+01   2.765846441915e+01   9.548709708512e+00 
1  3.423926661879e+01   6.283530965269e+00   2.168106935691e+01 
1 -6.717815814717e+01  -1.081553278410e+01   1.564760672941e+01 
1 -1.803284891839e+01   1.475484241036e+01  -1.623174598872e+01 
1  2.047135022969e+01   1.044236375165e+01   1.662968216862e+01 
8
Step 54000
1 -6.539930199610e+00   8.002184886891e+00   2.163718914992e+00 
1 -5.809420936157e+01   2.348141737153e+01  -6.120344947273e-01 
1  1.052388248475e+01  -5.769404736910e+00   4.815768488032e-01 
1 -1.616625463031e+01  -2.600476951454e+01  -5.487625961970e+00 
1 -7.146922837967e+00   2.546749846131e+01   4.484877232698e+01 
1  1.471219535710e+01  -1.327254384493e+00  -3.537963116685e+01 
1 -7.164316810958e+01  -2.292497641242e+01  -6.955093653559e+00 
1 -1.292889456109e+01  -7.240113749245e+01   1.005527635678e+01 
8
Step 55000
1 -8.272558474480e+00   3.979581610977e+01   7.467264589736e+01 
1 -2.770662501757e+01   5.040416577406e+01  -4.212304897795e+01 
1  1.923477137421e+01   3.961716142162e+01   1.281680889785e+01 
1  2.065912932715e+01   5.333839957062e+00   5.246896494367e+01 
1  4.128767674830e+01  -4.452972515000e+01  -1.625773798914e+01 
1 -3.536406174691e+01  -4.911962856167e+00   2.067717842150e+01 
1 -3.072418167310e+01   4.946098299740e+00   4.512143495805e+00 
1 -6.836012019025e+00   2.114796890638e+01  -1.450596685368e+01 
8
Step 56000
1  3.428491096972e+01   6.131757930768e+01  -3.425029492315e+01 
1 -3.497129887070e+01  -1.005104674648e+01   2.852920655501e+01 