8
Step 0
1 1.39748825551200468e+01 5.42081696338564996e+01 -4.12502637145741176e+01
1 6.76856145659056949e+01 -9.52436813211538436e+01 -3.53785538339906509e+01
1 -1.69244962808761841e+01 8.98277443199455661e+00 2.97571380721552714e+00
1 3.73764782190754659e+01 6.81734884372274905e+01 -4.57848032008425605e+01
1 1.32334743617293725e+02 1.44513687947378003e+02 4.09275922922765290e+00
1 4.85671606455685492e+01 -3.61856508787949736e+01 3.27324193705891275e+00
1 1.10101464733509715e+02 -2.55830189233402763e+01 -1.12892755091165839e+02
1 1.01490638462739952e+02 -1.72728486323217680e+01 -1.04865858063218212e+02
8
Step 10
1 1.93743261473008026e+01 5.87545378263639577e+01 -4.27831992624374635e+01
1 7.22298575908151719e+01 -9.93074721700729413e+01 -4.66460329657519210e+01
1 -2.83248223351043968e+01 5.71951583292438759e+00 -5.11742625891496949e+00
1 3.91866550797956066e+01 6.26106964373469026e+01 -3.56602122655520333e+01
1 1.32906754435313985e+02 1.36177816116405040e+02 -1.90243005017980193e-01
1 5.35864801565625797e+01 -3.13210307689547527e+01 4.04270520555938528e+00
1 1.13154487492554964e+02 -2.88857944168146972e+01 -1.12587617131823976e+02
1 9.13598326076634066e+01 -1.52007861243488573e+01 -1.10317667534114150e+02
8
Step 20
1 2.40394828997468331e+01 6.33850333389154130e+01 -4.36992810648855254e+01
1 7.55046977577547551e+01 -1.01698084689446844e+02 -5.68550026584135750e+01
1 -3.87398447100937275e+01 2.16421116562268612e+00 -1.29627744513576921e+01
1 4.04113509431924740e+01 5.65506088860963771e+01 -2.48266107095403079e+01
1 1.32065604440029318e+02 1.26843130628700891e+02 -4.21634500496705389e+00
1 5.80514084317829528e+01 -2.62935022176296727e+01 3.79469967216036919e+00
1 1.15786003333235840e+02 -3.20818280333471932e+01 -1.11411414290268667e+02
1 8.05473476834306581e+01 -1.25827099770429829e+01 -1.14528674140270880e+02
8
Step 30
1 2.79250122327821977e+01 6.80515042990748782e+01 -4.39882617327254053e+01
1 7.74646780861268525e+01 -1.02418138895626910e+02 -6.59190490611591997e+01
1 -4.81020958449042553e+01 -1.65146002110230583e+00 -2.04651985393660887e+01
1 4.10396087496020243e+01 5.00819623935326632e+01 -1.33323365904373219e+01
1 1.29842510262848720e+02 1.16620501366264051e+02 -7.91546717305955383e+00
1 6.19499964569174963e+01 -2.11270179464208923e+01 2.51522692576723639e+00
1 1.17940383294762384e+02 -3.51764269870104940e+01 -1.09354838756942371e+02
1 6.91314083224518328e+01 -9.52734584891933345e+00 -1.17436268424997891e+02
8
Step 40
1 3.09990685747664720e+01 7.27036247107435543e+01 -4.36488383733222278e+01
1 7.80868496612654752e+01 -1.01497073320415780e+02 -7.37709059783223609e+01
1 -5.63595612872990657e+01 -5.69424265399841811e+00 -2.75322231279978489e+01
1 4.10725170876379124e+01 4.32970985999702620e+01 -1.23841174301214152e+00
1 1.26286753529183343e+02 1.05627628249594864e+02 -1.12205709483110514e+01
1 6.52782307194034530e+01 -1.58451010882435330e+01 2.10088357703323625e-01
1 1.19562976380601413e+02 -3.81750795006982955e+01 -1.06421772476045035e+02
1 5.71945831578487542e+01 -6.14970542622925809e+00 -1.18997236599934809e+02
8
Step 50
1 3.32437810640801956e+01 7.72893707913089543e+01 -4.26885147678939632e+01
1 7.73709451925905114e+01 -9.89903961350422037e+01 -8.03631284306143385e+01
1 -6.34759304396725454e+01 -9.92959503129819154e+00 -3.40753481440612873e+01
1 4.05230947906611334e+01 3.62905439072778933e+01 1.13818790681311430e+01
1 1.21464762745775573e+02 9.39876240726211307e+01 -1.40688765891810696e+01
1 6.80397281570250811e+01 -1.04706435151925437e+01 -3.09528359634473160e+00
1 1.20600944469173285e+02 -4.10830587012563058e+01 -1.02629381310216331e+02
1 4.48231587426913762e+01 -2.56904137710904656e+00 -1.19188348983053501e+02
8
Step 60
1 3.46555477923387159e+01 8.17555227715286605e+01 -4.11233689843520978e+01
1 7.53392453094160004e+01 -9.49786035753022873e+01 -8.56685150882299524e+01
1 -6.94306907904851300e+01 -1.43219420545036318e+01 -4.00113695958036644e+01
1 3.94159841984893760e+01 2.91576005802862355e+01 2.44436125293576296e+01
1 1.15459025478503051e+02 8.18276103542735882e+01 -1.64030728837655921e+01
1 7.02453414323244232e+01 -5.02573591024174249e+00 -7.35627225814232322e+00
1 1.21004137719254629e+02 -4.39050391541752489e+01 -9.80080324793270847e+01
1 3.21065260718132279e+01 1.09322515182695934e+00 -1.18006705096382476e+02
8
Step 70
1 3.52451388102294842e+01 8.60481986890161039e+01 -3.89777270875894644e+01
1 7.20361350123445163e+01 -8.95657674214395030e+01 -8.96802791609653127e+01
1 -7.42190719577132398e+01 -1.88349010685244984e+01 -4.52636962737524655e+01
1 3.77869541865036211e+01 2.19929516249026769e+01 3.78510686677906136e+01
1 1.08366829984921566e+02 6.92773138466898075e+01 -1.81725052357630403e+01
1 7.19126823718205088e+01 4.68475709358239012e-01 -1.25098036582942722e+01
1 1.20726003646119594e+02 -4.66447355890980475e+01 -9.26010265666829611e+01
1 1.91365615699415130e+01 4.71559265466502442e+00 -1.15469827539208524e+02
8
Step 80
1 3.50375966903215712e+01 9.01134247910396340e+01 -3.62837397815065614e+01
1 6.75273400752393087e+01 -8.28777855657702816e+01 -9.24119579357179077e+01
1 -7.78518365928606357e+01 -2.34314896040623282e+01 -4.97636489389781147e+01
1 3.56822115823556416e+01 1.48892828556307588e+01 5.14988033537680892e+01
1 1.00298829167710494e+02 5.64676504392248191e+01 -1.93343226847441372e+01
1 7.30655681670395154e+01 5.99191190724675149e+00 -1.84753605609542113e+01
1 1.19724517427148470e+02 -4.93045728584694274e+01 -8.64641311517492852e+01
1 6.00698394233576849e+00 8.17856961220290657e+00 -1.11615487937309837e+02
8
Step 90
1 3.40719196833414628e+01 9.38977437598787503e+01 -3.30808565617260371e+01
1 6.18988290282322140e+01 -7.50602871984627882e+01 -9.38970436855631903e+01
1 -8.03549073731526988e+01 -2.80743240672843051e+01 -5.34517201666146988e+01
1 3.31575191504840916e+01 7.93592931159283044e+00 6.52729598469039871e+01
1 9.13774177855674878e+01 4.35292865721234463e+01 -1.98545579635307945e+01
1 7.37333928123120614e+01 1.15256639074222846e+01 -2.51562917819997942e+01
1 1.17963114792821642e+02 -5.18853956586543603e+01 -7.96649014927741064e+01
1 -7.18732912188600537e+00 1.13667487537770384e+01 -1.06501242166812744e+02
8
Step 100
1 3.24005115439486673e+01 9.73488574327042784e+01 -2.94151918037778266e+01
1 5.52553671242148354e+01 -6.62761880487978772e+01 -9.41883148807214781e+01
1 -8.17688143253207471e+01 -3.27258170586669124e+01 -5.62787646124637888e+01
1 3.02771205412689497e+01 1.21755896759036153e+00 7.90528192167536901e+01
1 8.17349169023054714e+01 3.05911753495776075e+01 -1.97091087484193679e+01
1 7.39504256681359493e+01 1.70520818644297911e+01 -3.24414218013556095e+01
1 1.15411602870454288e+02 -5.43862259192044633e+01 -7.22817754665354641e+01
1 -2.03510750516534955e+01 1.41708395422400049e+01 -1.00203650271730083e+02
8
Step 110
1 3.00883846786875573e+01 1.00416295524594318e+02 -2.53387793883193915e+01
1 4.77187151485242111e+01 -5.67029016587496884e+01 -9.33568477393702096e+01
1 -8.21479455630627200e+01 -3.73483787748929998e+01 -5.82070823976891560e+01
1 2.71124776614695335e+01 -5.18708651061678427e+00 9.27125774103014351e+01
1 7.15115674788633413e+01 1.77790742848445369e+01 -1.88845839472454955e+01
1 7.37550401533556368e+01 2.25548473880617522e+01 -4.02069576337018617e+01
1 1.12047019457991681e+02 -5.68040749083322822e+01 -6.44029355295614891e+01
1 -3.33893144589214899e+01 1.64896247107019391e+01 -9.28171600741429756e+01
8
Step 120
1 2.72121096047095108e+01 1.03052096720850770e+02 -2.09087168611063028e+01
1 3.94254779533651742e+01 -4.65292290113592770e+01 -9.14906946961522465e+01
1 -8.15595876459283318e+01 -4.19046251749029395e+01 -5.92113538490490612e+01
1 2.37408335359630520e+01 -1.12063676281650704e+01 1.06123322283443812e+02
1 6.08533470062239061e+01 5.21406262658064712e+00 -1.73789772149547019e+01
1 7.31888782789558832e+01 2.80190284486522216e+01 -4.83186775461592219e+01
1 1.07854408267274152e+02 -5.91338159026621071e+01 -5.61249395961896553e+01
1 -4.62083075540426620e+01 1.82317987246821147e+01 -8.44526426982210268e+01
8
Step 130
1 2.38585134419460729e+01 1.05211484083928269e+02 -1.61862062876153345e+01
1 3.05246241587421565e+01 -3.59519691713047465e+01 -8.86932280564177944e+01
1 -8.00827490424509563e+01 -4.63575926390166799e+01 -5.92793830262697696e+01
1 2.02436231456884030e+01 -1.67768080878249606e+01 1.19155168626642208e+02
1 4.99096376832261583e+01 -6.98891309514277026e+00 -1.52021316267780016e+01
1 7.22959606778822916e+01 3.34311131507046966e+01 -5.66343707367342404e+01
1 1.02827477380705815e+02 -6.13681216638817730e+01 -4.75511346630520677e+01
1 -5.87163843248920543e+01 1.93176402560107157e+01 -7.52355825267918306e+01
8
Step 140
1 2.01231423670172980e+01 1.06853513690048743e+02 -1.12355061454697314e+01
1 2.11747177243539966e+01 -2.51723153268623783e+01 -8.50811628409040850e+01
1 -7.78067708561001865e+01 -5.06709560970359050e+01 -5.84126109190382081e+01
1 1.67047648152980521e+01 -2.18440070077386927e+01 1.31679494978193702e+02
1 3.88307899278343456e+01 -1.87224279149490975e+01 -1.23759648883184852e+01
1 7.11217563862833657e+01 3.87790177543336867e+01 -6.50064803783757981e+01
1 9.69691109120677339e+01 -6.34974689619583330e+01 -3.87898804703763247e+01
1 -7.08248258599120106e+01 1.96804685578134624e+01 -6.53039420909441475e+01
8
Step 150
1 1.61085162532998289e+01 1.07941674306125051e+02 -6.12281586861476779e+00
1 1.15409216506872561e+01 -1.43921207427504037e+01 -8.07822908026307260e+01
1 -7.48297417648077641e+01 -5.48092454013942785e+01 -5.66263669437884545e+01
1 1.32088741374825567e+01 -2.63633692242039466e+01 1.43571214773140639e+02
1 2.77656388198678137e+01 -2.98878588796615290e+01 -8.93443341102686794e+00
1 6.97122311912523429e+01 4.40520639109515102e+01 -7.32848867213778021e+01
1 9.02917096673406832e+01 -6.55102100816100545e+01 -2.99526238479167617e+01
1 -8.24487281944361143e+01 1.92678360055518674e+01 -5.48057420051097210e+01
8
Step 160
1 1.19222164662080683e+01 1.08444417035044864e+02 -9.15121033295742237e-01
1 1.79185127467614813e+00 -3.81013467719341126e+00 -7.59329755566555207e+01
1 -7.12567473765668637e+01 -5.87380533678193260e+01 -5.39498388370035258e+01
1 9.83944978907705270e+00 -3.03006251524453667e+01 1.54711007819607090e+02
1 1.68590413463392714e+01 -4.03965132438231791e+01 -4.92322528748543853e+00
1 6.81128971586545049e+01 4.92409204519380808e+01 -8.13197544765000515e+01
1 8.28173450598650334e+01 -6.73927088361496232e+01 -2.11518758934753457e+01
1 -9.35078169892229596e+01 1.80424163804956876e+01 -4.38964148615210519e+01
8
Step 170
1 7.67485831358484116e+00 1.08335597176447592e+02 4.32096823421179543e+00
1 -7.90363296726348441e+00 6.38168316079791698e+00 -7.06754743408804984e+01
1 -6.71979961253421010e+01 -6.24242286004629818e+01 -5.04257550776646823e+01
1 6.67708474195104085e+00 -3.36321196993796647e+01 1.64987437388344489e+02
1 6.24950740469077459e+00 -5.01705642421362228e+01 -3.99185466948805801e-01
1 6.63678883728048561e+01 5.43375062326878151e+01 -8.89643613604821724e+01
1 7.45777208415990884e+01 -6.91295363439020036e+01 -1.24991521760254383e+01
1 -1.03927181759896612e+02 1.59825603297762662e+01 -3.27360075094447964e+01
8
Step 180
1 3.47800654026802336e+00 1.07594815731668007e+02 9.52035093141859434e+00
1 -1.73795976922693853e+01 1.60016610592267661e+01 -6.51551630319961816e+01
1 -6.27668727885766771e+01 -6.58360470450973736e+01 -4.61097889991068257e+01
1 3.79775652948144549e+00 -3.63448603363692726e+01 1.74298883745916953e+02
1 -3.93300355862251871e+00 -5.91437624205453076e+01 4.57051023004046364e+00
1 6.45190885423193947e+01 5.93348523900310028e+01 -9.60778237068196148e+01
1 6.56139482396278169e+01 -7.07037199485109653e+01 -4.10293957452625513e+00
1 -1.13637902332525911e+02 1.30825046716970164e+01 -2.14863162256552300e+01
8
Step 190
1 -5.57905447855967074e-01 1.06207654432958407e+02 1.46205069779572003e+01
1 -2.64760798932968555e+01 2.48816270016108341e+01 -5.95177461888452370e+01
1 -5.80779754936291326e+01 -6.89433581148008869e+01 -4.10697079857314833e+01
1 1.27124619705214270e+00 -3.84363263865554359e+01 1.82555236291493486e+02
1 -1.35690557483193466e+01 -6.72619022079043418e+01 9.90940376878824836e+00
1 6.26053348023570990e+01 6.42269247065268019e+01 -1.02527640811661570e+02
1 5.59761505200206884e+01 -7.20970373757168090e+01 3.93324837874661215e+00
1 -1.22577547252597270e+02 9.35223904830502129e+00 -1.03080424966252089e+01
8
Step 200
1 -4.32559453580204156e+00 1.04165805130668559e+02 1.95624767725024533e+01
1 -3.50419170229572501e+01 3.28697507962633750e+01 -5.39065324425370633e+01
1 -5.32451921074113486e+01 -7.17177039940279144e+01 -3.53843028751743347e+01
1 -8.40272224476772300e-01 -3.99140534323175089e+01 1.89679302272295331e+02
1 -2.25514283644686628e+01 -7.44830372349005501e+01 1.55329887638947142e+01
1 6.06617189000487755e+01 6.90084093066136859e+01 -1.08191991636963138e+02
1 4.57229215450526070e+01 -7.32903476211865268e+01 1.15126724968521099e+01
1 -1.30690533144045475e+02 4.81704981419679434e+00 6.41946979948053720e-01
8
Step 210
1 -7.72283398785034514e+00 1.01467100968754806e+02 2.42917241635436802e+01
1 -4.29372950140913616e+01 3.98329564800411546e+01 -4.84598478059763522e+01
1 -4.83798672748966965e+01 -7.41324139891732017e+01 -2.91421405333293180e+01
1 -2.48344043028877381e+00 -4.07950171356069546e+01 1.95607908397392180e+02
1 -3.07864901240826185e+01 -8.07774521577808429e+01 2.13500869572263632e+01
1 5.87190023677152553e+01 7.36744673483511860e+01 -1.12961734163567002e+02
1 3.49206684933459712e+01 -7.42639501703214648e+01 1.85469809231685900e+01
1 -1.37928344348992823e+02 -4.83224956102018210e-01 1.12131832935324613e+01
8
Step 220
1 -1.06542060879481166e+01 9.81154621870852139e+01 2.87588661636897065e+01
1 -5.00359651404809895e+01 4.56588704071769200e+01 -4.33086466388163203e+01
1 -4.35891028401156859e+01 -7.61626790920314107e+01 -2.24401857569641088e+01
1 -3.61470336285250848e+00 -4.11048485779349662e+01 2.00292690241369229e+02
1 -3.81952405100768502e+01 -8.61274117075386130e+01 2.72643238351726644e+01
1 5.68031568363304800e+01 7.82204664774146323e+01 -1.16742076921305170e+02
1 2.36428709478201959e+01 -7.49979648747105898e+01 2.49576031713950286e+01
1 -1.44249622314155033e+02 -6.49518540645829390e+00 2.12639245009393676e+01
8
Step 230
1 -1.30326730845771479e+01 9.41207729437359859e+01 3.29202610693910032e+01
1 -5.62271018891536443e+01 5.02572956588562647e+01 -3.85743639637109368e+01
1 -3.89742232034082150e+01 -7.77856147638128732e+01 -1.53823371300588398e+01
1 -4.20106793065210127e+00 -4.08769177751440651e+01 2.03700580872082838e+02
1 -4.47140193208973429e+01 -9.05267178910341812e+01 3.31756630128890251e+01
1 5.49350349764071169e+01 8.26416984047000938e+01 -1.19453911549884737e+02
1 1.19692869207596928e+01 -7.54727259666476016e+01 3.06769085581740235e+01
1 -1.49620142925412893e+02 -1.31530556546220048e+01 3.06632130055117322e+01
8
Step 240
1 -1.47809506957082561e+01 8.94987068700892934e+01 3.67384546006011306e+01
1 -6.14167941535005042e+01 5.35612252859510107e+01 -3.43670358271847434e+01
1 -3.46294248852214892e+01 -7.89803219056955754e+01 -8.07791587843740189e+00
1 -4.22063553062355723e+00 -4.01513231145567104e+01 2.05814022822968070e+02
1 -5.02949015458548487e+01 -9.39801127091483295e+01 3.89819652527736551e+01
1 5.31301723038370994e+01 8.69330929632530598e+01 -1.21034812304422360e+02
1 -1.48684907885519024e-02 -7.56691850272763276e+01 3.56491256726350159e+01
1 -1.54012706357163722e+02 -2.03800160760994196e+01 3.92926423086440479e+01
8
Step 250
1 -1.58326794752123874e+01 8.42705181140771629e+01 4.01824903441443695e+01
1 -6.55291787624452411e+01 5.55274231504082891e+01 -3.07836986482123436e+01
1 -3.06406177657974226e+01 -7.97279567775266855e+01 -6.40138362722871168e-01
1 -3.66291862003149404e+00 -3.89738224042133155e+01 2.06630935238503071e+02
1 -5.49058059192150765e+01 -9.65025660073162470e+01 4.45805460833710470e+01
1 5.13987157496807683e+01 9.10889393816012785e+01 -1.21439721357288946e+02
1 -1.22197533657867456e+01 -7.55693189530491480e+01 3.98310303380463893e+01
1 -1.57406967388484929e+02 -2.80896371321981633e+01 4.70478313753291886e+01
8
Step 260
1 -1.61333976616096280e+01 7.84628116754566207e+01 4.32280955375157063e+01
1 -6.85072370457175310e+01 5.61366105376370257e+01 -2.79070658255102906e+01
1 -2.70844555370005367e+01 -8.00118201575780716e+01 6.81540683298712047e+00
1 -2.52895610238565949e+00 -3.73947367254336953e+01 2.06164470452003059e+02
1 -5.85303518924083903e+01 -9.81184863222544550e+01 4.98697144755480224e+01
1 4.97454717560621233e+01 9.51026253340964303e+01 -1.20641346481024044e+02
1 -2.45517281238741276e+01 -7.51565398298470626e+01 4.31924168073673798e+01
1 -1.59789234359164539e+02 -3.61873773614942635e+01 5.38396179514885702e+01
8
Step 270
1 -1.56413239932515626e+01 7.21073024252812047e+01 4.58577557784028116e+01
1 -7.03132811140593361e+01 5.53932992011611915e+01 -2.58044714470505561e+01
1 -2.40275458212478767e+01 -7.98174743645984393e+01 1.41722656379533234e+01
1 -8.31243678273581810e-01 -3.54678523023739842e+01 2.04442591889932061e+02
1 -6.11675011829407538e+01 -9.88608875409107952e+01 5.47502825105299635e+01
1 4.81700647853964981e+01 9.89664036956332609e+01 -1.18630300021427232e+02
1 -3.69141819748311519e+01 -7.44161039311946695e+01 4.57163702948359827e+01
1 -1.61152262219568570e+02 -4.45721175298631849e+01 5.95949901873402226e+01
8
Step 280
1 -1.43279602581271686e+01 6.52405670075950752e+01 4.80606926489003428e+01
1 -7.09291570409827017e+01 5.33253080343940766e+01 -2.45270671444265744e+01
1 -2.15258266477720284e+01 -7.91328940730725776e+01 2.13146051750897954e+01
1 1.40650596937527639e+00 -3.32493391795448545e+01 2.01507499138432934e+02
1 -6.28310171906928119e+01 -9.87705368998720985e+01 5.91270413143917608e+01
1 4.66671963674958832e+01 1.02671195956729150e+02 -1.15415005598590710e+02
1 -4.92083622306913995e+01 -7.33355167085107382e+01 4.73993586023327751e+01
1 -1.61495060019729777e+02 -5.31377124701711097e+01 6.42577786160434954e+01
8
Step 290
1 -1.21785214897216854e+01 5.79037875574767753e+01 4.98327568522707764e+01
1 -7.03561881813664201e+01 4.99829928656711715e+01 -2.41092585877163010e+01
1 -1.96240954595229482e+01 -7.79486534063599237e+01 2.81286815147011460e+01
1 4.14976141539100940e+00 -3.07966995684109399e+01 1.97414917744175455e+02
1 -6.35487696085378246e+01 -9.78951015307112442e+01 6.29102010340010622e+01
1 4.52269948551002017e+01 1.06206440053158715e+02 -1.11021392947603289e+02
1 -6.13342171559240512e+01 -7.19049296460726026e+01 4.82511572920872354e+01
1 -1.60822726440642441e+02 -6.17745503913373355e+01 6.77891284630726290e+01
8
Step 300
1 -9.19219759207768661e+00 5.01424814930345875e+01 5.11762468211348178e+01
1 -6.86148749939235501e+01 4.54382090755888015e+01 -2.45683718474965218e+01
1 -1.83556790306355850e+01 -7.62581478939949875e+01 3.45042914204724269e+01
1 7.35372138145203991e+00 -2.81677540033153093e+01 1.92233262474430603e+02
1 -6.33619039534008479e+01 -9.62883025640513779e+01 6.60167920690277441e+01
1 4.38354465303858021e+01 1.09559989007764358e+02 -1.05492393342141384e+02
1 -7.31912654523742816e+01 -7.01175233232138311e+01 4.82946176714427082e+01
1 -1.59146319429411534e+02 -7.03711152994303006e+01 7.01677665812018887e+01
8
Step 310
1 -5.38224490687498758e+00 4.20062080899473358e+01 5.20996595082590801e+01
1 -6.57443597384054641e+01 3.97830170369165188e+01 -2.59045454994397488e+01
1 -1.77422367605643068e+01 -7.40578458474488883e+01 4.03362095121199573e+01
1 1.09640102554357615e+01 -2.54196703613717609e+01 1.86042674858814195e+02
1 -6.23238879946644673e+01 -9.40090787243464518e+01 6.83720213958206386e+01
1 4.24748992178451275e+01 1.12718065305265668e+02 -9.88872398523689213e+01
1 -8.46795049925107293e+01 -6.79698691611475994e+01 4.75652810282473197e+01
1 -1.56482758470189879e+02 -7.88155510023790242e+01 7.13900695492623782e+01
8
Step 320
1 -7.75901037959840112e-01 3.35482405149696845e+01 5.26173768503524215e+01
1 -6.18016570640716836e+01 3.31281327424672511e+01 -2.81008504020337071e+01
1 -1.77936947676991970e+01 -7.13475598610765047e+01 4.55256078674534734e+01
1 1.49175188518110353e+01 -2.26080394756061125e+01 1.78933930140777278e+02
1 -6.04994404835632338e+01 -9.11207560920131243e+01 6.99105722582478819e+01
1 4.11246297902957565e+01 1.15665274322518584e+02 -9.12805698703975139e+01
1 -9.57003701292731819e+01 -6.54622603974086132e+01 4.61108372985605470e+01
1 -1.52854751222556558e+02 -8.69972247912835996e+01 7.14699312969862461e+01
8
Step 330
1 4.58588773125338545e+00 2.48251917033055314e+01 5.27492887581223115e+01
1 -5.68606463259758570e+01 2.56011219322258015e+01 -3.11236440882760128e+01
1 -1.85083130035690644e+01 -6.81307257904346386e+01 4.99814485122543246e+01
1 1.91433898336412263e+01 -1.97860013607390641e+01 1.71007206167303082e+02
1 -5.79633432138010321e+01 -8.76902176912643228e+01 7.05778286897933782e+01
1 3.97614666916045536e+01 1.18384678396576163e+02 -8.27613231905969542e+01
1 -1.06157741216785524e+02 -6.25990011313563528e+01 4.39904227030093722e+01
1 -1.48290730777250332e+02 -9.48082855757452165e+01 7.04384215960582054e+01
8
Step 340
1 1.06489389108123458e+01 1.58965839669883895e+01 5.25203518564901373e+01
1 -5.10108195940400222e+01 1.73443364837765088e+01 -3.49231694609410468e+01
1 -1.98728913216030278e+01 -6.44146739890009599e+01 5.36218314962926783e+01
1 2.35641458195881519e+01 -1.70034276199267183e+01 1.62370707689094729e+02
1 -5.47991359112049210e+01 -8.37870658939508672e+01 7.03309993832549623e+01
1 3.83604577630112331e+01 1.20857931216200456e+02 -7.34314283356914785e+01
1 -1.15959002510905407e+02 -5.93886411301301109e+01 4.12737496184921611e+01
1 -1.42824786060457853e+02 -1.02145205646585097e+02 6.83432222097581104e+01
8
Step 350
1 1.73465176687437825e+01 6.82435539809629432e+00 5.19600828355355802e+01
1 -4.43557813839673045e+01 8.51259704850425436e+00 -3.94344071197558179e+01
1 -2.18631223333663058e+01 -6.02108760535687111e+01 5.63752734792014465e+01
1 2.80969545492245203e+01 -1.43061679092646195e+01 1.53139144019330644e+02
1 -5.10976949774776941e+01 -7.94827721523226103e+01 6.91401095091577531e+01
1 3.68955723084338345e+01 1.23065470183978690e+02 -6.34042731519769163e+01
1 -1.25016136211705458e+02 -5.58441437567597347e+01 3.80400634730905480e+01
1 -1.36496566251844200e+02 -1.08910288284728765e+02 6.52478263622067232e+01
8
Step 360
1 2.46002395460098491e+01 -2.32769930749368914e+00 5.11019862506921712e+01
1 -3.70115021999784517e+01 -7.29364524007587001e-01 -4.45781867916498484e+01
1 -2.44440985130695623e+01 -5.55351500377890304e+01 5.81818851364190550e+01
1 3.26550198733595991e+01 -1.17353708341938354e+01 1.43432065546884218e+02
1 -4.69557014916872504e+01 -7.48498118948436684e+01 6.69888252945042382e+01
1 3.53404246491180345e+01 1.24986762278372296e+02 -5.28029628039595522e+01
1 -1.33246832020407254e+02 -5.19829750926876244e+01 3.43769257900906595e+01
1 -1.29351140589624208e+02 -1.15013116250668986e+02 6.12304899454967355e+01
8
Step 370
1 3.23211925444410610e+01 -1.14945504800436993e+01 4.99829188207328272e+01
1 -2.91043375244796216e+01 -1.02096765893225712e+01 -5.02625561091352537e+01
1 -2.75709782308270945e+01 -5.04078081533926081e+01 5.89944113316416292e+01
1 3.71490803768000006e+01 -9.32689176475638604e+00 1.33372074359734199e+02
1 -4.24740104997129251e+01 -6.99607869674063636e+01 6.38750753870965866e+01
1 3.36690046730672563e+01 1.26600596864192866e+02 -4.17583785032259698e+01
1 -1.40575584217344272e+02 -4.78271041807207098e+01 3.03788292935825126e+01
1 -1.21438797554437130e+02 -1.20371909953455940e+02 5.63829294785514392e+01
8
Step 380
1 4.04112698694008259e+01 -2.06106085709353799e+01 4.86423954356433370e+01
1 -2.07688358842047904e+01 -1.97522720095513051e+01 -5.63843950235697662e+01
1 -3.11898104088160046e+01 -4.48537333801436588e+01 5.87790967434354101e+01
1 4.14889899700381051e+01 -7.11080127529705486e+00 1.23082935035938803e+02
1 -3.77559415732811701e+01 -6.48875430915247620e+01 5.98114357786642188e+01
1 3.18563994053683714e+01 1.27885417017875824e+02 -3.04070624731012629e+01
1 -1.46934742875749720e+02 -4.34029072795101811e+01 2.61456594955799879e+01
1 -1.12814771891393903e+02 -1.24914759906998370e+02 5.08087716860336371e+01
8
Step 390
1 4.87646940241583309e+01 -2.96104381508810945e+01 4.71218457895274128e+01
1 -1.21453726271502145e+01 -2.91799500787835377e+01 -6.28312525290485695e+01
1 -3.52385108263446796e+01 -3.89023749960297494e+01 5.75163419758954362e+01
1 4.55853477790066464e+01 -5.11100785601301677e+00 1.12687622154444767e+02
1 -3.29055187727063867e+01 -5.97002947174152752e+01 5.48252514270679896e+01
1 2.98794887423325299e+01 1.28819679435549006e+02 -1.88889673105907789e+01
1 -1.52265483185440928e+02 -3.87409729140118486e+01 2.17810264072014412e+01
1 -1.03538893792524732e+02 -1.28580696799073252e+02 4.46217716231040100e+01
8
Step 400
1 5.72697022432594380e+01 -3.84294916240211322e+01 4.54638342990215634e+01
1 -3.37765839860780570e+00 -3.83174886370461536e+01 -6.94833704971042465e+01
1 -3.96479755364243687e+01 -3.25876575181592401e+01 5.52011211703211870e+01
1 4.93511390987703180e+01 -3.34500700778293414e+00 1.02306349904074835e+02
1 -2.80256953278681387e+01 -5.44667736937755080e+01 4.89584772946383637e+01
1 2.77175984879437856e+01 1.29382232054745060e+02 -7.34511943842624682e+00
1 -1.56518657458157804e+02 -3.38758090016562932e+01 1.73904987962657671e+01
1 -9.36751612040273187e+01 -1.31320564624746908e+02 3.79438291198685747e+01
8
Step 410
1 6.58103537336176458e+01 -4.70048403713987923e+01 4.37112592421366415e+01
1 5.38981864680691380e+00 -4.69947307319464898e+01 -7.62158487884591835e+01
1 -4.43433093458547418e+01 -2.59478024836193910e+01 5.18431413208039160e+01
1 5.27033459012804499e+01 -1.82376583492283628e+00 9.20546351310901656e+01
1 -2.32166034984900591e+01 -4.92514208011332144e+01 4.22672334267723855e+01
1 2.53530948818772721e+01 1.29552698281761053e+02 4.08474481100064857e+00
1 -1.59655498328847017e+02 -2.88454579942701663e+01 1.30797806004409463e+01
1 -8.32912429224647468e+01 -1.33097667915250128e+02 3.09028453737315871e+01
8
Step 420
1 7.42684120860482579e+01 -5.52758798801032043e+01 4.19065494005093484e+01
1 1.40143515205940119e+01 -5.50495672268132594e+01 -8.29008978171882234e+01
1 -4.92451408302197038e+01 -1.90250673862800248e+01 4.74667349786371489e+01
1 5.55644849681741704e+01 -5.51748032694306390e-01 8.20414474078185236e+01
1 -1.85738723854612395e+01 -4.41146400334614981e+01 3.48210816837157751e+01
1 2.27719069324900119e+01 1.29311857243425095e+02 1.52645070263603362e+01
1 -1.61648148635465844e+02 -2.36910303092713370e+01 8.95287372813195503e+00
1 -7.24579261482869583e+01 -1.33888172691040523e+02 2.36304712507966137e+01
8
Step 430
1 8.25252524624426087e+01 -6.31849863836843255e+01 4.00908775807314584e+01
1 2.23575068866148143e+01 -6.23307396246543419e+01 -8.94101204688494420e+01
1 -5.42709907636973128e+01 -1.18654103905900890e+01 4.21104905554813200e+01
1 5.78640343451182559e+01 4.72920844563692488e-01 7.23674978471853052e+01
1 -1.41870555175328903e+01 -3.91121344287207506e+01 2.67020443603805084e+01
1 1.99639659029071304e+01 1.28642010749519272e+02 2.60638947898412283e+01
1 -1.62480002727167715e+02 -1.84561698544097084e+01 5.11027290276859691e+00
1 -6.12485267754843932e+01 -1.33681251522359275e+02 1.62598050309172741e+01
8
Step 440
1 9.04637432491437323e+01 -7.06781055513107503e+01 3.83034100765800645e+01
1 3.02874875190904511e+01 -6.87003958486288724e+01 -9.56167652797657439e+01
1 -5.93366587437653408e+01 -4.51809269375745082e+00 3.58266365689050730e+01
1 5.95397142433642941e+01 1.25815320732847113e+00 6.31237125978890532e+01
1 -1.01382058629775926e+01 -3.42943393630300193e+01 1.80033957490633796e+01
1 1.69235549207513181e+01 1.27527329532751665e+02 3.63605509153110518e+01
1 -1.62145854467595711e+02 -1.31864677931749306e+01 1.64723623800902130e+00
1 -4.97382833610304544e+01 -1.32478974823166226e+02 8.92309919161700371e+00
8
Step 450
1 9.79700557589027028e+01 -7.77052584677245477e+01 3.65806094637076313e+01
1 3.76813086728168543e+01 -7.40363447709606248e+01 -1.01397897016592836e+02
1 -6.43575934256661100e+01 2.96476774358498085e+00 2.86802065126028438e+01
1 6.05385961045608880e+01 1.81747465241015083e+00 5.43899279282344921e+01
1 -6.50062900237462848e+00 -2.97059648950990649e+01 8.82826552220881311e+00
1 1.36495654670867932e+01 1.25954173603767657e+02 4.60418936527588656e+01
1 -1.60651857737611522e+02 -7.92884162331257780e+00 -1.34782983794519184e+00
1 -3.80037561155328660e+01 -1.30295961928040896e+02 1.74953322503233233e+00
8
Step 460
1 1.04935362693112879e+02 -8.42209559730871717e+01 3.49556053323966509e+01
1 4.44267435965163529e+01 -7.82339712652981802e+01 -1.06636438595294834e+02
1 -6.92502149941197445e+01 1.05286770973429871e+01 2.07480184293182930e+01
1 6.08180223525887911e+01 2.16948898570026794e+00 4.62338326565803612e+01
1 -3.33783641721261404e+00 -2.53856535215596537e+01 -7.11903122476469585e-01
1 1.01456609989378546e+01 1.23911383927335905e+02 5.50067297003601041e+01
1 -1.58015314571832448e+02 -2.73089611617005223e+00 -3.79484013171850831e+00
1 -2.61222503532200889e+01 -1.27158815356756165e+02 -5.13689710403989341e+00
8
Step 470
1 1.11257395432141706e+02 -9.01845186733080482e+01 3.34576440498191019e+01
1 5.04240067327477846e+01 -8.12077904689035677e+01 -1.11223048507633237e+02
1 -7.39331637705212188e+01 1.81172684493767164e+01 1.21175070181945959e+01
1 6.03463282888007839e+01 2.33725034595083114e+00 3.87101717616997263e+01
1 -7.02711304124978620e-01 -2.13657542215222271e+01 -1.04989975014662029e+01
1 6.42035078226255251e+00 1.21390544774930390e+02 6.31665955586225607e+01
1 -1.54264313143504211e+02 2.35971913685142587e+00 -5.62333229600317797e+00
1 -1.41712799029915626e+01 -1.23105368954108613e+02 -1.16193332049360141e+01
8
Step 480
1 1.16841840520350985e+02 -9.55603058479382952e+01 3.21116248660699739e+01
1 5.55871567950571048e+01 -8.28926357483415046e+01 -1.15057809163132845e+02
1 -7.83284554015527732e+01 2.56728161607294609e+01 2.88544607819096433e+00
1 5.91033655821384230e+01 2.34756125329169985e+00 3.18602136735741865e+01
1 1.36310983498964022e+00 -1.76722085692528417e+01 -2.04099420717671762e+01