8
Step 0
1 -2.085286265275e+01   6.292774221803e+01   4.528091614985e+01 
1  7.223371578599e+01  -7.160191957723e+00  -4.811401682497e+01 
1  3.521294812006e+01  -5.574803034824e+01   6.932730076890e+01 
1  5.834431226767e+01   3.413925235964e+01  -3.833126681060e+01 
1 -5.863304183448e+01  -3.561420874390e+01   7.616396741191e+01 
1  7.540330238677e+01  -3.575458675880e+01  -1.940912708350e+01 
1 -7.609144493216e+01   6.472004551485e+01  -6.113465809600e+01 
1 -1.136950171554e+01   5.790460616002e+01  -3.822221383630e+01 
8
Step 1000
1  3.594828412064e+01   4.858278611996e+00   4.272456715170e+01 
1  1.364993700224e+01   2.203201228598e+01  -7.216151244555e+01 
1  2.785508489848e+01  -5.406184770357e+01   2.497991737023e+00 
1  5.096689177486e+01  -1.270137800042e+01   3.904563441475e+00 
1 -3.628518124998e+01  -1.691258641436e+01  -5.534852436585e+00 
1  1.103026261648e+01   1.964658319514e+01  -2.648807783711e+01 
1 -7.126915918264e+01   3.502588834828e+01  -6.337140516284e+01 
1  9.248367026439e+00   3.512791450185e+01  -3.703279433946e+01 
8
Step 2000
1  6.142262203349e+01  -4.496831576123e+01   1.193901632578e+01 
1 -6.172852235772e+01   3.467721865750e+01  -2.730327621024e+01 
1  4.586645126484e+00  -2.552815750343e+01  -5.529837538924e+01 
1  1.849778426313e+01  -3.648287683557e+01   8.139359873734e+01 
1  2.061680742625e+01   5.917331754779e+00  -7.281938044240e+01 
1 -4.531988240444e+01   9.033586503005e+01  -3.467921374141e+01 
1 -8.298689517095e+00  -2.895931428978e+01  -3.705658347352e+01 
1  4.292852204508e+01  -1.646733013164e+01   5.579588339673e+00 
8
Step 3000
1  6.270156774210e+01  -3.831587468247e+01  -8.995176951965e+00 
1 -7.304932584217e+01   1.552516293382e+01   1.372299669034e+01 
1 -2.458609451768e+01   2.842803118552e+00  -6.006015631264e+01 
1 -1.289096956932e+01  -1.942622778271e+01   9.338160571762e+01 
1  4.718709204348e+01  -6.287465232622e+00  -4.015550651385e+01 
1 -4.235352837241e+01   1.144035104172e+02  -1.211144975352e+01 
1  5.407129721478e+01  -8.272318411229e+01   2.339050465962e+00 
1  4.773880238455e+01  -4.207295527623e+01   3.505593445593e+01 
8
Step 4000
1  5.416009262067e+01   7.445184557906e+00  -3.825898864405e+00 
1 -2.226265051718e+01  -1.337469941287e+01   6.796923886589e-02 
1 -4.274601090291e+01   2.422896500510e+01  -3.461225129576e+01 
1 -2.499852001409e+01   5.013785449316e+00   3.128718597851e+01 
1  1.603097512831e+01  -3.167853329548e+01   4.442771477074e+01 
1 -7.419713453825e+00   7.586679820235e+01   2.715307830017e+01 
1  6.828507222691e+01  -8.975068175066e+01   3.434658864758e+01 
1  1.058425691291e+01  -2.334218126333e+01   1.857820536365e+01 
8
Step 5000
1  3.137723135617e+01   4.096475995733e+01   1.079481479516e+01 
1  2.510207704354e+01  -2.471671234613e+01  -4.169286246603e+01 
1 -3.865183858657e+01   4.278425229751e+01  -1.398255591730e+01 
1 -1.563973167437e+01  -9.629549841086e-01  -2.060046370504e+01 
1 -3.823804550851e+01  -2.522250602266e+01   7.449589455825e+01 
1  7.091750746443e+00   1.040884241797e+01   3.790243113399e+01 
1  3.071044370092e+01  -5.080232534731e+01   4.233146761722e+01 
1 -4.204073123895e+01   4.212307240874e+00  -2.025974782169e+01 
8
Step 6000
1 -8.260399387318e+00   3.151338422502e+01   1.233687347227e+01 
1  2.455221810749e+01  -1.818620166817e+01  -5.035369898313e+01 
1 -1.703230337321e+01   5.024429886473e+01  -3.205119108503e+00 
1  2.378349279229e+00  -2.963363787122e+01  -3.311432433440e+00 
1 -5.600081672458e+01   1.459061805985e+01   1.771732598991e+01 
1 -7.901022584141e+00  -3.477098616339e+01   8.978058595472e+00 
1 -2.084060445270e+01  -6.694657106592e-01   2.470498189657e+01 
1 -6.886235567106e+01  -2.850325067427e-01  -3.419211496638e+01 
8
Step 7000
1 -4.391060061417e+01  -5.623692976446e+00   5.668641973824e-01 
1 -1.659559241639e-01  -1.309839180483e+01  -1.087045286956e+01 
1  4.294648316087e+00   3.090598139623e+01   1.148940754754e+01 
1  1.129452336320e+01  -3.606104294552e+01   3.849910262743e+01 
1 -1.833307670764e+01   4.037495398317e+01  -5.403002840576e+01 
1 -1.514416597466e+01  -4.452625360040e+01  -1.668496684620e+01 
1 -4.449532328470e+01   3.026387056286e+01  -2.371174021429e+00 
1 -5.056565182181e+01  -2.857302203302e+01  -9.927360936643e+00 
8
Step 8000
1 -4.856829505581e+01  -3.399301360933e+01  -7.415609189123e+00 
1 -1.885900280100e+00  -1.458391456329e+01   3.046052412741e+01 
1  9.640111573257e+00  -1.009856192845e+01   2.893662533693e+01 
1  2.293879237725e+00   3.442712760120e+00   2.342905403695e+01 
1  3.300189101711e+01   1.898162612561e+01  -6.399107920455e+01 
1  9.191657781417e+00  -3.709539500599e+01  -4.169602232209e-01 
1 -3.104327185249e+01   4.212332558063e+01  -1.685377529495e+01 
1 -2.430809006201e+00  -3.597340215114e+01   2.077953609191e+01 
8
Step 9000
1 -2.399389707845e+01  -3.462192292050e+01  -4.027732747927e+00 
1  2.272919008890e+01  -5.442066452137e+00   2.962807031678e+01 
1 -3.108874531170e-02  -4.103302938016e+01   3.144709622990e+01 
1 -1.596064872045e+01   5.577304104474e+01  -5.203459343224e+01 
1  4.427337291477e+01  -2.341782908676e+01  -1.953707592606e+01 
1  3.818871198177e+01  -3.313950478613e+01   3.669122835636e+01 
1 -5.242545073337e+00   4.956253868491e+01  -8.521887327745e+00 
1  4.170302154367e+01  -2.534141698180e+00   2.446498122784e+01 
8
Step 10000
1 -1.183887663726e+00  -1.710337833542e+01  -1.958308223738e+00 
1  3.374675171273e+01   2.212292093460e+01   2.906674188776e-01 
1 -7.712639730910e+00  -3.771092544146e+01   1.394010840859e+01 
1 -2.348435205130e+01   6.389269364572e+01  -1.066084933301e+02 
1  1.121298637185e+01  -3.446270949667e+01   1.599025917023e+01 
1  2.995848460511e+01  -3.362169810667e+01   4.004483493133e+01 
1  5.397174847013e+00   5.167228062234e+01   1.191813375546e+01 
1  5.450211838891e+01   3.961439779201e+01   4.326457854990e+00 
8
Step 11000
1 -1.558271470774e+00  -3.682891058716e-01  -1.470756602568e+01 
1  7.902628420131e+00   4.385097706199e+01  -8.328982732142e+00 
1  2.501878341332e+00  -1.472506247922e+01  -4.538229583296e+00 
1 -9.052912693180e+00   1.175864974536e+01  -8.014360652590e+01 
1 -1.915274273827e+01  -2.806214302359e+00   1.373292469493e+01 
1 -1.375586481289e+01  -2.676741831385e+01  -4.174870250732e+00 
1 -9.388415909228e-01   3.278722473101e+01   2.206799289503e+01 
1  3.127050723039e+01   4.834382489261e+01  -1.116154313301e+01 
8
Step 12000
1 -1.136169387593e+01   7.937335013585e+00  -3.387381404632e+01 
1 -2.858894488985e+01   2.927072894410e+01   2.272725860007e+01 
1  2.718396098309e+01  -6.009732783508e+00  -6.127728629952e+00 
1  1.486457908894e+01  -5.479140082613e+01  -5.745976962535e+00 
1 -8.266639197316e+00   3.001007614508e+01   5.209395079215e+00 
1 -4.617251005866e+01  -7.553197252623e+00  -4.804324124108e+01 
1 -4.685361331871e+00  -7.792798549961e+00   8.636996606731e+00 
1 -9.900113913485e+00   2.328756887584e+01  -6.793015801089e+00 
8
Step 13000
1 -3.754941130723e+00   1.199328037140e+01  -3.500782510410e+01 
1 -3.594406318108e+01  -1.275383761926e+01   5.730668319223e+01 
1  4.361948472887e+01  -1.717761139198e+01   6.777885733634e-01 
1  2.199000009824e+01  -7.366791449257e+01   3.946049670472e+01 
1  2.497289935902e+01   2.550264292668e+01   2.160108295591e+01 
1 -3.288562635170e+01   1.493807325692e+01  -4.296189268231e+01 
1  7.641755665717e+00  -4.228569008976e+01  -1.847342663352e+01 
1 -3.917684771578e+01  -3.939556444745e-02   4.979711955459e+00 
8
Step 14000
1  2.128840306113e+01   1.533313749462e+01  -7.353256780271e+00 
1 -1.303963227006e+01  -3.668391247139e+01   5.029318041566e+01 
1  3.240602528760e+01  -1.610483716857e+01  -5.131040251528e+00 
1  2.996729746983e+00  -3.023875653739e+01   3.397958148946e+01 
1  2.857877623821e+01  -3.106937700940e+00   4.200673308979e+01 
1  7.294542710483e+00   2.804658340605e+01  -2.286950404475e+00 
1  2.630309913024e+01  -4.355353326522e+01  -3.526262964158e+01 
1 -3.560007545151e+01  -2.999353801915e+00   7.236967659004e+00 
8
Step 15000
1  3.522879641427e+01   1.500353099024e+01   3.081686379598e+01 
1  7.353576515419e+00  -1.540681525350e+01   9.967422177830e-01 
1 -1.564717287767e+00   1.925962741203e+01  -2.326141318233e+01 
1 -1.954238131460e+01   3.348177314059e+01   2.307349875008e+01 
1 -1.485561555731e+01  -1.476812962465e+01   2.550431235234e+01 
1  3.111234324641e+01   2.767455493624e+01   2.025916030398e+01 
1  3.055319773624e+01  -1.787830023303e+01  -2.687695658855e+01 
1 -2.787336212701e+00  -4.705159927289e+00   1.663591094863e+00 
8
Step 16000
1  1.943902217068e+01   9.038600902487e+00   4.952277407383e+01 
1  5.666683442941e+00   2.173408185301e+01  -4.822863952996e+01 
1 -3.175703451052e+01   5.979201751030e+01  -2.853186867197e+01 
1 -1.402362882431e+01   6.351668333612e+01   4.160276133161e+01 
1 -6.060644106757e+01   1.612502135809e+00  -2.312683349370e+01 
1  2.425954063740e+01   2.124003128456e+01   2.085181470014e+00 
1  1.296216362323e+01   1.685595919688e+00  -1.967657323620e+00 
1  3.097580799499e+01  -2.364379509015e+01   9.329236938740e-01 
8
Step 17000
1 -8.335896042548e+00   2.954804551055e+00   3.847401999512e+01 
1 -2.547083853195e+00   2.348565012277e+01  -6.127955760560e+01 
1 -3.683171365395e+01   5.436199319994e+01  -6.119316057000e+00 
1  2.003205179750e+01   4.441206717482e+01   6.315916053177e+01 
1 -5.186273175468e+01   1.475287137411e+01  -5.194265834065e+01 
1  9.967609697704e+00   2.015403594032e+01  -2.213144049036e+01 
1 -1.290993952116e+01  -3.830770636284e+00   1.706798149726e+01 
1  3.570752111118e+01  -4.023776237130e+01   6.196166824027e+00 
8
Step 18000
1 -1.671228794275e+01   3.204049243212e+00   1.381971052843e+01 
1  2.780450470924e+00  -1.640485162029e+01  -4.148025059342e+01 
1 -2.130913111202e+01  -2.342547565444e+00   2.415398458080e+01 
1  4.588415855504e+01   3.157909725184e+00   4.401740410956e+01 
1  1.252139205161e+01  -7.048501421112e-01  -2.976265295484e+01 
1  6.846516526756e+00   2.754054936270e+01  -1.301670654216e+01 
1 -2.877685822413e+01  -1.793323133013e+01   1.739166341027e+01 
1  7.616435467681e+00  -2.129793063771e+01   4.537169018725e+00 
8
Step 19000
1 -2.801777697655e-02   6.221633813242e+00  -3.816987553187e+00 
1  1.412230558085e+01  -4.790800152428e+01  -1.590867045111e+01 
1 -6.958438125167e+00  -5.274801170027e+01   2.965591137540e+01 
1  2.972142839205e+01  -2.532734888663e+01  -8.769865103743e+00 
1  7.240608169207e+01  -2.583844282051e+01   1.215802689846e+01 
1  2.584743787836e+00   3.159918972249e+01   1.937489235646e+01 
1 -2.813575622784e+01  -1.383736689267e+01   6.256297378456e+00 
1 -2.583409454961e+01   2.451616101903e+01  -1.075370761083e+01 
8
Step 20000
1  1.634151839271e+01   3.171092601930e-01  -1.145908395000e+01 
1  1.063509483506e+01  -2.764055941679e+01  -1.558046749636e+00 
1 -6.186726027316e+00  -4.181488857725e+01   7.087367780137e+00 
1 -1.608788170799e+01  -2.988879860956e+01  -4.441702788468e+01 
1  7.058848332798e+01  -2.285066423992e+01   2.201442115483e+01 
1 -1.952440337293e+01   1.420925692660e+01   3.264568309441e+01 
1 -1.650858310440e+01   8.898862159163e+00  -5.296659022358e-02 
1 -3.239077566109e+01   4.354756521159e+01  -2.718706078943e+01 
8
Step 21000
1  1.050559285054e+01  -1.800575286022e+01  -2.004072365555e+01 
1 -5.260779369615e+00   2.432325155839e+01   5.494366109071e+00 
1 -9.339399102391e+00   1.355037245338e+01  -1.340120071555e+01 
1 -4.470839274179e+01  -2.267246237602e+01  -3.952556737420e+01 
1  1.226624918413e+01   1.079495676172e+01  -3.300936740423e+00 
1 -4.373141499903e+01  -2.821884112694e+01   1.390923206560e+01 
1 -1.197901036469e-01   2.627155713257e+01   4.663839439503e+00 
1 -8.274304957414e+00   4.490463055616e+00  -2.683172725448e+01 
8
Step 22000
1 -1.060856186542e+01  -3.370803194655e+01  -3.328429827490e+01 
1 -8.094842785473e+00   4.902165392671e+01   1.366111855712e+01 
1 -7.125454404154e-01   4.296867121190e+01  -8.022611693027e+00 
1 -2.985607981346e+01  -1.661523516610e+01  -2.558027802081e+01 
1 -4.680922902955e+01   3.562063087261e+01  -1.860361075860e+01 
1 -3.446934196130e+01  -7.176926330692e+01  -4.032604807665e+00 
1  1.730625036394e+01   2.423818759636e+01   1.203548432639e+01 
1  1.912724544303e+01  -5.190795784444e+01  -7.026359518852e+00 
8
Step 23000
1 -2.523917866625e+01  -2.682853785243e+01  -4.009558918425e+01 
1  1.091977023778e+01   2.307637861017e+01   2.374909186080e+01 
1  1.920427932438e+01   8.895553220627e+00   9.911409996353e+00 
1  1.464114224621e+00  -1.176097022032e+01  -3.621235442601e+01 
1 -6.160091869510e+01   2.073160809131e+01   3.324369362042e+00 
1  1.195829150050e+01  -8.170256540142e+01   6.973668329996e+00 
1  2.836528975868e+01   1.606544881238e+01   1.145044914380e+01 
1  2.209070359131e+01  -5.459313641520e+01   1.825736416482e+01 
8
Step 24000
1 -2.577959415975e+01   2.963672973351e+00  -2.846751116666e+01 
1  2.486264608781e+01  -1.526611707773e+01   3.271590572235e+01 
1  3.342791157859e+01  -4.774181447327e+01   1.046448775226e+01 
1  4.214638012673e+00  -1.023345073021e+00  -5.288898455979e+01 
1 -3.544908266299e+01  -1.648217114769e+01   3.322879673602e+01 
1  5.093748722502e+01  -4.627202882475e+01   2.687444729365e+01 
1  2.173963944651e+01   1.792935952468e+01   1.911961818477e+00 
1  1.984761406769e+00   9.186419273356e+00   3.496904824180e+01 
8
Step 25000
1 -2.141951097671e+01   3.033431501463e+01  -7.136478572318e-01 
1  5.498829900193e+00  -1.894572679940e+01   3.803530243803e+01 
1  2.860208368275e+01  -5.749438672423e+01  -9.874223019446e+00 
1 -2.456101181373e+01   1.677335386363e+01  -3.084819506735e+01 
1 -5.911468555862e-01  -3.261949706717e+01   2.666743897410e+01 
1  3.792493720768e+01   8.178337846411e+00   1.360902110621e+01 
1 -4.571989855036e+00   2.092021571362e+01  -9.623496320629e+00 
1 -1.566592506684e+01   7.167681042806e+01   3.808138059801e+01 
8
Step 26000
1 -1.668570002938e+01   2.843658566215e+01   2.851667023030e+01 
1 -3.255151965335e+01   6.829189791066e+00   3.389588516757e+01 
1  1.042435239365e+01  -6.777004146150e+00  -2.090556924506e+01 
1 -3.710023477810e+01   3.310510669197e+01   2.924646586841e+01 
1  2.155756412123e+01  -1.249249922264e+01  -1.198113294847e+01 
1 -1.283558875740e+01   4.150103068417e+01  -3.470874207819e+01 
1 -3.152436472812e+01   2.831848914964e+00  -1.721357172194e+01 
1 -1.263165596812e+01   6.359923410147e+01   2.666471277479e+01 
8
Step 27000
1 -1.916251743886e+00  -3.233446142331e-01   4.596835063268e+01 
1 -4.327830774401e+01   1.599494374908e+01   1.176754146327e+01 
1 -4.208854401451e+00   4.636442689000e+01  -4.585322002563e-01 
1  3.293572265182e+00   3.722127039311e+01   6.860417626278e+01 
1  3.254867983172e+01   1.467226062752e+01  -3.217849158020e+01 
1 -3.877760761299e+01   4.175252431796e+01  -6.754590945961e+01 
1 -3.086088898880e+01  -3.358092323906e+01  -1.903616091626e+01 
1  1.419463356337e+00   1.389415433672e+00   2.753272353635e-01 
8
Step 28000
1  2.761896322300e+01  -2.353167556110e+01   4.728240822624e+01 
1 -1.049405127582e+01  -9.700487003542e+00  -2.500366643815e+01 
1 -7.341887894970e+00   4.560358736457e+01   2.915567314926e+01 
1  6.491302621735e+01   2.575147722257e+01   4.667457795849e+01 
1  3.748564735541e+01   1.705607746456e+01  -7.582659319853e+00 
1 -6.845693809629e+00   3.615555835010e+01  -4.440811703811e+01 
1  3.200578550514e+00  -5.378043943775e+01  -1.388800263100e+01 
1  4.280167818764e+00  -3.295622995780e+01  -3.248840506939e+01 
8
Step 29000
1  5.435434208144e+01  -1.432243475408e+01   3.240822916550e+01 
1  2.560023409813e+01  -3.253294883446e+01  -5.271677405173e+01 
1 -6.079327754058e+00   4.281350699282e+00   2.534150225531e+01 
1  7.878865811185e+01   4.103096164110e+00   1.596926756867e+00 
1  2.947409719605e+01   1.749570007191e+00   2.445402714914e+01 
1  4.005296276466e+01   5.083129369708e+01   1.009507706082e+01 
1  3.981987340440e+01  -3.449939174603e+01  -1.075500654300e+00 
1 -7.170156459252e+00  -2.501745962615e+00  -4.977965740396e+01 
8
Step 30000
1  5.516613470477e+01   1.725868109388e+01   3.310838048129e+00 
1  2.069848089658e+01  -1.467004257111e+01  -4.777827613097e+01 
1 -9.371667348519e+00  -2.040960386351e+01  -1.657322365955e+01 
1  2.686017501160e+01  -1.910379239337e+01   2.200736286343e-01 
1  1.973234679048e+00  -1.514748511569e+00   1.438628005650e+01 
1  3.622809599097e+01   6.925421619424e+01   3.741512676908e+01 
1  3.944626169837e+01   1.997033223259e+00   1.370391798733e+01 
1 -1.189505168836e+01   3.343483653252e+01  -3.487346550975e+01 
8
Step 31000
1  3.161783613648e+01   3.551523138745e+01  -2.896406497257e+01 
1 -1.237116675142e+01   2.253412993104e+01  -1.736837220077e+01 
1 -1.688313183839e+01  -5.786660420593e+00  -5.036857692554e+01 
1 -3.065535335494e+01  -3.577112718696e+01   4.315108564414e+01 
1 -3.215718581866e+01   1.301569482378e+01  -2.861321969211e+01 
1 -1.980165373866e+01   4.934153289516e+01   2.064469100314e+01 
1 -2.442774662704e+00   1.550127665048e+01   1.833449837624e+01 
1  5.981498759874e+00   3.154090500036e+00  -4.379543623428e-02 
8
Step 32000
1  7.499407840194e+00   2.007407588668e+01  -4.319391774080e+01 
1 -2.189975813690e+01   2.565643890923e+01   3.880879370203e+00 
1 -2.339314010945e+01   1.461403484290e+01  -3.376248029297e+01 
1 -3.151674023640e+01  -3.756487661528e+01   6.240359733782e+01 
1 -4.681692936099e+01   1.958462457569e+01  -4.761074100054e+01 
1 -6.067188868598e+01  -1.674197650090e+01  -6.066766052263e-01 
1 -4.625356927420e+01   1.211815275470e+00   6.846056436079e+00 
1  3.222822085087e+01  -7.141317184089e+01   2.062001461851e+01 
8
Step 33000
1 -5.549078975969e+00  -1.182941810879e+01  -2.703465266584e+01 
1  8.529583280465e+00  -1.220744482789e+01  -4.417016668684e+00 
1 -2.640462860339e+01   8.220068648921e+00   1.754146238540e+01 
1  6.958534325636e+00  -1.928425948603e+01   1.827689278842e+01 
1 -3.056577013111e+01   1.434552002394e+00  -1.563685469365e+01 
1 -3.709260703542e+01  -8.106335306596e+01   7.554614829301e+00 
1 -4.876094870817e+01  -7.393788809278e+00  -9.406672273606e+00 
1  3.671124261621e+01  -9.776590313575e+01   1.040043173471e+01 
8
Step 34000
1 -2.130004117825e+01  -2.794236193615e+01   5.365386898185e+00 
1  3.772628223629e+01  -3.804019490879e+01  -2.283741257249e+01 
1 -2.304632576638e+01  -1.040181342141e+01   4.929818420866e+01 
1  1.533039609952e+01   1.277194977423e+01  -4.630860182540e+01 
1  1.779698160770e+00  -2.340227941632e+01   3.132595865985e+01 
1  2.119570191711e+01  -9.045189582244e+01   2.747946452400e+01 
1 -7.391660898575e+00   9.591377004150e+00  -1.140430882908e+01 
1  9.016663779613e+00  -3.504604157498e+01  -9.382759525901e+00 
8
Step 35000
1 -4.975616712185e+01  -1.745980550361e+01   2.323414468039e+01 
1  2.652679268243e+01  -1.250703349587e+01  -1.851916866432e+01 
1 -6.595498946144e+00  -8.453481131586e+00   3.417536705077e+01 
1 -3.037541452558e+01   3.737939705337e+01  -6.852046927126e+01 
1  2.604209484781e+01  -2.738374894955e+01   4.553311325392e+01 
1  4.625635958805e+01  -4.637966925882e+01   2.294635509356e+01 
1  3.874107377035e+01   3.012903400753e+01   4.643874079908e+00 
1 -2.827784557903e+01   5.163802595035e+01  -7.177106638663e+00 
8
Step 36000
1 -7.144314709275e+01   1.496387382549e+00   1.104325813420e+01 
1 -8.253235986645e+00   3.317215090798e+01   1.156106317691e+01 
1  2.399423019555e+01   1.133739650246e+01  -1.520993023038e-01 
1 -7.415623875270e+01   3.236480260240e+01  -4.966241868581e+01 
1  3.073014923287e+01  -1.042050035335e+01   2.549369264654e+01 
1  1.587449029440e+01   1.019656037517e+00  -4.718652136593e+00 
1  4.967962840858e+01   2.632056395477e+01   2.045137878239e+01 
1 -4.388105637272e+01   7.591880047337e+01   1.705728057122e+01 
8
Step 37000
1 -5.686726541352e+01   7.360591595594e+00  -1.586877246864e+01 
1 -2.187944568058e+01   3.876180289865e+01   3.950880921091e+01 
1  5.291489609116e+01   1.402033889133e+01  -1.216250863333e+01 
1 -5.327545744637e+01  -3.427538727238e+00  -3.805581777591e+01 
1  1.870544627102e+01   4.711211289772e+00   3.218183057668e+00 
1 -2.853966025406e+01   1.425615801561e+01  -2.112661095291e+01 
1  2.040410587508e+01   7.219313326494e+00   1.671275313254e+01 
1 -2.815854533456e+01   3.290650340861e+01   3.267766333168e+01 
8
Step 38000
1 -6.595265605709e+00  -1.988672286868e+00  -2.919572290419e+01 
1 -4.581669393817e+00  -4.903499833513e+00   4.403098140987e+01 
1  5.531776945108e+01  -1.513199232638e+01   2.754535980712e+00 
1  2.162374988160e+01  -4.203063038186e+01  -4.741611988427e+01 
1 -3.114342101140e+00   5.565531269766e+00  -5.679246838236e+00 
1 -3.806655299704e+01   3.851213164544e+00  -1.031140662843e+01 
1 -2.077041775655e+01   3.446566123638e+00  -3.796288880835e+00 
1  2.492975004424e+00  -1.018663300421e+01   1.897385861845e+01 
8
Step 39000
1  4.231816106489e+01  -1.194327101071e+01  -1.783980826497e+01 
1  9.263968135332e+00  -4.272760292529e+01   3.334700012602e+01 
1  2.344035143004e+01  -4.430268903182e+01   1.185403002077e+01 
1  7.693938913850e+01  -4.566353846367e+01  -3.453199142292e+01 
1 -2.618937223761e+01   2.830564237206e+00  -1.430579561274e+01 
1 -8.932597975161e+00   2.703000240348e+00   3.494626253737e+00 
1 -4.048227307213e+01   1.680798967713e+01  -1.959759433404e+01 
1  2.390064531434e+01  -5.848790469522e+00  -7.727373185589e+00 
8
Step 40000
1  5.708471084244e+01  -1.069391919525e+01   2.937718654223e+00 
1 -4.776551481959e+00  -2.699694709213e+01   2.472391836475e+01 
1 -1.896077797332e+01  -3.418882050772e+01  -9.258624761479e+00 
1  6.275376753982e+01  -3.451321289764e+00   3.021177538306e+01 
1 -3.773611379589e+01   8.141971948753e+00  -3.057087352647e+01 
1  2.427124458069e+01   2.001919632225e+01  -6.468606921962e+00 
1 -2.832818717094e+01   1.097424755239e+01  -1.715702562565e+01 
1  2.440909958271e+01   2.120384536333e+01  -1.609647907717e+01 
8
Step 41000
1  4.300496596570e+01  -4.530723642130e-01   1.296418585224e+01 
1 -2.408525343620e+01   2.116401008455e+01   1.402107077631e+01 
1 -3.735741061528e+01   9.194625313573e+00  -4.259819811945e+01 
1  5.698311225252e+00   5.159227704086e+01   1.019176751167e+02 
1 -2.619418524620e+01   1.312812575471e+01  -3.537346345342e+01 
1  3.369140836173e+01   3.418196798584e+01  -2.815128784802e+01 
1 -5.381119077973e-01  -3.449992249698e+01  -5.489142637734e+00 
1  9.393452775910e+00   2.127680688549e+01  -1.540018279075e+00 
8
Step 42000
1  2.784752367715e+01   9.341126944094e+00   1.139939724770e+01 
1 -1.367437457392e+01   3.992062055565e+01  -1.616812609282e+01 
1 -2.351333907341e+01   3.884542098668e+01  -4.659823535303e+01 
1 -3.000050529054e+01   6.835292184919e+01   1.062787088366e+02 
1  4.749100761124e+00   3.150400117944e+00  -1.053093683327e+01 
1  2.201506338437e+01   2.758947037322e+01  -2.634272843079e+01 
1  1.807535045250e+01  -7.999423899768e+01  -2.684394323915e-01 
1 -6.970444498333e+00  -9.353269002904e+00   8.370212902881e+00 
8
Step 43000
1  2.071427692418e+01   1.433316177581e+01   1.395354251150e+01 
1  1.762394875888e+01   7.376791871859e+00  -6.042519570965e+01 
1 -4.277989287187e+00   2.564775502989e+01  -6.086677648397e+00 
1 -1.928581324072e+01   2.812723506768e+01   3.808028877276e+01 
1  3.422146290394e+01  -1.510070990045e+01   2.607078217066e+01 
1  5.759425656741e+00   1.170232828158e+01   5.629034065934e+00 
1  1.659249322458e+01  -6.476866557702e+01  -9.494800847156e-01 
1 -1.318237540458e+01  -3.086386473073e+01  -7.157517859504e+00 
8
Step 44000
1  5.473351973356e+00   1.602903931170e+01   2.789537026842e+01 
1  2.436601478909e+01  -3.277764582104e+01  -8.072294006854e+01 
1 -7.772899424862e+00  -7.171392194260e+00   4.621195880090e+01 
1  6.741805522463e+00  -3.385076902246e+01  -2.682475326584e+01 
1  4.106481327579e+01  -1.672592810430e+01   3.546901805920e+01 
1 -8.093826823848e+00   8.040075521678e+00   3.246524375213e+01 
1  4.142899965826e+00   1.270262213519e+01   4.962696907815e+00 
1 -6.545437502653e+00  -2.150239769546e+01  -3.191790675362e+01 
8
Step 45000
1 -2.478938829876e+01   1.410122993020e+01   3.936206393050e+01 
1 -9.827317213158e+00  -2.987836038318e+01  -4.840498542445e+01 
1 -2.784867020141e+01  -1.566703725241e+01   6.164878334611e+01 
1  1.114597018840e+01  -6.085086851282e+01  -2.758424490679e+01 
1  2.392462632364e+01   7.074560252385e+00   8.949447286628e+00 
1 -2.039683960136e+01   1.480041057178e+01   2.293638818925e+01 
1 -2.400447161722e+00   7.812643008499e+01   1.744433821166e+01 
1  6.444350940838e+00  -6.252820634927e+00  -3.232701521593e+01 
8
Step 46000
1 -4.755040645672e+01   4.685442419454e+00   2.989877455188e+01 
1 -4.195756975273e+01   9.731939300075e+00   1.472496134603e+01 
1 -3.251503313184e+01   9.383011016437e+00   2.683200410143e+01 
1 -3.900196405880e+00  -3.272113260173e+01   5.607609506483e+00 
1  3.600184439258e-01   3.284298470221e+01  -1.774460379776e+01 
1 -2.576543032066e+01   8.777091526993e+00  -7.430055205900e+00 
1  3.152703238467e+00   6.604166367706e+01   1.797244509966e+01 
1  1.573400555756e+01  -1.384914082527e+01  -1.974119119853e+00 
8
Step 47000
1 -3.783733787295e+01  -1.136850653377e+01  -1.058379253518e+00 
1 -2.267376695533e+01   3.640711600733e+01   5.457675672532e+01 
1 -4.882265348633e+00   3.491330543846e+01  -2.425593730126e+01 
1 -1.271556849798e+01   1.566456657113e+01   1.549758436827e+00 
1 -1.309639865480e+01   3.192546612489e+01  -1.074427317979e+01 
1 -1.450171423043e+01  -1.959737491266e+01  -1.702132941869e+01 
1  1.136130827826e+01  -9.936149317281e-01  -4.453950177278e+00 
1  1.539829828481e+01  -3.137337904135e+01   2.920008774183e+01 
8
Step 48000
1 -5.908039183922e+00  -2.299096580715e+01  -3.500472483076e+01 
1  3.535617374465e+01   2.216842700130e+01   4.379802104347e+01 
1  3.475607315772e+01   2.796951207616e+01  -4.548551303361e+01 
1 -7.779132773155e+00   3.316933462138e+01  -4.999910277872e+01 
1 -1.532794576287e+01   5.383132531127e+00   1.736299712143e+01 
1  9.557930864062e+00  -4.781159712947e+01   7.067904657101e+00 
1  9.410077862305e+00  -3.824426821484e+01  -2.990877831889e+01 
1  7.247706016296e+00  -2.351512028526e+01   3.144127883433e+01 
8
Step 49000
1  1.229138624707e+01  -1.839723646971e+01  -5.381801144271e+01 
1  6.817344319143e+01  -9.090192390486e+00   9.559520045073e+00 
1  5.242629172134e+01  -7.717391406003e+00  -2.407572671555e+01 
1 -6.266888498901e+00   8.237271736504e+00  -8.555536253164e+01 
1 -1.531880722048e+01  -2.038876843371e+01   2.608200466564e+01 
1  2.511369676731e+01  -4.738470209816e+01   3.325971512466e+01 
1 -3.200629472091e+00  -4.505501710543e+00  -2.557685744810e+01 
1 -3.421046745962e+00   1.348230624221e+01   1.007351063635e+01 
8
Step 50000
1  2.424954436144e+00  -2.493958931724e-01  -5.332273274846e+01 
1  3.933576828730e+01  -2.015890625252e+01  -5.202157607134e+00 
1  3.741984163005e+01  -4.164384629440e+01   1.209711090318e+01 
1 -1.778703135217e+01  -2.195687749806e+01  -5.833317698551e+01 
1 -1.740956414130e+01  -2.896379164239e+01   2.405171047920e+00 
1  1.505351484391e+01  -1.965654371758e+01   2.782485719125e+01 
1 -1.401062916101e+01   4.709795209992e+01   1.188334296014e+01 
1 -1.445003450416e+01   4.387585873287e+01  -5.794637754505e+00 
8
Step 51000
1 -1.000473563879e+01   1.349317028735e+01  -3.772835714898e+01 
1 -1.736305666487e+01  -7.772183657872e+00   6.351515590498e+00 
1  7.986912668360e+00  -5.007763005468e+01   2.788620190339e+01 
1 -2.581095906623e+01  -1.746990763364e+01  -4.871599041387e-01 
1 -1.652858280299e+01  -2.871769371336e+01  -2.380790860718e+01 
1 -1.214806394769e+01   6.387386248487e+00  -4.452957560672e+00 
1 -1.214510748727e+01   3.761530119347e+01   4.515268238895e+01 
1 -2.581889505277e+01   4.048616150919e+01  -1.334234217229e+00 
8
Step 52000
1  2.710862640747e+00   8.019520279866e+00  -1.029643325761e+01 
1 -4.372091658014e+01   2.485271716466e+00   1.478342669699e+01 
1 -1.346893506859e+01  -3.224330111392e+01   1.579445516960e+01 
1 -1.058129398853e+01   1.726961943722e+01   2.588435839719e+01 
1 -6.413082691672e+00  -3.030875349229e+01  -2.210024415414e+01 
1 -2.870140186513e+01   9.970193677743e+00  -3.108542483313e+01 
1 -1.033894297290e+00  -3.642472293378e+01   3.623224869154e+01 
1 -3.210290778628e+01   1.890233658721e+01   9.560646936288e+00 
8
Step 53000
1  2.848696729008e+01  -9.761166751697e+00   2.457301204738e+01 
1 -2.843621443080e+01  -2.172888219041e+00   2.122215015200e-01 
1 -2.079222616739e+01  -1.449901662251e+00  -3.417922926087e+00 
1  2.001676745752e+01   3.913016488300e+01   1.461384686229e+01 
1  1.163332360803e+01  -2.467027544142e+01  -5.608595259171e-01 
1 -1.610652573341e+01   1.518648404975e+00  -3.275282153077e+01 
1  5.149736312491e+00  -9.466669422519e+01  -7.818589132882e+00 
1 -2.158060998658e+01   1.039006672491e+01   7.949937445344e+00 
8
Step 54000
1  2.991707909286e+01  -1.653532836785e+01   5.422678981226e+01 
1 -1.052851253366e+01  -6.110653954957e+00  -2.013544831902e+01 
1 -2.016218293130e+01   2.776579877371e+01  -1.032532155824e+01 
1  3.706815028459e+01   1.763629483279e+01   1.530029669713e+01 
1  2.832107796564e+01   3.150093180762e+00   1.056623057558e+01 
1  1.555490113624e+01   5.290662731303e+00  -1.870300582360e+01 
1 -2.248805796709e+00  -6.799478119905e+01  -4.135976344324e+01 
1  1.045611800777e+01   1.505128994642e+01  -4.269612523381e+00 
8
Step 55000
1 -1.692074443171e+00   8.709549718676e-01   6.188442858233e+01 
1 -1.704870285278e+01   4.881414654092e+00  -1.868107082483e+01 
1 -1.665854629440e+01   4.292440409755e+01  -8.513881249493e+00 
1  2.709101211749e+01  -2.872742277749e+01   5.122312477869e+01 
1  3.207088109445e+01   4.353143400164e+01   2.432401473424e+00 
1  3.774082627683e+01   2.706228303700e+01  -4.881241376839e+00 
1 -1.528598067156e+01   1.967641583625e+01  -3.367855805940e+01 
1  4.708513638228e+01   4.944555870425e+00  -1.139613085698e+01 
8
Step 56000
1 -2.852391724910e+01   2.809963056541e+01   4.251713802682e+01 
1 -2.633538500069e+01   1.749823618116e+01   2.115038465735e+00 