8
Step 0
1  2.130326814812e+00   3.841428738278e+01  -3.900125211552e+01 
1  3.567597752465e+00  -3.504277063756e+01   3.861701022475e+01 
1  6.258847992801e+01  -7.076539324116e+01   6.450599359103e+01 
1  5.978855273526e+01  -4.628740992298e+01  -3.331699604665e+01 
1  5.663920321690e+01  -5.214564811192e+01   5.649937483509e+01 
1 -4.885508989697e+01   7.742773658779e+01   3.518899981800e+01 
1  3.981944038262e+01  -7.472662646084e+01  -5.860625198879e+01 
1 -7.332626035848e+01  -1.421247514719e+01  -1.259120980933e+01 
8
Step 1000
1 -1.077928251767e+00   2.399798231514e+00  -4.181272053812e+01 
1 -4.700543684715e+00  -1.499595188417e+00   4.983989612411e+00 
1  3.246505448330e-01  -3.465247581454e+01  -1.041405635372e+00 
1  3.695703352944e+00  -3.512514410986e+00  -2.361973977325e+01 
1  4.775149107037e+01  -3.319614103654e+01   1.253660962941e+01 
1 -3.010648968360e+01   1.267554131614e+00   4.024210934412e+01 
1  7.014626835564e-01  -3.500396332416e+00   5.772769290262e+00 
1 -3.603499596475e+01   1.569009731358e+00  -7.240728191681e-01 
8
Step 2000
1 -1.207543417248e+01  -2.569294166750e+01   7.372975364298e+00 
1  4.505723856675e-01   1.563066451486e+01  -3.378518707815e+01 
1 -3.529410162267e+01   1.946842436276e+01  -5.402856871543e+01 
1 -2.006652176484e+01   2.663501722601e+01   2.986109116114e+01 
1 -1.271174200366e+00   3.238546461579e+01  -1.836090565289e+01 
1  1.761639386164e+01  -4.630458008564e+01  -1.067390713779e+01 
1 -4.451331779056e+01   3.464384306636e+01   3.975022719004e+01 
1  1.013117535481e+01  -2.377330444778e+01   1.093082266534e+01 
8
Step 3000
1 -2.798388124243e+01  -1.353502138367e+00   4.547027107751e+01 
1 -1.097875394334e+01   2.377139562529e+01  -1.610579558574e+01 
1 -2.955793117888e+00   4.307638028575e+01  -2.356008734417e+01 
1 -3.065299095088e+00   1.773640599391e+01   3.683957524615e+01 
1 -5.047254311533e+01   5.787246349883e+01   3.292552671244e+00 
1  1.783970018815e+01  -3.911325755205e+01  -3.065710593164e+01 
1 -2.800950948750e+01  -1.015700063055e+01   1.476186437055e+01 
1  3.570947230022e+01  -4.348095227897e+01   3.927686545186e+00 
8
Step 4000
1 -1.441612151389e+01   2.355365418869e+01   2.062751978356e+01 
1 -2.611953470637e+01   1.645264509664e+01   1.676435615982e+01 
1  1.965036280439e+01   3.101606138634e+01   2.927366289657e+01 
1 -5.562372297127e+00   2.518826685491e+00  -2.255033201556e+01 
1 -4.967628430412e+01   7.852802424747e+00   1.501450668879e+01 
1 -1.240651310494e+01   2.930117837739e+00  -1.018169086724e+00 
1  2.698800813633e+01  -3.818194714347e+01  -1.400074081600e+01 
1  2.874489053651e+01   9.210576561401e+00  -2.632228632332e+00 
8
Step 5000
1  2.257917462674e+01   5.106770871823e+00  -2.212555279459e+01 
1 -1.007333062161e+01  -3.968996746687e+00   1.621621318355e+01 
1 -1.103331954733e+01   5.414639482111e+00   2.911149792668e+01 
1 -3.371612786612e+01   1.372156946975e+01  -5.210173059483e+01 
1  5.129508925357e+00  -4.919859350964e+01  -1.796893932481e+01 
1 -1.904839979789e+01   3.714196547114e+01   1.972103637527e+01 
1  4.700458844763e+01   2.214553832438e+00  -1.105841643505e+01 
1 -1.546892371160e+00   6.993047583493e+01   4.585755426120e+00 
8
Step 6000
1  2.855482602833e+01  -1.364598426952e+01  -1.131793600620e+01 
1  3.093331061702e+01  -1.538291969768e+01   5.020288904510e+00 
1 -2.914305518759e+01  -1.918980662499e+01  -3.503335043959e+00 
1 -1.692081650013e+01   1.408658530294e+01   1.339385414593e+01 
1  4.514417782149e+01  -3.180469014450e+01  -3.446888442730e+01 
1  6.078985960428e+00   2.945624582477e+01  -2.826602032415e+00 
1  1.074325163305e+01   3.853327247272e+01  -4.441910439056e+00 
1 -2.125850275766e+01   2.727440109010e+01   2.588363454658e+00 
8
Step 7000
1 -1.127638039363e+00   4.862394382739e+00   5.354672919968e+00 
1  3.652434776598e+01  -1.313491687148e+01   7.807271190402e+00 
1  1.049292977459e+01  -3.986850494904e+01  -9.476492847070e+00 
1  4.468739391662e+01  -3.341758385459e+01   5.339941384456e+01 
1  2.741732071351e+01   1.931340772329e+01   7.686073804679e+00 
1  1.904806482690e+01  -9.620416994129e-01  -1.386989254377e+01 
1 -2.336210604355e+01   2.196335380168e+01  -1.116861938571e+01 
1 -1.801595107645e+01  -4.695373776979e+01  -1.605442137278e+01 
8
Step 8000
1 -1.245035022902e+01   1.082114185497e+01  -1.666539070875e+01 
1 -4.826838529437e+00  -8.754839807023e+00  -3.011267452324e+00 
1  3.914272114721e+01  -3.140994131746e+01  -1.074236953601e+00 
1  5.526516835150e+01  -5.821428848667e+01  -4.410758550850e+00 
1 -4.259099380467e+00   3.096375073724e+01   4.283351893456e+01 
1  9.662116214665e+00  -2.043339413758e+01   6.140145418710e+00 
1 -2.636070841458e+01  -1.714460681732e+00  -2.086905674692e+00 
1 -7.217176102221e+00  -3.433059066938e+01  -1.620320923093e+01 
8
Step 9000
1  4.888663897216e+00  -1.951359189995e+01  -2.133414881975e+01 
1 -4.039403643134e+01  -1.816005154018e+00  -2.776508886610e+01 
1  1.764444464285e+01   1.333367536039e+01   7.788825965023e-02 
1 -7.689528949771e+00  -2.936650771923e+00  -5.925337660119e+01 
1 -9.989985641803e+00   1.115712620632e+00   2.278518901416e+01 
1 -4.050960884170e+00  -2.031387147641e+01   1.516282918322e+01 
1 -1.301338490524e+01  -1.909169382307e+01   2.079280180724e+01 
1  6.195669155236e+00   2.252021287568e+01   1.119512871549e+01 
8
Step 10000
1  5.444376989701e+00  -3.455871790075e+01   3.194115358099e+01 
1 -1.814083873380e+01   1.377337715925e+01  -2.659706044056e+01 
1 -2.280248207957e+01   5.160993483295e+01  -7.050146720517e+00 
1 -6.780904759777e+01   8.305137951247e+01  -1.956088936198e+00 
1 -1.549351337075e+00  -3.395487022981e+01  -3.319520318139e+01 
1 -1.566007376496e+01  -3.814703143622e+00  -4.145179425956e+00 
1  7.417026982571e+00  -4.367169064031e+01   1.994904184133e+01 
1  2.174531669226e+01   1.908728460896e+01   3.053032048587e+01 
8
Step 11000
1 -2.984198028038e+01   1.378490478602e+01   4.719956901885e+01 
1  3.086139792767e+01   2.093448092048e+01   1.584537046187e+01 
1 -3.116659202529e+01   2.549429144675e+01  -1.647419696767e+01 
1 -3.046572290213e+01   5.744612788296e+01   7.257175282145e+01 
1 -1.808085425765e+01  -2.178991423413e+01  -4.693910861658e+01 
1 -1.950123926253e+01   1.204441617473e+01  -7.711864347128e+00 
1  2.611853959542e+01  -3.029052694981e+01  -1.103835485397e+01 
1  1.645434073124e+01  -2.867409845021e+01   7.024168018510e+00 
8
Step 12000
1 -2.087406775397e+01   3.773853703759e+01  -1.584284883873e+01 
1  1.501682853597e+01   7.892558297788e+00   3.587820587559e+01 
1 -2.361320994902e+01  -2.810067388014e+00  -5.709590198682e+00 
1  1.537546632867e+01  -2.546129788386e+01   4.873748356062e+00 
1 -3.284503260311e+01   1.668611471515e+01  -6.897366669889e+00 
1 -6.823051942916e+00   7.758146243992e+00   8.860464946299e+00 
1  2.660731890245e+01   2.866715831491e+01  -1.440615657853e+01 
1 -7.083250093021e+00  -3.408652900895e-01  -1.156133886309e+01 
8
Step 13000
1  2.576242864866e+01   9.817817713985e+00  -3.517660015264e+01 
1 -1.781968555148e+01  -7.166278583923e+00   1.997583719502e+01 
1 -1.103339152734e+01  -1.653542286271e+00   2.643620777558e+01 
1  7.532260262728e+00  -3.974910722670e+01  -5.810699361136e+01 
1 -2.606288914733e+00   2.799035262491e+01   2.470923024091e+01 
1  1.352583394115e+01  -9.339807410520e-01  -3.579669781512e+00 
1  6.142812305086e+00   5.333547555372e+01  -4.934867442270e-02 
1 -1.732724480101e+01   3.497718437415e+01  -8.800505425571e+00 
8
Step 14000
1  3.979870871262e+01  -1.617694713324e+01   5.577237829017e+00 
1 -1.727230383498e+01  -1.201515217820e+01  -1.521766553166e+01 
1  2.599603988041e+01  -1.525858830864e+01   4.043414843002e+01 
1 -3.101821485922e+00  -1.143499852931e+01  -1.833596031751e+01 
1  4.710750276634e+01   8.296706321670e+00   3.291538432840e+01 
1  2.299326921869e+01   2.944476413388e+00  -2.841921592321e+01 
1 -2.843614377539e+01   1.843314516528e+01   2.216423050522e+00 
1 -7.230422968800e+00   8.164225461455e+00  -8.221670208541e+00 
8
Step 15000
1 -9.905155333802e+00  -8.333833943078e+00   2.667727945264e+01 
1  1.300581872960e+01  -3.024534274474e+00  -4.111799064944e+01 
1  5.542972287184e+01  -4.793169510867e+01  -1.350357490025e+01 
1  2.011745594373e+01   2.903748922373e+00   6.259884080044e+01 
1  4.445923934742e+01  -2.146659820816e+01   5.056001078795e+00 
1  5.904218804349e+00   2.029976157951e+01  -6.196083021137e+00 
1 -4.247998646814e+01  -3.249280450146e+01  -6.312535247839e+00 
1  9.208913877119e+00  -3.365791008205e+01  -9.503344369712e+00 
8
Step 16000
1 -3.707415321834e+01  -6.778668979142e+00  -1.617750140571e+01 
1  2.433724539526e+01   1.176717420091e-01  -1.682358472952e+01 
1  1.627859479690e+01  -2.686906257285e+01  -7.096759182034e+01 
1  3.991679518759e+01  -3.135034418514e+00   3.921981951298e+01 
1 -1.817131999932e+01  -2.380790044386e+01  -3.448240503315e+01 
1 -1.325881202146e+01   1.156335162063e+01   4.957793426831e+01 
1 -5.240389695590e+00  -3.406181121447e+01  -2.632968042613e+00 
1  7.540406164692e+00  -4.421438810600e+00   8.698100051789e+00 
8
Step 17000
1  2.469702726079e+00  -2.620534593747e+01  -2.338770397920e+01 
1  7.131048537627e+00  -1.093389418680e+01   2.609988685397e+01 
1 -4.296287756758e+01   5.021115220546e+01  -2.441459281573e+01 
1  5.832231977569e+00   1.210936653041e+01  -3.774275521775e+01 
1 -4.220866989207e+01  -3.411374790168e+00  -2.795317620058e+01 
1 -1.129987540819e+01  -3.352327876923e+01   3.453400796725e+01 
1  3.871237699457e+01  -1.771322095336e+01   8.899559307865e+00 
1 -2.208028881401e+00   2.129777991638e+01   2.659330315140e+01 
8
Step 18000
1  1.618820766758e+01  -8.092422875020e+00   2.269113011598e+01 
1 -7.481193656150e+00  -7.004241034462e+00   1.870886358172e+01 
1 -3.710270281545e+01   6.796941564044e+01   5.059743755770e+01 
1 -4.355488646541e+01   2.655802290941e+01  -4.165764991246e+01 
1 -1.047956566393e+01   8.871795331711e+00   1.576547077729e+01 
1 -1.001786994580e+01  -4.602927935112e+01  -3.632883399553e+01 
1  3.486612682414e+01  -1.083444962519e+01   1.288776940138e+01 
1  2.108952142923e+00  -2.151687116755e+01   9.083305520226e+00 
8
Step 19000
1 -1.589540280523e+01   3.693533889748e+01   2.831125050584e+01 
1 -1.480007435361e+01   1.975212520971e+01  -1.475754191279e+01 
1  4.957854303352e+00   3.633127178189e-01   4.018370941544e+01 
1 -5.083654810417e+01   8.636335917538e+00  -1.571336627759e+00 
1  5.978632540155e+00   8.920331476000e+00   2.970993852650e+01 
1 -1.132732086242e+01   9.468110781540e-01  -5.229835295406e+01 
1  4.582551517677e-01   1.586773913199e+01   1.149640283282e+01 
1  1.019383631992e+01  -3.829319707614e+01  -1.936487364897e+01 
8
Step 20000
1 -1.438946910053e+01   3.601138148785e+01  -1.564226022039e+01 
1 -1.890229933858e+01   3.243186606760e+01   4.016608338886e-01 
1  1.270056676904e+01  -5.631662051011e+01  -1.794351170133e+01 
1 -7.433972557753e+00  -1.680583175171e+01   1.739375079584e+01 
1 -8.488559601468e+00   7.429940290577e+00  -5.819556817914e+00 
1  1.044881946341e+01   4.464555640928e+01   8.138919133912e+00 
1 -2.305869574990e+01   4.192308216189e+01  -3.708597784610e+00 
1  1.287386281380e+00   2.351423000872e+01  -1.667017231953e+01 
8
Step 21000
1  2.991288270498e+01  -1.118259016926e+01  -2.517224103853e+01 
1 -1.019167775808e+01   4.857636483825e+00   4.131826048254e+01 
1 -9.759605514088e+00  -2.946320960272e+01  -1.999835173947e+01 
1  4.107947599888e+01  -1.617687863620e+01   1.995286313937e+01 
1 -4.671403305468e+00   6.736565765902e+00  -2.978372772077e+01 
1  3.615445867217e+01   3.032877957288e+01   4.690905668357e+01 
1 -2.420430507632e+01   1.443051926642e+01  -3.436201332584e+01 
1 -1.791560003733e+01   6.302302837324e+01   6.328443007842e+00 
8
Step 22000
1  2.192161756182e+01  -2.315400979280e+01   1.005586017598e+01 
1  1.613063932790e+01  -3.281945616902e+01   6.310026149876e-01 
1  5.185514987677e+00   1.341681753891e+01   9.454977890299e+00 
1  4.712013420287e+01  -7.054581835688e+00   2.383452793897e+01 
1  3.132931748171e+01  -6.211097742743e-01   1.071676936279e+00 
1  1.234158791367e+01   3.392455442279e+00   1.022465904502e+01 
1 -1.692108654990e+01  -2.573667364954e+01  -3.362832354755e+01 
1 -1.771433547474e+01   1.123267805611e+01   6.325532464769e+00 
8
Step 23000
1 -3.045062478527e+01  -3.152242555274e+00   1.723817930897e+01 
1  3.473021759214e+01  -3.417683085855e+01  -7.021482806388e+01 
1  3.640995069202e+01   1.338116414004e+01  -2.128219862073e+00 
1  9.284448535954e+00  -2.467467041381e+00  -1.207023406789e+00 
1  3.696870574272e+01  -1.282598412458e+01   3.125761328594e+01 
1 -3.813039215102e+01  -6.830624415444e+00  -2.738164241960e+01 
1  7.256474865220e+00  -1.433293308190e+01   2.456136733244e+01 
1  5.576851920051e+00  -4.307408652728e+01  -6.415948852068e+00 
8
Step 24000
1 -2.632054353377e+01  -6.947599901536e+00  -7.674386728572e+00 
1  1.782528244128e+01   1.779749256739e+00  -3.359110665468e+01 
1  1.869656471245e+01   4.329600239771e-02  -1.766695690478e+01 
1 -2.590875940057e+01   9.034185316626e+00  -3.544585654872e+01 
1 -5.154834705979e+00  -1.233927128659e+01   1.303014109923e+01 
1 -3.461874145579e+01  -2.160441036120e+01  -1.403429887501e+01 
1  3.188998953650e+01   1.372257243732e+01   5.816699009895e+01 
1  1.848987626257e+01  -2.848079455368e+01  -3.587843307885e+00 
8
Step 25000
1  2.366987487611e+01  -2.220368212909e+01  -1.574277173679e+01 
1 -1.512220673530e+01   2.443468364750e+01   5.636988467981e+01 
1 -2.426710033342e+01   7.035527090848e+00  -7.325420738476e-01 
1 -1.846674353791e+01   1.824369500170e+01  -2.599370038533e+01 
1 -3.764069256258e+01  -8.436940068171e-02  -1.986455791221e+01 
1  1.763104184375e+01  -3.778649757043e+01   1.234748027867e+01 
1  2.133012155798e+01  -5.793253717189e+00   9.082212591643e+00 
1  9.221480826373e+00  -1.368376108134e-01   1.066654692921e+01 
8
Step 26000
1  2.730942381875e+01   6.781139712895e+00  -2.075799686788e+00 
1 -3.857691671858e+01   2.101212560196e+01   5.936069784248e+01 
1 -3.831152822524e+01   1.405390532180e+01   1.329737435309e+01 
1 -6.071377225179e+00   6.228494472523e+00   1.293443881030e+01 
1 -3.880714937356e+01   9.689480387247e+00  -2.769889354508e+01 
1  4.430866653642e+01  -1.717095981111e+01   1.364876858708e+01 
1 -1.573220308581e+01  -3.659720689183e+01  -5.241692069021e+01 
1  4.230579593213e+00  -2.878179867259e+00   1.674608420342e+01 
8
Step 27000
1 -2.385351357682e+01   5.774603340949e+01   1.526047843407e+01 
1 -2.508926470924e+01   1.729312929194e+00  -3.549354134965e+01 
1 -7.279803210381e+00  -9.115807868189e+00   5.086215513905e+00 
1 -1.415831482021e+01  -2.252068388603e+01   3.575560268260e+01 
1  1.022951862485e+00   7.906319096615e+00  -3.037255111146e+00 
1  6.824985852126e+00   5.343316209440e+01  -2.627255738878e+00 
1 -3.621892830981e+01  -1.800765287289e+00  -3.587300881909e+01 
1  1.318838278348e+00   9.359417613763e+00  -1.335887225003e+00 
8
Step 28000
1 -3.155545179685e+01   2.902910818111e+01   1.935277170595e+01 
1  2.103248661125e+01  -1.410292189998e+01  -6.158454094523e+01 
1  2.246118950829e+01  -2.851497532908e+01   5.575326136180e+00 
1 -9.539979672852e+00  -2.082253946193e+01   1.358908255885e+01 
1  5.091266637758e+01  -2.815287412529e+00   2.518889719523e+01 
1 -4.121903469705e+01   6.514222725437e+01  -1.519203126013e+01 
1 -2.548342476889e+00   5.215982579000e+01   3.406102220684e+01 
1 -2.080155018140e+01   4.050407559909e+01  -2.902651314534e+01 
8
Step 29000
1  1.049528793507e+01  -3.356543574291e+01   2.935917211332e+00 
1  2.993940377520e+01  -8.885556332464e+00   1.607387018339e+01 
1  8.776764919298e+00  -4.992381445807e+00   1.262319791349e+01 
1  2.366042048703e+01   9.093835187258e+00  -9.514126134103e+00 
1  3.998030796473e+01  -2.911963285209e-01   2.175589461265e+01 
1 -2.704013673413e+01  -7.738478010285e+00  -1.340779849018e+01 
1  2.271559494331e+01   2.867038153278e+01   2.763334298489e+01 
1 -3.455921222340e+01   2.271690759217e+01  -2.381469218522e+01 
8
Step 30000
1  1.733912291905e+01  -4.118809693666e+01  -2.142377862672e+01 
1  1.066052125747e+01  -3.816897084886e+00   3.736480343753e+01 
1  1.990493312511e+00   2.074362629729e+01  -1.307414135333e+01 
1  4.872122409208e+01   1.872658793555e+01  -1.124949822212e+01 
1 -1.218395331668e+01   1.198373563673e+01   4.186215976926e+00 
1  1.079850142226e+01  -4.768214783507e+01   3.631258999204e+00 
1  1.711281176310e+00  -8.645624400556e+00  -1.888486864499e+01 
1 -5.049295719502e+00  -2.669781980761e+01   1.130994895052e+01 
8
Step 31000
1 -5.934893896985e+00  -4.085811609311e+00  -2.360816670380e+01 
1 -5.088446465656e+00  -8.307641564996e+00  -2.151708526669e+01 
1  2.275873914734e+01   1.623610930043e+01  -4.616010861507e+01 
1  1.561282254086e+01   9.376179945372e-01  -7.516964794146e+00 
1 -6.019151586930e+01   4.372986987644e+00  -2.014068146852e+01 
1  3.814436608496e+01  -2.090241237416e+01   3.166478086098e+01 
1 -2.676933679464e+01  -1.754560652882e+01  -2.014145107509e+01 
1  5.941583385134e+01  -4.884656169309e+01   4.596063997171e+01 
8
Step 32000
1 -1.206885002612e-01   1.808617788240e+01   1.379104013289e+01 
1 -1.002042507776e+01  -2.968246218428e+00  -4.297523981679e+01 
1  2.335575493642e+01  -9.553594138063e+00  -6.398169928802e+00 
1 -6.106711810039e+01  -1.007073095907e+01  -6.411704331297e+00 
1 -3.059151905393e+01  -2.906636848242e+01  -3.202525822746e+01 
1  2.388933112245e+01   1.702713625886e+01   2.356030210038e+01 
1 -4.196171249193e+00  -2.649032299698e+01   2.677640382786e+01 
1  5.924912560857e+01  -5.681977604335e+00   2.084509224044e+01 
8
Step 33000
1  2.443442121099e+01   5.436049237874e+00   2.300756835220e+01 
1 -1.650855164519e+01   2.173980352202e+01   2.176661839173e+01 
1 -2.763449186492e+01  -1.321871225309e+01   5.430363672325e+01 
1 -6.292064912940e+01   5.350393017491e+00  -7.321835266212e+00 
1  4.402440483246e+01  -2.815009561513e+01  -6.721460848867e+00 
1 -2.306028292911e+01   2.269401539407e+00  -2.812745377699e+01 
1  4.404395970429e+01  -4.770334930690e+01   2.617477916094e+01 
1 -3.081674781573e+01   2.784206953904e+01  -3.502532982632e+01 
8
Step 34000
1 -7.247688704366e-01   1.705600116319e+01  -8.615446710492e+00 
1 -1.481799588024e+01   2.237009565355e+01   3.251133454010e+01 
1 -5.325408063738e+01  -3.108654896961e+00   2.116429671460e+01 
1  2.316522943930e+00  -1.229005468624e+00   1.544919929006e+00 
1  3.717864330741e+01   1.241728105521e+01   2.164929846939e+01 
1 -3.516143958896e+01  -6.326047427932e+00  -3.551403251422e+01 
1  3.187790304049e+01  -1.594759809500e+01  -1.540144833160e+01 
1 -5.535159097129e+01   6.406638492478e+00  -2.540584152107e+01 
8
Step 35000
1 -3.725455274815e+01   3.146333635800e+01  -6.832725147910e+00 
1  7.803819550893e+00  -9.817248095300e+00  -9.594873621954e+00 
1 -2.021001739867e+01  -1.746680352564e+00  -2.775209096564e+01 
1  4.438429295040e+01  -2.614867735848e+01   2.356162826359e+01 
1 -1.358480175306e+01   3.257671865484e+01   2.293892841905e+01 
1 -4.295737054749e+00   1.714851435299e+01   2.268169712519e+00 
1 -2.573914394952e+01   6.302361382621e+01  -2.616372501815e+01 
1 -1.362267925885e+01   2.097165967728e+00   8.144293455986e+00 
8
Step 36000
1 -2.254142411501e+01  -2.936825125553e+00   2.211474223603e+01 
1  2.318446630636e+01  -3.187621221586e+01  -2.236799166744e+01 
1  3.706385256215e+01   4.177922703117e+00  -1.621676187550e+01 
1  3.254498934199e+01  -1.285498333948e+01   2.653539928840e+01 
1 -3.264919931381e+01   9.432205469995e+00  -4.338688375683e+00 
1  3.421615435764e+01   1.812688546225e+01   2.935819344125e+01 
1 -6.233890063122e+01   7.773523977511e+01  -5.386287418057e+00 
1  2.268785211173e+01   1.453969424538e+01   9.547639263914e+00 
8
Step 37000
1  2.156564570738e+01  -4.360247252257e+01   9.662949737933e+00 
1 -2.008776174253e+00  -3.916469436415e+00   7.171599635805e+00 
1  4.597301094573e+01   1.114480796468e+01   2.025317438932e+01 
1 -6.455361394719e+00   3.537961182550e+01  -8.944075070151e+00 
1  2.806764935341e+00  -1.724709569196e+01  -1.644598169025e+01 
1  1.866764767850e+01  -6.202107123711e+00   9.077385158188e+00 
1 -2.263616155082e+01  -9.717192411710e+00   9.438895808649e+00 
1  8.376387017558e+00   9.634531077448e+00  -1.187696448419e+01 
8
Step 38000
1  2.849076291096e+01  -2.956506180548e+01  -3.165697694753e+01 
1 -2.014297969223e+01   2.486939541452e+01   1.054928110239e+01 
1  1.859676996063e+01  -7.159052346544e-01   1.115897290084e+00 
1 -1.810907010758e+01   3.897766153121e+01  -3.914490187333e+01 
1  2.398074545395e+01  -1.079346975159e+01   4.588167319639e+00 
1 -2.845713826237e+01  -2.196464427548e+00  -8.819790252455e+00 
1  4.237531053487e+01  -6.467517637781e+01   1.266706264100e+01 
1 -2.143674824925e+00  -7.814432346777e+00   4.593306539730e+00 
8
Step 39000
1  9.322721213247e+00   1.062093747584e+01  -2.341431065264e+01 
1  9.906498709038e+00   7.563065829139e+00  -1.347069812299e+01 
1 -5.839159367105e+00  -1.476659312773e+01  -3.158095595930e+01 
1 -1.157796441093e+01  -1.465242500227e+01  -2.543781030435e+01 
1  7.914697706641e-01   8.293731075567e-01   9.474032720857e+00 
1 -3.111130770083e+01   7.780813288266e+00   2.780688811241e+00 
1  6.117640226564e+01  -3.920148498551e+01   1.772448702924e+01 
1  2.250583780428e+01  -1.867982628857e+01   3.742341280821e+01 
8
Step 40000
1 -9.716171291628e+00   4.252770567732e+01   3.626769324808e+01 
1  4.373196682765e+01  -2.848688038024e+01  -1.625662561336e+01 
1 -5.138715861648e+01   3.007967491177e+00  -4.025286005722e+00 
1 -7.313779909408e+00  -6.668628953335e+01   2.956045478501e+01 
1 -2.815615159517e+01   2.367618389733e+00  -2.552295642199e+01 
1  3.021345450344e+01  -2.844641095636e+01   5.461562567252e+00 
1  6.974730290437e+00   1.155771460938e+01   4.814331734700e+00 
1  2.633225881445e+01  -2.270942060489e+01   9.226348378456e+00 
8
Step 41000
1 -1.293947195601e+01   2.623037657168e+01   3.447901410085e+01 
1 -1.187929762928e+00  -1.222784329900e+01   1.095179963121e+01 
1 -6.216292668101e+01   2.511886056127e+01   4.424645991483e+01 
1  3.636565091110e+00  -2.226243762725e+01   4.511300837304e+01 
1 -8.015647028813e+00   4.192191969036e+00  -3.031956920627e+01 
1  5.872512774792e+01  -5.099100132229e+01  -1.665271012085e+01 
1 -5.779715559329e+01   2.601633552365e+01  -2.089351623570e+01 
1 -2.372010804253e+01  -8.198855757821e+00  -5.731877044828e+01 
8
Step 42000
1 -1.020427720469e+01  -1.554553736939e+00  -2.303026887205e+01 
1 -5.269374037503e+01   2.686069858427e+01   1.719259056456e+01 
1 -9.721133973472e-01  -1.242009230075e+01   1.557073743881e+01 
1  1.183419535271e+01   3.213771407607e+01   1.621824358011e+00 
1  2.049508142374e+01  -7.842960478228e-01   2.646591063296e+01 
1 -3.185698627487e+00   8.157688455035e+00  -1.796821269368e+01 
1 -2.969553118441e+01   1.722172546655e+01  -1.739245212953e+01 
1 -3.823080154691e+01   1.320984200164e+01  -3.116948350151e+01 
8
Step 43000
1 -1.376492453929e+01  -2.028999764407e+01  -1.655021994558e+01 
1 -3.239178608710e+01   1.902433444834e+01   9.613715540840e+00 
1  7.129455968204e+01  -4.361537986730e+01  -2.459938341211e+01 
1  2.792169669568e+00   3.085092103582e+01  -1.858252903701e+01 
1  1.454760766433e+01  -1.654835374166e+01   5.277717270685e+01 
1 -5.540615976127e+01   7.150051748055e+01   6.074022202982e+00 
1  8.730624720977e+00   2.723420151842e+01  -1.058661155429e+01 
1 -1.121342483675e+01   3.471509430155e+01   3.271676167010e+01 
8
Step 44000
1 -7.593842386600e+00  -2.510645386411e+01   2.380741036755e+01 
1  2.138617394627e+01  -1.622409318445e+01  -7.805835203063e-01 
1  5.560022231863e+01   5.367465915873e+00  -1.062634405260e+01 
1 -9.634367258284e+00   9.405668348735e+00  -2.321696807915e+00 
1 -5.644626070560e+00  -8.626211897810e+00  -2.633279266919e+00 
1 -2.480343146154e+01   3.844340751770e+01   1.946170889075e+01 
1 -7.533401602466e-01   1.156006825638e+01  -9.150195091003e+00 
1  8.073516486618e+00   2.566618127306e+01   2.653943273592e+01 
8
Step 45000
1  9.788278431850e+00  -1.029032114553e+01   8.690786084654e+00 
1  3.827766936963e+01  -2.442854232069e+01  -1.518618671124e+01 
1 -2.551739134880e+01   5.961252423590e+01   1.402976703792e+01 
1  2.701373717773e+00  -4.380565082010e+00   4.666882234680e+00 
1 -1.403236477679e+01   2.905773299562e+01  -4.987059269435e+01 
1  2.810614054129e+01  -3.491065718936e+01   1.253917316219e+01 
1 -1.278468987042e+01  -2.171302111359e+01   1.223455590991e+01 
1  1.083488646574e+01  -7.404676956773e+00  -1.510779504777e+01 
8
Step 46000
1  2.564006440575e+01   1.089788354452e+01  -3.113535516339e+01 
1  2.297834961721e+01  -3.412513574549e+00  -1.785911459159e+01 
1 -5.799147729830e+01   2.353608239143e+01  -2.196981963286e+00 
1  2.293562108801e+01  -1.953939287751e+01  -1.415662222798e+01 
1 -1.283328329590e+01   4.246939943749e+01  -1.661846055585e+01 
1  2.298466785089e+01  -4.539914040202e+01  -1.217067846996e+00 
1  2.166990906762e+01  -2.513731191702e+01   4.559434566427e+01 
1  2.116844963476e+01  -2.927809465175e+01  -4.244080255345e+00 
8
Step 47000
1  2.248068235058e+01   2.377693419042e+01  -1.347446513780e+01 
1  1.287151872509e-01   1.988206929988e+01   5.123145134256e+00 
1 -1.328846928971e+01  -5.895466495901e+01  -2.498401169418e+01 
1  2.197368379948e+00  -2.282876354228e+01  -1.961299092175e+01 
1 -8.466872634645e-01  -1.260512816836e+01   3.627039511997e+01 
1 -1.283696157080e+01  -5.889981788979e+00  -2.037954519226e+01 
1  5.568029173311e+01  -6.070184221029e+00   2.891281433908e+01 
1  2.293616471141e+01  -2.970213695771e+01   2.797834351548e+01 
8
Step 48000
1 -5.342903050258e+00   1.944691232268e+01   3.278082555622e+01 
1 -3.246070474103e+01   2.454400190362e+01   2.222297263317e+01 
1  2.887568388447e+01  -5.636406207938e+01  -4.198862011787e-01 
1 -4.710845447982e+01   1.264247467518e+01   1.500524162472e+01 
1  2.656379770375e+01  -7.822662516782e+01   1.537722391396e+01 
1 -6.498951993205e-01   9.854613126639e+00  -2.364725153203e+01 
1  8.189221888720e+00  -4.334639644498e+00  -4.710103999912e+01 
1 -1.184066201702e+01  -1.376140880958e+01  -2.586039542358e+00 
8
Step 49000
1 -2.518538104244e+01   4.545398546318e-01   1.009644700859e+01 
1 -4.346291083536e+01  -5.261358027839e-01   1.985857290358e-01 
1  1.093958506658e+01   2.486239427131e+01   3.057790608308e+01 
1 -2.615773605815e+01   2.695483062653e+01   3.505211025449e+01 
1  2.741599402900e+01  -3.705657430364e+01  -3.062586664328e+01 
1  3.465069140993e+01  -1.465871801187e+00   1.389706695804e+01 
1 -6.043994506956e+01  -6.033878175377e+00  -5.857231096890e+01 
1 -3.073220019572e+01   1.245762129588e+01  -4.116215223270e+01 
8
Step 50000
1 -2.622684008533e+01  -1.601607316894e+01  -2.041260267676e+01 
1 -1.340439540567e+01  -2.510831549078e+01  -8.589597313773e+00 
1 -7.328889785829e-01   3.963278383887e+01   1.583947456399e+01 
1  3.705512591504e+01  -1.405824986961e+01   9.887355932210e+00 
1 -1.024579747887e+01   3.846788231729e+01  -3.151332318267e+00 
1  5.053052159981e+00   1.238300759230e+01   3.041447916283e+01 
1 -4.664220168932e+01   2.097996982761e+01  -3.635338555055e+00 
1 -1.176988755950e+01   3.461346969740e+01  -1.236960894977e+01 
8
Step 51000
1 -1.141569586432e+01  -2.190115716352e+01   3.434242418897e-01 
1  3.938201553423e+01  -1.796170784108e+01   8.999285619634e+00 
1  2.501006009789e+00   5.392983198599e+00  -1.594651983363e+01 
1  4.729445051005e+01  -3.278348262049e+01  -2.702462716504e+01 
1 -3.905959620148e+01   5.830279132144e+01   3.878600298354e+01 
1 -5.313253073838e+01   2.356115718877e+01  -8.359750879716e+00 
1  2.074330188733e+01   3.482298074457e+01   3.464726415472e+01 
1  3.269648556760e+00   2.648475729852e+01   2.600999721517e+01 
8
Step 52000
1  8.303437897707e+00  -9.475046353707e+00   2.090236896123e+01 
1  4.351493465162e+01   1.318445799146e+01   1.048503810396e+01 
1 -4.336309627350e+00  -1.116447952106e+01  -1.874544361785e+01 
1 -9.293995565847e+00   1.437574984242e+01  -2.449982717090e+01 
1 -1.155624451264e+01   1.227293700619e+01   1.783963752150e+01 
1 -4.321638938854e+01   3.913946355496e+00  -3.737694411219e+01 
1  4.536571958702e+01   4.966431013109e+00   2.278499820295e+01 
1 -3.914039548885e+00  -7.303979538578e+00   1.395413408568e+01 
8
Step 53000
1  2.921374060623e+01   7.657969385050e+00  -4.889250833068e+00 
1 -3.836672296388e+00   2.071424196516e+01  -1.738069925067e+01 
1 -6.861649014275e+00  -6.361486959296e+00   1.659700488830e-02 
1 -4.549836144009e+01   5.375243233323e+01   1.035348318841e+01 
1  2.740088493004e+01  -2.456469791595e+01  -3.720463111957e+01 
1  2.552809838500e+01  -1.130032858181e+01   6.603286962672e+00 
1  5.217946266076e+00  -2.421272677318e+01   1.043808575428e+01 
1  5.763868309251e+00  -2.326383599968e+01  -5.262884860691e+00 
8
Step 54000
1  4.192335094872e+01   2.164160429530e+01  -2.496216275677e+01 
1 -3.517440604882e+01  -1.422899349969e+00  -2.246008873250e+01 
1  9.813479942878e+00  -1.605924524785e+01   2.712882612812e+00 
1 -1.766842922549e+01   6.081051266472e+00   2.107307628847e+01 
1  1.206478674736e+01  -2.269542070949e+01  -4.338433123207e+01 
1  6.001293784514e+01  -5.375203835133e+00   5.306644852497e+01 
1 -2.267876999633e+01  -2.172418441401e+01   7.671917987162e+00 
1  4.228935965543e+01  -1.753625918016e+01   1.360719489252e+01 
8
Step 55000
1  9.557729071604e+00   2.730296023929e+01   1.428841897998e+00 
1 -2.243567293484e+01  -1.181625247128e+01   1.555841510270e+01 
1  1.312540618794e+01  -1.436796158020e+01  -4.132119206963e+00 
1  2.328196583005e+01  -6.882296782690e+01  -4.593433505368e+00 
1 -2.176008241090e+01  -1.618650901464e+01   1.332529553211e+01 
1  2.702566875859e+01  -1.097399877545e+01   7.344582947274e+00 
1 -1.824609351143e+00  -1.113909162335e+01  -2.809495082465e+01 
1  3.202806840384e+01  -1.296216299645e+01   1.702774703767e+01 
8
Step 56000
1 -6.509103435412e+01  -4.364689978264e-01   2.394163098510e+01 
1  1.549618225567e+01   1.447374402306e+00   3.438703177687e+01 