8
Step 0
1  6.673994264557e+01  -6.348222162079e+01   4.533458352829e+01 
1 -4.190978114971e+01   6.511705803867e+01   6.576511494826e+01 
1  6.160288589397e+01  -4.968557995687e+01  -7.759770453232e+01 
1 -5.275475819101e+01   5.263914256172e+01  -6.287078783062e+01 
1  3.368236176707e+01  -5.535420352454e+01   6.567221809806e+01 
1 -2.932215654258e+01   5.697053922066e+01   5.504311202953e+01 
1  7.435867778535e+01  -5.503844031689e+01   6.929554136757e+01 
1  4.256782595794e+01   4.207458288030e+01   4.780089100214e+01 
8
Step 1000
1  2.092361924230e+01   2.751687811227e+00   3.218277914466e+01 
1 -1.425570317558e+01  -3.235487888040e+00  -2.447032096366e+01 
1  1.395889955091e+01  -6.599210991075e+01  -1.495420986384e+01 
1 -1.960261517428e+01  -2.280827929292e+00  -2.599801470285e+00 
1  3.115094080298e+01  -5.418153460023e+01  -7.980909365739e-01 
1  2.662134523727e+01  -1.230007965483e+01   3.995336466831e+01 
1  4.429656859153e+01  -3.677779187621e+01  -2.646168292225e+01 
1 -2.207426220460e+01   1.534572330887e+01  -4.467135182429e-01 
8
Step 2000
1  2.153192128177e+00  -2.181881090663e+01   4.765560184152e+00 
1  2.467427927688e+01   4.216604980211e+00   4.746617582622e+01 
1  3.514100799358e+01  -5.151559635212e+01  -1.247468077876e+01 
1  3.753182172115e+00  -3.779589889062e+01  -5.235599353665e+01 
1 -1.211551404689e+01  -2.328444051472e+01   4.631520560858e+01 
1 -1.832089072296e+00  -5.204027900947e+01   1.139329883893e+01 
1 -3.533516496064e+01   3.323191631457e+01   3.936046130697e+01 
1 -3.565567805462e+01   3.918172379849e+01   1.495813713341e+01 
8
Step 3000
1  1.234076511266e+01   4.729742228368e+01   1.782933976176e+01 
1 -1.248819552445e+01  -7.856994052765e+00  -2.808370933554e+01 
1  4.511087417490e+01  -3.011584810558e+01   1.702897483854e+01 
1  6.554645645009e+00  -2.093529551968e+01  -1.463098070716e+01 
1  1.508745906332e+01  -5.318257173541e+01   3.043707848782e+01 
1  1.694338217766e+01  -6.293235685325e+00  -9.280532227795e+00 
1  1.794152446800e+01  -2.987283617339e+01   3.284419750388e+00 
1 -7.358294313542e+00   4.665565816132e+01  -2.285588134801e+01 
8
Step 4000
1  9.792275882238e+00  -1.959185399728e+01   3.331687498316e+01 
1  4.878560494719e+01   9.375300763848e+00  -5.395340579477e+01 
1 -2.258269723059e+01  -6.105303542479e+00  -9.842010982663e+00 
1  7.447371930636e+00   3.794125037738e+00  -4.256522292481e+01 
1 -7.413072142527e+01   4.995152422241e+00   2.140642183637e+01 
1  5.449056645063e+01  -5.377187871415e+01   3.994118256787e+01 
1  3.928286489813e+00   3.087033362082e+01   5.211801361794e+01 
1  2.896759125159e+00  -8.775921444447e+00  -2.622626840480e+00 
8
Step 5000
1  9.892747882970e+00   5.630834015905e+00  -7.035103556252e+00 
1 -5.182159925252e+00   3.857855431522e-01   2.248188867161e+01 
1  4.529401365009e+01   1.356089993927e+01   1.842244296763e+01 
1 -1.130335484718e+01  -1.128300517766e+01  -7.418397031762e+01 
1 -1.032279401943e+00  -5.212313065179e+01   3.717810473729e+01 
1  1.660343608397e+01  -4.365649994751e+01  -1.885802045971e+01 
1  1.723136334151e+01   1.342183781144e+01  -7.109253870187e+00 
1  1.179801111901e+01   1.575553312175e+01  -3.444093273030e+01 
8
Step 6000
1  5.540497463492e+01  -1.130610391553e+01   6.417814938455e+01 
1  1.834751151277e+01  -3.554854226619e+00  -7.554585111220e+01 
1 -1.737393201975e+01  -3.660614181774e+01   2.547874136615e+01 
1  2.606082366141e+01   2.996302051137e+01   2.046394325858e+01 
1 -2.157169632573e+01  -4.958584562986e+00   1.788316117266e+00 
1  8.799168449933e+00   2.264607356394e+01  -8.918791962675e+00 
1 -2.256407687285e+01  -3.029459055678e+01  -1.191088216383e+01 
1 -1.037554851482e+01   9.094490111523e+00  -1.168789774384e+01 
8
Step 7000
1 -1.846366104400e+01   3.380763452242e+01  -8.189183507440e+01 
1  6.803213914277e+00  -2.703666192254e+01   4.337666663927e+01 
1  4.489566423407e+01  -4.144329652467e+01  -1.898883903320e+01 
1 -1.345038214061e+01  -7.540713024849e+01  -9.305169148997e+01 
1 -4.489774878225e+01  -5.452109976886e+01   2.351474922869e+01 
1 -5.129017664851e+01  -3.900888254072e+01   1.610302532078e+01 
1 -2.174429785365e+01   4.396104022320e+01  -1.179977278681e+01 
1  1.208816591428e+01   5.038815357911e+00  -2.159501571337e+01 
8
Step 8000
1  3.253489566327e+01   3.551052115004e+00   4.148277985345e+01 
1  2.306010745604e+01   1.307005738030e+01  -5.819073829208e+01 
1  4.269917239586e+01  -3.712179333526e+01  -6.241266012286e+00 
1 -5.505400794751e+01   5.132208924634e+01  -7.324006939793e+00 
1  4.539032566539e+01  -2.291411799011e+01   1.715562982143e+01 
1  3.119378061089e+01   7.100086819239e+01  -1.419090972542e+01 
1  2.660931522609e+01  -2.694000545161e+01  -6.404791154885e+00 
1 -5.228898773496e+01   6.431075025949e+01  -6.094730984625e+00 
8
Step 9000
1  1.232387876474e+01   2.144675346837e+01  -4.938795430217e+01 
1  9.458896352850e+00   2.520587197456e+01  -7.954348325023e-01 
1  1.216777298753e+01  -2.149714209727e+00  -3.187337256870e+01 
1 -9.023789891362e+00   6.454371165464e+00  -3.584195012264e+00 
1 -3.148807503675e+01  -2.329081154453e+01   1.238898080852e+01 
1  8.183195361917e+00  -1.715869113877e+01   1.304978316065e+00 
1  7.247573215052e+00  -2.438689968617e+01  -4.220520392801e+01 
1  1.628168052273e+01  -5.093003827623e-01  -2.765591660124e+01 
8
Step 10000
1  1.521004187900e+01  -1.157166375435e+01   1.468405659260e+01 
1 -4.650354354090e+00  -1.293873263860e+01   1.031848180965e+00 
1  1.851785117731e+01  -3.755764060454e+00  -1.003028314108e+01 
1 -4.178044623351e+01   3.297282778649e+01  -3.926105808176e+01 
1  1.643252817851e+01  -1.651480473666e+01  -1.623202286102e+01 
1  6.216820988840e-01  -4.342547544620e+00  -2.975284621502e+01 
1  2.310285430655e+01  -4.389487717953e+00  -9.699690566083e+00 
1 -4.753272926270e+01   5.464581322486e+01   4.272321516974e+00 
8
Step 11000
1 -2.302601925586e+00   3.985002681014e+01   3.105988827369e+00 
1 -9.186127170353e+00  -1.521634419837e+01  -3.612185780167e+01 
1 -3.598336690896e+00  -5.118168461964e+01  -1.149825054211e+00 
1  1.447465265287e+01  -2.692383721106e+01   4.108553196345e+01 
1 -5.490156372611e+01  -1.519110304600e+01  -1.525284778928e+01 
1 -2.178877043612e+01   5.287524528877e+01  -3.215067834675e+01 
1 -1.839529662408e+00  -1.491207274092e+01  -2.292613053766e+01 
1 -2.457560827657e+01   1.361991467537e+01  -7.765449985528e+01 
8
Step 12000
1  9.385814352286e+00   1.202886671737e+01  -3.409360335658e+01 
1  1.877123223938e+01  -8.193052253934e+00  -2.801632454926e+01 
1 -1.893655171928e+01   5.597547277029e+00   1.055413563282e+01 
1  3.649096726451e+00  -2.998524191261e+01  -3.199112517263e+01 
1  3.546507131790e+00   2.389419140045e+01  -7.367094740256e+00 
1  1.466143419412e+01  -1.603376992151e+00   1.479660965367e+01 
1 -1.454232226754e+00   7.517411895636e+01  -1.165020293103e+01 
1 -2.795945251674e+01   1.366092071691e+01  -1.558537114689e+01 
8
Step 13000
1 -2.989783906629e+01   1.672653795305e+01  -2.709319091074e+01 
1  2.030013449204e+01  -2.523406229829e+00  -5.189365521270e+01 
1 -7.026032614673e+00   1.777362322623e+00   1.274773219999e+01 
1 -2.097405129964e+01  -1.126108848723e+01  -4.564213993210e+00 
1  2.034109157448e+00   9.932893026938e+00   1.650591543435e+01 
1 -2.139352034174e+01   1.385878955160e+00  -5.030947181010e+01 
1 -3.762846688031e+00  -1.952795652425e+01  -4.935641261027e-01 
1  9.504138692684e+00   2.117214678991e+01  -3.187520374128e+01 
8
Step 14000
1  2.577752586748e+01  -2.155597842751e+01   1.083612408189e+01 
1 -2.601378446091e+00   2.269184216967e+01  -2.662657718819e+01 
1 -3.969710372618e+01   6.322243741594e+01   4.013794931451e+01 
1  5.669628860503e+01   4.942752324938e+01   1.826710869192e+01 
1 -2.155662322047e+01   5.424019574583e+01  -4.638940858884e+01 
1  4.464943889479e+01   2.672739637640e+01  -2.958162370357e+01 
1  1.696934355442e+01   4.880499215763e+01  -2.880612887794e+00 
1  6.567696306066e+00  -2.590499492141e+01  -3.792557410464e+01 
8
Step 15000
1 -3.306436010944e+01  -5.930346157344e+00  -2.584932277552e+01 
1 -1.915578605627e+01  -2.246307669956e+01  -3.395220760521e+01 
1 -5.131548539631e+01  -1.276859026012e+01  -5.606609994132e+00 
1 -6.490142409809e+01  -4.922177763254e+01   2.733550101435e+00 
1 -3.564323886969e+01  -8.948421549569e+00   4.216438760130e+00 
1  4.634713950689e+00  -4.164796871343e+01  -5.454173433752e+00 
1 -1.091771116893e+01   7.971331336626e+00  -1.460581213336e+01 
1 -3.500504623876e+01   4.889972279876e+01  -2.923157901297e+01 
8
Step 16000
1  3.133306012113e+01   6.944613345548e+00  -9.454742841966e+00 
1 -1.619078766218e+01  -1.447510659469e+01  -3.979390001446e+01 
1 -3.313685493257e+01  -6.929828490114e+00  -3.712631407240e-01 
1  4.856242711267e+01   1.737723432086e+01   6.396949302936e+01 
1  4.944160506818e+00   2.528173895944e+01  -3.679672252640e+01 
1 -1.238477683647e+01   6.387889085486e+01  -4.353631186193e+01 
1 -1.155997159722e+01   1.949745430275e+01   1.674839779193e+01 
1 -1.815996104064e+01   2.439121661301e+01  -2.874032984906e+01 
8
Step 17000
1 -2.747644989214e+01   4.640330372921e+00  -2.961179925294e+01 
1 -9.518012686005e+00   3.604408484778e+01  -1.594232157874e+01 
1 -5.181312786775e+01   1.644638196027e+01   3.915494021732e+00 
1  2.487817263939e+01  -2.459073654036e+01   4.511870876367e+01 
1  3.441137574692e+00   3.869165877166e+00  -1.753672804824e+01 
1 -2.582365864254e+01   1.620950510782e+01   1.021476020682e+01 
1  1.319002632773e+01  -1.031924011180e+01  -1.360559237713e+01 
1 -1.293140615286e+01   3.220553697038e+01  -1.336614351080e+01 
8
Step 18000
1  9.023059677258e+00  -2.313143854902e+01  -4.708303611744e+01 
1 -1.733312097046e+01  -2.111046112633e+01   4.014999542847e-01 
1  4.415408796343e+01   6.155933243871e+01   1.391177185479e+01 
1  2.366408215467e+01   3.067758319470e+01   9.269828055691e+00 
1  2.562560532320e+01   3.682234167381e+01  -4.179326705745e+01 
1 -9.297976925745e+00   3.361274937102e+01  -3.121557487888e+01 
1  1.314802219407e+01  -2.188335103953e+01   1.673904012589e+01 
1  3.541179165032e+00   5.145352531524e+01   1.338204125629e+00 
8
Step 19000
1 -4.046207223398e+01  -2.968087790925e+01   7.312356763792e+01 
1  6.036814593736e+00   7.564383021717e+00  -2.912919797031e+01 
1 -1.186658166951e+02   5.608111559903e+01  -5.656682437911e+00 
1 -9.877202508849e-01  -1.230445837964e+01   5.782978010837e+01 
1  9.450601706244e+00   4.807682866126e+00  -1.607942760064e+01 
1 -4.676488667021e+01   5.231071203744e+01  -8.296224551824e+00 
1  2.278275281725e+01  -8.193925522802e-01  -1.297891484217e+01 
1 -2.893948778829e+01  -2.501978641235e+01  -7.903099512824e+00 
8
Step 20000
1  5.888978398313e+00   6.529555555651e+00  -2.141774884480e+01 
1  1.036242738449e+00  -2.717335921700e+01   6.946897162887e+00 
1 -1.773349735597e+00   3.208175166867e+01   5.579219188768e+00 
1  2.639117021969e+01   2.250732749239e+01   1.537264649079e+01 
1 -9.821233682175e+00   4.781317604400e+01   2.955353004699e+01 
1 -2.069929429300e+00  -1.400359039320e+00  -3.298035095108e+01 
1 -1.038667788519e+01  -2.906470947870e+01  -2.634103555094e+00 
1 -8.879465346551e+00   1.697364476120e+01   1.473739256523e+01 
8
Step 21000
1 -4.787439509156e+01  -1.963573587445e+01   2.996190369824e+01 
1  6.347394442564e+00   1.502150939782e+01  -1.381952633682e+01 
1 -4.809668448588e+01  -1.849721163257e+01  -5.252297407861e+00 
1 -5.128606102813e+00  -1.152695258534e+01   3.218977173059e+01 
1 -2.630097817184e+01  -7.119380508735e+00  -2.011360142361e+01 
1  8.074457813415e+00  -2.122005053383e+01  -1.090068217666e+01 
1 -1.497869709988e+01   2.815579723207e+01   3.335480174070e+01 
1 -1.861824713346e+01  -2.277086718529e+01   3.249869169917e+00 
8
Step 22000
1  2.047064873571e+00   4.114172469374e+01   4.392132088254e+00 
1  2.928303929989e+01  -1.420330413656e+00  -2.605596053082e+00 
1 -1.954340395912e+01   6.416812060334e+01   2.386976921000e+01 
1  9.847747736473e+01   5.037237723350e+00   4.877313852552e+01 
1  1.168356848746e+01   8.622015486314e+01   7.435437138146e+00 
1  1.888572779716e+01   3.516873416203e+01  -2.437757660129e+01 
1  2.090654111851e+01  -3.885945125736e-01   2.993792791082e+01 
1  4.724008862171e+00  -1.282168998038e+01   1.282163028392e+01 
8
Step 23000
1 -2.160585696632e+01  -3.090560608815e+01   4.125577446969e+01 
1 -3.492119201657e+00   2.138584291056e+01   3.348388896083e+01 
1 -4.344499357263e+01   8.886068236913e+00  -1.480191911890e+01 
1 -4.321585790097e+01  -2.485802677793e+00  -1.100437525384e+01 
1  7.044529221390e+00   1.274714144603e+01  -1.672129417844e+00 
1  3.715287732761e+01  -1.359015928619e+01  -1.063353419411e+01 
1 -1.904973971158e+01  -2.445782078211e+00   4.108342039402e+01 
1 -4.096631100410e+00  -4.909111840987e+01   2.621527264655e+01 
8
Step 24000
1  3.849237758446e+01  -2.324771141342e+01   3.536342671844e+01 
1  6.888761068339e+00  -1.266625096535e+01  -7.191834003987e+00 
1 -5.298257808330e+01   4.486353404737e+01  -1.440380270703e+01 
1  3.729796220956e+01   1.663327451270e+01   2.384768364969e+01 
1 -4.307758375079e+00   2.788112913575e+01  -2.317528439892e+01 
1 -4.464293084871e+01   1.022227291868e+01   2.180815638239e+01 
1  1.716911856615e+01  -4.506595939338e+01   3.326463281975e+01 
1 -8.913521305782e+00  -6.032786919388e+01  -5.610156145375e+00 
8
Step 25000
1 -1.533973929955e+01  -3.280967659656e+00   2.507953522482e+01 
1 -1.858913986247e+01   8.245405196316e+00   2.772248802584e+01 
1 -4.798510873218e+01   3.244780991816e+01   4.804932785083e+01 
1 -1.600178953779e+01  -3.932560606291e+01   5.542919993558e+01 
1 -6.231843471645e+00   4.747623063105e+01  -2.135012646584e+01 
1  1.786313325901e+01   1.516188181543e+00  -1.131525788556e+01 
1  9.153612730621e+00  -5.985463742907e+01   2.651682700112e+01 
1 -1.369030174129e+01  -1.823234579800e+01   2.228710673245e+01 
8
Step 26000
1  4.765402009621e+01  -1.283388890781e+01  -2.311240550538e+01 
1  5.800837733212e+01   2.565285605495e+00   1.046865921923e+01 
1 -1.253343161927e+01   3.929448468580e+00  -3.556786813829e+01 
1  2.288619828221e+01   1.790866178702e+01   1.711659206441e+01 
1  4.357253343841e+01  -2.827802106076e+01  -2.177590274258e+01 
1 -2.494837005345e+01   2.472427163095e+01   3.699486682923e+01 
1  5.279037059812e+01  -2.563478368563e+00   2.978179130393e+01 
1  5.366588757300e+00  -1.928496650441e+01   2.014206891738e+01 
8
Step 27000
1  1.157423464572e+01   1.479942847289e+01   6.734047444917e+01 
1 -4.913118173191e+01   1.622338588148e+01   6.527664016797e+00 
1 -5.316177020127e+01  -8.498742035548e+00   1.123467974242e+01 
1  7.411739774970e+01  -2.863248644677e+01   7.584611450063e+01 
1  1.763587399639e+01   3.200170122264e+01  -3.053843252145e+01 
1  2.122014914572e+01   3.890383376538e+01  -1.760667277542e+01 
1  2.061507232767e+01  -5.339907246578e+01   3.867630618852e+01 
1 -2.927713310885e+01  -3.874744407773e+01   1.824292238388e+01 
8
Step 28000
1 -8.856622210205e-01  -2.900685181052e+01  -2.819331945008e+01 
1  5.564563139181e+01   2.590253389176e+01   7.887808640712e+01 
1  1.359028901238e+01   1.618988830382e+01  -2.701267180099e+01 
1  1.025635662631e+01   4.711066570632e+01  -3.067701445969e+01 
1  1.772014226318e+01   2.702223877782e+01  -8.596758011971e+00 
1 -6.494937922950e+00  -2.520399570271e+01   2.131672717519e+01 
1  9.916161795990e-01  -3.600538504135e+01   3.809674516256e+01 
1  3.120293889990e+01  -2.484961010810e+01   4.588315544152e+01 
8
Step 29000
1 -2.814756552315e+00  -3.867360010973e+01   4.521569025445e+01 
1 -4.245042218867e+01   7.645105322061e+00  -1.857406226509e+01 
1 -4.513702536596e+01   1.330143212746e+01  -2.071025665829e+01 
1 -1.142067666614e+01  -3.371644989058e+01   5.893904724298e+01 
1 -1.854006200895e+00  -5.820383446147e+01  -2.773640659085e+01 
1 -5.471104739572e+00  -1.215978368868e+01  -1.745856707673e+01 
1  2.443707894240e+01  -5.258332665387e+01   5.249027398838e+01 
1 -4.775660448462e+01  -6.785771087436e+01  -4.033573796210e+00 
8
Step 30000
1 -3.699716228155e+01   1.859073695056e+01  -3.073079243846e+01 
1  5.020824731241e+01  -2.800197272378e+01   5.638343435712e+01 
1  1.018160350228e+01  -8.893161556674e+00   6.529393431323e+00 
1  4.512304532255e+01  -1.056422454986e+01  -1.004450040573e+01 
1  2.166083487792e+01   7.773675236988e+01   1.738226591650e+01 
1 -2.749299141003e+00   9.712286898775e+00  -9.100225172052e+00 
1 -2.833387371428e+01  -2.372870407420e+01   1.149466662197e+01 
1  6.985466030110e+01  -3.345231179576e+01   2.713854894317e+01 
8
Step 31000
1 -3.108600155368e+01   9.273356657004e+00   1.459999855109e+01 
1  1.167186565180e+01   1.405751297499e+01   1.716100794432e+01 
1  4.262292712524e+01  -4.730815479670e+00  -3.928803633508e+01 
1  1.367166304662e+01  -1.985903115201e+01   1.276071948395e+01 
1  5.552262012646e+01  -1.294886003446e+01   1.555962599994e+01 
1  3.291522471139e+01  -4.849606523281e+01   3.310145229501e+01 
1  3.569623221544e+01   2.854721693721e+01   3.510809420777e+01 
1  2.967897111245e+01   1.706712626447e+01   2.254152276677e+01 
8
Step 32000
1 -3.082237845586e+01  -2.129239473345e+00   6.110976898250e+00 
1  3.887528256899e+01  -2.264555617471e+00  -3.409000288537e+01 
1  2.993992629356e+01  -3.512440928797e+01   8.373266232592e-01 
1  4.408750459114e+01  -3.361716862909e+01  -3.422730630460e+01 
1 -2.742897302624e+01   1.782454512045e+01  -2.760270293380e+01 
1 -4.086994417758e+01   5.888006234479e+00  -4.233967868430e+01 
1  2.496040664899e+00  -4.142797196802e+01   3.489244007164e+01 
1  2.812856158093e+01  -5.666509683398e+01   2.754859746070e+01 
8
Step 33000
1 -4.395591387069e+01  -2.532757962921e+01   3.410151796082e+00 
1 -1.357221224425e+01   5.081940512681e+01   9.288436380869e+01 
1 -1.951604628752e+01  -1.100911918211e+01  -5.404550408156e+01 
1  5.951409350002e+00  -1.974457496222e+01  -4.548464239599e+00 
1  5.174700576941e+01  -2.688021353192e+01   3.087219666576e+01 
1  2.485095672878e+01  -3.140198815916e+01   2.954617593422e+01 
1 -2.564633150220e+01  -7.538480983264e+00  -2.177506268249e+01 
1 -7.599119430461e+00   1.909155731234e+01   3.696743416961e+01 
8
Step 34000
1  1.430281006711e+01  -6.600243996028e+00  -4.849697556533e+00 
1  5.271146403377e+00  -6.333952665636e+00  -5.618325957249e+01 
1  6.229057064034e+01  -6.312535628132e+01  -1.379417431713e+01 
1 -2.513503790141e+01  -1.359775045717e+01  -1.139337444818e+01 
1 -1.357959156501e+01   3.837528793159e+00  -4.472011698159e+01 
1 -1.257000386905e+00   1.514126205450e+01  -2.803822365974e+01 
1  2.001148457306e+01  -2.180809842310e+01   3.076416751762e+01 
1 -1.473338286468e+01  -6.157046142071e+01  -1.491383266433e+00 
8
Step 35000
1 -2.580079446247e+01   2.948413367988e+01  -1.409361771834e+01 
1  1.475679112234e+01   3.869793926741e+00   4.398880096796e+01 
1 -1.945340010255e+01  -1.240420026800e+01  -4.986274162206e+01 
1  3.506956850018e+01  -4.634467458493e+01  -9.662162257719e+00 
1  2.795348889735e+01  -2.183245484164e+01   2.127250389579e+01 
1 -1.406917012471e+01   3.535790156309e+01   1.860994921828e+01 
1  1.277835852396e+01  -2.358208247787e+01  -2.420011432201e+01 
1  2.501833816911e+01  -2.042082099586e+01   1.440839965610e+01 
8
Step 36000
1 -1.527375928603e+01   2.030098000728e+01  -2.001642344689e+01 
1  4.441859969764e+00   2.739698677194e+00   1.654791783153e+01 
1  8.019844667549e+01  -9.530428644470e+00  -4.130300422701e+01 
1  8.059541271662e+00  -1.767133131822e+01   1.572479501749e+01 
1  2.620067943657e+01  -1.383053313277e+01  -2.880023344426e+01 
1  2.592494253032e+01   4.184702596374e+01   1.077641637516e+01 
1  2.462475689494e+01  -1.632788358233e+00   4.013935686499e+01 
1  2.165512308140e-01   4.029720818390e+01  -2.142233672874e+01 
8
Step 37000
1  7.212195651039e+01  -4.218998428067e+01   8.839522835254e+00 
1 -2.571798215138e+01   2.611148934828e+01  -8.862907503020e+00 
1 -2.387493681695e+01  -3.773100046369e+01  -4.066038179353e+01 
1 -2.205092799311e+01  -5.363210222952e+01  -3.379389748943e+01 
1 -3.943460115754e+00  -4.338427505153e+01  -1.001742919415e+01 
1 -4.581285649339e+01   9.482365521998e-01  -8.509791473900e+00 
1  9.841928535087e+00   1.062242008133e+01   4.393174412629e-01 
1  2.429404607042e+01  -2.541683046301e+01  -3.507235568729e+01 
8
Step 38000
1 -4.332307878484e+01  -1.399182677966e+01  -7.689055465197e+01 
1  2.596959376722e+00   3.982134013541e+00   6.311752684700e+01 
1 -1.774802194420e+01  -3.988611922672e+01  -4.583316649565e+01 
1 -1.933106982346e+01  -5.626104695035e+01  -8.170340045061e+00 
1  1.695020574129e+01   3.966392266705e+00  -3.944623843262e+01 
1 -2.085427433330e+01   1.167692762364e+01  -1.382008243140e+01 
1 -4.889940100385e+01  -4.892216990864e+01  -3.482402294312e+01 
1 -2.908954443023e+01  -2.029461913899e+01  -1.593923946930e+01 
8
Step 39000
1  4.966112014090e+01  -3.448421679737e+01  -1.513706831901e+01 
1 -1.783271306666e+01   5.473298451828e+01   3.779814121409e+00 
1  4.473440843978e+01   4.953621718291e+00   4.820267682277e+00 
1 -1.805821045389e+01   3.293433786158e+01  -3.413492519381e+01 
1 -2.442502646577e+01  -5.996482633128e-01   4.409615322420e+00 
1  2.096433288464e+01  -2.350988022989e+01  -7.953936215381e+00 
1  1.718816986822e+01   1.751450888167e+01   5.524222926980e+01 
1  4.450614451999e+01   1.039527572870e+01  -3.902959186988e+01 
8
Step 40000
1 -4.933404052972e+00  -3.416063355292e+00  -6.053164433471e+01 
1  3.440743143473e+01   1.197023109535e+01  -1.089523286432e+01 
1 -2.095308440493e+00  -1.032309390828e+01  -2.366362047280e+01 
1 -2.536394594968e+01  -5.038298968145e+01  -3.173796408144e+01 
1  2.440801650889e+01  -1.903475257869e+01   6.270257610821e+00 
1  4.870937515447e+00   1.351881818364e+00   2.560179628387e+00 
1 -1.986953795569e+01   2.760927278845e+01  -5.792716860793e+01 
1 -1.481832843626e+01  -2.053624258307e+01  -1.410505830487e+00 
8
Step 41000
1 -3.590868657023e+01   1.820929516571e+01  -1.047605319721e+01 
1  8.951509205399e+00   4.376603529766e+00   3.803444556223e+01 
1  6.699138531919e+01  -2.343209378369e+01   1.910756782684e+01 
1 -1.897871997391e+01   3.286754109502e+01  -2.561369585706e+01 
1 -2.413983842207e+01   3.893895234368e+01   2.598306950860e+01 
1  3.251590285812e+00   4.407447660878e+00  -2.817468454736e+01 
1 -2.802994779303e+01   1.797255644435e+01  -2.123368181742e+01 
1  3.787269801407e+01   2.973483735917e+01  -1.275341874454e+01 
8
Step 42000
1 -1.375731451167e+01  -5.622661960429e+01  -6.339587330430e+01 
1 -1.243484110801e+01   2.356598847023e+01  -5.915648212501e+01 
1  1.439846783851e+01  -1.155799206970e+01  -2.774595121740e+00 
1 -2.621472774661e+01  -5.962219518110e+01  -1.599049385932e+01 
1 -3.330229312439e+01  -5.573703557449e+01   5.207894623547e+00 
1 -3.818631091582e+01  -2.051878382750e+01  -2.456774451279e+01 
1 -2.302553726252e+01   3.708776798268e+01  -4.362932938059e+01 
1 -6.467337069615e+01  -7.949537593914e+00  -2.658801655143e+01 
8
Step 43000
1 -1.248089838779e+01   2.585463074955e+01  -1.352778239577e+01 
1  3.489805462903e+01  -2.713487036930e+01   5.901509070810e+01 
1  1.984771222036e+01  -1.343160841601e+01  -1.384294163856e+01 
1 -2.211880127544e+01   3.656637549493e+01  -2.854627136027e+01 
1 -2.119431589533e+01   1.631544358912e+01  -2.948622869408e+00 
1 -7.890773466799e+01   4.850880007872e+00  -1.984085773405e+01 
1 -3.390679307634e+01  -5.379708772386e+01  -6.545704765392e+01 
1  3.486257121503e+01   2.256823093043e+01  -2.124292236853e+01 
8
Step 44000
1 -1.788062824362e+01  -2.708261489969e+01  -2.813610963673e+01 
1 -4.222216432968e+01   6.847122403502e+01  -5.535570262472e+01 
1  6.174252420161e+01  -4.365995218801e+00   1.594910244677e+01 
1 -6.588130890988e-01   1.879931769041e+01   2.922874424176e+01 
1  7.451728988724e+00  -1.528107826313e+01   4.301263221456e+01 
1  2.485144993428e+01  -3.632616347415e+01  -8.806852948175e+00 
1 -7.538591975174e+00   3.850032260014e+01  -1.634662358693e+01 
1 -4.085822936935e+01   6.354804747902e+01  -1.625349697470e+01 
8
Step 45000
1  3.186679583333e+01   5.298326848628e+01  -3.826453936842e+01 
1  4.650949283421e+01  -2.285962386804e+01   3.246759049163e+01 
1 -3.876022938878e+00   1.028910776854e+01  -1.093983961309e+00 
1 -2.007072231047e+00   2.023391257116e+00   1.954505156775e+01 
1 -2.362268814457e+00   1.281051122182e+01  -2.619373033154e+00 
1 -4.347385305555e+01   9.285933369462e+01   2.981873476970e+00 
1  3.474431208613e+01  -5.202591852536e+00  -1.500611432117e+01 
1  4.369582856905e+01   3.892777031657e+01  -2.352162311238e+01 
8
Step 46000
1 -3.763478557024e+01  -2.246652260016e+01  -6.275655088560e+00 
1 -7.819272680491e+01   6.603087516236e+00  -3.469141657650e+01 
1  3.425032632352e+01  -3.333240898163e+01  -1.620306256969e+01 
1 -2.934876533803e+01  -2.185388448233e+01   2.197289905234e+01 
1 -3.070117464330e+01  -2.733267065855e+01   4.775356000105e+01 
1 -3.440176105341e+01  -4.349199209637e+01  -3.203805383458e+01 
1 -7.501028845440e+01  -1.875718056441e+01  -5.666235698505e+01 
1 -6.413780232494e+01   3.451563398767e+01  -5.890170376981e+01 
8
Step 47000
1  1.422165101723e+01  -2.900116482801e+01   5.818668167960e+00 
1  1.890632819806e+01   2.283234589768e+01  -7.970855257095e+00 
1  7.268789158474e+00   5.927323984625e+01   1.959027452519e+01 
1 -1.342730142143e+01   1.570134967675e+01   2.974904231057e+00 
1 -7.566868008723e+00  -3.837731770337e+00   1.019406542885e+01 
1  2.012673388002e+01   2.546781285213e+01   4.327977348637e+01 
1  1.368337816563e+01   7.461179818253e+01  -1.946459357220e+00 
1 -2.317181184766e+01   6.465412243503e+00  -4.800667482394e+01 
8
Step 48000
1  2.267977364838e+01  -6.283903621819e-01  -6.437751516512e+01 
1 -3.290136105238e+01  -2.230047197328e+01   1.054157732596e+01 
1 -4.062841560086e+01   1.982126966654e+01  -2.031626172452e+00 
1 -1.890334616894e+01  -4.541540943289e+01  -1.740229372553e+01 
1  1.549680253566e+01  -1.772682565825e+01   7.442866793645e+01 
1 -5.472593967259e+01   2.193570830133e+01  -3.519425946913e+01 
1 -5.245043460025e+01  -2.863238146156e+01  -1.926878983675e+01 
1  2.511825896125e+01  -9.589719095569e-02  -6.179491348400e+00 
8
Step 49000
1  4.545471334646e+00  -2.609661981233e+01   1.524759880351e+01 
1 -2.616315105567e+01   3.929134858146e+01   1.299411485092e+01 
1  5.188447448431e+01   3.248090676254e+01   5.738047620926e+01 
1 -1.095069666947e+01   5.409241829656e+01   7.561453519711e+00 
1  8.520085791032e+00   3.390199802599e+01   4.211279603092e+01 
1  3.241274099125e+01   1.969936846948e+01   3.247192355594e+01 
1  2.255363461400e+01   1.062262469154e+02  -1.233060117966e+01 
1 -5.062446982285e+00   7.818695626896e+00  -4.130144751181e+01 
8
Step 50000
1 -2.054364950856e-01  -2.061979102483e+01  -2.105256710608e+01 
1  2.276879546338e+01  -7.341232079091e-01  -4.082486404247e-01 
1 -4.362721326318e+01   3.077846119501e+01   5.225846124383e+01 
1 -2.712604647559e+01  -1.048253121480e+01  -4.264399653124e+01 
1  1.579806416191e+01  -3.045977141158e+01   5.663913165407e+01 
1 -1.961668299813e+01   1.632409172964e+01   2.290451193540e+01 
1 -2.353010036004e+01   2.645194863438e+01   1.613587969545e+00 
1  1.578486177593e+01   1.960647818133e+01  -2.040684408946e+00 
8
Step 51000
1  4.883132559323e+01  -1.657020324003e+01   4.189068623650e+01 
1 -2.586555583458e+01  -4.939838020087e+01  -1.187023084530e+01 
1 -1.000458118661e+01  -1.860032996297e+00  -2.742215333981e+01 
1 -6.045036681626e+01   1.763061080196e+01  -2.964470066340e+01 
1  2.412668940749e+00   2.185729662756e+01   5.665970426344e+01 
1  1.156289418962e+01  -1.904919332517e+00  -1.827109804504e+00 
1 -4.039257754227e-01  -3.856198363089e+00  -3.150077697678e+01 
1 -2.316894623700e+01   3.953551800556e+01  -1.812525024086e+01 
8
Step 52000
1 -2.049245555146e+01  -2.643718791068e+01   4.615787988019e+01 
1  1.749032238914e+01   1.523349484451e+01   1.250596832308e+00 
1 -1.293688589825e+01   1.906525980109e+01   5.506234164836e+01 
1 -3.340309650925e+01   3.423952372875e+01   8.012900614945e+00 
1 -1.678174415616e+01  -5.593288055024e+01   1.087035745729e+01 
1  1.875523642982e+01   1.239321541248e+01   1.795171371685e+01 
1 -3.947784070848e+01   1.413875279444e+01   6.994291630677e+00 
1 -3.004211085544e+01   2.243113910607e+00  -9.448149062470e-01 
8
Step 53000
1  4.985656374684e+01   2.009257121574e+01   3.109923237264e+00 
1  2.430159855103e+01  -5.085590489434e+01   9.240708208147e+00 
1 -1.893389387825e+01   1.945582677976e+01  -7.563556716426e+00 
1 -9.174863934711e+00   2.742702543243e+01  -1.304866210472e+01 
1  1.876899023025e+01   2.551866278495e+01   5.007183830583e+01 
1 -1.000416827451e+00   3.868686495645e+01  -1.039002490439e+01 
1  7.983260679906e+01  -3.714346631893e+00  -3.704652824115e+00 
1  4.477132407837e+01   1.077620623509e+02   1.011114595071e+02 
8
Step 54000
1  4.427570119085e+00  -1.399554677695e+01   2.134503132517e+00 
1 -5.053746724978e+01  -1.299529388214e+01   2.277653197658e+01 
1  1.945658088646e+01   9.423881477810e+00   3.644081474512e+01 
1 -3.098402965234e+01   5.520778171396e+01   5.238694329602e+00 
1 -2.386298848187e+00  -1.333312554799e+01  -7.526615850465e-01 
1 -6.931464104864e+00  -4.382861203668e+01   2.486399819530e+00 
1 -4.256273207648e+00  -3.005907628678e+01  -4.797804661041e+00 
1 -1.668911461342e+01  -1.242717350287e+01   1.419791045758e+01 
8
Step 55000
1  8.400406073819e+00  -1.377025716445e+01   8.596557394088e+01 
1  3.065255572312e+01  -2.874070142508e+01  -5.501424787869e+01 
1 -4.689309717494e+01   3.017994870204e+01  -1.364729038365e+01 
1  5.297444287032e+00   3.178362661073e+00  -8.770740607160e+00 
1  1.685584097443e+01  -1.049297768710e+01   4.394501245294e+01 
1  8.743243748440e+00   5.661831942256e+01  -1.454723864600e+01 
1 -4.409984466973e-01  -4.017930712264e+00   2.980469653581e+01 
1  3.794298536033e+01   7.052051602552e+01   4.968996637827e+01 
8
Step 56000
1  4.602240094013e+01   5.982557798967e+01   7.577869420838e+00 
1 -3.734129221296e+01  -6.600855653629e+01   2.887775401000e+01 