8
Step 0
1  2.130326814812e+00   3.841428738278e+01  -3.900125211552e+01 
1  3.567597752465e+00  -3.504277063756e+01   3.861701022475e+01 
1  6.258847992801e+01  -7.076539324116e+01   6.450599359103e+01 
1  5.978855273526e+01  -4.628740992298e+01  -3.331699604665e+01 
1  5.663920321690e+01  -5.214564811192e+01   5.649937483509e+01 
1 -4.885508989697e+01   7.742773658779e+01   3.518899981800e+01 
1  3.981944038262e+01  -7.472662646084e+01  -5.860625198879e+01 
1 -7.332626035848e+01  -1.421247514719e+01  -1.259120980933e+01 
8
Step 1000
1  1.001860586876e+01   3.565664984404e+01   7.359858992978e+00 
1  1.398753142883e+01  -2.518667185417e+01   2.733226573630e+01 
1  4.817591393702e+01  -1.913453413764e+01   6.536531561167e+01 
1  3.184319048485e+01  -2.941249257026e+01  -2.069622610640e+00 
1  4.253619947225e+00  -1.704027072510e+01   3.866719810605e+01 
1 -1.150601190385e+01   7.390288654327e+01  -1.537998729939e+01 
1  2.513436643643e+01  -2.830510475404e+01  -4.772341597458e+01 
1 -3.764140420501e+01   2.804216361228e+00  -7.450909910765e+00 
8
Step 2000
1 -5.080402211671e+00   2.826010865200e+01   5.855107965839e+01 
1  1.312762336560e+01   2.202570369345e+01  -8.305227678495e+00 
1  2.636237626111e+00   5.982098146224e+01   2.502666279225e+01 
1 -2.329325609298e+01   3.698376859944e+01   3.608937989151e+01 
1 -5.370667236965e+01   4.084797409561e+01   1.382089062564e+01 
1  1.763480431493e+01   1.078057051627e+01  -6.092004983686e+01 
1 -1.357507459424e+01   3.404170198843e+01   5.341513807755e+00 
1  2.697389930960e+01  -1.080661390877e+01  -7.273234744357e+00 
8
Step 3000
1 -1.442305444894e+01   5.498155025689e+00   7.076945892554e+01 
1  2.206007492145e+01   3.858817521604e+01  -5.089814323259e+01 
1 -4.655327811237e+01   7.070949766962e+01  -2.834225530758e+01 
1 -2.691915195103e+01   8.147872865127e+01   6.288835180435e+01 
1 -5.150005141894e+01   6.653343393529e+01  -7.861152900457e+00 
1  2.997002232306e+01  -4.055944201801e+01  -5.596156824742e+01 
1 -3.696436016120e+01   4.811038042079e+01   4.755592093693e+01 
1  6.680814469345e+01  -5.178078319390e+01  -1.180019212831e+01 
8
Step 4000
1 -2.081796520975e+00  -1.873550349063e+01   4.039275171426e+01 
1  4.423079452995e+01   8.598433998422e+00  -7.553940102543e+01 
1 -7.318752079420e+01  -1.175624251105e+00  -5.857250866605e+01 
1  1.757581750148e+01   5.930593724092e+01   6.953562723789e+01 
1  4.902646507839e+00   3.449293070496e+01  -2.487451635469e+01 
1  3.517195245804e+01  -2.476139843832e+01  -9.094974286371e+00 
1 -2.687177937526e+01   1.751826997596e+01   4.264310734243e+01 
1  5.126698219567e+01  -5.992465261719e+01  -1.360063346177e+01 
8
Step 5000
1  1.303204518605e+01  -2.064417685041e+01  -1.409064902102e-01 
1  4.203478955069e+01  -2.651553182107e+01  -5.776420200314e+01 
1 -5.969951840950e+01  -7.180137070470e+01  -5.445571388565e+01 
1  4.950956836926e+01   3.940327570147e-01   5.163206184161e+01 
1  5.009954953990e+01  -2.808849845049e+01  -2.710676085319e+01 
1  3.152759029926e+01   3.528558184138e+01   2.624447288800e+01 
1 -6.504173364450e+00  -9.564416212037e+00   5.661608655065e+00 
1 -1.639868015904e+00  -1.310784065015e+01  -7.111207736022e+00 
8
Step 6000
1  1.350859881555e+01  -2.172411872893e+00  -1.874996300259e+01 
1  4.415124214703e+00  -1.934863635502e+01  -2.173950574011e+01 
1 -1.922898836487e+01  -7.201732698271e+01  -2.224701874667e+01 
1  1.961484665431e+01  -4.285076607739e+01   1.624914597707e+01 
1  4.044532124494e+01  -6.348505271684e+01  -9.669182416603e-01 
1  1.285257702495e+01   6.653209877657e+01   1.895104238964e+01 
1 -5.506453502870e+00  -7.292962911164e+00  -1.976013133613e+01 
1 -4.532664892298e+01   4.158090286722e+01   8.745850842778e-02 
8
Step 7000
1  7.458002143552e+00   5.275324328991e+00  -1.627998312731e+01 
1 -3.680615601032e+01   1.884637114316e+01   5.244625154511e+00 
1  2.311274979574e+01  -1.165776018256e+01   1.066177605176e+01 
1 -4.597074447574e+01  -4.592962142847e+01  -2.134548753594e+01 
1 -8.322992144532e-01  -5.155830248666e+01   2.686631415012e+01 
1 -1.982206935951e+01   2.905120386483e+01  -5.266705458928e+00 
1 -2.190987272811e+01   6.919491950522e+00  -9.439431788317e+00 
1 -4.270404739416e+01   4.322404109775e+01   2.057976958569e-02 
8
Step 8000
1  1.078266178705e+01  -1.537394414207e+01  -1.189556645469e+01 
1 -4.656022951367e+01   3.600196765005e+01   1.451767182665e+01 
1  4.298461223344e+01   4.706232454161e+01   2.019278027883e+01 
1 -7.335364462857e+01  -2.897994057584e+01  -4.820084279872e+01 
1 -2.618043503963e+01  -1.621861924269e+01   1.868742053275e+01 
1 -4.630753858034e+01  -4.333213820452e+01  -4.423454768574e+00 
1 -2.374539959780e+01   6.704026048459e+00   1.844349922046e+01 
1 -9.284207793744e-02  -4.281878260273e+00  -3.556975817022e+00 
8
Step 9000
1  2.003590458745e+01  -4.243696356660e+01  -2.316912031958e+01 
1 -2.462801186819e+01   1.322837748259e+01   2.291264128901e+01 
1  3.750521174393e+01   5.701126915608e+01   7.269213048448e+00 
1 -3.955942046223e+01  -1.797915728174e+01  -5.599513367665e+01 
1 -2.095224072372e+01   9.589346109544e+00  -2.031212336992e+01 
1 -5.237743311977e+01  -7.714308044907e+01   2.418112584212e+01 
1  8.436201162392e+00  -9.409564715981e+00   2.866811251723e+01 
1  4.043772898114e+01  -3.722913776895e+01   2.224469638907e+00 
8
Step 10000
1  8.953869031569e+00  -3.694880251838e+01  -3.825065292172e+01 
1  4.901047015924e+00  -1.937472026286e+01   4.336548658881e+01 
1  2.124808275712e+01   3.088277790506e+01  -9.332422061062e+00 
1  6.545640917792e+00  -8.986623172285e+00  -4.204195279597e+01 
1 -7.901408426349e+00   1.704182173385e+01  -4.301784558616e+01 
1 -3.797368398487e+01  -5.312036847611e+01   4.115287146302e+01 
1  5.239817731299e+01  -2.162074067311e+01   1.051292116374e+01 
1  3.867273354099e+01  -1.009154067289e+01   2.151737450015e+01 
8
Step 11000
1 -2.812529975799e+01   9.077592675611e+00  -3.291452744944e+01 
1  1.467792753817e+01  -2.671556667874e+01   5.629631073989e+01 
1  4.517031394585e+00  -1.462596352759e-01  -1.072809961984e+00 
1  1.652492862201e+01   1.024225469775e+01  -1.346464755245e+01 
1 -6.008438794368e+00   1.931974230436e+01  -1.893938168763e+01 
1 -2.012292766707e+00  -5.948667877311e+00   1.563011036484e+01 
1  6.248757203652e+01  -1.770710502848e+01  -1.499316564890e+01 
1 -5.313954883732e+00   4.687371863850e+01   3.757237181673e+01 
8
Step 12000
1 -5.830067297801e+01   5.367160419931e+01  -2.333195784286e+00 
1  4.528844716666e+00  -1.361845401531e+01   3.922504092384e+01 
1  2.533210015013e+00  -1.511586763388e+01   2.719655460874e+01 
1  2.448362518018e+00   2.964619563789e+01   1.084241543166e+01 
1 -7.019397901353e+00   2.523078018864e+01   2.339331298602e+01 
1  3.341869415884e+01   2.121635109864e+01  -2.591903461532e+01 
1  2.171107524186e+01  -4.268146754096e+00  -2.539465943029e+01 
1 -5.035114598489e+01   6.551803699112e+01   2.754865262953e+01 
8
Step 13000
1 -4.745821047882e+01   5.126193393090e+01   3.376608084092e+01 
1  1.690080358229e+00  -2.475197976452e+00  -6.171029584653e+00 
1  6.314228589834e+00  -1.315696054718e+01   4.629587434832e+01 
1  6.242441699985e+00   3.012891513951e+01   1.801788057670e+01 
1  5.971787955166e+00   2.949806615627e+01   3.209794656803e+01 
1  5.034441038659e+01   9.080718972676e+00  -4.023685094588e+01 
1 -3.542087683387e+01   7.633215932560e+00  -2.073972524870e+01 
1 -5.526230468930e+01   2.425465030902e+01  -8.804038587434e+00 
8
Step 14000
1  1.592044432092e+00   3.126571836551e+00   4.809229431322e+01 
1  1.344269976347e+01  -1.360040654723e+00  -4.956375298992e+01 
1  1.532494900272e+00  -1.003746952073e+01   3.360422197753e+01 
1  3.435321056510e+01   1.483709234296e+01   1.603898986985e+01 
1  3.111113905384e+01   2.399990125735e+01  -5.539019581199e-01 
1  3.983588712587e+01  -1.107868796561e+01  -1.868728063475e+01 
1 -5.829792023777e+01   1.464026429185e+01  -1.477750356493e+01 
1 -1.788808233303e+01  -2.961221984920e+01  -4.283901502662e+01 
8
Step 15000
1  4.557055052406e+01  -4.418009057233e+01   3.507463295967e+01 
1  1.795928761513e+01   7.863872912205e+00  -5.575599461686e+01 
1 -1.782257816037e+01  -1.454005006250e+01  -2.124002653164e+00 
1  4.923446443931e+01   1.792498778350e+00   1.869428752064e+01 
1  4.627197488300e+01   4.431644983018e+00  -3.185117695451e+01 
1  1.586231980223e+01   4.369910158959e+00   4.244905951928e+00 
1 -3.226982483100e+01   1.798310516805e+01  -1.060035427342e+01 
1  2.834976627527e+01  -4.260984180697e+01  -4.381253981176e+01 
8
Step 16000
1  4.899163844572e+01  -4.698900067130e+01   9.434250388879e+00 
1  3.404853622344e+00   3.246305748814e+01  -2.291503859998e+01 
1 -3.281337737965e+01  -1.991296848564e+01  -3.371480457193e+01 
1  1.954636342970e+01   3.845307709595e+00   2.454748510257e+01 
1  3.162833926708e+01  -2.397261874851e+01  -2.407475658535e+01 
1 -4.262917917402e+00   4.989033428022e+01   5.010747130640e+00 
1  9.612120527896e+00   1.412050623337e+01   1.792332204474e+00 
1  5.054601339822e+01  -1.764621852674e+01  -1.217455565073e+01 
8
Step 17000
1  2.314821700698e+01  -9.929483598363e+00  -1.773790225849e+01 
1 -1.366247920356e+01   4.715190766912e+01   1.556632648541e+01 
1 -2.469641884685e+01  -1.429078081066e+01  -4.536601070817e+01 
1 -2.781549381896e+01   1.045297389018e+01   2.106660024489e+01 
1 -1.056576308609e+01  -4.105635416686e+01   1.999894000882e+01 
1 -1.349101695434e+01   7.155223016232e+01  -4.271886224800e+00 
1  2.457411064091e+01  -9.630709513486e-01   2.216177214800e+01 
1  4.134812827905e+01  -7.909444166564e-02   1.935280879733e+01 
8
Step 18000
1 -1.339568685371e+00   2.765376644672e+01  -3.461379292833e+01 
1 -9.879831646147e+00   2.299677062654e+01   2.561236963402e+01 
1 -4.642053937990e+00   6.179188832151e+00  -3.769441139474e+01 
1 -4.090216575602e+01  -4.861933602355e+00   3.705838863025e+00 
1 -4.272111244010e+01  -2.828663511322e+01   5.040233093542e+01 
1 -1.744589386813e+01   3.296400639772e+01   1.679723847002e+00 
1  3.075585140938e+00  -1.700001373157e+01   3.144568863697e+01 
1  1.689501964175e+01  -1.540602935250e+01   2.148828504184e+01 
8
Step 19000
1 -1.053625080361e+01   3.354253141484e+01  -2.960228771267e+01 
1  1.069065411454e+01  -3.297357623571e+01   8.374995620795e+00 
1  1.011785202888e+01   3.092394503063e+01  -1.977214721424e+01 
1 -1.602833641213e+01  -3.931384860940e+01  -1.065607835893e+01 
1 -3.898421581890e+01   5.636163766212e+00   3.155843517905e+01 
1 -1.974277130043e+01  -3.582974794797e+01   1.877028519168e+01 
1 -2.413725734736e+01  -1.624356297113e+01   1.449473509841e+01 
1 -6.296704833905e+00  -3.766524047760e+01  -1.196918011336e+00 
8
Step 20000
1 -1.739424222402e+01   9.328242886680e+00  -6.469261440062e+00 
1  1.912890203136e+01  -6.954582123283e+01  -8.085374346802e+00 
1  1.017224110112e+01   3.698554971288e+01  -2.467031733320e+00 
1  6.653099979304e+00  -4.951398918111e+01  -3.416259677079e+00 
1 -7.247312891824e+00   3.036079853126e+01  -1.538375004457e+01 
1 -1.546161795704e+01  -7.340081709800e+01   2.724677806029e+01 
1 -2.126056413872e+01   2.994053347668e+00  -1.509495894520e+01 
1 -2.260789266670e+01  -2.934886658424e+01  -1.745585370066e+01 
8
Step 21000
1 -3.360655059819e+01  -1.565652206052e+01   1.776631665520e+01 
1  2.591052974424e+00  -4.704710908410e+01  -6.079050463460e+00 
1  7.491116654674e+00   1.287173278994e+01   1.081807467303e+01 
1 -1.185137651702e+01  -3.785822688030e+00   1.115280763296e+01 
1  2.073733471438e+01   2.275627616490e+01  -4.519400284243e+01 
1  1.282456365530e+00  -5.745738683910e+01   2.576518131518e+01 
1  1.591097363972e+01   1.960935733302e+01  -2.688761180555e+01 
1 -2.914449946084e+01   1.081414250046e+01  -5.604628024137e+00 
8
Step 22000
1 -4.478473758786e+01  -2.059915157744e+01   2.513933983968e+01 
1 -1.682305430280e+01   1.124772286989e+01   5.244412714058e+00 
1  1.713764011929e+01  -2.427527499800e+01   2.403291774669e+01 
1 -5.020568487597e+01   6.692579936376e+01   6.064659996161e-01 
1  2.040873690760e+01  -7.096577843223e+00  -3.460087352391e+01 
1  2.066108483324e+01  -1.241777650503e+01   1.457446621700e+01 
1  5.178436665383e+01   1.156187027200e+01  -8.107310788263e+00 
1 -2.493493548317e+01   4.748944666189e+01   2.265575207428e+01 
8
Step 23000
1 -2.877957221522e+01  -1.504897985049e+01   1.069314405305e+01 
1 -1.352006067438e+01   5.165746519801e+01   1.608906643930e+00 
1  2.835032641685e+01  -4.124586333069e+01   3.677195756708e+01 
1 -4.862390012790e+01   9.216729767204e+01  -4.479004395406e+01 
1  3.560925837834e+00  -2.931914359661e+01  -5.581510599673e+00 
1  2.067222947888e+01   1.966127604135e+01   2.131870385853e+00 
1  4.550955539425e+01  -1.313004554712e+01   1.879071548296e+01 
1 -1.217313236483e+01   5.006236733534e+01   3.717421969899e+01 
8
Step 24000
1  6.322188196678e+00  -7.771382322274e+00  -1.510485053315e+01 
1  7.851632707583e+00   3.632892852595e+01  -1.369456030307e+01 
1  1.948423608976e+01  -2.567848921170e+01   4.016925154119e+01 
1  1.328092801326e+01   3.277416807073e+01  -8.611952614014e+01 
1 -6.184118585387e+00  -1.833183054248e+01   6.408958399252e+00 
1  2.861855787247e+00   2.238460640308e+01  -6.470104363227e+00 
1 -6.914562234096e+00  -2.466264631039e+01   2.318846717999e+01 
1  1.440620383956e-01   2.674572471550e+01   2.208725564718e+01 
8
Step 25000
1  3.594364563627e+01  -2.707553875245e+00  -3.307827212585e+01 
1  1.149459206044e+01  -1.168450010004e+01  -1.106617104958e+01 
1 -8.905312971795e+00   4.141654710595e+00   2.720669506635e+01 
1  7.717750265156e+01  -7.023710906775e+01  -6.142316666694e+01 
1  1.072491910034e+00   1.922786512259e+01  -8.498179807621e+00 
1 -1.045659541414e+01   1.320461961824e+01  -1.554968666873e+01 
1 -5.869775243032e+01  -8.455532891946e+00   3.871664755312e+00 
1  2.227867145938e+00   7.775061757867e+00  -7.983349011771e+00 
8
Step 26000
1  3.979109258845e+01   1.699565254025e+00  -2.819714881407e+01 
1 -8.750495214112e+00  -3.555397125718e+01   1.984187021979e+01 
1 -3.443728458770e+01   1.450550355200e+01  -1.723386834266e+00 
1  8.076088714724e+01  -1.158951038488e+02   2.227568688370e+01 
1  1.206931817744e+01   4.302632901228e+01  -1.505655592932e+01 
1 -6.068675755819e+00   1.164558476360e+01  -2.378562240726e+01 
1 -5.931158277248e+01   1.349275469557e+01  -1.245601079222e+01 
1 -2.869189338607e+00   4.403477251901e+00  -2.586548887815e+01 
8
Step 27000
1  2.992873399520e+01   8.920600284682e+00  -7.733048989513e+00 
1 -2.739823332080e+01  -1.880339672733e+01   5.365842051373e+01 
1 -3.238666250872e+01   5.671514012979e-01  -3.721876372049e+01 
1  2.616172263271e+01  -5.242754379656e+01   8.414085274039e+01 
1  5.370739866150e+00   3.019459732882e+01   8.788514832999e+00 
1  1.084992781951e+01   1.193372285165e+01  -1.847207804228e+01 
1 -9.623134847958e+00   9.425528353116e+00  -9.010900527554e+00 
1 -3.339186714642e-01  -4.994988775230e-01  -2.297563191144e+01 
8
Step 28000
1  3.091149870473e+01   9.769476477142e+00   1.574857059011e+01 
1 -1.548760448577e+01   1.779962989559e+01   3.870810972740e+01 
1 -1.482095935128e+01  -8.520198080743e+00  -5.825954023287e+01 
1 -2.005270287338e+01   5.416637948546e+01   6.939553929953e+01 
1 -2.270382253427e+01  -3.075661305740e+00   4.246952224894e+01 
1  1.656108912726e+01   3.512901027097e+00   1.851404471191e+00 
1  4.011733995579e+01  -1.652157644579e+01  -5.921375739774e-01 
1  1.607068591542e+01  -1.978740899203e+01  -1.219050904176e+01 
8
Step 29000
1  3.232015814906e+01   3.539068961822e+00   3.078873388745e+01 
1  1.873260245484e+01   3.129159086565e+01  -2.485965489335e+01 
1 -7.231454631332e+00   5.798961181214e+00  -4.436183299618e+01 
1 -1.631124923116e+01   9.981432750064e+01   1.303222324015e+01 
1 -4.878960498560e+01  -1.889308556310e+01   4.417150756826e+01 
1  6.587750833685e+00  -7.987536138340e+00   1.802611451189e+01 
1  4.577209509217e+01  -2.694839321594e+01  -5.237654896568e+00 
1  3.303257249230e+01  -4.021092213501e+01  -5.235866976422e+00 
8
Step 30000
1  9.528915224722e+00   2.790211635149e+00   3.250678968333e+01 
1  3.100229638441e+01   8.599782320959e+00  -7.236078565387e+01 
1 -9.171688805048e+00   2.354390153849e+01   1.149545412272e+00 
1  1.267877210822e+01   5.765863900366e+01  -1.193798691976e+01 
1 -3.942979284479e+01  -1.299951861175e+01   1.098623168464e+01 
1 -5.683436481705e+00  -5.735024686697e+00   1.029439195612e+01 
1  1.058364448490e+01   1.723883308893e+00  -1.638536340858e+01 
1  3.180638162294e+01  -4.042501783022e+01  -3.187686458740e-01 
8
Step 31000
1 -3.121509734891e+01   1.473830207488e+01   2.504346894309e+01 
1  5.972368759595e+00  -2.739349845626e+01  -6.353070795454e+01 
1 -7.844058065998e+00   2.151521243677e+01   5.207762285772e+01 
1  1.347898584087e+01  -1.796747212582e+01   1.192046953332e+01 
1  8.444671675408e+00  -5.912282460720e+00  -2.009776021770e+01 
1 -4.029166258850e+00   1.370318885239e+01  -1.032735442471e+01 
1 -2.361076191419e+01   4.679596960062e+01  -1.152225097795e+01 
1  1.079582078299e+01  -2.012859256020e+01   6.444385412512e+00 
8
Step 32000
1 -5.087103918205e+01   2.657704571341e+01   1.631961474302e+01 
1 -2.259354003449e+01  -4.553486501776e+01  -1.746192837264e+01 
1  7.119010306475e+00   6.780951492259e-01   6.688721629438e+01 
1 -2.343038873488e+01  -4.690058042152e+01   3.354651154196e+01 
1  6.486927728797e+01  -1.072601972279e+01  -2.197080845989e+01 
1 -2.453087408201e+00   3.097805667507e+01  -1.836895198222e+01 
1 -3.017321045154e+01   5.857348573930e+01   8.866735957786e+00 
1 -1.299345289127e+01   1.341667686462e+00   1.027281973220e+01 
8
Step 33000
1 -2.606553405075e+01   1.714441584865e+01   5.384689701358e+00 
1 -1.980534584612e+01  -3.074059793666e+01   1.617016923299e+01 
1  2.351978462797e+01  -1.633118541340e+01   3.642679819547e+01 
1 -4.994138819070e+01  -1.189610341001e+01   1.270596741013e+01 
1  8.234548499015e+01  -2.003983686743e+01  -9.901732258832e+00 
1 -2.217062630136e+01   3.048906448155e+01  -1.174978362759e+01 
1 -1.134122205258e+01   1.962518882962e+01   1.875261130087e+01 
1 -2.407537526807e+01   9.250775758126e+00   4.287364790975e+00 
8
Step 34000
1  1.357791826006e+01  -9.680786501930e+00  -1.659759618674e+01 
1  1.203739078409e+01  -4.863589642399e+00   1.734346838133e+01 
1  1.653729499653e+01  -2.796221760168e+00  -1.394730115148e+01 
1 -2.759297390043e+01   3.062108366095e+01  -3.108590034336e+01 
1  3.913417080620e+01  -1.188920014836e+01  -1.374345232212e+01 
1 -4.196545531763e+01   4.640294894902e+00   6.453106845643e+00 
1  1.180648472266e+01  -3.653339935198e+01   4.671556185963e+00 
1 -2.162477304672e+01   7.065653492203e+00  -6.735226248849e+00 
8
Step 35000
1  2.538802150580e+01  -3.419467141799e+01  -3.612919784884e+01 
1  4.064816349054e+01   1.000015704767e+01  -9.485043475315e+00 
1 -2.231168498320e+00   2.398091891822e+01  -2.988945146153e+01 
1  2.323531478838e+01   2.349174596600e+01  -4.929425747458e+01 
1 -2.857245811923e+01   1.365100894724e+01  -2.756138662174e+01 
1 -4.301738868470e+01  -3.080010586413e+01   1.758334854265e+01 
1  2.211369856040e+01  -5.918337036960e+01  -1.219003729016e+01 
1 -1.606383705867e+01   8.725244188650e+00  -7.497816393608e+00 
8
Step 36000
1  6.935529802155e-01  -3.452626936698e+01  -4.814526420376e+01 
1  4.052321553887e+01   1.067668932768e+01  -2.284586767617e+01 
1 -6.930958474801e+00   1.809741026865e+01   5.480724147534e+00 
1  4.709960031266e+01  -2.528410381139e+01  -3.037653685858e+01 
1 -7.047294388251e+01   2.762930218264e+01  -2.604045086610e+01 
1 -1.411757305005e+01  -4.912761654969e+01   1.323631538959e+01 
1  2.092609344902e+01  -3.241869360182e+01  -1.735456474642e+00 
1 -1.269817797726e+01   1.867489027540e+01   5.537373570630e+00 
8
Step 37000
1 -2.560282007651e+01  -6.507690303526e+00  -4.568400125773e+01 
1  9.155638164797e+00   8.080630760660e+00  -8.562632519882e+00 
1  1.131618172206e+01  -3.168171733483e+01   4.472009229947e+01 
1  2.253328888038e+01  -5.739177462422e+01  -5.886595312017e+00 
1 -6.193567028761e+01   1.114506047306e+01  -4.825391103555e+00 
1  2.418041172435e+01  -4.286306212794e+01   7.383841553245e+00 
1  7.446316385525e+00   1.210729928870e+01   2.844041074843e+01 
1 -7.672148117312e+00   2.765311559768e+01   2.047393178934e+01 
8
Step 38000
1 -2.242445242101e+01   2.138614915914e+01  -2.354603259849e+01 
1 -2.683916909439e+01   1.199690944364e+01   1.616902040356e+01 
1  2.368173968697e+01  -7.517926564265e+01   3.615529286120e+01 
1 -1.341320568872e+01  -3.438927455076e+01  -1.153666773964e+00 
1 -2.310058720164e+01  -1.883838815753e+01   1.287397305926e+01 
1  3.279980009593e+01  -2.029258545155e+01   5.726820333343e+00 
1 -1.677420605808e+01   2.866807768081e+01   3.619454860174e+01 
1  1.801763661626e+00   2.521034297922e+01   2.255141753802e+01 
8
Step 39000
1  8.214202481194e-01   1.941912321800e+01   1.179329870287e+01 
1 -4.022057432338e+01   1.693271187861e+01   3.051017359883e+01 
1  5.121779228404e+00  -5.709867559677e+01  -1.039442193826e+01 
1 -1.949266383447e+01   2.077379795326e+01  -1.270503269569e+00 
1  8.851770971637e+00  -2.860012885647e+01   1.235864680544e+01 
1  8.529911879349e+00   5.606976196327e+00  -4.139415559668e+00 
1 -4.065069506472e+01   7.385652635523e+00   8.749759407479e-01 
1  1.255835121054e+01   9.263094560833e+00   7.672765748778e+00 
8
Step 40000
1  1.152508830930e+01  -6.287818828071e+00   4.454048464744e+01 
1 -2.671746705855e+01   7.785900014410e+00   3.136172707467e+01 
1 -3.105146926733e+01   1.495733103446e+01  -3.913803710531e+01 
1  4.295396027814e+00   5.599233505386e+01   1.509326695634e+01 
1  2.029549765862e+01  -6.221431834948e+00   9.181351368337e+00 
1 -1.060204929858e+01   2.811997051491e+01  -2.871934568947e+01 
1 -3.824270318973e+01  -2.658180570448e+01  -4.522307233830e+01 
1  1.892463110031e+01  -1.094118828691e+01  -1.190084885598e+01 
8
Step 41000
1 -2.773494368942e+00  -2.381876600755e+01   6.294757231735e+01 
1 -7.256278364531e+00  -1.459087342621e+01   2.266177396841e+01 
1 -3.968489326627e+01   7.317350506599e+01  -2.540866616797e+01 
1  3.006865308525e+01   4.291841738720e+01   3.475613802102e+01 
1  2.248153754367e+01   2.539155681700e+01   2.406912201103e+01 
1  7.119172757275e+00   4.141357179795e+01  -4.618400976112e+01 
1 -1.684078670956e+00  -3.024687889522e+01  -5.065652210460e+01 
1  1.902804335701e+01  -2.192871354905e+01  -2.325110998175e+01 
8
Step 42000
1 -1.703543910570e+01  -9.225662871760e+00   5.243419362980e+01 
1  1.740330304595e+00  -2.962547365657e+01   7.353061094261e+00 
1 -1.256031874746e+00   6.777078528284e+01   1.430968209733e+00 
1  2.908821235500e+01  -1.095171107082e+00   2.958860481512e+01 
1  2.599904989665e+01   3.570363933386e+01   4.267276443944e+01 
1  4.044409273445e+01   4.084743616982e+01  -2.824026404990e+01 
1  4.120995194510e+01   1.124284007634e+01  -7.808312664767e+00 
1  1.438673122315e+01  -1.834699687349e+01  -2.322701367937e+01 
8
Step 43000
1 -3.128575285035e+00   2.678195377045e+01   1.171774175357e+01 
1  5.234876065624e+00  -2.416245746831e+01  -4.670260190049e+00 
1  4.412488194648e+01   1.848957724122e+01  -1.103701151047e-01 
1  3.152349218423e-01  -3.663302082933e+01  -1.757943198380e-01 
1  2.424220204364e+01   1.983230210228e+01   2.798506220776e+01 
1  3.706754439403e+01   2.773803814149e+01   1.813160435586e+01 
1  5.041806593365e+01   6.574284422938e+01   3.311649510929e+01 
1  5.496503189777e+00  -8.660192328336e+00  -1.410041790945e+01 
8
Step 44000
1  2.963972071472e+01   4.558079610478e+01  -3.345017430792e+01 
1  7.059761438778e+00  -1.229142232392e+00  -8.906778926837e+00 
1  4.573309907031e+01  -2.437367354334e+01  -2.273023490291e+01 
1 -2.352559731351e+01  -3.620601557907e+01  -1.982046920348e+01 
1  8.609279463187e+00  -3.506741798704e+00  -2.472467734319e+01 
1 -1.640605773647e+01   1.003340192936e+01   4.872786168205e+01 
1  1.581672151613e+01   7.964698065926e+01   2.686468369890e+01 
1 -6.096196586057e+00  -7.987435238514e+00   9.714676544784e-01 
8
Step 45000
1  4.571817185607e+01   2.253764163907e+01  -5.005758304985e+01 
1  6.590753661542e+00   2.303008796638e+01  -6.999787812094e+00 
1  7.981513805176e+00  -4.230844996821e+01  -2.629249253782e+01 
1 -2.028746334582e+01  -3.249240276426e+00  -5.947323443723e+00 
1 -1.168985041521e+01  -1.797310487552e+01  -6.849790562185e+01 
1 -6.813620002724e+01  -4.130010916541e+00   3.303582663367e+01 
1 -2.755414300803e+01   3.298928797272e+01  -9.175454396119e+00 
1 -1.551535817398e+01  -2.041604772369e+01   1.545104976465e+01 
8
Step 46000
1  2.821950460315e+01  -2.556449835018e+01  -2.969067806007e+01 
1  9.779618334895e+00   2.780498999595e+01  -9.917843917651e+00 
1 -2.818844318884e+01  -3.763436503271e+01   7.815530853964e+00 
1 -4.437892782135e+00   3.380696919645e+01   1.835753542486e+01 
1 -1.781616085276e+01  -2.265128516603e+01  -5.670478456698e+01 
1 -5.651144077993e+01  -1.668350253062e+01  -6.541006178737e+00 
1 -3.635943302137e+01  -3.652476737119e+01  -2.141321225908e+01 
1 -1.567679334462e+01  -3.047568096107e+01   1.980271549216e+01 
8
Step 47000
1 -8.904898208704e+00  -5.441518813690e+01   9.883610960070e+00 
1  1.768221815575e+01   1.867769312910e+01  -2.967503480196e+01 
1 -3.067720294201e+01  -2.313303663955e+01   4.379745849287e+01 
1 -1.242330244270e+00   4.666659479956e+01   1.307934510673e+01 
1 -4.235748252086e+00  -1.932258137080e+01   4.041045746913e+00 
1  1.064781949042e+01  -3.090047960159e+01  -2.217135961912e+01 
1 -7.172229069693e+00  -7.253549528666e+01   6.166345549862e+00 
1 -7.491308602580e+00  -1.756621088720e+01   1.075754540679e+01 
8
Step 48000
1 -3.903352112124e+01  -3.837462280402e+01   3.657622149384e+01 
1  2.342037297912e+01   7.775200845100e+00  -5.192043755364e+01 
1 -7.957999659884e+00  -2.392265237065e+00   3.801835134488e+01 
1 -1.991877282994e+01   3.130873532741e+01  -2.799265704447e+01 
1  1.457431667632e+01  -9.082784047153e+00   5.563370789861e+01 
1  6.121110906977e+01  -3.749537224232e+01   1.583115408286e-02 
1  2.212789142225e+01  -5.480696349691e+01   3.720880953257e+01 
1 -2.639545308302e+00   1.828579572626e+01  -2.917232304268e+00 
8
Step 49000
1 -4.514417339370e+01   7.412061202010e+00   2.790835788929e+01 
1  1.309628843623e+01  -3.545471885222e-01  -4.382970718612e+01 
1  1.495858876575e+01   2.096382106952e+01  -1.650652176168e+00 
1 -4.936391245515e+01   3.263642813262e-01  -7.199544871181e+01 
1  2.682876498219e+01  -2.847943399609e-01   6.234679237285e+01 
1  4.166075955860e+01  -2.725414464589e+01   2.820685624579e+01 
1  1.954282326089e+01  -1.458057482827e+01   2.999960505409e+01 
1 -9.755405853498e+00   5.123130127425e+01  -7.760357760299e+00 
8
Step 50000
1 -3.298631535424e+01   3.778093198283e+01  -5.895122818023e+00 
1 -1.285194394221e+01  -7.608221164251e+00   6.272580978428e+00 
1  2.094579322634e+01   3.098903366875e+01  -2.463107006318e+01 
1 -5.025413220850e+01  -3.915820424945e+01  -7.370129529379e+01 
1  1.861794053858e+01   4.602094509246e+00   2.911301569915e+01 
1 -2.090219502335e+01  -2.696511955612e+00   2.456645660245e+01 
1 -5.465427544765e+00   9.354135099627e+00  -6.198730477270e+00 
1 -1.396899360529e+01   5.209394379490e+01  -9.645192546064e-01 
8
Step 51000
1 -1.152285176373e+01   2.691581650335e+01  -3.254524291236e+01 
1 -3.844408288823e+01  -1.496215087429e+01   6.696141580872e+01 
1  1.596255193150e+01   1.040828668063e+01  -7.422006879537e+00 
1 -1.874565607557e+00  -6.563242104100e+01  -3.012004734531e+01 
1 -5.826184187466e+00   1.954120001803e+00  -1.463120556521e+01 
1 -5.553294952129e+01   1.545605873266e+01  -2.193662408328e+00 
1 -1.805095427086e+01   1.220685125083e+01  -2.574690287179e+01 
1 -5.406525578904e+00   2.766097655028e+01   5.437045199322e+00 
8
Step 52000
1  1.425383061922e+01  -5.897390359220e+00  -3.446994151039e+01 
1 -4.274747480523e+01  -1.620281198014e+01   9.446535811889e+01 
1  1.422962025252e+01  -2.765579765411e+01   2.188005578701e+01 
1  5.493028897684e+01  -4.692428784732e+01   1.295428329074e+01 
1 -3.433739321173e+01  -5.743432319721e+00  -3.530026904070e+01 
1 -2.742212397639e+01   1.586515475994e+01  -2.277219241699e+01 
1 -5.298895006695e+00   1.521670128381e+01  -1.176044066134e+01 
1  1.466383148864e+01   1.766451746770e+00   3.271832868717e+00 
8
Step 53000
1  2.847515555855e+01  -2.293392607867e+01  -2.319200080654e+01 
1 -1.695919291241e+01  -8.797383357726e+00   7.253935228397e+01 
1  1.394507922706e+01  -3.849949233913e+01   2.143628232077e+01 
1  6.448665456906e+01   1.263953380886e+01   2.356540663527e+01 
1 -4.773471846412e+01  -1.269973816371e+00  -2.507987305837e+01 
1  2.897252282327e+01   6.914304384428e+00  -2.084115407287e+01 
1  1.056354395528e+01   2.618691496241e+01   4.193411896772e+00 
1  2.924488341307e+01  -1.206864547841e+01  -3.188813508531e+00 
8
Step 54000
1  2.705987935403e+01  -9.639315485619e+00  -1.112451484292e+01 
1  2.084366922986e+01  -1.330010218815e+00   2.023150910559e+01 
1  7.929805784279e+00   8.543212198921e-01  -1.355165829871e+01 
1  1.651298671759e+01   7.193840788252e+01   2.063879510705e+01 
1 -3.371015347255e+01   1.521558681181e+01  -6.616673550842e+00 
1  5.386278932014e+01   7.899656333912e+00  -7.833515874230e+00 
1  5.675544008025e+00   2.688629430278e+01  -8.932813837782e+00 
1  2.382809894107e+01  -2.485035350157e+01  -2.885111929421e+00 
8
Step 55000
1  1.671058552619e+01   1.500842885172e+01   4.835118636876e+00 
1  4.338897921373e+01  -1.642476902977e+00  -3.397487545340e+01 
1 -1.090437836962e+00   5.055940316757e+01  -4.473682340915e+01 
1 -4.271067875311e+01   8.088911335613e+01   3.096803495714e+01 
1  7.923328515582e+00   2.219887057344e+01   2.181457745024e+00 
1  3.270440626367e+01   2.148482855147e+01  -1.089151010121e+00 
1 -1.294062378162e+01   3.083796861944e+00  -3.461257534848e+01 
1  1.151972476095e-01  -4.282652296434e+01   4.356306568485e+00 
8
Step 56000
1  6.277970155088e+00   2.310124823324e+01   1.969812289546e+01 
1  4.213391093985e+01  -1.135121492300e+01  -6.948463126267e+01 