8
Step 0
1 -2.085286265275e+01   6.292774221803e+01   4.528091614985e+01 
1  7.223371578599e+01  -7.160191957723e+00  -4.811401682497e+01 
1  3.521294812006e+01  -5.574803034824e+01   6.932730076890e+01 
1  5.834431226767e+01   3.413925235964e+01  -3.833126681060e+01 
1 -5.863304183448e+01  -3.561420874390e+01   7.616396741191e+01 
1  7.540330238677e+01  -3.575458675880e+01  -1.940912708350e+01 
1 -7.609144493216e+01   6.472004551485e+01  -6.113465809600e+01 
1 -1.136950171554e+01   5.790460616002e+01  -3.822221383630e+01 
8
Step 1000
1 -1.178777514459e+00  -1.716735275880e+01  -1.995469026198e+00 
1  3.376510797808e+01   2.200441845898e+01   2.440990120288e-01 
1 -7.759838661648e+00  -3.783314425142e+01   1.379252866748e+01 
1 -2.347360070775e+01   6.396065411607e+01  -1.064940055148e+02 
1  1.139474317547e+01  -3.457398160146e+01   1.587137633302e+01 
1  3.002371481596e+01  -3.361686740170e+01   4.022464951699e+01 
1  5.337165331503e+00   5.175108738078e+01   1.183499452901e+01 
1  5.453883435176e+01   3.954561504726e+01   4.411362740563e+00 
8
Step 2000
1  1.634890849901e+01   3.075637713981e-01  -1.154920658970e+01 
1  1.065138032699e+01  -2.777858948125e+01  -1.531853820045e+00 
1 -6.092148348098e+00  -4.201726163787e+01   7.162151803254e+00 
1 -1.588378658814e+01  -2.996352094757e+01  -4.450163026916e+01 
1  7.062843492932e+01  -2.299507551562e+01   2.205713473433e+01 
1 -1.944874744730e+01   1.425209469825e+01   3.262507398126e+01 
1 -1.649869567836e+01   8.897287012244e+00  -2.291427568835e-02 
1 -3.249090023707e+01   4.363792535785e+01  -2.716019422411e+01 
8
Step 3000
1  5.527860041163e+01   1.706074124186e+01   3.312002924195e+00 
1  2.087193958289e+01  -1.488695616537e+01  -4.796878966394e+01 
1 -9.378993978458e+00  -2.038715002298e+01  -1.649425781378e+01 
1  2.701128781703e+01  -1.892300894055e+01   7.009714988053e-02 
1  2.089505321578e+00  -1.540435702773e+00   1.456922989924e+01 
1  3.633708665660e+01   6.925068555540e+01   3.734118573576e+01 
1  3.966083095933e+01   1.852542988044e+00   1.363496272135e+01 
1 -1.180009986155e+01   3.336305728153e+01  -3.496868256766e+01 
8
Step 4000
1  5.719205927868e+01  -1.090031563880e+01   2.942595739441e+00 
1 -4.573758575843e+00  -2.699920324341e+01   2.468222188693e+01 
1 -1.902295569256e+01  -3.437695620512e+01  -9.202215760235e+00 
1  6.269915936279e+01  -3.753729171538e+00   2.992680279147e+01 
1 -3.768544932899e+01   8.274634554287e+00  -3.044047200049e+01 
1  2.424929664108e+01   1.985043896958e+01  -6.254246524243e+00 
1 -2.827274321892e+01   1.083894794396e+01  -1.718794798323e+01 
1  2.468112581224e+01   2.117212164327e+01  -1.609234413928e+01 
8
Step 5000
1  2.366487730909e+00  -4.407588157302e-01  -5.331030280590e+01 
1  3.958385855627e+01  -2.002657799996e+01  -5.235426670220e+00 
1  3.748788804842e+01  -4.164424914836e+01   1.196559759960e+01 
1 -1.777046472038e+01  -2.189727836366e+01  -5.840863339871e+01 
1 -1.736940500991e+01  -2.896957570052e+01   2.470516049586e+00 
1  1.516426610032e+01  -1.968957145593e+01   2.801694592788e+01 
1 -1.392067621697e+01   4.696665233831e+01   1.164740743908e+01 
1 -1.429915972118e+01   4.374130128021e+01  -5.765215663894e+00 
8
Step 6000
1 -1.086518997658e-01  -3.373878843451e+01  -1.917570967779e+01 
1  2.965000417229e+01  -4.014895295929e+00  -2.374722761620e+01 
1  6.174003932605e+00  -6.269519876925e-01   4.687265806610e+01 
1 -1.641891058604e+01   4.173715476503e+01  -2.382511274464e+01 
1 -4.321645114477e+00  -1.870224511417e+01  -1.609678147643e+01 
1 -1.270684488938e+01  -3.418963909232e+01  -9.260293409659e+00 
1  2.060258687617e+01  -1.726521299035e+01   7.851557080229e+00 
1 -1.647015650859e+01   5.098870999498e+00  -7.176163122062e+00 
8
Step 7000
1  2.633765147367e+01   9.999619720303e+00   2.485599708699e+01 
1  4.518223891505e+01  -2.642401898707e+01  -7.252574025272e+01 
1 -3.789012959588e+01   2.070843951883e+01   6.858297030901e+00 
1  8.829510451731e+00  -1.609057959709e+01   6.271526844730e+01 
1  4.399145439009e+01   2.365653563576e+00  -2.231596922788e+01 
1 -2.694423928582e+01   2.447564019292e+01  -1.479748480273e+01 
1 -1.860560459512e+01  -1.260506290403e+01  -1.160836316403e+01 
1 -1.469611757759e+01  -5.672299089839e+00  -2.379033189301e+01 
8
Step 8000
1  4.320524583752e+01  -1.854392987473e+01   1.293422291007e+01 
1 -2.939568913057e+01  -9.077429390696e+00  -1.942925329179e+01 
1 -4.057707792400e+00   8.110127238581e+01   6.841543355950e+00 
1 -2.215010105994e+00   3.422206873315e+00   2.323783102543e+01 
1  1.911470664159e+01   1.968161009102e+01  -4.413051994563e+01 
1  1.164174084239e+01  -1.773748052909e+01  -2.583080854360e+01 
1 -1.506065799176e+01  -1.914922150825e+01  -8.027323255604e+00 
1  1.327770617655e+01  -2.512816887835e+01  -7.067457064133e+00 
8
Step 9000
1  5.595217823800e+01  -3.935219283377e+01  -2.102963248392e+01 
1 -6.053269282874e+01   3.740485156534e+00   1.388521894408e+01 
1 -2.282908939854e+01  -7.923124184415e+00  -5.968556897988e+01 
1 -3.460484951107e+01  -1.133704280998e+01   1.640403656377e+00 
1 -2.402405369723e+01  -9.900852668451e+00   5.067034564302e+00 
1  2.207240462164e+01  -5.154584344377e+01  -7.995916127216e+00 
1 -5.226255814020e+01  -1.907272397998e+01  -3.382081937283e+00 
1 -1.047536321563e+01   1.084553693094e-02  -3.609575117808e+00 
8
Step 10000
1  9.835123123460e+00  -4.441007524639e+01  -3.542162287461e+01 
1 -4.767981027837e+01   4.199394149373e+01   3.523237264226e+01 
1  1.843930420459e+00   5.572674866484e+01  -2.878377611145e+00 
1  2.083484353482e+01   2.090001108724e+01  -3.276816897984e+00 
1 -1.315111259819e+01   1.189308892946e+01  -3.053158111654e+01 
1  2.201130921645e+01  -8.596540257363e+00   3.305075283335e+00 
1  2.764100559672e+01  -5.913119955996e+01   2.752657472690e+01 
1  1.570830019598e+01   1.092527128363e+01  -1.627119790333e+01 
8
Step 11000
1 -1.364531843943e+01  -2.457767598857e+01   2.088100597698e+01 
1 -2.351197611519e+01  -4.002737273304e+00   3.733341851506e+00 
1 -6.761172662470e+01   4.224507279477e+01  -4.962555498691e+00 
1  1.396147212158e+01   1.613927993458e+01   3.672011778788e+01 
1 -4.033427890069e+00   3.092207691324e+01  -2.255120708512e+01 
1 -5.622650154983e+01   1.195892332868e+01   6.575002919512e+00 
1  3.833274300139e+01  -5.741711156291e+01   1.153997884441e+01 
1 -3.299990807474e+00  -4.104568808352e+01  -5.075983812668e+00 
8
Step 12000
1 -7.741911727401e+01  -3.576007523191e+00   1.742869078098e+00 
1  1.146425245157e+01  -8.827654582091e+00  -2.484038978503e+01 
1 -3.770962944905e+01   2.828502028273e+01  -1.578219379785e+01 
1  4.661707073015e+01  -2.309862734931e+01   5.078243786684e+01 
1 -6.439401452221e+00   3.506227432410e+01  -3.423794202288e+01 
1 -1.680683585815e+01  -2.347010745431e+01  -2.554096295311e+01 
1  3.830975453773e+01   2.602172709491e+01   2.770222556862e+01 
1  2.716235959130e+01  -4.504533450135e+01   5.696894970329e+01 
8
Step 13000
1 -3.978767947562e+01  -4.559536048941e+01  -1.156851215209e+01 
1 -4.043429287321e+01  -9.315381511049e+00   4.893121114295e+00 
1  1.806526686705e+01   2.236560442949e+01  -3.808646790691e+01 
1 -4.008471770035e+00   1.272688205020e+01  -1.358211059140e+01 
1 -6.319251095757e+01   1.036846866105e+01  -2.191762870308e+01 
1 -2.802930397872e+00  -7.881276773920e+01  -1.279872967129e+01 
1 -1.401799680629e+01  -4.532365971354e+01   5.013819743809e+01 
1  2.115539800417e+01  -2.672330359811e+01   5.358383361735e+01 
8
Step 14000
1 -4.340830671699e+01   3.176319225976e+01  -5.543392852761e+01 
1 -3.889893717020e+00  -1.740056751831e+01   4.898404950902e+01 
1  3.613533223266e+01  -1.754367650404e+01  -3.256036890064e+01 
1 -2.865279791520e+00   3.105986780992e+01   3.967292435810e+01 
1  2.518328934295e+01   7.408432430738e+00   3.089406209123e+01 
1  9.498104847314e+00  -2.183677719314e+00   2.169605190123e+01 
1  3.987221307143e+01  -3.887187341923e+01   2.382279423216e+01 
1  1.835859103479e+01   3.339464260403e+01   5.175122514244e+01 
8
Step 15000
1 -5.085411501916e+01   1.813686928363e+01  -2.104898921224e+01 
1 -2.873616266949e+01   3.773996798794e+01   5.172526339667e+01 
1 -3.649975479566e+00  -2.444392952608e+01   4.913026337290e+00 
1  5.453302481766e+01   1.081623251617e+01   5.080829470755e+01 
1  2.823124343278e+01   2.771533054644e+01   8.258681684016e+00 
1 -3.306167826734e+01   1.235569545017e+01   1.377506533312e+01 
1  2.226544022846e+01  -5.427318477275e+01   1.105503721038e+01 
1 -1.756670270889e+01  -1.898927676649e+01   3.769427264308e+01 
8
Step 16000
1  4.040398699207e+00   4.958455195069e+01   1.086400359599e+01 
1 -1.917890767885e+01  -9.892939254376e+00  -2.105136947467e+01 
1 -3.959009159742e+01  -3.834613169409e+01   2.434646790280e+00 
1  2.106386361459e+01  -5.856920434337e+01   7.305564116760e+01 
1  1.258713639604e+01   1.817278621242e+01   2.546094773219e+01 
1 -1.917325274073e+01   1.980603947176e+01   1.489856822285e+01 
1 -2.993121973711e+01  -1.518485623778e+01   1.707439009322e+01 
1  1.561497376156e+01  -7.033313533136e+01  -4.048805333035e+01 
8
Step 17000
1 -1.331990490243e+01   9.455342960776e+00  -9.445380539203e+00 
1  3.883876279761e+01   2.551688973881e+01  -1.276000349266e+01 
1  9.799522775161e+00   4.011317543935e+01  -2.708836612167e+01 
1  2.044722568631e+01  -4.878163777992e+01   4.668167073514e+01 
1  1.904903243979e+01  -2.721068769696e+01   1.781829769245e+01 
1 -1.878805446179e+01  -2.547653962877e+01   3.302215714909e+01 
1 -1.430565438291e+01   2.742416550804e+01   5.910822890877e+01 
1  3.408520232741e+01  -1.710567610304e+01  -2.333549938890e+01 
8
Step 18000
1 -1.000576723411e+01  -4.612991855444e+00  -3.520051125384e+01 
1 -1.639672342309e+01   4.323729007132e+01   2.800757727071e+01 
1  4.441961272388e+01  -9.919671595282e-01   1.114775756367e+01 
1 -1.062593256522e+01  -2.133772725539e+01   2.665616534788e+01 
1  2.734970951378e+00   2.965155096078e+01   2.537174578165e+01 
1  1.382573363979e+01  -4.636833361726e+01   2.660757372986e+01 
1 -4.143903848597e+00   1.088278166877e+01   1.754400899886e+01 
1 -1.776180289892e+01  -2.898479977112e+00   1.490270369351e+01 
8
Step 19000
1 -2.790887064043e+01   5.363282342617e+01  -2.152875260016e+01 
1 -4.864071123202e+00   1.040480630156e+01   2.800796173741e+01 
1  5.388343570150e+01  -2.161251052461e+01   1.878780739165e+01 
1  1.322926461786e+00   1.964971129760e+01  -1.471542238112e+00 
1  6.990814244833e+00  -3.401724142434e+00   2.206589720236e+01 
1  2.738871859243e+01  -3.091475750437e+00   1.563469382272e+01 
1  5.243619220896e+00  -7.449943752046e+00  -8.426785097990e+00 
1 -2.734291042713e+01   7.358254533879e+00   6.086438170544e+00 
8
Step 20000
1  2.150178474417e+01   2.243021659261e+01   3.007103450385e+00 
1  1.496028771054e+01  -3.967664665942e+01   8.549604180486e+00 
1 -4.471836006866e+01  -3.010779861323e+01  -3.403039133195e+01 
1 -5.449940827501e+00  -1.459435831160e+01  -1.198675508074e+01 
1 -1.048755976891e+01  -2.466281040190e+01  -3.804096336869e+01 
1 -7.823153812951e+01   4.872973221395e+01  -1.051958648966e+01 
1 -1.705462591406e+01  -5.520623215874e+01  -5.772118080979e-01 
1 -1.201062732860e+01  -2.784205891240e+01   1.751186742077e+00 
8
Step 21000
1  3.505762518419e+01   6.753481447171e+00   2.401955093714e+01 
1  2.086177958564e+01   7.580152432243e+00  -7.403043507062e+01 
1  1.006103238933e+01   6.166207167444e+00  -1.349481016358e+01 
1 -3.911370184008e+01   1.837814125623e+01  -8.120525118619e+00 
1  9.823757086437e+00   2.290921959370e+01  -3.729346569516e+01 
1 -4.390969896237e+00   3.029147639858e+00   3.449827518754e+01 
1  2.224800446118e+01   2.175460470821e+01   3.541162564340e+01 
1  2.902132005645e+01   6.577102125247e+00   1.429901082341e+01 
8
Step 22000
1 -7.354769860546e+00  -2.626310448245e+01   1.793892995165e+01 
1  1.054739791398e+00   1.215329674103e+01  -1.848105708882e+01 
1 -2.869700243156e+01   1.381809366839e+01  -1.085797136123e+01 
1 -7.000674186848e+00  -1.174975855335e+01  -1.444464281630e+01 
1 -2.665801993434e+01   3.189207092703e+01  -1.405953583685e+01 
1  2.991399317843e+00  -1.244122244606e+01   6.717359466978e+00 
1 -2.667800705683e+01   5.656352805858e+01   4.136823380806e+01 
1 -1.552990623563e+01  -2.123550223883e+01  -3.039132220893e+01 
8
Step 23000
1  2.100301201866e+01   1.938195010389e+00   1.438151849121e+00 
1 -2.895619463156e+01   1.691747619700e+01   4.013539388174e+01 
1 -2.821943806963e+01   2.180335232400e+01  -5.197289042126e+01 
1  6.482382332582e+00   3.659989659742e+00  -3.505344492643e+01 
1  1.035074269984e+00   3.193172404613e+01   3.393481912479e+01 
1 -8.773940276140e+00   1.973305874072e+01  -3.410527873621e+01 
1  7.210922851783e+00  -1.168306972640e+01  -1.089673895338e+01 
1 -1.399209175533e+01   2.938413359799e+00  -2.819047187774e+01 
8
Step 24000
1  2.761626561193e+01   1.353940213845e+01  -3.939909657181e+00 
1  2.584506209422e+00  -1.441649095710e+01   1.324803569061e+01 
1 -1.226573705686e+01  -4.564222942722e+01  -4.422424784242e+01 
1 -7.537929981281e+01   8.639189854406e+00  -5.036065525731e+01 
1 -2.053898731636e+01  -2.196397684473e+01   2.245851672938e+01 
1 -4.745978264048e+01   2.551727614561e+00   1.196635916250e+01 
1 -9.619342462643e+00  -5.268503909814e+00  -2.925037990655e+01 
1 -5.092936316518e+01   5.459327613804e+01  -2.784922338675e+01 
8
Step 25000
1  2.973318635150e+01  -1.963261506332e+01   2.669639998560e+01 
1  3.043941867098e+01   2.149810759908e+01  -1.023608106160e+01 
1 -2.528303024553e+01   5.704102461650e+01  -4.126303855559e+00 
1 -6.120209040833e+00   3.158035366845e+01   1.577954193724e+01 
1 -1.050352899645e-01  -6.889873445770e+01  -2.490282647247e+00 
1 -9.718331974797e-01   1.891878412930e+01   4.689432157449e+00 
1 -1.469424833920e+00   4.965908508359e+01   2.112696013651e+00 
1 -1.225537590363e+01   5.362495277921e+01   1.908515888542e-01 
8
Step 26000
1 -4.714939881786e+01  -2.132091610634e-01   8.606209446153e+01 
1  4.913088325587e+00   2.936081103037e+01  -5.727472512726e+01 
1 -2.141092951346e+00   5.369612986694e+01   6.595401796968e+01 
1  1.425792606289e+00  -5.786252411841e+00   8.297675215935e+00 
1 -9.020007301187e+00  -4.084515156517e+01   2.025744282951e+01 
1 -2.290270117554e+01  -3.679259722072e+01   8.785004025760e+00 
1 -1.058129346047e+01   1.030608929426e+02  -3.070604339762e+01 
1  2.845411219232e+01   5.118467798056e+01  -2.905147626950e+01 
8
Step 27000
1 -1.741935047712e+00  -1.178423673853e+01   8.749086888545e+01 
1 -2.099439134015e+01   2.869977028463e+01   1.833408010625e+01 
1 -1.978366904316e+01  -3.091648586564e+01   3.444546318479e+01 
1  9.162778265955e+00   5.412124682771e+00  -9.945212266216e+00 
1 -1.547027717189e+01   8.032197544870e+00   8.884820301641e+00 
1 -3.693719458793e+01  -6.446924579483e+01  -3.639695724582e+01 
1 -1.390575303933e+01   2.887107106068e+01  -6.005015756893e+01 
1 -3.416813283151e+01   3.263342643681e+01  -4.304427637798e+01 
8
Step 28000
1  2.754028826927e+01   1.263470587538e+01  -9.233268968174e+00 
1 -2.643464007674e+01  -7.072479969297e+00   6.232563191123e+00 
1  1.271049541963e+01   4.220002804471e+01   3.873364566570e+00 
1  5.787787634549e+01   1.488218209424e+01   5.149846677646e+00 
1 -3.056758319327e+01  -1.794787561970e+01   9.144125451443e+01 
1 -9.067164592104e+00   4.136232869514e+01   6.153208021469e+00 
1  3.238284549092e+01  -1.313785150088e+00  -1.746979812900e+01 
1  3.733481081830e+01   4.025873142642e+01   3.684233169169e+01 
8
Step 29000
1  8.042478584389e+00   3.414842881531e+01   3.983588703484e+01 
1  2.088125879782e+01  -5.585473097502e+01   1.840568631407e+01 
1  1.017854831565e+01   3.082824975852e+01   1.615540232800e+01 
1 -3.972989931697e+01  -2.128548362453e+00  -3.534854281647e+01 
1  1.795731028553e+01  -1.602809732812e+01   2.863064475433e+01 
1 -3.661942829155e+01   6.143030238775e+01   2.875454396774e+01 
1  5.252314115367e+00  -1.795794764736e+01   1.081183938962e+01 
1  6.322526702506e+01   4.339333899797e+01   3.375711409112e+01 
8
Step 30000
1 -4.182801638623e+01  -2.794829024084e+01  -4.711758705037e+00 
1  3.485195684230e+01   9.424354302972e-01  -1.459779167302e+01 
1  2.377807697099e+01   6.790939318842e+01   1.493102964365e+01 
1  1.607581537725e+00   4.548016263017e+01   5.132308097923e+01 
1  6.582613290825e+01  -3.195768899045e+00  -1.261061332133e+00 
1 -1.582457361282e+00   2.231993415204e+01  -1.386498206710e+01 
1  6.841397873043e+01   2.689759196172e+01   1.674373894298e+01 
1  1.806201636466e+01  -1.325676429096e+01   2.378802814868e+01 
8
Step 31000
1 -2.909995974959e+01  -2.245326230500e+01   3.806979603270e+01 
1  6.448412534507e+01  -2.365745744424e+00  -8.616259343221e+00 
1 -6.869035917277e+00   2.486231740712e+00   5.451553932290e+00 
1  2.493778839918e-01   3.300521886847e+00  -6.159796770856e+00 
1 -4.429138184634e+01   8.262083863429e+00  -7.285700085163e+00 
1  2.204080545461e+01   3.687910959090e+01  -3.733199042432e+01 
1  3.427159985518e+01   4.693113152344e-01   1.389100389845e+00 
1  6.682480532858e+00  -7.252709359413e+01   8.202443331808e+00 
8
Step 32000
1  5.368759537315e+01  -2.252227617762e+01  -6.091851042211e+01 
1  4.398778305729e+01   3.112017688965e+01   4.462115497999e+00 
1  3.033298991790e+00   4.508366615140e+00   3.518933102958e-01 
1  2.017120241427e+01   5.628630259487e+01  -4.257629498322e+01 
1  7.419118160408e+00   6.560829228989e+01   7.651844587802e+01 
1  7.430097795225e+01  -2.138719301570e+01   1.284918061864e+01 
1  1.014818830452e+01  -5.333467043039e+01   2.512800052519e+01 
1  6.842559952710e+01   2.351645841401e+00   4.237156611415e+01 
8
Step 33000
1  1.078380319805e+01   1.645382780968e+01  -2.932475248273e+01 
1 -2.544056537847e+01  -1.104321888823e+01  -8.741099605670e+00 
1  2.489275211095e+01  -2.545877280399e+00  -1.247879442558e+01 
1  2.490038347755e+01   2.056970759761e+01   3.056616735037e+00 
1  8.775596234261e+00   1.029389586145e+01  -3.916694548573e+01 
1  1.792688945397e+01  -3.490547275134e+01  -1.202491786863e+01 
1  3.400878286372e+01  -2.180947401647e+01   3.678550713260e+01 
1  4.752010226674e+01   1.420098171747e+01   4.130222919784e+01 
8
Step 34000
1  2.131936315845e+01  -8.158811041618e+00  -7.545579428109e+00 
1  1.103576171823e+01  -1.298614497257e+01  -2.874479758547e+01 
1  2.850316968822e+01   5.264350789071e+01  -1.134953299730e+01 
1  9.022743278424e+00   2.186993044015e+01  -1.558832897142e+01 
1  2.844823302690e+01  -4.913361616921e+01  -5.090172599130e+01 
1 -2.235960795198e+00  -2.172128896978e+01  -7.257962194732e+00 
1  1.665536828099e+01  -7.923509028922e+00  -2.174396293727e+01 
1  1.577068826329e+01  -6.540576253161e+00  -8.892053537559e+00 
8
Step 35000
1  1.532126027728e+01   1.414530691026e+01  -2.073319408638e+01 
1  2.153165130112e+01   6.904633005273e+00  -5.356650850497e+01 
1  1.827042892216e+01   1.869400211012e+01   6.034928930603e+01 
1  2.557006174243e+01   1.213801127984e+00  -1.442424826594e+01 
1  5.792959014369e+01  -3.693991095773e+01  -3.563013406928e+01 
1 -3.070684750821e+01  -3.996960131195e+01  -5.639933690169e+01 
1 -8.578634352727e+00  -2.507917059800e+01  -2.883417487229e+01 
1  3.641760738627e+00  -1.599040714461e+01   2.988915787077e+01 
8
Step 36000
1  8.022514352791e+01   5.273751225318e+01  -3.127136532616e+01 
1  7.444180313425e+01   4.252302168807e+01  -7.058007870357e+01 
1 -2.154253371314e+01  -2.261085282086e+01  -2.451962335954e+01 
1  2.782186753243e+01  -2.933205810793e+01   7.229682655256e-01 
1 -4.243588214645e+01   1.320464868088e+01  -2.894774450450e+01 
1  1.287247032299e+01  -1.974694692335e+01   3.642054239565e+00 
1 -7.266477081744e+00  -3.751200070656e+01   1.819220353963e+01 
1 -8.041574617756e+00   1.440195293354e+01   1.650233025427e+01 
8
Step 37000
1 -1.532739865550e+01   7.108995398457e+01  -5.040820892952e+01 
1  8.355349726553e+00   3.890906129388e+01   2.209872270660e+01 
1 -1.871051922995e+01  -3.994151333109e+01  -2.573022955143e+01 
1  1.707412504220e+01  -2.336578164326e+01   2.639713500063e+00 
1 -1.161201438017e+01  -1.148762516274e+01   1.551950925482e+01 
1  2.525367730164e+01  -3.373391212367e+01  -4.342747840824e+01 
1 -1.931974090640e+01   1.507351422703e+01  -3.922365215732e+01 
1  2.338990997354e+01   1.043768655996e+01  -3.053086636219e+01 
8
Step 38000
1 -4.864687606323e+00   4.889085170439e+01   4.246425872031e+01 
1 -1.529410432590e+01  -8.994683098476e+00  -4.689491749609e+01 
1  4.758770052491e+01  -1.378982632546e+01  -5.139147664397e+01 
1 -5.174213974800e+01  -4.372132462768e+01  -1.321843734900e+01 
1 -2.564241317377e+01   5.150627012243e+00  -4.002899814006e+01 
1 -5.845277420448e+01  -1.886464732142e+01  -7.444687412165e+01 
1 -2.951648621693e+01  -3.113030586696e+01  -1.281279201387e+01 
1 -7.918823061453e+00  -3.155570931399e+01  -3.359266840653e+01 
8
Step 39000
1 -2.559832331349e+01   1.558025689678e+01  -1.986636319918e+01 
1  4.651456957158e+01  -1.996616994867e+01   7.238389725408e+00 
1  3.346630966750e+01   4.231149192336e+01   1.151926598817e+00 
1 -2.205846289003e+01  -1.729396767378e+01   6.233515752105e+01 
1 -1.125196275886e+01   1.316104390980e+01  -4.218871546834e+01 
1 -1.943381351984e+01   1.472199995195e+01   7.060347762954e+00 
1  3.812472287445e+01  -3.340326388658e+01   2.516147613264e+00 
1 -3.362015290629e+01  -1.687879278735e+01  -4.809812929369e+01 
8
Step 40000
1  2.512366330967e+01   1.992829737937e+01  -3.631604268540e+01 
1 -3.079340114364e+00  -2.695577359697e+01   1.070094790621e+01 
1 -2.626154248377e+01  -8.405823698909e+00  -1.805634818884e+01 
1 -1.451181762364e+01   1.967206800007e+01   3.384750543822e+00 
1 -3.957760011931e+01  -4.366524749492e-01  -8.665711524644e+00 
1 -4.202019211752e+01   1.362922542508e+01   2.435349450311e+01 
1 -6.770470239843e+00  -1.128881038147e+01   9.056430520014e+00 
1 -3.125407739052e+01  -4.387822869154e+01   1.065095465637e+01 
8
Step 41000
1  2.894863609597e+01  -3.942984158039e+00  -1.012539034867e+00 
1 -2.225069576715e+01  -3.288465751193e+01   2.832575698256e+01 
1 -4.623430460798e+01  -6.996209700161e+01   5.544100078071e+01 
1  8.126911814796e+00   3.359513116122e+00  -4.078123008645e+00 
1 -1.631867915142e+01   3.390313276911e+01  -6.987111567532e-01 
1  1.909268824072e+01  -1.014349380654e+01  -5.397608869955e+00 
1 -4.311834428367e+01   2.733200245745e+01  -5.772060800363e+01 
1  2.917138755809e+00   1.358574317708e+01   3.487830285418e+00 
8
Step 42000
1 -1.897610888372e+01  -3.257088963512e+01   3.003923838879e+01 
1 -3.076375800407e+01  -3.214347596903e+01   3.978788094983e+01 
1  1.956275778856e+00  -2.649566877402e+01   2.078779163059e+01 
1  5.731569947369e-01  -3.120710630756e+01   1.903878328263e+01 
1 -1.466214773502e+01   1.286359094825e+00   3.295634568925e+01 
1 -2.452403150455e+01  -4.565360486865e+01   1.537037854967e+01 
1 -4.308795545529e+01   1.769921258239e+01  -4.546982146829e+01 
1 -1.774996639917e+01   2.920803526080e+01  -4.744279890058e+01 
8
Step 43000
1  2.956284241406e+01  -4.147735362751e+01   4.299268688620e+01 
1 -8.319597052008e+00  -2.172107556854e+01  -4.067286187131e-01 
1  6.944018007162e+01   1.739052934280e+01  -1.715377282350e+01 
1 -4.310955480498e-01  -1.363224839753e+01   8.166003818617e+01 
1  5.568935138749e+01  -1.570790403240e+01   3.717366848398e+01 
1 -2.332730498533e+01   4.707086896961e+01  -1.248626736242e+01 
1 -1.968371053300e+01   3.476319110437e+01   3.599641237889e+01 
1 -1.988194891916e+01  -3.450921634719e+01   6.803599269214e+00 
8
Step 44000
1  1.119930040180e+00  -8.345128039622e+01   5.809964124851e+00 
1 -1.147745866513e+01   4.546274665249e+01   3.608181407579e+01 
1  1.220158303003e+01   3.149845944438e+01  -5.411008509536e+01 
1 -4.452181362337e+01  -3.933658908157e+01   4.746748102804e+01 
1 -1.931654346815e+01  -3.170610455205e+01   4.583054456060e+01 
1  5.652434215344e+00   1.331685875186e+01   4.905659081783e+01 
1  9.658290733650e+00   3.694545450805e+01   9.684404306708e+00 
1 -1.982932609290e+01  -9.623301630707e+00   1.011680122265e+01 
8
Step 45000
1  3.343997485066e+01  -3.667390563029e+01   8.664452946264e+01 
1 -3.694577182869e+01  -5.351124693392e+00   5.431272069443e+01 
1 -5.715022096877e+00  -6.662680259651e+01  -8.262884175914e+01 
1  2.589898974310e+01  -3.261258577546e+01  -2.205171993837e+01 
1 -1.117828652433e+01  -1.030824327383e+01   4.098541287171e+01 
1 -1.395334938443e+01  -2.451457512711e+01   3.689119531039e+01 
1  2.101917049864e+01  -1.206054452694e+00  -7.386570607677e+01 
1 -1.692400436677e+01   5.121986093440e+01  -1.877411931342e+01 
8
Step 46000
1 -2.740248366732e+01  -2.817879212000e+01   3.178206152290e+01 
1 -2.274293360482e+01  -2.088261071216e+00   3.566211548309e+01 
1 -2.094625975037e+01  -3.587950779092e+01  -2.339731126187e+01 
1 -4.810285722143e+00   1.802884568108e+01  -3.335421356496e+01 
1  2.385790312434e+01   3.391530226724e+00   3.782093205534e+01 
1  9.648034922742e+00  -1.987332932443e+01   6.977260770955e+01 
1  1.822904004165e+01   5.721343820512e-01  -7.236256523939e+00 
1  4.524358840358e+01  -8.482189308903e-02   1.255444903624e+01 
8
Step 47000
1 -3.089209272596e+01  -1.777294616702e+01   3.495566742010e+01 
1 -1.419747002903e+01  -3.794444215928e+01  -2.390704728677e+01 
1  1.543894465075e+01   4.608583651650e+01  -1.319552028808e+01 
1  2.646528648508e+00   3.625080377170e+01  -2.056550742637e+01 
1  6.687262327203e+00   2.419847660438e+01  -4.650179008757e+01 
1 -9.050057482731e+00  -5.665641359349e+01   4.124736790544e+01 
1  3.457654892730e+01   1.421667951009e+00   6.873595912364e+01 
1  4.067536572667e+01  -3.581950132381e+01  -2.120873631009e+01 
8
Step 48000
1  1.224299612796e+01  -1.864665643511e+01  -2.467741556207e+01 
1 -1.998093224147e+01  -2.843174315648e+01  -5.945796674948e+01 
1 -2.500258533034e+01   3.261618554068e+01  -1.159859079518e+01 
1 -5.024936821202e+01  -3.730025901079e+00   2.722227676281e+01 
1  1.013895388584e+01   3.835006916617e+01  -5.892955991384e+01 
1  4.755882293060e+01  -2.666584392659e+00  -1.582636075433e+01 
1  5.272043860268e+01   3.407798549079e+00   8.964346320069e+01 
1 -4.801502193890e+00  -4.148510053504e+01   1.720034852546e+01 
8
Step 49000
1 -1.472008308739e+01   3.174365232799e+01   1.102135518951e+01 
1 -2.008821248321e+01  -4.314890844104e+01   1.671897770999e+00 
1 -4.574132606345e+01  -4.493119896808e+01   1.493510796157e+01 
1 -3.276818980519e+01   2.800769396794e+01  -3.438133950123e+01 
1  1.073954274418e+01  -2.487709300035e+01  -1.430342647996e+01 
1  7.375500119964e+01  -1.438976518322e+00  -6.004279778673e+01 
1  4.424899552428e+00   4.291979476678e+00  -3.325979851186e+01 
1 -3.068025646975e+01  -3.316201394933e+01  -5.732041059711e-01 
8
Step 50000
1  5.107153497866e+00   6.049134823668e+01  -3.244120501167e+01 
1  1.185441165930e+00  -1.230567691598e+01   4.761421593321e+01 
1  7.934958991328e+00  -2.838401884884e+01  -2.625940243541e+00 
1  3.001591752387e+01   2.748849215405e+01  -4.271887129490e+01 
1  1.702027433936e+01   3.158280637048e+01   1.585241231910e+01 
1  1.847421270119e+01   2.365342405990e+00   6.695442628532e+00 
1 -1.847557433609e+00  -1.562072452360e+01  -2.452460211157e+01 
1 -9.436487667608e+00   9.179008238133e+00   2.062903459203e+01 
8
Step 51000
1 -5.505907721333e+01  -7.414416725482e+00  -4.310102924523e+01 
1  5.446409213847e+00   1.244881934958e+01  -1.202116391657e+01 
1  9.626447779117e+00   5.270091232819e+01   7.997352930914e+00 
1 -2.275100519352e+01  -1.924606098053e+01  -1.073580909069e+00 
1  4.261931435269e+01   4.617650229640e+00  -1.697604784490e+01 
1 -2.316879967757e+01   3.995221981743e+01   2.209620429797e+01 
1 -1.009699364258e+01  -1.037509297491e+01  -4.870655530477e+01 
1 -6.911925234388e+00  -4.488271985796e+00   1.581048492336e+01 
8
Step 52000
1  5.702233198505e+01   3.845616525240e+01  -4.476282290728e+01 
1  2.209738663323e+01  -7.503155398074e+01  -1.147820711473e+01 
1  1.368253339955e+01   6.764999075569e+01   3.732379681715e+01 
1 -1.173693907834e+01   5.274443532182e+00   3.005981557128e+01 
1 -3.045783988465e+01  -9.387026620994e-01  -4.440747000410e+01 
1 -4.791395480591e+01   4.588404606964e+01  -2.583406511556e+00 
1 -3.070276346024e+01   2.846573734160e+01  -3.635967832424e+01 
1 -9.607560903629e-01  -5.226205661196e+00  -2.179519550835e+01 
8
Step 53000
1  1.699757408886e+01   4.624132487359e+01   4.373902363183e+01 
1 -9.582398148796e+00  -1.020347296164e+01  -7.365144854711e+00 
1 -8.234994577810e-01  -1.179296964457e+00   2.177149849780e+01 
1  2.904962088277e+00  -4.502997112375e+01   3.277119855332e+01 
1 -4.118692333486e+01  -2.836908396481e+01   4.058990228095e+01 
1  2.073794744177e+01   2.055126972436e+01  -2.566098483374e+01 
1 -4.206631871816e+01   9.189593714899e+01  -1.581100178438e+01 
1 -1.756550853101e+01   3.066940065432e+00  -7.726529001370e+01 
8
Step 54000
1  5.273447190245e+01   7.978244725497e+01   2.874708490171e+01 
1  4.579158936416e+01   4.143111574650e+01   2.666955521726e+01 
1  1.739210567152e+01   1.536968041472e+01   1.530488433150e+01 
1 -2.229945068809e+01   5.461200550019e+01  -4.038196444684e+01 
1  2.146462995935e+01   7.204315224812e+00   4.546464588968e+01 
1 -2.076428790300e+01  -2.359170977877e+01  -8.609923517976e+00 
1 -2.457344848875e+01   3.174515906633e+01  -9.230643002344e+00 
1 -3.117543781826e+01  -1.581996466124e+01  -1.403987735599e+01 
8
Step 55000
1 -3.731472413785e+01  -1.154493097701e+01  -8.885426421297e+00 
1  3.732095601057e+01   7.670953530471e+01   8.037872457070e+00 
1 -1.939714581891e+01   1.025381289419e+01  -2.119914088824e+01 
1 -2.504783661909e+01   1.300049946932e+01  -4.244975271865e+01 
1  2.240119717621e+01   7.949656335699e+00  -9.989168188881e-01 
1 -4.641329713136e+01   2.279539279992e+01   2.287182012383e+01 
1  2.204443554301e+01  -1.363126622356e+01   1.902427607630e+00 
1 -2.324163496734e+01   2.795379333084e+01   6.460735202135e+01 
8
Step 56000
1  2.175937682815e+01  -1.310080636963e+01   1.228291017944e+00 
1  8.285359807000e+01   3.025783775589e+01   5.318438632366e+01 