8
Step 0
1 -3.472934504792e+01   2.985585161505e+01   4.552711624413e+01 
1 -3.872914153085e+01   5.183552870333e+01   2.841252880511e+01 
1  6.597310272429e+01   3.473535297890e+01   3.212630301548e+01 
1 -6.209027598665e+01   1.844554586020e+01  -3.110501871492e+01 
1 -4.675834713363e+01   3.854789838996e+01   6.659078998682e+01 
1 -1.328434623653e+01  -5.953552595268e+01  -6.135440417252e+01 
1  6.150941286889e+01  -3.705897999201e+01   2.680974576907e+01 
1  1.897523860070e+01  -3.176705575740e+00  -2.894581516525e+01 
8
Step 1000
1  4.237919458772e+01  -4.803653529211e+01   6.155745707164e+01 
1 -6.901634276679e+00   3.605944287860e+01  -2.673263138561e+01 
1 -6.222004240179e+01   1.419523381838e+01  -2.109482728796e+01 
1 -4.572737284660e+01   1.387484253703e+01   4.954980302512e+01 
1 -7.213658289398e+01  -4.830397366164e+01  -1.767044494020e+01 
1  6.257822014927e+01   1.968159616427e+01  -3.335013073055e+01 
1 -6.690730798411e+01   5.378379824602e+01   5.776236766976e+01 
1  3.777554083058e+01  -6.664975817610e+00   3.783653223449e+01 
8
Step 2000
1 -4.801845769059e+01   7.849539522606e+01  -5.010174030230e+01 
1 -4.720572186680e+01   4.327206255849e+01   1.021893297923e+02 
1  6.756911754974e+01   4.862990762928e+01   6.861569382134e+01 
1 -6.602302625930e+01  -4.748593464128e+01  -6.175900492989e+01 
1 -5.275874310645e+01  -4.886813177750e+00   3.616723615111e+01 
1 -1.586298907969e+01  -7.405708203793e+01  -3.918163359374e+01 
1  5.221191327536e+01   1.809948860896e+01  -2.550628154854e+00 
1 -2.836753147307e+01   6.628393785893e+01   4.187939809129e+01 
8
Step 3000
1 -5.175742255838e+00   3.784541177352e+01   6.157585319261e+01 
1 -3.483193118966e+01   9.414636176666e+01  -2.833584435980e+01 
1 -3.802731835280e+01  -5.178297192357e+01  -3.338632009208e+01 
1  9.454652578392e+00   6.944950568707e+01   7.899735090815e+01 
1  2.778987606479e+01  -3.501917279316e+01   4.226316802679e+01 
1 -1.719984662871e+01   1.233453529486e+02  -4.804636992643e+01 
1 -8.586044928030e+00  -3.001672778840e+01   3.507104407205e+01 
1 -1.189187716924e+01   3.881157907427e+01   1.986585433091e+01 
8
Step 4000
1 -7.911802470216e+01   1.861845851506e+01  -2.748610836103e+01 
1 -3.754681081208e+01   2.162143128186e+01   4.446578597961e+01 
1  2.152117260849e+01  -7.065011071194e-01  -1.777057433560e+01 
1 -8.398463037843e+01   2.800307727065e+01   1.237418527486e+01 
1 -2.598416064991e+01  -8.202537970871e+01  -2.918264719170e+01 
1  3.734095299144e+00  -3.226042324788e+01   4.572924423023e+01 
1  4.523099645669e+01  -2.723269906823e+01   7.240933068795e+00 
1 -4.745224686478e+00  -3.583367273033e+01   3.470928008607e+01 
8
Step 5000
1  1.013435683373e+01  -5.257926423771e+01  -6.212416859068e+00 
1 -4.367096140448e+01   5.938709858224e+00   9.545617230065e+01 
1  4.143550061489e+01  -5.963075183529e+01  -1.369738480266e+01 
1 -5.865278904117e+01   1.599585843904e+01  -1.434477926429e+01 
1  3.596872511604e+01   2.633971115481e+01   2.500014261407e+01 
1  3.295113479373e+01   2.565803495497e+01  -4.812045755337e+01 
1  4.353106201019e+01  -3.951160390344e+01   2.609990497765e+01 
1 -1.230273739286e+01   5.851866480535e+01   3.205751985764e+01 
8
Step 6000
1  1.271843124784e+01   4.434430509550e+01   1.768482860704e+01 
1 -1.599630565246e+01   3.512551512092e+01   2.595379534919e+01 
1 -2.892017896524e+00  -2.213690215484e+01   1.772360386048e+01 
1 -2.194168218837e+01  -8.619598239392e+00   1.045336495379e+02 
1  2.579850387161e+01  -9.152369623630e+01  -8.553456927599e+01 
1  2.478602345667e-01   1.431126334798e+01  -1.269036501643e+01 
1 -8.110393148249e+00   1.210286094781e+01   6.077279650084e+00 
1  1.804154375282e+01   1.169728588860e+01   1.037098602759e+01 
8
Step 7000
1 -6.311961988455e+01   6.613408644154e+01  -1.390180373100e+01 
1  1.086568085672e+01  -1.298786584745e+01  -1.516640003140e+01 
1 -3.248749606777e+00  -3.531920884931e+01   2.282135430802e+01 
1  4.161348637486e+01  -9.310072632187e+01   4.643717096161e-01 
1 -1.496069854245e+01   8.574743716891e+01   4.325195163315e+01 
1  1.904161212625e+01  -3.751292053880e+01  -2.776338024877e+00 
1  2.567961794854e+01   5.311315989554e+01   4.355013701816e+01 
1 -8.237606416693e+01   1.752585624712e+01  -3.049988616863e+01 
8
Step 8000
1 -5.818803119222e+01   4.494057575440e+01  -2.276335527309e+00 
1 -1.533144275132e+01   2.676164253277e+01   4.444990190097e+00 
1  1.380606299416e+01  -3.098919844568e+01   6.636741005305e+01 
1  4.357876400473e+01   1.240386598383e+01   4.742155842449e+01 
1  9.038147854496e+00  -6.698325770816e+01  -3.348203276538e+01 
1  3.814135131770e+01   1.057714741349e+01  -4.368162743546e+01 
1 -1.601944926466e+01  -9.766292507557e-01   3.029360323725e+01 
1  3.193966579460e+00  -4.238740013147e+01  -2.167479610009e+01 
8
Step 9000
1  2.707466620715e+00  -1.345762125651e+01  -3.298150621672e+01 
1  5.098227735006e+01  -6.523244895696e+01  -2.863491246366e+01 
1 -5.257241923803e+01  -8.287635255606e+00   1.511966582645e+01 
1  4.904811517538e+01  -4.809749828910e+01   5.464797337345e+01 
1 -5.812410089112e+01   6.416513386180e+01   1.357611063252e+01 
1  4.478365378553e+01  -4.070777655603e+01   1.546977510991e+01 
1  4.711782677002e+01   2.551470561886e+01  -1.521807335890e+01 
1  3.653217865662e+01  -6.995109209347e+01  -2.063108164325e+01 
8
Step 10000
1 -3.014891571199e+01  -6.803394374371e+01  -2.605929167698e+01 
1 -1.389695760278e+01  -1.365030587683e+01   7.571170594861e+00 
1  4.875578594832e+00   1.785526169611e+00   7.360301584385e+01 
1  2.955978602198e+01  -5.250127620103e+01  -1.521123077655e+01 
1 -2.469679204275e+00  -4.352140874419e+01  -1.497704714745e+01 
1 -4.591639096481e+00  -3.209383902486e+01  -7.364090067183e+01 
1  3.517457587393e+01  -3.020798635855e+01   7.308771160784e+01 
1  3.059935926557e+01  -4.740561222411e+00  -2.866513675077e+01 
8
Step 11000
1  7.612231536255e+01   1.455350323897e+01  -1.311781813657e+00 
1  5.610863866597e+01  -4.510025927750e+01   1.528038311144e+01 
1  1.658661952901e+00   3.342519339416e+01   6.648510853941e+00 
1  3.594543362998e+01   1.761983302694e+01   9.522092693462e+01 
1  3.264226980346e+01   1.398233569977e+01   2.613844563073e+00 
1  8.807679974282e+00   9.437091401949e+01  -1.409810917154e+01 
1 -1.753415217534e+01  -9.202223957570e+00  -7.252294626670e+01 
1 -7.107338109180e+00  -4.211695554461e+01  -5.094776337420e+01 
8
Step 12000
1 -2.505981550816e+01  -2.282996142090e+01  -3.310935424016e+01 
1  1.045302525128e+01   2.854551518005e+01  -4.412334107469e+01 
1 -5.603506756187e+01   2.374184238156e+01   3.853536019369e+01 
1  4.163000446690e+01  -4.532164313401e+01   3.754892370442e+01 
1  6.769000085074e+01  -4.582403590969e-01   4.840300225939e+01 
1 -1.914649019770e+01  -7.598279130412e+01  -4.303930932217e+01 
1 -2.594847211700e+01  -4.389430555463e+01  -2.881870098770e+00 
1 -6.829198626090e+00  -7.027911100205e+00  -4.259378634397e+01 
8
Step 13000
1  5.366528106052e+01  -5.829796755029e+01  -6.008601484324e+01 
1 -2.444737679696e+01  -4.637455394695e+01  -1.838491601434e+01 
1  6.175032647533e+01  -5.555958072156e+01   9.320096485150e+00 
1 -9.798549947960e+00   5.802839286381e+01   1.671923522311e+01 
1 -2.780053675335e+00  -1.880828140339e+01  -4.008049611514e+01 
1  3.014303950255e+00   4.892559931046e+01   1.725357587859e+00 
1  9.056046617994e+01  -9.320996925856e+01  -1.811604707961e+01 
1 -2.167103977627e+01  -1.275463262900e+01   1.707233655958e+01 
8
Step 14000
1  4.508424725606e+01  -4.066337287724e+01  -3.398014601252e+01 
1  4.046606625474e+01  -3.752312374963e+01   1.671718197482e+01 
1 -5.699833904200e+01  -3.944519792499e+01  -1.746234885415e+01 
1  5.338399887552e+01  -1.591964205763e+00   9.443907528595e+01 
1  7.063827079847e+01   2.413237647758e+00   9.068112826525e+00 
1  1.538809852184e+00   1.115801720036e+01  -3.229267942745e+01 
1  2.025916373951e+01  -4.270651942894e+01  -4.803249047251e+01 
1  2.067557047230e+01  -4.935320032627e+01  -3.638728850874e+01 
8
Step 15000
1  5.172417894424e+01  -2.017845467493e+01  -4.291517308700e+01 
1  4.284779248217e+01  -9.221113820892e+01  -4.141100010639e+01 
1  7.754210905018e+01  -1.123272687258e+01   4.084896225178e+01 
1  1.499548979857e-01   7.046042416858e+01  -4.021967614625e+01 
1  1.659968385355e+01  -6.691738478440e+00  -4.822596804528e+01 
1 -1.123696001452e+01  -1.620472144889e+01   2.398512046525e+01 
1  3.331561599066e+00  -9.159764122793e+00  -1.712461438905e+01 
1 -6.355572807835e+01  -1.992201769280e+01   9.808892789219e+00 
8
Step 16000
1 -2.770169727323e+01   5.488918410524e+01   3.526630636871e+01 
1  4.930261121493e+01  -1.471977029432e+01   2.004930203025e+01 
1 -9.408751929822e+00  -1.914356416270e+01  -2.962352943227e+01 
1  7.349792675829e+01  -1.763951801499e+01   5.788409687915e+01 
1  5.146699719458e+01   2.291251465130e+01  -3.857399425646e+01 
1  1.549805175294e+01   3.472489995177e+01  -5.006550972872e+01 
1 -5.103140957972e+01  -3.476626476809e+01  -2.185950241739e+01 
1 -5.195343503273e+01  -3.486175045109e+01  -3.442224333243e+01 
8
Step 17000
1  7.181019404479e+01  -3.778896792167e+01  -1.049887035401e+02 
1  2.017136181929e+01  -2.818253102457e+01  -3.104015437424e+01 
1 -8.071187348241e+00   9.459314196186e+01   4.824777221715e+01 
1  3.929281920905e+01  -2.041019419085e+01   1.178122105325e+01 
1  1.266807986687e+01   1.908576543810e+01  -4.136974690906e+01 
1 -2.767905672586e+01  -4.357170832100e+01   2.860316728245e+00 
1 -3.697159146215e+01   6.268936773207e+01   4.370331308685e+01 
1  6.910347479984e+01  -8.089934193871e+01  -4.525435285322e+01 
8
Step 18000
1 -8.785253924200e+01  -3.358201781982e+00   1.237956280164e+01 
1  4.044340094856e+01  -6.776913894912e+01  -6.153025607919e+01 
1 -2.296284123901e+01  -6.538385472647e+01  -5.074518386084e+01 
1  5.576596622476e+01  -5.756909270851e+01  -2.463207649972e+01 
1 -1.067308704098e+01   2.240806830784e+01  -1.815097600713e+01 
1  1.030857336975e+02  -1.828117138750e+01   4.578379859080e+01 
1  7.427270069929e+00  -2.688725657061e+01  -6.667848422414e+00 
1 -6.125429328372e+01  -3.824638685637e+01   2.063830415825e+01 
8
Step 19000
1  6.996376357727e+01  -5.590553210137e+01  -4.461736258164e+01 
1  7.002997914544e+01  -6.724131485836e+01   7.161123180809e+01 
1 -3.619252233869e+01   1.122733961556e+02  -4.745951316392e+00 
1  6.183846963686e+01   6.452959034336e+00  -1.717798670275e+00 
1 -2.346151572259e+01   7.052860321080e+01  -3.404724997830e+01 
1  2.265606285070e+01  -5.010953123601e+01  -4.878852338956e+01 
1 -4.119241451419e+01   2.288045395187e+01   4.436236954182e+01 
1  5.906706460611e+01  -2.413415951203e+01  -7.451969361361e+01 
8
Step 20000
1  1.132632771222e+01   7.162081001467e+01   1.936006827587e+01 
1  2.337330027357e+01  -1.014857476311e+00  -1.752428651831e+01 
1 -1.119392999930e+01  -5.622615145507e+01  -1.364752912479e+01 
1  3.676947438581e+01   4.019345932917e+01  -5.407575770856e+00 
1  6.100145974106e+01   3.839177740743e+01   8.977104740433e+00 
1 -1.318288351855e+01  -1.891383144153e+01   8.413013205843e+01 
1  1.124780759559e+01  -4.867209474695e+01  -4.285341860456e+01 
1 -1.400941807350e+02   5.462433978433e+01  -6.909873845261e+01 
8
Step 21000
1 -2.822846019220e+01   2.677168110525e+01  -7.983930512654e+01 
1  7.516633822924e+00  -2.550283789991e+01   1.316791555061e+01 
1  8.672396169540e+00   6.508377627571e+01  -1.664012198315e+01 
1  8.029333924411e+00  -1.006799652030e+01  -3.415521140067e+01 
1 -6.866869539003e+01  -1.666926022968e+01  -3.397926574180e+01 
1  4.976004990547e+00   5.979822946968e+01  -9.148072665445e+00 
1 -3.271943058795e+01  -3.306215366386e+01   1.501443830338e+01 
1  4.117884206633e+01  -3.476914945819e+01   5.321121419843e+01 
8
Step 22000
1  3.759697594269e+01  -2.851035420687e+01  -7.083808826977e+00 
1 -3.264408727158e+01   3.735356762236e+01  -7.053545864954e+00 
1 -6.632211636592e+01  -4.970129596595e+01  -1.782567154667e+01 
1 -2.849344041194e+01   3.710071636898e+01  -2.519015787768e+00 
1  1.030682989827e+02  -7.257306603903e+00  -1.822450707778e+00 
1 -3.901974242317e+01   3.129664279021e+00   5.128004453085e+01 
1  5.606789312002e+01  -1.107781024219e+01  -1.209283206514e+01 
1  7.437144158949e+00   4.596035697400e+01  -5.991487659926e+00 
8
Step 23000
1  2.012389942122e+00  -5.203447857427e+01  -4.602847660001e+01 
1  1.002212904097e+01  -5.478029486708e+01  -1.912242254269e+01 
1  4.742617751374e+01   3.847335293713e+01  -1.748790412642e+01 
1  2.082300214040e+00   5.010578065467e+01  -1.920520901126e+01 
1 -7.646155844951e+01   8.123697773553e+00  -4.532764776877e+01 
1 -4.280555227361e+01   5.780962514230e+01   3.580305694425e+01 
1  8.319037856070e+01  -9.506798311687e+01   3.094722953246e+01 
1 -2.918712886121e+01   4.321419027864e+00   3.011725325899e+01 
8
Step 24000
1  3.444759494878e+01   4.351964406180e+01   4.231138444873e+01 
1 -1.348000035185e+01   1.129762414321e+01   8.067747051519e+01 
1 -4.090495038981e+01  -1.717317783462e+01  -8.435955843060e+01 
1 -4.822261302918e+01   5.077205024505e+01  -1.381998096648e+01 
1  8.640333734325e+00   3.246272050159e+01   2.743860919672e+01 
1  3.690630023391e+00   1.662570011335e+01   8.001937934493e+00 
1 -6.923655650655e+01   3.913821249474e+01  -4.846778133288e+01 
1  3.422714788941e+01  -3.294193686488e+01   1.846523811094e+01 
8
Step 25000
1 -4.845615078597e+01  -1.646277925645e+01   1.984666439477e+01 
1  4.409614281575e+01   8.313303608136e+01  -3.484152976908e+01 
1  5.462190315717e+00   4.503718430236e+01   2.874381826701e+01 
1  3.895167129291e+00   5.286023665997e+01  -6.359897003095e-01 
1 -4.608559624035e+01   5.778859675239e+01  -2.596333626945e+01 
1 -2.768858783283e+01  -4.448448146186e+01   1.151678130437e+02 
1  5.756022753273e+01   4.218988118059e+00  -5.708837562450e+01 
1 -5.357390975536e+01   7.272745829015e+01  -3.157529018441e+01 
8
Step 26000
1 -2.811543687808e+01   1.028293298833e+02  -1.743825312488e+01 
1 -7.207234762946e+01  -3.461232886998e+00   9.595688631872e+00 
1 -8.098413545966e+01   2.764356819195e+00  -7.848943305163e+01 
1  5.887511198550e+01  -4.993371545318e+01  -4.613590394466e+01 
1 -5.134893824854e+01   3.929090007326e+01   1.518136629032e+01 
1  3.801796678650e+01  -1.551562923910e+01   1.515017500590e+01 
1 -3.772676494568e+01   1.051283463589e+01   9.991195892891e+01 
1 -6.896615501266e+00  -4.142592020898e+01   4.424080263771e+01 
8
Step 27000
1 -4.934016593025e+01  -1.004993043409e+02   2.055757027942e+01 
1  1.927988706356e+01   3.056910282791e+01  -4.167128969821e+00 
1 -4.308540207853e+01   1.495899950710e+01  -2.996850626900e+00 
1  2.381170845565e+00   3.777920354095e+01  -1.687062340352e+01 
1  1.150620679163e+00   3.538758773866e+01  -2.194052551915e+01 
1 -1.121556093651e+01  -3.800414748331e+01   9.910368120392e+01 
1  2.178194168100e+01   1.363573637929e+01  -1.559486180628e+01 
1  1.358934140602e+01   2.397779510136e+01  -2.369266128522e+01 
8
Step 28000
1  3.810278312072e+01   1.154908980972e+01   5.393175586286e+00 
1  2.170208736369e+01   1.803334731888e+01   6.077558215574e+01 
1 -3.311895215126e+01   5.962830661976e+01   1.652371143204e+01 
1 -2.561908331462e+00  -4.423659126790e+00  -2.946389675700e+01 
1 -3.356217383471e+01   3.749643945230e+01   1.211390449917e+01 
1  6.221703274880e+00   7.084802134982e+01   2.298704256040e+01 
1 -3.390263939961e+01   1.789880508189e+01   3.604703543994e+01 
1 -5.564761931148e+00  -1.967316511226e+01  -2.686772950977e+01 
8
Step 29000
1 -1.482351730929e+01  -3.209956204673e+01   4.711053020994e+01 
1 -4.563188138552e+01   3.802894862585e+00   2.779236174069e+01 
1 -3.898655357325e+00  -2.367606244462e+01  -8.099532466835e+01 
1 -5.445046994409e+01   3.556818756353e+01  -4.532723268147e+01 
1 -2.289036571669e+00   2.893413367786e+01   2.902852467876e+01 
1 -6.878456044836e+01  -5.675859206889e+00  -1.769580554619e+01 
1 -2.043494835790e+00   1.621128589991e+01   7.585567440098e+01 
1 -2.980523016489e+01   1.078573575989e+02   1.710447020166e+01 
8
Step 30000
1 -1.321435586165e+01   5.521190835118e+01   2.613342950169e+01 
1 -7.552586978040e+01   8.881535929624e+01   6.596376967499e+01 
1 -2.546861100857e-01   3.297952572386e+01   1.665777003341e+01 
1 -7.274487665509e+00   1.003800895032e+01  -3.008266247033e+01 
1  3.721809550702e+01  -4.338935449870e+01  -4.378622796636e+01 
1 -2.082372423466e+01   4.997491673756e+01   6.177809645002e+01 
1 -5.176799184384e-01  -6.632966610612e+01  -8.353799988581e+00 
1 -1.531492363109e+01   9.615023843818e+01   1.201482915784e+01 
8
Step 31000
1  1.462947865075e+01  -4.012334093886e+00  -2.518882126869e+01 
1 -1.524244917924e+01   8.118427475501e-01   3.235592977267e+01 
1 -3.829561793641e+01  -7.352027505074e+01  -9.849496312143e+01 
1 -3.096417317663e+01   1.431065178496e+01  -4.312316482105e+01 
1  4.990227340046e+01  -5.108886787662e+01   7.277569813942e+01 
1 -2.414867129021e+00   2.643515863543e+01   1.428153588118e+01 
1 -3.696514277793e+01   9.322881099990e+00   4.380692945540e+01 
1 -3.381823782253e+01   4.119141735458e+01   6.941957599686e+01 
8
Step 32000
1 -4.420775925749e+01   1.686699280688e+01   2.690928903116e+01 
1  6.087730408756e+00   1.392187962423e+01   4.812560918055e+01 
1  2.335156052038e+01  -1.336840202848e+01  -1.794705584700e+01 
1 -8.249636953658e+01  -8.393721227815e+00   1.016272452269e+01 
1 -4.552374177940e+01  -5.250795101982e+01  -1.081109932147e+02 
1 -6.151970758218e+01   4.517598307686e+01   4.679834846284e+01 
1  1.004948760744e+02  -2.599909924552e+01   2.968057605183e+01 
1  3.668938881846e+01   2.407980122609e+01   3.993927695213e+01 
8
Step 33000
1  2.661277979710e+01  -2.126592505879e+00   5.907948938311e+01 
1  3.756025887732e+01  -1.112575178915e+01   3.029492550560e+01 
1 -7.236279574170e+01  -8.410121760619e+00   6.571003739195e+00 
1 -2.949378939791e+01   1.956193308915e+01  -2.238859569645e+01 
1  2.069990510791e+01   2.683162123835e+01   5.067836663260e+01 
1  3.207531745801e+01   1.080509547533e+01   2.921211027957e+01 
1 -2.222246501971e+01   4.854654440331e+01  -4.776385896416e+01 
1 -3.149883250498e+01   6.844982679922e+01  -1.725581824159e+01 
8
Step 34000
1 -7.764848526825e+01   5.542759906543e+01   1.657970698575e+01 
1 -3.055406307689e+01   3.799910130959e+01   2.431728200038e+01 
1  5.512137803693e+01   1.209527370099e+01  -2.794292597817e+01 
1 -1.354001408025e+01  -6.049678201942e+01  -3.785949574233e+01 
1 -6.301810727818e+01   9.793839859848e+00  -4.113613317629e+01 
1 -2.603424463173e+01  -8.011106092610e+00   5.644757912138e+01 
1  2.512412744961e+01   7.509575794241e+01   2.812228395494e+01 
1  2.499398048868e+01  -3.762018678920e+00   3.744872339760e+01 
8
Step 35000
1  5.014133559408e+00  -5.691945719830e+00   5.233805561238e+01 
1 -5.589733480670e+01   2.976727509547e+01  -7.275944527725e+00 
1 -3.246961056318e+01  -4.876556856639e+01  -1.038780531040e+01 
1 -2.122811142274e+01  -4.838410311549e+01  -2.465474803035e+01 
1 -1.764144984372e+01  -5.994258253583e+01   3.047246971917e+01 
1  1.435818375933e+01   1.111458006229e+01  -4.348482969099e+00 
1 -1.416239989029e+01   3.236186011345e+01   8.824275489325e+00 
1  3.354793054746e+01  -3.276559007733e+01  -6.860273756253e+00 
8
Step 36000
1  3.092541143363e+01   1.084068035978e+01  -9.056260910424e+00 
1  2.337117079048e+01   3.654814983575e+01   2.453667806379e-01 
1  4.351533703026e+01   3.369124154540e+01   3.791115623370e+01 
1  1.933674517430e+01  -5.016139115326e+01  -8.111037777322e+00 
1 -7.100112822100e+01  -3.716327591996e+01   3.212489747960e+01 
1 -8.204963103907e+00  -7.470066621509e+01  -5.384290256451e+00 
1  4.986381254397e+01  -2.626343095053e+00   4.855796919901e+00 
1  5.086978628379e+01   6.233013970377e+01  -1.548530258501e+01 
8
Step 37000
1  4.073513131493e+01   1.084933655415e+01  -3.008446645042e+01 
1 -2.054784771311e+01  -8.209350951942e+01   3.000743309994e+01 
1 -3.300614770524e+00  -2.940453900556e+01  -1.479612485638e+01 
1 -4.201516685208e+01  -5.187950264097e+01  -2.556692509318e+01 
1 -1.267058339377e-01   2.441675129314e+01   4.150962701678e+01 
1  4.845430702090e+01   3.843117522421e+01   2.698166327650e+01 
1 -4.370450601835e+01  -1.365060806137e+01  -7.726648613527e-01 
1 -2.752013000650e+01  -2.991966057828e+01  -9.872512704771e+00 
8
Step 38000
1 -2.673777100924e+01  -1.923647061746e+01   1.854302563675e+01 
1 -8.506360598850e+00   6.673490732277e+01   1.959590907964e+01 
1 -2.651715763748e+01   2.149891865559e+01   5.360687190751e+01 
1  4.319315766703e+01  -2.625306436005e+00   8.814926547593e+00 
1  1.043055305914e+01  -9.669946554000e+01   3.357993959387e+01 
1 -3.347213569211e+01  -1.612410926651e+01  -4.775456313718e+01 
1  4.381191264384e+01  -7.627285743375e+00  -2.564182522526e+01 
1  4.659409748328e+01   1.426729441629e+02  -6.561539404852e+01 
8
Step 39000
1  1.541617825166e+01   3.768818773128e+01  -3.322321171671e+01 
1 -6.691144882937e-01   9.341449803904e-02  -3.501207466243e+00 
1  3.971824758834e+01  -2.268613855075e+01   2.709006934577e+00 
1 -4.363854654608e+01  -2.570084782647e+01   2.220363959014e+01 
1  6.224068772501e+01  -5.046524598486e+01   7.807394024359e+00 
1 -6.122071967254e+00   3.893955919027e+01   4.177222382701e+01 
1  2.227339082120e+01  -7.693234742059e+01  -4.988887432609e+01 
1 -6.439925398644e+01   1.318690422715e+01   1.153224037316e+01 
8
Step 40000
1 -7.641029757571e+01  -3.820075108922e+01  -6.431713380859e+01 
1 -2.726086436147e+00   1.672119649721e+01  -2.038207735660e+01 
1  3.827889310211e+01  -6.025273003081e+01   1.865113357652e+01 
1  1.726257385081e+01   1.158777710620e+01   1.444795701358e+01 
1  1.651036097895e+01  -9.367943139097e+01   1.748300782263e+01 
1  1.959665591827e+01  -6.484883913056e+01  -1.601210311024e+01 
1 -2.851683038409e-01  -6.573215488894e+01  -2.984932440579e+01 
1  7.232721629744e+01   5.636965041131e+01   9.902966318726e+00 
8
Step 41000
1  2.644781230506e+01  -3.784445831972e+01   2.935971723440e+01 
1  5.850893311047e+01  -6.095346005613e+01  -2.757389810981e+01 
1 -9.403560169138e-02   6.162790722139e+00   5.307396436880e+01 
1 -9.647975625875e+00  -6.791494091082e+00   3.941591445495e+01 
1  1.184817989094e+02  -5.394903534604e+01   1.106571853645e+01 
1 -4.939519888830e+00   3.883599826388e+01   1.944044991714e+01 
1  8.385449260353e-01  -4.013770811078e+01  -1.151651484924e+02 
1 -4.879832640341e+01   4.806770561405e+00  -2.611986452983e+01 
8
Step 42000
1  1.253603360436e+00   1.110238683914e+01  -5.826122112997e+01 
1 -1.042469393976e+01  -5.296794496098e+01  -4.076602404466e+00 
1  5.001192995065e+01  -5.878525396259e+01  -1.594510685618e+01 
1 -4.035517739781e+00   3.344115588856e+01   4.292065057421e+01 
1  1.379576650055e+01   1.099837017362e+02  -4.310522506598e+00 
1  6.175848700718e+01  -5.134723116971e+00  -7.935511431369e+01 
1 -1.103646418059e+01   9.842784157273e+00   3.846608195426e+00 
1  2.635251658264e+01  -3.388625753541e+01   4.534964388114e+01 
8
Step 43000
1 -1.136500178931e+02  -2.394330021643e+01   3.427280918717e+01 
1  8.016522146457e+01  -1.281092919034e+01  -5.838646581846e+01 
1 -5.031851749391e+01   3.866197326213e+01   7.021065880823e+01 
1  3.432876545451e+01  -3.202942103740e+01   1.050986999674e+01 
1 -2.016750458275e+01  -3.713143519143e+01  -2.259277817512e+01 
1  1.351934478641e+01  -2.105990482927e+01  -4.415235899774e+01 
1 -1.940630328095e+01  -3.135331912634e+01  -4.332591479554e+01 
1  3.637257074534e+01  -1.795941209183e+01  -1.841469835942e+00 
8
Step 44000
1  8.362671172734e+01   1.965099294662e+01  -6.099299255466e+01 
1 -5.261870464558e+01  -4.383705673157e+01   1.291344887907e+01 
1  4.288786911679e+01   1.091896195115e+01  -8.242966534448e+00 
1 -1.269316961016e+00  -8.979771313549e+01   1.021308847089e+01 
1  4.837148686659e+01   3.636348560983e+01   7.017643871481e+01 
1  1.083862749795e+02  -5.268968089530e+00  -2.569775739810e+01 
1 -2.552125244210e+01   1.956552507094e+01  -7.288662910254e+01 
1 -6.950679774395e-01  -3.708759145524e+01  -1.252074762910e+01 
8
Step 45000
1 -3.122126041990e+01  -7.246368691698e+01   1.796587528896e+01 
1  3.944934543122e+01  -5.747079486438e+01  -4.624347028699e+01 
1  2.849283822401e+01   1.148949220826e-01  -5.169811605734e+01 
1  1.032350810663e+02  -3.312144270012e+01   2.723444683915e+01 
1 -4.125886167080e+01  -2.892681360575e+01  -1.628061284659e+01 
1 -3.914309822623e+01  -1.687568724362e+01  -6.190125496262e+01 
1 -2.861157427792e+01  -1.518799434811e+01   6.748624936252e+01 
1  5.535683371497e+01  -1.839788700051e+01   1.056773574542e+01 
8
Step 46000
1  2.603081777506e+01  -3.484712435586e+01  -3.437102004337e+01 
1 -4.000610946613e+01  -6.838924009919e+01  -3.564053072877e+01 
1 -1.428222057922e+01   3.833796521844e+01   8.124051907967e+01 
1 -9.552035572848e-01   1.273543410959e+01   1.310902172555e+01 
1  7.365846773964e+01  -5.114100560164e+01   3.756293821438e+01 
1  3.396305123629e+01   3.319449959414e+01  -2.864218347528e+01 
1  3.248837945187e+01  -2.195571827658e+01  -9.131067854326e+01 
1 -1.798621188581e+00   4.604163152404e+01  -3.378733443825e+01 
8
Step 47000
1  1.326818458260e+01   2.323956989888e+01   1.788222607983e+01 
1  1.580332598059e+01   6.971532245424e+01   5.869378282931e+00 
1  3.773852092022e+01  -3.106808448896e+01   4.442020272485e+01 
1  2.281641969348e+01   4.695709198448e+01   6.226365478868e+00 
1 -6.109197992359e+00   4.502626983171e-01  -3.084506596227e+01 
1 -3.991013340491e+01   1.489757777083e+01  -6.113144093107e+01 
1 -1.951585387756e+01  -2.306849032638e+01   2.600365988324e+00 
1  3.311952849976e+01  -1.187296859295e+01  -2.260720122145e+00 
8
Step 48000
1 -7.773098005311e+01  -6.005904803236e+01  -3.212252684339e+01 
1  2.283662705070e+01  -3.956414454263e+01  -5.032252081452e+01 
1  3.229114762662e+00   2.360315881180e+01  -4.240830376839e+01 
1 -4.761955862113e+01   4.698205371679e+01  -1.384895512074e+01 
1  7.236150528961e+01  -1.118963090797e+02   7.353963247113e+00 
1  2.045194269288e+00   6.809750257800e+01   7.384877082128e+01 
1  3.341965131249e+01  -7.855076129354e+01  -2.568336052659e+01 
1 -4.585767668096e+00   5.263062527906e+01  -1.192258287431e+01 
8
Step 49000
1  4.309889968906e+00   1.213970744735e+01   3.811862772169e+01 
1 -1.878812189079e+01   4.683532613949e+01  -3.799445927416e+00 
1  1.025678578699e+02  -3.683344614716e+01   3.986732925627e+01 
1 -2.802394087520e+01  -3.153443235806e+01   3.666933596836e+01 
1 -1.589052906439e+00  -4.913089042323e+01  -2.102587650268e+01 
1  2.345630023265e+01  -5.541345795733e+01  -2.442684209277e+01 
1  1.274873090918e+01   8.200299950254e+00  -4.382785963744e+01 
1 -3.107412193515e+01  -1.274181343849e+01  -3.818342033648e+01 
8
Step 50000
1 -4.150859989712e+00  -5.765717669897e+01  -5.222796556216e+01 
1  1.060294704311e+02  -5.086563133279e+01  -3.170328644917e+01 
1 -2.370282545839e+01   5.292040620668e+01   1.751741347404e+01 
1 -9.917528310204e+00   4.823423129677e+01   4.387487769965e+01 
1  8.120916571406e+01   1.172873600778e+01  -2.821087258305e+01 
1 -1.100982545488e+00   4.953141115955e+01   1.890617730368e+01 
1 -2.263217369140e+01  -3.755827727746e+01  -5.171277589233e+01 
1 -3.586770220471e+00   1.797726451714e+01   4.506823900614e+01 
8
Step 51000
1  4.866707084297e+00  -7.003237456534e+00   4.696282789176e+01 
1 -2.183614196547e+01  -6.973808938207e+00   3.442483499608e+00 
1  2.515584622501e+01   6.819030837515e+01   5.998142440755e+00 
1 -8.409134451767e+01   4.308593554277e+01   1.573232201284e+01 
1 -3.746636716244e+01   6.408335153976e+00   1.922602168738e+00 
1 -1.114545910740e+00  -2.959749831899e+01  -7.831028542225e+01 
1 -4.926180086227e+01  -2.628394218611e+01  -5.374866427417e+01 
1  5.552908724607e+01   2.445133546048e+01   6.415418547044e+01 
8
Step 52000
1 -1.911632344126e+01   1.652729661733e+01   1.093694779963e+01 
1  2.712154495262e+01  -9.430430205856e+00  -5.028903566510e+01 
1 -3.925792233812e+01   4.845878856752e+01   5.554699564084e+01 
1  1.668843359416e+01  -1.157867433840e+01   3.782687219564e+01 
1 -2.434725158062e+01   1.355820762085e+02  -5.427905336281e+01 
1  5.682583440727e+01  -1.684123809725e+01   1.237196616675e+01 
1  1.668596848772e+01   4.771526576826e+01   4.835089666509e+01 
1 -5.114957007077e+01  -7.206668337040e+01  -7.389423816630e+01 
8
Step 53000
1 -3.615133596473e+00   3.193445877968e+01   4.225901601201e+01 
1 -3.921392517007e+01  -3.582332101021e+01  -2.471231686235e+00 
1  7.120116074125e+01   5.924025552361e+01  -6.298231879030e+01 
1  3.126199622894e+01  -1.316296498299e-02  -3.056306857032e+01 
1 -2.266375097746e+01   3.776370590228e+01  -4.093623066829e+00 
1 -1.528688085508e+01   3.530522956564e+01  -5.751264894261e+01 
1 -7.502840557035e+01  -8.834681347755e+01  -1.774219445659e+01 
1  2.913611049034e+01  -2.466670269751e+01   1.684767950959e+02 
8
Step 54000
1  2.222116264957e+01  -3.760832955230e+01  -6.906770814873e+00 
1 -2.996335378131e+01   8.246341805602e+00  -5.557572402078e+01 
1 -1.526584610803e+01   5.073436596732e+01   1.851593832650e+01 
1 -6.116972559368e+00  -1.877386675330e+01   3.321701345560e+01 
1 -3.851881818700e+01  -6.815621250172e+00  -3.152613810356e+01 
1  3.722304525300e+01  -3.333389326037e+01  -6.654991403504e+01 
1 -1.389084082951e+01   2.660202081622e+01   1.009158427501e+02 
1 -1.150139973309e+01  -5.068077927171e+01   6.047885434189e+00 
8
Step 55000
1  4.245721858538e+01   8.866580076288e+01   4.066638165981e+01 
1  2.970968371132e+01   9.120148016991e+00   9.281986251035e+01 
1 -2.564466222591e+01   5.936250358445e+01  -2.053314659572e+01 
1 -1.952607324111e+01   1.669113410767e+01   2.753194672561e+00 
1 -2.702631297985e+00  -2.909934563897e+00  -3.763522491128e+01 
1 -3.295933925602e+01   9.949872389854e+01  -1.365051636531e+01 
1  3.987756937055e+00  -4.624164204512e+01  -1.095439364875e+01 
1 -9.763277052193e-01   2.886693449503e+01   2.741452629409e+01 
8
Step 56000
1 -4.536496770082e+01  -6.020375062147e+01  -2.182393740728e+01 
1 -6.052884324209e+01   5.651789012468e+01  -4.918314527470e+01 