8
Step 0
1  2.130326814812e+00   3.841428738278e+01  -3.900125211552e+01 
1  3.567597752465e+00  -3.504277063756e+01   3.861701022475e+01 
1  6.258847992801e+01  -7.076539324116e+01   6.450599359103e+01 
1  5.978855273526e+01  -4.628740992298e+01  -3.331699604665e+01 
1  5.663920321690e+01  -5.214564811192e+01   5.649937483509e+01 
1 -4.885508989697e+01   7.742773658779e+01   3.518899981800e+01 
1  3.981944038262e+01  -7.472662646084e+01  -5.860625198879e+01 
1 -7.332626035848e+01  -1.421247514719e+01  -1.259120980933e+01 
8
Step 1000
1  9.035710229042e+00  -3.699812039903e+01  -3.820897415191e+01 
1  4.945347348574e+00  -1.939674483146e+01   4.329412879025e+01 
1  2.127111746934e+01   3.108158839558e+01  -9.340431785006e+00 
1  6.374422140567e+00  -8.996947079884e+00  -4.207405644223e+01 
1 -7.935363069895e+00   1.705048346239e+01  -4.304516030776e+01 
1 -3.799477593382e+01  -5.317608148031e+01   4.122946749308e+01 
1  5.232996437628e+01  -2.159706275857e+01   1.061074751296e+01 
1  3.879226577155e+01  -1.024869398749e+01   2.145126586287e+01 
8
Step 2000
1 -1.733698110007e+01   9.396389376896e+00  -6.514671829016e+00 
1  1.914652309370e+01  -6.936155530456e+01  -7.999314763839e+00 
1  1.022847755424e+01   3.694619792537e+01  -2.325541050168e+00 
1  6.648955957052e+00  -4.959531473994e+01  -3.578540804194e+00 
1 -7.344726510342e+00   3.024744678056e+01  -1.535705359427e+01 
1 -1.551663165607e+01  -7.331900455475e+01   2.728704175195e+01 
1 -2.127111178195e+01   2.907424490998e+00  -1.503463420869e+01 
1 -2.261212776137e+01  -2.934010402480e+01  -1.744976988135e+01 
8
Step 3000
1  9.657481876333e+00   2.786627031138e+00   3.265823938704e+01 
1  3.104658942806e+01   8.730877632597e+00  -7.243964578581e+01 
1 -8.919828715852e+00   2.346454754684e+01   1.009887640526e+00 
1  1.259447716908e+01   5.812066127218e+01  -1.185306188138e+01 
1 -3.946091726326e+01  -1.331074702474e+01   1.102312801137e+01 
1 -5.775433213656e+00  -5.675667995228e+00   1.039243764991e+01 
1  1.069937520035e+01   1.574179141599e+00  -1.639317880696e+01 
1  3.175838582114e+01  -4.031758251995e+01  -3.425789558835e-01 
8
Step 4000
1  1.175733662565e+01  -6.348734401053e+00   4.452394366701e+01 
1 -2.687705540041e+01   7.941224552452e+00   3.130538281819e+01 
1 -3.088473911747e+01   1.469192800430e+01  -3.902621213606e+01 
1  3.959126974330e+00   5.607123912984e+01   1.509825586534e+01 
1  2.037896963445e+01  -6.428253445569e+00   9.040160129743e+00 
1 -1.065596578707e+01   2.822715890062e+01  -2.868176398301e+01 
1 -3.829161340186e+01  -2.653779239943e+01  -4.511184701395e+01 
1  1.888468130941e+01  -1.069596958239e+01  -1.180074229132e+01 
8
Step 5000
1 -3.291285752168e+01   3.762456797969e+01  -5.868495746194e+00 
1 -1.298328285494e+01  -7.598273509609e+00   5.972367686768e+00 
1  2.085447800789e+01   3.111443195368e+01  -2.448293651494e+01 
1 -4.995983352921e+01  -3.901079438263e+01  -7.348151955779e+01 
1  1.859646514046e+01   4.688940743400e+00   2.897193517027e+01 
1 -2.088533342959e+01  -2.722532941232e+00   2.457129241695e+01 
1 -5.281838717782e+00   9.642212226187e+00  -6.156238987677e+00 
1 -1.410874222617e+01   5.214341994762e+01  -9.984511229610e-01 
8
Step 6000
1 -2.794860242084e+01  -9.977749169838e+00   5.889289898816e+00 
1 -4.648156595117e+01   4.598647896823e+01   4.635628154927e+01 
1 -4.881860080806e+01   3.160292461798e+01   1.874671631454e+00 
1  2.055311313518e+01  -9.600149758395e+00  -4.355443784824e+01 
1 -5.373741735501e+01   5.082585856290e+01  -1.135356888774e+00 
1  1.600493580435e+00  -2.784162065751e+01   1.642807024888e+01 
1  2.236702693556e+00   1.368977025045e+01  -1.987480997172e+01 
1  2.108328551239e+01   8.282665423976e+00   9.086653846751e+00 
8
Step 7000
1 -4.110214244011e+01   3.702583265501e+01   3.030596061571e+01 
1  2.164883836454e+00   3.374720187216e+01   1.214888947327e+01 
1 -4.628398241512e+01  -2.659485642018e+01  -4.314312136273e+01 
1  1.986742941387e+01  -1.146485287540e+01   2.166599328721e+01 
1 -2.236519307695e+01  -6.631795539699e+00   1.782999990068e+01 
1 -5.408605627869e+00   5.568564851869e+01   1.430738561897e+01 
1 -1.617847987637e+01   6.413746464790e+01   4.299010279757e+00 
1  1.830375572898e+01   2.559823262745e+01  -1.376025287511e+01 
8
Step 8000
1 -5.989773230052e+01   1.625242399330e+01   2.667232735709e+01 
1 -1.977681760502e+01   2.436326634899e+01   1.019310737374e+01 
1  2.024331779700e+01   7.935075207909e+00   2.774827931413e+01 
1 -2.091267779972e+01   2.598268581401e+01   2.840074741328e+01 
1  3.412846805486e+01  -5.396386183556e+00  -2.002988333966e+01 
1 -5.931369097063e+01   5.306223434870e+01  -2.259338483240e+01 
1  3.790705364118e+01   3.518421575002e+01  -1.466706610936e+00 
1  2.007942869509e+01   1.791497087493e+01   1.408086159807e+01 
8
Step 9000
1 -5.661221541001e+01   2.666759376438e+01   4.776890294374e+00 
1  1.633977543756e+01  -1.951717031409e+00   2.087423630500e+01 
1  7.620258120186e+00  -8.570535700615e+01  -2.011211429751e+01 
1 -6.522932717315e+01  -2.017908765890e+01   1.678409484757e+01 
1 -1.813060734173e+00  -1.081454221633e+01   1.212030513331e+01 
1 -4.419992420233e+01  -7.297580957201e+00   1.846513889309e+01 
1 -1.989314175338e+01   3.582798155117e+01  -3.866224133759e+01 
1 -1.523197199231e+01   5.834213703885e+01   4.405856392121e+01 
8
Step 10000
1 -7.988374607487e+01   4.420759763200e+01  -1.597510720016e+01 
1  3.509537289855e+01   2.560870550004e+01   2.081294896771e+01 
1  6.004837088997e+01  -1.607531540128e+01   5.405032144242e+01 
1 -6.551309450211e-01  -4.490115580387e+00  -6.290379502264e+00 
1 -1.264664904930e+01   4.482209203271e+00   6.921833488503e+00 
1  4.035155772462e+01   2.036147352770e+00  -7.656228871283e+00 
1 -2.154899931257e+01   1.527087155087e+01  -2.871993969345e+01 
1  2.994779087478e+01   5.213197201239e+01   4.192359098752e+01 
8
Step 11000
1 -9.068508750054e+00   4.750860278359e+01   4.283824958552e+01 
1  2.848503732838e+01  -1.667775708395e+01   5.323061944081e+00 
1  4.194625390743e+00  -2.789828096229e+01   3.143131654540e+01 
1 -3.887279888396e+01  -6.319985198602e+00   3.504938592562e+01 
1  2.341130265312e+01   2.045645011332e+01   3.410307851372e+01 
1  1.161352447448e+01   1.979301744739e+01  -8.467422581595e+00 
1 -3.747843251344e+01   3.585856951069e+01  -3.013294888823e+01 
1 -6.456560132962e+00  -2.485002228673e+01  -4.994219726003e+00 
8
Step 12000
1  3.599440029840e+01   4.241418294741e+01   2.696085652027e+01 
1  1.049793077361e+01   2.159743375750e+01  -1.475614407075e+01 
1  2.626873394076e+01  -3.790055589189e+01   4.051885289461e+00 
1 -1.216683908930e+01  -4.209437437546e+01   5.976126153589e+01 
1  3.015545273700e+01  -1.567506119885e+01   1.278782831829e+01 
1  3.955114097198e+01  -4.934234915314e+00  -2.135622389675e+01 
1 -2.475818623513e+00   8.278072500806e+01  -1.366790863604e+01 
1 -1.724621648329e+01  -5.798464107666e+00  -2.111094840678e+01 
8
Step 13000
1  1.067012685508e+02  -4.739737218704e+01   2.021928880251e+01 
1 -6.690903339443e+01   2.837805538101e+01  -2.358712031254e+01 
1  3.404070525934e+01  -8.050624450812e+00   2.430136423730e+01 
1 -1.466341315005e+01  -1.255227549325e+00  -6.362848772169e+00 
1 -1.140726036778e+01  -5.038477018469e+01  -1.779472544680e+01 
1  6.934007791381e+00  -6.027184536915e+00  -3.865368160365e+01 
1 -2.004927908962e+01  -3.077862656722e+01   2.004877747179e+01 
1 -2.279602344829e+01  -2.386739583432e+01  -3.158448563499e+01 
8
Step 14000
1  6.720733891311e+01   1.320171992520e+01  -1.046592819823e+01 
1  1.521928568849e+01  -1.075883343094e+01   2.790375603621e+00 
1  3.967917040936e+01  -4.825778774279e+00   1.877987551220e+01 
1 -4.691693329282e+01   5.089700378708e+00   1.876156532976e+01 
1  5.721018958683e+01  -4.084968619118e+01   8.853693586922e+00 
1  3.561119629775e+01   3.468616009757e+01  -1.694431975609e+00 
1  2.044695413422e+01   1.120693481582e-01  -1.384176678447e+01 
1  2.313586637293e+01   3.153900021132e+01  -3.052238955380e+01 
8
Step 15000
1 -5.820843456009e+00  -4.023613275551e+01   4.364317898054e+00 
1  8.793577449238e-01   8.943516995781e+00   2.596411835085e+01 
1  3.849097286890e+01   3.224612117769e+01   2.478168539858e+01 
1  2.065074943358e+01  -7.195647536808e-02   1.224252001687e+01 
1  2.881345092311e+01   1.766404185568e+01  -5.299018605997e+01 
1  1.573365056279e+01  -1.125714006355e+01  -1.718157746265e+01 
1 -1.037431163505e+01  -2.770067457848e-01  -4.910907071196e+01 
1  1.151889333107e+01  -2.303730454471e+01   2.118162401862e+01 
8
Step 16000
1  2.035416182676e+01  -2.861317904997e+01   1.222734079783e+01 
1  1.500739982075e+01  -4.349385822731e+01  -4.632485020261e+01 
1  2.148351801740e+01  -1.301609716376e+01   4.074656473000e+00 
1 -1.344227452768e+01  -2.331223752665e+01  -8.660093915226e+00 
1 -2.316506601529e+01   9.660321303480e+00  -3.099293108829e+01 
1  2.951522413471e+01  -2.487618954747e+01  -5.119210174520e+01 
1  5.834201392644e+00   2.648606023400e+01  -4.046047003310e+01 
1 -3.634188461804e-01  -4.395145457709e+01  -1.631185996103e+01 
8
Step 17000
1 -1.155347825219e+01  -3.623939316552e+01   1.260982721475e+01 
1  5.372232952679e+01  -2.726422634362e+01  -4.438446643317e+01 
1  2.920106448432e+01   1.886000589916e+01  -4.658874609032e+01 
1  1.762629763829e+01   5.961027656758e+01  -3.462193910606e+01 
1  3.749567448102e+00  -2.267094861719e+01  -4.512950237635e+01 
1 -1.249911577862e+01  -3.883096221564e+01  -3.658560496872e+01 
1  3.950724537646e+01   1.375702857918e+01   3.273433343762e+00 
1  1.415849178853e+01  -2.419239754470e+00   2.877951413686e+01 
8
Step 18000
1  3.846941090061e+01  -4.819515171443e+01  -7.543004628405e+00 
1 -4.689283498117e+01   1.295153846185e+01   6.245879823249e+00 
1  5.421694617686e-02  -1.624432364322e+01  -2.336435386584e+01 
1 -7.403728195402e-01   1.707541695441e+01  -1.288754559115e+00 
1 -1.028148399112e+00   3.323511166695e+01  -3.970753342455e+01 
1  6.731415839388e+00   5.620854826786e+00  -5.351807277940e+00 
1  2.822446831942e+01  -9.266975597140e+00  -2.520772108022e+01 
1 -7.226618370626e+00   2.814571275881e+00   4.125823020420e+00 
8
Step 19000
1  7.791801703047e+00  -9.344428303396e+00  -3.482311830190e+01 
1 -3.212306933951e+01   1.237547623589e+01   6.393601915886e+00 
1 -1.882722189301e+01   8.391602005549e+00   1.571242196963e+01 
1  3.357152105272e+01   4.758930790060e+00  -4.027587907610e+01 
1 -8.512980228247e-01   2.129854235466e+01   1.953672477041e+01 
1  4.832860582968e+01   1.172729489086e+01   5.926355394576e+00 
1 -1.115041892669e+01   1.779596053368e+01  -6.318825699689e+00 
1  2.022296415715e+00   1.574159258226e+00  -5.546228757720e+01 
8
Step 20000
1  7.024148991074e+00  -2.733196641424e+01  -3.781707022630e+01 
1  1.398801163548e+01  -7.896853933137e+00   3.584850657595e+01 
1 -8.619188668005e+01   1.140597507111e+01  -3.122275956836e+01 
1  1.878493299040e+01  -3.124619760313e+01  -6.286707876153e+01 
1  2.281483088378e+01  -3.888185095869e+01   3.320798222423e+01 
1 -5.459726070829e+01   2.635429632565e+01  -1.538838337468e+01 
1 -6.056359714578e+01   3.616895615578e-01  -2.261310208081e+01 
1 -1.083630399332e+00  -2.479605292316e+01  -4.220128933229e+01 
8
Step 21000
1  3.701528606640e+00  -1.193761351672e+01  -1.021456043778e+01 
1 -1.671443505621e+01   2.931144091858e+01  -4.215149733790e+01 
1  3.987664996827e+01   2.159316105272e+01  -4.839134609186e+00 
1  1.431653397625e+01   1.941773666307e+01   5.220620366594e+00 
1 -9.750965414307e+00   7.594497961332e+00   1.031456993492e+01 
1  1.083579700234e+01  -3.813205505693e+01   4.336147171492e+01 
1  4.618210197185e+01   2.233540066308e+01   6.609204569734e+00 
1 -1.136644605302e+01   5.369999135288e+01  -2.061814608780e+01 
8
Step 22000
1 -5.283735390671e+01  -2.701735918556e+01  -1.679876894144e+01 
1 -4.801840711041e+00   2.081841847762e+01   2.167336842177e+00 
1  5.229065845027e+00   1.577360834100e+01   2.855800694309e+01 
1  5.618438745030e+01  -5.267049353506e+00   5.813994334154e+01 
1 -4.557404152520e+01  -1.612433242163e+01   4.181738451924e+00 
1  1.655660418568e+01  -4.317722990974e+01   3.672625002495e+00 
1  5.167701369582e+00   5.284112339414e+01   2.711766188259e+01 
1 -7.499777716592e+01   4.890436980775e+01  -4.963915426790e+01 
8
Step 23000
1 -1.692457403808e+01   2.547222838977e+00  -6.703663309159e+00 
1 -3.613083009169e+01  -5.913506128685e+00   3.503521603509e+01 
1 -1.786764392869e+01   5.336310169511e+01  -1.423988941062e+00 
1  5.676358135091e+01  -1.471454645429e+01   2.283197894322e+01 
1  4.041758003109e+00   3.769666259605e+00  -7.961221415512e+00 
1  1.589694259153e+01   2.527048996396e+01   2.256901840785e+01 
1 -1.102591919772e+00  -9.636260870071e+00  -1.425812734775e+01 
1  6.885759765759e+00  -2.345513750629e+00  -2.764265466636e+01 
8
Step 24000
1 -1.035009319903e+00   2.419241868271e+01  -1.397036114682e+01 
1 -1.357557219587e+01  -1.726532079199e+01  -9.807951771859e+00 
1  1.917538918300e+01  -4.885686147498e+01   1.875017968850e+01 
1 -2.263649346906e+01  -5.012567838388e+01  -1.833120180432e+01 
1 -1.358396765667e+01   2.495697458380e+01  -3.381331901636e+01 
1 -3.657960049850e+01   5.652547119758e+00   6.818144596110e+01 
1 -1.464097371320e+01  -1.096408515829e+01  -8.569119425951e+00 
1 -5.841347642605e+00   7.284475167803e+00  -8.503566002833e+00 
8
Step 25000
1  6.109183632355e+00  -1.138283997423e+01  -2.857260802481e+01 
1  3.732791465820e+01  -5.470323069726e+00   6.304022572976e+00 
1 -3.624771976088e+01  -1.482207170707e+00   1.557063294117e+01 
1  1.860421279479e+01   3.573577671440e+01  -5.407002837311e+00 
1  2.483963445552e+01  -7.663638523608e+00   5.420006154446e+00 
1  1.946018847863e+01   4.501681711161e+01   3.957247552508e+01 
1  2.538055021435e+01   3.196591165635e+01   3.528740966449e+01 
1  2.786720581324e+01  -5.230088448946e+01   5.290205935099e+01 
8
Step 26000
1 -4.467530785705e+01   5.216979395357e-01  -8.043543390621e+00 
1  2.772439942131e+01  -2.639721880276e+01  -1.210295767627e+01 
1  3.290578481379e+00  -5.574549678359e+00   2.011666000120e+01 
1  1.497434869934e+01   1.136546815055e+01  -6.789928288672e+00 
1 -2.045690098590e+01  -2.778280725793e+01  -7.669615472181e+00 
1  4.172599911328e+01   5.062885341046e+01   2.240236035766e+01 
1  2.422011441375e+01   2.675489236386e+00   5.580647663219e+01 
1  1.695560768952e+01  -2.487398385449e+01   2.115013099783e+01 
8
Step 27000
1 -9.925798957138e-02  -4.694725388852e+01  -1.562795812034e+01 
1  2.287082598962e+01   2.389364129008e+00   6.729605409474e+01 
1 -1.851139959330e+01  -7.254361247754e+01  -2.542738997164e+01 
1 -4.008065091090e+01  -2.677182432620e+01  -1.406009126514e+01 
1 -1.912037705461e+01   4.208417173215e+01  -4.309157503047e+01 
1  3.054625386535e+01  -9.932885265022e+00  -3.712512297702e+01 
1  3.097577548170e+01  -5.988301251472e+01   2.760192773891e+01 
1 -7.413930670931e+01  -3.317868685274e+01  -2.454436310274e+01 
8
Step 28000
1  2.083278821536e+01  -2.745835345648e+01  -7.368710656739e+01 
1  3.095903489063e+01  -2.117066461223e+01   9.643501349618e+00 
1 -1.837569767209e+01  -2.092985277906e+00  -1.352271010672e+01 
1  1.789880488680e+01  -6.985642377294e+00  -1.784110169951e+01 
1 -2.629495111777e+01  -5.503732326043e+00   3.994705798560e+01 
1  3.097035154589e+01  -7.530793290034e+00   1.317261390567e+01 
1  4.473614849122e+01  -2.317516895103e+00   1.694311788678e+01 
1  1.516078189576e+00  -4.444738689766e+01   2.739274433322e+01 
8
Step 29000
1  2.458133417446e+01   1.306541703653e+01   2.661087604647e+01 
1  3.209597061470e+01  -2.137388768033e+01  -1.057323015320e+01 
1 -1.658951261245e+01  -5.094734609447e+01   4.390119247892e+01 
1 -5.126607629780e+01  -5.543549866912e+01  -2.818945105751e+01 
1 -2.757701651850e+01   8.054503422466e-01  -5.466929470342e+01 
1  4.058108529008e+01  -3.649534613062e+01   3.592044227542e+01 
1 -3.492330608537e+01  -3.208147832571e+01  -4.387887559184e+00 
1  2.417281119822e+01  -1.051479187447e+01   4.325266635803e+00 
8
Step 30000
1 -1.293865239539e+00  -5.836054602494e+01  -4.179315414057e+00 
1 -2.816687573635e+01   2.811763980576e+01  -1.278483981544e+01 
1 -2.166245534958e+01  -6.571699790742e+00   6.061487632425e+00 
1  1.491350716512e+01  -1.106375700674e+01   7.001258733444e+01 
1  3.077141125511e+01   9.291840091915e+00  -4.025558699173e+01 
1  3.868265733648e+01  -6.386619750190e+01  -1.607819842932e+01 
1  1.813662508970e+01  -2.977906032151e+01  -3.019435611932e+01 
1 -1.467627624413e+01   1.564831188671e+01  -1.699718529375e+01 
8
Step 31000
1 -1.649844019582e+01   4.658261385856e-01   7.036299724066e+01 
1 -1.979126775895e+01  -2.157796937324e+01   1.224352825060e+00 
1 -4.387962064267e+01  -4.893348109914e+01   1.850194384295e-01 
1  3.062123614476e+01  -4.257801279235e+01   3.132410485086e+01 
1 -3.513651398228e+01  -7.461747304022e+01  -4.559893877761e+01 
1 -2.844438767346e+01  -2.696106872825e+01  -5.886569845305e+01 
1 -5.223435399330e+00   1.606229632492e+00  -4.384490190936e+01 
1 -5.001549021779e+01  -3.191276549178e+01  -5.610138690268e+01 
8
Step 32000
1  4.272447551789e+01  -1.379200768655e+00  -3.267307566820e+01 
1 -2.001916501838e+01   9.978913045720e+00   7.551391372569e+00 
1  8.797269289631e-01  -2.415706159736e+01   6.041794913931e+01 
1 -6.491612138383e-03   1.694717989229e+00  -3.795861570150e+01 
1  1.532516277164e+01  -8.356378613829e+00   2.044553858974e+01 
1  2.022799263167e+01   1.437731618372e+01   2.644991909088e+01 
1 -2.784583739550e+01  -3.914875701396e+01  -2.290862872626e+01 
1 -9.817381864894e-01   2.022532544712e+01   1.879274111402e-01 
8
Step 33000
1 -4.762454421457e+01   3.857103620227e+01   1.994676261094e+00 
1 -3.349776363104e+01  -2.216649078867e+01  -4.804280034382e+00 
1 -1.251039332526e+01  -2.999834731675e+01   3.116289511401e+01 
1 -1.987861185493e+01  -4.285273472138e+01   2.880589667115e+00 
1  1.239384157996e+01  -1.244979001600e+01   1.925293557452e+00 
1 -3.382857730979e+01   2.683293592307e+01  -1.678128431422e+01 
1 -4.978778378374e+00   9.016307147762e+00  -1.586768861296e+01 
1  3.124597190922e+00   2.076175337461e+01   1.544746583529e+01 
8
Step 34000
1 -5.492226577671e+01  -1.899564304466e+01   1.593017598190e+01 
1  9.431997454562e+00  -1.273881950840e+01   2.658056205830e+01 
1 -6.308809832852e+00   7.977617067523e+00  -2.171195997567e+01 
1 -3.070185142077e+01   6.442381905352e+00  -9.361077870625e+00 
1 -4.336580176016e+01  -2.633489356667e+00  -1.267122689395e+01 
1 -2.365337336020e+00   5.418322425119e+01  -1.175604801782e+01 
1  1.426588414737e+00   4.474749255860e+01  -2.133943370240e+01 
1 -1.095344985262e+01  -3.605338214202e+01  -5.564503011739e+01 
8
Step 35000
1 -6.978779004560e+01  -3.296521752074e+01   8.450101097408e-01 
1 -5.265742364409e+01   2.694077593299e+00   1.112706343676e+01 
1 -5.155423914322e+00  -6.635529077202e+00   3.102697827505e+01 
1  9.777797545593e+00   1.984134262206e+00   2.858409443378e+01 
1 -2.418667767249e+01   2.852584315009e+01   1.320717818509e+01 
1  9.250204903284e+00   5.742455849518e+01  -2.045330832602e+01 
1 -2.450524181630e+01   2.187093012799e+01  -2.804899617011e+01 
1  3.884638503766e-01  -4.214328062307e+01  -5.960115359455e+00 
8
Step 36000
1  1.672457567856e+01  -2.500470054005e+01  -3.024225695667e+01 
1 -1.420579498112e+01   2.790885670291e+00   3.007573879663e+01 
1 -1.582030216770e+01   2.557424334035e+01  -4.075645539371e+01 
1  2.469756683098e+01   6.501663847620e+00   1.197716801630e+01 
1 -6.482403530653e+01   7.472390455623e+01  -6.530157144095e-01 
1 -4.380543652631e+01   5.696256623106e+01   1.568184358012e+01 
1  3.990888952755e+01   1.938307812746e+01   7.507222748751e+01 
1 -2.886132551973e+01  -1.847172695089e+01   2.877489422787e+01 
8
Step 37000
1 -5.766130566061e+01  -2.613000501023e+01  -5.777145399033e+01 
1 -6.054035747309e+01  -1.769486980944e+00   8.230179733991e+01 
1 -3.903591004666e+01   8.525654924795e+00   3.874470624426e+01 
1  2.235602798030e+01   7.161310456882e+01  -2.366786175180e+01 
1  4.368857851311e+01   2.017900315371e+01   3.599522411768e+01 
1  2.374591596348e+00   6.552990005238e-01   2.609064970001e+01 
1  1.454255449517e+01   4.758007338747e+01   4.679037114812e+00 
1 -1.873059775207e+01   4.287638165293e+01  -1.012524947253e+01 
8
Step 38000
1 -5.222212123706e+00  -3.177602259105e+01   3.769507982065e+01 
1 -5.828056754907e+01   6.546942784831e+00  -7.506641808255e+01 
1 -2.200151958279e+01  -1.326140213469e+01   3.515247302602e+01 
1  7.021224480799e+00   4.555087038409e+01  -3.405447244953e+01 
1  1.167999418212e+01   1.638548402726e+00  -2.503507165452e+01 
1  2.349095340925e+00   3.056802343280e+01   7.471651996631e+00 
1 -8.457217115295e+01  -2.836930655570e+00  -8.475959048241e+00 
1 -8.303102291429e+00   1.671469812138e+01   5.080032435971e+01 
8
Step 39000
1 -1.861007637927e+01  -4.291488826921e+01  -1.000013264402e+01 
1  2.615996557514e+01   4.255385851361e+01  -1.419332185319e+01 
1  2.636976111315e+00   4.529971043571e+01   1.936340009649e+01 
1  4.420431788876e+01   1.613557551991e+01   6.655629117249e+01 
1  2.131745795069e+01  -7.720000228458e+00   2.716370137300e+00 
1  5.431091932546e+01   3.173908337591e+01   4.398800975851e+01 
1  4.096486384888e+00  -6.936110547639e+00   2.535698452167e+01 
1 -2.323152533576e+01   6.565509726061e+01   3.210670679228e+00 
8
Step 40000
1  3.608659937277e+01  -6.660577760114e-01  -1.323845693988e+01 
1 -2.899918855413e+01   6.880364588233e+01  -1.183854815383e+01 
1  1.579058002378e+01   1.947610043093e+01  -6.982087666918e+01 
1  1.910820395787e+01   1.033368274879e+01   6.673120413351e+00 
1  2.185628713017e+01  -2.053235967086e+01   2.599297461836e+01 
1 -1.373475226084e+01  -1.622776573233e+01   3.608429513042e+01 
1 -1.071199847076e+01   3.790737275439e+01   3.148414824280e+01 
1 -2.468513122478e+01   1.924486492656e+01   9.199666470510e+01 
8
Step 41000
1  3.429259639427e+00   1.001886134676e+01  -2.264020700742e+00 
1  1.119581064910e+01   6.617004445988e+01   1.648647469977e+01 
1  1.727082431493e+01  -3.707045571408e-01  -5.567813662919e+01 
1 -1.298168209635e+00  -2.060657857873e+01   2.381500787305e+00 
1  3.706786278021e+01  -9.812370734139e+00   1.368176412943e+01 
1  5.664319487084e+00  -3.234932266965e+00  -1.266803381276e+01 
1  3.064527682612e+01   1.820909453052e+01  -2.783960986326e+00 
1  1.722795313257e+00   3.337904420727e+01   5.172392819866e+01 
8
Step 42000
1 -6.711395432605e+01   2.379744113799e+01  -1.338622823305e+00 
1  4.998379656382e+01   2.941121882587e+01   2.656785404887e+01 
1  1.463279244125e+00   2.762069635887e+01  -4.778191584193e+01 
1  1.511022748660e+01  -1.818384762933e+01  -2.898027067413e+01 
1  1.232503300102e+00  -2.729939175494e+01   5.431097685251e-01 
1 -3.103015503015e+01  -2.599283607068e+01   1.175054491523e+00 
1  1.542155940923e+01  -6.396817336746e+01   5.821434695524e+01 
1  2.837649059348e+01   3.407172115632e+01  -1.732678928908e+01 
8
Step 43000
1  1.186248322273e+01   5.569209232402e+01   2.633120412956e+00 
1  3.198360291798e+01  -2.891231126507e+00  -6.535034939165e+01 
1  3.056644067075e+01   3.693652849371e-01   1.565076500422e+01 
1  4.369323589854e+01   3.137843454534e+01  -2.636907064286e+00 
1  3.815674968088e+01   5.298674261189e-01  -6.620195384171e+00 
1  4.916860721738e+01   3.072541680542e+00  -4.793761672023e+01 
1 -1.950056137879e+01   3.301980628587e+00   6.336908957930e+01 
1  5.602111268310e+01  -4.114521562062e+01   6.490429819334e+01 
8
Step 44000
1 -1.105740972928e+01   1.301855814968e+01  -5.283760868937e+01 
1  1.035803658123e+01   1.103847405959e+01  -9.098298234146e+01 
1  1.464989021962e+01   3.616767756421e+01   6.256174016265e+01 
1 -3.628435742471e+01   1.785430284245e+01   1.576839269303e+01 
1 -7.992785504971e+00  -5.610479870689e+00  -2.194003221759e+01 
1  4.135751327200e+01  -5.851439708894e+01   5.098775945783e+00 
1  1.996908228365e+01   1.439214768891e+01   4.451163683769e+01 
1  1.437708186937e+01  -5.589348716907e+00   3.248689425380e+01 
8
Step 45000
1  4.584783437690e+01   4.924841655558e+01   1.921334468948e+00 
1 -1.417497539915e+01  -3.896688105231e+01   8.789940677465e+00 
1  1.267656211876e+01  -5.797336823340e+01  -1.270249499939e+01 
1 -7.163646136944e+00  -1.495567340226e+01   3.469725814216e+01 
1  5.736479298088e+01  -1.840645312782e+01  -3.394077526222e+01 
1 -2.520915290055e+01  -2.245439327751e+01  -4.211719186262e+01 
1  5.061987219055e+01  -2.150512488079e+01  -4.034212961241e+01 
1 -4.034928101852e+01   4.313410094829e+01  -4.168012340996e+01 
8
Step 46000
1  1.563361164123e+00   1.026967566702e+01  -4.996400203620e+01 
1  2.619273741896e+01   2.241041779645e+01   5.470998294256e+01 
1 -6.206029190005e+00  -4.790786820145e+01  -9.250592734676e+00 
1 -1.367473156194e+00   5.214958426892e+00   4.114033295777e+01 
1  2.241293644156e+01  -5.198807845278e+01   3.352042404176e+01 
1  5.026200544603e+01   9.427786774042e+00  -2.815771306983e+01 
1  1.095831556018e+01   1.627645663413e+01  -2.732201722695e+01 
1 -1.972489133308e+01  -1.665595251263e+00  -7.633239046689e+00 
8
Step 47000
1 -1.066130205057e+00  -9.330565118882e+00  -1.186253633494e+01 
1  4.008348881160e+01   2.761480007294e+01   1.551142764846e+01 
1  2.165060303953e+01   3.941510907123e+01  -1.777207168373e+00 
1  6.166405300606e+01  -1.068033049150e+01  -2.448098114965e-01 
1 -1.907456890856e+01  -4.509302422033e+01   4.553192360219e+01 
1  2.721320894708e+01  -2.771562730225e+01  -7.329551428376e+00 
1 -4.782160199113e+01   1.610457244369e+01  -3.419789267345e+01 
1  1.242225661618e+01   1.907047291503e+00  -5.217284438132e+01 
8
Step 48000
1  3.407046380220e+01  -3.306552929416e+01  -3.762572306286e+01 
1  6.537342473035e-01   3.050360481917e+01  -1.694410874910e-01 
1  3.514748103746e+01   5.437432789837e+01  -1.575153763676e+01 
1 -1.543864054494e+01  -6.611955570469e+01   2.283792997090e+01 
1 -1.203552863045e+01  -3.688371458217e+01   3.092759101811e+01 
1 -8.657442014135e+00   2.404134507233e+01   3.348503648995e+01 
1 -1.815197813784e+01   1.856569880070e+01  -3.617503841868e+01 
1  2.527233118585e+01   2.991462508469e+01  -3.332889059127e+01 
8
Step 49000
1  2.771635467655e+00  -1.782530502937e+01   3.756528606580e+01 
1 -2.498577792977e+01   9.904763045922e+00   2.658311854488e+01 
1  2.367129027758e+01  -3.209831900131e+01  -8.883674106141e+00 
1 -3.611917144815e+01   1.233861223739e+01  -3.325209383335e+00 
1  2.199046644502e+00  -6.342044567865e+01   8.819633203211e+00 
1 -3.058399704614e+01  -2.236791101726e+01   4.981060536354e+01 
1  6.364868563040e+00   9.103127756814e+00  -6.684164508723e+01 
1  7.863161215911e+00   4.467892102671e+01  -1.289049257895e+02 
8
Step 50000
1  3.061280741519e+01  -5.411370228918e+00   2.685321202314e+01 
1 -3.249898959036e+00   3.990134128119e+01   4.633033061906e+01 
1 -6.431272500688e+00  -2.013392409652e+01  -3.645133142317e+01 
1  2.817515290591e+01   1.669529113122e+01  -1.739417458982e+01 
1  6.554945507230e+00   4.447040534549e+01   3.023174794486e+01 
1 -4.631613254638e+01  -2.294469530163e+01  -2.320794576232e+00 
1  2.561064884536e+01  -1.767400200970e+01   6.594841351060e+01 
1  2.798615849549e+01   2.063862197682e+01  -6.550050211615e+01 
8
Step 51000
1 -6.450267168119e+01  -6.411770129173e+01   1.437905178930e+01 
1 -4.958526183375e+00   7.392409424498e+01  -1.668806178962e+01 
1 -1.952126642537e+01   4.219793029572e+01  -2.581708229107e+01 
1 -4.117250293972e+01  -2.181209301330e+01  -3.937340691884e+01 
1  1.071417145344e+00   7.247450206747e+00   9.122617540097e+00 
1  1.128034723919e+01  -8.900936923897e+00  -3.445238122921e+01 
1  1.841718839897e+01  -1.071456884066e+01   5.012783192568e+01 
1  2.743875842865e+01  -2.601271938523e+01   1.597988496627e+01 
8
Step 52000
1  1.304304855074e+01  -1.542247760621e+01  -1.968625914941e+01 
1  1.773571272831e+01   1.385984895870e+01  -3.381674976120e+01 
1 -2.826342633519e+01  -9.489375621215e+00   4.161837106431e+01 
1 -3.508989373887e+01   2.265401554015e+01  -3.666474246929e+01 
1 -4.625193535691e+01   3.696357186085e+01  -1.253944422481e+01 
1  1.941312228899e+01   1.767551076080e+01  -4.229910192998e+01 
1 -7.202643888906e+00  -3.159812749677e+01   6.571895764900e+00 
1  4.125257214490e+01  -4.551818106206e+01   6.048056779220e+01 
8
Step 53000
1 -5.280335708347e+01  -2.876933763791e+01   3.547553309842e+01 
1 -2.999038401014e+01   4.554526503344e+01  -1.340883907687e+01 
1 -3.417717101587e+01  -2.817340898285e+01  -4.440869529947e+00 
1 -8.235620476284e+00  -5.736756301206e+01  -1.041756912061e+01 
1 -1.878837450832e+01  -2.870779569062e+00   5.399652862038e+00 
1  3.917932830752e+01   1.528558469877e+01   2.985444830281e+01 
1  2.259209987704e+01  -1.480954089937e+01  -1.272088511115e+01 
1  2.344838790936e+01  -1.422015498284e+01   1.254526699397e+01 
8
Step 54000
1 -1.492734290105e+01   1.711506942624e+01  -1.246316423464e+01 
1  4.958330551278e+00  -1.691411972631e+01   1.901480823925e+01 
1  1.967329097942e+01  -2.448736710110e+01  -3.376308997711e+00 
1  1.460415922761e+01   5.438071139740e+01   3.516897653158e+00 
1  3.129186587221e+01   7.192711363008e+01  -3.999141529661e+01 
1 -8.620254883122e+00   5.320786953149e+00   7.164710682989e+01 
1  5.286781215507e+00  -6.615093767960e+01  -5.081630023141e+00 
1 -3.078207131747e+00  -4.841768654017e+01   1.644494120857e+01 
8
Step 55000
1 -6.204436817524e+01  -2.889299346680e+01  -2.867141819953e+01 
1 -4.275379825995e+01  -4.066489677381e+01  -2.132407044195e+01 
1  4.524013427688e+00  -2.767279083347e+01  -2.906679881346e+01 
1  4.368836561257e+01   3.358091346347e+01  -2.670662515933e+00 
1  1.933185824784e+01   3.854465611530e+01  -1.417413052429e+01 
1 -4.454939189477e+01   4.165391426550e+01   1.034116039215e+01 
1  3.886944164431e+00  -4.772629575678e+01   5.337452744934e+01 
1 -4.836815537663e+00  -2.348315318734e+01   4.348714224094e+01 
8
Step 56000
1  5.452725452720e+01  -4.206959535406e+01  -4.141991161582e+01 
1  5.535413211167e+00  -5.282477375784e+01   9.542563685636e+00 