8
Step 0
1  6.673994264557e+01  -6.348222162079e+01   4.533458352829e+01 
1 -4.190978114971e+01   6.511705803867e+01   6.576511494826e+01 
1  6.160288589397e+01  -4.968557995687e+01  -7.759770453232e+01 
1 -5.275475819101e+01   5.263914256172e+01  -6.287078783062e+01 
1  3.368236176707e+01  -5.535420352454e+01   6.567221809806e+01 
1 -2.932215654258e+01   5.697053922066e+01   5.504311202953e+01 
1  7.435867778535e+01  -5.503844031689e+01   6.929554136757e+01 
1  4.256782595794e+01   4.207458288030e+01   4.780089100214e+01 
8
Step 1000
1  4.597657058343e+01  -3.050831589495e+01   3.919052512242e+01 
1 -3.545482829619e+01   4.053965051544e+01   3.596443977439e+01 
1  5.370710822402e+01   3.384129419882e+01  -8.681870263431e+01 
1 -2.453692633741e+01   5.578960899355e+01  -1.944083310194e+01 
1 -1.957953646391e+01   1.625999471832e+00   5.016855673593e+01 
1 -4.406852446038e+01   8.379265936249e+01   2.541289062062e+01 
1  6.735710913309e+01  -2.534311322558e+01   4.853347550528e+01 
1  7.300687095164e+01   4.969892345203e+01   3.595409405573e+01 
8
Step 2000
1 -2.632454798841e+00   2.998322736900e+01   1.719877041360e+01 
1 -3.679354844597e+00  -5.810809259135e+00  -1.684483278529e+01 
1  1.326029896384e+01   1.108416128550e+02  -3.335615964733e+01 
1  3.782190583536e+01   6.494336261284e+00   6.929913173851e+01 
1 -6.803447083608e+01   7.082558402038e+01   3.122388078830e+00 
1 -4.173394736761e+01   6.314959607152e+01  -3.535145528943e+01 
1  3.389649650376e+00   4.405135093465e+00  -1.720830189538e+01 
1  5.930026203837e+01   1.629990837053e+01  -1.636893283531e+01 
8
Step 3000
1 -2.352657020122e+01   6.334684126657e+01   1.515140008446e+01 
1  2.009941855198e+01  -3.664062108293e+01  -4.757331016712e+01 
1 -3.775681469841e+00   9.189596419552e+01   1.422909409901e+01 
1  6.930188703643e+01  -4.175690234162e+01   1.052880732304e+02 
1 -6.430342185464e+01   6.280100969973e+01  -1.268212988036e+01 
1 -1.513925978097e+01   1.071118626694e+01  -4.771645356780e+01 
1 -2.914056744259e+01  -4.808464825721e+00  -6.565292450425e+01 
1  1.578201090710e+01  -5.402771689247e+00  -5.236621465452e+01 
8
Step 4000
1 -3.980672963429e+00   4.635578209975e+01   3.060786088643e+01 
1  1.453461109691e+01  -3.202144983110e+01  -4.310152365784e+01 
1  9.884484269854e+00  -2.303211563282e-01   1.367190389367e+01 
1  3.996642299098e+01  -4.290149180943e+01   6.083052686433e+01 
1 -1.656853627082e+01  -7.244817876111e+00   8.314103770643e-01 
1  1.701990288356e+01  -2.472800870905e+01  -3.903457546104e+00 
1 -6.125701004740e-01  -3.100070402700e+01  -6.312159315418e+01 
1 -1.874962481495e+01   5.348812741287e+00  -4.023584537769e+01 
8
Step 5000
1  2.094085380950e+01   2.707280184156e+00   3.218141177761e+01 
1 -1.431962982711e+01  -3.188665455748e+00  -2.446391611334e+01 
1  1.394038938400e+01  -6.597839001812e+01  -1.499158526064e+01 
1 -1.966930891530e+01  -2.246176742659e+00  -2.625271697428e+00 
1  3.119984359636e+01  -5.419083012045e+01  -8.125647333496e-01 
1  2.657030882207e+01  -1.224405098373e+01   4.000407055612e+01 
1  4.436953515909e+01  -3.681624568581e+01  -2.641563788476e+01 
1 -2.202670035122e+01   1.531219137105e+01  -4.439847108888e-01 
8
Step 6000
1  1.787654353982e+01  -2.565979574674e+01   2.718768537725e+00 
1 -3.554320887364e+01   1.648962878897e+01  -1.833694726483e+01 
1 -1.839470038213e+01  -4.624662034526e+01  -2.107680675364e+01 
1 -5.154092053020e+01   3.379938223319e+01  -2.128224126239e+01 
1  4.458084856382e+01  -3.366768132473e+01  -3.025694697623e+01 
1  9.495671617169e+00   2.372763128762e+01   3.891091255998e+01 
1  4.843882203396e+01  -1.752609442642e+01   7.316641322726e+00 
1 -7.861063983779e+00  -9.375553694456e+00   2.276648355211e+01 
8
Step 7000
1 -4.982275813734e+00  -2.224180224989e+01  -3.697350002102e+01 
1 -2.218506295283e+01   6.541776077782e+00  -2.666576522845e+01 
1 -5.897397239681e+01   1.377877933802e+01   1.344231836254e+01 
1 -3.153891296804e+01   2.684242742781e+01  -6.608207102462e+00 
1  2.497966414466e+01   1.068806802523e+01  -4.740387421744e+01 
1 -9.173179838799e+00   3.040759834039e+01   7.141805900241e+00 
1  4.825686394917e+00   2.843481320372e+00   2.307926171051e+01 
1 -7.547183802766e+00  -5.033071422940e+01   1.154161728418e+01 
8
Step 8000
1 -1.670173994718e+01  -6.453520506511e+00  -5.052920159767e+01 
1  1.549931660230e+01  -1.728812291640e+01  -2.612525313197e+01 
1 -5.769381845263e+01   3.056148340672e+01   4.988868714524e+01 
1  9.517374204722e+00  -1.558282354524e+01  -1.009292610967e+01 
1 -1.856937818578e+00   1.664763300821e+01  -1.803363527161e+01 
1 -9.206754708513e+00  -8.797114392502e+00  -1.177595699316e+01 
1 -4.421824261311e+01   1.071070013358e+01   3.189308745909e+01 
1 -3.050711182438e+01  -5.641147553974e+01  -1.057202900189e+01 
8
Step 9000
1 -7.575050312438e+00  -5.300290052828e+00  -2.775667995758e+01 
1  3.865466182986e+01  -2.145150416595e+01   2.574057282866e+00 
1 -9.586727743987e+00  -1.248966838881e+01   4.016545369765e+01 
1  2.457115658545e+01  -4.897012878135e+01  -4.024056154706e+01 
1 -1.482048590338e+01  -1.345871310449e+01   3.204647374258e+01 
1 -1.152690343577e-01  -5.257704688949e+01  -2.533028874848e+00 
1 -5.810047625082e+01   1.733854161553e+01   4.161663665476e+01 
1 -5.057378685305e+01  -1.122148944830e+01  -1.033311653331e+01 
8
Step 10000
1  2.141846107189e+00  -2.180761505537e+01   4.780747072392e+00 
1  2.461806162522e+01   4.268662602575e+00   4.751514293805e+01 
1  3.514874276020e+01  -5.159630521224e+01  -1.259105167276e+01 
1  3.719233421189e+00  -3.772911582775e+01  -5.224869319080e+01 
1 -1.206097429494e+01  -2.335496863244e+01   4.627127394304e+01 
1 -1.813663509571e+00  -5.201548151585e+01   1.141524966736e+01 
1 -3.529798831717e+01   3.324110871498e+01   3.931725310352e+01 
1 -3.566039468582e+01   3.924937508422e+01   1.504248862760e+01 
8
Step 11000
1 -5.036686302672e+00  -3.399719353369e+01   1.635462542693e+01 
1 -5.550030146573e+00   3.243957473218e+01   7.208278794625e+01 
1  3.349231428696e+01  -3.110586443585e+01  -5.607996620201e+01 
1 -1.947923041119e+01   9.950645327126e+00  -1.979084185843e+01 
1 -3.799530780572e+00   1.528332168324e+01   1.118076915931e+01 
1 -1.066400378758e+01  -1.137339163093e+01   7.388527450949e+00 
1 -2.435695880854e+00   4.580906639196e+01   1.112207231228e+01 
1  1.228999748517e+01   4.033225698028e+01   3.596455280112e+01 
8
Step 12000
1 -1.849284395914e+01  -2.170645336459e+01   7.324086481895e+00 
1 -1.328517226284e+01   3.256503887481e+01   5.097809758807e+01 
1  2.131590269933e+00   2.485753999225e+01  -5.019559137798e+01 
1 -1.355420910715e+01   5.160477097110e+01   2.062248601951e+01 
1 -1.279253331355e+00   5.724773359177e+01  -2.539272820386e+01 
1 -2.953068770793e+00   1.880901859797e+01  -7.455542062856e+00 
1  1.910213963457e+01   3.571255816252e+01  -2.886902916393e+01 
1  5.673505358164e+01   3.066355928106e-01   2.594956145150e+01 
8
Step 13000
1 -1.669547030070e+01   1.061374173920e+01   1.977786195227e+00 
1  5.393998244434e+00   9.030124667617e+00  -2.278652080533e-01 
1 -8.678059415640e+00   4.780733222132e+01  -1.061121167649e+01 
1  1.193469473533e+01   5.289590431543e+01   2.029221341289e+01 
1 -5.293032593984e+00   4.383940943580e+01  -1.733330258312e+01 
1  2.571725279415e+01   7.935807387061e+00  -1.329627870919e+01 
1  2.714960935524e+01   6.339364538244e+00  -4.623156019196e+01 
1  6.420717967899e+01  -2.067972759904e+01  -7.315714765181e+00 
8
Step 14000
1  2.232129700729e-01   4.010261420474e+01   1.114622327358e+01 
1  1.409505412229e+01  -8.968314035394e+00  -3.642184959368e+01 
1  1.781873860571e+01   1.383679965778e+01   1.795746170646e+01 
1  2.283734087038e+01   1.777605253851e+01  -1.016427096848e+01 
1 -3.619252808370e+00  -1.527702353117e+01   1.950916178280e+01 
1  4.322905942285e+01  -1.619013623229e+01  -8.799465311091e+00 
1  2.663977467753e+01  -1.957467161227e+01  -2.665773555363e+01 
1  3.408753884061e+01   8.117801872398e+00  -3.080773486343e+01 
8
Step 15000
1  1.226909083857e+01   4.737366901498e+01   1.780431701837e+01 
1 -1.252907058028e+01  -7.845264210194e+00  -2.799726973334e+01 
1  4.515756339295e+01  -3.017583341208e+01   1.701270369187e+01 
1  6.485922379248e+00  -2.101569660205e+01  -1.458194464259e+01 
1  1.515295492336e+01  -5.323191125056e+01   3.041524300218e+01 
1  1.685876008185e+01  -6.215648190126e+00  -9.274029268441e+00 
1  1.792992818325e+01  -2.988097500583e+01   3.283388188695e+00 
1 -7.416834826196e+00   4.668938815102e+01  -2.281627861846e+01 
8
Step 16000
1  1.057867917940e+01   3.161332785968e+01   1.529141339146e+00 
1 -4.848080420908e+01  -5.569349667262e+00   6.923373970611e+00 
1  3.282970989549e+01  -2.894809308988e+01   8.742917147233e+00 
1 -1.309575925471e+01  -3.584617583259e+01   2.818176553601e+01 
1  4.155544934755e+01  -3.208356989877e+01  -2.831123438525e+00 
1 -3.904112897356e+01   3.953856860419e+01  -1.884579642329e+01 
1  2.259253730903e+00  -3.499804571309e+01   6.321819911406e+00 
1 -3.368619976366e+01   3.618900241863e+01   2.773319467230e+00 
8
Step 17000
1  8.619600200418e+00   7.526605583734e+00  -2.834058715213e+01 
1 -4.522264338046e+01  -2.091504166217e+01   2.159044597076e+01 
1 -1.212655670128e+01   1.381161391259e+01   1.691252596231e+01 
1 -8.405514861090e+00  -2.597223352335e+01   6.942892780837e+01 
1  4.566015178710e+01   1.397451673166e+01  -3.775204773880e+01 
1 -6.908809845016e+01   7.009474998531e+01  -2.084281181141e+01 
1 -1.060992704096e+01  -4.381694588355e+01  -1.762084758296e+01 
1 -3.617853514638e+01  -2.406565735309e+01   1.407022512826e+01 
8
Step 18000
1  1.775233984017e+01  -1.006616017995e+01  -3.669856105549e+01 
1  4.135782057316e+00  -4.002477452688e+01  -5.994093557662e+00 
1 -4.621498909760e+01   4.574510027498e+01   3.145709764242e+01 
1  1.486773662743e+01  -9.421268562869e+00   5.277648964699e+01 
1  8.177281791729e+00   3.104872861274e+01  -3.030845290213e+01 
1 -3.844019529173e+01   4.396737822472e+01  -1.581952959041e+00 
1 -1.035791623760e+01  -4.267932113593e+01  -2.810490393936e+01 
1 -2.349981284533e+01  -7.326434831413e+01   9.816703966865e-01 
8
Step 19000
1  2.504790466582e+01  -1.757004928059e+01  -6.425430716689e+00 
1  5.085838864033e+01  -3.105012387177e+01  -4.662441911769e+01 
1 -4.399506343923e+01   3.273176777161e+01   2.387165653236e+01 
1  2.531468329034e+01  -1.063776963154e-01  -7.458567819723e+00 
1 -4.884383074400e+01   1.535122274284e+01   5.723764469078e+00 
1  2.351849595707e+01  -1.758888867550e+01   2.723084721284e+01 
1 -3.526672476402e-01  -1.371603201356e+01   3.894835332516e+00 
1 -8.256019592859e+00  -6.198670562681e+01  -1.291592881459e+01 
8
Step 20000
1  9.775290051345e+00  -1.962106241086e+01   3.334441620699e+01 
1  4.870107168869e+01   9.429465064080e+00  -5.392906191069e+01 
1 -2.254276074312e+01  -6.174804997131e+00  -9.866365869389e+00 
1  7.426918700368e+00   3.801509901246e+00  -4.254779063774e+01 
1 -7.414403490296e+01   4.948246316737e+00   2.138675415253e+01 
1  5.450039300898e+01  -5.377525399503e+01   3.991923814067e+01 
1  3.919400058563e+00   3.088976863547e+01   5.216244755910e+01 
1  2.855768553081e+00  -8.698497158828e+00  -2.563492170038e+00 
8
Step 21000
1 -2.270356123170e+01  -2.004015240692e+01   3.918670561375e+01 
1  1.084433745240e+01   4.484610478267e+01  -1.929583383572e+01 
1 -1.028858299956e+01  -3.265138253702e+01  -3.897973027973e+01 
1 -1.826386670733e+01   1.013603504167e+01  -2.286423830046e+01 
1 -4.054957338969e+01   1.638972072118e+01   2.348609889506e+00 
1  3.137504412235e+01  -3.689830254734e+01   2.752886958891e+01 
1 -6.121155058094e+00   5.413266430421e+01   6.164509476308e+01 
1  9.288425916839e+00   2.829272767634e+01   2.186550495510e+01 
8
Step 22000
1 -4.086626906738e+01  -1.919776530165e+01   6.185152338985e+00 
1 -1.334551794329e+01   4.245873967124e+01   2.178275596440e+01 
1 -8.626808057050e+00  -3.395860732554e+01  -3.486921700401e+01 
1 -2.413485281616e+01   1.795325276909e+01   5.000882858931e+00 
1  2.337408218854e+01   2.253229104722e+01  -1.548386937409e+01 
1 -9.432837024741e+00  -8.902198025523e-02   4.825079892339e+00 
1 -2.054944444716e+01   3.783504577022e+01   1.566285711246e+01 
1  1.174944491117e+01   2.225764563511e+01   2.656402223644e+01 
8
Step 23000
1 -2.589921373642e+01  -1.489314559606e+01  -2.764298988663e+01 
1 -3.916709860179e+00   1.274439916583e+01   3.500896691070e+01 
1  1.215984108511e+00  -2.148031074520e+01  -4.702622743691e+00 
1 -1.025434217372e+01   1.709542482954e+01  -1.338656442946e+01 
1  6.036437914359e+01  -3.962942705281e+00   3.809097208936e-01 
1 -2.153749746261e+01   7.977675847866e+00  -1.089929120609e+01 
1 -2.199918045953e+01   6.297047418330e+00  -4.043586701416e+01 
1  1.156203520051e+01   8.945664659521e-01  -1.364056478117e+00 
8
Step 24000
1  2.101393184155e+00  -6.008151151147e+00  -2.849677920799e+01 
1  9.474217077282e+00  -6.491920924678e+00   2.540235568774e+01 
1  2.499452694571e+01  -4.665480952207e+00   1.906239256489e+01 
1 -1.442782752587e+00   3.731339504939e+00  -6.223704246274e+01 
1  4.312740759250e+01  -4.453926872030e+01   3.274326049702e+01 
1 -1.418225504370e+00  -1.949104026629e+01  -1.707076722177e+01 
1 -5.294119732052e+00  -3.063195769948e+00  -4.924512371971e+01 
1  1.177638181052e+01  -2.088490192216e-01  -3.412378041215e+01 
8
Step 25000
1  9.872451648324e+00   5.638249461207e+00  -7.014985481730e+00 
1 -5.244338225942e+00   4.469308579252e-01   2.254209584249e+01 
1  4.529891247802e+01   1.358968750083e+01   1.839340458652e+01 
1 -1.132985626551e+01  -1.129214462512e+01  -7.412672617654e+01 
1 -1.085105279880e+00  -5.213656252047e+01   3.715373577651e+01 
1  1.664554751111e+01  -4.368431038701e+01  -1.887718170261e+01 
1  1.725345332830e+01   1.346978889199e+01  -7.066996220379e+00 
1  1.180767210225e+01   1.580902271459e+01  -3.440134843222e+01 
8
Step 26000
1 -5.214979477411e+00   1.792766706826e+01  -6.147867955730e-01 
1 -3.461760662082e+01   7.017355750080e+00   3.731668807927e+01 
1  4.333769493243e+01   2.522574047878e+01   3.534875898057e+00 
1 -2.187156828075e+01  -1.567445874523e+01  -1.771312174196e+01 
1 -2.587682684547e+01  -1.166255733179e+01   1.125897797971e+00 
1  6.899933763659e+00  -2.805691690599e+01  -1.542898870782e+01 
1  2.832376366533e+01   2.260393778011e+01   3.241987177781e+01 
1  5.492457867722e+00   1.989451785363e+01  -6.830325702735e-05 
8
Step 27000
1 -1.148740843221e+01   2.751697470550e+01  -2.055940141885e+01 
1 -3.766907494206e+01  -1.518071377797e+01   4.532381263117e+01 
1  2.370355180418e+01   1.417899202116e+01  -6.602908843381e+00 
1 -9.338425432093e+00  -7.312689788587e+00   5.872004356088e+01 
1 -1.720272350860e+01   3.638200997029e+01  -3.897423249361e+01 
1 -1.964732913719e+01   1.992944072016e+01  -3.489056644466e+00 
1  2.031811112558e+01  -7.801343430472e-01   2.157450930121e+01 
1 -1.100342805836e+01   2.498477155624e+00   3.370791253475e+01 
8
Step 28000
1  1.396577688012e+01   2.832784806401e+01  -3.247741818163e+01 
1 -5.025795687614e+00  -4.968651734967e+01   1.838054248642e+01 
1  6.733108557361e+00  -2.200026849949e+01  -2.697763752612e+00 
1  1.967544213246e+01   6.645402386536e+00   8.501643749916e+01 
1 -3.080468575196e+00   4.437925710517e+01  -4.405602667149e+01 
1 -3.322684236688e+01   5.742743109564e+01   9.070310499342e+00 
1 -2.975937284178e-01  -3.818650190734e+01  -2.345501811630e+01 
1 -2.889136891927e+01  -1.253151832070e+01   3.434241612365e+01 
8
Step 29000
1  5.012467813535e+01   1.448670632663e+01   4.883832219300e-01 
1  2.500348274037e+01  -5.063272708738e+01  -3.471968790550e+01 
1 -2.225472320711e+00  -5.211207765868e+01   1.187403692841e+01 
1  3.584910823405e+01   1.981857543069e+01   5.407845241806e+01 
1 -9.342538737087e+00   1.576410516056e+01  -1.940184727959e+01 
1 -2.009538668236e+01   5.412841455196e+01   7.326481463987e+00 
1 -1.913205281444e+01  -5.101071491862e+01  -4.370064203014e+01 
1 -3.084876763040e+01  -5.701422357266e+00   8.629146972771e+00 
8
Step 30000
1  5.534217282213e+01  -1.130631155034e+01   6.425893675280e+01 
1  1.831400580212e+01  -3.546308182982e+00  -7.560806915469e+01 
1 -1.741202694783e+01  -3.653132743540e+01   2.556688505979e+01 
1  2.602368980575e+01   2.999221672692e+01   2.044391080968e+01 
1 -2.157122015969e+01  -4.991703592861e+00   1.761935155590e+00 
1  8.828971463288e+00   2.263082541791e+01  -8.936269700567e+00 
1 -2.256197979448e+01  -3.026417411493e+01  -1.182306834279e+01 
1 -1.034477617259e+01   9.086686828789e+00  -1.169147718835e+01 
8
Step 31000
1  2.082377870811e+01  -3.299670574621e+01   9.860358557246e+01 
1 -7.746883946173e+00   4.942061017924e+01  -7.875455293370e+01 
1 -4.293756582931e+01   2.120441672196e+01   2.471192755962e+01 
1  7.486733885080e+00   3.436501443972e+01   1.910788858836e+01 
1 -6.314210009796e+00   6.152457501178e+00   6.637342511930e+00 
1  3.445835032098e+01   9.743355281877e-02  -1.882973437588e+01 
1 -5.934979587024e+00  -5.135286666931e+00   3.387789254879e+01 
1  1.521555454980e+01   6.618777519483e+00  -1.195302435380e+01 
8
Step 32000
1 -1.816640320489e+01  -3.187813552100e+01   6.272002594333e+01 
1 -8.701562177954e+00   5.728105355266e+01  -5.503543371635e+01 
1 -5.679436759240e+01   6.881831978013e+01   4.426354439253e+00 
1 -1.531072107498e-01   2.382998121014e+01   2.111229996397e+01 
1  3.554747513951e+01   2.240169174950e+01   1.165641677992e+01 
1  4.299626262998e+01   4.941123741761e+00  -5.339178050144e+00 
1  2.010784624646e+01  -6.083058336579e-01   3.917756727256e+01 
1  2.165952944173e+01  -1.075822767476e+01  -8.806164714470e+00 
8
Step 33000
1 -2.904245661085e+01  -4.797065092574e+00  -1.859534632325e+01 
1  2.140589002130e+01   1.851312976473e+01  -2.766839850377e+01 
1 -3.496110819485e+01   6.001864594064e+01  -2.319172962323e+01 
1 -8.928288692761e-01  -8.696310434122e+00  -1.488506145712e+01 
1  5.858865747786e+01   6.826336803588e+00   2.815879416242e+01 
1  2.696577850584e+01   1.765782987147e+01   2.066822202825e+01 
1  3.306257625955e+01  -4.460421040884e+00   2.411795012103e+00 
1  8.521674760495e+00  -1.728492983987e+01  -1.965190113927e+01 
8
Step 34000
1 -1.935907462202e+01   2.715880469837e+01  -8.012778301444e+01 
1  3.736255940138e+01  -2.141056288548e+01   1.625664186866e+00 
1  1.287129464290e+01   4.582879360307e+00  -3.510181687323e+01 
1 -7.010478682586e+00  -5.191419490547e+01  -7.368281614138e+01 
1  2.454186444358e+01  -3.441371788348e+01   4.006316108308e+01 
1 -1.151939881537e+01   5.106108088860e+00   3.117090364506e+01 
1  1.592420708291e+01   1.104875600676e+01  -2.627261171206e+01 
1 -1.369601197979e-01  -3.984111273014e+00  -3.292109951423e+01 
8
Step 35000
1 -1.851458296094e+01   3.387820408214e+01  -8.185273509341e+01 
1  6.818887042783e+00  -2.705718636699e+01   4.344855883568e+01 
1  4.493396570453e+01  -4.158441116639e+01  -1.902045552052e+01 
1 -1.348532095700e+01  -7.527045073725e+01  -9.305679992405e+01 
1 -4.497466775525e+01  -5.456278936976e+01   2.353591968846e+01 
1 -5.132214448561e+01  -3.908053020242e+01   1.603750163138e+01 
1 -2.179151554058e+01   4.406421224300e+01  -1.176122885807e+01 
1  1.211708475205e+01   5.077654019182e+00  -2.150802872849e+01 
8
Step 36000
1 -3.217446129258e+01   9.218618952425e+00  -4.428630842621e+01 
1 -3.809243450002e+01  -1.376754522863e+01   8.420211424507e+01 
1  3.511274797513e+01  -4.021133303253e+01   1.027984176088e+01 
1 -6.837160246882e+00  -5.375450239028e+01  -4.530039826918e+01 
1 -8.551279191287e+01  -2.686713221494e+01  -1.438698469549e+01 
1 -6.014476262350e+01  -8.211169590630e+01  -4.388129677818e+00 
1 -4.692037716983e+01   5.889703850570e+01   1.959078469464e+01 
1  2.895667427137e+01  -9.409025679007e+00   1.603322498696e+01 
8
Step 37000
1 -3.467145127897e+01  -2.165779967217e+01  -1.351256157713e+01 
1 -4.029202945654e+01  -1.457431721659e+01   8.566807770855e+01 
1  6.555127560408e+00  -1.105762063207e+01   2.431576057399e+01 
1  5.964182075086e+00   6.166520541916e+00   2.217935072844e+01 
1 -5.990536454758e+01   1.753863111483e+01  -3.681631312751e+01 
1 -2.523205157741e+01  -8.210757376348e+01  -7.845005105077e+00 
1 -3.434125472040e+01   3.120725352415e+01   1.834503045935e+01 
1  1.865603804640e+01  -2.605110310293e+01   4.628573493701e+01 
8
Step 38000
1 -8.995172515926e+00  -2.982418692705e+01  -4.148811555274e+00 
1  4.584489218401e+00  -2.715639124879e+01   3.338684587699e+01 
1  2.863345542040e+00  -9.405580023377e-01   1.226570810820e+01 
1 -1.826777100546e+00   6.609499247654e+01   4.380760465932e+01 
1  2.789510767643e+00   2.796670473333e+01  -2.198222601222e+01 
1  2.659417081062e+01  -3.089446660347e+01   8.241659757129e-01 
1  4.820105923569e+00  -1.753815221076e+01  -1.757121174776e+01 
1 -2.312432578287e+01  -8.573771919825e+00   4.059978933321e+01 
8
Step 39000
1  2.415303845392e+01  -1.349710074877e+01   8.232308074061e+00 
1  3.978916351465e+01  -2.027960528278e+01  -3.228914905827e+01 
1  2.920486694774e+01  -2.168636918839e+01  -6.258446530543e+00 
1 -3.541734640905e+01   8.428518401233e+01   1.563292288190e+01 
1  4.484044898231e+01  -9.136831770295e-01   8.388682471838e+00 
1  5.044122042960e+01   3.514195357653e+01   2.176675854815e-01 
1  3.268279162155e+01  -4.220679113848e+01  -3.691310706154e+01 
1 -5.947994636588e+01   3.814152579296e+01   1.143000279650e+01 
8
Step 40000
1  3.247777031971e+01   3.624526418077e+00   4.153230857285e+01 
1  2.302076200624e+01   1.311459789644e+01  -5.820305790720e+01 
1  4.273324610169e+01  -3.714974121940e+01  -6.124317748704e+00 
1 -5.503179694869e+01   5.111793117480e+01  -7.404538799230e+00 
1  4.531008481662e+01  -2.290028840813e+01   1.712880207008e+01 
1  3.109962867555e+01   7.093027505503e+01  -1.410518367729e+01 
1  2.656695962938e+01  -2.688118621661e+01  -6.303051957011e+00 
1 -5.226096874387e+01   6.429273548508e+01  -6.117969963469e+00 
8
Step 41000
1  1.581788218518e+01   4.134751522370e+00   7.394303271161e+01 
1 -1.984770935067e+01   3.858064901923e+01  -3.939124517451e+01 
1  9.158793807776e+00  -1.410749018905e+01   1.080644350084e+01 
1 -1.942698513879e+01  -5.064202148135e+00   1.016369809321e+01 
1  2.906415019642e+01  -2.909188554225e+00  -2.351441832552e+00 
1 -3.362574247742e+00   6.539588505566e+01  -2.357618917963e+01 
1  2.231441416210e+00   6.791703852359e-01   4.023287917428e+01 
1 -6.195820138652e+00   3.730041622857e+01  -2.654095016523e+00 
8
Step 42000
1  4.587590156796e+00  -4.466805541331e+00   6.796598313693e+01 
1 -3.455086626062e+01   2.746235300534e+01  -1.562492294035e+01 
1 -4.958637156543e+01   3.239141553589e+01   1.858632536088e+01 
1  5.411484351834e+01  -4.259989320437e+01   4.327089815767e+01 
1  2.050964124052e+01   3.797751888865e+01  -2.357851494973e+01 
1 -1.654779903238e+01   4.051007456086e+01  -1.535303904906e+01 
1 -8.716014448331e+00   5.926303517262e+00   4.235220055847e+01 
1  3.712640607738e+01  -1.419322644598e+01  -1.726990508303e+00 
8
Step 43000
1  1.534152434733e+01  -3.809001035507e+00   2.061470468832e+01 
1 -1.058232895297e+01   9.980132444322e-01  -1.391618601982e+01 
1 -7.618831859656e+01   5.629123890629e+01   6.960599545966e-01 
1  9.622960487614e+01  -4.079901900410e+01   4.865209184997e+01 
1  1.398639195463e+01   5.015596889242e+01  -2.335398524130e+01 
1 -3.302704903258e+00   1.932229909875e+01  -1.042504438088e+00 
1  2.626638769409e+00  -1.359131654899e+01  -7.354527399244e+00 
1  4.606662296776e+01  -3.593369686822e+01  -1.986786537464e+01 
8
Step 44000
1  2.705319777096e+01   9.705491943554e+00  -3.044887488807e+01 
1  1.351479308441e+01   4.993767294963e-01  -1.729302909931e+01 
1 -4.443970771129e+01   3.682395491317e+01  -2.664544667104e+01 
1  6.388304889952e+01  -1.420761104911e+01   2.306036585350e+01 
1 -5.744259304653e+00   1.815250222424e+01  -5.721927345117e+00 
1  1.155924578267e+01   2.647666259137e+00   2.818772869268e+00 
1  1.502340630891e+01  -3.117394117688e+01  -5.225630307885e+01 
1  2.975279891379e+01  -1.771388857549e+01  -3.798799479804e+01 
8
Step 45000
1  1.235176168731e+01   2.142272764247e+01  -4.935757397616e+01 
1  9.355165159134e+00   2.531595999413e+01  -7.721948860126e-01 
1  1.219976892863e+01  -2.270139373345e+00  -3.192664409820e+01 
1 -9.142267720858e+00   6.505197031005e+00  -3.530021302423e+00 
1 -3.148645720109e+01  -2.332905034184e+01   1.245671240013e+01 
1  8.242475184893e+00  -1.720523646625e+01   1.281836495947e+00 
1  7.211419968380e+00  -2.429494291179e+01  -4.217975002406e+01 
1  1.628427389633e+01  -4.720387060042e-01  -2.757972695582e+01 
8
Step 46000
1 -2.187171719673e+01   1.901797132693e+01  -3.760886170686e+01 
1 -6.036859735057e+00   2.999634012684e+01   2.469976800584e+01 
1  3.947837488710e+01  -2.622561417323e+01  -4.732959087052e+00 
1 -5.207970312503e+01   4.526658913661e+00  -1.590411409440e+01 
1 -3.999871026764e+01  -3.362734339265e+01   2.399315115307e+01 
1 -7.272621155565e+00  -3.394652482268e+01   1.167428917041e+01 
1 -1.507996117846e+01   3.921110097115e+00   7.214393977947e+00 
1  1.405998948752e+01  -1.655383995460e+01   5.459207480958e+00 
8
Step 47000
1 -4.151621425921e+01   6.889808271626e+00  -2.139969117371e+01 
1 -2.402799603417e+00  -1.276783284099e+01   2.647352821098e+01 
1  2.257111148739e+01  -2.623269425279e+01   3.207933051759e+01 
1 -4.004284983885e+01  -9.246174501713e+00  -2.792694540931e+01 
1 -2.451481871074e+01  -1.251529180819e+01   3.010229134529e+01 
1 -1.730868018238e+01  -3.250162723568e+01   3.134965943085e+01 
1 -2.715051194405e+01   3.216435178506e+01   3.922748391139e+01 
1  4.994160397407e+00  -4.391584631414e+01   2.456422878207e+01 
8
Step 48000
1 -2.839302397421e+01  -2.730751997424e+00  -1.361538412235e+01 
1  1.655114115318e+01  -6.790232964271e+01   9.353472708821e-02 
1 -4.150001888090e+00  -1.716398989916e+01   4.590172546568e+01 
1 -1.397544551042e+01  -1.151636235087e+01  -4.857042486757e+01 
1 -2.472074547286e+00   6.892027392824e+00   2.682656924768e+01 
1 -1.534393183061e+01  -1.283181097301e+01   3.404047658273e+01 
1 -1.514383637697e+01   4.070562787543e+01   2.653489716233e+01 
1 -2.356624955160e+01  -3.687937290535e+01   1.172118444104e+01 
8
Step 49000
1  1.480095296246e-01  -6.218348883827e+00  -4.494818169212e+00 
1  1.936153853417e+01  -7.292434519020e+01  -1.817496894092e+01 
1 -4.031411096426e+00  -1.121835136712e+01   2.563816566182e+01 
1 -1.832940748998e+01   7.583233648915e+00  -5.869215301840e+01 
1  9.678403279109e+00   1.493023270774e+00   8.668085142195e+00 
1 -7.808322746308e+00   2.963162528587e+00   5.381826263436e+00 
1  9.276815188487e+00   2.427068747206e+01  -3.235237247461e+00 
1 -5.248737682605e+01   1.093512951844e+01  -7.097411433639e+00 
8
Step 50000
1  1.514146441512e+01  -1.159387321026e+01   1.467736419682e+01 
1 -4.711017159065e+00  -1.284299951595e+01   1.073004548073e+00 
1  1.873930479413e+01  -3.756722832060e+00  -9.954056461885e+00 
1 -4.186490214064e+01   3.305089747254e+01  -3.936094150921e+01 
1  1.638365698531e+01  -1.658972754250e+01  -1.621760428858e+01 
1  5.532555727114e-01  -4.357429641496e+00  -2.983933355592e+01 
1  2.318781730319e+01  -4.490437758575e+00  -9.702108058725e+00 
1 -4.755202394624e+01   5.461465585305e+01   4.282131567708e+00 
8
Step 51000
1  9.496888618062e+00  -2.212634679467e+01   3.147552569919e+01 
1 -2.480890060489e+01   5.623729450888e+01   3.469931183028e+01 
1  2.878886710433e+01   1.363025433437e+01  -3.322614685594e+01 
1 -3.644390712061e+01   3.601887973227e+01  -6.016317710880e+00 
1  2.820289690037e+01  -1.908075005498e+01  -2.760181900405e+01 
1  1.188049661010e+01  -2.355382284826e+01  -3.227486394612e+01 
1  1.592098747000e+01  -2.098193116879e+01   7.818459640609e+00 
1 -2.163029016653e+00   5.191763682305e+01   4.117805012832e+01 
8
Step 52000
1  8.514243915403e-01  -2.533577558782e+01   2.445971381291e+01 
1 -9.962032175367e+00   6.972392339310e+01   3.237343120786e+01 
1  5.140188484420e+00   3.074344937623e+01  -3.364761565964e+01 
1  1.464770289539e+01   3.726301719150e+00   1.082364401007e+01 
1  3.649507482616e+01   1.340586591995e+00  -1.752794313770e+01 
1  2.415975949825e+01  -2.278371742804e+01   3.346816096134e-01 
1 -1.984555950159e+00  -9.962789277792e+00   1.520108443384e+01 
1  4.509301504182e+01   1.512335322030e+01   5.542466413031e+01 
8
Step 53000
1  2.414714547858e+00  -7.810355608099e+00  -3.273817937503e+00 
1  2.353529331774e+01   2.762546934681e+01  -1.491204779990e+01 
1 -3.028544185690e+01   2.271273885104e+01  -2.146501254588e+01 
1  6.734309536047e+01  -4.080554874377e+01   8.835080346266e+00 
1  1.991973980390e+01   2.038802620937e+01  -3.221099263409e+00 
1  2.506704703384e+01   1.020339706318e+01   2.527984926589e+01 
1 -1.288158222535e+01   1.470721905926e+01  -5.053287700399e+00 
1  4.856068243492e+01  -7.870086368347e+00   1.394957204321e+01 
8
Step 54000
1  5.302642211536e+00   2.291447895431e+01  -1.820870654517e+01 
1  2.835325101869e+01  -1.331933542082e+01  -5.430083228196e+01 
1 -3.599003220251e+01  -1.565528552452e+01  -1.016032250048e+01 
1  6.601368885060e+01  -5.684560439277e+01   1.475842652311e+01 
1 -2.159857896096e+01   1.210964667233e+01  -4.627736357251e+00 
1  5.812106641093e+00   4.790018974844e+01   7.638673258482e+00 
1 -1.028739839162e+01   1.867101780731e+01  -2.831980865891e+01 
1  9.023769740774e+00   2.197479184916e+00  -5.224426186239e+01 
8
Step 55000
1 -2.205225692602e+00   3.988531765345e+01   3.232886017880e+00 
1 -9.216203329638e+00  -1.508879006821e+01  -3.612766952790e+01 
1 -3.555099171859e+00  -5.116761670656e+01  -1.386192772249e+00 
1  1.449426407452e+01  -2.680948031496e+01   4.126590376973e+01 
1 -5.502576517812e+01  -1.528532899262e+01  -1.528588521993e+01 
1 -2.182438694929e+01   5.289447313501e+01  -3.218812982861e+01 
1 -1.833873635543e+00  -1.500464971341e+01  -2.288778709225e+01 
1 -2.460063469639e+01   1.378319641405e+01  -7.766983908696e+01 
8
Step 56000
1 -1.205502015969e+01   2.555590543550e+01   4.048348524411e+01 
1 -4.540984707407e+01  -1.013612545117e-01   1.728100948211e+01 