8
Step 0
1  7.395189469585e+00   2.868572838882e+01  -2.182869978595e+01 
1  3.581768520100e+01  -5.040078629445e+01  -1.872152468762e+01 
1 -8.956057854562e+00   4.753479582038e+00   1.574679953468e+00 
1  1.977878075509e+01   3.607585693886e+01  -2.422827477529e+01 
1  7.002853144553e+01   7.647335132185e+01   2.165794942044e+00 
1  2.570063494682e+01  -1.914862205628e+01   1.732125061436e+00 
1  5.826318678326e+01  -1.353795077675e+01  -5.974027404880e+01 
1  5.370653369435e+01  -9.140397982714e+00  -5.549262301199e+01 
8
Step 1000
1  2.318424523868e+01   4.524772221231e+01  -2.515744024498e+01 
1  4.369290832603e+01  -5.098569354402e+01  -5.479241381196e+01 
1 -4.365605477973e+01  -6.316727271387e+00  -2.840827663959e+01 
1  2.258832381916e+01   1.376000050550e+01   1.502151082889e+01 
1  6.092340553978e+01   3.879862071125e+01  -1.417948895870e+01 
1  3.988769008317e+01   2.845435794004e+00  -3.179997946931e+00 
1  6.304420218544e+01  -2.181748608034e+01  -5.220422985264e+01 
1  1.085654679841e+01   2.961881017824e+00  -6.692951679647e+01 
8
Step 2000
1  2.427153847336e+01   5.193551054509e+01  -1.725662333100e+01 
1  2.777467540466e+01  -2.607549794056e+01  -6.410066817694e+01 
1 -5.579138257668e+01  -1.751749919016e+01  -4.441802936630e+01 
1  1.486568967625e+01  -1.031957989472e+01   5.631961042380e+01 
1  2.941730693786e+01  -7.992748744774e+00  -2.049216897341e+01 
1  4.077016280486e+01   2.421670540681e+01  -1.945821905083e+01 
1  4.931409214302e+01  -2.619377769354e+01  -2.626011996175e+01 
1 -3.557743170397e+01   1.274488724132e+01  -4.967800727531e+01 
8
Step 3000
1  1.397122264228e+01   4.405075143437e+01  -3.246985580732e+00 
1 -2.147303526017e+00   7.955440332901e+00  -4.763960012051e+01 
1 -4.638753646705e+01  -2.397402501514e+01  -4.078209588696e+01 
1  1.923973138422e+00  -2.602589569329e+01   8.534158697531e+01 
1 -8.545447358144e+00  -4.528755224985e+01  -1.428832698150e+01 
1  3.095814667143e+01   3.939120755016e+01  -3.729625160948e+01 
1  1.851140851736e+01  -2.673409152085e+01   8.515028372034e+00 
1 -7.028032087802e+01   1.015782845450e+01  -1.166712974519e+01 
8
Step 4000
1  1.281463450811e+00   2.197246759754e+01   9.536101413716e+00 
1 -2.888461788611e+01   3.107925547374e+01  -1.749129334580e+01 
1 -2.531365326127e+01  -2.250598942688e+01  -2.080308709837e+01 
1 -8.706330498203e+00  -2.854898125548e+01   9.032901071377e+01 
1 -3.576979596590e+01  -6.033186346806e+01  -8.760196208976e-02 
1  1.640946053019e+01   4.481552573177e+01  -4.400889582653e+01 
1 -2.062728879007e+01  -2.302079911596e+01   3.852681503779e+01 
1 -8.229390020150e+01  -6.551520512680e+00   2.949728200272e+01 
8
Step 5000
1 -5.045926205825e+00  -8.283942276018e+00   1.570049993332e+01 
1 -3.782518482151e+01   3.135772440307e+01   1.037854918335e+01 
1 -5.153807122517e+00  -1.274624122852e+01   5.430537540119e+00 
1 -1.207058569639e+01  -1.951867065969e+01   6.773216703516e+01 
1 -4.250110604473e+01  -5.119746482399e+01   1.323438315330e+01 
1  3.164807889321e+00   3.973070970252e+01  -3.178984113245e+01 
1 -5.488542006181e+01  -1.418351865328e+01   5.265209851453e+01 
1 -6.882984757618e+01  -2.937337858377e+01   5.553239342355e+01 
8
Step 6000
1 -1.637093312669e+00  -3.715446023304e+01   1.419430380690e+01 
1 -2.466623026095e+01   1.087719823500e+01   2.413449905100e+01 
1  5.258901970062e+00   2.832055940189e+00   2.624515465794e+01 
1 -8.395710391801e+00  -4.770304853092e+00   2.408968565199e+01 
1 -3.019207026599e+01  -2.586363102429e+01   1.754672737363e+01 
1 -5.348191730239e+00   2.584084456725e+01  -2.418319674170e+00 
1 -7.180206891866e+01  -4.416962215596e-02   4.706103604221e+01 
1 -3.540392980947e+01  -4.524237312475e+01   5.601269660858e+01 
8
Step 7000
1  8.047286755272e+00  -5.508805843451e+01   8.000931465023e+00 
1  2.901871884535e+00  -1.645963664316e+01   2.064722156042e+01 
1  4.275410821995e+00   1.955344771477e+01   3.348097649435e+01 
1 -2.246946678552e+00   9.010381264032e+00  -2.610096560144e+01 
1 -9.146909329385e+00   2.609637488277e+00   9.754084971302e+00 
1 -9.110121906722e+00   6.618455192474e+00   3.312068351117e+01 
1 -6.476320960968e+01   1.738511403388e+01   2.629360146451e+01 
1  6.450329792056e+00  -4.338534315111e+01   3.252450471358e+01 
8
Step 8000
1  1.622452774970e+01  -5.639404322198e+01   1.700561072832e+00 
1  2.954755504076e+01  -3.329990879399e+01   5.742311196581e+00 
1 -2.868637733384e+00   3.183302450760e+01   2.576296611390e+01 
1  7.980459454095e-01   1.709793636694e+01  -6.588475966908e+01 
1  7.870416456387e+00   2.214605795195e+01  -6.478251045886e+00 
1 -1.059016484048e+01  -1.349542532731e+01   5.969830455664e+01 
1 -3.631139554779e+01   3.337960314733e+01   7.513118072064e-01 
1  4.304148784850e+01  -2.156054759441e+01  -2.530556323072e+00 
8
Step 9000
1  1.582863347860e+01  -4.150391310013e+01  -1.621386105485e+00 
1  4.078193750924e+01  -2.907884332235e+01  -9.874992173041e+00 
1 -7.803092117332e+00   3.504769774542e+01   8.382020633333e+00 
1 -1.998150570184e+00   1.809987658567e+01  -8.297605212444e+01 
1  1.275438093580e+01   2.694048710096e+01  -2.262665449008e+01 
1 -1.270776728694e+01  -3.014218248539e+01   6.561448655385e+01 
1  2.629971697827e+00   4.190645348261e+01  -1.863723435533e+01 
1  6.355478702593e+01   1.221358297138e+01  -3.245267962667e+01 
8
Step 10000
1  4.800539781521e+00  -1.617987523478e+01  -1.950802221097e+00 
1  3.045913861025e+01  -5.650126593008e+00  -1.666403477496e+01 
1 -4.106732698280e+00   2.705718474803e+01  -1.010880827709e+01 
1 -8.711154113405e+00   1.335821741848e+01  -7.412114789475e+01 
1  5.755426827200e+00   1.890470101139e+01  -2.986911302457e+01 
1 -1.675778987075e+01  -3.981410422213e+01   4.793905390195e+01 
1  3.758900440101e+01   3.818180288524e+01  -2.549505818074e+01 
1  6.334488223678e+01   4.373113853135e+01  -4.431828074535e+01 
8
Step 11000
1 -1.267981792771e+01   1.115887738992e+01  -1.644043363562e+00 
1  3.339502454837e+00   2.421078965439e+01  -1.061347828451e+01 
1  9.161013342609e+00   9.044745594549e+00  -2.195873260708e+01 
1 -1.391706641282e+01   5.361247973626e+00  -4.499638353321e+01 
1 -5.778156605796e+00   5.208457379099e+00  -2.335897916992e+01 
1 -2.143065235665e+01  -4.018143906808e+01   1.327925318656e+01 
1  5.619231915281e+01   2.105207439111e+01  -2.002567694902e+01 
1  4.429947199982e+01   5.928860735382e+01  -3.416355413177e+01 
8
Step 12000
1 -2.811286291950e+01   3.247546485740e+01  -3.363628952382e+00 
1 -2.738232252677e+01   4.356512216671e+01   5.407511789849e+00 
1  2.672486613985e+01  -1.420188631022e+01  -2.320518569571e+01 
1 -1.197231747959e+01  -3.484508660039e+00  -7.232786444936e+00 
1 -1.215121164378e+01  -5.735793146302e+00  -4.577740329045e+00 
1 -2.333547453293e+01  -3.059286949625e+01  -2.508658393324e+01 
1  5.273596531440e+01  -5.516774893243e+00  -7.998681084600e+00 
1  1.371621896496e+01   5.180805349145e+01  -8.175609544937e+00 
8
Step 13000
1 -3.307034357701e+01   4.279754944098e+01  -7.818373420802e+00 
1 -4.656003342081e+01   4.049111521958e+01   2.336437248636e+01 
1  3.949218069550e+01  -3.522306167051e+01  -1.491175930714e+01 
1 -7.919181666817e-01  -1.132293512011e+01   2.643667167194e+01 
1 -7.153046958997e+00  -8.377494467730e+00   1.900714390867e+01 
1 -1.883728194838e+01  -1.271752400732e+01  -5.282980943878e+01 
1  3.048578873139e+01  -3.296338931417e+01   2.596991167536e+00 
1 -1.810141746313e+01   2.430524837921e+01   2.044456284755e+01 
8
Step 14000
1 -2.385306290165e+01   4.141993100093e+01  -1.272336213554e+01 
1 -4.459036985890e+01   1.486389699176e+01   3.412147282019e+01 
1  3.915421827106e+01  -4.625812203572e+01  -2.018108854435e+00 
1  1.615271055369e+01  -1.668772015732e+01   4.715105946671e+01 
1  8.194742946082e+00  -2.516105054583e+00   3.726931154140e+01 
1 -6.292642313216e+00   9.359086185253e+00  -6.068334267566e+01 
1  8.194622615955e-02  -5.117948496318e+01   5.815343021797e+00 
1 -4.140272411216e+01  -1.147064949831e+01   3.786965199883e+01 
8
Step 15000
1 -3.608493861958e+00   3.110404745785e+01  -1.389425464851e+01 
1 -2.184770997904e+01  -2.126198993260e+01   3.169225719020e+01 
1  2.253983730489e+01  -4.208115609480e+01   9.460444525858e+00 
1  3.098497175903e+01  -1.814910347954e+01   5.237273121043e+01 
1  2.601293707243e+01   7.216839746077e+00   4.203551906887e+01 
1  1.249028215129e+01   2.983229688397e+01  -4.776605612219e+01 
1 -2.530857191612e+01  -5.262256646549e+01   6.216875318098e-01 
1 -5.001805810145e+01  -4.068697697356e+01   3.588191784619e+01 
8
Step 16000
1  1.899973551223e+01   1.614297658173e+01  -7.922138140213e+00 
1  1.165629794339e+01  -4.949369598152e+01   1.573881902245e+01 
1 -6.258161046406e+00  -2.234912404259e+01   1.518383469566e+01 
1  3.516876373167e+01  -1.439292657833e+01   4.514114443192e+01 
1  3.562608739479e+01   1.415842527454e+01   3.060549262569e+01 
1  3.222315654768e+01   4.258994670576e+01  -2.105569204107e+01 
1 -3.560277862916e+01  -3.563957169114e+01  -8.939078668080e+00 
1 -4.279646346029e+01  -5.207825710048e+01   1.535655373998e+01 
8
Step 17000
1  3.381295115459e+01   4.823127243470e-01   5.117002323658e+00 
1  4.089631299490e+01  -5.438916780219e+01  -8.392346923039e+00 
1 -3.690487988771e+01   7.341772391763e+00   1.403362197783e+01 
1  2.414389130302e+01  -5.012032901274e+00   3.126209166979e+01 
1  2.938934031897e+01   1.315048390489e+01   6.968434621536e+00 
1  4.573976486175e+01   4.321102433496e+01   8.139723104973e+00 
1 -2.802192838622e+01  -5.723987308051e+00  -1.610552298270e+01 
1 -2.352444505360e+01  -4.268485669075e+01  -1.412703756596e+01 
8
Step 18000
1  3.418871753590e+01  -1.332063018873e+01   2.058345984560e+01 
1  5.288658838891e+01  -3.186180672213e+01  -3.194906096289e+01 
1 -5.696909458411e+01   3.669145611062e+01   8.068209903822e+00 
1  4.888850336106e-01   8.419756810266e+00   1.598819956339e+01 
1  7.357394685481e+00   3.373079150988e+00  -1.975062665404e+01 
1  4.683724597331e+01   3.089795967744e+01   2.920836113340e+01 
1 -8.191143156690e+00   2.619489200632e+01  -1.515326459332e+01 
1  5.641400895735e-01  -1.882740939745e+01  -3.866064788224e+01 
8
Step 19000
1  2.044043264617e+01  -2.407536522016e+01   3.085229564527e+01 
1  4.277219202879e+01   8.015533614947e+00  -4.636965361711e+01 
1 -5.753360311864e+01   5.438805397514e+01   1.041102191408e+00 
1 -2.646564256209e+01   2.193636176947e+01   1.807253979416e+00 
1 -2.196714412408e+01  -1.100954241970e+01  -3.921925010554e+01 
1  3.313467256245e+01   9.267028942395e+00   3.658623135851e+01 
1  1.269000973576e+01   4.817047249727e+01  -4.634811653460e+00 
1  2.142419137761e+01   7.368343086220e+00  -4.653472202356e+01 
8
Step 20000
1 -4.022976318836e-01  -3.116069298857e+01   2.910744071278e+01 
1  1.569377124312e+01   4.574869015407e+01  -4.657442282480e+01 
1 -3.742503102653e+01   5.278899164563e+01  -3.728908433658e+00 
1 -4.477401840066e+01   3.013729138052e+01  -1.155968545029e+01 
1 -4.547155147181e+01  -2.291013880238e+01  -4.435459621216e+01 
1  7.479009998210e+00  -1.470080093925e+01   3.131523486057e+01 
1  2.342343231928e+01   5.235583405023e+01   1.168877593625e+01 
1  3.306139181809e+01   2.429107190845e+01  -3.361154351880e+01 
8
Step 21000
1 -1.832804746694e+01  -3.362429261454e+01   1.333160696271e+01 
1 -1.622408726306e+01   6.216067037721e+01  -3.248977460290e+01 
1 -3.905152135683e+00   3.136059837315e+01  -4.927591467809e+00 
1 -4.561257102127e+01   2.832979405410e+01  -2.514655750146e+01 
1 -5.175582008404e+01  -2.589777974468e+01  -3.400592897164e+01 
1 -2.278008644579e+01  -3.317352394223e+01   1.925166365224e+01 
1  1.826836524195e+01   3.817777557157e+01   2.666696971688e+01 
1  3.327508379334e+01   2.639965113639e+01  -4.994557315253e+00 
8
Step 22000
1 -2.533998446351e+01  -3.003249502236e+01  -1.169343867154e+01 
1 -3.964048729164e+01   4.810053137017e+01  -8.562654283881e+00 
1  3.023676006067e+01  -2.528611218284e+00  -3.468578638741e+00 
1 -2.770761990016e+01   1.498163097042e+01  -3.821643603950e+01 
1 -3.673171531155e+01  -1.747071595690e+01  -1.295600862698e+01 
1 -4.816645495094e+01  -4.031223354294e+01   7.376649054519e+00 
1 -2.943000438988e-01   1.228505319652e+01   3.319402196105e+01 
1  2.375166244355e+01   1.621431415063e+01   2.730312970776e+01 
8
Step 23000
1 -1.937244798199e+01  -1.942452987487e+01  -3.559227864910e+01 
1 -4.588658762242e+01   9.593891733693e+00   1.801670164494e+01 
1  5.198692689714e+01  -3.592220983793e+01  -1.524175241199e+00 
1  1.562244685204e+00  -6.600244751754e+00  -4.709529567763e+01 
1 -6.033689292991e+00  -6.204547137622e-01   1.036170018013e+01 
1 -6.030334458655e+01  -3.447512660979e+01   2.319536429643e-01 
1 -2.255986694328e+01  -1.445333030756e+01   2.764344385169e+01 
1  8.965270010557e+00   2.269514664412e+00   4.952176770039e+01 
8
Step 24000
1 -5.205787886096e+00  -2.688141625189e+00  -4.691664824525e+01 
1 -3.452263977374e+01  -3.465973048334e+01   3.975441030325e+01 
1  5.385058408395e+01  -5.549859035126e+01  -1.064211743425e+00 
1  2.937531606300e+01  -2.871079663998e+01  -4.645060180678e+01 
1  2.728672885248e+01   1.731521989369e+01   2.761936691432e+01 
1 -5.503375927543e+01  -1.885458526965e+01  -1.944792571347e+00 
1 -3.623437552919e+01  -3.188082040163e+01   1.170603406822e+01 
1 -5.683914640772e+00  -5.950282382143e+00   5.229863441333e+01 
8
Step 25000
1  8.457758855675e+00   1.677772692907e+01  -3.890362083833e+01 
1 -1.251572749207e+01  -6.276732187352e+01   5.107903362522e+01 
1  3.694442120346e+01  -5.340060145364e+01  -2.686759233956e+00 
1  4.372673469662e+01  -4.220742365356e+01  -3.237277076683e+01 
1  4.902798904874e+01   2.819981966382e+01   3.403702157311e+01 
1 -3.383836269628e+01   1.167866696390e-01  -2.463305271762e+00 
1 -3.259990130436e+01  -3.503181583647e+01  -8.540123543034e+00 
1 -1.591667211434e+01  -3.476019678551e+00   3.463892342906e+01 
8
Step 26000
1  1.388587204271e+01   3.357908500413e+01  -1.313265661368e+01 
1  1.007692513439e+01  -6.044998629518e+01   4.935673524030e+01 
1  9.805948718916e+00  -3.048200893019e+01  -5.351163132937e+00 
1  3.902965517702e+01  -4.042433559007e+01  -5.420388691797e+00 
1  5.030887292092e+01   2.696952252207e+01   2.959717424144e+01 
1 -2.974792867192e+00   1.566097650365e+01  -5.411705571668e+00 
1 -1.082391840941e+01  -2.560024811636e+01  -2.559354802338e+01 
1 -1.973987520630e+01   7.525876882144e+00   3.717277942244e+00 
8
Step 27000
1  8.363993293512e+00   4.195227102165e+01   2.039524106597e+01 
1  2.485884550321e+01  -2.808133766385e+01   3.497452983789e+01 
1 -1.570313747124e+01   3.870011286033e+00  -7.049814683678e+00 
1  1.852263605758e+01  -2.239238248957e+01   2.784561073939e+01 
1  3.129196503778e+01   1.406172758054e+01   1.804439389951e+01 
1  2.856351616062e+01   2.325702430870e+01  -1.265140904419e+01 
1  2.117062427755e+01  -1.027791893093e+01  -3.367612719635e+01 
1 -1.746663061962e+01   1.909077406804e+01  -2.832888611384e+01 
8
Step 28000
1 -4.296179518411e+00   3.831413771169e+01   4.706846107323e+01 
1  2.840297149344e+01   1.874872748888e+01   1.121951018087e+01 
1 -2.975075658947e+01   3.526222145669e+01  -6.032210009178e+00 
1 -7.236313302724e+00   5.787790116166e+00   5.620596090367e+01 
1  1.130124724368e+00  -4.490879736913e+00   4.645368870585e+00 
1  5.173957000883e+01   2.221514921289e+01  -2.216465479099e+01 
1  4.960984716679e+01   2.880493478457e+00  -3.097636252109e+01 
1 -1.110172056921e+01   2.197691000036e+01  -4.926396203140e+01 
8
Step 29000
1 -1.590451130604e+01   2.339395427531e+01   5.462131361036e+01 
1  2.286449784537e+01   5.693108209921e+01  -1.636569122290e+01 
1 -2.909622438954e+01   5.071405374401e+01  -1.896441323553e+00 
1 -2.581173977565e+01   3.303454013063e+01   6.849221989222e+01 
1 -2.658454488632e+01  -1.995141067771e+01  -6.431344735710e+00 
1  6.045866491190e+01   1.551618946499e+01  -2.884586936414e+01 
1  6.115311604454e+01   8.662144428332e+00  -1.999572511818e+01 
1 -3.309091294387e+00   1.123700993750e+01  -5.189302129675e+01 
8
Step 30000
1 -1.866721652605e+01   2.183178451026e+00   3.914043310000e+01 
1  1.342783614149e+01   6.775085411694e+01  -4.120275820662e+01 
1 -1.786655895722e+01   4.441529374973e+01   4.174647526035e+00 
1 -2.929024832819e+01   4.818500951120e+01   5.884453280077e+01 
1 -4.055664784791e+01  -2.528370059694e+01  -1.365255075667e+01 
1  5.312707974019e+01   7.729330374884e+00  -2.730923636216e+01 
1  4.904543889473e+01   7.009165233354e+00  -5.601562997314e+00 
1  3.635738199399e+00  -1.067392808293e+01  -3.646534556605e+01 
8
Step 31000
1 -9.449402875056e+00  -1.803128330045e+01   6.769024851018e+00 
1  4.692960126025e+00   4.555850281242e+01  -5.674456648243e+01 
1 -4.477182437572e+00   1.969679268177e+01   1.000214790433e+01 
1 -1.767667259953e+01   4.463566865304e+01   2.946322697444e+01 
1 -3.638661958183e+01  -1.834315545313e+01  -1.768568076693e+01 
1  3.229545498586e+01   2.460621518645e+00  -1.491072463143e+01 
1  1.587516909177e+01   2.190154217962e+00   7.580270309318e+00 
1  8.286984910879e+00  -3.473379681264e+01  -9.502224890841e+00 
8
Step 32000
1  8.287158653024e+00  -3.045409344947e+01  -2.855879923139e+01 
1 -1.593738474890e+00   5.882738089880e-01  -5.774102585153e+01 
1  2.967268553143e+00  -1.236262965383e+01   1.335861090961e+01 
1  1.500733755057e+00   2.329576655344e+01  -9.490837296937e+00 
1 -1.778044551527e+01  -2.894299453634e+00  -1.978526102223e+01 
1  3.733643538670e+00   7.072845297809e-01   6.201504728277e+00 
1 -2.694017089886e+01  -1.077998016569e-01   1.681688007498e+01 
1  1.000204877688e+01  -4.921017847611e+01   1.900726464118e+01 
8
Step 33000
1  2.579527668745e+01  -3.180351341571e+01  -5.109581925237e+01 
1 -6.643071596619e+00  -4.523706394045e+01  -4.230230880543e+01 
1  1.048114219618e+00  -3.746763936276e+01   1.297672636835e+01 
1  1.708153805220e+01  -7.122580601744e+00  -4.349790511757e+01 
1  5.546238447213e+00   1.297763058101e+01  -2.024505509013e+01 
1 -2.496294416105e+01   6.389373959772e-01   2.909566239980e+01 
1 -6.317711830150e+01   3.673755929929e+00   2.168734813693e+01 
1  8.874923379246e+00  -4.547196113629e+01   3.930153588887e+01 
8
Step 34000
1  3.367713710724e+01  -2.386971564967e+01  -5.104353327251e+01 
1 -1.266630642506e+01  -6.947019386028e+01  -1.336124851729e+01 
1 -7.088851902474e+00  -4.476118940528e+01   9.070373436246e+00 
1  2.038823715363e+01  -3.391549941313e+01  -6.033597134553e+01 
1  2.303190305437e+01   2.105905390197e+01  -1.784892560511e+01 
1 -4.663377960776e+01  -9.666688330950e-01   4.492033532941e+01 
1 -7.876413474153e+01   1.263567991669e+01   2.323085846455e+01 
1  5.602749628320e+00  -2.273392648107e+01   4.553865690376e+01 
8
Step 35000
1  2.681274270266e+01  -1.215764632139e+01  -2.887565798257e+01 
1 -2.019471213003e+01  -6.023551617170e+01   2.180145258389e+01 
1 -1.381211172631e+01  -3.141706527659e+01   2.958312968377e+00 
1  9.639283505628e+00  -4.619454712936e+01  -5.536661911274e+01 
1  2.832682933028e+01   1.720337880936e+01  -1.065562876142e+01 
1 -5.633734170448e+01  -6.430608682495e+00   4.680611256567e+01 
1 -6.723223841964e+01   2.182004241615e+01   2.230223561783e+01 
1  1.267149584526e+00   1.164311457560e+01   3.713564471311e+01 
8
Step 36000
1  6.705260054019e+00  -2.789775843510e+00   5.516770244675e+00 
1 -2.652787649203e+01  -2.096901370131e+01   5.310873066359e+01 
1 -1.137778803022e+01  -3.149075082053e+00  -3.747184086542e+00 
1 -9.576565315421e+00  -3.906994296807e+01  -3.265276475192e+01 
1  2.118268515125e+01   3.122506350231e+00   2.309022458996e+00 
1 -5.186598346388e+01  -1.538597931524e+01   3.251359638840e+01 
1 -3.123686384333e+01   2.470483576436e+01   1.843087945282e+01 
1 -2.804833470271e+00   4.533076887037e+01   1.773609021548e+01 
8
Step 37000
1 -1.878544911982e+01   6.240272631621e-01   3.675191448545e+01 
1 -2.639921694102e+01   3.074172430271e+01   6.994578927768e+01 
1  3.516094506530e+00   2.791265048204e+01  -9.740532963606e+00 
1 -2.683320514875e+01  -1.558945629787e+01  -3.050056602433e+00 
1  6.531906713632e+00  -1.419003611496e+01   1.921791610283e+01 
1 -3.411474621145e+01  -2.421364069065e+01   5.715551824495e+00 
1  1.811028831358e+01   1.653673496292e+01   1.012637213943e+01 
1 -5.242471087426e+00   6.541507710976e+01  -6.244863487844e+00 
8
Step 38000
1 -3.853466265138e+01  -9.042594702159e-01   5.045469671227e+01 
1 -1.513891550418e+01   7.019757812686e+01   6.508310083130e+01 
1  2.670009447423e+01   4.779531456383e+01  -1.424566233748e+01 
1 -3.179211624887e+01   1.387650389354e+01   2.036167571482e+01 
1 -8.281136331721e+00  -2.540989616164e+01   3.479370926923e+01 
1 -7.527215271097e+00  -2.733128906419e+01  -2.455445006679e+01 
1  6.415090977614e+01  -2.498024520867e+00  -3.452071024310e+00 
1 -5.137185106610e+00   6.366959436917e+01  -2.731631342424e+01 
8
Step 39000
1 -4.367520267385e+01  -2.177802215939e+00   4.047537096008e+01 
1  7.296856400078e+00   7.770382748018e+01   3.863494877265e+01 
1  4.751894379465e+01   4.704149104945e+01  -1.682611874540e+01 
1 -1.985406669102e+01   3.604830861837e+01   2.875076952141e+01 
1 -1.732108504191e+01  -2.368998399549e+01   4.205575407115e+01 
1  2.076381722685e+01  -2.025126652913e+01  -4.738743548627e+01 
1  9.075499552596e+01  -2.628630417787e+01  -2.064560145581e+01 
1 -2.604665785154e+00   4.052515014350e+01  -3.926113898468e+01 
8
Step 40000
1 -3.205306735005e+01   2.844619894773e+00   1.206039946114e+01 
1  3.424645876317e+01   4.862719469241e+01  -9.404921308693e-01 
1  5.380743395934e+01   2.513388793708e+01  -1.687858577127e+01 
1  5.043470671624e+00   4.088174507514e+01   2.188559197170e+01 
1 -1.863862641775e+01  -8.491779935207e+00   3.562925106834e+01 
1  4.295732697812e+01  -2.640789602294e+00  -5.457293905884e+01 
1  8.834374072730e+01  -4.493533141751e+01  -3.653387925462e+01 
1  1.073719127199e+00   4.748923293265e+00  -3.891863724126e+01 
8
Step 41000
1 -9.306455934307e+00   1.652728559210e+01  -2.043519901453e+01 
1  5.383211455841e+01  -3.658151534453e+00  -3.919461162181e+01 
1  3.842663419611e+01  -8.906395855586e+00  -1.343809705005e+01 
1  3.172915621609e+01   2.639585019807e+01   7.968778767024e+00 
1 -1.425092165862e+01   1.354207237007e+01   1.511063626568e+01 
1  5.292780484915e+01   2.020596234759e+01  -4.401664089189e+01 
1  5.756972796674e+01  -4.909504830751e+01  -4.407813249175e+01 
1  3.922155591905e+00  -3.032616579491e+01  -2.701774463375e+01 
8
Step 42000
1  1.399758497476e+01   3.454408642821e+01  -4.067576964045e+01 
1  5.474416024498e+01  -5.384679852893e+01  -6.167702445772e+01 
1  4.393183266605e+00  -4.032836478244e+01  -5.783794189764e+00 
1  4.712212824558e+01   1.999640028401e-01  -1.186088412011e+00 
1 -7.984838973310e+00   3.152332900439e+01  -1.332727709980e+01 
1  4.868410227084e+01   3.893515270836e+01  -2.081937120393e+01 
1  9.680749766320e+00  -3.509011768565e+01  -3.764039744665e+01 
1  4.327976471347e+00  -5.271098132009e+01  -8.095583585747e+00 
8
Step 43000
1  2.833144492476e+01   4.721837872084e+01  -3.926501244270e+01 
1  3.325502866195e+01  -7.834941749098e+01  -6.114611709248e+01 
1 -3.562476320218e+01  -5.593294642042e+01   5.569278641024e+00 
1  4.338266072113e+01  -2.433204579139e+01   2.353552360646e+00 
1 -2.568409279804e+00   3.620718695000e+01  -3.915445140376e+01 
1  3.317047563193e+01   4.482332291795e+01   5.455150395469e+00 
1 -3.830311983553e+01  -7.466148188687e+00  -1.687154370724e+01 
1  2.059960073177e+00  -5.723671643331e+01   1.127249742592e+01 
8
Step 44000
1  3.006857303091e+01   4.471256993981e+01  -1.831508360630e+01 
1 -3.903154057843e+00  -6.725615988192e+01  -4.062377836835e+01 
1 -6.543289496057e+01  -4.998565860457e+01   1.823811352195e+01 
1  2.186024137292e+01  -3.509623901643e+01   1.758937501704e+01 
1  1.844866704516e+00   2.482738318463e+01  -5.223435259440e+01 
1  1.250207168761e+01   3.435295564554e+01   2.563930632935e+01 
1 -7.083611082952e+01   2.313104032652e+01   1.207240109875e+01 
1 -1.576102713598e+00  -4.659517728994e+01   2.506108013095e+01 
8
Step 45000
1  2.224650859553e+01   2.283896898153e+01   1.041700578238e+01 
1 -4.200360168574e+01  -2.789406887237e+01  -1.111118853754e+01 
1 -7.267998886126e+01  -2.580519967231e+01   2.815064592157e+01 
1 -7.997559311237e+00  -2.706443175283e+01   3.492675906221e+01 
1  6.814789397718e+00   2.278260515378e+00  -4.714226266612e+01 
1 -6.782936958041e+00   1.107188218569e+01   3.458376457206e+01 
1 -7.913462131334e+01   4.474287314633e+01   3.841455528727e+01 
1 -4.415928118951e+00  -2.810007136758e+01   2.970423287426e+01 
8
Step 46000
1  1.173194438351e+01  -1.332266881045e+01   3.184743720470e+01 
1 -6.470138427965e+01   1.988941754255e+01   1.406283301141e+01 
1 -5.437869790085e+01   6.413972707949e+00   3.086436345456e+01 
1 -3.332025931338e+01  -4.587164548591e+00   4.132363469164e+01 
1  1.336514208447e+01  -2.127842323971e+01  -2.558916769853e+01 
1 -2.015028842897e+01  -1.571556787183e+01   3.236864577175e+01 
1 -6.344752483153e+01   4.929010070645e+01   5.109675644762e+01 
1 -4.653155325479e+00  -9.217724549668e+00   2.503201029415e+01 
8
Step 47000
1  4.613747427904e+00  -5.046011802229e+01   3.536376155199e+01 
1 -6.190252969893e+01   5.420674196776e+01   2.582350824031e+01 
1 -1.815776909599e+01   3.444315321046e+01   2.372070239757e+01 
1 -4.399072170438e+01   2.082461042409e+01   2.783065634462e+01 
1  2.012211533074e+01  -3.540738686683e+01   4.165781681896e+00 
1 -2.638923789775e+01  -3.516732046696e+01   2.305802890897e+01 
1 -3.194742959999e+01   3.612824915655e+01   4.414277651938e+01 
1 -2.022187038635e+00   5.828005402467e+00   1.403012515830e+01 
8
Step 48000
1  2.593675792262e+00  -7.283300446705e+01   1.994510933837e+01 
1 -3.476142876283e+01   6.173143343524e+01   2.329927588808e+01 
1  2.169140271311e+01   4.911284537555e+01   7.552852857233e+00 
1 -3.715685883656e+01   3.627906107710e+01  -4.684187417714e+00 
1  2.334581315986e+01  -3.441232627129e+01   3.091346092833e+01 
1 -2.715544662166e+01  -3.997035671710e+01   1.182053586916e+01 
1  3.368941827714e+00   1.193278570797e+01   1.996889956290e+01 
1  1.955116469935e+00   1.688612558730e+01   1.336474588320e+00 
8
Step 49000
1  2.579664655891e+00  -6.972933967019e+01  -5.914212081745e+00 
1  4.871650291079e+00   4.280316909869e+01   1.307995111625e+01 
1  5.077309997300e+01   4.713762846834e+01  -1.302202189247e+01 
1 -1.784082373842e+01   3.373495491864e+01  -4.481842956030e+01 
1  1.898551877102e+01  -1.970791014982e+01   4.513665506499e+01 
1 -2.521192620940e+01  -2.948262448956e+01   2.311474985771e+00 
1  3.145767700720e+01  -1.278317485340e+01  -1.126652699480e+01 
1  4.831469352974e+00   2.598127476370e+01  -8.716121344391e+00 
8
Step 50000
1 -5.246652676942e-01  -4.095649396336e+01  -2.892990209096e+01 
1  3.998687799975e+01   9.554145244246e+00   4.731408673193e+00 
1  6.046393595773e+01   3.117929291137e+01  -3.098980860560e+01 
1  4.169306826284e+00   1.388880492405e+01  -7.536147175012e+01 
1  5.578002349499e+00   1.258706466907e+00   4.271989089195e+01 
1 -2.249085110328e+01  -9.689820927392e+00  -4.419445510462e+00 
1  4.576859201135e+01  -2.856176309177e+01  -3.595996004516e+01 
1  4.577888541684e+00   3.426967459325e+01  -1.366588145851e+01 
8
Step 51000
1 -9.739488846288e+00   2.569610782364e+00  -3.789489152551e+01 
1  5.635253787604e+01  -2.139403551011e+01   4.994045799678e+00 
1  5.066591302232e+01   7.756791439393e+00  -3.967925856036e+01 
1  1.945969982564e+01  -1.420233143056e+01  -8.142585519079e+01 
1 -1.385534180568e+01   1.892046619168e+01   2.626009208379e+01 
1 -1.894739196968e+01   9.967669074929e+00  -9.319071828341e+00 
1  4.554085230039e+01  -3.102615610468e+01  -4.336218279699e+01 
1  7.917911869989e-01   4.010021072551e+01  -1.355033939420e+01 
8
Step 52000
1 -2.325074941070e+01   4.367780549109e+01  -2.895050177965e+01 
1  4.869390911851e+01  -3.740912401726e+01   1.385865058722e+01 
1  2.826936554674e+01  -1.569809405618e+01  -3.550619670643e+01 
1  2.337086547040e+01  -3.755091080430e+01  -5.762309651948e+01 
1 -3.230524910163e+01   2.623166190553e+01   3.386836164776e+00 
1 -1.284107406022e+01   2.125711033478e+01  -1.363180449724e+01 
1  3.453883375501e+01  -2.202047525113e+01  -3.069730149521e+01 
1 -4.873702787082e+00   3.946261473306e+01  -1.037300260644e+01 
8
Step 53000
1 -3.460237222702e+01   6.653013015557e+01  -6.841381868300e+00 
1  2.233485885905e+01  -3.490505974374e+01   2.462855609630e+01 
1  2.871319958127e+00  -3.309047018453e+01  -1.942687134370e+01 
1  1.739923963627e+01  -4.515093459346e+01  -1.083142757286e+01 
1 -4.153660778445e+01   2.161273245324e+01  -1.678011002504e+01 
1 -2.252243558478e+00   2.076667094444e+01  -1.739857229469e+01 
1  1.844451863407e+01  -7.727173007772e+00  -4.490347275043e+00 
1 -9.447762352844e+00   2.848338386125e+01  -6.739619821213e+00 
8
Step 54000
1 -3.590142775813e+01   6.353621673145e+01   1.785365584289e+01 
1 -9.731453363610e+00  -1.936296811950e+01   2.781860724631e+01 
1 -1.759310300567e+01  -4.072085958288e+01   3.274352451247e+00 
1  7.447850318933e+00  -3.291909388675e+01   4.220437242676e+01 
1 -3.598572744409e+01   9.132970943575e+00  -2.739091973099e+01 
1  1.299502808775e+01   1.100251773870e+01  -1.915222132726e+01 
1  2.476646909742e+00   4.772542131604e+00   2.233348330452e+01 
1 -1.013893497311e+01   6.636518584557e+00  -4.432767822734e+00 
8
Step 55000
1 -2.257687945490e+01   3.848826602616e+01   3.415842207601e+01 
1 -3.311614224752e+01  -1.051404151133e+00   1.683950313025e+01 
1 -2.944941888040e+01  -3.749514684291e+01   2.488084500959e+01 
1  8.932700516901e-02  -5.679912614422e+00   8.179949141337e+01 
1 -1.598842658162e+01  -4.001685021742e+00  -2.643072633287e+01 
1  3.008087780562e+01  -1.323485511697e+00  -1.687178777660e+01 
1 -1.001136287917e+01   1.087957538819e+01   3.650654226561e+01 
1 -5.725733197443e+00  -2.136626897401e+01  -3.637005883371e+00 
8
Step 56000
1  3.193335586997e+00   4.059763492246e+00   3.596014991733e+01 
1 -3.867827280269e+01   1.104192687108e+01  -7.725775339100e+00 