8
Step 0
1  6.673994264557e+01  -6.348222162079e+01   4.533458352829e+01 
1 -4.190978114971e+01   6.511705803867e+01   6.576511494826e+01 
1  6.160288589397e+01  -4.968557995687e+01  -7.759770453232e+01 
1 -5.275475819101e+01   5.263914256172e+01  -6.287078783062e+01 
1  3.368236176707e+01  -5.535420352454e+01   6.567221809806e+01 
1 -2.932215654258e+01   5.697053922066e+01   5.504311202953e+01 
1  7.435867778535e+01  -5.503844031689e+01   6.929554136757e+01 
1  4.256782595794e+01   4.207458288030e+01   4.780089100214e+01 
8
Step 1000
1  2.234322552538e+01   3.695768576932e+00   3.334276477568e+01 
1 -1.719270300658e+01  -5.889925062618e+00  -2.973885365360e+01 
1  1.198703978142e+01  -7.873456749290e+01  -1.539514865788e+01 
1 -2.279611967946e+01  -7.245041959601e+00  -6.288476709466e-01 
1  3.796924545972e+01  -6.156451359650e+01  -3.610779564858e+00 
1  3.189265413003e+01  -1.859161963646e+01   4.642399500795e+01 
1  5.011349497788e+01  -4.383711939116e+01  -3.182320593175e+01 
1 -3.025959811241e+01   1.140683828695e+01  -2.350800509539e+00 
8
Step 2000
1  6.517602240349e+00  -2.963174661945e+01   8.786665261733e+00 
1  2.605924267402e+01   1.648839857247e+01   6.333071202542e+01 
1  5.269968908054e+01  -7.779248600564e+01  -1.572246653111e+01 
1 -5.673375945874e+00  -5.233771646858e+01  -8.780544077137e+01 
1 -7.133360998769e+00  -1.348384764613e+01   7.664253223362e+01 
1 -2.354156811516e+00  -7.138228302104e+01   1.588287129356e+01 
1 -4.995735383101e+01   4.903000625712e+01   5.444198020062e+01 
1 -3.930950127985e+01   3.997543131593e+01   1.938107523606e+01 
8
Step 3000
1  5.093398131738e+00   7.578784473259e+01   2.920449913031e+01 
1  8.535042129721e+00  -8.427875314716e+00  -4.159583324355e+01 
1  4.576530054027e+01  -4.369392859644e+01   3.486361829783e+01 
1  2.403928599258e+01  -2.227365532748e+01  -1.804955371532e+01 
1  1.511907506234e+01  -9.234708851678e+01   2.235665905568e+01 
1  2.459625876176e+01  -7.810433021075e+00  -1.856677577666e+01 
1  2.248207482532e+01  -3.954209820241e+01   4.531109844170e+00 
1 -1.210060612875e+01   6.344555519989e+01  -2.558974264428e+01 
8
Step 4000
1  1.263077785442e+01  -2.784554049954e+01   5.129510686288e+01 
1  7.963455387811e+01   1.876519558741e+01  -7.759334914728e+01 
1 -4.334663762078e+01  -1.525379050766e+01  -3.138469857277e+01 
1  9.382376725663e+00   1.455764863540e+00  -5.572044339473e+01 
1 -1.080315956567e+02   4.058481480978e+01   4.886418093357e+01 
1  8.937239906335e+01  -9.774707251185e+01   6.747504758825e+01 
1  6.127441147315e+00   5.159704564380e+01   8.751629742300e+01 
1 -1.643080518341e+00  -3.176674016749e+01  -2.690565984282e+01 
8
Step 5000
1  3.187357861845e+01   3.141270247944e-01  -2.738143780261e+01 
1  1.966123619928e+01   1.700600170325e-01   2.966217798767e+01 
1  6.047333880985e+01   2.396477946662e+00   5.472135619885e+01 
1 -4.380426890605e+01  -1.348508445271e+00  -1.171353719268e+02 
1  5.126678175523e-01  -7.640220335777e+01   3.060053771136e+01 
1  2.418022393001e+01  -5.498281530291e+01  -3.301488560583e+01 
1  1.864952778271e+01   1.151907799467e+01  -1.872486664290e+01 
1  2.735827181563e+01   2.669282168634e+00  -2.509972099526e+01 
8
Step 6000
1  7.099840484205e+01  -3.444606145065e+00   7.847512901062e+01 
1  5.364518746292e+01  -1.468946756856e+01  -1.124024205297e+02 
1 -7.012499049809e+01   7.899575997394e-01   7.413294981297e+00 
1  5.519781893633e+01   1.174635091314e+01   6.031295633280e+01 
1 -3.698620486765e+01  -1.849800000322e+01   3.344512000759e+01 
1  2.168367116180e+01   2.011518872107e+01  -1.158222564256e+01 
1 -2.487802950775e+01  -3.422701490902e+01  -1.349433085538e+01 
1 -3.104114998034e+01   3.388960850299e+01  -5.459180701379e+01 
8
Step 7000
1 -9.975027272576e+00   1.147260059412e+01  -7.483683777915e+01 
1  4.417993760136e+00  -3.438087337991e+00   2.344202089016e+01 
1  9.924858516740e+00  -4.001303180248e+01   1.136780111609e+01 
1 -1.462742690118e+01  -9.577113553433e+01  -1.108186362315e+02 
1 -1.387390546590e+01  -7.732799102163e+01   3.233856000489e+01 
1 -5.398470005744e+01  -1.728869551424e+01   1.673196622550e+01 
1 -9.729236801742e+00   4.369580637519e+01  -7.785958848988e+00 
1  8.570348983235e+00  -1.867518948458e+01  -4.935227368360e+01 
8
Step 8000
1  2.709005676929e+01   2.418191649901e+01   5.539313954763e+01 
1  2.562789442001e+01  -1.008404063422e+01  -7.470725411342e+01 
1  1.568788730579e+01  -3.761641423887e+01  -2.528858605373e+01 
1  4.331895770930e+00   1.245747814154e+02   6.071054166991e+00 
1  1.430511819789e+01  -1.926096664742e+01   2.785496531614e+01 
1  7.844092207738e+01   7.486836326909e+01  -1.931776173143e+01 
1  1.747536631159e+01  -5.340885456658e+01  -1.675885032748e+01 
1 -7.409860246972e+01   7.236133584402e+01  -3.089609829129e+00 
8
Step 9000
1  5.363883432640e+01  -3.632476840746e+01  -6.279313345880e+01 
1  1.115161658212e+01   8.475431413443e+01  -1.796631735888e+00 
1 -1.644096144275e+01   1.120480023094e+01  -4.686551020928e+00 
1 -6.278282393554e+00  -1.278837724019e+00   2.405800427180e+00 
1 -1.450024519138e+01  -7.210148208749e+01  -2.354960493080e+01 
1 -8.607938472762e+00  -1.425112465524e+01   2.804871541211e+01 
1  9.802868761652e+00  -3.839374705692e+01  -5.135154473922e+01 
1  1.074560780100e+01   4.438305621296e+00  -7.658898822399e+01 
8
Step 10000
1 -3.307354194020e+00   3.951386788722e+01   2.396661594032e+01 
1  1.863130034384e+01  -5.924362427761e+01  -1.511597624406e+01 
1  4.737058326855e+00  -5.382095889589e+01  -3.616031666158e+01 
1 -2.565291710827e+01   4.336313819265e+01  -4.982036043273e+01 
1  3.197572153631e+01   7.527750659230e+00  -5.408696786142e+00 
1 -2.417831682275e+01   3.358069111505e+00  -3.770271640676e+01 
1  5.555484057950e+01  -9.276871043281e-01  -2.612272366563e+01 
1 -9.301321726632e+01   7.942357777658e+01   1.928104686675e-01 
8
Step 11000
1  4.385229156200e+01   9.881688224641e+00  -3.316080334286e+01 
1 -2.106090378649e+01   1.706276566315e+01   1.463822589450e+00 
1 -3.732060000469e+01  -3.542016518339e+01   8.109759665241e+00 
1  4.028179125741e+01  -4.554689527592e+01   6.292922660276e+01 
1  7.674557903905e+00  -6.836059482479e+01  -7.785784441201e+01 
1 -3.368549617820e+00   4.648548763620e+01  -4.052753017199e+01 
1 -3.264467267927e+01   1.810849232803e+01  -2.365341047807e+00 
1 -5.437571548282e+01   4.236631185424e+01  -9.353082621372e+01 
8
Step 12000
1 -6.441014841053e+01   9.473491656631e+01   1.094695851026e+00 
1  4.106458240282e+01  -6.372817270721e+01  -1.132388661547e+02 
1 -1.220530927453e+01  -4.306694466656e+00   3.559369474832e+01 
1  4.141574185956e+01  -2.707141550918e+01  -2.363163725150e+01 
1  3.306747653046e+00   1.001832730268e+02  -1.988502343595e+01 
1 -3.016308074751e+01  -1.344062485276e+01   4.466359775766e+01 
1 -7.288477856439e-01   9.966960353940e+01  -4.576574546899e+01 
1 -3.331341308671e+01  -9.724769985785e+00  -1.331550627362e+01 
8
Step 13000
1 -5.261955258505e+01   3.432591470295e+01  -1.769278171150e+01 
1 -1.956805311505e+00   2.312542314157e+01  -2.064847974340e+01 
1 -3.407214732449e+01  -1.120806676540e+00   6.927405850637e+00 
1  5.712558665289e+01  -4.231788707316e+01   2.357173239603e+00 
1 -3.624163043110e+01   3.582105965310e+00  -6.339824610446e+01 
1  3.223589754228e+01  -3.595380853017e+00  -1.105157684740e+02 
1 -2.286806619294e+01  -2.155901590228e+00   8.532450071039e+01 
1 -1.362220017989e+00   7.659089902701e+00  -3.923825027882e+01 
8
Step 14000
1  5.373380678194e+01   8.499291457285e+00  -6.365744762739e+01 
1  2.185957582527e+00  -2.060360930041e+01   3.672762210800e+01 
1 -3.820383926432e+01   1.116696543169e+02   4.021200886139e+01 
1  5.860674481008e+01   2.203147028594e+01   6.407455019126e+01 
1 -4.569876851148e+01   4.751888552534e+01  -6.840868298354e+01 
1  1.541226831955e+01   3.761833001960e+01   5.620350937936e+00 
1 -1.122878727229e+01   9.104574847984e+01  -6.418169187159e+01 
1  3.275174804665e+01  -2.405501556218e+01  -8.142496428050e+01 
8
Step 15000
1 -1.100809568527e+02   1.740943708638e+01   4.870306288410e+01 
1  5.416928440042e+01  -7.414711415770e+01  -1.208564114491e+02 
1 -9.473115104601e+01  -1.268163323052e+01   3.533988210155e+01 
1 -2.272972511748e+01  -4.630219952422e+01  -7.395109072863e+00 
1  9.220806261764e+00   1.694911674019e+01  -1.294931891074e+01 
1  8.206241131623e-01  -6.107195063203e+01  -4.739708694325e+01 
1 -1.982125975779e+01  -7.220364109646e+00   1.633779411080e+01 
1 -5.497148916467e+01   6.817457538920e+01  -3.407358034449e+01 
8
Step 16000
1  2.045945390470e+01  -1.161486795190e+01  -7.249009009335e+01 
1 -8.078375613562e+01  -2.707315722560e+00   6.062603967785e+01 
1 -2.721575843787e+01   2.663183531580e+01  -2.139156967787e+01 
1  5.629386526927e+01  -2.572423476529e+00   5.811243943698e+01 
1 -9.848228988189e+00   4.090261289452e+01  -3.236122577828e+01 
1 -2.951269209958e+01   1.253621304087e+02  -2.314805796118e+01 
1 -8.512791474134e+00   2.058676513362e+01   1.309256017038e+01 
1  3.236156201041e+01   5.152101255350e+01  -6.199706546197e+01 
8
Step 17000
1 -3.956171690576e+01   3.229232922158e+01   3.651345260405e+00 
1  1.916434058033e+01   1.347925919740e+01  -6.398952435035e+01 
1 -8.033314009131e+01   5.254467690016e+00   3.716418353030e+01 
1  1.068775044567e+01   2.372312467808e+01   9.694752512456e+01 
1  8.140135753998e+01   3.326628469270e+01  -2.315917333037e+01 
1 -6.885852633154e+01   2.259381181989e+01   3.801548728298e+01 
1  3.654148664792e+01  -4.861514713245e+01  -5.616179764577e+01 
1 -3.849943320650e+01   1.582141426879e+01  -3.441370936609e+01 
8
Step 18000
1  1.493656462705e+01  -2.142907565291e+01  -6.080580271558e+01 
1 -9.100713807431e+01   2.165156823016e+01   3.663055796144e+01 
1  5.505417520471e+01   3.740866764432e+01   5.719442140350e+00 
1 -2.967271767662e+01   4.348513542499e+01  -1.077402666041e+01 
1 -5.038359559015e+01   1.488943689692e+01  -6.319057696191e+01 
1 -2.075165061194e+00   5.272687814720e+01  -2.452787692337e+01 
1  3.056200342212e+01   3.944907855660e+00   3.989324173837e+01 
1  4.554898094024e+01   8.538747686214e+00   1.459036984045e+01 
8
Step 19000
1 -8.135530434512e-01  -3.473040879950e+01   5.434209378067e+01 
1 -2.029129380440e+00  -3.869646667679e+01   2.275414649540e+01 
1 -1.327147272097e+02   1.450351648921e+01  -3.767428700280e+01 
1  2.870478178834e+00   5.149802072049e+01   1.262093527478e+02 
1  5.336605586614e+01   2.945751189793e+01  -6.184415670447e+01 
1 -2.105790651742e+00   3.602649088710e+01  -6.376168885196e-01 
1  8.671640186570e+00  -3.536647099674e+01  -5.354627040285e+01 
1 -3.792428626464e+01  -4.789170090349e+00   1.329155127548e+01 
8
Step 20000
1 -2.907616485522e+01  -2.671086443635e+01  -1.008270347816e+01 
1 -3.286203787308e+00  -6.542703458309e+01  -2.792887247998e+01 
1  6.701513083773e+01   5.135541086265e+01   5.423418585153e+01 
1 -1.968110962833e+01   2.957681179134e+01   2.283991260323e+01 
1 -4.761459005865e+01   5.495543537076e+01  -6.382445617346e+01 
1 -4.399175675122e+01   1.095844667868e+01  -8.528748359797e+00 
1 -2.519020688435e+00   6.237792147728e+01   5.814868549934e+01 
1  1.574810456822e+01   1.172565193677e+01  -8.170998708894e+00 
8
Step 21000
1 -8.091347375416e+01   3.881272958809e+01   2.309222722960e+01 
1 -2.158859197317e+01  -4.666060592732e+01   3.162591094945e+01 
1 -7.693874426693e+01  -5.850006833091e+00  -6.888243675837e+01 
1  6.713713643963e+01  -4.134284896695e+01   5.913507081584e+01 
1  1.292623491420e+01   4.615526268376e+01   2.449190624012e+00 
1  5.166377454242e+01  -3.125422359924e+00   5.322737696303e+01 
1 -6.803091068579e+01   3.581667119075e+00  -1.348436639106e+01 
1 -5.446438863559e+01  -2.648391947244e+01   6.449394274442e+01 
8
Step 22000
1  9.830371178161e+00  -5.552396103782e+01   2.304465101053e+01 
1  2.006576861769e+01   9.152471469219e+01   3.680504699221e+01 
1 -2.791340526620e+01   1.178128204863e+02   7.947156652381e+01 
1  5.233406442374e+01  -6.630677463716e+00   4.802034272600e+01 
1 -3.894925925052e+01   9.677310314832e+01  -1.112973230914e+02 
1  1.647291085513e+01  -3.810916407861e+01  -1.596604639657e+01 
1  4.556837921529e+01   2.808501276212e+00   3.815069457082e+01 
1  6.675834576595e+01  -7.140558657335e+00  -1.976051519539e+01 
8
Step 23000
1 -8.806599966667e+00  -5.248138710138e+00   2.168476621508e+01 
1 -4.263290022192e+01  -3.908394278407e+01   1.669437687944e+01 
1 -7.194303814397e+01  -8.588119110685e+00  -4.860359780067e+01 
1  1.426967062059e+01  -3.101061927459e+01   2.192949371429e+01 
1  1.494204977459e+00   9.493604835359e+01   1.878620934890e+01 
1  6.612928039146e+01  -4.302208287179e+01   3.526143757319e+01 
1  2.008389263962e+00  -3.842793750610e+01   9.077773383235e+01 
1 -6.652031537671e+01  -3.335819751039e+01   2.975298151403e+01 
8
Step 24000
1 -6.388057385082e+01  -6.732489821510e+01  -6.848358304117e+00 
1  2.663281169358e+01  -5.326708771707e+01   7.734443739396e+01 
1  4.104438771573e+01   9.698706691187e+01   1.623012626206e+00 
1  2.385007095021e+01  -1.805589167136e+01   3.050655996418e+01 
1 -2.092186854271e+01   1.979061121859e+01  -1.049396464747e+02 
1  1.397533214675e+01  -1.822477651303e+01   1.888367937142e+00 
1 -2.135960709294e+01  -2.355435452257e+01   4.299845598166e+01 
1 -2.109701117790e+01   1.693259337245e+01   3.813937369849e+01 
8
Step 25000
1  6.355256269584e+01  -2.243523868536e+01   4.296878740902e+01 
1 -7.462965298165e+01   6.124340307529e+01   7.372278203805e+01 
1  2.169352113780e+01  -5.478280709926e+01   1.361599529243e+01 
1 -4.492906003541e+01  -3.303763766739e+00   2.859391192740e+01 
1  3.980009671750e+01   2.798713685225e-01  -3.186679419918e+00 
1 -4.019829189691e+01  -6.621135176405e+00   3.567842700782e+00 
1 -3.996625969109e+00   1.312840010626e+01   4.559727967348e+01 
1  1.418908919697e+01   1.549006694171e+00   5.878202089340e+01 
8
Step 26000
1 -5.021510208859e+01   2.717493952938e+01  -2.434559005374e+01 
1  4.113433184163e+01  -2.938656358972e+01   4.292708251430e+01 
1  3.480949571269e+01   2.718741924788e+01  -6.296210687541e+01 
1  3.835740466495e+01  -3.431530344840e+00   5.554983646918e+01 
1 -1.475156122248e+01  -7.359483941875e+00  -6.388428451964e+01 
1 -3.931349517082e+01  -1.348721214046e+01  -3.055498833704e+01 
1  5.159190130675e+01  -1.186787163265e+02   6.018385310140e+01 
1  1.550732977113e+00   4.858869939151e+01   1.134854756608e+02 
8
Step 27000
1  5.011290442432e+01  -3.646365198231e+01   2.939387574081e+01 
1 -1.036361884651e+02   7.766623470750e+01   9.917943845013e+01 
1  2.825774828221e+00   9.388242786174e-01  -1.523458243596e+01 
1 -3.600771875052e+01   3.754477843309e+00   4.061296164838e+01 
1  1.557303100111e+01  -3.640229718167e+01  -6.506457303507e+01 
1  2.465436551580e+01   2.326341656279e+01   2.266105114493e+01 
1  1.714054897186e+01  -6.296922907505e+01   5.763706874999e+01 
1  8.867637515690e+01  -4.086037102587e+01   5.886240293895e+01 
8
Step 28000
1  9.993621481410e+00  -7.600582820350e+01   1.481377616423e+01 
1  8.452905350393e+01   3.182264669291e+01   2.416248691650e+01 
1  1.468592341757e+01  -1.953378004180e+01  -5.565559955726e+01 
1  1.045494663532e+01   4.786167220851e+00   3.744011290965e+01 
1  2.977789373216e+01  -3.748334899863e+00  -1.061107097025e+01 
1 -6.867880805522e+01  -2.937758825531e+01   3.186132172855e+01 
1  5.339387616331e+01  -3.372931726405e+01  -5.349826936349e+01 
1 -2.963507108771e+01  -2.171982626732e+00   7.339310301424e+01 
8
Step 29000
1 -6.623070292335e+01   3.998397977178e+01   1.294703118219e+01 
1 -2.035307697536e+01  -2.149346012311e+01   5.620081696352e+01 
1  5.391924832826e+01   6.482179114100e+00  -4.993983344364e+01 
1 -4.390622860055e+01  -8.043093897553e+01   3.817174965866e+01 
1 -6.119458186067e+01   1.661178314661e+01  -6.901510626182e+01 
1 -1.682809951574e+01  -3.868985757880e+01   2.991945837918e+01 
1  3.167090296139e+01  -6.860585188024e+01   1.285157502274e+02 
1  3.711742529502e+01  -4.426135102397e+01   3.930204815140e+01 
8
Step 30000
1  6.649296922948e+01  -5.730249597634e+01   7.889940904405e+01 
1  2.354564698409e+01   1.104202890756e+02  -1.069505853010e+01 
1  1.521685362644e+01  -3.804017921838e+01  -7.926929736837e+00 
1  2.560800720072e+01   1.727058191967e+01   2.945498092078e+01 
1 -1.442382271633e+01  -4.808131528319e+00  -4.128677038117e+01 
1 -2.455403093141e+01  -5.669220396054e+01   7.619372698102e+00 
1  2.731530418240e+01   9.260675729839e+00  -3.135022528122e+01 
1  4.662512553187e+01  -5.611665046477e+01   1.736895242906e+01 
8
Step 31000
1 -4.549810906737e+01   7.930008974973e+01  -7.109697986289e+01 
1  1.198337402622e+01  -6.344180598554e+00   3.756941282840e+01 
1  3.693486921470e+01   7.422160295012e+01  -1.495832368721e+01 
1  2.185311814221e+01  -1.231555873558e+02   1.550640525980e+01 
1 -2.988453714373e+01   1.911847937881e+00  -2.567717834521e+01 
1  1.073426168298e+01  -3.499412578143e+01   7.697815799704e+01 
1  1.528273697691e+01   2.238825184001e+01   5.139331773614e+01 
1  1.042868462601e+02  -6.040276010230e+01   5.827432291709e+01 
8
Step 32000
1  5.186323722883e+01  -1.340190602994e+02   3.411560756829e+01 
1 -4.049293569832e+01   4.491864567046e+01  -1.175863554515e+01 
1  7.175198666670e+01  -6.665942655903e+01  -7.800807564828e+01 
1  1.307505335968e+01  -1.617269619858e+00   1.329993213643e+01 
1 -2.950646597280e+01   3.493933327979e+01   8.446719428509e+00 
1  8.580729627350e+00  -2.125829636420e+01  -4.876652426972e+01 
1 -1.800901884356e+01  -3.202197369847e+01   8.865895951495e+01 
1  3.165263158063e-01  -8.668475224142e+01  -7.770154522105e+01 
8
Step 33000
1 -4.856419408468e+00   2.922250892589e+01  -2.899389270391e+01 
1  6.634796639898e+01   3.463816398951e+01   6.909066522963e+01 
1 -1.687469401608e+01   4.211063883200e+01   3.045858544399e+01 
1  9.510488481809e+00  -6.428546936916e+01  -8.684863811117e+00 
1  6.810214520154e+00  -4.021422109569e+00  -2.848006502802e+01 
1 -5.443587057614e+01   4.359726903668e+00   7.461369270345e+00 
1  5.265976685178e+01  -7.965046695460e+01  -5.086951246171e+01 
1  2.431652414776e+01   1.499813195087e+01   6.738739837442e+01 
8
Step 34000
1  8.232302210910e+01   2.679720472991e+00  -5.063696785867e+01 
1 -3.104393244964e+01  -1.387375511546e+01   2.009426384173e+01 
1  8.421003069246e+01  -3.824558944211e+01  -8.081541607347e+01 
1 -4.348334976797e+01  -2.216156833027e+01  -1.454731094379e+01 
1  2.206808978192e+01   1.802571696476e+01   2.244387352798e+01 
1  2.709896883736e+01  -1.460907812806e+01  -9.936441769291e+00 
1 -6.879527406170e+01  -7.467673512698e+01   4.525259573418e+01 
1 -4.644955933918e+01  -4.902584133173e+01  -3.525527588224e+01 
8
Step 35000
1 -3.182926440279e+01  -1.510800557801e+01  -3.184141418150e+01 
1 -7.089885091304e+00   1.418526728666e+02   1.184372324780e+01 
1  5.735539822223e+01  -3.704030549606e+01  -2.597770021039e+00 
1 -2.373352445667e+01  -1.098271480431e+01   6.344411599183e+00 
1  2.080044282381e+01  -1.362389126633e+02  -2.936175399059e+01 
1 -7.556812085720e+01   5.904949067168e+01  -1.115977652676e+01 
1  1.164432626715e+02  -2.532136327560e+01  -1.807691172161e+01 
1  5.380767320363e+01   5.813703185866e+01   4.267855646469e+01 
8
Step 36000
1  6.067392158832e+01  -8.623469771884e+00  -6.762877963202e+01 
1 -9.846938566505e-02  -6.316607001524e+01  -3.081761770838e+00 
1  7.605498560683e+01  -9.409138607591e+00  -5.529402572805e+01 
1 -2.534161270588e+01  -8.459367905183e+00   1.374420608198e+01 
1  8.569555330890e+01   1.571600754845e+01   2.816675428705e+01 
1  9.211734985178e+00   1.132853964957e+01   5.421845561961e+00 
1 -2.278036784129e+01  -3.064702523691e+01  -9.346781610044e+01 
1 -3.894499394785e+01   1.001074898017e+01   1.150104021702e+01 
8
Step 37000
1 -7.318053730440e+01  -5.970112491874e+00  -3.405219396579e+01 
1  6.707783186800e+01   2.310061290701e+01  -4.327470198200e+00 
1  5.576217911447e+01  -5.374780709256e+01  -6.140209106499e+01 
1 -4.689136199651e+01   2.633184634416e+01  -2.701542241900e+00 
1 -6.359735775546e+01   7.459218767533e+00  -8.329542728182e+01 
1  1.417613602973e+01  -2.060983905258e+01   3.002022356058e+01 
1  1.916534205022e+01  -4.418822492713e+00   3.666925387991e+01 
1  2.312893132704e+00  -2.886995405981e+00  -7.765824848893e+00 
8
Step 38000
1  1.223733703353e+01   2.911515763195e-01  -1.048892848033e+01 
1  5.675552282821e+01  -5.320248158937e+01   2.107583177445e+01 
1 -3.633827756355e+01   2.883921555043e+01   7.015863364804e+00 
1 -1.791444641044e+01  -3.394855982723e+01  -2.056407462441e+01 
1  5.367551376612e+01  -9.785493991097e+00   2.242361168589e+01 
1 -2.414500241650e+01  -2.014542548731e+00  -3.357835121698e+01 
1 -4.442259307044e+01   1.754777892458e+01  -1.786985111504e+02 
1 -3.664808565357e+01  -4.853904775404e+01   1.380023807004e+01 
8
Step 39000
1  7.396207525833e+01   5.082834074655e+01  -4.375483273635e+01 
1 -2.175646302860e+01   9.162982364440e+01  -2.232203314422e+01 
1  1.029582822885e+02  -2.928489341640e+01  -6.714463119741e+01 
1  1.878527505408e+01  -2.857215587956e+01   2.078861211700e+01 
1 -1.001579838850e+02   1.055231903687e+02   1.404561242676e+01 
1  1.308192818617e+01  -4.011738541523e+01  -3.290995012085e+01 
1 -6.139281403174e+00   7.663675278717e+01   3.708518758432e+01 
1  3.149934665796e+01  -1.594398034227e+00  -3.128635274248e+01 
8
Step 40000
1 -7.730517570057e+01  -2.510655236168e+01  -7.139198267788e+01 
1  8.626427587745e+01  -6.067192715003e+01  -3.377634234338e+01 
1  6.204903534365e+00   1.304055747084e+01  -1.715170023869e+01 
1 -1.051979915624e+01  -5.083621841019e+01  -5.182314609191e+01 
1 -2.807923814049e+01  -3.037354417842e+01   6.967608858078e+00 
1 -1.277192886487e+01   5.500090920153e+01   6.842134082103e+00 
1 -2.649692143784e+01   4.095103384511e+00  -6.013620844518e+01 
1  9.637193474195e+00   2.962433365862e+00   1.649025722199e+01 
8
Step 41000
1  8.382315426500e+01   2.473193082706e+01  -3.695903293062e+01 
1 -5.948411346169e+01   6.408712866387e+01   4.845128132024e+00 
1  2.626669624542e+01   3.387600725179e+01   1.635205272930e+01 
1  8.132237065243e+00  -2.855950229361e+01  -4.149122822665e+01 
1 -2.377504964091e+01  -1.383238863839e+00   8.645798847862e+01 
1  1.458311730915e+01  -6.024633256599e+01  -4.045299250742e+01 
1 -2.742584059859e+01   8.159337453239e+01  -7.161703684571e+01 
1  3.930279276171e+01   9.105579558991e+01  -8.287721479131e+01 
8
Step 42000
1 -7.005872481734e-01  -3.270135062583e+01  -2.782712876354e+01 
1  7.479338672031e+01  -4.264036007106e+01  -3.679637043548e+01 
1 -1.046120742876e+01   4.641809176236e+00  -4.720780136407e+01 
1 -1.757869235520e+01   4.497217015253e+01   4.499560406219e+01 
1 -4.212029348665e+01  -1.529452689402e+01  -2.911676450261e+00 
1 -8.413893721099e+01   5.065320569925e+01  -9.423328259236e+00 
1 -3.953662818511e+00  -6.559785489903e+01   1.016844787725e+01 
1 -6.252543303720e+01   1.916020061813e+01  -7.841442345255e+01 
8
Step 43000
1 -1.105621291364e+01   2.496024680542e+01  -7.777966973561e+01 
1 -3.508644789995e+01   4.929246476585e+01   9.938322001609e+00 
1  5.921925010682e+00   6.268851440040e-01   7.747120301516e+01 
1 -1.798300624272e+01   8.408711155337e+01  -4.811188970737e+01 
1  4.284254366658e+01  -2.967032358182e+01   6.354983318552e+01 
1 -3.301373872634e+01   3.978350588608e+00   2.010935793252e+01 
1 -5.191114387072e+01  -1.990758736900e+01  -1.437175445854e+02 
1  3.645129316267e+01   8.419243398467e+01  -4.068355386055e+01 
8
Step 44000
1  1.101183827232e+01  -2.611251147394e+00  -1.217055454128e+00 
1  3.375551513572e+01   4.853941173461e+01  -2.592864604108e+01 
1  4.158199496727e+01  -2.552405724443e+01  -2.161179663019e+01 
1 -4.630122431393e+01   4.294380163930e+00   2.919323609875e+01 
1  1.613868918731e+01  -1.722745322044e+01   1.739550891313e+01 
1 -2.308515452299e+01   6.784898734621e+01   5.792010442137e+01 
1  1.424027119775e+01   1.836799700248e+01  -3.248290222929e+01 
1 -5.935863443111e+01   4.113896920695e+01  -8.730428323667e+01 
8
Step 45000
1 -4.411344687442e+01   2.268390695089e+01  -8.900979916560e+01 
1  2.661343477036e+01  -2.992122994879e+01  -1.043209819104e+01 
1 -1.962765857612e+01  -4.286619950105e+00  -5.414862791696e+01 
1 -4.344279755530e+01   8.160714139169e+01   1.352295382405e+01 
1  7.020106703260e+01   8.378801850657e+00   3.268570172575e+01 
1 -1.069012293588e+01   7.244071144129e+01   5.001793779133e+00 
1  5.029864539533e+00  -1.573452315271e+01  -6.871750868961e+01 
1  2.112434815343e-03   6.011858771940e+01   5.345779210740e+01 
8
Step 46000
1 -3.396645250876e+01  -6.511793250546e+01   5.954010861419e+01 
1  4.464430948386e+00   3.176497560867e+01  -7.488624069183e+01 
1 -4.688525665572e+01  -1.958117642805e+01   1.011844224643e+02 
1 -7.340716859127e+01   3.451412591359e+01   1.883061148826e+01 
1 -5.960684708686e+01   4.238963288173e-01   2.110361112127e+01 
1  4.263457992420e+00  -4.174423950748e+01   4.063340805167e+00 
1 -1.037930696415e+01   5.847944297076e+01  -9.034183913049e+01 
1 -9.745848219122e+00  -3.372505235577e+01  -5.142975588329e+01 
8
Step 47000
1  1.275425092730e+01   5.034943670763e+01  -5.485453239964e+01 
1  6.306516505749e+01  -6.171181956553e+01   2.143638772275e+01 
1 -3.453642702843e+01   8.173526763686e+01   3.861041457233e+01 
1 -3.045706672761e+01   9.019581328661e+01   3.441649800691e+01 
1  8.577968492666e+01   9.472251262411e+01   7.985000840313e+01 
1  1.964210211434e+01   6.264737757236e+01  -5.288331611534e+01 
1 -4.045165681440e+01  -4.160121951520e+01  -6.186762925876e+01 
1 -8.246020744083e+01  -3.809148992800e+00  -2.031014817737e+01 
8
Step 48000
1 -5.883589054917e+01  -2.402412784380e+01   2.716701834223e+01 
1 -2.608941726350e+01  -2.531845895308e+01  -2.991785192670e+01 
1 -3.488760223287e+01  -1.713251508621e+01  -1.048417187547e+01 
1 -9.541379961663e-01   2.213909604344e+01  -5.237721132018e+01 
1 -8.922493904414e+01   4.455480252116e+01   3.548099967442e+01 
1  2.946334040000e+01  -1.460725678974e+01   4.136379403747e+01 
1 -5.597820137193e+01   5.666216261090e+01   2.190249402722e+01 
1  6.226634473798e+01  -1.712369583887e+01   5.919513513020e+01 
8
Step 49000
1 -7.913139754531e+00   3.778822709764e+01   2.764409979838e+01 
1 -9.608445322663e+00  -4.128295648738e+01  -2.720394972397e+01 
1 -7.462664472679e+01   8.105998542858e+01   9.339199294462e+00 
1  3.167857410038e+01  -6.667074704215e+01   6.239109952619e+01 
1  5.126673647160e+01   4.649678234435e+01   5.314996528786e+01 
1  7.389563815083e+01   6.463911042469e+01  -2.829726116338e+01 
1  5.532905744883e+01   6.954572108201e+01  -4.309273576638e+01 
1 -7.751884936836e+01  -2.838188453903e+00  -3.785834459088e+01 
8
Step 50000
1  4.001776974161e+01   1.192421177444e+01   2.325294331461e+01 
1 -6.465695731256e+01  -2.080377390274e+01   2.530114900052e+01 
1 -5.362003597199e+01  -7.300439613947e+01  -6.556050775080e+00 
1  1.471972456974e+01   5.753205512008e+01  -1.696126292250e+01 
1 -7.791661451913e+00   1.633771149501e+01   6.436512942427e+01 
1 -3.229902430740e+01   3.471605092228e+01  -3.246228815535e+01 
1 -6.816810142743e+01  -3.151307361893e+01   2.263460374908e+01 
1  5.501986807745e+01   2.093727134614e+01   8.721941654408e+01 
8
Step 51000
1 -7.940061500353e+01  -6.617025065899e+01   3.757376340159e+01 
1  2.132870380215e+01   1.998591770785e+01  -3.150863531362e+01 
1 -7.249495166385e+01   1.017696017085e+02   4.097747692339e+01 
1 -1.618283722884e+01   4.019637812253e+01  -1.217473686424e+01 
1  8.472977506535e+00  -8.991419745783e+01   2.007765818388e+00 
1  1.393869488205e+01   1.789760644580e+01   3.496292000873e+01 
1  8.815439726003e+00   6.481043807973e+00  -2.737440383138e+00 
1 -1.145103694985e+01  -3.667280184855e+01  -1.016485013868e+01 
8
Step 52000
1 -3.517252475999e+01   8.373471882450e+01   4.129437681574e+01 
1 -6.022612623012e+01  -1.590442894189e+01   9.607599722149e+01 
1  1.002026263001e+01  -7.862912407472e+01   3.562133615008e+01 
1 -2.912110641964e+01   6.748861726302e+01  -1.426572876845e+01 
1  5.315391278469e+01  -6.594679336249e+01   1.738380711849e+01 
1 -1.078409582719e+01   1.388758539622e+01   2.141448848605e+01 
1  2.623810518538e+01  -3.660125821987e+01   5.931905335827e+01 
1 -2.148663153729e+01   8.848022740020e+01  -6.098844285690e+00 
8
Step 53000
1 -8.133526741812e+01  -2.885557370562e+01   1.806714615450e+01 
1  2.606962818429e+01   1.833513214713e+01  -8.844709124728e+01 
1 -3.395787736450e+00  -1.465597836613e+01   4.213093544248e+01 
1 -8.976414670243e-01   5.126714041442e+01  -3.600024656727e+01 
1  5.701087573111e+01  -3.136533716600e+01   5.250264426799e+00 
1  7.592939247842e+01   6.334560816401e+01   1.385334672519e+02 
1 -1.981559048238e+00  -1.798247710659e+00   1.220205543436e+00 
1  1.876775250428e+01   3.920113799338e+00   2.045342149636e+01 
8
Step 54000
1 -4.150521582936e+01  -1.646685766643e+01   3.160330099573e+01 
1 -2.099487226145e+01  -6.553126763609e+01   2.905143169468e+01 
1 -4.605700563868e+01   4.785161476256e+00   4.168066052355e+01 
1 -3.308245892038e+01  -2.741317545741e+01   5.284221282750e+01 
1  8.552825160445e+01  -9.447349505746e+01   7.588609873763e+01 
1 -2.662738311222e+01  -1.005985358302e+01   1.594371071578e+01 
1  1.511579917422e+01  -8.109745052318e+00  -5.399902308834e+01 
1 -3.501946932011e+01   8.808579317991e+01   2.984180171234e+01 
8
Step 55000
1  2.831796401440e+01   1.070974114629e+01   8.617139978395e+01 
1  2.604398698536e+00  -5.854699940378e+00  -1.193247888247e+01 
1  1.558128995279e+01  -5.779100705032e+01   2.270066564025e+01 
1 -2.988457884483e+01   3.285535364466e+01  -3.851969191364e+01 
1 -1.289615277559e+01   1.900391572797e+00  -4.589668635654e+01 
1  5.223399088714e+01  -2.505665452413e+01   7.852059566356e+01 
1 -2.048447646812e+01  -6.824346649113e+00   7.272333205070e+01 
1  1.778574875500e+01  -4.675802025097e+00  -6.115252473555e+01 
8
Step 56000
1 -5.938510785785e+01   4.399739768944e+00   6.492119388981e+01 
1  4.550904692926e+00  -5.273924841971e+01   5.107446622995e+00 