8
Step 0
1 -1.76147531624107501e+01 -1.25112100976851877e+02 4.14271519083399085e+01
1 -1.55868354132052218e+01 -3.05606336082378220e+01 -1.43487928636882884e+01
1 4.53627400512804115e+01 6.41018743217516942e+01 -1.06541788681454079e+01
1 4.01843566401161070e+01 4.43836059902416196e+01 1.30137783677914513e+02
1 1.31772862752464732e+01 1.13880829245604218e+02 -1.06074241314676968e+02
1 -7.90962069899106268e+00 3.85469914835298368e+01 -7.92603491705683609e+01
1 -8.49388191657784404e+01 5.84417135619506780e+01 -4.71401089971006115e+01
1 1.21631700689041736e+02 -1.16220159375602506e+02 -4.91892196047131876e+01
8
Step 10
1 -2.04387043833094282e+01 -1.17981412088616878e+02 4.33632991744345162e+01
1 -1.41880638922668822e+01 -2.59444923922831059e+01 -1.72269083460790959e+01
1 4.43181713802922488e+01 6.47981744040845768e+01 -1.10673872426701312e+01
1 4.63860976310148914e+01 4.57762520846137519e+01 1.40390397069676993e+02
1 9.37406093587222244e+00 1.05641177152719408e+02 -1.02442666119813836e+02
1 -1.44583384152707168e+01 4.29321925772770570e+01 -7.79815135907799544e+01
1 -8.33745678971450275e+01 5.07114342329632706e+01 -4.89007894111881711e+01
1 1.27057160889505539e+02 -1.17161266001119571e+02 -4.87861937139032662e+01
8
Step 20
1 -2.27021688812116338e+01 -1.09759550195646156e+02 4.55405392071654305e+01
1 -1.24696022148958203e+01 -2.06657269892787703e+01 -1.98676672770948102e+01
1 4.35418901699847254e+01 6.41747721431966767e+01 -1.14984339551628629e+01
1 5.21952619839355094e+01 4.73320661053827720e+01 1.48616089556776473e+02
1 5.27711812670248737e+00 9.57835706083224068e+01 -9.68774172363486485e+01
1 -2.05922756705522296e+01 4.71121984351397529e+01 -7.57114571293613778e+01
1 -8.10284213249440768e+01 4.25699441930480802e+01 -5.01470824165944933e+01
1 1.31533544711253654e+02 -1.16274293845807733e+02 -4.78615033833561299e+01
8
Step 30
1 -2.43404917707977546e+01 -1.00544956333927601e+02 4.79520845437851335e+01
1 -1.04764590253772152e+01 -1.47626065815680629e+01 -2.22932245941606304e+01
1 4.30488230918883445e+01 6.22732024091667000e+01 -1.20071616978645412e+01
1 5.75655547453760903e+01 4.90224217925691050e+01 1.54754552465947199e+02
1 8.95449036219542416e-01 8.44258308624193035e+01 -8.94660725512872688e+01
1 -2.63004929097463176e+01 5.11021552091219675e+01 -7.24732777136562589e+01
1 -7.79187295983069106e+01 3.40958716858695396e+01 -5.08744256342445169e+01
1 1.35054180485432965e+02 -1.13551113211338887e+02 -4.64306326381858270e+01
8
Step 40
1 -2.52995924492953748e+01 -9.04455910044902396e+01 5.05828812254075899e+01
1 -8.25923400281064701e+00 -8.28134497807659287e+00 -2.45257328710047311e+01
1 4.28460112556657648e+01 5.91551029311777867e+01 -1.26510653714747239e+01
1 6.24564649584072811e+01 5.08121638198278447e+01 1.58777630306653833e+02
1 -3.75740227648188174e+00 7.17100809670950099e+01 -8.03253823223342067e+01
1 -3.15796907086731764e+01 5.49206774012897938e+01 -6.83069433323654778e+01
1 -7.40730398630901590e+01 2.53717631057839270e+01 -5.10857460343703380e+01
1 1.37622101268352708e+02 -1.09008561995103264e+02 -4.45141928025942590e+01
8
Step 50
1 -2.55368055320560963e+01 -7.95778872106499762e+01 5.34097097197360782e+01
1 -5.87346436379856929e+00 -1.27609071045880884e+00 -2.65867258652201492e+01
1 4.29324452713789171e+01 5.49014725603164919e+01 -1.34840484060296539e+01
1 6.68335855477147476e+01 5.26600107828926554e+01 1.60689757588025685e+02
1 -8.66305588018443373e+00 5.78012323878041840e+01 -6.95998352703443572e+01
1 -3.64336338052028879e+01 5.85892539557029295e+01 -6.32689219774579570e+01
1 -6.95278769378018211e+01 1.64830913857543102e+01 -5.07914960092206940e+01
1 1.39249757962773486e+02 -1.02688785565046402e+02 -4.21377618783650831e+01
8
Step 60
1 -2.50216180090801537e+01 -6.80656065168805924e+01 5.64014444150668339e+01
1 -3.37885138371732330e+00 6.19116412669596450e+00 -2.84965649652905597e+01
1 4.32990208065664106e+01 4.96116806829248986e+01 -1.45552092359715495e+01
1 7.06689179422427287e+01 5.45191016215212372e+01 1.60528062075809459e+02
1 -1.37980869011313896e+01 4.28851130464987875e+01 -5.74598374516743391e+01
1 -4.08724963805064263e+01 6.21315917759476264e+01 -5.74315660438490525e+01
1 -6.43284372603839643e+01 7.51718292342292838e+00 -5.00096153727429424e+01
1 1.39958702179774292e+02 -9.46593408276366119e+01 -3.93317048680754340e+01
8
Step 70
1 -2.37362747584250577e+01 -5.60385588875233083e+01 5.95194866294292453e+01
1 -8.38357461651933367e-01 1.40507958295580320e+01 -3.02739540550314565e+01
1 4.39286290229878063e+01 4.34021813000791425e+01 -1.59076775121926630e+01
1 7.39411524287532131e+01 5.63376939167439872e+01 1.58362060292434137e+02
1 -1.91339137565233983e+01 2.71661744742068620e+01 -4.40994394983120017e+01
1 -4.49121323034220623e+01 6.55729014979026346e+01 -5.08822125834671652e+01
1 -5.85281672611097648e+01 -1.43794937307222770e+00 -4.87653993485044026e+01
1 1.39779215121057661e+02 -8.50129855033845132e+01 -3.61309565609051120e+01
8
Step 80
1 -2.16762147245629713e+01 -4.36311569297274531e+01 6.27183833725138982e+01
1 1.68282848106766814e+00 2.22259191434169736e+01 -3.19355280097673244e+01
1 4.47963980088235161e+01 3.64048880398027777e+01 -1.75775277178612512e+01
1 7.66359064437086630e+01 5.80600172895604985e+01 1.54292857557413555e+02
1 -2.46368057457998262e+01 1.08647297215506384e+01 -2.97335568191053348e+01
1 -4.85732721554240783e+01 6.89391328031791772e+01 -4.37219632259538216e+01
1 -5.21881968825985183e+01 -1.02948689103391580e+01 -4.70912500135810461e+01
1 1.38749853488931052e+02 -7.38670665541172724e+01 -3.25747471595883837e+01
8
Step 90
1 -1.88502947164813683e+01 -3.09807916469640041e+01 6.59466377969307302e+01
1 4.11844930570095968e+00 3.06329454097872329e+01 -3.34955199250105338e+01
1 4.58700998558553721e+01 2.87651791875354768e+01 -1.95928049582325805e+01
1 7.87458963680445123e+01 5.96272771208540817e+01 1.48451765967241556e+02
1 -3.02680280712847818e+01 -5.78629918877245952e+00 -1.45946510776087166e+01
1 -5.18806495690282006e+01 7.22561703520790246e+01 -3.60641182458458260e+01
1 -4.53766037892484988e+01 -1.89680624769164616e+01 -4.50262897182634845e+01
1 1.36916883231489777e+02 -6.13624274478982130e+01 -2.87062530034886834e+01
8
Step 100
1 -1.52807583996568948e+01 -1.82260381224141987e+01 6.91477076595321165e+01
1 6.40244170581263994e+00 3.91823467109285417e+01 -3.49655118562389404e+01
1 4.71107330639971380e+01 2.06395239392354064e+01 -2.19727022417503264e+01
1 8.02710149556358772e+01 6.09787937191156146e+01 1.40998270996599956e+02
1 -3.59841357141554354e+01 -2.25451075707119735e+01 1.07112213844245718e+00
1 -5.48620626263676172e+01 7.55490059871970914e+01 -2.80322577222445268e+01
1 -3.81674937133529966e+01 -2.73753448042718972e+01 -4.26158199474215778e+01
1 1.34333577031333277e+02 -4.76617732558630181e+01 -2.45721594739484992e+01
8
Step 110
1 -1.10029153797418786e+01 -5.50472306657247046e+00 7.22611760829096141e+01
1 8.47026975556862816e+00 4.77796281526065556e+01 -3.63542729881661941e+01
1 4.84732817348302660e+01 1.21927502294652452e+01 -2.47269292225695914e+01
1 8.12182870266017858e+01 6.20532510594818447e+01 1.32117310137815565e+02
1 -4.17374187018331213e+01 -3.91651470770014853e+01 1.70082490998244147e+01
1 -5.75473812496516359e+01 7.88409074443999884e+01 -1.97579872573797886e+01
1 -3.06398964330299322e+01 -3.54392793602435603e+01 -3.99106176361755374e+01
1 1.31059361375073365e+02 -3.29474642774315640e+01 -2.02221304939650537e+01
8
Step 120
1 -6.06450904911778998e+00 7.04809129648726440e+00 7.52240659083255423e+01
1 1.02602869087345283e+01 5.63264926781679023e+01 -3.76676875550163857e+01
1 4.99076423653120145e+01 3.59500706700274630e+00 -2.78553082994139452e+01
1 8.16016807148288876e+01 6.27900188130936456e+01 1.22015871971476756e+02
1 -4.74764910088115286e+01 -5.53995713033315909e+01 3.29565783889218622e+01
1 -5.99675177860522837e+01 8.21526075464929022e+01 -1.13783933814146376e+01
1 -2.28764934268918765e+01 -4.30885624270351570e+01 -3.69660722393908756e+01
1 1.27158812625566370e+02 -1.74187498013343927e+01 -1.57081880107554568e+01
8
Step 130
1 -5.24770783082512349e-01 1.93021342393440349e+01 7.79722567610297972e+01
1 1.17150758313812879e+01 6.47221652601345880e+01 -3.89087724762477478e+01
1 5.13596972941096723e+01 -4.98149414318926631e+00 -3.13476250395382721e+01
1 8.14417600043690157e+01 6.31305031903059017e+01 1.10918975848458047e+02
1 -5.31470048117846190e+01 -7.10058427078758569e+01 4.86562827228819756e+01
1 -6.21533842325693797e+01 8.55015399380287278e+01 -3.03328085905131450e+00
1 -1.49622101595107164e+01 -5.02593106311515783e+01 -3.38411795236940875e+01
1 1.22700517002292841e+02 -1.28849882173160490e+00 -1.10840143409499259e+01
8
Step 140
1 5.54682010373096279e+00 3.11338804836563163e+01 8.04419544645928966e+01
1 1.27827125168628530e+01 7.28648283162751937e+01 -4.00777817212419691e+01
1 5.27725026201132579e+01 -1.33658489560936147e+01 -3.51837467996326723e+01
1 8.07651755643322389e+01 6.30194775675415997e+01 9.90651440370937593e+01
1 -5.86924624274591551e+01 -8.57503283063380337e+01 6.38528850793380514e+01
1 -6.41348646071217843e+01 8.89011472483858398e+01 5.13771331603747861e+00
1 -6.98272087498173022e+00 -5.68961913888606716e+01 -3.05974204211659426e+01
1 1.17755824640454151e+02 1.52204719372685418e+01 -6.40419899416547977e+00
8
Step 150
1 1.20720293506705882e+01 4.24283449937976300e+01 8.25711572319214184e+01
1 1.34179036126358113e+01 8.06531098944913509e+01 -4.11723912040871056e+01
1 5.40875493899141446e+01 -2.13918134878357939e+01 -3.93340075785609145e+01
1 7.96040035692408736e+01 6.24063439340501489e+01 8.67015223961417973e+01
1 -6.40550913249085880e+01 -9.94127009639785513e+01 7.83021546622650817e+01
1 -6.59398338676767537e+01 9.23602848922060815e+01 1.29980199183954035e+01
1 9.77075472636326325e-01 -6.29533417215890552e+01 -2.72975636033376077e+01
1 1.12397540780360060e+02 3.18793366088694583e+01 -1.72345835910118161e+00
8
Step 160
1 1.89655534986776146e+01 5.30806400861625747e+01 8.43010631442473937e+01
1 1.35829537594615548e+01 8.79875621554340199e+01 -4.21879549711585113e+01
1 5.52460514828802403e+01 -2.89010122593306065e+01 -4.37598405471973209e+01
1 7.79949545808098179e+01 6.12462811878555513e+01 7.40788358151329618e+01
1 -6.91767441979182109e+01 -1.11789971421622127e+02 9.17746805654970643e+01
1 -6.75932548930419159e+01 9.58827387115615153e+01 2.04169381305148896e+01
1 8.83454459460917185e+00 -6.83950330866507983e+01 -2.40044371674588284e+01
1 1.06698605775276633e+02 4.84573066402527530e+01 2.90413953994646512e+00
8
Step 170
1 2.61368249713675489e+01 6.29972328823152310e+01 8.55773690345853026e+01
1 1.32485321219768011e+01 9.47720706913111570e+01 -4.31178210256586922e+01
1 5.61902128444050177e+01 -3.57458801829087918e+01 -4.84146245971842006e+01
1 7.59784849773718918e+01 5.95012457536181856e+01 6.14463762034245633e+01
1 -7.39997868172006008e+01 -1.22700002957036077e+02 1.04059953379839868e+02
1 -6.91163822386876490e+01 9.94668679490296626e+01 2.72722309013446882e+01
1 1.65107096884843223e+01 -7.31960567799056037e+01 -2.07797169358741023e+01
1 1.00730818762500633e+02 6.47256202424864853e+01 7.42591273655943418e+00
8
Step 180
1 3.34918574324949319e+01 7.20968645568804476e+01 8.63514213755102702e+01
1 1.23942225367211982e+01 1.00915144967868486e+02 -4.39536936921049346e+01
1 5.68644307543353378e+01 -4.17922408416815969e+01 -5.32446997513338047e+01
1 7.35978504364284731e+01 5.71408026619409171e+01 4.90472119043361658e+01
1 -7.84679412527308386e+01 -1.31984402429068638e+02 1.14969824640992812e+02
1 -7.05260960548443023e+01 1.03105377573757949e+02 3.34524271575817096e+01
1 2.39314939687475601e+01 -7.73418238546656909e+01 -1.76827760251591215e+01
1 9.45636571053457260e+01 8.04613214019089895e+01 1.17912364006121955e+01
8
Step 190
1 4.09350550709667260e+01 8.03111199392979813e+01 8.65811936835112448e+01
1 1.10088576701576280e+01 1.06331055348212601e+02 -4.46860291507858207e+01
1 5.72164000994195021e+01 -4.69214547048239510e+01 -5.81904999940740240e+01
1 7.08981437098592266e+01 5.41427793235169901e+01 3.71137794739675968e+01
1 -8.25270603992923384e+01 -1.39510732628589551e+02 1.24341265402521898e+02
1 -7.18343825192129515e+01 1.06785216888888584e+02 3.88587691562247599e+01
1 3.10287725667372847e+01 -8.08281927510692668e+01 -1.47696330054223246e+01
1 8.82632355392292425e+01 9.54507024308763903e+01 1.59521249220474655e+01
8
Step 200
1 4.83709199573705746e+01 8.75846630770935235e+01 8.62320802615607960e+01
1 9.09065196893162408e+00 1.10940800581092631e+02 -4.53044516478352577e+01
1 5.71980948614938711e+01 -5.10321070679609790e+01 -6.31877517884243076e+01
1 6.79253571569768582e+01 5.04937476925719011e+01 2.58639762430293736e+01
1 -8.61258203199194554e+01 -1.45174044139733269e+02 1.32038401023803857e+02
1 -7.30479694729011868e+01 1.10487595705310852e+02 4.34067736703072953e+01
1 3.77412102148751600e+01 -8.36610544156238518e+01 -1.20920253119324848e+01
1 8.18914365959562645e+01 1.09492323302251322e+02 1.98637116327121639e+01
8
Step 210
1 5.57056081053680145e+01 9.38751777045183928e+01 8.52775105510450118e+01
1 6.64715897786926746e+00 1.14672908628035913e+02 -4.57981796761455016e+01
1 5.67666154703970776e+01 -5.40412410429492880e+01 -6.81686920167540222e+01
1 6.47255046984027018e+01 4.61893513927396171e+01 1.54978216676220875e+01
1 -8.92163281422742074e+01 -1.48897772830106277e+02 1.37953851636882831e+02
1 -7.41681187803203414e+01 1.14188105990636728e+02 4.70274058901191481e+01
1 4.40148788859505231e+01 -8.58557165981723927e+01 -9.69662225565566160e+00
1 7.55052291892020833e+01 1.22399566178753659e+02 2.34846228301922082e+01
8
Step 220
1 6.28483046819566127e+01 9.91530682778788872e+01 8.36993998947777698e+01
1 3.69508444183844986e+00 1.17464090522423831e+02 -4.61564537178435756e+01
1 5.58849023906095326e+01 -5.58851708837908134e+01 -7.30632691150397591e+01
1 6.13438291060817633e+01 4.12345011973952964e+01 6.19470484405016464e+00
1 -9.17546534224526340e+01 -1.50634085286925369e+02 1.42009449705335726e+02
1 -7.51905712047410191e+01 1.17856936185108410e+02 4.96678906601073038e+01
1 4.98036659027229760e+01 -8.74361350717313286e+01 -7.62437986089867170e+00
1 6.91561773430537414e+01 1.34002727896264958e+02 2.67772524016011957e+01
8
Step 230
1 6.97124089071869406e+01 1.03400985670532791e+02 8.14884596451370555e+01
1 2.59987048721908420e-01 1.19259779280606693e+02 -4.63689594463820711e+01
1 5.45223256206417233e+01 -5.65199315631827020e+01 -7.78003038456563871e+01
1 5.78241103134812420e+01 3.56434642691466905e+01 -1.88880809687260753e+00
1 -9.37012985820187083e+01 -1.50363774894793977e+02 1.44156432712316644e+02
1 -7.61056358795507464e+01 1.21459167206982784e+02 5.12922037158371680e+01
1 5.50694959262916015e+01 -8.84340395663133165e+01 -5.91002954316349083e+00
1 6.28901279212019162e+01 1.44150690479758794e+02 2.97079513157747144e+01
8
Step 240
1 7.62165367535732656e+01 1.06613241541885529e+02 7.86443916279022943e+01
1 -3.62410579214411177e+00 1.20014592208110201e+02 -4.64262421374325740e+01
1 5.26551655106802841e+01 -5.59214298518983810e+01 -8.23085992456037303e+01
1 5.42080802634442094e+01 2.94398698422945984e+01 -8.62066427264756108e+00
1 -9.50216282641301859e+01 -1.48095814563072736e+02 1.44375218268066078e+02
1 -7.68984148811436938e+01 1.24955142969845824e+02 5.18812942188171391e+01
1 5.97823983435193611e+01 -8.88879970396143335e+01 -4.58168559103968764e+00
1 5.67470563544223907e+01 1.52712235466955462e+02 3.22471516438526464e+01
8
Step 250
1 8.22853624921248183e+01 1.08795167892816124e+02 7.51759892034703370e+01
1 -7.91514785180109115e+00 1.19692754746088710e+02 -4.63201090919007186e+01
1 5.02670019547395341e+01 -5.40853602316874245e+01 -8.65180007081909821e+01
1 5.05349410552243867e+01 2.26566473752303033e+01 -1.38945856040954645e+01
1 -9.56862778810961601e+01 -1.43866659901332838e+02 1.42674861709686184e+02
1 -7.75491536479481880e+01 1.28300913088049242e+02 5.14330890741092546e+01
1 6.39204544479880212e+01 -8.88424460403217608e+01 -3.66055317109401601e+00
1 5.07610435356148173e+01 1.59577079558670874e+02 3.43694471242617965e+01
8
Step 260
1 8.78503273060256618e+01 1.09962465395583862e+02 7.11011604900359231e+01
1 -1.25635804399184217e+01 1.18268517721040496e+02 -4.60440169747795949e+01
1 4.73490267774894775e+01 -5.10269375555359304e+01 -9.03604153100130532e+01
1 4.68409767380832776e+01 1.53359039059323905e+01 -1.76309759194608979e+01
1 -9.56715584408498358e+01 -1.37739372603336136e+02 1.39092275877737251e+02
1 -7.80337093781736399e+01 1.31448750287704598e+02 4.99623206915683227e+01
1 6.74696568227044509e+01 -8.83467252208731537e+01 -3.16071911699091013e+00
1 4.49603552731439677e+01 1.64656706921017786e+02 3.60536516144164096e+01
8
Step 270
1 9.28502444704029699e+01 1.10140568140735752e+02 6.64468801345976630e+01
1 -1.75128962175179552e+01 1.15726588660288584e+02 -4.55934401502790934e+01
1 4.39002887536905746e+01 -4.67804803978097894e+01 -9.37708034576630638e+01
1 4.31592454516181689e+01 7.52873694787008141e+00 -1.97775353890854682e+01
1 -9.49598685685827064e+01 -1.29802602824534148e+02 1.33691263954338609e+02
1 -7.83241312364177134e+01 1.34347748837082150e+02 4.75002054585718483e+01
1 7.04237074944202561e+01 -8.74541083722538275e+01 -3.08901152012556857e+00
1 3.93675973763800684e+01 1.67885059283803969e+02 3.72828534522687747e+01
8
Step 280
1 9.72318266585263160e+01 1.09364035815684232e+02 6.12490659342486339e+01
1 -2.27002702417980586e+01 1.12062583316005274e+02 -4.49662145285886581e+01
1 3.99278732694234790e+01 -4.13988579773703620e+01 -9.66881554635594682e+01
1 3.95193376832274836e+01 -7.05030691228945794e-01 -2.03096221228938703e+01
1 -9.35401163576445640e+01 -1.20169436575554968e+02 1.26561384258496645e+02
1 -7.83893473606224376e+01 1.36944512208233562e+02 4.40939831371089710e+01
1 7.27837730995665169e+01 -8.62208492225624354e+01 -3.44492015677371022e+00
1 3.39999236386452850e+01 1.69219122028632057e+02 3.80444784183921598e+01
8
Step 290
1 1.00950153002117659e+02 1.07675968993729441e+02 5.55523671843459823e+01
1 -2.80572741005907389e+01 1.07283487475392519e+02 -4.41628494205225550e+01
1 3.54470104260729499e+01 -3.49527928214654082e+01 -9.90564611213236645e+01
1 3.59471877936036535e+01 -9.29721589905918933e+00 -1.92303738160499904e+01
1 -9.14081442771341983e+01 -1.08976084313944440e+02 1.17816635619835594e+02
1 -7.81959535808735495e+01 1.39183937596856651e+02 3.98063105828864536e+01
1 7.45582059278616498e+01 -8.47052327376107712e+01 -4.22057692675983187e+00
1 2.88692796141949799e+01 1.68639416546081378e+02 3.83303673935809215e+01
8
Step 300
1 1.03969083100293830e+02 1.05127430660719227e+02 4.94098442456411249e+01
1 -3.35106915225927011e+01 1.01408103308108863e+02 -4.31867977780526076e+01
1 3.04810976826048083e+01 -2.75299939912242664e+01 -1.00825672542670546e+02
1 3.24649290340677865e+01 -1.81717668860212314e+01 -1.65705749128923792e+01
1 -8.85671408494502543e+01 -9.63803638739343427e+01 1.07593927510561301e+02
1 -7.77090969815050272e+01 1.41010101591549756e+02 3.47144891842164682e+01
1 7.57622306329021882e+01 -8.29666263590584379e+01 -5.40080257373440098e+00
1 2.39826711669523789e+01 1.66150380150263402e+02 3.81368677199593478e+01
8
Step 310
1 1.06261613809302759e+02 1.01776848366184439e+02 4.28825146043401659e+01
1 -3.89834523850176140e+01 9.44674406303671361e+01 -4.20446733740510510e+01
1 2.50616171192704691e+01 -1.92340841261992637e+01 -1.01952650564630886e+02
1 2.90907863466313934e+01 -2.72454094624780723e+01 -1.23882310394524087e+01
1 -8.50280142054895265e+01 -8.25599175119695587e+01 9.60512836375843335e+01
1 -7.68934438111357679e+01 1.42367245267569984e+02 2.89094963013710036e+01
1 7.64175887477506421e+01 -8.10645246270092343e+01 -6.96323192496944898e+00
1 1.93424524923810672e+01 1.61780588435062299e+02 3.74649304374281940e+01
8
Step 320
1 1.07810163883424877e+02 9.76893670851016225e+01 3.60387404562770470e+01
1 -4.43956965478847607e+01 8.65050031517469336e+01 -4.07464023452480077e+01
1 1.92279241022502241e+01 -1.01832794877936976e+01 -1.02402074281118885e+02
1 2.58390056101284777e+01 -3.64284726836620862e+01 -6.76779595856848726e+00
1 -8.08096959246202715e+01 -6.77101009936514089e+01 8.33657232471143317e+01
1 -7.57142159672090429e+01 1.43200848707097123e+02 2.24947882095140983e+01
1 7.65521277888144454e+01 -7.90575836821172544e+01 -8.87853380910609502e+00
1 1.49466330867063046e+01 1.55582754418699011e+02 3.63201996732885561e+01
8
Step 330
1 1.08606762789141499e+02 9.29361232920754787e+01 2.89534370046729137e+01
1 -4.96659698087357526e+01 7.75769144342582848e+01 -3.93052964608513022e+01
1 1.30268842927927135e+01 -5.08786492202593976e-01 -1.02147283168297747e+02
1 2.27198220465855663e+01 -4.56259106646916806e+01 1.81010283713312181e-01
1 -7.59393397042950227e+01 -5.20414930070917592e+01 6.97307719012724334e+01
1 -7.41382738868840363e+01 1.43458775192718321e+02 1.55848463703083873e+01
1 7.61993192681544542e+01 -7.70026476247451797e+01 -1.11107429907292854e+01
1 1.07892065670831343e+01 1.47633426909286896e+02 3.47130761366593745e+01
8
Step 340
1 1.08653114500544220e+02 8.75934158023072769e+01 2.17070891807509447e+01
1 -5.47125423161309214e+01 6.77518290337715854e+01 -3.77380367760875970e+01
1 6.51233998399604719e+00 9.64710907750625424e+00 -1.01171013353946194e+02
1 1.97394736973329010e+01 -5.47385252072255781e+01 8.32484839710167179e+00
1 -7.04523791608125123e+01 -3.57769952107265965e+01 5.53535726318422192e+01
1 -7.21352169960189258e+01 1.43092455179061261e+02 8.30345024769968809e+00
1 7.53976906591000215e+01 -7.49537757576482022e+01 -1.36177195032468852e+01
1 6.86050611735519400e+00 1.38032309272645591e+02 3.26587344399503152e+01
8
Step 350
1 1.07960505730303652e+02 8.17417581458372240e+01 1.43845767992189604e+01
1 -5.94548262565065855e+01 5.71105817063107182e+01 -3.60645591332511586e+01
1 -2.55605374886349268e-01 2.01332639025909010e+01 -9.94659852009914260e+01
1 1.69002678059426614e+01 -6.36643784335499348e+01 1.75089116222521746e+01
1 -6.43924129372082206e+01 -1.91485249992654119e+01 4.04515974848073938e+01
1 -6.96784669422424372e+01 1.42058070953213246e+02 7.81677438323915341e-01
1 7.41901602377830756e+01 -7.29612872876887906e+01 -1.63517456325332127e+01
1 3.14759159572557934e+00 1.26901130244554679e+02 3.01770742148023565e+01
8
Step 360
1 1.06549531364707136e+02 7.54648096992717541e+01 7.07382310299407635e+00
1 -6.38148561448004088e+01 4.57455415397294658e+01 -3.43078372329413170e+01
1 -7.21148444548665957e+00 3.07921882742256834e+01 -9.70352996057470847e+01
1 1.42007083477429568e+01 -7.23003674348153709e+01 2.75595942627707409e+01
1 -5.78108933658094912e+01 -2.39334131657125582e+00 2.52489954934422052e+01
1 -6.67462947792881067e+01 1.40317696075590533e+02 -6.84434618585125865e+00
1 7.26232703604403866e+01 -7.10708469414229427e+01 -1.92602628852366138e+01
1 -3.65327896668307617e-01 1.14382020378569834e+02 2.72925878644331199e+01
8
Step 370
1 1.04449617823824425e+02 6.88481971618600852e+01 -1.35702416771677381e-01
1 -6.77187834137696427e+01 3.37596574666400215e+01 -3.24935644337944964e+01
1 -1.42855316666619707e+01 4.14627969548781863e+01 -9.38926058289015799e+01
1 1.16356917551601775e+01 -8.05439160183158123e+01 3.82876534874212311e+01
1 -5.07666067558733829e+01 1.42499159082677416e+01 9.97265181111295540e+00
1 -6.33227520898715213e+01 1.37840340571761061e+02 -1.44358999019502683e+01
1 7.07463233847830821e+01 -6.93226200190239865e+01 -2.22867413745881393e+01
1 -3.69643465441096097e+00 1.00635379461461255e+02 2.40341331629133421e+01
8
Step 380
1 1.01698337020868550e+02 6.19782525499640613e+01 -7.15458111761913695e+00
1 -7.10983289889238108e+01 2.12652050054782009e+01 -3.06497415397516022e+01
1 -2.14048898694401402e+01 5.19833234558921831e+01 -9.00620142048364869e+01
1 9.19677524604475494e+00 -8.82947242421391678e+01 4.94918015604127532e+01
1 -4.33249479432833269e+01 3.05453551012356712e+01 -5.15193093979031680e+00
1 -5.93984684556593550e+01 1.34602854411414256e+02 -2.18542562953498880e+01
1 6.86104340563516217e+01 -6.77505277253443268e+01 -2.53716633495829704e+01
1 -6.86580816887508938e+00 8.58372585825266015e+01 2.04346063100076591e+01
8
Step 390
1 9.83405183101248781e+01 5.49407068436849997e+01 -1.38950845985045675e+01
1 -7.38921346259625267e+01 8.38226868086012900e+00 -2.88061839058221025e+01
1 -2.84949174496446034e+01 6.21942996898866625e+01 -8.55777418964990062e+01
1 6.87251841388696416e+00 -9.54565067502548175e+01 6.09626275603373244e+01
1 -3.55570075309670912e+01 4.62639850974675397e+01 -1.99047892950292358e+01
1 -5.49712839630177967e+01 1.30590648499197755e+02 -2.89633174675767862e+01
1 6.62675215231921300e+01 -6.63816325921708028e+01 -2.84535924978469765e+01
1 -9.89490164598274191e+00 7.01763210849141501e+01 1.65305196929762523e+01
8
Step 400
1 9.44271815571759845e+01 4.78193879598914009e+01 -2.02727919460042010e+01
1 -7.60469568585552764e+01 -4.76298268670644998e+00 -2.69939664473948788e+01
1 -3.54805457379691020e+01 7.19414896161257502e+01 -8.04834974428940342e+01
1 4.64889439364892976e+00 -1.01938647745721539e+02 7.24867162275716908e+01
1 -2.75385053774701021e+01 6.11877286000391365e+01 -3.40755371795346207e+01
1 -5.00466952395540261e+01 1.25798203927660410e+02 -3.56322022103125917e+01
1 6.37692719429291373e+01 -6.52356793434824738e+01 -3.14702926328574364e+01
1 -1.28059981636823643e+01 5.38504841713105549e+01 1.23614974550001104e+01
8
Step 410
1 9.00143292123793088e+01 4.06949763803405844e+01 -2.62081198994861815e+01
1 -7.75186565240225605e+01 -1.80401529304931181e+01 -2.52448288128676097e+01
1 -4.22876308206942113e+01 8.10786630648511988e+01 -7.48316280676235266e+01
1 2.50976257517890389e+00 -1.07657704776345255e+02 8.38508117307640504e+01
1 -1.93486163264546036e+01 7.51131368320571937e+01 -4.74671282202300731e+01
1 -4.46381058837664497e+01 1.20229355521785266e+02 -4.17376861633642449e+01
1 6.11661077654809944e+01 -6.43248090812069506e+01 -3.43598547121385280e+01
1 -1.56216580270653349e+01 3.70633722315363272e+01 7.96970985104243468e+00
8
Step 420
1 8.51616469831632088e+01 3.36438706497247040e+01 -3.16277073289498816e+01
1 -7.82729511351783316e+01 -3.13165229339834035e+01 -2.35905644809604951e+01
1 -4.88442443305171139e+01 8.94701054470247499e+01 -6.86820701505498761e+01
1 4.37391094438397854e-01 -1.12538705320057829e+02 9.48458693546981522e+01
1 -1.10687420438191477e+01 8.78546634930466865e+01 -5.98992000304145620e+01
1 -3.87668855529558130e+01 1.13897352913859677e+02 -4.71664063043321988e+01
1 5.85062013820105449e+01 -6.36534550799825851e+01 -3.70617906855498660e+01
1 -1.83641703922854518e+01 2.00207295139115793e+01 3.39927314440948658e+00
8
Step 430
1 7.99311696706936203e+01 2.67372079864609695e+01 -3.64656080169971943e+01
1 -7.82859150839932880e+01 -4.44589173946971457e+01 -2.20624165798953484e+01
1 -5.50818539118536492e+01 9.69927797553750821e+01 -6.21011555552785239e+01
1 -1.58698531728194681e+00 -1.16516198219382019e+02 1.05270849701945622e+02
1 -2.78128478992249351e+00 9.92473898918819515e+01 -7.12108889484598677e+01
1 -3.24622545316990241e+01 1.06824719179736647e+02 -5.18167598174522652e+01
1 5.58345685795184536e+01 -6.32184180257778792e+01 -3.95180566887756086e+01
1 -2.10550224219436224e+01 2.92694069212424157e+00 -1.30435545949732434e+00
8
Step 440
1 7.43859699015584255e+01 2.00400732229273189e+01 -4.06642629848447967e+01
1 -7.75442313650882937e+01 -5.73354586098898977e+01 -2.06904998989666673e+01
1 -6.09363554785599106e+01 1.03538086488817697e+02 -5.51603328204431378e+01
1 -3.58258780655887499e+00 -1.19535043973791190e+02 1.14936136654872044e+02
1 5.43152550363818332e+00 1.09149137924525519e+02 -8.12630455521773030e+01
1 -2.57610204037911252e+01 9.90429409486013697e+01 -5.56004529924122863e+01
1 5.31922713915329055e+01 -6.30091086408841150e+01 -4.16739760986731227e+01
1 -2.37143981396223467e+01 -1.40182073849123512e+01 -6.09495914435635200e+00
8
Step 450
1 6.85889226847450431e+01 1.36109138505311140e+01 -4.41752430145214277e+01
1 -7.60452154972813474e+01 -6.98171504429726468e+01 -1.95032633967824438e+01
1 -6.63489344159736163e+01 1.09013200684052094e+02 -4.79348616599244721e+01
1 -5.56851169785624567e+00 -1.21550950603534972e+02 1.23666498140323057e+02
1 1.34887098155116956e+01 1.17441956978215941e+02 -8.99398283761649822e+01
1 -1.87071989487077168e+01 9.05920327092745765e+01 -5.84436845654372945e+01
1 5.06157513661141323e+01 -6.30079376729767517e+01 -4.34790437730166772e+01
1 -2.63607170390782990e+01 -3.06224188415414851e+01 -1.09260946863946984e+01
8
Step 460
1 6.26015887825725557e+01 7.50116231434127467e+00 -4.69597706696455219e+01
1 -7.37966451402097618e+01 -8.17792600894712365e+01 -1.85270013758411132e+01
1 -7.12667492680047161e+01 1.13341998091817729e+02 -4.05025320455771407e+01
1 -7.56315472281319146e+00 -1.22530781858488609e+02 1.31303551757878182e+02
1 2.13114978579963079e+01 1.24033017571043246e+02 -9.71496986596960568e+01
1 -1.13515517643146495e+01 8.15200204329179741e+01 -6.02879754741649947e+01
1 4.81363043338251444e+01 -6.31908282289904690e+01 -4.48876047049363862e+01
1 -2.90102198187656413e+01 -4.67033718355433720e+01 -1.57515603241300930e+01
8
Step 470
1 5.64832464765000424e+01 1.75505128394193166e+00 -4.89890462228148778e+01
1 -7.08164358258030546e+01 -9.31024917757347623e+01 -1.77854154433589322e+01
1 -7.56434467107585817e+01 1.16465609839144093e+02 -3.29424467962534919e+01
1 -9.58366707054190670e+00 -1.22452679018199049e+02 1.37707738803571374e+02
1 2.88241552698590553e+01 1.28854981828311139e+02 -1.02825876069911445e+02
1 -3.75106851806220476e+00 7.18823854180792949e+01 -6.10906792563365144e+01
1 4.57796979983083787e+01 -6.35278238939535953e+01 -4.58594114331369553e+01
1 -3.16766058725343029e+01 -6.20907688615869233e+01 -2.05257900308995538e+01
8
Step 480
1 5.02900866148823553e+01 -3.59040448134639067e+00 -5.02444114023771178e+01
1 -6.71322036283259393e+01 -1.03673970891984453e+02 -1.72992244223606590e+01
1 -7.94395285490642920e+01 1.18342663002619460e+02 -2.53338913702338182e+01
1 -1.16454326553652976e+01 -1.21306044539442738e+02 1.42759843941053816e+02
1 3.59546861045912181e+01 1.31865943944878637e+02 -1.06926339367617928e+02
1 4.03158677133645238e+00 6.17414994525719294e+01 -6.08252213040227474e+01