8
Step 0
1  7.395189469585e+00   2.868572838882e+01  -2.182869978595e+01 
1  3.581768520100e+01  -5.040078629445e+01  -1.872152468762e+01 
1 -8.956057854562e+00   4.753479582038e+00   1.574679953468e+00 
1  1.977878075509e+01   3.607585693886e+01  -2.422827477529e+01 
1  7.002853144553e+01   7.647335132185e+01   2.165794942044e+00 
1  2.570063494682e+01  -1.914862205628e+01   1.732125061436e+00 
1  5.826318678326e+01  -1.353795077675e+01  -5.974027404880e+01 
1  5.370653369435e+01  -9.140397982714e+00  -5.549262301199e+01 
8
Step 1000
1 -3.641863481636e+01   3.365801036249e+01  -4.849136805515e+01 
1  2.369636597077e+01  -5.748272588400e+01   6.467284523122e+00 
1  3.824883659588e+01  -2.290264498932e+01   5.933251156775e+01 
1  1.466532143957e+01  -2.965633494715e+01  -7.034224369848e+01 
1  4.561009222350e+01   2.431717498002e+01   1.861550082030e+01 
1  1.332356678359e+01  -5.158154840647e+01   1.571336279436e+01 
1 -1.939110345299e+00   1.600134303747e+01  -6.449607660853e+01 
1 -5.734454091600e+01   2.414458995028e+01  -4.399514480395e+01 
8
Step 2000
1 -3.754266445499e+00  -8.352533467872e+00  -3.449553323668e+01 
1  2.802070792186e+01  -7.935296083257e+00  -2.967426449003e+01 
1 -1.527550142348e+01   3.006857632230e+00   1.577354438013e+01 
1 -6.744551281622e+00   3.158360881891e+01  -5.858784833593e+01 
1 -5.466030920510e+00  -2.706878921573e+01  -1.586811502929e+01 
1  4.930950125510e+00  -2.081479964408e+01   4.603291992692e+01 
1  1.785329044833e+01   2.407769031317e+01  -1.003599637146e+01 
1  3.763764713657e+01  -2.046179081073e+01  -1.009253922002e+01 
8
Step 3000
1  3.783394447582e+01   2.177653518225e+01  -3.926594980784e+00 
1 -2.623431870274e+00  -5.918919981189e+01  -5.963739469555e+00 
1 -5.357663715029e+01   3.780878918605e+01  -1.684012910101e+01 
1  3.186529018906e+01  -1.607884332641e+01   4.180068993146e+01 
1  4.820483512850e+01  -1.452138912881e+01  -1.586902903539e+01 
1 -3.052946968969e+01   2.014166909255e+01   1.475468157671e+01 
1 -4.550282032633e+01   7.634433096999e+00  -3.239642394394e+01 
1  3.745234454580e+01  -2.845162748485e+01  -4.526548901805e+01 
8
Step 4000
1  1.177050615867e+01   1.998507051973e+01  -1.752943527062e+01 
1 -1.558122183121e+00  -1.563561940238e+01   6.841790341700e+00 
1  8.605644207514e-01   1.244681232051e+01  -1.625633381690e+01 
1  3.292638548505e+01  -2.975937581873e+01  -1.713850566692e+01 
1 -4.759621089288e+00  -9.553419509527e+00   1.531339761544e+01 
1 -1.299928814234e-01   1.306708268077e+01   2.194796216906e+01 
1  4.225857017828e+00   3.787121702974e+00   2.116834383973e+00 
1  6.082258957418e+00   4.121020170312e+01  -1.414311749659e+01 
8
Step 5000
1 -1.215722631769e+01  -2.762569365518e+01  -1.839116892265e+01 
1 -1.525591189681e+01   1.441772627141e+01   5.581406258650e+01 
1 -2.225040181614e+01  -2.149766804052e+01  -4.056135386548e+00 
1  3.322542934091e+01   1.112738426925e+01  -4.208726666220e+01 
1 -4.445895155331e+01  -1.911027541033e+01   1.228624112961e-01 
1 -1.940023036166e+01  -3.768091759577e+01  -1.708738235676e+00 
1 -2.973422880843e+01  -4.030093079995e+01  -8.262726611665e+00 
1  1.121700607414e+01   3.476912694723e+01   1.728032870795e+01 
8
Step 6000
1 -4.438674661883e+01   2.101196743223e+01   3.623277705778e+00 
1  1.304638743804e+01   7.285782085239e+00  -9.469403802151e+00 
1 -7.014441200794e+00  -1.720913443151e+01  -2.557787735758e+01 
1 -3.170823941728e+01  -4.616427362241e+01  -3.328758855370e+01 
1  1.658904462704e+00  -1.558444348056e+01   3.774273321146e+01 
1 -3.512259415472e+01  -1.854828794484e+01   4.153318547526e+01 
1 -3.626042619144e+01   1.296736420773e+01   1.017356760411e+01 
1  4.241675492292e+00   4.574896586866e+00   4.324776806450e+00 
8
Step 7000
1 -1.747296932129e+01   1.275351478954e+00   5.660355003111e+01 
1 -2.893707855573e+01   3.106885519128e+01  -4.530034077577e+00 
1 -1.822936728813e+01   3.633284301856e+01   1.433696939660e+01 
1 -3.321645933574e+01   1.237495966723e+00   8.717560894175e+00 
1  9.066681986439e+00   2.141018855307e+01   1.346568866164e+01 
1 -1.658219955602e+01  -1.647380734933e+01   1.103523008572e+01 
1  3.500006260204e+00   3.349940534958e+00  -1.590059220515e+01 
1  1.812929823791e+01  -5.689259634670e+01  -3.232232017652e-02 
8
Step 8000
1 -1.697558305416e+01   2.245178573248e+01   4.779172913367e+01 
1 -9.755797985985e+00   1.849491646177e+01   8.110302405866e+00 
1 -6.100634441801e+01  -5.345221490254e+01  -5.823026824943e+01 
1 -2.903249199294e+01  -4.662893589081e+01   3.870899729751e+01 
1 -3.690670551417e+01  -3.574457013296e+01   4.676868967179e+00 
1 -3.822616792811e+00   1.267559753981e+01   2.828722456590e+01 
1 -4.463496109045e+01  -6.999345283067e-01  -9.718525395580e+00 
1 -9.605844351024e+00   7.676388265687e+00   7.813590168632e+00 
8
Step 9000
1 -4.703366059768e+01  -8.474686586659e+00  -3.136821127403e+00 
1 -4.151988633651e+01   3.098925906812e+01   5.533176149042e+01 
1  2.907250445981e+01  -1.043324376438e+01  -9.809583560152e+00 
1 -5.792115601671e+01  -1.559489343697e+01  -1.293957719490e+01 
1 -1.578247181496e+01  -5.771401084016e+01  -4.957369484336e+01 
1 -2.215004247353e+01  -2.503869946426e+01   2.435414602572e+01 
1  8.910581810726e+00  -4.287725742221e+01   2.141961578497e+01 
1  1.218253007889e+01   4.148267873544e+01   2.363187496904e+01 
8
Step 10000
1 -2.844562623851e+01  -8.485326214214e+00   1.048431757143e+01 
1 -3.201255863455e+01   2.489468884903e+01   4.397432474578e+01 
1 -6.688940707141e+00  -5.804130186445e+01  -1.892685577848e+01 
1 -1.076081831313e+02  -1.072015169089e+01  -5.934373611452e+00 
1 -4.460018068825e-02  -3.215659633713e+01   5.778516918250e+00 
1 -3.969307006798e+01  -7.298371493707e+01   1.267133399300e+01 
1 -7.593680172829e-02   4.961852895196e+00  -1.094292205001e+01 
1 -8.510373077844e+00   4.866086032548e+00   1.573789960391e+01 
8
Step 11000
1 -7.338729564573e+01   3.429518566272e+01   6.141579384673e+00 
1  1.056516399672e+01   2.829536866049e+01   1.057215380857e+01 
1  1.459489573836e+01  -2.786100566182e+01   3.157995533443e+01 
1 -2.644531411528e+00  -3.023848809646e+01   4.063242156162e+01 
1 -3.978015024360e+00   1.456926194788e+01  -7.304183049918e+00 
1  3.279877101769e+01  -2.913260912553e+01  -3.288983258231e+01 
1 -1.291145380458e+01   4.849319772125e+01  -9.604819640115e+00 
1  3.510057974903e+01  -6.631525008208e+00   1.307875253812e+01 
8
Step 12000
1 -3.005070218021e+01  -1.864179044979e+01   4.597402965976e+01 
1 -5.913990330824e+01  -3.661943396109e+00  -3.084997542600e+01 
1 -1.262476469835e+01  -2.139060107637e+01   2.492404349581e+01 
1 -3.412854376696e+01  -2.896112710810e+01   4.338895923431e+01 
1 -3.044679993066e+01  -1.366719989054e+01  -2.938148643393e+01 
1 -7.154881424564e+00  -1.600196652039e+01  -4.166702249509e+01 
1 -4.074447055786e+01  -2.668311606290e+01  -1.074044837346e+01 
1  1.866811055821e+00  -4.031095548660e+01  -1.736744322283e+01 
8
Step 13000
1  1.426531471034e+01   6.553906946962e+00  -1.594057017470e+01 
1 -5.658439224750e+01  -5.833649093035e+00  -2.332982521893e+01 
1  4.503229454407e+01  -2.665418677106e+01  -1.706717342171e+01 
1 -3.298889925526e+01  -3.247168370456e+01   5.320464176657e+01 
1  2.082960012668e+00  -4.856342839595e+01  -9.484119993686e+00 
1  7.313106389444e+00  -2.146005570518e+01  -2.023851539693e+01 
1  3.138922959702e+01   9.571012208661e+00  -2.584224443338e+01 
1 -1.244572757828e+01   2.848150321197e+01   2.856924013941e+00 
8
Step 14000
1  2.434048352481e+01  -3.819080283945e+01  -2.873857288310e+01 
1 -1.111511289756e+02   3.378227574366e+01   2.746962487853e+01 
1  5.249874385397e+01   3.974529676749e+00   1.190775316657e+01 
1  1.751742434145e-01   7.287100364423e+00   1.937703281286e+01 
1 -3.067081859127e+01   4.717114996941e+00  -2.107443338017e+00 
1  1.324125081113e+01  -3.509034579246e+01  -2.754091491208e+01 
1  1.933289012762e+01  -4.154654269684e+01  -1.802466204925e+01 
1 -1.367917714165e+01   1.662285525440e+01   2.334289656890e+01 
8
Step 15000
1 -2.492167771501e+00   3.556414984681e+01  -1.691613008926e+01 
1 -2.634197488594e+01  -5.546483123554e+00   2.897266317980e+01 
1 -1.522650523204e+01  -1.301908922528e+01   6.286802360393e+00 
1 -1.679439515091e+01  -1.471470982871e+00   6.493933785227e+01 
1  4.211445909384e+01  -2.138079064449e+01   3.388774330365e+01 
1  1.640530099896e+01   3.437066601094e+01  -1.115017424274e+01 
1  1.203713925526e+01  -3.712221472109e+00  -1.938112316402e+01 
1  1.149170994500e+01   7.021331664979e+00  -4.062312760657e+01 
8
Step 16000
1 -4.218930379814e+01  -1.449256922641e+01  -9.014441250004e-02 
1  3.902707480270e+01   6.104780434520e+00  -8.039696548319e+00 
1 -2.537899417092e+01   3.315559088136e+01  -3.042264764231e+01 
1 -4.531808752003e+00  -4.524233997400e+00   5.116751112356e+01 
1  3.976162758197e+01  -4.652288540415e+01  -2.650317707701e+01 
1 -2.040816083896e+01  -3.270506587476e+01  -1.489289918738e-01 
1  3.324814803089e+00   2.081596916905e+01  -1.021782891645e+01 
1 -8.180782673700e+00  -3.123398087893e+01  -2.207426654052e+01 
8
Step 17000
1  3.486535205495e+01  -3.615845687163e+01   6.603840007450e+00 
1 -1.092799084432e+01   1.528444865299e+01  -5.088522523924e+01 
1  9.704314278874e+00   2.579150521337e+01  -5.583664139418e+00 
1 -1.064474808094e+01  -1.026402527726e+01   4.077012869925e+01 
1 -2.303720089831e+01   1.746479097424e+01  -1.424418927291e+01 
1  4.514946610695e+01  -7.826210765518e+01   2.381801510373e+01 
1  7.116989149602e+00   3.833141022818e+01   8.888844286751e+00 
1 -1.988876429695e+01  -2.088391456222e+01  -3.642460019611e+01 
8
Step 18000
1  5.332240045380e-01  -2.496823998546e-01   9.395149772367e+00 
1 -4.600649272820e+00   1.076623402469e+01  -3.076094808522e+00 
1  2.184643482708e+01   7.239197935295e+01   2.004731342247e+00 
1  3.755944624406e+01   5.590108099175e+01   5.912641818578e+00 
1  1.314890735417e+01   7.579930329799e+00   4.071009685050e+01 
1  4.455639806407e+01  -6.138536898974e+01   3.940683646593e+01 
1  2.024278695451e+01   1.902643062962e+01   3.172586091469e+01 
1  9.524582167830e+00   4.441975696661e+01  -1.406552112898e+01 
8
Step 19000
1  2.635401964831e+01  -1.040130453989e+01   8.474114829448e-01 
1 -5.110894971639e+01   2.038123056545e+01   5.532325196257e+01 
1 -3.373869461473e+01  -2.684935456387e+00  -1.325118020130e+01 
1  4.142598562322e+01   1.962115036125e+01  -3.221889057193e+00 
1  3.968484120475e+01   3.461839960751e+01   2.237098398104e+01 
1 -6.034203007778e+01   1.187238934104e+01   2.122356152404e+01 
1 -2.624000540361e+00  -5.336077800027e+01  -3.067939455387e+01 
1 -2.470155616513e+00   2.270748691097e+00   2.026025079008e+01 
8
Step 20000
1  2.855365413355e+01   3.398425891058e+01   3.288557061010e+01 
1  3.217919546140e+00   1.997686943055e+01  -3.082088871882e+01 
1  9.630545285653e+00  -3.704735217000e+01  -5.638069982254e-02 
1  3.222125235551e+01   2.297702190815e+01  -2.128813344233e+01 
1 -2.134725876891e+00   3.964565290893e+01   5.189724333285e+00 
1 -4.456907404560e+00   1.006378623315e+01   2.826419103873e+01 
1  2.594262707464e+01   4.824613818940e-02   1.314995990096e+01 
1  1.785046610144e+01  -8.216689283987e+00  -7.213217262699e-01 
8
Step 21000
1  1.713438046140e+01   2.476012388112e+00   3.534191040498e+01 
1  5.023849026721e+01  -1.808132538108e+01  -1.418230193594e+01 
1 -5.961097674115e+01   2.428922989920e+01  -1.048227884887e+01 
1  4.681057820334e+01   3.635311228951e+00  -1.437303498268e+01 
1 -2.595043427806e+01  -1.618422946199e+01  -1.179794952857e+01 
1 -1.305793266531e+01   1.658400674893e+01   8.317609228705e+00 
1 -2.314629890912e+01   4.366775845614e+01   7.994248092634e+01 
1  7.850886783796e+00  -2.119104969754e+01  -1.525355286216e+01 
8
Step 22000
1  9.729459585325e+00  -1.563679868627e+01   4.338638351897e+01 
1 -1.378282843660e+01   3.491858691239e+01  -7.754990577412e+00 
1  2.844773047170e+01   7.670941371989e+01   1.650617155511e+00 
1  3.185356493287e+01  -5.015885072572e+00   1.744704128881e+01 
1  3.486315921393e+01   4.322924906764e+01  -2.889254056485e+01 
1  4.609527465878e+01   1.906030276768e+01   3.905995221737e+01 
1  5.581385022676e+01   3.383671127347e+01   7.037934147597e+01 
1  2.684000953065e+01   4.082195671832e+01  -1.099003035326e+01 
8
Step 23000
1 -1.644086625252e+01   1.574521572549e+01   2.064662559601e+01 
1 -1.061164882698e+01  -1.188984082817e+01   6.245060753474e+01 
1  9.046006457206e+00  -3.542706303763e+01  -8.463401194166e+00 
1 -2.535943470754e+00  -4.265280858296e+01  -2.465203795179e+01 
1 -1.287097002090e+01   4.523625635922e+01  -4.986711518795e+01 
1  3.590535576187e-01   1.216224064823e+00   4.085811092616e+01 
1  1.592625658273e+01   2.358695117756e+01  -5.027984377741e+00 
1 -3.419620156805e+01   3.761923413523e+00  -3.925480512905e+01 
8
Step 24000
1  3.803594336260e+01   1.286600533495e+01  -8.500489945570e+00 
1  2.369421960656e+01  -9.850263034166e+00   5.929672590869e+01 
1 -4.692190162290e+01   1.650695729498e+01  -3.121939224312e+01 
1  3.144042601847e+01   9.718866340126e+00  -3.893043598306e+01 
1  1.892337817562e+00  -1.936136581624e+01  -6.156333142321e+00 
1  1.045397723126e-01   4.146266344159e+01   1.153765785353e+01 
1  2.794975199298e+01   9.442092403662e+00  -1.140528768189e+01 
1  2.565382695068e+01  -2.703953074691e+01   2.153099463965e+01 
8
Step 25000
1 -2.651622151689e+00   5.025445188318e+00  -5.698542680172e+00 
1  5.003283557615e+01  -8.154948971059e+00  -1.974773573315e+01 
1  2.134907677867e+01  -6.327156891872e+00   2.334283930107e+01 
1 -2.001415481862e+01   2.222989454240e+01  -1.590854383276e+01 
1  5.912811224119e+00  -3.200762651897e+01  -6.619199997397e+00 
1 -3.981178409121e+00   1.768920924556e+01   4.937661178534e+01 
1  5.128202533621e+01   3.318242412895e+01   2.289783729119e+01 
1  3.191129837082e+01   4.811489747231e+01   1.254560482282e+01 
8
Step 26000
1 -3.405809490371e+01  -5.813372415112e+01   2.533355589575e+01 
1  5.307903053864e+01   2.758790419680e+01   2.354656311797e+01 
1 -1.696033406460e+01   2.392562118639e+00   1.939537469719e+01 
1  2.061021620149e+01   4.011800620272e+01   2.796793343822e+01 
1  7.831044390991e+00  -2.320556123099e+01  -2.553902954877e+01 
1  5.105374106879e+01   2.077685582168e+00  -2.949983773620e+01 
1  5.618325109132e+01   3.676049232691e+01   1.190138101307e+01 
1 -3.115861985430e+01   2.199550710506e+01  -3.169674373880e+01 
8
Step 27000
1 -2.735440818494e+01  -5.131473890909e+01  -1.360229187264e+01 
1  5.864166209480e+00   1.419551730413e+01  -4.047745698949e+00 
1 -2.388305122704e+01   1.217825455375e+01   2.060453255096e+01 
1  3.513016625174e+01  -2.425715831894e+01  -1.588596739125e+00 
1 -4.185243928859e+01  -1.134509746546e+01   2.147036129929e+01 
1  3.669844099723e+01   1.676451896920e+01  -2.575382029908e+01 
1  1.534300695412e+01   1.762848144378e+01  -3.438889337408e+01 
1  1.008942757177e+01  -6.232319020738e+00  -3.634024141023e+01 
8
Step 28000
1  3.247583647115e+01  -2.555801438071e+01  -2.687513877370e+01 
1  1.177214071054e+01  -1.360429031122e+01   2.091369534153e+01 
1 -1.168677811647e+01  -4.034819426826e+01   7.088427345676e+00 
1 -3.375360817490e+01  -4.657889559991e+01  -2.733748954154e+01 
1 -1.975368162897e+01   4.932569260464e+01   8.185762862637e+00 
1 -1.592750125065e+00  -3.327105561707e+00   7.491839244641e+00 
1  2.012205543441e+01  -2.522162205529e+01  -1.700617788008e+01 
1  6.330300706168e+00   4.377606071979e+01  -1.711522890288e+01 
8
Step 29000
1 -5.384159897452e-01  -3.025162597441e+01  -8.119586647031e+01 
1  1.292718068752e+00  -6.730202736818e+00  -1.619963049703e+01 
1 -1.549814055880e+01   3.261787367588e+01  -1.645276354164e+01 
1  3.784471496867e+01   1.469761717731e+01   5.766167343754e+01 
1  1.990152403804e+01  -7.545813438771e+00   4.732452561880e+01 
1  1.082448001422e+01   5.033305308874e+00   5.350302172182e+00 
1  9.331606443552e+01   4.954856126956e+01   2.215090823363e+01 
1  2.942352093499e+01   3.851637520278e+01   3.288990007493e+01 
8
Step 30000
1 -5.630103719761e+01  -4.140543905711e+01   2.124716695482e+01 
1  3.056808437525e+01  -2.005079899330e+01  -2.670825994310e+01 
1 -2.313768669202e+01  -2.743624095566e+01   4.073079527819e+01 
1 -1.598183595392e+01  -4.352118813656e+01   9.317555742985e+00 
1 -4.902511135559e+01  -5.019911048406e+01  -4.762087540002e+01 
1  1.354477561642e+01   4.272631791520e+01  -4.265935980758e+01 
1  3.696441553322e+00   3.187361989090e+01  -2.810517317402e+01 
1  1.716595998800e+01  -8.369845361054e-01  -1.687567743585e+01 
8
Step 31000
1 -1.358308460908e+01  -9.690224279893e+01  -2.891793488508e+01 
1  1.372136244892e+01   4.946446378931e+01  -3.031218404181e+01 
1  1.205161088063e+01  -1.297399401397e+01   3.954374676616e+01 
1 -3.134209359096e+00  -1.290592721033e+01   3.434307547431e+01 
1  9.190791209165e+00   1.799592514111e+01  -1.114956715847e+01 
1  3.043253033276e+01   7.794347972111e+00  -1.904087257975e+01 
1  1.298953208544e+01  -1.309146158869e+01  -3.411091944241e+01 
1  9.189672262930e+00   4.188713461350e+00  -1.321742303387e+01 
8
Step 32000
1  9.503921083159e+00  -2.234746425466e+01  -3.081040914480e+01 
1 -6.056801443325e+00   3.981850149614e+00   1.630682676208e+01 
1 -2.080021341828e+01  -3.759836639843e+01   9.761458996862e-01 
1  3.608261378725e+00  -4.371895501560e+01   3.211594876433e+01 
1 -5.226315056860e+01  -5.784674274499e+00   3.132071720554e-01 
1 -2.618421265576e+01   2.866686156025e+01  -4.586907433482e-01 
1  3.989612540432e+01   2.366341060801e+01   9.971557010009e+00 
1 -1.129977893840e+01  -4.320146458566e+01   1.424904482112e+01 
8
Step 33000
1  3.039628833499e+01  -1.676478026109e+01  -6.453217755417e+01 
1 -7.259233296865e+00  -1.542397441045e+01   6.627549107825e+00 
1 -3.986262734961e+01   1.148414276863e+01   3.052325377111e+01 
1 -8.802412501696e+00   3.149718321536e+01  -6.394488539136e+01 
1 -3.438093619608e+00  -1.870764384298e+01   5.059397886381e+01 
1  4.349680441111e+01   1.851672056955e+01   3.918161496264e+01 
1 -1.275251409415e+01  -1.528660339208e+01   1.092952833618e+01 
1  5.676590566981e+01   6.314966024981e+00   2.917722384487e+01 
8
Step 34000
1 -4.702917995124e+01  -1.378781893666e+01  -3.352220642947e+00 
1 -5.285522670085e+01  -2.782020873793e+01  -3.178496671977e+01 
1 -2.361287865635e+01   3.028227513525e+00   5.860143361984e+01 
1 -7.225009066498e+00   7.444182675672e+00   1.726735082654e+00 
1  2.626631979868e+01  -1.654336448471e+01  -2.281616279839e+01 
1  4.957235477544e+00  -4.504833506723e+00  -5.342447977900e+01 
1 -2.550261237495e+01  -3.229309668186e+01  -1.938985264250e+01 
1  2.101754531226e+01   2.650205489055e+00   2.638648396555e+01 
8
Step 35000
1 -2.352588132474e+00  -3.359416077174e+01  -4.382173070778e+00 
1  1.559377397431e+01   1.574877943042e+01  -1.972953917973e+01 
1 -2.226262694629e+01   4.589870022026e+01  -3.508154986938e+01 
1  9.585282210363e+00   2.510759919887e+01   4.708777806382e+01 
1 -2.884948339827e+01  -8.473359587884e+00  -5.059521688878e+01 
1  3.796714771917e+00  -9.523354180174e+00   1.349795901412e+01 
1  3.417491742874e+01  -7.948498344062e+00   4.015948332138e+01 
1 -6.098703389334e+01  -7.200896503285e+01  -8.300486422760e+00 
8
Step 36000
1 -1.054269420103e+01   1.495607920170e+00  -4.547478981201e+01 
1 -2.336170351932e+01   4.416305258235e+01   2.035955390825e+01 
1 -2.726843113211e+01   7.440425851925e+00   1.358127436186e+01 
1  3.965231141224e+01   2.561954187271e+01  -2.653697988453e+00 
1 -1.085108002823e+00  -2.565238786648e+00   3.129520526191e+01 
1  1.306423280889e+01  -3.001117045272e+01   2.388677080767e+01 
1  2.180759609026e+01   1.272056023636e+01   2.935673391579e+01 
1 -1.736448181051e+01  -3.064579171277e+01   3.383972241428e+01 
8
Step 37000
1  7.706274312614e+00   2.204811432733e+01  -1.920053723647e+01 
1 -3.645525961590e+01   4.671896321405e+00  -3.215818835219e+01 
1 -4.555086117987e+01  -5.251818096807e+00  -2.266810329001e+01 
1  2.337931245026e+01  -8.617210996778e+00  -6.619660344524e+01 
1 -4.518186802617e+01   1.075993374813e+00  -4.090833966746e+00 
1 -1.582043383675e+01  -1.884506257696e+01   9.007747735656e-01 
1 -9.143029385402e+00  -3.337405936745e+01   4.930025269915e+01 
1 -1.640362661668e+00   3.106687766853e+01   4.206446833310e+01 
8
Step 38000
1 -8.036914598390e+01  -5.187213752892e+00  -2.398733987459e+01 
1 -3.772953296595e+01  -1.486342167908e+00   3.673464196125e+01 
1 -1.357703011550e+01   2.849475124484e+01  -1.344792830374e+01 
1  3.198037770438e+01  -4.580096589777e+00  -1.392584687273e+00 
1  2.011186267834e+00  -3.109447255225e+01  -1.113036730391e+00 
1  1.910278679370e-01  -1.452593971254e+01  -2.464187096765e+00 
1 -5.739428863467e+00  -2.771770145597e+00  -1.413755752125e+01 
1 -2.901493968435e-01   4.553194667773e+00  -4.303842037194e+01 
8
Step 39000
1 -8.197505193469e-02  -5.935475471911e+00  -3.165188109739e+00 
1 -5.869798820709e+01   1.150136015912e+01  -7.661724701763e+01 
1  3.187582085922e+01  -9.440612797449e+00  -1.790939872398e+01 
1 -1.024288317206e+01   9.665211713606e+00   1.243167647296e+01 
1  7.499104719163e+00  -1.882288535508e+01  -1.874114607992e+01 
1 -4.921953642899e+01   1.255736351241e+01   3.683744755005e+00 
1 -6.030732206473e+01   1.557873850465e+01  -4.038855529465e+00 
1  1.180212321798e+01  -6.588714126716e+01   7.923507759379e+01 
8
Step 40000
1 -2.569662205286e+01  -6.037781756206e+00  -6.310246500774e+01 
1  1.588097514264e+01   1.955452285792e+01  -7.229852114243e+01 
1 -1.444026707267e+01  -3.872012785016e+01   2.457247764102e+01 
1 -4.998962897437e+00   3.882201700187e+00   6.829200965261e+01 
1  1.860650518661e+01   1.951124919441e+01  -2.175449093965e+01 
1  1.821890834057e+01   4.175097577369e+01   2.871192014660e+01 
1  5.512759390333e+00  -1.214852347430e+01   9.042185421606e-01 
1 -2.041549748645e+01   3.156351876777e+01   7.106520331955e+01 
8
Step 41000
1 -4.710807451241e+01  -1.357642093771e+01  -4.349581993819e+01 
1 -1.783754163458e+01  -7.453972149061e+00   1.703634544612e+01 
1 -5.562315804835e+01  -3.794301685286e+01  -6.617636897607e+01 
1 -1.102837356641e+01  -1.141559581797e+01   1.290195361698e+01 
1 -1.109926005336e+01  -1.992982739589e+00   1.826837412241e+01 
1 -2.636488811066e+01  -1.247583196465e+01  -7.411724169062e+00 
1 -3.380820860524e+00  -2.463556448936e+01  -5.094510312136e+00 
1 -5.707030082974e+01   4.733251702191e+01  -5.058208991084e+00 
8
Step 42000
1 -1.368387231076e+01  -6.413257636297e+00   9.643029859682e+00 
1 -1.338327873369e+01  -4.763990882688e+01  -3.401248114830e+01 
1 -6.853366956337e+00  -2.931671949949e+01  -9.544431674701e+00 
1 -8.256899317474e+00  -1.510454028745e+01   3.846715124741e+01 
1  3.408104105417e+01   2.573698411394e+01   3.953513048478e+01 
1  2.384131075873e+01  -4.940830364673e+00  -6.743313959333e+01 
1 -3.520534292464e+01   3.107318951096e+01  -1.400956206106e+01 
1 -8.231262135444e+00   1.168909250227e+01   1.508501648393e+01 
8
Step 43000
1 -6.198373493996e+01  -5.654913129733e+01  -3.755972059779e+01 
1  1.561115777227e+01   2.991009240081e+00  -3.098718553284e+01 
1  3.183208079124e+01   6.432981903951e+01   1.986796485308e+00 
1 -2.650498235979e+01  -9.355796168853e+00   2.388753042793e+01 
1 -6.931556947472e+00   1.428820816332e+00   5.621294458467e+01 
1 -1.042576647587e+00  -4.102669805414e+01   6.000069578419e+00 
1 -1.066263949638e+01   4.064976447259e+00   2.873786336740e+01 
1  8.848245943341e+00   4.738757966971e+01   1.268245691023e+01 
8
Step 44000
1  2.455499838128e+01  -6.656530366962e+01  -2.790088322636e+01 
1 -1.833508440158e+01   1.934581949696e+01  -1.726905777733e+01 
1  2.831031092773e+01   1.521845385368e+01  -2.487915711596e+01 
1 -1.507749967082e+01   2.978209639826e+01   6.436985073914e+00 
1  1.607548767250e+01  -2.978624589882e+01   2.664165288751e+01 
1 -1.197437723463e+01   2.514523302918e+00   2.538341545792e-02 
1  1.748575318815e+01   2.853380026525e+01  -1.047861978512e+01 
1 -3.042292880858e+01   3.838001285960e+01   4.593927279600e+01 
8
Step 45000
1  2.398981548186e-01  -4.797105560545e+01  -3.788166448110e+01 
1 -2.072394729967e+01   4.234745460511e+00   4.667888382833e+01 
1 -1.528436083614e+01  -2.640656479035e+01  -5.100876487778e+00 
1 -3.624292028416e+01   1.532867376215e+01   7.989622800581e+00 
1 -1.622844792473e-01  -5.264899337602e+01   2.059931730585e+01 
1  2.736515749182e+01  -2.054892478261e+01   2.915510935925e+01 
1  9.446276492335e+00   4.881377880486e+01  -4.024685876600e+01 
1 -3.682430369077e+01   3.497318841797e+01   4.195340114064e+00 
8
Step 46000
1  3.599917432570e+00  -1.129247255904e+01   3.886900522135e+01 
1  1.459794816525e+00  -3.874643967465e+01   6.102999822306e+01 
1  8.420906782667e+00  -1.507469402977e+01  -3.090973313992e+01 
1  5.119190925297e+01   4.238353407787e+00   2.081072094161e+01 
1  2.670699755569e+01   4.593662367770e+00  -1.461161302746e+01 
1 -1.040117664471e+01  -3.543228080947e+01   3.156253908316e+01 
1  4.876586731187e+00  -1.723832524040e+01  -5.470788699862e+00 
1  3.889286393228e+00   6.556042988975e+01  -4.898008516991e+01 
8
Step 47000
1 -8.590387374172e+00  -4.655488270977e+01  -4.531350118550e+01 
1  1.645726480830e+01   3.231586664293e+01   1.904255660605e+01 
1  6.618052643624e+00   1.506831993372e+01  -1.276771363507e+01 
1 -1.494922689149e+00   1.534841591797e+01   3.969375270807e+01 
1  1.844488090374e+01  -5.065072737777e-01   2.404778804794e+01 
1  1.700857382659e+01   2.542173780993e+01   2.716481482059e+01 
1 -2.090678974211e+00  -9.386982122104e+00   7.095205768366e+01 
1  5.460232635758e+01   9.919349726728e+00   1.591302893863e+01 
8
Step 48000
1  2.427042095384e+00  -2.253844959068e+01  -7.451275719892e+00 
1  1.659850734841e+01  -1.144501482994e-01   2.167784432123e+01 
1  1.159167419765e+01   7.902181995556e+00  -1.666562625620e+00 
1 -2.941950265122e+01   2.504366636768e+01  -1.481978780394e+01 
1 -3.263372793266e+01  -4.050382911912e+01   2.472660511240e+01 
1  2.241846397598e+01  -1.317265449030e+01  -2.221501679001e+01 
1  9.661960649157e+00   3.450931033208e+01   8.216401528147e+00 
1  3.400011704952e+01  -2.009488161749e+01  -1.943173495500e+01 
8
Step 49000
1  4.254963968439e+01   1.781613721857e+01   1.500320544026e+01 
1 -1.306811121838e+00   8.875164436416e+00   3.547706281866e+01 
1  1.618543828320e+01  -1.674996350101e+01  -1.324729391921e+01 
1 -1.591030876644e+01  -5.838647753289e+01   1.322922191128e+00 
1  1.340976252969e+01   1.431470834637e+01   4.990937680043e+01 
1  1.486314113247e+01  -1.662949548766e+00   2.332040834364e+01 
1  5.236375232328e+01   2.695577995760e+01  -4.841790548461e+00 
1  1.407452151050e-02   1.953522255583e+01  -1.472550594952e+01 
8
Step 50000
1 -3.857608602626e+01   1.832767393318e+01   4.126588970434e+01 
1 -1.254345197858e+01   4.672269065503e+01   1.776598886017e+01 
1  1.981421990676e+01  -6.378625606825e+00  -3.608863345637e+00 
1 -2.174574363226e+01  -2.091418745259e+01  -3.483532852431e+01 
1  7.059843486310e+01  -1.315435795965e+01   2.890597972595e+01 
1  3.176033508497e+01   2.338346370786e+00   8.040639694937e+01 
1  4.089811432764e+01  -2.018231364186e+01  -1.143609319733e+01 
1 -2.861453103823e+00   1.771459219220e+01  -2.322166711446e+01 
8
Step 51000
1  2.051704404185e+01   1.807506543903e+01  -5.101056119108e+01 
1  1.186438048807e+01   2.977040032853e+01   2.504151376854e+00 
1  9.481960029009e+00   3.424493406480e+01  -6.971939758072e+00 
1  3.545373535053e+01   2.526092308385e+01  -3.902499362055e+01 
1  2.409162145550e+01   4.259164020479e+01   1.833124853202e+00 
1 -3.067831192503e+00   2.087368084302e+01   5.320765422525e+01 
1 -1.774166100070e+01  -3.572610389177e+01   8.294152650736e+01 
1  4.421177250708e+01  -3.497121649161e+00  -1.858935760196e+01 
8
Step 52000
1 -1.703441596831e+01  -1.817416261637e+01  -6.704964494642e+00 
1 -2.061191400761e+01   6.968974840483e+01  -4.783136938726e+01 
1 -3.159001449851e+01   4.614772894460e+01  -3.040032614157e+00 
1 -2.590825625287e+01  -8.749853685866e+01   2.800723438202e+00 
1  1.753652996072e+01   6.297180915593e+00   1.671243219854e+01 
1  3.578704598109e+01   3.469890660960e+01  -2.125872929798e+01 
1 -3.351404984335e+01   2.351246721674e+01   3.705135095377e+01 
1  4.197078660847e+01  -3.722575298111e+01  -3.240353707759e+01 
8
Step 53000
1  6.565850063360e+01   6.074444373307e+01   2.259625185260e+01 
1  1.364892393796e+01   1.867480755567e+01  -3.382755798896e+01 
1 -7.108547833546e-01  -1.193053674525e+00   3.235507393974e+01 
1 -1.628528905461e+01   2.293859183093e+00  -8.985304451801e+00 
1  2.222454992465e+01   2.929457332895e+01   4.010852341536e+00 
1 -9.797743143305e+00   1.617062901471e+01   1.594427864840e+01 
1 -1.434142341154e+01   9.463292755471e+00  -4.838196381180e+01 
1  1.444590515880e+01  -4.655741302511e+01  -6.798653135853e-01 
8
Step 54000
1 -3.083960763009e+01   1.761011474453e+01   3.602434926220e+01 
1 -1.198858107868e+01   7.266319565840e+01  -1.575569534628e+01 
1 -1.123500486244e+01  -5.865960859053e+00  -3.766147783566e+01 
1  5.648905977350e+01   8.218364526256e+00  -2.805657778984e+01 
1  6.280763810995e+00   1.332075933702e+01   2.277199216649e+01 
1 -3.910449811446e+00   2.598314308031e+01   4.548135178452e+01 
1  2.180259276226e+01  -1.263247241315e+01  -2.041055396621e+01 
1 -1.188260398360e+01  -7.979185589722e+00   1.843265994585e+01 
8
Step 55000
1  2.881712012571e+01   5.204854399339e+00  -3.595107200093e+01 
1  5.837589729706e+01   1.523768489073e+01   4.525524505863e+01 
1  1.446166622638e+01   5.732431762571e+01  -1.197921082134e+01 
1 -5.922361278603e+00   8.016012835703e+01   1.893799849685e+00 
1 -2.830502246369e+01   2.426462469077e+01  -3.290597908917e+01 
1 -4.986168423307e+01   4.601217981007e+01  -5.176357541836e+01 
1 -1.406516190205e+01  -4.192883994736e+01  -1.998782858313e+01 
1 -8.652409337454e-01  -6.548622216040e+01   2.037381354399e+01 
8
Step 56000
1 -7.953942019097e+00  -1.499002509036e+01  -2.162363829020e+01 
1  3.967015301608e+00  -4.982106381877e+01  -8.980251809922e-01 