8
Step 0
1  7.395189469585e+00   2.868572838882e+01  -2.182869978595e+01 
1  3.581768520100e+01  -5.040078629445e+01  -1.872152468762e+01 
1 -8.956057854562e+00   4.753479582038e+00   1.574679953468e+00 
1  1.977878075509e+01   3.607585693886e+01  -2.422827477529e+01 
1  7.002853144553e+01   7.647335132185e+01   2.165794942044e+00 
1  2.570063494682e+01  -1.914862205628e+01   1.732125061436e+00 
1  5.826318678326e+01  -1.353795077675e+01  -5.974027404880e+01 
1  5.370653369435e+01  -9.140397982714e+00  -5.549262301199e+01 
8
Step 1000
1  7.959970565936e+01  -6.843026917852e+01   1.656905517480e+01 
1  3.852032922044e+01  -5.036097907311e+01  -7.456098005584e+01 
1 -5.690366802846e+01   2.829914470578e+01  -1.641423737218e+01 
1  3.040663945687e+01  -1.101415520942e+00   1.180786328997e+01 
1  2.495954962871e+00  -8.586623117984e+00  -3.047588662750e+01 
1 -6.124901583515e+00   6.744806220451e+01   5.436515738575e+01 
1 -8.213866784151e+01   1.084978015817e+01  -7.168750088224e-01 
1  1.473329779802e+01  -6.382399637017e+01  -1.696352926181e+01 
8
Step 2000
1 -5.087581349117e+01   5.237415457578e+01  -6.314646976240e+01 
1  3.709164168757e+01  -7.719299262066e+01  -1.790003317378e-01 
1  4.532902367599e+01  -3.624068639937e+01   1.028175858861e+02 
1  4.239859534775e+01  -3.807919599833e+01  -9.176089524823e+01 
1  4.822395413294e+01   1.966881838493e+01   1.611939545018e+01 
1  2.091827067404e+01  -6.765303243756e+01   1.637176286643e+01 
1 -7.990701604709e+00   2.210023022099e+01  -9.337635510514e+01 
1 -8.135997789239e+01   3.117040304509e+01  -6.562757380765e+01 
8
Step 3000
1  4.366367074093e+01   6.804637394287e+00   1.524911825834e+01 
1  4.430993971069e+01  -4.441107022467e+01  -3.575947805989e+01 
1 -5.650307659376e+01  -6.086607694746e+00  -4.583318379923e+01 
1  8.661092100031e+01   3.144402183117e+01   3.904994893819e+01 
1  1.637013260186e-01   3.426474755872e+01   3.608141049168e+01 
1  7.600875223479e+00   1.020131156955e+02   4.411828350052e+00 
1 -2.702294712708e+01  -3.091791770884e+01   9.109514069333e-01 
1 -1.306715228828e+01   2.232396537178e+01  -5.008412385792e-01 
8
Step 4000
1 -7.268388624874e+00  -1.862232590848e+01  -4.228507791008e+01 
1  4.068712592019e+01  -6.663000381329e+00  -4.180519554198e+01 
1 -2.334460832863e+01   9.963293704190e+00   8.235256641074e+00 
1 -6.743050886467e+00   3.991609128872e+01  -6.660845338429e+01 
1  1.664102453680e+00  -5.268254211360e+01  -4.382088069279e+01 
1  1.713694095039e+00  -2.432098584699e+01   7.478892813638e+01 
1  2.089982468279e+01   3.457233091427e+01  -1.395509248778e+01 
1  5.047005456236e+01  -2.928480070230e+01  -1.516948283478e+01 
8
Step 5000
1  2.028216737007e+01  -3.825027824541e+01   3.225990765252e+01 
1  2.321576784145e+01  -2.932576057667e+01   1.188670074949e+00 
1  2.671976282539e+01   1.208459974131e+01  -6.462045886450e+00 
1  7.805185795669e+00   5.850279886152e+01  -6.001921432472e+01 
1 -6.734240266506e+00   9.524463446636e+01   3.123273478942e+01 
1  2.582722766132e+01  -2.628841143144e+01   4.367439820126e+01 
1  4.878886422246e+01   5.988726174030e+00  -2.178500088161e+01 
1 -3.702274404496e+01   4.589071090763e+01  -5.133877331696e+00 
8
Step 6000
1  5.804621562140e+01   1.307502557308e+01  -3.565876845867e+00 
1  1.054949303053e+01  -4.437469246982e+01   6.139106494113e+00 
1 -4.572734195179e+01   3.051071669575e+01  -2.950763708136e+00 
1  1.923445570102e+01  -4.483392069637e+01   4.762992578641e+01 
1  7.121395307408e+01  -4.026900945598e+01  -4.250384043026e+01 
1 -8.105411684851e+01   4.929820546341e+01   4.712848506557e-01 
1 -6.265781993498e+01   1.559155709650e+01  -5.011040198427e+01 
1  6.253640280942e+01  -1.991968067897e+01  -4.200219565707e+01 
8
Step 7000
1 -2.638443325854e+01  -2.931440353954e+01   3.250355468389e+01 
1  5.488863119038e+00  -1.456101724870e+01  -4.145474477002e+01 
1 -1.821528702123e+01  -2.609130320613e+01  -1.452151369700e+01 
1  1.530679877805e+01  -1.484663280115e+01  -7.242830649980e+01 
1 -2.111530759494e+01   5.571306309411e+01   3.909226335590e+01 
1  2.124465932109e+00  -2.880893477806e+01   4.239804072192e+01 
1 -2.386154761681e+01   8.348497398454e+01   2.354533461846e+01 
1 -2.214612946286e+01   3.661461164540e+01   4.320300527774e+01 
8
Step 8000
1 -5.461104550702e+00   2.954006280819e+01  -1.395074329815e+01 
1 -2.496184532937e+01  -1.275112917004e+01   5.245793198970e+00 
1  5.319867515267e+01   1.033013991423e+01   4.428495594917e+01 
1  4.638614370887e+00   1.791118599043e+01  -7.638662349393e+01 
1 -5.983623775003e-01  -4.868184692302e+01  -8.150451843695e-01 
1  2.447030612147e+01   3.068407503610e+01   3.036778867073e+01 
1  5.493450403370e+00   2.300513345287e+00   9.203325474947e+00 
1  7.663358977406e+00   4.617241604860e+01   4.473661017633e+00 
8
Step 9000
1  1.977739102569e+01   1.565582195223e+00   6.947184660490e+01 
1  5.150158541141e+01  -2.553842990326e-01  -2.982018198413e+01 
1 -3.940817709736e+01   2.232038082197e+01  -6.563314450782e+01 
1 -1.311682219197e+01   8.153510521537e+01   6.733246365394e+00 
1 -6.290698744987e+00   6.280937279793e+01   4.323382058300e+01 
1  2.630207425601e+01   1.179010110952e+01   4.744268758182e+01 
1  1.502196932897e+01  -5.788289428539e+00  -1.408680683053e+01 
1 -2.364211355723e-01   1.611351148712e+01   2.786130982040e+01 
8
Step 10000
1  2.296133426260e+00  -8.401930984165e+01  -1.629466469935e-01 
1 -3.622367710393e+01   4.676632536418e+01   6.255195979067e+01 
1  2.909622382106e+01   1.395223848936e+01  -9.392017920177e+00 
1 -5.001604030785e+01  -2.626723205474e+01  -9.773524867202e+01 
1 -2.329417237970e+01  -8.430599788338e+01  -3.167078608303e-01 
1 -1.538320362303e+01  -3.390865010274e+01  -8.812490773816e+00 
1 -3.005342430822e+01  -2.067752902877e+01   2.536749823241e+01 
1  1.122462383230e+01   7.773763296827e+01   3.677842482860e+01 
8
Step 11000
1  3.739534223133e+01   6.248257558302e+01   1.089591469713e+02 
1 -1.113245563604e+01  -5.647035191851e+01   2.003491787796e+00 
1  5.573598198317e+00   5.545704687439e+00  -1.903539489752e+01 
1 -3.953398667393e+01   1.641306600899e+01   2.007401213497e+00 
1  4.599339477520e+01   1.151223325819e+01  -7.792429354521e+00 
1 -5.124388393697e+01   6.958391809733e+01   4.715958188977e+01 
1  9.486790768999e+00   5.377252010896e+01  -1.783012362522e+01 
1 -1.317334162571e+01   4.462537413282e+01   7.160301733552e+00 
8
Step 12000
1 -3.816001010490e+01  -3.610941788411e+01  -1.172613455593e+01 
1 -3.222961017444e+01   7.304926472133e+01  -2.757171064438e+01 
1 -2.294132533079e+01  -2.695494725794e+01  -1.111585014214e+01 
1 -1.908541882432e+01  -6.392578462406e+01  -2.759546210861e+01 
1 -3.368349550310e+01   1.463919100709e+01   3.719733793576e+01 
1  2.157559935509e+01  -6.905124980121e+01   5.644802137037e+01 
1 -4.715411914597e+01   5.183236993409e+01   4.453955321545e+01 
1  1.453407829932e+01  -3.057338798312e+00   2.143815618321e+01 
8
Step 13000
1 -1.860214820865e+01   2.594053482516e+01   5.073716611747e+01 
1 -3.142358711294e+01   1.890084436180e+01   3.894879844790e+01 
1  6.414272378036e+01   2.396555598577e+01  -3.849154814158e+01 
1  4.320036928972e+00   3.361098931858e+01  -6.068101725720e+01 
1 -5.494145945749e+01   2.356136979872e+01  -8.301179304884e+00 
1  3.486461608354e+01   5.336946046346e+01   4.984492921559e+01 
1 -2.748513801751e+01   1.093814682109e+01   3.408561237340e+00 
1  3.752419941286e+01   9.986836742148e+00   7.624352867201e+01 
8
Step 14000
1  2.455849304347e+01   3.734799591129e+00   7.433909414534e+01 
1  2.793722124278e+01   2.847315898392e+01   3.913167878370e+01 
1 -6.357730343782e+01   4.313689955057e+01   9.242470816060e+00 
1 -2.680803760670e+01   1.919164901024e+01  -5.298479501656e+00 
1 -2.353606866224e+01  -5.263962506161e+01   1.415477102679e+01 
1  2.197939253692e+00  -7.074972476084e+01  -2.167429081850e+01 
1 -4.630341214250e+00   3.074966054490e+01   5.710837566626e+00 
1  1.310817365338e+01  -1.536087272709e+01  -1.690070903738e+01 
8
Step 15000
1 -1.410442459424e+01  -4.379344764253e+01   6.007029644529e+00 
1 -3.963240891420e+01   2.105587736424e+01   1.334818344358e+01 
1  5.570797990890e+01  -3.363042199396e+01   2.990459412391e+00 
1 -5.812788441582e+01   2.907287209924e+01  -8.721525646814e+01 
1 -9.395001494836e+01  -1.865160359685e+01   2.020906063831e+01 
1  5.518337541243e+01  -3.554069034579e+01   7.955575040026e+01 
1 -3.947051999216e+00   2.516875314825e+01   8.295803300672e+00 
1 -4.366016403345e+01   9.270858866790e+01   2.396828705467e+01 
8
Step 16000
1 -5.120626472817e+01   2.556531627906e+01   1.042758241397e+02 
1 -6.358350929893e+00   1.184916919834e+01  -5.393380012174e+00 
1 -5.066127354372e+01  -4.483052442482e+01  -5.020456408204e+01 
1 -4.016123075449e+01  -7.326692169031e+01   2.303609508367e+01 
1  3.930648074627e+01  -3.684418274721e+00   2.576670836771e+01 
1 -4.135817394042e+01   5.681201779805e+01  -3.959977855946e+01 
1 -4.896675466090e+00  -7.142620698997e+01   1.957634774899e+01 
1 -1.713211043277e+01   3.296265067332e+01   4.066354493145e+01 
8
Step 17000
1  7.178050123635e+01  -1.398565423653e+01  -4.084811607890e+01 
1 -7.987972035368e+01   1.290424459447e+02   4.206557311608e+01 
1  5.348378843784e+01   5.224193239385e+01   5.658714632521e+01 
1  1.193314016585e+01  -1.282701289693e+01  -3.739167802978e+01 
1 -1.293512240842e+01  -2.519004492030e+01   1.635375390068e+01 
1 -6.458833576678e+01  -3.685600754208e+01   4.596997688186e+00 
1  2.463196517541e+01   9.028397735533e+01   3.356386670088e+01 
1  3.613022854977e+01   1.015519828482e+01  -6.091394284985e+00 
8
Step 18000
1 -5.737541411503e+01   3.928441312421e+01   5.902518144816e+01 
1 -3.431662569671e+01   3.376805957028e+01  -4.436910220880e+00 
1  3.731174217816e+01  -5.198694354788e+01  -2.750405396442e+01 
1 -8.226980649431e+01  -2.456768818584e+01  -1.339138729227e+01 
1 -3.300795743696e+01  -3.545208259822e+01  -2.724390034049e+01 
1  4.476653224027e+01  -3.705467285702e+01   3.903529527879e+01 
1  3.587978138320e+01  -1.028363113909e+02  -9.165226267525e+00 
1 -6.333968005509e+01   2.989927742231e+01   5.240944306418e+01 
8
Step 19000
1  4.171625926093e+01  -3.187222627904e+01   3.387570998176e+01 
1 -1.454677402382e+01   4.116243826321e+01   4.909367309025e+01 
1  1.626483607393e+01   4.742760834606e+01   4.765517357008e+00 
1 -2.575167987929e+01   6.162507405170e+00   1.320621662349e+01 
1 -6.038287241617e+01  -3.973058715799e+00  -2.668069850571e+01 
1 -1.454627857376e+01  -3.030331893001e+01  -1.200035310762e+02 
1 -3.134400273129e+00   7.298146992485e+01   1.561013874406e+01 
1  8.836801606393e+01  -1.774214178819e+01   2.409786441343e+01 
8
Step 20000
1 -1.728989538207e+01   2.454963319562e+01   2.037676482491e+01 
1 -2.961887057787e+01  -1.377713899526e+01  -2.441039999044e+01 
1 -3.231186317218e+01  -8.074648262708e+01  -1.464045017406e+01 
1 -2.925057663818e+01  -1.216340076836e+01  -9.690450817973e+00 
1  2.642516651198e+01  -6.483679113393e+01   6.133722667362e+01 
1 -1.003088702955e+01  -1.978334775144e+01   4.350048581496e+01 
1 -1.450315738122e+01  -1.631065851397e+00  -4.591630327498e+01 
1 -7.554079050770e+01   2.393489489201e+01   3.430319808200e+01 
8
Step 21000
1 -6.721396904476e+01   5.729746132646e+01  -7.028280250625e+00 
1 -7.914703083877e+00   1.733976462689e+00  -9.056734168622e+00 
1  1.005246925635e+02   1.420172159658e+01   2.788857518386e+01 
1  2.761879146622e+01  -2.171988583313e+01   8.362842169301e+00 
1 -6.409259251900e+01  -6.022392024708e+01  -7.063402695705e+01 
1 -1.345508554739e+01   1.170817767207e+01  -5.508664665440e+01 
1 -4.360574588727e+01   3.905238778212e+00   3.953002277045e+01 
1  4.685487204233e+01   8.286416134878e+00   1.108707460515e+01 
8
Step 22000
1  1.374872638612e+01  -1.819313461366e+01   5.021530925084e+01 
1 -3.566073031334e+00   1.438321440616e+02  -7.503594151638e-01 
1 -6.497327327579e+01  -3.380555285950e+01   2.652134342662e+01 
1 -1.110632509999e+01  -3.455964006547e+01   2.807077733812e+01 
1  5.638405499365e+01   2.795729934155e+00   4.829017787341e+01 
1 -2.154169261951e+01  -3.289239304503e+01  -1.833836606874e+01 
1  3.182049204492e+01  -4.456897783571e+00  -2.667100564745e+01 
1  3.556906750188e+01  -2.761852747160e+01  -5.955110002447e+01 
8
Step 23000
1  1.848606533448e+01  -4.168440064629e-01  -3.352428534121e+01 
1 -2.541521848804e+01  -1.094941995020e+01  -5.439343387103e+01 
1  4.123108713119e+01   5.978838893872e+01   1.572874872252e+01 
1 -7.525417325598e+00  -2.647460943016e+01   2.395488004715e+01 
1 -1.312451648692e+01  -1.320128007575e+01  -4.690822544800e+01 
1 -2.265231629539e+01   3.527071882710e+01  -6.266783421035e+01 
1  2.784948222552e+01  -8.439560027281e+01   1.969133697471e+01 
1  2.400492878267e+01  -1.771403199075e+01   5.455625004010e+00 
8
Step 24000
1 -1.557410943790e+01  -7.958040350652e+00   3.012089794362e+00 
1 -3.580979525808e+01  -3.539243050299e+01   2.726800718913e+01 
1 -1.762687526491e+00  -6.135381950846e+01  -3.526761255136e+01 
1 -6.798660646915e+01  -4.516067784085e+01   2.706914810453e+01 
1  1.824895044118e+01  -8.352984310176e+00  -1.512381722501e+01 
1  2.455316765662e+01  -4.348963438655e+01  -1.625458738180e+01 
1 -3.680703724500e+01   8.584071507862e+01   4.064140487813e+01 
1 -1.043394088864e+00  -4.799046492435e+01  -3.690627398289e+01 
8
Step 25000
1 -2.479624232423e+01  -9.748963475440e+00   7.159642222841e+00 
1  3.710385384339e+01   7.192941999285e+00  -5.457573303538e+01 
1  1.105436407451e+02   4.095916866538e+01   6.634181755427e+01 
1  4.783253460338e+01   6.477573603279e+00   4.671578840444e+01 
1  5.942985970975e+00  -1.731433526134e+01  -1.371001000598e+01 
1 -5.003901437577e+01  -6.019281104794e+01  -2.832610529566e+01 
1 -1.710358448791e+01   1.635629915296e+01  -9.263364906514e+01 
1  3.584693635938e+00   5.284103821635e+01  -5.429002298742e+01 
8
Step 26000
1  4.680053399970e+01   9.714599806672e+01  -4.035446494204e+01 
1 -6.821512627760e+01  -1.631949381359e+01  -6.314056529473e+00 
1 -3.101694650131e+01  -1.774310523964e+01  -2.528008642481e+01 
1  7.082266756435e+00  -8.615570967143e+01   3.120511391459e+01 
1 -9.724690101252e+00  -1.242103161739e+01   4.620029379963e+00 
1  3.750725369893e+01   3.778088011610e+01  -7.763201434060e+01 
1 -2.934761369044e+01  -1.392149764801e+01   3.123158829277e+01 
1  3.033116111312e+01  -7.442632692247e+01   6.792704794928e+01 
8
Step 27000
1 -4.176942517123e+01  -6.217878055511e+01  -9.540150468248e+00 
1  6.440980376366e+01   1.321823824046e+01  -4.639604836758e+01 
1  3.144952382417e+00  -6.952756530877e+00   2.753340644688e+01 
1  2.634731764922e+01   6.130954015973e+01   4.466041857266e+01 
1  3.855232136112e+01   1.819803868129e+01  -2.588017233584e+01 
1  7.997310091768e-01  -1.015789546588e+01  -3.497867183062e+01 
1  5.636240330561e+01  -2.130908460446e+00  -7.323450839072e+01 
1  2.697272125729e+01  -3.406560396464e+01  -5.348356402704e+01 
8
Step 28000
1  2.557485978384e+00  -1.311116193520e+01  -4.267374593779e+01 
1  6.117922831752e+00  -4.445022725362e+01  -3.271173758993e+01 
1  3.369822146584e+01   4.853382099761e+01   7.988393734000e+01 
1  4.782199673530e+00  -4.491268087921e+01   3.079096335317e+00 
1 -3.607725063031e+00  -2.048205886743e+01   2.088203882632e+01 
1  7.879633224687e+01   2.673561881359e+01  -8.194168015542e+00 
1 -3.958209711107e+01  -1.484709007445e+01  -8.299475310159e+00 
1 -4.266242506564e+01   1.694800584582e+01  -3.155040758556e+01 
8
Step 29000
1  3.771319477241e+01  -4.996831773541e+01   1.075439348325e+01 
1  3.707098135985e+00  -1.328505664293e+01  -2.573586385535e+01 
1  4.859457549476e+01  -6.797461703121e+01  -6.782776724818e+01 
1 -9.752184995064e+00  -3.506821318990e+00   2.740843640777e+01 
1  1.791363070217e+01   3.361993412997e+01   1.589253046271e+01 
1 -7.281548347341e+01   8.725661370481e+00  -1.161966774247e+02 
1  1.749558057143e+01  -1.563650998182e+01  -4.816982667195e-01 
1 -4.443672086343e+01  -4.180834791064e+01  -1.248290240191e+01 
8
Step 30000
1 -3.476744988868e+01   6.718521904549e+01  -2.470637597867e+01 
1  2.945814883794e+01  -1.718535712790e+00  -1.201189793326e+01 
1  2.774007043501e+01   5.276646562685e+01   1.012735287665e+02 
1 -1.092347740805e+01   1.643388551282e+01   7.650406402050e+01 
1  1.250497408433e+00   1.230156872686e-01  -5.434334926175e+01 
1  3.660205243454e+01  -3.429890016769e+01   6.580389382139e+00 
1  9.199216417645e+00   4.975519105942e+00  -5.467094846967e+01 
1  5.887670826804e+01  -1.366246698573e+01  -1.649324119879e+01 
8
Step 31000
1  5.939998903835e+01  -2.828042537802e+01  -5.110831188095e+01 
1  5.612585293362e+00  -2.121923020784e+01  -5.663511534314e+01 
1  4.721909041669e+01   4.282389844526e+00  -2.831231118702e+01 
1  5.314686647636e+01  -1.006707585441e+01   3.171976552579e+01 
1 -7.233063808165e+00   3.669771571015e+01   1.657184905902e+01 
1  9.334658274315e+01  -3.580049859467e+01  -2.519417051089e+01 
1 -3.880720355885e+01   4.102075780330e+01   1.059220170130e+01 
1 -4.044744479465e+01  -1.516984935029e+01  -3.157067519184e+01 
8
Step 32000
1 -4.378266869818e+01  -3.307336393823e+00  -4.545148265436e+01 
1 -2.336716501692e+01  -5.276977370765e+01   1.381561448310e+01 
1 -2.496960613177e+00   1.827382046923e+01  -6.795213774116e+00 
1  3.901437807757e+01   1.785122472264e+00   6.790244013191e+01 
1  2.368218411669e+01   3.446435110872e+01  -3.020969929107e+01 
1 -5.518000064092e+01  -2.545159526672e+01  -2.575693603453e+01 
1  3.200111423655e+01   3.841269738936e+01  -2.666235031054e+01 
1  5.659309870076e+01  -4.382248724581e+01   4.829969938052e+01 
8
Step 33000
1  3.744315799582e+01  -6.339502396044e+01   2.298508031039e+01 
1  9.906749715768e+01  -3.498102575795e+01  -1.159692745717e+01 
1 -1.748499230205e+01   2.390512251414e+01   2.833229743923e+01 
1  4.619161743824e+01   6.409630955865e+00   1.942574046287e+01 
1 -1.688337062357e+01   1.140039640272e+02   1.131865814291e+01 
1  7.489400447376e+01  -1.550510298237e+01  -2.685513709525e+01 
1 -7.988696696115e+01  -4.544256476582e+01  -9.250679528484e+01 
1 -5.389931179769e+01  -2.810758998233e+01  -3.171835493357e+01 
8
Step 34000
1 -1.260688832682e+01   3.959621766363e+01  -2.011095667788e+01 
1  2.113091675475e+01   3.164159456738e+01  -2.135201434643e+01 
1  9.728845977426e+00   2.200838411720e+01   1.378582469754e+01 
1 -1.086738737313e+01   2.026886975092e+01   9.596933891866e+00 
1 -4.856557931039e+00   7.658604678162e+00  -1.602472185596e+01 
1 -3.919807465868e+01  -6.251225907224e+00  -1.851202735863e+01 
1  4.810224737446e+01  -1.401025133587e+01   6.892584043416e+01 
1  2.628151506192e+00  -2.939511607123e+01   4.033958662619e+01 
8
Step 35000
1  4.699750348121e+01  -2.625517462798e+01  -1.348883682404e+01 
1 -2.648770503013e+01  -1.280134564714e+01  -1.185808128901e+01 
1  7.848226288062e+00   8.950050722387e-01   8.354103922168e+00 
1  3.549057071424e+01   2.954256719717e+01   3.248638454125e+01 
1  3.394957197747e+01  -3.997404947069e+01   3.262320415659e+01 
1 -1.557041681642e+01  -1.483742993534e+01  -3.174349140623e+01 
1 -7.206792582587e+00   8.167447094721e+00  -3.928580473779e+01 
1  1.424560806032e+00   1.445802392482e+01  -1.438896506387e+01 
8
Step 36000
1 -1.248654756115e+01  -1.543735328738e+00  -9.794769779440e+00 
1  3.164631654753e+01   4.232178341144e+01  -2.031564851032e+01 
1  3.795642652050e+01   1.176169508260e+01  -1.393432849464e+01 
1  2.435298174449e+01   4.159886552124e+01   4.707370558120e+01 
1  1.119541143134e+01   3.892891309858e+01  -3.927833747095e+00 
1 -1.841204934268e+01   3.071868267340e+01  -1.178707238628e+01 
1  1.244245189059e+00  -1.107072063568e+01   4.973685396336e+01 
1  7.882910941261e+01   3.139152739689e+01   4.074448905912e+01 
8
Step 37000
1  1.003964786517e+01  -3.444967724670e+01  -3.548009797375e+00 
1  2.628684709379e+01  -1.078961325627e+02   4.018766770022e-01 
1 -3.257151667881e+01  -3.288052022282e+00  -2.683989904394e+01 
1 -3.724688452385e+01   4.506868718016e+01  -6.109465877969e-01 
1  1.257180821090e+01   7.374000347333e+01  -4.587635981626e+01 
1  7.382293039740e+00  -1.631294170097e+01   2.082474308738e+01 
1  1.606062411210e+00  -8.631265284793e+00   6.752651150779e+01 
1 -8.241058045198e+01  -1.189258673571e+02  -2.509583215475e+01 
8
Step 38000
1  4.016118995381e+01   2.463945453391e+01   2.111548393332e+01 
1  4.376693886610e-01   6.209538489792e+01   5.808087042777e+01 
1 -8.499968023620e+01   4.906748219070e+01   1.138335549285e+01 
1  4.190293785310e+01  -3.626709434772e-01   4.515490038167e+01 
1 -4.656143247147e+01   4.229855833245e+01  -3.028267408398e+01 
1  1.965634012958e+00  -6.039267649129e+01  -1.842610728134e+01 
1 -2.653635438635e+00   1.943460326964e+01   9.822712583864e+00 
1  4.710713127385e+01   8.086477303361e+00   7.032339552917e+00 
8
Step 39000
1  2.056498676872e+01  -6.263990191538e+00   2.976410253562e+00 
1  4.419917728756e+01  -5.399262620789e+00  -2.242428514967e-01 
1  3.163074423524e+01  -1.838967662427e+01  -5.519517295731e+01 
1 -3.950517943212e+01   2.436590382124e+00   6.752911466009e+00 
1  4.464955754118e+01   8.580330725515e+01   3.722188820506e+01 
1 -2.302892848798e+01   6.311528994578e+01   2.935159430098e+01 
1 -3.657028909749e+01   1.935465676391e+01   1.106476631711e+00 
1 -2.724200617870e+01  -1.217310628874e+02   5.139117489785e+01 
8
Step 40000
1 -3.156742735354e+01   1.317646284557e+00   9.917061648044e+00 
1 -5.638752869837e+01   7.665899643574e+01  -2.811825638016e+01 
1  2.613603249881e+01  -6.769166743191e+00  -7.259208503032e+00 
1  4.392526164350e+01  -1.622495799164e+01  -3.521398287578e+01 
1 -6.776393227557e+01   1.889200662573e+01  -2.025421506340e+01 
1  4.211084539630e+00   5.699946789768e+00   2.194482133993e+01 
1  5.738635497663e+01   2.663241413387e+01   1.024447619601e+02 
1  3.132472336561e+01   7.866126623444e+00   3.290394331926e+01 
8
Step 41000
1  3.286670207529e+01  -8.841493304890e+00   2.460520021913e+01 
1  2.928829247938e+01  -6.122656093528e+01   1.396265711112e+01 
1 -5.089801616824e+01   4.526760279722e+01   1.964070768841e+01 
1 -7.005431629226e+01   1.520193670771e+01  -7.180629203691e+00 
1  9.322808439865e-01  -7.000037425869e+01   3.630703119083e+00 
1  5.998847842915e+00   1.796267642488e+01   1.494886948647e+01 
1  1.782751971979e+01   2.124107713824e+01  -7.522757024574e+00 
1 -2.169735629772e+01  -1.758013982067e+01   1.054512864480e+01 
8
Step 42000
1  2.010593752899e+01   3.215167109825e+01  -9.220401880339e+00 
1 -1.871778670356e+01   6.105784253751e+01   4.850351550353e+01 
1 -7.540036814164e+00  -5.032560078782e+01  -4.630923219312e+01 
1 -2.237637668680e+01   6.302182863483e+01  -4.434340957571e+01 
1  4.715745107134e+00   7.994484500085e+01   3.738636334174e+01 
1 -1.948152607158e+01  -1.041246238952e+01   5.566885409457e-01 
1 -1.112507019481e+01  -1.649686627218e+01   5.413799537872e+01 
1 -5.395269038339e+00  -3.800737111330e+01   3.834880816482e+01 
8
Step 43000
1 -3.478286610543e+01  -3.413733536142e+01   6.579455834966e+01 
1  1.416469747175e+01  -3.377276683699e+01  -2.389819380289e+00 
1 -4.667111963409e+01   1.880026607338e+01  -2.045230368035e+01 
1  4.671452856873e+00  -2.382875195751e+01   4.175641532712e+01 
1 -6.415705013538e+01  -3.262381026114e+01  -5.292805295606e+01 
1 -4.894390642514e+01   2.526228312339e+01   3.548463567661e+01 
1  1.998520811851e+01  -5.149926087052e+00   5.297390673894e+01 
1 -3.566589714210e+01  -1.748348651607e+01  -3.023013825704e+01 
8
Step 44000
1  7.322580009645e+01   1.122119269035e+02  -5.065967981816e+01 
1 -1.445827517023e+01   1.459171321823e+01   9.415733111018e+01 
1  4.882032657006e+00   1.132790047588e+01  -2.350559279220e+01 
1 -1.709861244618e+01  -2.068630185808e+01  -5.840479737142e+01 
1  3.843329849869e+01   7.110135530989e+01   2.795593343725e+01 
1  5.370854692865e+01  -1.281157478666e+01   6.943178619528e+01 
1  2.718246771225e+00   8.272392520080e+01  -6.675928076099e+00 
1 -4.190934765431e+01  -1.311434968232e+01   1.059985913455e+01 
8
Step 45000
1 -6.794237989162e+01  -4.991091847841e+01   3.589956046789e+01 
1  7.642629410397e+00   5.700908865125e+01   4.563853284965e+00 
1 -1.453164183652e+01  -7.933931901147e+01  -1.218809388924e+02 
1 -3.070656978877e+00  -4.622386241436e+01  -1.636870955730e+01 
1 -6.572239939033e+01  -6.516057369654e+00  -4.300410909413e+01 
1 -6.562634418954e+01  -2.097008176428e+01   5.521680240517e+00 
1  2.729279911415e+01   3.419982008519e+01   1.035093906429e+02 
1  3.665434632326e+01  -3.008057510144e+00   9.242347997337e+01 
8
Step 46000
1  3.755907367113e+01   2.642839957969e+01  -1.302423944242e+01 
1 -2.836227194774e+01  -1.103545300541e+01   1.920968512280e+01 
1 -7.368122950038e+01   5.324203184444e+01   5.148910759072e+01 
1 -2.038628271720e+01  -1.989330995862e+01  -6.811602179990e+00 
1  1.394297220598e+01  -3.125619086014e+01   1.702231326612e+01 
1 -1.259152450344e+01  -1.997623073067e+01  -2.848612066866e+00 
1  2.754852049011e+01   2.272635282873e+01  -3.699528412927e+01 
1 -3.764002383492e+01   1.675099485057e+01  -4.356348252305e+01 
8
Step 47000
1  3.370232836325e+01   1.341945019945e+01   2.458432101457e+01 
1  2.367030621409e+01   2.037655275027e+01   3.423013029603e+01 
1 -6.390574074272e+00  -7.384652866691e+01   4.265744721331e+01 
1  1.064997852746e+01   5.318055618702e+01  -6.955871658336e+01 
1 -7.335651985824e+01   5.224233167546e+01   1.108363558969e+01 
1 -2.933249870250e+01  -4.048352495376e+01   3.549379362249e+01 
1 -5.127792176141e+01   1.224449198848e+01   4.435647978703e+01 
1 -3.808122414344e+01  -5.204366965679e+01  -3.797310488026e+01 
8
Step 48000
1 -9.644810486904e+01  -9.349603285412e-01  -1.812804536789e+01 
1  4.089570421004e+01  -2.110151914655e+01  -1.003996541518e+00 
1  2.701410738133e+01   3.413342806308e+01  -6.802323014778e+01 
1 -3.437570638650e+01   2.631133486006e+01  -5.381169753889e+01 
1  2.109213170876e+01  -4.755402075548e+01  -9.565533836112e+00 
1 -1.089824090299e+00   4.957778332599e+01   4.455971940702e+01 
1 -6.259750254784e+00  -3.216763149772e+01   2.579324000002e+01 
1  1.952380810218e+01   6.337283728277e+01   2.859029577605e+01 
8
Step 49000
1  6.161159764396e+01   5.942660471638e+01   1.032043428613e+01 
1 -8.209859615778e+01   3.874125273446e+01   6.089223426960e+01 
1 -5.773111440225e+01  -9.601303445811e+01  -1.296338389612e+01 
1  4.539781751739e+01  -1.235260461491e+02  -2.971335966818e+01 
1 -4.200826095083e+01   2.117277741318e+01   1.384710698016e+01 
1 -2.448952803665e+01  -3.985999687708e+01   5.804756079206e+00 
1  2.831194021095e+01   7.210479893660e+01   5.055568880008e+01 
1  6.354854929665e-01   2.350452629036e+01  -6.718976318162e+01 
8
Step 50000
1  4.736511498909e+01  -2.994625186041e+00  -2.135921989677e+01 
1  3.175993798882e+01  -1.920795863968e+01   1.904432067955e+00 
1 -2.091160532204e+01   1.907953099104e+01  -7.169880909817e+01 
1 -2.503685947368e+00  -8.350625168055e+00   1.514910802058e+01 
1  9.263040096310e+00   2.679078884973e+00   1.612304312812e+01 
1 -1.316714830505e+01   5.578291529980e+01   3.484770190099e+01 
1 -1.605362496840e+01   2.610788918480e+01  -4.370437857275e+01 
1 -4.371903130386e+00  -2.256085315409e+01  -3.495587045005e+01 
8
Step 51000
1 -1.507937999308e+01  -3.644078488410e+01  -1.120427791290e+01 
1 -4.068473709632e+01  -2.233810800541e+01   3.978237975868e+01 
1  3.233933103728e+00  -4.975605842958e+01   2.534547646999e+01 
1 -4.495515451970e+01   2.111398057363e+01  -5.669378926118e+01 
1 -2.693377025726e+01  -2.186368354761e+01   2.033520034658e+01 
1 -7.580808580109e+01  -7.611731144510e+01  -1.114289754444e+01 
1 -5.594004193016e+01  -1.774640703757e+01  -9.933636648160e+00 
1  3.052719162436e+01   4.403251268776e+01   6.282960525606e+00 
8
Step 52000
1 -1.522014242356e+01   4.543262863705e+01  -4.670362970480e-01 
1  3.239388814059e+01   4.512458005896e+01   1.459026709736e+01 
1 -7.262485846854e+00  -2.371198857516e+01   3.147688951459e+01 
1  4.024602361847e+01  -3.312262090755e+01  -6.588437027537e+01 
1 -1.926322277609e+01   3.489587375054e+01  -8.529480701183e+00 
1 -1.015018558817e+01  -3.078951733214e+01  -3.689269729361e+00 
1  1.074502889147e+02   8.244176414222e+01   2.891668213660e+01 
1 -5.460966818216e+01  -3.153874010468e+01  -1.072724764210e+02 
8
Step 53000
1 -3.121459868204e-01   4.436851750110e+01  -3.767779537192e+01 
1 -2.786557062232e+01  -4.441642668323e+01  -3.115876222944e+01 
1 -5.170507781320e-01  -5.201670912406e+01   6.114601679042e+00 
1  1.102200988414e+01  -3.673298646686e+00  -3.637880421524e+01 
1  2.641414548634e+01  -3.090704295882e+01   7.177726890668e+01 
1 -2.353126491037e+00   4.715421787776e+01   5.560022423616e+01 
1 -2.337960729194e+01  -3.156822843484e+00  -7.358584404263e+01 
1  2.440468726339e+01   4.731140574612e+01   4.911983127400e+01 
8
Step 54000
1  1.519396782557e+01  -6.161061692498e+01  -1.972843116066e+01 
1  4.468787103651e+01  -9.760778638529e-01  -6.823869541333e+01 
1 -5.153291221167e+01  -5.733933685470e+01   4.333003689883e+01 
1 -3.839987602253e+01  -1.235324824290e+01  -1.318852880386e+01 
1  1.524002858401e+01  -2.386512397828e+01   6.972665574847e+01 
1  4.052374525504e+01  -4.202983010364e+00  -6.453762645013e+00 
1  4.894690914091e+01   6.134308993321e+01  -3.143314536299e+01 
1 -5.452723988933e+01   3.510888558923e+00  -1.528044287549e+02 
8
Step 55000
1  1.229711380552e+01   2.415398107350e+01  -9.820282597434e+00 
1  3.931867517910e+01   7.549802603703e+00   1.043109936173e+02 
1 -3.976020977093e+01  -1.980391509380e+01  -3.337405086900e+01 
1  5.023594971085e+01  -2.971496589897e+01   1.110175445969e+01 
1  7.535511103785e+00  -3.114403671067e+01   3.579427242423e+00 
1 -6.588306297080e+01   3.439993907712e+01  -2.797079613735e+01 
1  7.981581891670e+00  -1.888053386575e+01  -5.158777802038e+01 
1 -2.464922345461e+01   2.486150015098e+01   8.139733962132e+00 
8
Step 56000
1  1.778617474291e+01  -3.871356500176e+01  -2.367331447630e+01 
1 -1.734570943352e+01  -1.185802371473e+01  -4.937409551901e+01 