8
Step 0
1  2.130326814812e+00   3.841428738278e+01  -3.900125211552e+01 
1  3.567597752465e+00  -3.504277063756e+01   3.861701022475e+01 
1  6.258847992801e+01  -7.076539324116e+01   6.450599359103e+01 
1  5.978855273526e+01  -4.628740992298e+01  -3.331699604665e+01 
1  5.663920321690e+01  -5.214564811192e+01   5.649937483509e+01 
1 -4.885508989697e+01   7.742773658779e+01   3.518899981800e+01 
1  3.981944038262e+01  -7.472662646084e+01  -5.860625198879e+01 
1 -7.332626035848e+01  -1.421247514719e+01  -1.259120980933e+01 
8
Step 100
1  1.005457037607e+01   3.570469883244e+01   7.197955317660e+00 
1  1.404310576432e+01  -2.541992922962e+01   2.743102762103e+01 
1  4.831059070436e+01  -1.949336625565e+01   6.550759137154e+01 
1  3.214305176521e+01  -2.966805205417e+01  -2.146217272451e+00 
1  4.486515461944e+00  -1.726150522916e+01   3.877957439644e+01 
1 -1.159493154323e+01   7.417523649060e+01  -1.521753538317e+01 
1  2.525428927633e+01  -2.859390841397e+01  -4.791016107801e+01 
1 -3.789164340268e+01   2.779496008695e+00  -7.499818471553e+00 
8
Step 200
1 -5.105660152435e+00   2.844061357349e+01   5.841520277419e+01 
1  1.315515466997e+01   2.190533534834e+01  -8.192116034999e+00 
1  2.807220840591e+00   5.954423581200e+01   2.520330603045e+01 
1 -2.310790340706e+01   3.670173519346e+01   3.603200832895e+01 
1 -5.355289437108e+01   4.062488103983e+01   1.399297913031e+01 
1  1.749291209652e+01   1.105643814489e+01  -6.081463758712e+01 
1 -1.348582100622e+01   3.379329617085e+01   5.174913587831e+00 
1  2.668207034091e+01  -1.073019353827e+01  -7.362809338141e+00 
8
Step 300
1 -1.451066908829e+01   5.718340619215e+00   7.078435385231e+01 
1  2.200397356668e+01   3.875226486071e+01  -5.082711246502e+01 
1 -4.647836933973e+01   7.082974517284e+01  -2.823424517256e+01 
1 -2.708134229061e+01   8.147071073863e+01   6.285398078569e+01 
1 -5.161017595887e+01   6.652353314665e+01  -7.731002859993e+00 
1  2.985249786177e+01  -4.052570948171e+01  -5.602196335578e+01 
1 -3.699363573997e+01   4.813367455545e+01   4.756077336912e+01 
1  6.675807861737e+01  -5.169271668662e+01  -1.185843878814e+01 
8
Step 400
1 -2.106555242186e+00  -1.866850674336e+01   4.051253537155e+01 
1  4.420905255360e+01   8.829793115465e+00  -7.558709967491e+01 
1 -7.324481945407e+01  -8.248599834900e-01  -5.852447432489e+01 
1  1.726405500848e+01   5.951646980351e+01   6.952190699361e+01 
1  4.700937980942e+00   3.467881003086e+01  -2.485243132319e+01 
1  3.514454815981e+01  -2.493278831336e+01  -9.191780272392e+00 
1 -2.693919047662e+01   1.770833079506e+01   4.275826921729e+01 
1  5.151020248920e+01  -5.995187741299e+01  -1.358917240702e+01 
8
Step 500
1  1.311701597229e+01  -2.078167664748e+01  -5.822356013358e-02 
1  4.212553654681e+01  -2.648022779006e+01  -5.784718818914e+01 
1 -5.981712128980e+01  -7.161901427206e+01  -5.445017941248e+01 
1  4.939789964531e+01   6.401611870824e-01   5.169932062524e+01 
1  5.009349448992e+01  -2.798792746077e+01  -2.729873591095e+01 
1  3.160567962495e+01   3.511402283841e+01   2.626043477167e+01 
1 -6.494677824514e+00  -9.451241339930e+00   5.741318942913e+00 
1 -1.320432770016e+00  -1.323440688504e+01  -7.038026323441e+00 
8
Step 600
1  1.358895681741e+01  -2.352870127402e+00  -1.876059708993e+01 
1  4.509843340404e+00  -1.950243006491e+01  -2.176046723534e+01 
1 -1.930454649859e+01  -7.215016005853e+01  -2.224430113374e+01 
1  1.988307912930e+01  -4.275346477841e+01   1.633262182852e+01 
1  4.059816833078e+01  -6.359825496278e+01  -1.251701281779e+00 
1  1.296556688621e+01   6.652753172127e+01   1.904753497792e+01 
1 -5.429606113611e+00  -7.330971935154e+00  -1.978904544473e+01 
1 -4.520512750231e+01   4.150987884280e+01   1.686055487502e-01 
8
Step 700
1  7.414790674089e+00   5.243502001560e+00  -1.632757804536e+01 
1 -3.681900921058e+01   1.874731670563e+01   5.275738667422e+00 
1  2.312066930593e+01  -1.190738253271e+01   1.065818568540e+01 
1 -4.564746783636e+01  -4.598794013873e+01  -2.135078474147e+01 
1 -7.321189745033e-01  -5.174634733044e+01   2.679503039958e+01 
1 -1.974826338265e+01   2.918919224148e+01  -5.241939331735e+00 
1 -2.186978343293e+01   6.851626422583e+00  -9.532276274062e+00 
1 -4.286407046934e+01   4.333401484440e+01   4.801605102302e-02 
8
Step 800
1  1.064284103878e+01  -1.524099729649e+01  -1.188108610142e+01 
1 -4.664695122891e+01   3.609324126451e+01   1.451330804692e+01 
1  4.305883619124e+01   4.697276279298e+01   2.016904831733e+01 
1 -7.333841596232e+01  -2.905318091906e+01  -4.827208246155e+01 
1 -2.625116705280e+01  -1.633648138135e+01   1.886776189525e+01 
1 -4.630353232616e+01  -4.319861454893e+01  -4.508436023626e+00 
1 -2.380842517499e+01   6.731855607813e+00   1.838832016097e+01 
1 -3.507292519239e-01  -4.076211987954e+00  -3.602427202927e+00 
8
Step 900
1  1.995699347941e+01  -4.231297458600e+01  -2.309030304169e+01 
1 -2.466615334219e+01   1.336865332843e+01   2.282768076505e+01 
1  3.757287777360e+01   5.713903823878e+01   7.260657490919e+00 
1 -3.980069277499e+01  -1.799695170119e+01  -5.606232257337e+01 
1 -2.108887528414e+01   9.569097627551e+00  -2.012529127327e+01 
1 -5.239731768453e+01  -7.712685090556e+01   2.411517999709e+01 
1  8.318760153222e+00  -9.318115776275e+00   2.870471888980e+01 
1  4.032827926476e+01  -3.714689361989e+01   2.136188271165e+00 
8
Step 1000
1  9.035710229042e+00  -3.699812039903e+01  -3.820897415191e+01 
1  4.945347348574e+00  -1.939674483146e+01   4.329412879025e+01 
1  2.127111746934e+01   3.108158839558e+01  -9.340431785006e+00 
1  6.374422140567e+00  -8.996947079884e+00  -4.207405644223e+01 
1 -7.935363069895e+00   1.705048346239e+01  -4.304516030776e+01 
1 -3.799477593382e+01  -5.317608148031e+01   4.122946749308e+01 
1  5.232996437628e+01  -2.159706275857e+01   1.061074751296e+01 
1  3.879226577155e+01  -1.024869398749e+01   2.145126586287e+01 
8
Step 1100
1 -2.796121170093e+01   8.891913954037e+00  -3.297942401689e+01 
1  1.472635723841e+01  -2.687992367111e+01   5.635362175308e+01 
1  4.471900400622e+00  -1.030139470814e-02  -1.134714826401e+00 
1  1.657068124991e+01   1.020965900031e+01  -1.347995374953e+01 
1 -5.912303776401e+00   1.931819978950e+01  -1.912343675071e+01 
1 -2.037517190416e+00  -6.016182180288e+00   1.577750125476e+01 
1  6.251931137501e+01  -1.780889075474e+01  -1.490195163661e+01 
1 -5.120777473092e+00   4.661725477034e+01   3.758509786783e+01 
8
Step 1200
1 -5.819131282108e+01   5.353526217440e+01  -2.475044187294e+00 
1  4.455031570945e+00  -1.374124325988e+01   3.940541936182e+01 
1  2.463146182599e+00  -1.511440401846e+01   2.709142226460e+01 
1  2.545818805230e+00   2.962984623433e+01   1.083746648768e+01 
1 -6.932057915020e+00   2.523392022290e+01   2.328187769403e+01 
1  3.337976010577e+01   2.125510933513e+01  -2.589105347448e+01 
1  2.178909059736e+01  -4.412473193284e+00  -2.535149210270e+01 
1 -5.030027799341e+01   6.541460695927e+01   2.764149379136e+01 
8
Step 1300
1 -4.744708945439e+01   5.129669309229e+01   3.365711415227e+01 
1  1.478083548537e+00  -2.417975261075e+00  -5.972042696695e+00 
1  6.279994882699e+00  -1.324544759484e+01   4.622071287921e+01 
1  6.234254294669e+00   3.014521624686e+01   1.803457681626e+01 
1  5.939422167906e+00   2.952578760303e+01   3.214777688607e+01 
1  5.031186169282e+01   9.184694678771e+00  -4.037620510020e+01 
1 -3.538927950277e+01   7.567668672181e+00  -2.073808444348e+01 
1 -5.540260521023e+01   2.437516571669e+01  -8.700216593820e+00 
8
Step 1400
1  1.554858790978e+00   3.280392276098e+00   4.810619572682e+01 
1  1.327759621769e+01  -1.214667048893e+00  -4.949187106566e+01 
1  1.584312501478e+00  -1.014217221270e+01   3.362730058139e+01 
1  3.429302920885e+01   1.483869224389e+01   1.607485610287e+01 
1  3.098572258744e+01   2.403718189803e+01  -4.536344489336e-01 
1  3.983548645497e+01  -1.106129696326e+01  -1.881739188530e+01 
1 -5.834920106758e+01   1.468991035761e+01  -1.480623271082e+01 
1 -1.807218379756e+01  -2.944611636837e+01  -4.280984110960e+01 
8
Step 1500
1  4.556621287860e+01  -4.405329409613e+01   3.517699020197e+01 
1  1.802750779419e+01   7.859136814630e+00  -5.586870403641e+01 
1 -1.774574085658e+01  -1.457066197757e+01  -2.017968275049e+00 
1  4.927758374646e+01   1.769819223064e+00   1.875841478356e+01 
1  4.616922463649e+01   4.479290237426e+00  -3.181654273088e+01 
1  1.588732450164e+01   4.179640484645e+00   4.267936397457e+00 
1 -3.235241435513e+01   1.808727466667e+01  -1.066690620369e+01 
1  2.829096460615e+01  -4.259614964346e+01  -4.388304965585e+01 
8
Step 1600
1  4.900945794831e+01  -4.699418591218e+01   9.552137661880e+00 
1  3.613639651700e+00   3.229660270378e+01  -2.314084837012e+01 
1 -3.280632668917e+01  -1.987534527995e+01  -3.361444831044e+01 
1  1.969533542685e+01   3.823325723090e+00   2.463039151527e+01 
1  3.166580644496e+01  -2.390678197021e+01  -2.412265692725e+01 
1 -4.233107874862e+00   4.964828647876e+01   5.128140064135e+00 
1  9.580522129462e+00   1.420770686666e+01   1.696867870670e+00 
1  5.063634968563e+01  -1.776306254528e+01  -1.228044355371e+01 
8
Step 1700
1  2.313675660169e+01  -1.006297379535e+01  -1.765114800501e+01 
1 -1.357626883141e+01   4.708267120332e+01   1.538236650382e+01 
1 -2.474076227469e+01  -1.424301370788e+01  -4.535308280966e+01 
1 -2.775386764995e+01   1.048688463509e+01   2.111919160384e+01 
1 -1.041179181859e+01  -4.100133239116e+01   1.996331768307e+01 
1 -1.347680503462e+01   7.152137870913e+01  -4.250904531011e+00 
1  2.464058151922e+01  -9.300844669261e-01   2.209390544865e+01 
1  4.148290616785e+01  -1.359650056392e-01   1.930461159828e+01 
8
Step 1800
1 -1.368079011675e+00   2.749782222366e+01  -3.460302056275e+01 
1 -1.001288365033e+01   2.321854698248e+01   2.557229065500e+01 
1 -4.657221184383e+00   6.158472413284e+00  -3.775816028667e+01 
1 -4.101753051673e+01  -4.759852678866e+00   3.672285693510e+00 
1 -4.259900654270e+01  -2.828954241060e+01   5.046733036935e+01 
1 -1.745707864583e+01   3.320815507886e+01   1.582034227718e+00 
1  3.212637828953e+00  -1.703752708547e+01   3.145806773090e+01 
1  1.697020382839e+01  -1.529843530379e+01   2.152081556645e+01 
8
Step 1900
1 -1.052558303060e+01   3.348946587641e+01  -2.964875825595e+01 
1  1.052385648478e+01  -3.259112150394e+01   8.450670971279e+00 
1  1.016811456056e+01   3.085353253758e+01  -1.978421203978e+01 
1 -1.620302482822e+01  -3.924838059111e+01  -1.080365013668e+01 
1 -3.897808461685e+01   5.553097844325e+00   3.166297914369e+01 
1 -1.978580129258e+01  -3.555145185132e+01   1.871315265143e+01 
1 -2.401992352070e+01  -1.633785687998e+01   1.457184351587e+01 
1 -6.283961768069e+00  -3.751573052055e+01  -1.141762753312e+00 
8
Step 2000
1 -1.733698110007e+01   9.396389376896e+00  -6.514671829016e+00 
1  1.914652309370e+01  -6.936155530456e+01  -7.999314763839e+00 
1  1.022847755424e+01   3.694619792537e+01  -2.325541050168e+00 
1  6.648955957052e+00  -4.959531473994e+01  -3.578540804194e+00 
1 -7.344726510342e+00   3.024744678056e+01  -1.535705359427e+01 
1 -1.551663165607e+01  -7.331900455475e+01   2.728704175195e+01 
1 -2.127111178195e+01   2.907424490998e+00  -1.503463420869e+01 
1 -2.261212776137e+01  -2.934010402480e+01  -1.744976988135e+01 
8
Step 2100
1 -3.356959905772e+01  -1.556953210312e+01   1.774722114179e+01 
1  2.749691789525e+00  -4.720009640610e+01  -6.036271027164e+00 
1  7.478271570995e+00   1.290208173088e+01   1.101973079810e+01 
1 -1.165904798982e+01  -3.975626284673e+00   1.112548117428e+01 
1  2.065660071919e+01   2.267342545400e+01  -4.527676849921e+01 
1  1.233175131031e+00  -5.754620361348e+01   2.578902423883e+01 
1  1.575098575291e+01   1.961403991638e+01  -2.689559091463e+01 
1 -2.915155684457e+01   1.066104580954e+01  -5.642706374477e+00 
8
Step 2200
1 -4.486379612917e+01  -2.053221352339e+01   2.513318403362e+01 
1 -1.674983097349e+01   1.095004914865e+01   5.251458215336e+00 
1  1.707416612880e+01  -2.423046575635e+01   2.405794974039e+01 
1 -5.004526338904e+01   6.681174644699e+01   7.782889160628e-01 
1  2.044871834360e+01  -7.152177470315e+00  -3.471498688788e+01 
1  2.066496328067e+01  -1.252400196220e+01   1.451628056576e+01 
1  5.159114480715e+01   1.167612132185e+01  -8.154988385854e+00 
1 -2.497704607907e+01   4.735829032782e+01   2.263754492255e+01 
8
Step 2300
1 -2.890067801359e+01  -1.499726301468e+01   1.069482501484e+01 
1 -1.365932243709e+01   5.147703743868e+01   1.622128913708e+00 
1  2.833588538659e+01  -4.125967102221e+01   3.651762383275e+01 
1 -4.873047565602e+01   9.227748380470e+01  -4.452541250856e+01 
1  3.681609263472e+00  -2.936813730290e+01  -5.589906812372e+00 
1  2.076444284211e+01   1.964287182072e+01   2.013631463052e+00 
1  4.546417489233e+01  -1.301002913868e+01   1.878083231031e+01 
1 -1.226533068287e+01   5.011460888373e+01   3.721985904933e+01 
8
Step 2400
1  6.325301409499e+00  -7.775146487584e+00  -1.505848257441e+01 
1  7.653183698700e+00   3.636564400486e+01  -1.370272199934e+01 
1  1.952976652271e+01  -2.573291944710e+01   3.983015970141e+01 
1  1.300388055724e+01   3.306834052577e+01  -8.603024427374e+01 
1 -6.090723259833e+00  -1.841830309561e+01   6.624607042819e+00 
1  2.973604082139e+00   2.243116870573e+01  -6.569051867150e+00 
1 -6.761583965010e+00  -2.466298666407e+01   2.324208301525e+01 
1  6.509224778669e-02   2.690710953674e+01   2.216609087375e+01 
8
Step 2500
1  3.611608857349e+01  -2.789787009624e+00  -3.300105962071e+01 
1  1.146460181810e+01  -1.160734416656e+01  -1.110353846263e+01 
1 -8.862015268271e+00   4.118959719794e+00   2.709076922641e+01 
1  7.702814826910e+01  -7.002467733722e+01  -6.164825967659e+01 
1  1.047560990390e+00   1.923797462440e+01  -8.186473338193e+00 
1 -1.043589688348e+01   1.321610398050e+01  -1.557420924515e+01 
1 -5.849884139013e+01  -8.577552330749e+00   3.930076271634e+00 
1  2.247604950237e+00   7.823639918194e+00  -7.950328901949e+00 
8
Step 2600
1  3.998739564937e+01   1.552630976025e+00  -2.814655485593e+01 
1 -8.619312349573e+00  -3.554874003356e+01   1.976852722612e+01 
1 -3.447831482285e+01   1.458231611597e+01  -1.520118226633e+00 
1  8.089284476880e+01  -1.160028060369e+02   2.194452899085e+01 
1  1.196385518432e+01   4.319808462951e+01  -1.492293747489e+01 
1 -6.194496969164e+00   1.160862504450e+01  -2.378298337547e+01 
1 -5.925612383286e+01   1.340432712489e+01  -1.245809141295e+01 
1 -2.761114568608e+00   4.262376660261e+00  -2.590588901963e+01 
8
Step 2700
1  2.990125410525e+01   8.841571850712e+00  -7.769389316726e+00 
1 -2.726854896458e+01  -1.885120394258e+01   5.360701973942e+01 
1 -3.244456833761e+01   6.708332798975e-01  -3.690633761753e+01 
1  2.637754799721e+01  -5.278642650165e+01   8.398389001047e+01 
1  5.295976824793e+00   3.042639763237e+01   8.639644241425e+00 
1  1.067713748890e+01   1.192836074674e+01  -1.849078805608e+01 
1 -9.727741629856e+00   9.495936524784e+00  -9.060732308849e+00 
1 -2.433996745957e-01  -6.658928330380e-01  -2.304602475166e+01 
8
Step 2800
1  3.069424804035e+01   9.841876284715e+00   1.568102134853e+01 
1 -1.548415507251e+01   1.781346842388e+01   3.872147217179e+01 
1 -1.468409565298e+01  -8.520251097814e+00  -5.808261838916e+01 
1 -2.004090205407e+01   5.390051138560e+01   6.946298415248e+01 
1 -2.266871052733e+01  -2.998735494687e+00   4.220053027877e+01 
1  1.639719731965e+01   3.595499487419e+00   1.815718357904e+00 
1  4.000871469431e+01  -1.637351121101e+01  -6.243371399762e-01 
1  1.605665078213e+01  -1.979236396031e+01  -1.224283173282e+01 
8
Step 2900
1  3.218991938861e+01   3.666290127004e+00   3.081742510679e+01 
1  1.871002870456e+01   3.141125528395e+01  -2.484627421596e+01 
1 -6.868589583489e+00   5.688347543888e+00  -4.439118972763e+01 
1 -1.649907904214e+01   9.991544577166e+01   1.316500966896e+01 
1 -4.872003315970e+01  -1.906086461577e+01   4.402924362654e+01 
1  6.414042850518e+00  -7.864663008447e+00   1.803440042152e+01 
1  4.579115919098e+01  -2.691847715065e+01  -5.233324203816e+00 
1  3.294940678968e+01  -4.007626772799e+01  -5.268291822121e+00 
8
Step 3000
1  9.657481876333e+00   2.786627031138e+00   3.265823938704e+01 
1  3.104658942806e+01   8.730877632597e+00  -7.243964578581e+01 
1 -8.919828715852e+00   2.346454754684e+01   1.009887640526e+00 
1  1.259447716908e+01   5.812066127218e+01  -1.185306188138e+01 
1 -3.946091726326e+01  -1.331074702474e+01   1.102312801137e+01 
1 -5.775433213656e+00  -5.675667995228e+00   1.039243764991e+01 
1  1.069937520035e+01   1.574179141599e+00  -1.639317880696e+01 
1  3.175838582114e+01  -4.031758251995e+01  -3.425789558835e-01 
8
Step 3100
1 -3.096970024848e+01   1.454961541000e+01   2.518287849308e+01 
1  6.033141837251e+00  -2.733962084551e+01  -6.365179015061e+01 
1 -7.917502565205e+00   2.158347137677e+01   5.201860438276e+01 
1  1.371231904475e+01  -1.751676160544e+01   1.196888264037e+01 
1  8.239410229819e+00  -6.165373017314e+00  -2.003569234469e+01 
1 -3.989386137647e+00   1.366195143762e+01  -1.024724462243e+01 
1 -2.353097713793e+01   4.663430035692e+01  -1.158013665799e+01 
1  1.081785261921e+01  -2.012068225958e+01   6.448532490728e+00 
8
Step 3200
1 -5.077106624096e+01   2.637044150572e+01   1.627746041533e+01 
1 -2.264524180826e+01  -4.559493591462e+01  -1.744891901023e+01 
1  6.821115349342e+00   8.225375276565e-01   6.693844672912e+01 
1 -2.306489621885e+01  -4.685137272113e+01   3.360339617533e+01 
1  6.466775004705e+01  -1.073620554420e+01  -2.202063333433e+01 
1 -2.284511629889e+00   3.087614747594e+01  -1.839123072387e+01 
1 -3.022464416177e+01   5.857920686954e+01   8.816029774089e+00 
1 -1.296130531776e+01   1.341289745035e+00   1.033318274179e+01 
8
Step 3300
1 -2.618251667451e+01   1.714550702292e+01   5.128328136173e+00 
1 -1.996793228157e+01  -3.087161338376e+01   1.641664861874e+01 
1  2.330918239752e+01  -1.626210803881e+01   3.644843540549e+01 
1 -4.977895116166e+01  -1.222314682161e+01   1.283020969566e+01 
1  8.242533895275e+01  -1.992141242851e+01  -1.004268340324e+01 
1 -2.203905708675e+01   3.040192044982e+01  -1.182587617471e+01 
1 -1.150706711746e+01   1.978747114538e+01   1.875349185604e+01 
1 -2.409466370361e+01   9.318841936676e+00   4.380706200700e+00 
8
Step 3400
1  1.336534195963e+01  -9.406056311826e+00  -1.695587265472e+01 
1  1.195214370979e+01  -5.002770843972e+00   1.773608632604e+01 
1  1.660793059838e+01  -2.877523647483e+00  -1.401662686037e+01 
1 -2.776117535076e+01   3.030950125613e+01  -3.092294828686e+01 
1  3.946036264726e+01  -1.189443667794e+01  -1.385346538132e+01 
1 -4.202659740178e+01   4.645280985974e+00   6.386586437007e+00 
1  1.166940618707e+01  -3.640592855554e+01   4.725871460282e+00 
1 -2.167690094076e+01   7.115571350296e+00  -6.671387481503e+00 
8
Step 3500
1  2.521743361261e+01  -3.384434740470e+01  -3.633467131651e+01 
1  4.074032306391e+01   9.906047180483e+00  -9.214803016105e+00 
1 -1.983850457526e+00   2.387460736558e+01  -3.009106057630e+01 
1  2.299054637485e+01   2.348777277484e+01  -4.916359892099e+01 
1 -2.830903728395e+01   1.353513010633e+01  -2.755007643993e+01 
1 -4.323130558398e+01  -3.077144499029e+01   1.761410750879e+01 
1  2.206345601401e+01  -5.924085953946e+01  -1.214434607759e+01 
1 -1.608341301062e+01   8.615394663819e+00  -7.506073864737e+00 
8
Step 3600
1  5.613778053581e-01  -3.441931697856e+01  -4.811955904262e+01 
1  4.078712304306e+01   1.065499396688e+01  -2.275027640394e+01 
1 -6.772818397616e+00   1.814395494712e+01   5.229786509051e+00 
1  4.704393044419e+01  -2.508933452898e+01  -3.034073808588e+01 
1 -7.049475077723e+01   2.759945027535e+01  -2.594008168609e+01 
1 -1.433582545470e+01  -4.915153045038e+01   1.330739783309e+01 
1  2.094895290209e+01  -3.257051113931e+01  -1.748648471711e+00 
1 -1.267139506996e+01   1.843270549451e+01   5.483650823974e+00 
8
Step 3700
1 -2.572197961855e+01  -6.708007327317e+00  -4.560435183186e+01 
1  9.416182950434e+00   8.054154076522e+00  -8.511978062823e+00 
1  1.126027839625e+01  -3.150433199724e+01   4.457336146769e+01 
1  2.263110387212e+01  -5.728713100111e+01  -5.982631422537e+00 
1 -6.217622578558e+01   1.130408969494e+01  -4.703363424081e+00 
1  2.415468603043e+01  -4.294599273446e+01   7.420276500180e+00 
1  7.536111041028e+00   1.206429532235e+01   2.840876966421e+01 
1 -7.660523684067e+00   2.751010211373e+01   2.043265915622e+01 
8
Step 3800
1 -2.246385571070e+01   2.106232280379e+01  -2.354288898231e+01 
1 -2.676423335375e+01   1.196535537038e+01   1.620218808087e+01 
1  2.356576345586e+01  -7.510231445411e+01   3.618053512354e+01 
1 -1.343166503021e+01  -3.446353656950e+01  -1.341583898831e+00 
1 -2.329352296475e+01  -1.866279794812e+01   1.295413663323e+01 
1  3.298810287233e+01  -2.036121191787e+01   5.750290881753e+00 
1 -1.664415889816e+01   2.880529558805e+01   3.622145405015e+01 
1  1.743210682084e+00   2.535603067509e+01   2.256904285694e+01 
8
Step 3900
1  9.406566448169e-01   1.919085684404e+01   1.173739184207e+01 
1 -4.033089559647e+01   1.698329245420e+01   3.049953871393e+01 
1  5.147044499632e+00  -5.726853071869e+01  -1.028639157535e+01 
1 -1.974669829059e+01   2.068177771333e+01  -1.422732444791e+00 
1  8.845252485861e+00  -2.862846151897e+01   1.234383083160e+01 
1  8.710859424568e+00   5.632835515363e+00  -4.079852232549e+00 
1 -4.056724768804e+01   7.570168731883e+00   9.749476030118e-01 
1  1.245797847392e+01   9.606336165725e+00   7.751482658574e+00 
8
Step 4000
1  1.175733662565e+01  -6.348734401053e+00   4.452394366701e+01 
1 -2.687705540041e+01   7.941224552452e+00   3.130538281819e+01 
1 -3.088473911747e+01   1.469192800430e+01  -3.902621213606e+01 
1  3.959126974330e+00   5.607123912984e+01   1.509825586534e+01 
1  2.037896963445e+01  -6.428253445569e+00   9.040160129743e+00 
1 -1.065596578707e+01   2.822715890062e+01  -2.868176398301e+01 
1 -3.829161340186e+01  -2.653779239943e+01  -4.511184701395e+01 
1  1.888468130941e+01  -1.069596958239e+01  -1.180074229132e+01 
8
Step 4100
1 -2.578554142657e+00  -2.380900234415e+01   6.306187996080e+01 
1 -7.341504834967e+00  -1.443651131705e+01   2.254987206188e+01 
1 -3.959467003750e+01   7.309458081266e+01  -2.528905363502e+01 
1  2.994971742062e+01   4.313122167146e+01   3.493557392102e+01 
1  2.247340013026e+01   2.530207349917e+01   2.385899274717e+01 
1  6.861940039277e+00   4.150267870540e+01  -4.629733832249e+01 
1 -1.838688772345e+00  -3.040337460695e+01  -5.064043305521e+01 
1  1.911338301219e+01  -2.197346152914e+01  -2.318273690904e+01 
8
Step 4200
1 -1.693219087133e+01  -9.319518269988e+00   5.266307136741e+01 
1  1.694457854326e+00  -2.957980054285e+01   7.111363181254e+00 
1 -1.358778038518e+00   6.793575188084e+01   1.661410743494e+00 
1  2.929515356955e+01  -9.194835148308e-01   2.975312592099e+01 
1  2.586812983193e+01   3.591828639773e+01   4.255192110490e+01 
1  4.026372746181e+01   4.083605230259e+01  -2.850853756857e+01 
1  4.106503067211e+01   1.105922083807e+01  -7.924517674511e+00 
1  1.456166790307e+01  -1.860659242371e+01  -2.323730466969e+01 
8
Step 4300
1 -3.107291212749e+00   2.659743094080e+01   1.191689189120e+01 
1  5.179420608544e+00  -2.422076637587e+01  -4.972698534355e+00 
1  4.396257888775e+01   1.864517315882e+01   2.132760893856e-01 
1  6.455321599244e-01  -3.656985568942e+01  -2.479121888952e-01 
1  2.414303759110e+01   2.017600587071e+01   2.807543896197e+01 
1  3.719637499916e+01   2.766906846409e+01   1.792038116034e+01 
1  5.040396180545e+01   6.569721876420e+01   3.291899900034e+01 
1  5.651075136848e+00  -8.911618854175e+00  -1.420728566955e+01 
8
Step 4400
1  2.962405544792e+01   4.546294077301e+01  -3.338759055626e+01 
1  7.038545365656e+00  -1.327374133426e+00  -9.071587874477e+00 
1  4.564867032570e+01  -2.436594478300e+01  -2.254147313566e+01 
1 -2.336457485354e+01  -3.624574844634e+01  -2.009609389913e+01 
1  8.677006010907e+00  -3.376244745575e+00  -2.448180341799e+01 
1 -1.603818618170e+01   1.002111977804e+01   4.880868244034e+01 
1  1.593150187309e+01   7.975799271668e+01   2.667759626863e+01 
1 -6.030302175336e+00  -8.084271069071e+00   8.121830117606e-01 
8
Step 4500
1  4.566831171047e+01   2.263930894589e+01  -5.012339205683e+01 
1  6.631058841869e+00   2.301773364654e+01  -6.914881873475e+00 
1  7.982157522282e+00  -4.239136758046e+01  -2.645481083537e+01 
1 -2.034627821641e+01  -3.371247433163e+00  -6.127082389377e+00 
1 -1.149811205241e+01  -1.817618371803e+01  -6.830050189963e+01 
1 -6.784784125675e+01  -4.027633264385e+00   3.337676646147e+01 
1 -2.744530408094e+01   3.311744590616e+01  -9.260778010265e+00 
1 -1.550885200734e+01  -2.039842662881e+01   1.533052301821e+01 
8
Step 4600
1  2.810474992192e+01  -2.526779428909e+01  -2.982450926584e+01 
1  9.860230281236e+00   2.789939477504e+01  -9.633265692496e+00 
1 -2.814931064618e+01  -3.769779090009e+01   7.321997381220e+00 
1 -4.526878291877e+00   3.364444845190e+01   1.850506934353e+01 
1 -1.766428369257e+01  -2.296107147827e+01  -5.667572332432e+01 
1 -5.652954655602e+01  -1.656196270436e+01  -6.249566746947e+00 
1 -3.638449213447e+01  -3.650454375720e+01  -2.136353628587e+01 
1 -1.568775650683e+01  -3.044277152178e+01   1.979828316791e+01 
8
Step 4700
1 -9.037606271272e+00  -5.412312840633e+01   9.755258577460e+00 
1  1.776585887353e+01   1.876757858093e+01  -2.936901702990e+01 
1 -3.061397943879e+01  -2.310525647909e+01   4.328048008942e+01 
1 -1.198011474837e+00   4.654475109363e+01   1.342836210922e+01 
1 -4.220559028605e+00  -1.948846747811e+01   3.947418626774e+00 
1  1.042607034328e+01  -3.091634685403e+01  -2.216860662852e+01 
1 -7.301410725533e+00  -7.260004113372e+01   6.315572826886e+00 
1 -7.540033805603e+00  -1.753392246714e+01   1.086648553790e+01 
8
Step 4800
1 -3.910569378476e+01  -3.826314521865e+01   3.649990910265e+01 
1  2.345922059331e+01   7.793631450746e+00  -5.177611771950e+01 
1 -7.852115880190e+00  -2.336738067612e+00   3.777155649297e+01 
1 -1.969865860131e+01   3.131236203136e+01  -2.771200943115e+01 
1  1.450636800681e+01  -9.043460970545e+00   5.553167938505e+01 
1  6.102861409898e+01  -3.767704242645e+01  -1.814124948547e-01 
1  2.205212740425e+01  -5.480796925144e+01   3.738099807403e+01 
1 -2.753760146241e+00   1.835527426151e+01  -2.764666726128e+00 
8
Step 4900
1 -4.515008579219e+01   7.328367084409e+00   2.789700581599e+01 
1  1.306686906083e+01  -3.734795532429e-01  -4.393578685536e+01 
1  1.500038342512e+01   2.101865357262e+01  -1.602979788589e+00 
1 -4.900013354638e+01   4.493110453727e-01  -7.179734143481e+01 
1  2.675947228508e+01  -1.421502081383e-01   6.224116933941e+01 
1  4.163108946528e+01  -2.743544679157e+01   2.804938151187e+01 
1  1.963308971579e+01  -1.440527701589e+01   3.012544083482e+01 
1 -9.899937504912e+00   5.131778271248e+01  -7.666897182101e+00 
8
Step 5000
1 -3.291285752168e+01   3.762456797969e+01  -5.868495746194e+00 
1 -1.298328285494e+01  -7.598273509609e+00   5.972367686768e+00 
1  2.085447800789e+01   3.111443195368e+01  -2.448293651494e+01 
1 -4.995983352921e+01  -3.901079438263e+01  -7.348151955779e+01 
1  1.859646514046e+01   4.688940743400e+00   2.897193517027e+01 
1 -2.088533342959e+01  -2.722532941232e+00   2.457129241695e+01 
1 -5.281838717782e+00   9.642212226187e+00  -6.156238987677e+00 
1 -1.410874222617e+01   5.214341994762e+01  -9.984511229610e-01 
8
Step 5100
1 -1.136713044442e+01   2.677810621672e+01  -3.255699992283e+01 
1 -3.866145159524e+01  -1.493404760947e+01   6.666773357618e+01 
1  1.580868718829e+01   1.061461698560e+01  -7.326482904425e+00 
1 -1.828787281041e+00  -6.559781780663e+01  -2.981693255310e+01 
1 -5.905625289050e+00   1.972213965306e+00  -1.485878537704e+01 
1 -5.568494390315e+01   1.560439967523e+01  -2.132501035145e+00 
1 -1.795624461449e+01   1.238677356099e+01  -2.578276526519e+01 
1 -5.409316888680e+00   2.757652777585e+01   5.310090693133e+00 
8
Step 5200
1  1.441551713004e+01  -6.017213676686e+00  -3.450997074681e+01 
1 -4.290346148454e+01  -1.623836227026e+01   9.433580599650e+01 
1  1.409952523425e+01  -2.752694030080e+01   2.194976896927e+01 
1  5.471221127305e+01  -4.709063732097e+01   1.315152538664e+01 
1 -3.447575324233e+01  -5.691927700737e+00  -3.550659296236e+01 
1 -2.776746800728e+01   1.603562843056e+01  -2.280719281059e+01 
1 -5.368721837150e+00   1.509727064293e+01  -1.181521895396e+01 
1  1.486095370091e+01   1.575923421590e+00   3.164118390163e+00 
8
Step 5300
1  2.855262251502e+01  -2.307202457782e+01  -2.311270386128e+01 
1 -1.698528793550e+01  -8.911841770026e+00   7.255007391967e+01 
1  1.388886959879e+01  -3.865597137264e+01   2.156128308648e+01 
1  6.420704495416e+01   1.239433836600e+01   2.343278784678e+01 
1 -4.785071660065e+01  -1.154175341281e+00  -2.509073101680e+01 
1  2.871067879055e+01   6.955921624496e+00  -2.097217151279e+01 
1  1.042758124262e+01   2.579681268018e+01   4.199399816879e+00 
1  2.953693316299e+01  -1.221522813459e+01  -3.182901155491e+00 
8
Step 5400
1  2.697315016082e+01  -9.726115334531e+00  -1.081310082886e+01 
1  2.087790477267e+01  -1.400450754736e+00   2.025214001677e+01 
1  7.917961327134e+00   4.197380949229e-01  -1.339372195555e+01 
1  1.639084170992e+01   7.185491972501e+01   2.007112779524e+01 
1 -3.357898150223e+01   1.537733575688e+01  -6.311355510481e+00 
1  5.385932566595e+01   7.711776841958e+00  -7.896338718102e+00 
1  5.606600957126e+00   2.647923607643e+01  -8.852713258127e+00 
1  2.402251474530e+01  -2.481973414028e+01  -2.773170831146e+00 
8
Step 5500
1  1.642743364124e+01   1.507881218936e+01   5.193739472740e+00 
1  4.339790156749e+01  -1.552637799084e+00  -3.401550598404e+01 
1 -1.109852031724e+00   5.016489712090e+01  -4.468323813710e+01 
1 -4.265989670340e+01   8.104274396930e+01   3.023483767989e+01 
1  8.428992198544e+00   2.238131472286e+01   2.720659731779e+00 
1  3.281918253669e+01   2.114363877523e+01  -1.004364353909e+00 
1 -1.295091419111e+01   2.954752785679e+00  -3.455881829632e+01 
1  1.217434390297e-01  -4.263376002538e+01   4.473584132210e+00 
8
Step 5600
1  5.978350317036e+00   2.330809454882e+01   1.985059081711e+01 
1  4.204674745512e+01  -1.115018379374e+01  -6.950608018684e+01 
1 -3.740166874577e+00   4.838693487913e+01  -3.649501203040e+01 