8
Step 0
1  2.130326814812e+00   3.841428738278e+01  -3.900125211552e+01 
1  3.567597752465e+00  -3.504277063756e+01   3.861701022475e+01 
1  6.258847992801e+01  -7.076539324116e+01   6.450599359103e+01 
1  5.978855273526e+01  -4.628740992298e+01  -3.331699604665e+01 
1  5.663920321690e+01  -5.214564811192e+01   5.649937483509e+01 
1 -4.885508989697e+01   7.742773658779e+01   3.518899981800e+01 
1  3.981944038262e+01  -7.472662646084e+01  -5.860625198879e+01 
1 -7.332626035848e+01  -1.421247514719e+01  -1.259120980933e+01 
8
Step 1000
1  1.623519874100e+01  -2.593354940064e+01  -3.383970738227e+00 
1  4.880272594693e+01  -3.020045588550e+01  -6.849807041706e+01 
1 -7.344965976345e+01  -8.441078656710e+01  -6.465165827345e+01 
1  5.569714058293e+01   5.662809434341e+00   6.998990916581e+01 
1  5.830486807115e+01  -4.478677142597e+01  -4.667013540571e+01 
1  3.898560044804e+01   4.107123995395e+01   3.131292466872e+01 
1 -9.790445419743e+00  -9.725919478354e+00   6.614125048020e+00 
1 -1.786441623453e+00  -1.463333279298e+01  -7.387128349837e+00 
8
Step 2000
1  1.616676185967e+01  -5.424256666791e+01  -5.340575698220e+01 
1 -5.834405573258e+00  -2.555372011266e+01   7.640824562824e+01 
1  7.321455641080e+01   6.972243775953e+01  -2.767031302139e+01 
1 -1.683662091134e+01  -2.744062273302e+01  -6.866787367141e+01 
1 -1.453359232884e+01   3.734636696425e+01  -4.527904122538e+01 
1 -6.240152839317e+01  -8.613548498480e+01   6.318240772304e+01 
1  7.389888226271e+01  -3.377346080783e+01   1.618526900437e+01 
1  5.800924195357e+01  -1.997575814282e+01   3.730893691909e+01 
8
Step 3000
1  5.587093496063e+01  -6.594312327354e+01   5.373151865834e+01 
1  4.085207945297e+01  -4.763879437985e-01  -8.887347366203e+01 
1 -2.013034530618e+01  -3.318305722453e+01  -9.141708947327e+00 
1  4.520397217958e+01   1.545042141761e+01   3.230328291083e+01 
1  9.022934038846e+01   3.320142009421e+01  -2.275944376190e+01 
1  1.768168980273e+01   1.925734071774e+00  -1.087182006152e+01 
1 -4.499552101601e+01   2.658888989283e+01  -2.353255293383e+01 
1  3.843711535187e+01  -5.825097079956e+01  -6.651372012161e+01 
8
Step 4000
1 -2.198379103819e+01   2.496744769042e+01  -3.104570361402e+01 
1  3.683365454009e+01  -1.015713059379e+02  -1.807373194993e+01 
1  1.163302067654e+01   6.152164344381e+01   1.306770915616e+01 
1  6.122151089865e+00  -8.691286791040e+01  -1.612952496109e+01 
1 -2.426649004934e+01   1.981978488712e+01  -1.824239388051e+01 
1 -1.878411713928e+01  -9.430276856871e+01   5.272231363302e+01 
1 -3.470881594212e+01   2.581121641824e+00  -1.731352710193e+01 
1 -3.623607046217e+01  -4.330050626124e+01  -2.148954602680e+01 
8
Step 5000
1  3.765207202097e+01  -1.358127698629e+01  -4.762390761054e+01 
1  3.235761127486e+01  -1.720415154755e+01   2.141815315822e-02 
1 -1.292774312591e+01  -3.481291834615e+01   1.086218791476e+01 
1  5.668186694125e+01  -2.761265581876e+01  -7.104234102738e+01 
1  8.913427700275e+00   2.799318820366e+01   4.141624604627e+01 
1 -5.647499000856e+00   1.543471076423e+01  -6.181831504977e+01 
1 -6.780674204788e+01  -6.928090647730e-01  -2.771823680666e+00 
1  2.371796764803e+01   1.432347932568e+00  -1.406465785917e+01 
8
Step 6000
1  2.614002793345e+01  -8.851636506081e+00   4.982302062843e+01 
1  3.492160329841e+01   4.974672195760e+01  -1.149169238686e+02 
1 -1.686737941580e+01   3.563228323042e+01  -1.568776704307e+00 
1  2.550275746785e+01   1.152844870554e+02   9.813436975757e+00 
1 -7.923818660250e+01  -5.556295373001e+01  -2.029696742907e+01 
1  2.613102655762e+01  -1.778771759385e+01   3.410193029094e+01 
1  1.574768044686e+01  -1.733353797359e+01  -1.058180718581e+01 
1  1.051245412651e+01  -4.337137928365e+01   1.814331286083e+01 
8
Step 7000
1  2.811384161568e+01  -3.963250266772e+01  -5.316551311788e+01 
1  2.548993121857e+01  -2.544438033949e+01  -3.077456433855e+01 
1  4.557259525239e-01   4.476955700116e+01  -1.303713114589e+01 
1 -2.482846666470e+01  -2.196109518535e+01  -9.114915142655e+01 
1 -6.712389051182e+00   6.055314681175e+01   3.823040323042e+01 
1 -2.740416720132e+01  -2.844643482651e+01   2.401649311283e+01 
1  3.447631087648e+01  -6.954883829770e+01  -3.136304161293e+01 
1 -1.809175821499e+01   1.502341900978e+01  -3.135124368378e+01 
8
Step 8000
1  5.341250013061e+01  -4.928563140547e+01   2.985449040279e+01 
1 -2.459616858973e+01   6.991142409778e+01   6.974922238113e+01 
1  5.122691193171e+00   1.127837954625e+01  -7.081382500798e+01 
1 -4.783663884241e+01   8.309820952710e+01   2.690042622802e+01 
1  6.235873164734e+01  -4.839390075538e+01  -4.086860369522e+01 
1 -7.487331509254e+01   6.368931853302e+01  -4.267973340647e+01 
1 -6.290551402645e+01  -3.930785950297e+01  -5.672470383736e+01 
1  4.002066836981e+01  -7.539365927840e+00   2.921531883028e+01 
8
Step 9000
1  4.425599267355e+01   2.823653913282e+01  -3.184096589335e+01 
1 -8.453183427954e+00  -2.024156541486e+01  -2.508136479644e+01 
1 -9.495095884065e+00   1.943697396308e+01  -5.200951178083e+01 
1 -1.854056660883e+01  -5.807539901941e+01  -2.915487139007e+01 
1  2.054430370309e+00  -5.031111954255e+00   6.229955184452e+00 
1 -5.820875468453e+01  -3.233407707298e+00   5.784395769452e+01 
1 -2.679511782559e+01   4.812382418532e+01  -6.088788265371e+01 
1 -3.090176210614e+01   5.462554375179e+00  -1.164496804973e+01 
8
Step 10000
1 -6.894659413928e+01   4.910590874564e+01   1.747700521633e+01 
1 -6.913404346642e+01   5.437114199065e+01  -4.185066544178e+01 
1  4.225859617118e+01  -6.642590039829e+00  -9.390430831298e+00 
1 -3.422443289852e+01   3.757653405729e+01  -9.154021414940e+01 
1  2.107331704241e+01  -3.185429895267e+01  -3.308456054366e+00 
1 -1.375556845963e+01  -1.120834873483e+01   1.657622217280e+01 
1  2.176752098793e+00   1.884021973622e+01   4.462395992400e+01 
1 -3.953453654329e+01   3.245706402203e+01   3.622785401906e+01 
8
Step 11000
1  4.653435245619e+01   2.292717758227e+01  -4.078158572343e+01 
1  1.298270374686e+01   4.843509457772e+01   3.975534085587e+01 
1  1.251409823536e+01   9.687262155089e+00  -7.854052957037e+01 
1 -9.672452844050e+00   7.974208666768e+01   1.304844338200e+01 
1 -7.046805637277e+01   1.358086054240e+01  -6.748625540269e+00 
1  5.005828480332e+01   5.234539721418e+01   1.122599775851e+01 
1 -1.258954163491e+01   1.098154246173e+01  -6.145205435992e+01 
1  3.239815786128e-01  -3.689728474392e+01   2.757899983115e+01 
8
Step 12000
1 -3.863432274275e+01   3.050174148238e+01   4.863398258369e+01 
1 -1.920699747906e+01   4.515580947968e+01  -7.836936618638e+00 
1 -5.155626930303e+01   4.857113594092e+01  -7.313836498166e+00 
1 -1.431828939161e+01  -4.435466885851e+00  -7.818323639499e+01 
1 -9.789332546800e+00   2.082324022857e+01   2.642527193244e+01 
1 -9.768523091820e+00  -6.541280542384e+01  -5.605614110088e+01 
1 -2.130148883768e+01   2.859478353289e+01   3.172936286906e+01 
1 -5.312805995967e+00   4.614811088868e+01   1.319782989108e+01 
8
Step 13000
1  6.060234869520e+00  -3.264126150200e+00   6.238965128182e+00 
1 -4.680639717559e+01  -1.192184130816e+01  -1.360996083007e+01 
1  2.999888825080e+01  -1.259804110411e+01   8.480071537674e+00 
1 -8.601552558500e+01  -1.132370482177e+00  -6.158362451385e+01 
1 -5.474207443773e+01  -1.008354024191e+01  -3.732032586615e+01 
1 -2.296277410404e+01   1.190845091409e+01   4.339991732110e+00 
1  4.466448371170e+01   3.771862183117e+01   5.105425763632e+00 
1 -6.540875967781e+01   5.081642990513e+01   2.272039624166e+01 
8
Step 14000
1 -6.658129832385e+01   5.285244193463e+01   1.683647486477e+01 
1 -1.693813166045e+01   8.432605480792e+01  -1.573936668243e+01 
1 -7.951694123737e+01   7.829325373545e+00  -2.858693052307e+01 
1  3.821420218179e+01  -7.975714119465e+01   6.569030252123e+01 
1  3.055885370171e+01   8.438188713595e+01   5.535983790043e+01 
1 -1.429796647886e+01   6.218655199707e+01  -1.526409352461e+01 
1 -6.244918358802e+01   7.003755278048e+01   2.446959668220e+01 
1  5.456959067149e+01   2.764788983657e+01  -4.813623552815e+01 
8
Step 15000
1 -1.310837836308e+01   4.816301944631e+01  -2.619728790117e+01 
1 -6.238834684409e+01   1.479359666027e+01  -5.644470882829e+01 
1  1.301856759167e+01   2.419734131892e+01   3.766253381848e+01 
1 -7.530114249633e+01   6.397503374174e+00  -5.963268739917e+01 
1 -1.949039039390e+01   1.772952130416e+01   4.896784183030e+00 
1 -4.503320117193e+01  -9.890965799264e+00   1.019686559991e+00 
1  1.335829275853e+01   2.347421503739e+01   3.760452355830e+01 
1  4.486660257521e+01  -2.328394841672e+01   5.824774220315e+01 
8
Step 16000
1 -3.254573188001e+01   2.769815489408e+01   3.038435741932e+01 
1 -5.968134428553e+01   7.910304683527e+01   9.358179329653e+01 
1 -1.556597707032e+01   4.911732668022e+00  -1.999262008648e+01 
1 -3.725053153447e-01   3.691706032051e+01   3.959908242695e+00 
1 -4.612478091224e+01   2.546511401650e+00   7.435235713646e+00 
1  7.826081919016e+01   2.174233683243e+00  -6.366268762012e+00 
1  2.289945346089e+01   5.377365540596e+01  -4.785043584200e+01 
1  1.019271547011e+00   4.946751732143e+01  -3.963749228305e+00 
8
Step 17000
1  4.319079693198e+01  -6.071769434303e+01  -2.989398034982e+01 
1 -2.973957097072e+00  -9.743690051334e+00   4.351239193433e+00 
1 -4.476212816900e+01   3.628155968038e+01   2.388121580779e+01 
1 -9.945049254962e+01   7.401088534338e+01   4.678682351311e+01 
1 -2.251484797258e+01  -1.541219128333e+01   2.387551472153e+01 
1 -4.681800147265e+01   1.758383681102e+01  -1.083920204856e+01 
1 -2.099146870240e+01  -1.660862932084e+00   2.378074319471e+00 
1  7.735856200279e+01   2.833265230525e+01  -9.536221813511e+00 
8
Step 18000
1 -1.196581372941e+02   3.892548275935e+01   7.746546257766e+01 
1 -4.007318393662e+01   1.812225424107e+01  -6.088824563639e+01 
1  2.260267301259e+01  -1.158504727380e+02  -2.572339955418e+01 
1 -4.051505388242e+00   1.356102397349e+01  -2.426222236279e+01 
1  1.150301408851e+01  -3.641991544672e+01   7.160271024871e+01 
1 -3.607865051888e+01   1.051568191649e+02  -6.343430935247e-01 
1  3.102456008971e+01   1.419322492565e+01  -5.080454555613e+01 
1 -5.110011503514e+01   6.423959987531e+01   9.305002112093e+01 
8
Step 19000
1  3.455910170256e+01  -2.565500075747e+01  -1.612306189101e+01 
1 -3.886482296230e+01   2.251078563689e+01   6.647395846880e+01 
1 -2.227310372016e+01   6.424553704552e+01   2.277501133404e+01 
1 -5.915115205789e+01   1.070827042573e+01   1.618845600342e+01 
1  2.845947828161e+01  -1.444125966665e+01   3.668460982062e+01 
1 -2.314731082187e+01   4.456324640919e+01  -9.774484306018e+00 
1 -5.381638558801e+00   1.996098718820e+01   2.561854951611e+01 
1  7.327466644855e+01  -5.836987266789e+00  -1.814277771659e+01 
8
Step 20000
1 -2.681941573336e+00   1.866772973012e+01   7.237479273048e+01 
1 -2.865693896405e+01   7.539587860237e+01  -4.927380435618e+01 
1  3.176506966819e+01  -3.761795990547e+01   3.217415860410e+01 
1 -1.570046601266e+01   2.479484105297e+01   5.682691790429e+01 
1  3.908458884427e+01   3.583287327390e+01  -4.301251523202e+00 
1 -7.184244044138e+00  -8.405394843253e-01   2.573753891896e+01 
1  6.490158458077e+01  -8.775524126943e+00  -1.732393238319e+01 
1 -3.143416695161e+01   3.833951024115e+01  -2.419926598039e+01 
8
Step 21000
1 -6.512005496860e+00  -4.553821387039e+01  -1.648387887668e+00 
1 -1.147593999968e+01  -6.462198325988e+01   3.140698768997e+01 
1 -2.845266339729e+01   6.058263465193e+01   4.348097256216e+00 
1 -5.416567090472e+01  -6.223645643025e+01  -2.550126227406e+01 
1 -7.686921686262e+01   1.664833584837e+01   4.526877263365e+01 
1  4.903832873033e+01   1.573314804262e+01  -6.338651544903e+01 
1 -7.907291901602e+00   3.831699001075e+01   3.089218926361e+01 
1  5.599877441436e+01  -8.844208750016e+01   7.676358423538e+01 
8
Step 22000
1  2.206235411198e+01   4.464941245234e+00   4.912718590698e+01 
1 -5.325131616805e+00  -4.686276437433e+01   2.950012701768e+01 
1 -1.303309796869e+00  -3.205799747388e+01   1.590844044619e+01 
1 -5.461435528167e+00   2.143890786789e+01   4.198101275948e+01 
1  7.779515187341e+01   3.609249997921e+00   1.215858088095e+01 
1  2.674155659520e+01  -5.354663363500e+01  -1.258873939629e+01 
1 -4.747968407624e+01   1.152194646112e+02  -2.272358411211e+01 
1 -6.492477281858e+00   4.765606205935e+01  -1.790900384733e+01 
8
Step 23000
1 -8.405156129862e+01  -1.101005402961e+01  -1.749117830943e+00 
1  4.703574580518e+01  -4.584617641918e+01  -1.757890745365e+01 
1  5.873358234520e+01  -1.041287531847e+01   4.521768750818e+01 
1  4.696996162014e+01  -3.166090466508e+01  -1.042280178954e+01 
1 -9.427871631449e+01  -1.827648230954e+01   2.171562428818e+01 
1  4.149279673191e+01  -2.435563442298e+01   2.835129365835e+01 
1  3.313810580793e+00  -4.845455082083e+00   3.992872237451e+01 
1 -5.800977465372e+01   1.079278100171e+01   2.836011281723e+01 
8
Step 24000
1  6.333268617617e+01   6.502174036404e+01   5.472718184631e+01 
1 -3.868420452112e+01   1.226928694712e+01   4.547974231504e+01 
1 -2.827628905767e+01  -2.815496582958e+01  -1.558433036033e+01 
1  2.058297370469e+01   1.174012213172e+01  -1.500205735804e+01 
1  8.359482853978e+01  -3.824368745597e+01   7.743628774760e+01 
1  4.908199806217e+01   1.716384356271e+01  -1.229934863037e+02 
1 -7.178364252074e+01  -1.018290564395e+01  -2.133246161170e+01 
1  7.193192090690e+01  -4.925571915835e+01   5.390057526306e+01 
8
Step 25000
1  4.677342201523e+00  -9.360442865158e+01  -6.548650734345e+00 
1  6.783672892559e+01   2.594665700441e+00  -1.633520859953e+01 
1 -1.717256722308e+01   1.492159787997e+01   7.848634287923e+01 
1 -4.376666753393e+01  -8.483435936337e+00   2.670479133966e+01 
1  1.906214023343e+01  -2.500440345634e+01  -2.518520355504e+01 
1  2.646132405480e+01   2.412001543996e+01   3.406539592998e+01 
1  1.026192533407e+02  -5.953448265415e+01   2.105419610735e+01 
1 -1.426381100110e+01   2.610245151576e+01  -5.328428745947e-01 
8
Step 26000
1 -7.702495664241e+00   2.621089165619e+01  -1.195691932157e+01 
1 -4.565679829793e+00  -7.201358014084e+01   2.792709227295e+01 
1  6.390421495719e+01  -6.384815464785e+01  -1.532697036512e+01 
1 -6.586644202729e+00  -1.226225653542e+01  -3.814237223305e+01 
1  3.756836126436e+01  -6.068285177419e+01   3.726641455083e+01 
1  9.662441838037e+00   2.571419189959e+01  -7.793617714416e+01 
1 -2.642588255862e+01  -3.175160063347e+01   5.810633019972e+01 
1 -1.253590072653e+01  -3.245065238201e+01   8.020027236900e+00 
8
Step 27000
1  4.053351495674e+00  -5.356562837483e+01   3.094423187423e+01 
1 -9.112333698593e+00  -1.245787699647e+01   1.001689522462e+01 
1  6.440563559114e+01  -3.432672125626e+01   3.316980857532e+01 
1 -4.644099436245e+01  -9.846511754165e+00   3.956324314650e+01 
1  6.594915897020e+01  -7.553454613009e+01  -2.362189556339e+00 
1 -5.349070687223e+01  -4.916510388323e+01  -9.355962076324e+00 
1  2.156762346386e+01  -1.467628525393e+01  -4.024312673259e+01 
1 -1.839048572591e+00   5.436313907895e+01   3.157367723569e+01 
8
Step 28000
1  5.762538153320e+01   7.091180004894e+01  -2.912555414373e+01 
1  3.616031048790e+01  -1.028442743448e+01   1.263309206743e+01 
1  3.154528192928e+01  -1.093098661042e+01   5.916910339830e+00 
1  7.868694512729e+01  -1.027816178483e+01   6.222811756366e+01 
1 -1.594978476230e+01  -1.406773584051e+01  -1.997309293544e+01 
1  2.940813435930e+00   6.759992454041e+00  -4.646499577643e+01 
1 -3.872042914108e+00  -1.818820004260e+01  -9.430871744349e+00 
1  4.953709242335e+01  -8.294358899587e+01   4.628462399305e+00 
8
Step 29000
1 -5.295606685891e+01  -3.780464689021e+01  -1.641292946709e+01 
1 -9.585073381722e-01  -6.060494529856e+01  -7.049722691764e+01 
1  3.552987889786e+00  -3.031106234946e+01   2.635089104854e+00 
1  3.187889320149e+01   1.258328626907e+00   1.334719273588e+01 
1 -3.272585661412e+01  -3.293495650571e+01   7.792603884311e+00 
1  7.404530251371e+01  -1.152545540451e+02   2.815533168831e+01 
1  1.593172430065e+01   3.875795981112e+01   1.772997436405e+01 
1  3.287913738231e+01  -7.446160582309e+00   3.943624178462e+01 
8
Step 30000
1  5.161578618212e+01  -6.414274260589e+01   3.428045291774e+01 
1  1.990770537904e+01   3.244284372608e+01  -2.621311626322e+01 
1  1.875179725700e+01   5.371472272335e+01   4.640363149393e+01 
1  7.380476244854e+01  -6.893579936798e+01   3.354445649107e+00 
1 -2.076025628971e+00   2.422090959251e+00  -1.732594250101e+01 
1  2.988825522833e+01   6.857889979188e+00  -5.029118888967e+00 
1  6.651348340633e+00  -3.140476293666e+01  -6.695265117401e+01 
1 -9.646587277279e-02  -7.966267250594e+01  -6.271253464972e+01 
8
Step 31000
1 -1.584908572188e+01   4.217496662391e+00  -3.275564477786e+01 
1  7.645766683587e+01  -8.328024831800e+01  -2.045866012244e+01 
1 -4.780656953009e+01  -5.995907315107e+01  -1.587527527983e+01 
1  2.205566364506e+01   1.328694969058e+01  -9.383029252613e+00 
1  2.230496184014e+01   3.560099272891e+01   1.061445062115e+02 
1 -2.097873849385e+00  -1.817669132908e+01  -4.856026939542e+01 
1 -5.425618025751e+01  -5.547950619449e+00   1.053411366296e+01 
1  3.211853402198e+00  -8.012786597039e+01   1.468408571051e+01 
8
Step 32000
1 -2.666838139234e+01   2.516917410442e+01   8.179332161329e+00 
1  2.849626190249e+01   1.525410712455e+01  -3.463298306449e+01 
1  8.678915742094e+01   1.898438110511e+01   4.909807475525e+01 
1  6.852472605530e+00  -3.593846570785e+01  -2.861607324766e+00 
1 -7.948388018765e+01  -5.019939326571e+01  -9.963961059909e+01 
1  2.493932395429e+00   3.407736813452e+00  -1.090885559953e+01 
1  5.302750903640e+01  -6.481725995008e+01   2.074170758836e+01 
1  5.139194906346e+00  -7.206891611531e+01  -5.578000538841e+01 
8
Step 33000
1  9.489841283787e+01   1.472555261658e+00  -2.531809438005e+01 
1 -7.214318362265e+01   1.471993129185e+01  -5.233926381907e+01 
1 -3.391941040688e+01   8.395696807548e+00   3.994057185333e+01 
1  4.371873377381e+01   3.390147024726e+01   2.084339292380e+01 
1  1.099571481401e+02  -5.546052995393e+01   1.235007402257e+02 
1  2.861499902617e+01  -3.601731201044e+01  -5.814151111769e+01 
1 -3.917260766810e+01   2.762279558795e+01   8.317435331822e+00 
1  1.666503699404e+01   1.816832476522e+01  -6.814577717915e+01 
8
Step 34000
1 -3.159060123020e+01  -2.811080690014e+01  -8.471449895131e+01 
1  1.152851202640e+01  -5.486190739240e+01  -6.567314877999e+00 
1  6.479180663906e+01   5.141949296694e+00  -5.186975084390e+01 
1  7.082080795730e+01  -1.694466626626e+01   1.026801446656e+01 
1 -6.644330061251e+00   5.013994364799e+01  -3.774969125113e+01 
1 -1.995769071383e+01  -9.241166042538e+00  -1.788007387133e+01 
1 -2.053956626171e+00  -4.402012433180e+01  -2.020351368846e-02 
1 -1.054751693004e+01  -3.774520548359e+01   1.550650666473e+01 
8
Step 35000
1  9.884734841753e-01  -3.244569444460e+01   2.653887594544e+01 
1  6.529517023431e+00  -3.556732805799e+01  -1.338598348645e+01 
1 -8.426330774063e+01  -1.480879691828e+01  -6.195596928489e+00 
1 -4.466492352122e+01   3.333766960934e+01   2.256734091044e+00 
1  5.273550358919e+01   4.674827706356e+01  -3.184556890133e+01 
1  3.430012093232e+01   3.819051816141e+01  -2.262258644028e+01 
1 -3.141333664455e+01  -3.874667236031e+01   4.851267954293e+00 
1 -2.169020936249e+01  -7.686157365310e+01  -1.822885436861e+01 
8
Step 36000
1  3.198149730358e+01   1.308353087699e+01  -2.707729008389e+01 
1  3.681521353504e+01  -1.216506183449e+01   6.507241277223e+00 
1  1.698428155278e+01   9.892253694460e+01   5.166229309119e+01 
1  2.133749700259e+01   1.631593090404e+01  -1.828875315710e+01 
1 -3.691824942144e+00  -1.923973116589e-01  -3.661251664990e+01 
1 -1.537635548163e+01  -8.121592495210e+01  -4.709897334765e+00 
1  4.465931464632e+01  -1.118406704665e+01  -5.029386910108e+01 
1 -8.554759217405e+01   1.430584954165e+01  -5.091831472503e+01 
8
Step 37000
1  1.087203993306e+00   4.970590266564e+01  -5.957403020405e+01 
1 -5.411905241308e+01  -1.711280619872e+01   1.957436250482e+01 
1  2.123443135111e+01  -4.476672294797e+01  -6.885107859703e+01 
1 -1.016070265105e+01  -1.941732254692e+01  -2.400310108918e+01 
1  1.498973969925e+01   4.982216448721e+01   2.245308949249e+00 
1  1.259940756426e+01   1.051671913647e+02  -1.546502633440e+01 
1 -6.369873785857e+01   1.909721595688e+01  -2.673404067999e+01 
1  4.220297622772e+00  -7.319828998568e+01   1.236865912574e+02 
8
Step 38000
1 -3.770230572005e+01  -9.794990148201e+01   6.233190667634e+01 
1  8.945833618455e+00   3.425704869879e+01  -7.909667139898e+01 
1  2.694957532676e+01   1.250934458603e+00   8.491456404712e+00 
1  2.210393537293e+01   6.789010742160e+01  -2.424202483379e+01 
1 -1.106329913059e+01  -3.830885592157e+01  -1.744929623559e+01 
1 -2.514692551741e+01   6.500708741217e+00  -3.410880196097e+01 
1  1.217817931145e+01   4.214476203662e+01   1.359468366296e+01 
1  3.708113273819e+01   4.745211188758e+01  -6.943658109704e+01 
8
Step 39000
1  6.634114647126e+01   8.580066468412e+01  -3.457693721406e+00 
1  7.445032991039e+00  -5.198351024181e+01  -5.621365681049e+00 
1 -2.303912861985e+01   5.833743225527e+01  -1.785542800387e+01 
1 -7.813122101218e+00  -2.028625812938e+00  -3.774726525220e+01 
1 -5.165721775280e+01   6.646457689041e+01  -4.788297026823e+01 
1  1.108796292553e+01   2.002088292017e+01   2.697016402980e+01 
1  8.511506807475e+00   2.024476424872e+01   4.729790306732e+01 
1 -8.777161140138e+01  -3.914582551113e+01  -9.584610289607e-01 
8
Step 40000
1 -5.604179666207e+01  -8.233021071025e+00  -2.980141156153e+01 
1  1.010419723939e+01  -3.311092867941e+01   2.590612953740e+01 
1 -4.539946390794e+01  -5.937490288946e+00  -1.859680647518e+01 
1 -7.326839529959e+00   4.434542608860e+01  -2.117768771409e+01 
1 -8.369245119749e+01   4.664643228529e+01  -1.202971553661e+01 
1  2.011906157803e+00  -8.810704882860e+01  -7.628507773878e+01 
1 -8.321609992440e+01   5.862179956994e+01   3.095498399269e+01 
1  6.472297101086e+01  -2.195123259988e+01  -5.209734893962e+00 
8
Step 41000
1  5.106561227938e+01   3.147584144360e+01   7.667074644149e+01 
1  8.153120262094e+00   8.543491430184e+01   6.539743724959e+00 
1 -3.356928101417e+01   7.227296080759e+01   9.381709034214e+00 
1  5.420052237594e+01  -4.612590750984e+01  -7.561773339087e+00 
1 -4.132707861793e-02   4.567982084065e+01  -2.012645725106e+01 
1 -6.767030143042e+01   6.431440053518e+01   4.192333373926e+01 
1 -5.055138033763e+00   2.119956275103e+01   4.736976440554e-01 
1 -6.790324984862e+01   2.380920991031e+01  -9.228566668932e+01 
8
Step 42000
1  5.320686624272e+01   2.979140884844e+01  -7.494462592316e+01 
1 -8.552680257595e+01  -1.003499149969e+01   2.315928299920e+01 
1  6.544532606411e+01  -7.046526381331e+00  -8.105645584012e+01 
1 -9.775228253608e-01  -2.488742278006e+01   7.052040245688e+00 
1 -9.537415996266e+01   5.621185852469e+01  -9.966384125295e+00 
1  8.509849673927e+00   1.320797098442e+01  -2.681338191804e+01 
1  1.725944352112e+01   9.590438859667e+01   9.917494967578e+01 
1 -3.192446141747e+00   2.924365124973e+00   1.959925596642e+01 
8
Step 43000
1 -7.090214545874e+01  -3.113070457934e-01   2.793497226234e+01 
1  3.514332463715e+01   1.008634887095e+02  -2.317058803249e+01 
1 -6.069889643004e+01   3.966813539940e+01   6.054179438904e+01 
1 -2.263838611202e+01   4.914702533178e+01  -6.177338764952e+01 
1 -4.463985559950e+00  -8.195105188696e+01  -3.735049426869e+01 
1 -6.024164705298e+01  -1.374583156346e+01   4.378650049343e+01 
1 -6.728033786067e-01  -7.520057334180e+00  -5.773818025074e+00 
1  3.341179713430e+01   7.476205643539e+01  -9.419381661709e+00 
8
Step 44000
1  8.099318637128e+01  -1.218554695977e+01   6.109129586383e+00 
1 -9.440496764666e+01   3.429180444227e+01   9.382976788890e+00 
1  1.730877177647e+01  -2.090811800840e+01   5.440226492941e+00 
1 -8.392947210773e+01   5.175311765267e+01   1.054820181433e+01 
1 -4.045358472434e+00   9.012658706226e-01   3.949771472248e+01 
1 -1.248245127667e+01   5.587625837724e+01   1.049014488599e+00 
1  2.401356576754e+01  -1.922049795462e+01  -9.991189593154e+00 
1 -3.981935084659e+01   3.867233125263e+01  -4.408003653978e+01 
8
Step 45000
1 -4.780058517805e+01   4.220281606301e+01   1.492602289660e+01 
1  5.078935532133e+01  -1.276953356204e+01   1.319654876033e+00 
1 -3.447363454061e+00   5.586825922823e+01   2.020784642427e+01 
1  1.102083139951e+01   1.183755999105e+02  -2.140529875037e+01 
1 -4.777375158395e+01   3.243299162183e+01  -5.945184637486e+01 
1 -4.375978966148e+01   1.245442321957e+01   4.179465545408e+01 
1 -2.902025771747e+01  -1.145276737676e+01   1.025908473089e+02 
1 -3.543552771186e+01  -2.722153082360e+01  -4.370958524399e+01 
8
Step 46000
1 -2.948965123858e+01   3.569999625227e+01  -4.099859116396e+01 
1 -3.018571979563e+01  -2.643015851552e+01   4.064426897168e+01 
1 -6.267725675512e+01  -3.696913886481e+00   3.110463314875e+00 
1 -5.588689183943e+01   8.886732275782e+00  -1.641673995708e+01 
1  3.472476689280e+01   1.202167903174e+01   2.409913477344e+01 
1  7.023526305246e+01   3.956865500210e+01   1.010151537175e+02 
1  1.133744240684e+01   9.885026940449e+00  -2.993894681652e+01 
1 -2.342098660446e+01   2.265664367794e+01  -1.859004400014e+01 
8
Step 47000
1  3.096348151506e+01   6.549172330412e+01   1.846897722840e+01 
1  6.609714920687e+00   1.028368164459e+02   4.273368402791e+01 
1 -1.660987992109e+00   1.491999799666e+01  -6.484881556618e+01 
1  6.479444917623e+01  -7.613283123516e+01   4.897236185367e+01 
1 -3.818612367197e+01   1.033252481689e+02  -1.532170504994e+01 
1 -1.528443650316e+01   1.075026651350e+01  -6.334275106390e+01 
1 -1.258261618908e+01   6.289723897894e+01   4.938674904325e+01 
1  1.839157845612e+01  -3.384072830646e+01   5.514146742775e+01 
8
Step 48000
1  3.170772792708e+01  -4.434744481773e+01  -2.255575697134e+01 
1 -4.706664734053e+01  -9.493187605302e+01  -2.905257058539e+00 
1 -1.284141078731e+02   3.141503979232e+01  -3.060668246259e+01 
1  5.387821177632e+00  -1.954867070320e+01  -5.406567186176e+00 
1  1.413727435652e+00   5.145756947011e+01   4.649276981645e+01 
1 -2.182310918949e+01  -4.240905652956e+00   5.035637629049e+01 
1  1.541766295502e+01   2.757013824206e+01   1.555277989747e+01 
1 -2.639391279909e+01  -2.677341981190e+01   2.399855590150e+01 
8
Step 49000
1 -5.552057368466e+00   5.561519596216e+01   7.630859638740e+01 
1 -3.556122432672e+01   5.983714941058e+01   4.224616027277e+01 
1  6.094118600417e+01   3.886531887370e+00   5.630154258510e+01 
1 -5.650182387939e+00   2.728591242341e+01  -3.381385569539e+01 
1 -7.019317728268e+01   4.136057802284e+01   4.094637391035e+01 
1  2.583113869294e+01  -7.654315231659e+01  -7.423161464643e+01 
1 -1.764085076620e+01   4.796100639600e+01  -1.064670278084e+01 
1  9.563407744485e-01  -5.550380779487e+01  -1.490779218158e+01 
8
Step 50000
1 -4.466704703927e+01   4.968410602250e+00  -3.560088779674e+01 
1  5.015331387898e+01  -3.205358889517e+00   9.981884166325e+00 
1 -7.913334774458e+01  -5.157121412063e+01   2.605324231835e+01 
1  7.406856340180e+01  -2.132493279260e+00  -6.715973136607e+01 
1  3.535273070637e+01   5.262072748357e+01  -1.269032412600e+01 
1 -1.878388498783e+01   4.568821261840e+01   6.150112665159e+01 
1  3.252725108542e+01  -1.264480276509e+01   1.153017511596e+02 
1 -3.422431553469e+01   9.469941442004e+00   4.633883142159e+01 
8
Step 51000
1  1.107345976492e+01   3.872365025490e+01   6.344325306452e+01 
1 -8.934658439765e+01   2.072906873931e+01   4.072578417874e+01 
1  2.367879361993e+01  -7.768538344811e+00  -8.321120626873e+01 
1  7.861033845541e+00  -2.102781323625e+01  -4.472881800977e+01 
1 -3.017383353198e+01  -9.603218061210e+01   5.299114525658e+01 
1  3.072551722906e+01   1.107043364284e+01  -1.246079809127e+00 
1  5.858360900706e+01   2.919277290716e+01   9.645736910271e+00 
1  3.286849643863e+01   1.861323919267e+01   7.700012305800e+00 
8
Step 52000
1 -5.858146923880e+00  -3.370406936344e+01  -2.490269722099e+01 
1  3.989033551101e+01   2.276951991298e+01  -8.368709646057e+00 
1 -1.062158301302e+02  -9.069921245609e+01   5.077663535664e+01 
1  2.232582725732e+01  -2.778790501603e+01   5.233965548234e+01 
1  5.820553573409e+01  -3.661805563421e+01   2.201389287548e+01 
1  4.118360062277e+01   1.646621420646e+01   9.481654663292e+01 
1  1.512817360813e+00   2.235986776214e+01   2.335323620518e+01 
1 -1.875505036375e+01   2.984331611428e+01  -9.287430628405e+01 
8
Step 53000
1 -9.485747200864e+00  -4.819275391660e+01   2.701056181202e+01 
1  1.842877972224e+01   9.837334223943e+00   9.419110192563e+01 
1  6.098195123076e+01  -1.335337608300e+01  -1.044178799671e+02 
1 -3.887627780330e+00   3.690874417487e+01  -2.674945295756e+01 
1  2.149733126927e+01  -4.643785074999e+01  -8.517959781312e+00 
1 -7.749347078213e+01   5.406904463501e+00   5.663410778952e+00 
1  2.360164331727e+00  -6.641599103860e+01  -5.575212072193e+00 
1  3.459412783199e+01   4.377800384569e+01   5.410917044261e+01 
8
Step 54000
1 -3.465872517310e+01  -5.726136251916e+01  -4.082120747206e+01 
1 -6.349307940703e+01   5.896521350462e-01   2.745654062217e+00 
1 -2.077965777542e+01  -2.487195644613e+01   4.677180571072e+01 
1  1.069331733738e+01  -3.664414834049e+01   5.376066604324e+01 
1 -2.404920385953e+01  -1.260658491479e+01  -2.686414998958e+01 
1  2.757602061504e+01  -1.173618637518e+02   3.823001325259e+01 
1  2.158945114279e+01   6.580979897251e+01   7.965494526016e+01 
1  3.597097563479e+01  -1.376557952629e+01  -4.311167798480e+01 
8
Step 55000
1  2.870522571850e+01   6.797213372232e+01   3.126729592356e+01 
1  6.599055765222e+01  -6.377128436133e+01   9.657315369245e+00 
1 -1.708351293576e+01  -3.228470600049e+01   4.362370293940e+01 
1 -2.759220983947e+01  -6.186178161646e+01  -7.519871798208e+00 
1  5.373234306992e+01   2.075132519831e+01   3.046830722422e+01 
1  3.270977947264e+01   8.811807518383e+00   6.775416692616e+01 
1  6.687202175645e+01   1.073137124297e+01  -8.872931089075e+01 
1  3.955738760385e+01   4.476125914827e+01  -7.058917051712e+01 
8
Step 56000
1 -8.502031121420e+00  -1.329015698726e+02  -2.316341159871e+01 
1 -1.626359026340e+01  -9.285969711373e+00  -9.146060565153e+01 