8
Step 0
1  2.086108577697e+01   4.693432203065e+01  -2.284201364120e+01 
1  9.091580979047e+00   6.922598102697e+01   4.061902542366e+01 
1 -3.244458265140e+01   6.111061475566e+01   4.971198066405e+00 
1  1.212382219856e+01  -1.902742052781e+01   7.102886472015e+00 
1 -5.665730473373e+01   6.058214040052e+01   2.055098169242e+01 
1 -6.201009357882e+01   6.982676963481e+01  -4.984931700386e+01 
1 -3.197718126494e+01  -5.533441737496e+00   2.967724491637e+01 
1 -8.215372080555e-01   3.172605093898e+01   4.379452421306e+00 
8
Step 100
1  3.603206294036e+01   2.265471359390e+01   1.421145001300e+01 
1 -1.680176243894e+01   1.364689775098e+01   3.599352933516e+01 
1  1.005359540741e+01   7.431995297516e+01  -1.820580130038e+01 
1  6.230471826744e+00  -5.297644237140e+01   2.805548629850e+01 
1 -2.477755479489e+01   6.416070176334e+01   2.905580806779e+01 
1 -3.783365674736e+01   3.491674898312e+01  -2.186679139869e+01 
1  1.580037384681e+01  -5.037399290949e+01   4.487744884231e+00 
1 -1.438402881670e+01   2.422990833355e+01  -2.386668320033e+01 
8
Step 200
1  3.810586203771e+01  -2.970284857181e+01   5.743028739757e+01 
1 -2.564477307101e+01  -4.489380172992e+01   3.025829585638e+01 
1  6.707507904275e+01   3.384796455962e+01  -5.077332512424e+01 
1 -9.367351483737e+00  -2.894454611112e+01   3.131225304973e+01 
1  1.742528798871e+01   3.479175310186e+01   2.662200233997e+01 
1  1.127750156328e+01  -9.859486073303e+00   1.984368083933e+01 
1  6.661538803866e+01  -6.299739588865e+01  -9.666475146635e+00 
1  7.004132356855e+00   1.050874663751e+01  -2.259920502960e+01 
8
Step 300
1  7.190744141183e+00  -3.840905420706e+01   7.113329139470e+01 
1 -1.286820218131e+01  -4.908541559456e+01   6.137310581807e-01 
1  7.065729883322e+01   1.016984235477e+01  -4.776103951479e+01 
1 -1.850524166450e+01   3.345166665907e+01   3.524363825503e+01 
1  1.974692303570e+01   9.705498359157e+00   2.785624749865e+00 
1  3.143323804590e+01  -1.426295552626e+01   3.440172363212e+01 
1  6.902159966215e+01  -2.564520016267e+01  -2.281624563722e+01 
1  4.158534036813e+01  -5.165559623900e-01  -1.534228865159e+01 
8
Step 400
1 -3.893484128723e+01   7.360323912551e+00   5.107333250667e+01 
1  2.750410783608e+00  -2.411032691429e+00  -5.200838246240e+01 
1  1.870671091004e+01   2.088142890368e+01  -1.266053967328e+01 
1 -2.660481518604e+00   7.444860038694e+01   4.911087836397e+01 
1 -1.757019532347e+01   5.815602773650e+00  -2.680944973136e+01 
1  7.979857267570e+00   1.237562787279e+01   1.889023981138e+01 
1  2.407977543549e+01   1.465893084147e+01  -4.080466836417e+01 
1  4.846898375616e+01  -1.181686161405e+01  -2.003671362820e+01 
8
Step 500
1 -5.079008870590e+01   5.274965225813e+01   1.172564180864e+01 
1  7.892827192149e+00   3.523816176295e+01  -9.053235102886e+01 
1 -3.599177738026e+01   2.238467191134e+01   3.097898897855e+01 
1  3.003781356389e+01   5.149499575622e+01   4.722095354174e+01 
1 -4.051174368026e+01  -5.143817500074e+00  -3.813461667339e+01 
1 -2.385575046765e+01   2.609456923334e+01   5.612589134076e-02 
1 -2.482906144883e+01   1.805732885252e+01  -4.899919236336e+01 
1  1.882407233929e+01  -1.587337224360e+01  -2.651801051376e+01 
8
Step 600
1 -8.716659421761e+00   4.508211273240e+01  -2.536853646771e+01 
1  5.572979477991e+00   2.866980396201e+01  -7.582650976406e+01 
1 -4.341583152380e+01  -1.748773420638e+01   5.015675801484e+01 
1  4.406039958394e+01  -2.052708925928e+01   3.220563966810e+00 
1 -2.070998237192e+01  -3.229378126185e+01  -2.256652512810e+01 
1 -2.672308281261e+01   1.328497961162e+01  -2.554625141080e+00 
1 -3.632451698374e+01  -8.488864049341e+00  -2.701370220404e+01 
1 -2.549609354250e+01  -4.368858263113e+00  -1.351150187095e+01 
8
Step 700
1  4.547754247198e+01  -9.742444946714e+00  -4.353403861838e+01 
1 -1.051764999793e+01  -5.386384894426e+00  -1.225717473778e+01 
1 -1.586000244316e+01  -6.663319779276e+01   2.414123069844e+01 
1  1.649394559083e+01  -7.878018957472e+01  -4.623083840815e+01 
1  2.747680309010e+01  -4.401501414024e+01  -3.148541091317e-01 
1 -5.077280076689e+00  -1.439801407727e+00   5.605370698994e+00 
1 -1.372613019048e+01  -2.150123375863e+01   1.733572976289e+01 
1 -4.965097657501e+01   1.078471574018e+01   1.560173900547e+01 
8
Step 800
1  5.646353413842e+01  -5.780666555793e+01  -3.939222594453e+01 
1 -2.264291020856e+01  -2.948147120453e+01   4.957028213124e+01 
1 -8.041439263558e+00  -6.576405903112e+01  -2.165713733814e+01 
1 -3.269586690001e+01  -7.378747369661e+01  -4.881963148714e+01 
1  5.314575894449e+01  -1.409206259574e+01   6.181805031548e+00 
1  1.041392448614e+01  -2.848284310911e+00   9.184144394619e+00 
1  9.305245928283e+00  -4.860946644052e+00   5.088246691337e+01 
1 -4.210053352141e+01   7.597978268807e+00   3.303173893667e+01 
8
Step 900
1  1.696078318753e+01  -6.149569804169e+01  -2.178040388494e+01 
1 -1.319764112382e+01  -2.121246769459e+01   6.333022704052e+01 
1 -3.328131531962e+01  -9.382866048396e+00  -4.615221117420e+01 
1 -5.726405743330e+01  -1.637386589008e+01  -9.177278661443e+00 
1  3.056735425326e+01   3.343651289566e+01   3.683720582221e+00 
1  6.897628323678e+00  -3.336354662991e+00   6.980545069307e+00 
1  9.340056557426e+00   1.771204930434e+01   4.933047064949e+01 
1 -2.070978327485e+01  -2.246279057851e+01   2.096795831376e+01 
8
Step 1000
1 -3.262878407548e+01  -2.722233972913e+01  -2.237661766703e+00 
1  1.436744242709e+01   4.632230953858e+00   3.020466097465e+01 
1 -4.516647527940e+01   4.323224990335e+01  -3.592371867313e+01 
1 -3.134109361456e+01   4.075682673101e+01   1.822479614898e+01 
1 -1.441470757712e+01   5.951962897436e+01   1.012926253368e+01 
1 -4.084252289975e-01  -2.095282004880e+01   6.689117283979e+00 
1 -5.463601631105e+00   1.999662015360e+01   2.045169906134e+01 
1 -1.215026689333e+01  -5.638646833653e+01  -3.845746137863e+00 
8
Step 1100
1 -4.952192536463e+01   1.153344374731e+01   1.515783499243e+01 
1  3.907339321889e+01   2.813605426465e+01  -8.672107687612e+00 
1 -6.429518236246e+00   3.918725322779e+01  -1.190975406082e+01 
1  1.978174182461e+01   5.451156009630e+01   1.716363960040e+00 
1 -4.939598510836e+01   2.773849119771e+01   2.438007733546e+01 
1  6.808585457451e+00  -4.323496499977e+01   7.575635541863e+00 
1 -1.552564666784e+01   1.344963915618e+01  -5.659974313165e+00 
1 -1.015073729417e+01  -4.275546105200e+01  -1.245120183171e+01 
8
Step 1200
1 -2.947161766426e+01   2.775402562669e+01   2.468157711368e+01 
1  2.964049392988e+01   3.606076757818e+01  -1.391201383300e+01 
1  5.130685244357e+01  -5.326706149329e+00   6.928207602564e-01 
1  4.526655784488e+01   2.989994732896e+01  -2.742383947266e+01 
1 -4.307374731746e+01  -2.407170510116e+01   2.537886709815e+01 
1  2.234844690981e+01  -3.732436830049e+01   9.233020431147e-01 
1 -1.478711529741e+01   2.420331216338e+01  -1.141483633094e+01 
1  7.104640987466e+00   1.783477025860e+01   3.778065309294e+00 
8
Step 1300
1 -3.509913970885e+00   2.432969730926e+01   1.806499689909e+01 
1 -1.015709307103e+01   2.103234015054e+01   1.755175296337e+01 
1  6.620356216179e+01  -3.125366088678e+01   1.384288918566e+00 
1  2.541472413414e+01   3.700255639853e+00  -2.004319615930e+01 
1  4.978668313512e+00  -3.290840970977e+01  -3.039957257732e+00 
1  2.452570088960e+01   4.604440434734e+00  -1.575259087604e+01 
1 -9.874382421947e+00   4.457507898350e+01  -8.316044403054e+00 
1  3.939294308029e+01   6.767015918184e+01   2.467844962079e+01 
8
Step 1400
1  1.014149554268e+01   1.385023954447e+01   2.220572675104e+00 
1 -4.056551089523e+01  -8.431054094210e+00   4.501217511624e+01 
1  2.394030614446e+01  -1.068673661125e+01   2.980239600192e+00 
1 -1.078535553518e+01  -7.977448250963e-01   1.866251556889e+01 
1  5.943680292438e+01   2.456590067103e+00  -4.183428335500e+01 
1  3.607403017063e+00   4.655535134870e+01  -2.931901923420e+01 
1 -4.419245103915e+00   3.587447205706e+01  -1.546139254019e+01 
1  5.991427445873e+01   5.995043698080e+01   2.534944169991e+01 
8
Step 1500
1  1.693177883108e+01   5.636909097586e+00  -1.701146766124e+01 
1 -3.144534693141e+01  -3.474670813459e+01   3.294962730129e+01 
1 -2.387600858127e+01   2.560491445634e+01   1.155627816665e+01 
1 -2.278339273918e+01   5.304880310479e+00   4.129228151550e+01 
1  7.361731179547e+01   2.841066027996e+01  -4.449252983450e+01 
1 -2.461029314636e+01   4.783484834164e+01  -2.541176672116e+01 
1  7.771445380155e+00  -1.826147836881e+01  -3.104881486119e+01 
1  4.714895631064e+01   7.703503364412e+00  -2.697937236688e+00 
8
Step 1600
1  2.002642475696e+01   7.502269392907e+00  -2.724247028090e+01 
1  4.248639422876e-01  -4.038097831353e+01  -1.332169485535e+01 
1 -2.449030898379e+01   2.958870841177e+01   1.983697418336e+01 
1 -1.543057352417e+00  -2.800522865537e+00   2.326163418027e+01 
1  3.650202810695e+01   1.539808915105e+01  -1.189715613893e+00 
1 -3.636815802555e+01   1.258274349386e+01  -6.427650821261e+00 
1  2.755270593973e+01  -7.810923185016e+01  -3.255249343127e+01 
1  3.094969891951e+00  -3.740765418430e+01  -3.755128401339e+01 
8
Step 1700
1  1.405834447137e+01   1.756278123806e+01  -1.865652025424e+01 
1  1.469172985446e+01  -2.152751075265e+01  -5.093234388934e+01 
1  1.063104400258e+01   7.705553922906e-01   2.021026055097e+01 
1  2.502238408821e+01  -2.694972913455e+01  -8.646441296985e+00 
1 -1.802850349735e+01  -5.574129042062e+00   4.178882873031e+01 
1 -2.662019815725e+01  -1.535731771291e+01   1.199346565777e+01 
1  3.947270875441e+01  -8.737755591508e+01  -8.616025870082e+00 
1 -4.717034089952e+01  -4.377523244442e+01  -4.340123373357e+01 
8
Step 1800
1 -1.304327418279e+00   2.478502912288e+01  -1.988683274800e+00 
1  3.343947396059e-01   5.127012159773e+00  -4.766767940183e+01 
1  2.557907781667e+01  -1.981583963260e+01   1.415149302489e+01 
1  2.463553225389e+01  -4.575224094701e+01  -6.441222772657e+00 
1 -4.570979771737e+01   3.360998503050e+00   3.561531134321e+01 
1 -9.051266516033e+00  -7.576062823754e+00   1.991687530203e+01 
1  2.710494673653e+01  -3.684028240915e+01   2.194116000422e+01 
1 -7.050361723671e+01  -2.215475218687e+01  -1.103980441082e+01 
8
Step 1900
1 -1.120789358142e+01   1.603421808083e+01   3.286834967260e+00 
1 -1.386417288927e+01   1.772267563386e+01  -1.663589017243e+01 
1 -4.067382147116e+00  -7.467723131307e+00   5.894244252696e+00 
1 -2.640943287962e+00  -3.381058874977e+01   2.741727345009e+01 
1 -3.736488839089e+01   2.746304571283e+01  -8.916046997496e+00 
1  4.398171391630e+00   1.558304001533e+01   1.954330754531e+01 
1 -6.019954440318e+00   2.560278863167e+01   3.113613500632e+01 
1 -4.856478167336e+01  -5.587663603136e+00   3.408002350931e+01 
8
Step 2000
1 -3.815413510954e+00  -1.121868574551e+01  -8.431962774815e-01 
1  1.874441530918e+00   1.333502125769e+01   6.994303443254e+00 
1 -4.713733698859e+01   1.226565786521e+01  -2.806323472097e+00 
1 -2.724704169198e+01   5.639414547356e+00   4.077104064191e+01 
1 -1.794847931263e+01   2.805347979003e+01  -4.035415699819e+01 
1  1.397667624282e+01   1.500411429922e+01   1.506610730647e+01 
1 -3.564970379510e+01   4.989065135673e+01   1.522118039221e+01 
1  5.177671414755e+00  -1.195779966629e+01   4.969097229384e+01 
8
Step 2100
1  1.208607333694e+01  -4.957741702187e+01   3.437493463996e+00 
1  3.287701921821e+01   7.893944390327e+00   5.970022510693e+00 
1 -5.661548189119e+01   8.457704337253e+00  -1.312527907730e+01 
1 -2.760525180338e+01   4.524670248098e+01   2.662088299474e+00 
1 -9.010302506960e+00   1.830559987839e+00  -2.952289040102e+01 
1  2.223119555456e+01  -1.479771666049e+01   6.213567052723e+00 
1 -4.010607720766e+01   3.219325796759e+01  -1.839897072132e+00 
1  5.025365086505e+01  -2.857457575268e+01   2.643769643309e+01 
8
Step 2200
1  6.961803907172e+00  -6.391825748762e+01   1.758633020306e+01 
1  4.011380678061e+01   1.129856860151e+01  -3.157676504361e+00 
1 -2.630249142934e+01  -1.397830394419e+01  -2.079693913783e+01 
1 -6.304089879996e+00   5.332743571496e+01  -5.455793436444e+01 
1 -5.391544551985e+00  -2.819886203204e+01   1.025032387723e+01 
1  2.539347383476e+01  -3.900986843145e+01  -5.800023072473e+00 
1 -2.130796717357e+01   7.346032206723e+00   7.515889108744e-01 
1  5.436304636748e+01  -2.260367421223e+01  -9.419782161566e+00 
8
Step 2300
1 -2.878838677082e+01  -3.384600336714e+01   2.440947535568e+01 
1  1.070455984255e+01   1.473152442286e+01   3.398067010149e+00 
1  1.320280335130e+01  -2.381768929823e+01  -1.906595355908e+01 
1  1.046380755167e+01   2.881737060173e+01  -7.156696062680e+01 
1  1.408590703352e+01  -3.054715834404e+01   4.057175691856e+01 
1  1.697173044266e+01  -2.839962468030e+01  -1.267467302361e+01 
1  1.288933827479e+00   3.455862450322e+00   1.490197585445e+01 
1  2.075946480439e+01   8.440598362614e+00  -2.972722919760e+01 
8
Step 2400
1 -5.643620587470e+01   2.068081308373e+01   4.203623881990e+00 
1 -2.804194615023e+01   1.105019985440e+01   2.406157981387e+01 
1  4.035580765624e+01  -1.544462648999e+01  -8.319127602661e-02 
1  6.043864095141e+00  -2.623432085172e+00  -3.954808350127e+01 
1  4.592081761498e+01  -5.477446167765e+00   3.719899138630e+01 
1 -3.970855172844e-01   4.545115521781e+00  -6.904056859022e+00 
1  1.201740497272e+01   1.507079514485e+01   1.506978995982e+01 
1 -2.552553562564e+01   3.726305441620e+01  -2.820389936394e+01 
8
Step 2500
1 -3.291279104258e+01   6.004903656597e+01  -3.359768117044e+01 
1 -3.680696809917e+01  -5.990602248170e+00   4.018238751492e+01 
1  4.782995849669e+01   4.804887560907e+00   1.429670996311e+01 
1 -5.941642361919e+00  -3.124931428322e+01   3.245635839568e+00 
1  5.394098169616e+01   1.504433252652e+01   9.354740457403e+00 
1 -2.010272756079e+01   2.062439708318e+01   5.690708337228e+00 
1  1.047073556422e+01   2.213444075212e+01  -6.933122184248e+00 
1 -4.593635217719e+01   4.063745438719e+01  -2.090998275175e+01 
8
Step 2600
1  3.296910743491e+01   4.848440302665e+01  -5.417787365029e+01 
1 -1.699955518290e+01  -1.852917012657e+01   3.679173080470e+01 
1  4.979811835814e+01   6.588283673269e+00   5.764658414454e+00 
1 -1.379449002942e+01  -3.697737273154e+01   1.749530051515e+01 
1  1.541964547412e+01   8.497446037831e+00  -2.265339262535e+01 
1 -3.333020860442e+01   2.959251861905e+00   7.906096038210e+00 
1  5.748909615916e+00   1.721399143206e+01  -2.897460133716e+01 
1 -2.466234213612e+01   1.574057937790e+01  -9.259660800934e+00 
8
Step 2700
1  8.517667100030e+01  -1.583148266204e+00  -3.696573530879e+01 
1  3.119968745506e-01  -1.549572882703e+01   1.632155282262e+01 
1  4.586171859184e+01  -2.410964074032e+01  -3.518209735382e-01 
1 -1.534530216325e+01  -1.460092222614e+01   1.127739649221e+01 
1 -4.889076976089e+01  -5.846180677138e+00  -4.328764501457e+01 
1 -3.258197833662e+01  -2.372776199577e+01  -5.671841023332e+00 
1  4.150575496188e+00   5.351602130712e+00  -2.458339444593e+01 
1  1.860566315828e+01  -1.320026961065e+01   7.817734065025e+00 
8
Step 2800
1  7.162058086096e+01  -4.222350431436e+01   6.205773447168e+00 
1 -2.969842743522e+00  -6.943131148114e+00  -1.542315987040e+00 
1  1.701961666667e+01  -4.807138696732e+01   1.662350731020e+01 
1 -7.337263400858e+00   2.610885302336e+01   1.850081400468e+01 
1 -8.036305841889e+01  -1.538976878275e+00  -4.617081625643e+01 
1 -1.263049674365e+01  -2.196389130019e+01  -1.926055076240e+01 
1  5.635759853548e+00  -1.326235215564e+01   1.800388034903e+00 
1  4.324150406126e+01  -2.936637757219e+01   3.079742595882e+01 
8
Step 2900
1  5.370112292918e+00  -3.440825959880e+01   4.319223727596e+01 
1 -1.075927052993e+01  -7.314539266501e+00  -1.936374492937e+01 
1 -3.040422249190e+01  -2.781193536907e+01   3.631471962337e+01 
1  7.812505334192e+00   5.587666367398e+01   5.181587799199e+01 
1 -4.354597181199e+01   2.040382085371e+01  -2.345345413681e+01 
1  1.903131626068e+01   1.550170064901e+01  -1.378673281734e+01 
1  7.212353442807e+00  -4.031209868337e+01   1.811005024058e+01 
1  2.385354762559e+01  -2.467261060737e+01   4.396665949196e+01 
8
Step 3000
1 -4.488897849502e+01   1.319086151447e+01   5.181103235036e+01 
1 -1.197691783678e+00  -1.350580132591e+01  -4.667777279971e+01 
1 -5.450956725350e+01   1.804270597728e+01   2.831140836614e+01 
1  1.993043511444e+01   5.828308851334e+01   6.872629757401e+01 
1  3.027164949675e+01   3.279944177931e+01   2.008019298976e+01 
1  4.147547997099e+01   5.419473625332e+01   5.084416491226e+00 
1  5.960624043762e+00  -6.241291107082e+01   4.564685985928e+00 
1 -2.988682742704e+01  -3.308631993240e+00   2.771720031298e+01 
8
Step 3100
1 -3.656723860908e+01   4.918032596584e+01   4.559984446241e+01 
1  2.315695474501e+01  -6.747168483928e+00  -8.004838401388e+01 
1 -3.605388914381e+01   5.132120026943e+01   1.417842876309e+00 
1  1.838264348778e+01   2.584218092970e+01   3.508718086033e+01 
1  7.239125370505e+01   1.666669709803e+01   4.996578738731e+01 
1  3.444401584781e+01   5.657310285539e+01   1.247600983261e+01 
1  2.154371364743e+00  -5.344983634067e+01  -1.745157202616e+01 
1 -6.856833111884e+01   2.373656288447e+01  -1.526893057137e+01 
8
Step 3200
1  1.729211129094e+00   3.708201497346e+01   3.925451700301e+01 
1  2.801574551008e+01   1.310761217588e+01  -9.064771652945e+01 
1  1.951387694517e+00   4.678715100655e+01  -1.101025948216e+01 
1  6.635228482486e+00  -1.949075664169e+01  -2.556084980912e+01 
1  4.981546568328e+01  -1.061535030898e+01   4.272108045544e+01 
1  2.715027459418e+00   2.155366820127e+01   1.085457786932e+00 
1 -1.852257939917e+00  -5.950522768728e+00  -1.231492667309e+01 
1 -4.615179760205e+01   3.847825569874e+01  -5.123977379109e+01 
8
Step 3300
1  1.892797090465e+01  -1.291903667031e+01   2.352686585123e+01 
1  1.694671961943e-01   2.885939417410e+01  -4.486912181738e+01 
1  1.560512948478e+01   1.314594686709e+01   4.693084433111e-01 
1  7.446266081729e+00  -4.549859021158e+01  -6.412529791939e+01 
1 -4.759262149400e+00  -2.355321403761e+01   1.366071100806e+01 
1 -2.569261655215e+01  -1.623262943216e+01  -1.039289215602e+01 
1 -1.714079605484e+00   4.776169507757e+01   1.911920410471e+01 
1  2.069578042781e+01   2.667880962102e+01  -4.890051359722e+01 
8
Step 3400
1  3.244116247218e+00  -5.698727725447e+01  -1.425862893308e+01 
1 -2.285873280321e+01   2.326070520205e+01   3.554759544301e+01 
1 -5.500239705610e+00  -1.643781104090e+01   9.365311479634e+00 
1  2.359060860751e+01  -4.097377825775e+01  -5.566538643888e+01 
1 -4.252156628956e+01  -1.228084405444e+01  -1.451725162155e+01 
1 -2.749041400223e+01  -2.938765486701e+01  -1.307053492328e+00 
1  2.714550297789e+00   6.204498960212e+01   3.642823866010e+01 
1  7.107362327174e+01  -9.543448114047e+00  -1.102744285232e+01 
8
Step 3500
1 -1.824206350812e+01  -4.679052637967e+01  -6.588022391220e+01 
1 -1.030700298060e+01  -9.023291129275e+00   8.349594895345e+01 
1 -2.372082440811e+01  -2.237121764504e+01  -9.151855566674e+00 
1  2.656118591107e+01  -2.034768955573e+01  -2.754141926523e+01 
1 -4.881679430556e+01  -3.683472123287e-01  -1.535759472177e+01 
1 -6.679579976644e+00  -2.550831364584e+01   1.943406535236e+01 
1  2.446811250487e+00   2.915481379415e+01   1.242898419950e+01 
1  6.495103824926e+01  -4.083103952974e+01   2.337152951710e+01 
8
Step 3600
1 -2.222389596793e+01   5.457254454668e+00  -9.700321304323e+01 
1  1.644964166738e+01  -3.607327256886e+01   6.633690146324e+01 
1 -6.917769498389e-01  -1.512543166254e+01  -3.943986071631e+01 
1 -2.459355966411e+00  -2.538703260633e+00  -1.417413935023e+01 
1 -4.007261589495e+01  -1.250551798040e+01   7.744333340867e+00 
1  7.958721170517e+00  -2.640416477789e+01   2.480740887269e+01 
1 -1.221534494786e+01  -1.117773820827e+01  -2.792946631562e+01 
1  1.306151406223e+01  -3.945685996173e+01   2.591112202684e+01 
8
Step 3700
1 -1.433526382570e+01   4.754913956600e+01  -7.261101877929e+01 
1  1.838798646055e+01  -3.257397705617e+01   1.916178409860e+01 
1  4.658311756396e+01  -1.356006151013e+01  -4.175873625410e+01 
1 -4.715969733069e+01   6.893437418254e+00  -1.148922896613e+01 
1 -2.901030226914e+01  -3.341105361294e+01   2.112513230770e+01 
1  2.261375783419e+00  -3.981801371920e+01   7.184066258991e+00 
1 -3.456662488573e+01  -1.763516403486e+01  -3.730543793803e+01 
1 -3.667795539740e+01  -1.142420793917e+01   8.158838514441e+00 
8
Step 3800
1 -9.363681344743e+00   4.054255153691e+01  -1.432418960229e+00 
1 -4.652885406371e+00  -1.446667914308e+01  -6.098280086326e+00 
1  6.222375167429e+01  -1.960295198289e+01  -3.019692072747e+00 
1 -6.691734993953e+01   1.521135562443e+01   4.976391292409e+00 
1 -5.733227052693e+00  -3.296837002990e+01   6.836811947046e+00 
1 -1.075250888094e+01  -4.435957613436e+01  -1.165342110997e+01 
1 -3.983917051117e+01   7.977765406825e+00  -4.744519337744e+00 
1 -4.942066481434e+01   1.922826578921e+01  -3.140865432642e-01 
8
Step 3900
1 -7.360563924949e+00  -5.853357733802e+00   6.726587524717e+01 
1 -2.045288267384e+01  -4.957373552901e+00  -7.393277481396e+00 
1  2.437169506979e+01  -2.313256962077e+01   4.349544192222e+01 
1 -3.797992339281e+01   2.718408267569e+01   3.334894217578e+01 
1  3.150937719617e+01  -2.744226643340e+00  -1.840249775590e+01 
1 -9.231148309801e+00  -1.968217631051e+01  -1.256433595386e+01 
1 -9.296524357707e+00   2.865045518015e+01   3.287361418016e+01 
1 -3.166305961504e+01   3.513676134029e+01   9.920745097210e+00 
8
Step 4000
1  1.332841527859e+00  -4.550958426069e+01   8.741333663825e+01 
1 -8.085871570506e+00  -7.024289784278e+00  -1.364439198713e+01 
1 -2.802503115364e+01  -1.369875776057e+01   5.233620615961e+01 
1  1.175461979038e+01   3.745787487544e+01   4.188862995771e+01 
1  5.746766191213e+01   3.031632421075e+01  -2.655282102155e+01 
1  5.961773698968e+00   3.187097377564e+01  -3.387430223605e+00 
1  4.195089706723e+01   1.425283791457e+01   3.307114591643e+01 
1 -1.036801574420e+01   3.645593680847e+01   1.849208926975e+01 
8
Step 4100
1  1.813214857286e+01  -4.508236744483e+01   5.948399843849e+01 
1  8.797877749673e+00   5.198022583974e+00  -3.559244973229e+01 
1 -4.513242094581e+01   2.738555831613e+00   2.203549896241e+01 
1  3.820467314654e+01   3.316457897086e+01   1.733480494886e+01 
1  4.617727233884e+01   3.898042500425e+01  -1.465709545469e+01 
1  1.535107700561e+01   7.155065462188e+01  -7.936666696677e+00 
1  6.987161362999e+01  -2.361512514638e+01  -2.116184100251e-01 
1  1.810414226727e+00   3.289362693393e+01   1.073115516354e+01 
8
Step 4200
1  2.336009946233e+01  -1.136886269118e+01   2.208909315153e+01 
1  2.074207329561e+00   4.076440581871e+01  -4.388473138645e+01 
1 -1.979105490648e+01   1.646478875526e+01  -1.398190907388e+01 
1  3.297734596040e+01   7.620050590059e+00  -9.071344577453e+00 
1  8.562499940260e+00   2.664159786533e+01  -2.914779736627e+00 
1  1.120896111778e+01   6.708001332999e+01  -2.393817355289e+01 
1  4.414082510570e+01  -4.737888472365e+01  -2.767776226286e+01 
1  1.312187214887e+01   1.745736561809e+01  -6.503929860360e+00 
8
Step 4300
1  7.950829205213e+00   2.467621727434e+01  -4.427815691814e-01 
1 -1.690293334381e+01   6.606585552703e+01  -1.916242506702e+01 
1  1.051658760013e+01   2.416042641998e+01  -2.328299417805e+01 
1  2.421224796782e+01  -2.860066867246e+01  -1.333162434233e+00 
1 -1.778405051459e+01   1.487423990049e+01  -1.456898164267e+00 
1  4.735992428721e+00   2.462887539763e+01  -2.537460552226e+01 
1 -1.638440029668e+01  -3.437195515091e+01  -2.502145854403e+01 
1  3.076494089486e+01  -1.378830354136e+01  -1.517954048031e+01 
8
Step 4400
1 -8.077192732300e+00   3.812937917949e+01  -1.359078850601e+01 
1 -1.635743898576e+01   4.239403215206e+01   1.642536119501e+01 
1  9.764866773802e+00   2.168568319515e+01  -1.197515533188e+01 
1  3.156168193677e+01  -4.845970955407e+01   2.892834036691e+01 
1 -1.433823769886e+01   1.370180088237e+01  -2.645119615257e-01 
1  8.197285039608e+00  -1.136843140274e+01   3.539614287887e+00 
1 -5.816066357785e+01  -1.217876697168e-01  -7.381183220617e+00 
1  4.292881119229e+01  -4.249205784537e+01  -1.548881432703e+01 
8
Step 4500
1 -1.381883989145e+00   2.946937467258e+01  -3.176281084030e+01 
1  9.304921236655e+00  -1.346637413780e+01   2.591283621139e+01 
1 -1.630606344879e+01   4.137186339239e+00  -4.635959018140e+00 
1  3.549692419952e+01  -3.341494271992e+01   3.377590368143e+01 
1 -5.982021478886e+00   9.716841100658e+00   1.332153354824e+01 
1  1.270754123964e+01  -1.183023424575e+01   3.705527832650e+01 
1 -4.615167105456e+01   2.054878037101e+01   4.642056029172e-01 
1  3.398735306599e+01  -4.454523058255e+01  -2.026792465954e+01 
8
Step 4600
1  2.021028598917e+01   9.665588131165e+00  -4.908731954523e+01 
1  3.248810341787e+01  -5.324890671289e+01   6.062166772354e+00 
1 -2.942006893686e+01  -1.782415342401e+01  -5.690058727389e+00 
1  6.045343678275e+00   7.740535767806e+00  -6.718714255089e+00 
1 -2.282581187087e+01  -1.085983980160e+01   2.885900954278e+01 
1  7.272299547604e-01   2.418514073479e+00   3.636583657990e+01 
1  2.694635715919e+00   9.401376187277e+00  -1.274489394747e+00 
1  1.739161338517e+00  -1.437096933315e+01  -2.805544474809e+01 
8
Step 4700
1  2.335953037301e+01  -9.300174440769e+00  -4.321009839386e+01 
1  2.341436453490e+01  -4.803609867304e+01  -1.300725388232e+01 
1 -7.251204403760e+00  -2.752805252905e+01   5.910707290977e-01 
1 -4.748136599556e+01   3.891031570521e+01  -5.861230693491e+01 
1 -4.901992707664e+01  -3.755497110357e+01   2.645780951264e+01 
1 -2.376937561525e+01  -5.082706015595e+00   3.506543940713e+00 
1  3.900766379130e+01  -1.738549500453e+01   5.261251976851e+00 
1 -3.127818431710e+01   1.654525960779e+01  -1.674969691817e+01 
8
Step 4800
1 -2.681095217328e+00  -1.570330087698e+01  -1.496714097756e+01 
1 -1.122644195852e+01  -1.663316236516e+01  -6.002769391426e+00 
1  2.453374715406e+01  -2.104818106725e+01   2.316432376199e+01 
1 -7.430005354771e+01   3.282402963706e+01  -6.962529712008e+01 
1 -3.977282844266e+01  -4.498275112157e+01   8.661316887450e+00 
1 -3.499606809840e+01  -3.922335440632e+01  -1.944188094774e+01 
1  3.107891618765e+01  -2.490051621174e+01   2.244341853949e+01 
1 -3.729784500966e+01   1.563009829743e+01   1.825555595962e+01 
8
Step 4900
1 -3.534442224915e+01  -1.067250857629e+01   1.502251886628e+01 
1 -3.539750821361e+01   3.810579401177e+00   1.393139517840e+01 
1  3.021028313628e+01  -3.843813662024e+00   4.504640449722e+01 
1 -4.765145404886e+01   1.599289140768e+00  -4.366084784482e+01 
1  1.879956049984e+01  -2.239469717330e+01  -4.639156882626e+00 
1 -1.399075407298e+01  -6.085165977419e+01  -3.279929512974e+00 
1 -6.464404181014e+00   3.982430261164e+00   3.199976027418e+01 
1 -1.578022909629e+01  -1.032831326161e+01   5.068823056160e+01 
8
Step 5000
1 -4.408643804807e+01   3.060400364406e+00   2.939882015849e+01 
1 -2.413704545824e+01   1.553851914888e+00   1.572960613231e+01 
1  9.304578715998e+00   1.658943522085e+01   3.266207408717e+01 
1 -8.887835214759e-01  -2.838856555480e+01  -2.040749150738e+01 
1  7.705519674885e+01   1.184119273227e+01  -1.898668818307e+00 
1  2.287551617859e+01  -3.443566498657e+01   2.720128508218e+01 
1 -3.780774143156e+01   5.225431268203e+01   1.325352699758e+01 
1  9.765281716219e+00  -2.308829968775e+01   5.364272840545e+01 
8
Step 5100
1 -1.824337414080e+01   1.459120419554e+01   2.459264164688e+01 
1  6.237530435713e+00   7.321324308910e-01   9.275165485566e-01 
1 -1.691565224014e+01   2.282911714965e+01  -1.984362105824e+01 
1  2.240935503517e+01  -3.044786498722e+01  -8.968622390400e+00 
1  7.329848863967e+01   3.064180295127e+01   3.636716317960e+00 
1  3.869453787562e+01   2.253226510868e+01   2.411271843647e+01 
1 -3.344447470536e+01   7.043174153275e+01  -1.991140715891e+01 
1  1.090547021419e+01   2.547597172595e+00   1.934864406614e+01 
8
Step 5200
1  1.526166174630e+01   4.152910835576e+00   2.473002146688e+01 
1  2.527089419533e+01   1.997794609215e+01  -5.886810077153e+00 
1 -2.052243876964e+01   5.653324855098e+00  -7.445494848564e+01 
1  1.294463671673e+01  -5.703447576382e-01   8.288599711461e-01 
1  7.118815115428e+00   1.945600501716e+01  -5.448264185242e+00 
1  1.932339256377e+01   5.636607222308e+01  -1.699604178036e+01 
1  2.114413094573e+00   2.956551225736e+01  -3.272153032795e+01 
1 -5.555465562076e+00   4.462765689204e+01  -2.045585256194e+01 
8
Step 5300
1  2.326352202831e+01  -2.272440727804e+01   3.904398380104e+01 
1  2.378745458930e+01   3.622334750296e+01   6.140094052455e+00 
1  4.599793098958e+00  -1.441793214149e+01  -7.937505647601e+01 
1 -1.653929712247e+00   2.418345537294e+01   8.714112802364e+00 
1 -5.838709415002e+01  -6.645125659736e+00  -2.174217919620e+01 
1 -1.051220172385e+01   3.876916009031e+01  -4.722467852711e+01 
1  3.886942381752e+01  -3.881510937123e+01  -1.277035386847e+01 
1 -5.978847175261e+00   5.311487478219e+01  -3.039535331843e+01 
8
Step 5400
1  7.991013914515e+00  -3.519968010630e+01   3.875015318963e+01 
1  1.371830697782e+01   1.990089520210e+01   1.273974737360e+01 
1  2.824075950399e+01  -1.842633960214e+01  -2.402315745667e+01 
1  1.027275907263e+01   1.548805341203e+01   1.293870204842e+01 
1 -6.790974772756e+01  -1.926191406157e+01  -2.670005776565e+01 
1 -1.981391241047e+01  -1.195303664843e+00  -2.921475421120e+01 
1  4.687180976995e+01  -7.188992609282e+01   1.516141353753e+01 
1  1.958720238855e+01   1.601911642866e+01  -1.316440046171e+01 
8
Step 5500
1 -5.838953183264e+00  -1.093274562772e+01   4.308635302961e+00 
1  4.624791721679e+00  -1.688221201761e+01  -1.105094445751e+01 
1  2.122055434748e+01  -1.978884058481e+00   4.948833611935e+01 
1  3.376382028001e+01  -1.454868720475e+01   1.289345961866e+01 
1 -2.448026380848e+01  -6.714671607517e+00  -1.281618400933e+01 
1 -8.147798496969e+00  -1.646592146523e+01   1.211181432456e+01 
1  1.869092870455e+01  -4.522487682433e+01   2.001773637918e+01 
1  4.217669417006e+01  -2.844730327001e+01  -2.934544460733e+00 
8
Step 5600
1 -6.630205393921e+00   3.677436477806e+01  -3.353833644369e+01 
1 -8.681446064847e+00  -3.061342352385e+01  -4.740180772528e+01 
1 -1.596315234349e+01   2.187353528967e+01   8.677131769088e+01 