8
Step 0
1  6.673994264557e+01  -6.348222162079e+01   4.533458352829e+01 
1 -4.190978114971e+01   6.511705803867e+01   6.576511494826e+01 
1  6.160288589397e+01  -4.968557995687e+01  -7.759770453232e+01 
1 -5.275475819101e+01   5.263914256172e+01  -6.287078783062e+01 
1  3.368236176707e+01  -5.535420352454e+01   6.567221809806e+01 
1 -2.932215654258e+01   5.697053922066e+01   5.504311202953e+01 
1  7.435867778535e+01  -5.503844031689e+01   6.929554136757e+01 
1  4.256782595794e+01   4.207458288030e+01   4.780089100214e+01 
8
Step 1000
1  2.167591859586e+00  -2.183350154456e+01   4.747001345411e+00 
1  2.474380794462e+01   4.152410035778e+00   4.740579238566e+01 
1  3.513155969013e+01  -5.141503499029e+01  -1.233063297369e+01 
1  3.794684285642e+00  -3.787902395539e+01  -5.249021185624e+01 
1 -1.218352896287e+01  -2.319612155620e+01   4.636975470039e+01 
1 -1.855499005079e+00  -5.207057882788e+01   1.136599314011e+01 
1 -3.538096825636e+01   3.322085869733e+01   3.941478004728e+01 
1 -3.564918623049e+01   3.909807170100e+01   1.485324473996e+01 
8
Step 2000
1  9.812686542836e+00  -1.955502713243e+01   3.328337196262e+01 
1  4.888957668722e+01   9.309352906725e+00  -5.398310005625e+01 
1 -2.263205476706e+01  -6.019469032815e+00  -9.813449627046e+00 
1  7.471681961564e+00   3.784206697052e+00  -4.258649748695e+01 
1 -7.411399445829e+01   5.054295308823e+00   2.143043880383e+01 
1  5.447782661936e+01  -5.376745246770e+01   3.996845028737e+01 
1  3.939512869581e+00   3.084758655976e+01   5.206453007537e+01 
1  2.947926450917e+00  -8.870581623236e+00  -2.695377337526e+00 
8
Step 3000
1  5.548337828288e+01  -1.130786757581e+01   6.408094557156e+01 
1  1.838724302439e+01  -3.562166352916e+00  -7.546672097655e+01 
1 -1.732808627916e+01  -3.669619608117e+01   2.536757439198e+01 
1  2.610588580168e+01   2.992481428682e+01   2.049044081279e+01 
1 -2.157502647552e+01  -4.916672338662e+00   1.819491660279e+00 
1  8.763227006149e+00   2.266258162603e+01  -8.898698834522e+00 
1 -2.256646536372e+01  -3.033040108134e+01  -1.201710085322e+01 
1 -1.041161417654e+01   9.105668679620e+00  -1.168346601782e+01 
8
Step 4000
1  3.260425099715e+01   3.459115782758e+00   4.142457206104e+01 
1  2.310574861698e+01   1.301763816540e+01  -5.817365398858e+01 
1  4.265839683282e+01  -3.708855396720e+01  -6.385533282220e+00 
1 -5.508418968500e+01   5.157632954120e+01  -7.225669872272e+00 
1  4.548671175179e+01  -2.293350783129e+01   1.718856654811e+01 
1  3.130840530594e+01   7.108777913035e+01  -1.430054012733e+01 
1  2.665962133120e+01  -2.701115501699e+01  -6.526917872584e+00 
1 -5.232133032537e+01   6.433383119985e+01  -6.064624246186e+00 
8
Step 5000
1  1.529394132827e+01  -1.154653847711e+01   1.469563379251e+01 
1 -4.578756978506e+00  -1.304836543004e+01   9.856595131942e-01 
1  1.824740345322e+01  -3.755681756137e+00  -1.012685066625e+01 
1 -4.168232585052e+01   3.287919122905e+01  -3.913591155235e+01 
1  1.649139620300e+01  -1.642483421945e+01  -1.625181224605e+01 
1  7.062431553804e-01  -4.327968345575e+00  -2.964736115686e+01 
1  2.299801114788e+01  -4.265460429285e+00  -9.693593860285e+00 
1 -4.750672385096e+01   5.468606717558e+01   4.265098191638e+00 
8
Step 6000
1  9.378035195631e+00   1.204508370502e+01  -3.411518301673e+01 
1  1.895430741019e+01  -8.278464634262e+00  -2.825847035011e+01 
1 -1.909634164260e+01   5.594295375000e+00   1.063024087203e+01 
1  4.061805413514e+00  -3.005696615001e+01  -3.201159617537e+01 
1  3.420599373340e+00   2.401394135509e+01  -7.398745771391e+00 
1  1.479390123127e+01  -1.584396673034e+00   1.493092026375e+01 
1 -1.495755091264e+00   7.536142420959e+01  -1.171410732991e+01 
1 -2.784456090389e+01   1.368606113364e+01  -1.561749355282e+01 
8
Step 7000
1  2.595192169410e+01  -2.165695701130e+01   1.127603293395e+01 
1 -2.461090990260e+00   2.259786278707e+01  -2.687392335781e+01 
1 -3.993267896994e+01   6.350851996445e+01   4.002906351160e+01 
1  5.689875117176e+01   4.944550972765e+01   1.801108808044e+01 
1 -2.155227467714e+01   5.448958805336e+01  -4.623463835851e+01 
1  4.481919234873e+01   2.671867455718e+01  -2.946300544759e+01 
1  1.701345830182e+01   4.890275958237e+01  -2.908443874774e+00 
1  6.642195503545e+00  -2.597988255218e+01  -3.784313644396e+01 
8
Step 8000
1  3.153389320551e+01   6.839042719402e+00  -9.776610840979e+00 
1 -1.630927268888e+01  -1.487696205988e+01  -4.035122138891e+01 
1 -3.273891145929e+01  -6.519621864127e+00   1.432826046743e-01 
1  4.872183443624e+01   1.716913506867e+01   6.370732412654e+01 
1  4.699531492077e+00   2.565522369514e+01  -3.714278377675e+01 
1 -1.236636957862e+01   6.388295261098e+01  -4.342500288746e+01 
1 -1.163483108463e+01   1.976775888524e+01   1.672684009147e+01 
1 -1.810892736918e+01   2.439747615521e+01  -2.878564593336e+01 
8
Step 9000
1  9.390768910033e+00  -2.320518467514e+01  -4.653614850313e+01 
1 -1.740432049224e+01  -2.087915851268e+01   6.567454899900e-01 
1  4.391917901835e+01   6.198338073777e+01   1.396631346794e+01 
1  2.358304379512e+01   3.097120785479e+01   9.105159858684e+00 
1  2.580589304818e+01   3.739661414604e+01  -4.161987117682e+01 
1 -8.988334499015e+00   3.375972389519e+01  -3.101115510453e+01 
1  1.308415875678e+01  -2.157830241636e+01   1.659775857858e+01 
1  3.631441496110e+00   5.072941187215e+01   1.690137276724e+00 
8
Step 10000
1  5.375850420432e+00   6.534225372539e+00  -2.254784424667e+01 
1  6.416406007401e-01  -2.711219737182e+01   7.595762663048e+00 
1 -1.301883098450e+00   3.231529391269e+01   5.997563089997e+00 
1  2.666930238219e+01   2.248559821634e+01   1.481045108062e+01 
1 -9.907627896203e+00   4.733286663704e+01   2.911438436220e+01 
1 -2.231010169461e+00  -1.446120653130e+00  -3.272738517665e+01 
1 -9.973362227524e+00  -2.947784155108e+01  -2.479712074298e+00 
1 -8.742238089849e+00   1.705766756463e+01   1.518287195552e+01 
8
Step 11000
1  2.811544890609e+00   4.092059277040e+01   4.788401752838e+00 
1  2.834877610010e+01  -8.961166375659e-01  -2.165768678342e+00 
1 -1.967384788734e+01   6.431700600372e+01   2.325120412060e+01 
1  9.708495313705e+01   4.357202349366e+00   4.809627201109e+01 
1  1.148322396831e+01   8.559827072580e+01   7.257643871730e+00 
1  1.850786841631e+01   3.513090201727e+01  -2.454324174019e+01 
1  2.132611306000e+01  -1.772379787861e-01   3.015801376925e+01 
1  4.971006279035e+00  -1.306068213606e+01   1.306790884517e+01 
8
Step 12000
1  4.066725552790e+01  -2.234398796587e+01   3.498620928125e+01 
1  9.291773784524e+00  -1.180117271234e+01  -7.913887444696e+00 
1 -5.149441905151e+01   4.483374618464e+01  -1.545234440770e+01 
1  3.555480917805e+01   1.456456349296e+01   2.220721634672e+01 
1 -4.546116107705e+00   2.708685693226e+01  -2.268184149560e+01 
1 -4.369811415558e+01   9.269955458093e+00   2.202859787733e+01 
1  1.675154103253e+01  -4.313697346431e+01   3.416594426913e+01 
1 -8.938996331407e+00  -6.009534097433e+01  -6.252981089765e+00 
8
Step 13000
1  5.230391932449e+01  -7.297616794243e+00  -1.780296835211e+01 
1  5.913290121992e+01   4.529884701078e+00   9.329404017584e+00 
1 -1.480540587089e+01   3.452422097884e+00  -3.533135256635e+01 
1  2.294840098185e+01   1.366331225190e+01   1.399188850509e+01 
1  4.088561050587e+01  -2.730063337187e+01  -1.876157290421e+01 
1 -2.350921529747e+01   2.363038683335e+01   3.939986400806e+01 
1  4.673074553556e+01  -4.407283453123e+00   3.007798919241e+01 
1  4.052832580970e+00  -1.935333094280e+01   1.903643003790e+01 
8
Step 14000
1 -3.147668395036e+00  -2.779896740868e+01  -3.081751158081e+01 
1  5.540459692976e+01   2.233923011896e+01   7.441633482529e+01 
1  1.675964859368e+01   1.608012319690e+01  -2.263332775763e+01 
1  1.410447576309e+01   4.079867555411e+01  -2.884898145987e+01 
1  1.617700100234e+01   2.831956152352e+01  -1.145735830236e+01 
1 -3.940665714524e+00  -3.000371882060e+01   2.278496879714e+01 
1  1.493781176207e+00  -4.230488836057e+01   3.894832809417e+01 
1  3.119057354872e+01  -2.154246784267e+01   4.363278038411e+01 
8
Step 15000
1 -3.462647240562e+01   2.645964416520e+01  -2.664787203240e+01 
1  4.909069866920e+01  -3.330291810060e+01   5.263715615986e+01 
1  1.963939413428e+01  -1.027786768439e+01   1.148897212818e+01 
1  4.699424835024e+01  -1.285587011341e+01  -7.102696829467e+00 
1  2.530771276192e+01   7.722799983951e+01   1.356238302206e+01 
1 -1.648185007427e+00   9.149197656585e+00  -6.945293170932e+00 
1 -2.635856794092e+01  -2.628619837736e+01   8.302260442561e+00 
1  7.007103691539e+01  -2.944419699959e+01   2.810535511766e+01 
8
Step 16000
1 -3.492636284460e+01  -3.348865107961e+00   2.654408334654e+00 
1  3.031866554920e+01  -5.739017589961e-01  -2.642270589125e+01 
1  3.236921795088e+01  -3.542786809447e+01   8.393576899367e-01 
1  4.661099288895e+01  -2.937942118842e+01  -3.418787798460e+01 
1 -2.552008007217e+01   2.406118199288e+01  -2.024216981371e+01 
1 -4.218338884141e+01   4.732264972221e+00  -3.846087456266e+01 
1 -1.762791800979e+00  -3.536288020833e+01   3.386955065476e+01 
1  2.952872597021e+01  -5.527513066483e+01   3.040490366834e+01 
8
Step 17000
1  1.105412476542e+01  -1.041324276344e+01  -5.850097199520e-01 
1 -4.486045818726e+00   1.035357386989e-01  -6.166749450942e+01 
1  7.558424417393e+01  -7.719895837516e+01  -6.723222215873e+00 
1 -3.435833351225e+01   1.383813002958e+00  -7.181475565944e+00 
1 -2.022058711131e+01   1.561107817210e+01  -4.404039872084e+01 
1 -1.191168572411e+01   1.717241191280e+01  -3.155527548435e+01 
1  2.035227265730e+01  -2.428021097016e+01   4.387485741623e+01 
1 -5.411508545775e+00  -7.866872089676e+01   5.001431037999e+00 
8
Step 18000
1 -2.998147855646e+00   7.043689545244e+00  -2.316720941362e+01 
1 -2.337207813821e+01   1.486863309860e+01   9.109957821921e+00 
1  6.824022099990e+01  -2.110293259959e+01  -2.528270238366e+01 
1 -1.296661395548e+01  -1.777411535760e+01   1.609076571079e+01 
1  2.997668725234e+01  -1.348468203146e+01  -3.316335658250e+01 
1  1.637263891089e+01   4.056746009398e+01   7.345385310230e+00 
1  1.544425490932e+01  -5.326554216460e+00   3.261303129066e+01 
1 -6.024063751927e+00   2.471281841201e+01  -2.372833881919e+01 
8
Step 19000
1 -9.593463636021e+00  -1.625906585463e+01  -6.971968658898e+01 
1 -3.047052296639e+01  -1.011504478157e+01   6.860595314884e+01 
1 -2.257608673012e+01  -3.257321917911e+01  -4.179117436619e+01 
1 -9.906123399701e+00  -6.490344504189e+01  -4.567084018464e+00 
1  1.035362693298e+01   3.605009831942e+01  -3.615605945101e+01 
1 -2.001739470802e+01   2.889591265960e+01  -2.129448342629e+01 
1 -4.580519781896e+01  -4.533489989930e+01  -3.198663472734e+01 
1 -2.245881731037e+01  -2.057018499311e+01  -2.328583618015e+01 
8
Step 20000
1 -2.439790813370e+00   2.065668830160e+01  -5.978097113948e+01 
1  3.327177650138e+01  -1.800561724021e+01  -1.101694055684e+01 
1 -1.186964987260e+01  -1.512710046453e+01  -2.707668944271e+01 
1 -4.086515327305e+01  -4.480409389097e+01  -3.340371144152e+01 
1  1.464174057993e+01  -5.047424447209e+00   5.246659658349e+00 
1  2.738953411390e+00   1.360239304975e+01  -1.811785316905e+01 
1 -3.405724123588e+01   3.259538949696e+01  -6.837547022255e+01 
1 -7.438998805617e+00  -3.324222641370e+01   4.076239758004e+00 
8
Step 21000
1 -1.297752338990e+01  -3.444540732174e+01  -4.153146074810e+01 
1  2.575363685435e+01   9.888012276648e-01  -3.152901652352e+01 
1 -2.340008352493e+01   1.888953148079e+01  -2.252368012767e+01 
1 -3.525601560617e+01  -3.011786202825e+01  -2.785386049788e-01 
1 -2.469171683586e+01  -5.923559102694e+01   6.706878919531e+00 
1 -3.922859393479e+01   1.196236984811e+01  -3.987848958846e+00 
1 -3.067849700457e+01   3.785371258470e+01  -2.747976154293e+01 
1 -4.718280475092e+01  -2.255439150815e+01  -1.546116414741e+01 
8
Step 22000
1 -3.562478183217e+01  -4.512787034365e+01  -3.503038456719e+01 
1  5.965109033972e+00   7.045774943457e+01  -4.474491043137e+01 
1  3.353950932362e+01   2.472412802874e+01   7.999069469356e+00 
1 -2.371595436382e+01   4.328024661420e+01   3.306455453545e+01 
1  3.039460357451e+00  -4.654133531009e+01   4.317131048686e+01 
1  2.418546733174e+01  -2.110089812935e+01  -1.553581955777e+01 
1  1.125874016768e+01   3.610584997144e+01  -7.084808376287e+00 
1 -4.837888321932e+01   6.632662519942e+01  -2.414406684202e+01 
8
Step 23000
1 -2.107973172452e+01  -1.470692424280e+01  -6.440021463093e+00 
1 -3.854736400039e+01  -1.426195426304e+01  -8.048641451899e+00 
1  1.374596602845e+01  -4.410217926773e+01  -9.875953651187e+00 
1 -5.700672310735e+01   1.873176441096e+01   2.008722141369e+00 
1 -4.005110088508e+01  -1.585514269265e+01   3.891864217724e+01 
1 -1.928339395343e+01  -3.140056438309e+01  -3.576491295443e+01 
1 -6.333742548107e+01  -9.162998716821e+00  -4.249619776738e+01 
1 -6.906137547304e+01   4.577239030015e+01  -5.320842934991e+01 
8
Step 24000
1  4.164447850056e+01   5.098205029896e+00  -4.045557253690e+00 
1 -5.425570568180e+01   3.832447279722e-01  -1.943313948518e+01 
1 -1.162329474135e+01   1.402454185009e+01  -2.521844353578e+01 
1 -1.989674765490e+01  -2.692153513160e+01  -1.132623464859e+01 
1 -1.774478346067e+01   1.395812285993e+01   5.040238876127e+01 
1 -5.147372673401e+01   1.061975544759e+00  -3.032824280545e+01 
1 -4.273395392588e+01  -3.497582672967e+01  -1.122730621488e+01 
1 -8.319600290485e+00   2.876855157596e+01  -1.340819213529e+01 
8
Step 25000
1  6.122928669860e+00   1.397242617855e+01   9.630353091683e+00 
1 -5.260812442968e+00  -3.180389976446e+00  -7.063564658895e+01 
1 -4.152389587618e+01   3.722153985967e+00   2.069721633746e+01 
1 -2.103306492164e+01  -1.142211376748e+01  -2.740708054841e+01 
1  8.740674783115e+00   2.032387099636e+00   7.781845862547e+01 
1 -5.586551900555e+01   3.526291678469e-01   4.832109932700e+01 
1 -1.328907537320e+01   3.864734181236e+01   5.149163534475e+00 
1  1.978302972643e+01   1.720072948129e+01   1.172690577000e+01 
8
Step 26000
1 -1.110562842071e+01  -1.708164445223e+01   6.956708359993e+01 
1 -2.524613434218e+00   1.580758522593e+01  -1.882079534785e+00 
1 -2.047333211555e+01   1.600783405630e+01   1.177870342041e+01 
1  7.565021044725e+00   3.728546878815e+01  -5.290901365348e-01 
1  3.480742058048e+00  -2.365939996791e+01  -1.803701525106e+01 
1  4.081593976543e+00  -5.748016191126e+00   3.376906338319e+01 
1 -3.680700380216e+01   2.388681201651e+01   8.072452617004e-01 
1 -3.150210549928e+01  -7.039123027850e+00   1.197188060026e+01 
8
Step 27000
1 -8.740169734980e+00   1.075820011122e+01   3.524039663760e+01 
1 -2.238860761238e+01  -7.135101140593e+00   3.493135123305e+01 
1  2.161920051332e+01   9.500294780054e+00  -2.394696060702e+01 
1 -2.514049730565e+01   7.130988039155e+00  -1.643569287079e+01 
1 -2.525591343911e+01  -2.669782182330e+00   5.908733567541e+00 
1 -9.396806159299e+00  -3.046301278116e+01   1.331229602669e+01 
1 -3.270943257400e+01  -9.645760759436e+00  -1.753434955620e+01 
1 -8.566445141666e+00  -3.043750068896e+01   1.630434430447e+01 
8
Step 28000
1  5.328319643870e+01   3.903124401085e+01   4.747392487104e+01 
1  1.473064384445e+01  -5.757499517550e+01   4.241920941823e+01 
1 -4.103081162133e+00  -1.255044296036e+01  -2.816271453414e+01 
1 -5.103353036680e+01   4.089995164759e+00  -5.680924685717e+01 
1  1.791635531254e+01   6.334982020981e+00   4.661422302205e+01 
1 -6.001554410714e+01  -3.708562423900e+01   6.985759269291e+00 
1 -1.708295684693e+01  -3.662227348080e+01   8.278126976490e+00 
1  1.516857826198e+01  -2.089013806532e+01   2.612522082788e+01 
8
Step 29000
1  3.227346854548e+01   3.369605277010e+01   1.905379971202e+01 
1  6.906571629302e+00  -1.630644232073e+01  -1.227474974986e+01 
1  1.242188733689e+01   6.786316889641e+01   2.222017651288e+01 
1  1.733365933620e+01   3.751091816991e+01  -1.297813024851e+01 
1  6.424644003568e+01  -4.637143425219e+01   6.589303479999e+01 
1 -1.045992055278e+01   4.961586672709e+00   3.490620373560e+01 
1  4.182734609045e+01  -2.407307822693e+01   1.822932295718e+01 
1  3.567731621366e+01  -2.035761998308e+01   6.890532579568e+01 
8
Step 30000
1 -4.885376219115e+00   1.662901571056e+01   1.026288022749e+02 
1  7.653674376477e+00  -2.178177636514e+01   5.886572321487e+00 
1 -1.237901915718e+01   4.197862314406e+00   2.919286290526e+01 
1 -7.241396938932e+00   9.018842608039e-01  -6.687720148830e+01 
1  1.547116491303e+01  -4.166844819770e+01  -2.107511476716e+01 
1 -2.049505922447e+01   5.401125931928e+00  -1.280700169461e+01 
1 -8.393796964455e+00  -6.962572364412e+01  -2.598375821918e+01 
1 -3.630125677724e-01  -2.235857977854e+01   1.008614290447e+00 
8
Step 31000
1  1.813538360346e+01   4.742206619763e+00   4.095140400835e+01 
1 -1.645566163647e+00   9.959519813495e+00   2.331484126612e+01 
1  1.995352544017e+01   9.865615769340e+00  -1.461691639048e+00 
1  5.239828861253e+01   6.689012591323e+01  -6.093792979376e+00 
1  5.025306965180e+01  -1.240778150924e+01   2.601244745478e+00 
1  2.476772971221e+01  -7.499572270200e+01  -4.613466766009e+01 
1 -5.344748447337e+00  -4.861502996662e+01  -2.345719941884e+00 
1 -2.075088358432e+00  -1.029105912584e+01  -2.796293566713e+01 
8
Step 32000
1  3.244197552431e+01   6.585744433162e+01   3.063226020695e+01 
1 -2.598728499690e+00  -3.618459002247e+01   2.639946557718e+01 
1  3.589496602591e+01  -8.578403438672e+00  -3.025135551843e+01 
1  2.330673350313e+01   2.634555883405e+01  -3.545475728856e+00 
1 -2.681935607960e+01   8.986014522727e+00   1.042556257279e+00 
1  3.282930508067e+01  -5.127103908234e+01  -2.772443790988e+01 
1 -1.911951940013e+00  -1.941721159328e+01   3.180058050897e+01 
1 -3.497470954210e+00  -2.814879099693e+01   9.627180902282e+00 
8
Step 33000
1  1.235380797394e+01   4.864896444731e+01  -7.610742658540e+00 
1  3.783393659815e+01  -3.256526169661e+01   7.418049224972e+00 
1  2.411452326346e+01   4.775720721924e+01  -3.937821318284e+01 
1  4.715318767771e+00  -4.036246409751e+00  -3.273874164000e+01 
1  3.779749790110e+01   1.599565671943e+01   3.681789581905e+01 
1  4.145564999431e+00  -3.768055951211e+01  -7.144170786873e+00 
1  1.751456845737e+01   9.168299937640e+00  -1.125855119781e+01 
1  4.276848303186e+01   2.661448035895e+01   7.161670923232e+00 
8
Step 34000
1 -7.600447949851e+01   2.527331141178e+01   3.311388646095e+01 
1  4.500849097285e+01  -1.590232079903e+01  -3.381443555800e+01 
1  1.779698511450e+01  -1.248405783600e+01   3.616250355507e+01 
1 -1.671229182571e+01  -2.501067550226e+01  -1.003411272932e+01 
1  1.097732368900e+01   1.613151577671e+01  -6.850987095022e+01 
1 -2.498287637513e+01   8.438050348548e+00  -5.923918918270e+01 
1  6.503280761999e+00  -1.182875850071e+01  -5.211027182325e+01 
1  4.023058631816e+00   1.602621883250e+01  -1.123368537689e+01 
8
Step 35000
1  1.112703527928e+01  -3.955261525977e+00   1.370042139683e+01 
1  5.662949242010e+01   4.052670843601e+01  -6.586939861826e+01 
1  3.922971278497e+01  -3.392699536118e+01   1.446602964488e+01 
1 -1.161625903785e+01   3.067009444073e+00   1.123594266158e+01 
1 -5.273089301927e+01   2.527003151424e+01  -5.289533579544e+01 
1  1.151599821818e+01   5.312926593980e+01   2.593513484843e+00 
1 -1.833733578628e+01  -3.477999838317e+01  -5.228236129582e+01 
1 -2.427133628677e+00   8.469717440536e+00  -2.167314225611e+01 
8
Step 36000
1  1.752552614659e+01   2.305850281282e+01  -5.446857546800e+01 
1 -1.955321226553e+00   2.255091288824e+01   2.514933608885e+01 
1  4.172392424688e+01  -2.847698475075e+01   2.127288669001e+01 
1 -4.960286816414e+00   3.672987432837e+01   1.544903385211e+01 
1  9.833472378972e+00   5.161835067161e+01   1.590204863367e+01 
1 -2.652391528608e+01   3.116419565383e+01  -4.969863943238e+01 
1  2.833797921584e+00   3.668140287647e+00  -1.114496176742e+01 
1  1.313026961714e+01   5.051725501901e-01   1.656858681863e+01 
8
Step 37000
1  3.480853336130e+01   3.607122289406e+01  -1.495715073229e+01 
1  1.678787142005e+00  -3.733547186471e+01  -8.819764708815e-01 
1 -1.172383255527e+00  -1.605642219323e+01  -2.038359066373e+01 
1 -3.710812865220e+01   1.777307725775e+01  -3.284204039865e+01 
1  3.091417284123e+00   7.632883205531e+01  -1.850682473056e+01 
1 -5.245073088313e+01  -1.791425718082e+01  -5.557760052981e+01 
1 -2.302081853057e+01   2.929138041853e+00   8.620453203949e+00 
1  1.054405156303e+01   5.413783463086e+01  -7.337602339643e+00 
8
Step 38000
1 -3.417333691871e+01  -1.865858800327e+00   5.558932181698e+00 
1  3.631826849642e+01  -2.052003356453e+01   3.802091175669e+01 
1 -1.807448916339e+01   4.037089981600e+01   1.583270645102e+01 
1 -2.719427868890e+00   1.269432000812e+00   2.124376221704e+01 
1  1.787479942021e+01   2.652387776302e+01  -2.728112849158e+01 
1  6.448606405472e+00   6.028546130985e-02  -3.025201826904e+01 
1 -3.635036719834e+01   1.499811155624e+01  -3.016873816104e+01 
1  4.054891857003e+00   3.345677285665e+01  -7.021623966321e+01 
8
Step 39000
1  4.139091070480e+01  -6.276007408064e+00   3.133436554499e+01 
1  3.480698563244e+01   1.820876956235e+01  -2.336414032528e+01 
1  1.538390803551e+01   4.756648402980e+01  -3.604980284388e+00 
1 -1.801520638928e-01  -4.956463885967e+00   2.481616490818e+01 
1 -1.116232135094e+01   1.290639496426e+01  -2.642583734823e+01 
1 -2.038921889864e+01   2.183272449030e+01   6.537745347983e+00 
1 -3.680311298426e+01  -6.208175109596e+00   2.747893002314e+01 
1 -3.528292881939e+01  -1.194002380007e+01  -1.833707335689e+01 
8
Step 40000
1  6.928131050512e+01   1.399906613191e+01  -3.928143327555e+00 
1  1.328449775215e+01   4.892723923069e+01   3.397852491926e+01 
1  4.546726311566e+01   2.284842840444e+01   6.671571626881e-01 
1  1.348153648838e+01  -1.131165910887e+01   3.037168935205e+01 
1 -8.213113424804e+00   1.100412345358e+01   6.594009250455e+00 
1  2.713620550998e+01  -7.903949581193e+00   4.584484611217e+01 
1  2.580876528017e+01   4.582148298394e+01   8.623511945931e+00 
1 -2.819614588167e+01   2.664823066571e+01   1.693593817534e+01 
8
Step 41000
1  3.976812621051e+01   3.061587375444e+01   3.659988653015e+01 
1 -3.060791638611e+01   3.869270533089e+01   1.076868565779e+02 
1  3.891079382364e+01   2.925928940341e+00  -8.074546553484e+01 
1 -2.008079294000e+00  -2.720242704696e+01  -2.308216799838e+01 
1 -4.087861145242e+01  -4.600191020633e+01   4.201429453163e+01 
1 -3.150987076955e+01  -3.160978450853e+01   2.219501630452e+01 
1  2.398398260253e+01   5.303158957102e+01  -1.153276611566e+01 
1 -3.239528280101e+01  -2.823492993699e+01  -4.150496049038e+01 
8
Step 42000
1  1.834131427790e+01   4.647931633492e+01   5.867634774402e+01 
1  2.625593218173e+01   1.145432703105e+00   6.353565021587e+01 
1  2.878218828172e+01  -7.127415981131e+00  -2.152564942751e+01 
1  3.987551201349e+01  -1.901693792123e+01  -1.912367770097e+01 
1  8.333516054074e+00  -1.450666855113e+01  -1.840694619467e-01 
1 -2.295332469820e+01   3.658310183564e+00   1.665657087566e+01 
1 -3.798730719775e+00   5.379575418457e+00   2.394471525477e+01 
1  5.647004223452e+01  -4.262710250615e+01  -3.158312408338e+01 
8
Step 43000
1 -5.341555646561e+00   3.501287359323e+01   3.036752154834e+01 
1  1.455560268703e+01   3.279364795248e+01   2.609668851321e+01 
1  3.044552984637e+01   2.246202442798e+01   3.686600566859e+01 
1  2.903716626139e+01  -3.404673794896e+01  -2.096587213781e+01 
1 -2.310192555426e+01   1.035738536671e+01  -1.428408772082e+01 
1  6.365299482192e+00  -2.907768756801e+01   1.131446141462e+02 
1 -1.621478300145e+01  -2.084332608123e+01   2.431194151693e+01 
1  9.015093363746e+01  -4.090262587886e+01  -1.936037276034e+01 
8
Step 44000
1  6.343525971594e+01   4.082902217379e+01   3.303928881823e+01 
1 -2.248883609648e+01  -2.483427159666e+00  -3.167751824115e+01 
1  2.958041991988e+01  -1.720214123997e+01   1.062942573904e+01 
1  1.804729277625e+01  -1.494113485273e+01   2.211129798945e+00 
1  1.386730230339e+01   9.023419067310e+00  -4.137165859557e+01 
1  6.489939385929e+00   1.048337730882e+01   6.782959208442e+01 
1  1.094998973647e+01  -2.583295954314e+01   1.639017433486e+01 
1  2.035886494634e+01  -2.909342391280e+01   7.872405118797e+00 
8
Step 45000
1  2.193664044995e+01   5.452412769707e+01   2.779992808582e+01 
1 -3.164557634550e+01  -3.754953113909e+01   3.162676823919e+01 
1 -2.245535213907e+01  -6.019658890133e+01  -4.005286651775e+01 
1 -2.080432455800e+01  -2.267677797549e+01   3.272658878039e+01 
1  3.516070757897e+01  -1.428031217342e+01  -2.448783528710e+01 
1  6.356454788719e+00   7.763884610873e+00  -2.458456467992e+00 
1  4.337589146134e+01  -7.630590187754e-01  -2.241221090491e+01 
1 -1.685222665222e+01  -5.447380529343e+01  -7.991157287562e+00 
8
Step 46000
1  1.106519933138e+01   5.212210250738e+01   5.047911809433e+01 
1  4.645524746414e+00  -3.362700665452e+01   2.887341740126e+01 
1  1.169595405226e+01  -2.880922629284e+01  -4.132588581439e+01 
1  3.420282464640e+01  -2.582987719764e+01   1.615767613658e+01 
1  1.697180266768e+01   1.424413231085e+01  -1.398828679350e+01 
1 -2.900074692262e-01  -4.525888897050e+01  -3.412925019007e+01 
1  3.616631214080e+01   1.112771503456e+01  -2.106645428233e+01 
1 -1.696692598437e+01  -4.010014100623e+01  -3.443940241120e+01 
8
Step 47000
1 -1.383892870039e+01  -1.609626097111e+01  -3.603291448873e+01 
1  1.125824665426e+01   2.860741573842e+01  -2.933904516167e+01 
1 -2.018130793375e+01   3.033456979940e+01   8.071888247941e+00 
1  3.303792847752e+00  -3.617891791085e+01  -2.209827590042e+01 
1  1.828315774039e+01   3.026847533640e+01   2.733165329823e+01 
1  2.898661267837e+01  -9.384693058597e-01  -1.133574720462e+01 
1 -6.627149500357e+00  -3.523139170950e+00   3.680598595986e+01 
1  2.271593002221e+01  -4.274660662771e+01  -1.181768126568e+01 
8
Step 48000
1 -6.543101955746e+00  -1.342887039323e+01  -1.228649196985e+01 
1 -1.300638782457e+01   6.914715901579e+00  -5.833084767272e+01 
1 -2.612851125545e+00   2.416011084331e+01   5.125885276046e+01 
1 -4.936322278584e+01  -3.057134123598e+01  -6.282451541833e+01 
1 -2.726086377269e+00  -2.052902960561e+01  -2.394965298703e+01 
1  3.007918642969e+00   5.059988466711e+00  -3.553047019249e+01 
1 -3.176960502493e+01   1.914244107685e+01  -4.173272676621e+01 
1  7.478321967651e+00  -5.420695138132e+01  -4.793333128714e+01 
8
Step 49000
1  2.285882700036e+01   1.158045766400e+00   1.072003256523e+01 
1 -3.676181196501e+01  -2.685201163594e+01  -2.733681094653e+01 
1  9.750125446680e+00  -4.048150659200e+01  -2.584868966791e+00 
1 -2.330770828088e+01   2.126730016677e+01   1.768591181458e+01 
1  8.873131598165e-01  -8.977005051072e-01  -5.534566573506e+01 
1 -1.510302631940e+01  -6.885218878085e+00  -1.209265110378e+01 
1  5.949999310566e+00   2.882261613507e+01  -8.196460841822e+01 
1 -2.582522692916e+01  -2.914001202919e+00  -1.589781238025e+01 
8
Step 50000
1 -3.413583061033e+01  -1.312218845303e+01   4.061331681497e+01 
1 -1.831475154128e+01  -3.982125376243e+01   1.581842441917e+01 
1 -3.906382466980e+01   6.102541451408e+00  -5.630019803487e+01 
1  1.448388945494e+01   6.566237324252e+01   2.803284362976e+01 
1 -1.361799008309e+01  -1.299508351060e+01  -6.229513894509e+01 
1 -7.206216395899e+00  -1.895480258094e+01  -3.802043260948e+01 
1  2.171433848877e+01  -1.126267985449e+01  -8.053446560183e+01 
1 -4.095767341720e+01   2.004427218868e+00   2.380255882161e+01 
8
Step 51000
1  4.766207702130e+00  -1.449775411744e+01  -3.815443452527e+01 
1  1.740716864789e+01  -4.495866678033e+01   1.356344190995e+01 
1 -1.511037224743e+01   5.425244312464e+01  -1.883037967881e+01 
1  1.221001045395e+01   7.385017999224e+01  -1.026240029596e+01 
1 -7.700331720371e+01   9.254537520902e+00  -5.333165903271e+01 
1 -1.191621098410e+00  -8.018148205327e+00  -4.275209807522e+01 
1  1.050909756218e+01  -2.051888694863e+01   7.294053258357e+00 
1 -1.842598393256e+01   7.326883968559e+00   3.653252456388e+01 
8
Step 52000
1 -4.746804493976e+01  -3.718269574830e+01  -5.391182072246e+00 
1 -1.011838503098e+01  -2.520823962614e+01  -2.551050579004e+01 
1 -3.263268655472e+01   1.834586945733e+01   5.156543407455e+01 
1 -7.464056994747e+01  -2.927919220194e+01  -9.571026318981e+00 
1 -4.580178689594e+01  -2.405542910763e+01  -9.671263437989e+00 
1  2.365736451462e+01   2.948843449585e+01  -7.567536760839e+01 
1 -2.052547597713e+01   1.973446947392e+01  -1.698041238104e+01 
1 -2.327494182979e+00  -1.637816360620e+01  -2.703417506835e+00 
8
Step 53000
1  1.665700130404e+01   3.177614722916e+01   1.640861808856e+01 
1  2.527457095447e+01  -7.467908577938e+01   2.483804731132e+01 
1  1.299652792347e+01   2.137104985041e+01   4.872340611486e+01 
1 -7.464553901940e+01   1.184042023422e+01  -1.392263627312e+01 
1  6.336405568928e+00  -1.949905604018e+01   1.281056432075e+00 
1 -2.024897879821e+01   1.221133666386e+00  -5.407926029192e+00 
1 -8.770751129392e-01   1.872561573285e+01  -5.009431718207e+01 
1 -2.425064838748e+01  -8.796262049641e-01   1.474172722863e+01 
8
Step 54000
1 -9.085886033534e+01   4.659140877547e-01   1.742095847347e+01 
1 -2.135742822011e+00  -4.517539943205e+01   3.333731078722e+01 
1  3.252568640182e+01  -2.668257595450e+01  -3.549279099363e+01 
1  8.815707441798e-01   3.963899927045e+01   7.098637702252e+00 
1  3.352851293088e+01  -6.201050943311e-01   4.770216488740e+01 
1 -4.695943113498e-01  -4.371883935253e+01   8.282053472140e+01 
1  1.601129997179e+01   3.139629599618e+01   6.835055410186e-01 
1 -6.793474737892e+01   4.541744182216e+01  -2.065898788194e+01 
8
Step 55000
1 -6.008547468371e+00  -1.309432738172e+01  -2.569644344397e+01 
1  4.558192057610e+01  -8.755586287932e+00   4.302483594644e+01 
1 -2.138040728824e+01   2.480451535028e+01   1.457565453726e+00 
1  1.980037708095e+01   5.192975604848e+01  -2.138296788764e+01 
1  7.961330954532e+00   2.071875789076e+01   3.318845039050e+01 
1 -2.717385895432e+01  -6.474825698102e+01   1.410343746124e+01 
1 -2.011962013372e+01  -2.174893394551e+01   5.368467461759e+01 
1 -3.610334582924e+01   1.343490772847e+01  -5.746961086627e+01 
8
Step 56000
1 -3.069834197426e+01  -2.251431579099e+01  -4.386448789489e+00 
1  2.240492660471e+01  -1.995427572912e+01  -2.730593918532e+01 