8
Step 0
1 -3.472934504792e+01   2.985585161505e+01   4.552711624413e+01 
1 -3.872914153085e+01   5.183552870333e+01   2.841252880511e+01 
1  6.597310272429e+01   3.473535297890e+01   3.212630301548e+01 
1 -6.209027598665e+01   1.844554586020e+01  -3.110501871492e+01 
1 -4.675834713363e+01   3.854789838996e+01   6.659078998682e+01 
1 -1.328434623653e+01  -5.953552595268e+01  -6.135440417252e+01 
1  6.150941286889e+01  -3.705897999201e+01   2.680974576907e+01 
1  1.897523860070e+01  -3.176705575740e+00  -2.894581516525e+01 
8
Step 1000
1  3.500355474646e+01  -3.716105809134e+01   5.311496322894e+01 
1 -5.988333318349e+00   2.967741894892e+01  -2.184094551926e+01 
1 -4.992397262495e+01   1.021480036433e+01  -1.428861571352e+01 
1 -3.561655104829e+01   1.118191944140e+01   4.323065351948e+01 
1 -6.045977610775e+01  -3.975742720429e+01  -1.085018731572e+01 
1  5.265501583688e+01   2.016472778419e+01  -3.051295156627e+01 
1 -5.539579948990e+01   4.282801317115e+01   4.647840922326e+01 
1  2.930771912610e+01  -7.356890138363e+00   3.157408100686e+01 
8
Step 2000
1 -3.575195768459e+01   5.544944612308e+01  -3.682897096124e+01 
1 -3.719105725226e+01   3.113817702588e+01   7.611138234080e+01 
1  4.908855217921e+01   3.614301043788e+01   3.794815517757e+01 
1 -5.336550639823e+01  -2.662821294470e+01  -3.077202279144e+01 
1 -2.896997369650e+01  -9.022066955884e+00   1.590119648210e+01 
1 -1.474228182235e+01  -5.585221223497e+01  -2.996284830411e+01 
1  3.865198501056e+01   1.634651324652e+01  -7.671509443152e-01 
1 -2.231353807122e+01   5.214356882033e+01   3.049730055050e+01 
8
Step 3000
1  7.512091410174e-01   2.471129907083e+01   4.113781281187e+01 
1 -2.851561173993e+01   6.433965330680e+01  -1.507364156498e+01 
1 -7.635345611147e+00  -2.198290742701e+01  -2.273883827343e+01 
1  1.385630298925e+00   3.087020657456e+01   4.737243310245e+01 
1  1.131838653376e+01  -2.700431226103e+01   2.690589307119e+01 
1 -1.302390819668e+01   8.290593196497e+01  -2.472995469492e+01 
1 -1.268795891227e+01  -1.988265781276e+01   2.317751703011e+01 
1 -7.579304452650e+00   2.226071085122e+01   1.498017235430e+01 
8
Step 4000
1 -5.792512861102e+01   1.677562326020e+01  -1.584558748755e+01 
1 -2.184603714195e+01   7.063006651250e+00   3.461347173907e+01 
1  2.381515217225e+01  -8.244101898532e+00  -2.486257990647e+01 
1 -7.522586494932e+01   2.799165820739e+01   1.166647949161e+01 
1 -1.221849537435e+01  -3.024409284931e+01  -8.077362946335e-01 
1 -2.136250120109e+00  -3.093253764885e+01   2.115538124107e+01 
1  3.342386138916e+01  -1.578707225981e+01   3.672074801012e-01 
1  3.826631639440e+00  -2.818405357177e+01   2.303296384520e+01 
8
Step 5000
1  2.130496048971e+01  -4.840684347306e+01   2.989007951446e+00 
1 -2.505653960345e+01   2.870181716786e+01   6.315043175698e+01 
1  2.086147034371e+01  -4.947169599538e+01  -9.035856675593e+00 
1 -3.065466375078e+01  -3.134757754893e+00   2.301995239307e+00 
1  2.194737396170e+01   9.207615923958e+00   1.001948183518e+01 
1  9.596342784999e+00   3.883879708386e+01  -3.874895478181e+01 
1  2.957616971281e+01  -3.006455948306e+01   2.229391788103e+01 
1 -2.103532449350e+01   4.709589333753e+01   2.973777418195e+01 
8
Step 6000
1  1.012937350520e+01   3.310112649883e+01   6.198513033330e+00 
1 -3.252824654143e+01  -6.884980057238e+00   2.052336594055e+01 
1  8.387643445958e+00  -2.074959289503e+01  -4.106046410859e+00 
1 -3.501892067907e+01   1.739939785264e+01   8.249167964543e+01 
1  1.641320435424e+01  -5.877362808556e+01  -8.285435855546e+00 
1  9.973269733556e+00   1.299454103588e+01  -3.567959249612e+01 
1 -3.237267819964e-01   8.194548897211e+00   1.737445322171e-01 
1  1.751853032819e+01   1.868366010494e+01   1.938618516117e+00 
8
Step 7000
1 -3.346960561440e+01   2.749478004317e+01  -1.707459468054e+01 
1  2.455245393078e+00   9.495775669938e+00  -2.011791622279e+00 
1  4.134406270569e+01  -2.280384563845e+01   2.218871382888e+01 
1 -1.031962695439e+01  -4.230328768326e+01  -7.463914199182e+00 
1 -1.542376599684e+01   2.072665286896e+01  -2.757753593745e+00 
1  1.822093916487e+01  -2.179290582600e+01   6.861134939081e+00 
1  1.434204081374e+01   2.395308112294e+01   3.272379782935e+01 
1 -5.481927027258e+01   2.209415388519e+01   9.471838514279e+00 
8
Step 8000
1 -4.599184310533e+01   4.206385419988e+01   1.870626825721e+00 
1 -4.027641795727e+01  -9.293293239169e+00   3.963119117327e+00 
1  1.198802310206e+01  -2.276354614760e+00   4.014430967562e+01 
1  2.248286380783e+01  -1.894709888104e+01   2.063377609906e+01 
1  1.583404621846e+01  -2.651760071872e+01   4.767858214989e+01 
1  3.704230517656e+01   1.531995520732e+01  -3.406832713717e+01 
1 -1.245126179494e+00  -9.108983110296e+00   8.445131713848e+00 
1 -8.355492496249e+00  -1.564859016670e+01  -3.686126634735e+01 
8
Step 9000
1  1.304396394969e+01  -2.936104843190e+01  -3.699383680535e+00 
1  2.183437240568e+01  -2.911343041831e+00  -3.184836250058e+01 
1  6.379289917118e+00  -1.692255853259e+01   3.489615704962e+01 
1 -4.642791089559e+00   2.175560467160e+00   1.971762424130e+01 
1 -2.023255748279e+01   1.705116722591e+01  -2.253606975628e+01 
1  2.264226294286e+01  -1.462495851536e+01   2.302544350184e-01 
1  2.229513273684e+01   3.094777479936e+01   1.795380838459e+01 
1  2.601848879655e+01  -6.173872436530e+01   1.207686823255e+01 
8
Step 10000
1 -3.339960130602e+01  -3.151541933776e+01  -1.712121434635e+01 
1 -9.979727949879e+00  -2.642810932587e+01   2.139487637323e+01 
1  2.066177493580e+01  -1.835253174198e+01   3.899970029955e+01 
1  2.144380185134e+01  -5.256569509857e+01  -4.502585903396e+01 
1 -2.775998931194e+01   4.395857492310e+00   2.427214880803e+01 
1 -1.471882498055e+01  -2.361506126653e+01  -2.467711433794e+01 
1  4.782739651591e+00  -7.300736930832e+00   8.022891343801e+00 
1  3.814118990336e+01   9.872298613003e+00  -1.865071006675e+01 
8
Step 11000
1  4.190660087717e+01  -3.284308417993e+00   2.911047527910e+00 
1  2.815918817208e+01  -1.402051264310e+01  -2.734255773243e+01 
1  1.437266168544e+01  -1.334189930917e+01   1.591321537551e+01 
1  5.256276014128e+00   4.499642324342e+01   7.054000515269e+01 
1  2.889209490418e+01  -7.089670820639e+00  -1.494933222559e+01 
1  3.046356789215e+01   4.846056984566e+01  -2.624816711318e+01 
1  1.808206017041e+01   1.414413951645e+01   4.988866361551e-01 
1 -2.013978966341e+01  -2.366186744834e+01  -2.929594861647e+01 
8
Step 12000
1 -4.371862045191e+01   2.534525106617e+01  -5.329099568057e+01 
1 -2.949936220084e+01   3.322368075348e+01   1.027733279358e+01 
1  1.812955307661e+01  -3.729974910677e+01   4.811598778697e+00 
1  2.130872920435e+01  -7.580260982560e+01   2.548388522820e+01 
1  1.502217505712e+01  -2.035989819433e+01   1.948219946818e+01 
1  1.886395193974e+00  -2.924661684984e+01   4.973238931036e+00 
1 -1.165119321891e+01  -9.441656351004e+00  -9.802260587372e+00 
1 -7.820255083164e+00   4.848681184238e+00  -1.605143626307e+01 
8
Step 13000
1  2.836410469654e+01  -4.879061677766e+00  -4.353311679949e+01 
1  2.081915546252e+01  -4.655618611338e+01  -2.785557378785e+01 
1  5.520015838047e+01  -5.969069822403e+00   2.291934948455e+01 
1 -7.866171606810e+00   2.578532441243e+01   1.146347531630e+01 
1  3.178892770727e+01  -4.550102053002e+01  -3.697195522370e+01 
1 -3.806376160569e-01  -5.254538012838e+00  -3.533789872103e+01 
1  2.302020063516e+01  -5.125283500187e+01   2.228084937355e+01 
1 -2.096508565805e+01   2.770908221520e+01   1.642784574007e+01 
8
Step 14000
1 -1.222612476425e+01  -3.265888322128e+01   2.887918008739e+01 
1  2.132668167029e+01  -2.431162286994e+01  -6.552291078865e+00 
1  1.930909635760e+01  -7.140906239319e+00  -3.349691699959e+01 
1  1.254213090751e+01  -1.251425301357e+01   3.679764629331e+01 
1 -2.404137380283e+00  -1.767208083804e+01   5.174098504448e+00 
1 -8.885354523391e+00   4.563816993451e+01  -8.266189289532e-01 
1  4.114492258245e+01  -2.451321437499e+01  -2.023640076802e+01 
1  1.777514458639e+00  -3.186628993459e+01  -4.290247980123e+01 
8
Step 15000
1  6.004328431019e+01  -3.923053718865e+01  -4.498689538104e+01 
1  2.708492922835e+01  -5.520858586802e+01  -6.746619798543e+00 
1  3.729156950651e+01   1.780922650216e+01   2.392789772016e+01 
1  9.718347153820e+00   9.228015479782e+00  -3.260725304402e+01 
1  1.093222515008e+01   3.224571069979e+01  -2.353963966088e+00 
1  1.913896810734e+01  -2.470805413280e+01  -9.137019677073e+00 
1  7.305914279910e+00  -3.097870166866e+01  -1.590125904029e+01 
1 -1.566762634008e+01   1.277458613420e+01  -1.570139192712e+01 
8
Step 16000
1 -3.372528183585e+01   2.540989363209e+01   9.694175129041e+00 
1  4.482771602605e+01   1.938317097926e+01  -3.402636982690e+01 
1 -3.668415239914e+01  -3.174764631069e+01   6.452353195477e+00 
1  4.055181228225e+01  -2.365045927546e+01   4.962791526870e+01 
1  1.405505104088e+01  -2.019613892211e+01   5.944650534977e+00 
1 -3.786922483626e+01   3.193031648562e+01  -4.126044421537e+01 
1  1.425996213389e+01  -2.335814633838e+01  -1.188980711966e+01 
1 -2.075598494605e+01  -1.279475728451e+01  -3.769603554347e+01 
8
Step 17000
1  4.500489484676e+01   4.719059542968e+00  -3.464541371286e+01 
1  1.993474105529e+01   1.326143901739e+00  -3.475706950890e+01 
1 -6.410791790247e+00   4.502845254195e+01   1.559897558285e+01 
1  5.444254153686e+01   1.065895604468e+01  -3.018520136140e+01 
1 -1.440040190692e-01   2.286859365773e+01   2.697822278375e+01 
1  5.078521500488e+01  -3.875980302329e+01  -2.009169750547e+01 
1 -7.072256200707e+00   3.229861198707e+00   1.263886482006e+01 
1 -1.287813695771e+00  -3.595478815126e+01  -1.579867248934e+01 
8
Step 18000
1 -2.464260789789e+01  -1.894688930116e+01  -1.959439756917e+01 
1  4.070897179652e+01  -2.607333459648e+01  -1.934688478258e+01 
1 -1.396039985760e+01  -2.002309882136e+01   1.246100277182e+01 
1 -3.048278167544e+01  -1.418353638785e+01  -3.291722802192e+01 
1 -1.401994593323e+01  -1.468583357555e+01  -2.850683054402e+01 
1  3.000931319152e+01  -4.888000386343e+01   9.038380432077e+00 
1 -1.479327836147e+01  -1.697267765065e+01   7.090506957922e+00 
1 -2.789981875992e+01  -6.810407659481e+00  -9.688352175973e+00 
8
Step 19000
1  9.904063171985e+01  -5.707562817100e+01   8.451784604996e+00 
1 -1.437633244415e+01  -4.301028129593e+01  -4.889220152005e+01 
1 -2.898136217713e+01   8.131067147530e+01   1.203918151261e+01 
1  8.321078132793e+01   4.069523136027e+01   1.522597081311e+01 
1  2.079043935038e+01   5.869447324512e+01   1.017441810589e+01 
1  3.950303565913e+01   6.312372055695e+01  -3.289931484045e+01 
1 -2.227658624781e-01  -9.827219239212e-01   9.477548369766e+00 
1  3.623277327921e+00  -8.627187693250e+01  -5.777212004933e+01 
8
Step 20000
1 -1.596119647434e+01   2.462083973169e+01  -1.067852210781e+01 
1  2.439366608172e+01  -7.014435647768e+00   7.056633264457e-01 
1 -3.015714583218e+01   1.203790368789e+01   2.835290099733e+01 
1 -1.982166362640e+01  -1.706968205845e+01  -1.037993993360e+01 
1 -1.367055916576e+01   2.896996364217e+01  -1.839782139995e+01 
1  4.654769005072e+00  -2.006600219898e+01   2.049270975034e+01 
1 -9.468521975143e+00  -1.743089093998e+01  -1.933979529031e+01 
1 -7.440586256192e+00   1.996331578346e+01  -2.510105861056e+01 
8
Step 21000
1  5.337752995905e+01  -1.042901051122e+01  -1.166934205634e+01 
1  2.354298292051e+00  -6.336365326493e+00  -2.422050017164e+01 
1 -3.739668078300e+01   3.363475484193e+01  -4.636166992022e+01 
1  5.030701606465e+01   2.154031898661e+00  -1.501369406292e+01 
1 -1.400598025064e+01  -9.771021423248e+00  -2.319905609422e+01 
1 -3.046539478176e+01   2.441779456629e+01   3.605020476927e+01 
1  3.785491025209e+01  -4.310646656033e+01   3.242762099368e+01 
1 -2.666203739686e+01   1.830715044403e+01  -2.676799033787e+01 
8
Step 22000
1 -2.047713616889e+01   1.468015245235e+01   6.922359538361e+00 
1  2.766845600224e+01   2.022204385413e+01  -1.981282320512e+01 
1 -6.930293469455e+01   2.135930306594e+01   2.026132101195e+01 
1  2.371768812884e+01  -4.371208019911e+01   2.238307294475e+01 
1  1.683647288321e+01   1.834830583709e+01  -4.042197081987e+00 
1  1.174763311459e+01   1.754745792656e+01   1.735042858330e+01 
1 -5.485918118599e+00  -2.690964063827e-01  -1.296333771811e+00 
1 -4.203124850776e+01  -1.189341122388e+01  -2.617167330798e+00 
8
Step 23000
1  2.369440195643e+01  -8.145475854868e+01  -4.318955411555e+01 
1 -1.563316640759e+01  -1.877927420938e+01   1.275617181155e+01 
1 -2.097758403352e+01   4.488129069647e+01  -2.646104072603e+01 
1  3.783852775159e+01   5.831050756438e+01  -5.049216391054e+01 
1  2.822276052643e+00  -3.585382774323e+00  -1.062040153976e+01 
1 -3.793238691565e+01   1.567306257778e+01   2.358005561607e+01 
1  4.550096177451e+01  -6.547725170199e+01   1.762016259433e+01 
1 -4.022816077654e+00  -1.111297885287e+01   3.212528058614e+01 
8
Step 24000
1 -9.296334444324e+00  -1.038097058007e+00   5.197873199566e+01 
1 -9.464786420570e+00   1.451630714362e+00  -3.397063621202e+01 
1 -5.658592883172e+01   5.955228097216e+00  -1.146921425563e+01 
1  1.202196825009e+01  -4.295911734327e+00   3.029505227227e+01 
1 -3.020570557310e+01  -1.722386877348e+01   7.591218179121e+00 
1  2.523553299493e+01   2.982138185297e+01  -2.231044313153e+01 
1 -1.600049586246e+01   4.834838289205e+01   1.813401872765e+01 
1 -4.512067173826e+01  -1.252048240126e+01  -4.463917045984e+01 
8
Step 25000
1 -5.424097536886e+01   4.033366965660e+01  -2.867293376586e+01 
1  8.330085024675e+01  -1.248261283974e+01   3.775042038616e+01 
1 -1.653783603005e+01   3.702116259784e+01  -1.148653306172e+01 
1  2.109608649871e+01   2.526510380507e+01  -5.775587277621e+01 
1 -2.761689554055e+00   5.117253589855e+01   2.407684123562e+01 
1 -5.115620137317e+00   9.277197840839e+00   3.277948110748e+01 
1  1.775587297425e+00   1.018101618190e+01   2.614021756474e+01 
1  3.162925742071e+01   3.194780858743e+01   2.358633782723e+01 
8
Step 26000
1  4.445293275245e+00   3.417545483118e-01   2.402702839748e+01 
1 -3.807510416974e+01   3.193507501034e+01  -3.877192697171e+01 
1 -2.184853720672e+01   3.435209263587e+00  -4.022562364460e+01 
1  4.590388359734e+00  -1.776564019359e+01  -9.023440790846e+00 
1 -1.599703077304e+01  -3.871508516558e+01   3.025016177538e+01 
1  6.351192850012e+00   1.489294236097e+01  -5.913952833282e+00 
1 -7.937548179712e+00   1.283438309179e+01   5.398763947937e+01 
1 -4.933271549697e+01   1.084108914537e+00   2.390255081655e+00 
8
Step 27000
1 -8.754025729932e+01   2.570379892623e+00   7.371140589792e+00 
1  5.771234532461e+01  -1.841812096364e+01   3.138609692246e+00 
1 -5.506896931697e+01   1.844968105940e+01  -1.236241654561e+01 
1  3.873330540991e+01   6.304232052950e+00  -1.929571196415e+01 
1 -7.810094872264e+00   5.742134722011e+01   1.520887591235e+01 
1 -9.392312143719e+00  -1.781954550842e+01   2.422822656966e+01 
1 -3.280277913469e+01   2.126018026897e+00   1.720191377944e+01 
1  1.629613090171e+01  -3.246368659557e+01   2.794402504557e+01 
8
Step 28000
1  2.296089160878e+01  -2.535134689686e+01   4.554346599029e+01 
1 -2.641653548388e+01   4.286794805698e+01   1.687012317147e+01 
1 -3.364832951596e+01   1.463666249333e+01  -1.315738942181e+00 
1 -3.894045846761e+01  -6.612339800063e+00  -3.577475269922e+01 
1 -6.053052062872e+00   2.083050333143e+01   2.611077737361e+01 
1  1.970231242091e+01   2.472606578154e+01   1.954402317403e+01 
1  1.872304198065e+01   3.996769624056e+00   6.837090324778e-01 
1 -8.922221874855e+00   3.346008053791e+01   2.715549489196e+00 
8
Step 29000
1 -1.020334760412e+01   1.445920616496e+01   2.850914204481e+01 
1  4.702431823139e+01  -9.808197847264e+00  -2.790788870283e+01 
1 -2.867452069151e+01  -1.564530003948e+01  -6.942992273955e+00 
1  2.079902451502e+00   9.233227736716e-01  -3.575540214443e+01 
1 -1.555441770523e+01  -4.017582571112e-02  -3.381727106911e+00 
1 -3.087639363956e+01   1.841579603714e+01   8.052190387560e+00 
1  5.725016865514e+00   1.963600087665e+01   3.051545611522e+01 
1 -1.704687218032e+01  -1.080275070581e+01   2.753353304388e+00 
8
Step 30000
1 -5.721985587905e+00   6.042735533743e+01   7.455216053396e+01 
1 -8.798430348011e+00   1.366435186385e+00   2.498540817924e+01 
1 -5.013959340862e+01   2.022529478269e+01  -1.025083026486e+01 
1  4.445845958152e+00  -4.925518108546e+00   3.752654514431e+00 
1  3.082434161429e+01   2.631732334435e+01   1.076721661822e+01 
1  1.880230847896e+01   7.555476411399e+01   4.485681079037e+01 
1 -1.426286770417e+01  -1.815243882500e+01  -2.890027601222e+00 
1 -9.998315626685e+00   2.678769867343e+01   3.069281795027e+01 
8
Step 31000
1  1.406801893071e+01   3.319918202531e+01   1.638789383726e+01 
1 -1.544626498521e+01   3.631229954161e+00  -2.546926165161e+01 
1  1.162050013394e+01  -2.827422140954e+01  -4.153116185263e+00 
1  3.920761181155e+00   1.634556217270e+01  -4.050805514749e+01 
1 -3.314780089372e+01   7.763713389431e+00   2.439938693638e+01 
1 -1.156403115994e+01  -2.642574294441e+00   4.238582620538e+01 
1 -2.923387151802e+00  -2.855839336933e+01   4.493427156571e+01 
1 -5.026488494104e+00   2.043183565349e+01   3.186442722535e+01 
8
Step 32000
1  6.618186424909e+00  -4.686216805325e+00   7.401088158678e+01 
1  2.378258802612e+01   7.324416693985e+00   1.662192295657e+01 
1 -1.081033376728e+02   3.693502079800e+01  -3.834109847992e+01 
1 -2.751820543495e+01  -3.919364665270e+01  -1.197884426768e+01 
1  6.159059550368e+00  -4.963062288729e+01  -2.093213917003e+01 
1 -3.376781893493e+00   1.612233974848e+01   2.017011572945e+01 
1  1.900126280932e+01  -2.079639306537e+01  -7.285182646058e-01 
1 -3.828008882547e+01   5.840510095732e+00  -6.820882037746e+00 
8
Step 33000
1  1.845650809233e+01   6.035814764818e+00  -1.820378012091e+00 
1 -2.900616601160e+01   1.837484143413e+01   7.309352115953e+01 
1 -2.247283541310e+01  -1.681556648128e+01   2.274270841510e+01 
1  1.680522667942e+01  -1.408122925221e+01  -3.290003507151e+00 
1  2.127652650394e+00   3.117526671028e+01   2.046096175924e+01 
1  5.756876104710e+00   7.605598099213e+01   8.363640406703e-01 
1 -2.699834076249e+01  -2.323918185367e+01  -8.575780120067e+00 
1  1.012562407693e+01   2.383049100923e+01  -3.510768118499e+00 
8
Step 34000
1  2.980492152740e+01  -1.228067231880e+01   5.999823913662e+01 
1  3.336107401778e+01   1.341027254335e+01   1.039380221411e+01 
1 -1.663314864092e+01   3.183638422276e+01  -1.012151241089e+01 
1 -1.492229258688e+01   4.434569623404e+01  -3.748429032224e+01 
1 -1.682292871224e+01   2.111262106914e+01  -1.327361973780e+01 
1  8.060620154047e+00  -4.498876611285e+01   1.327477173787e+01 
1  3.208658465164e+01   3.664526354357e+01   3.515974047616e+01 
1  2.148186831608e+01   1.723519834901e+01   1.684945028448e+01 
8
Step 35000
1 -3.643093877030e+01   4.595243420241e+01  -2.497990315780e+01 
1  2.993911624646e+01  -2.242388771896e+00   2.800775179608e+01 
1 -2.882252071289e+01  -2.458120328597e+01   5.882139281559e-01 
1 -2.236817214118e+01  -5.535439338328e+01  -1.542233838303e+00 
1 -8.015615783499e+00  -1.301238393389e+01   3.153021814037e+01 
1 -3.620849420347e+01   3.474080861024e+01   2.643837022561e+01 
1 -3.483378577353e+01  -2.123968909504e+01   1.468239381790e+01 
1 -1.031436233396e+00  -1.924320171396e+01   3.827333878398e+00 
8
Step 36000
1  5.808604800194e+00   1.277403096113e+01   2.316321002552e+01 
1 -2.495465225581e+01   2.588375745688e+01   4.231332284117e+01 
1  3.684696195945e+01  -3.995465339678e-01   1.369669610343e+01 
1 -1.012975635348e+01   3.369549523794e+01  -3.151428141253e+01 
1 -2.183548840002e+01  -6.494645629663e+00   3.402156090695e+01 
1  3.005299318148e+01  -4.313694381584e+01  -9.976348998783e-01 
1  8.081853606052e+00   4.125084730654e+00   1.399548517215e+01 
1  4.954697581983e+01   4.828738726179e+01   3.064003836278e+01 
8
Step 37000
1 -3.917567154874e+01   1.203413392240e+00   1.627505277453e+00 
1  6.660209776096e+01  -1.875236925728e+01  -2.563381144117e+01 
1  2.018895133091e+01  -1.715353466831e+01   1.761148296899e+01 
1 -3.945458666461e+01  -1.111371807951e+01  -4.798541735648e+00 
1 -1.088948550789e+01  -3.354085008455e+01  -2.320144970471e+01 
1 -1.243053515326e+01  -1.993314081396e+01  -3.584560087353e+01 
1 -1.605815256946e+01   1.782493885803e+01  -3.415076132200e+00 
1 -2.378650400558e+01  -2.883888458740e+01   1.266319897236e+01 
8
Step 38000
1 -1.224740026263e+01  -5.019919207453e+01  -7.377204954489e+00 
1 -1.124382816427e+01   5.343770165211e+01   9.219098484504e+01 
1  3.012645530672e+01  -2.877163449341e+01   2.981354349604e+01 
1  1.955260444632e+01   1.987782826267e+01  -3.055196737183e+01 
1  2.640297396569e+01   3.740545414865e+01   2.601909144523e+01 
1 -9.381651049135e+00   4.977555634269e+01  -3.516940598835e+01 
1 -1.339412140371e+01  -3.936598272773e+01  -8.071101689195e+01 
1  4.844333542952e+01   1.692179375162e+01   2.298000251472e+01 
8
Step 39000
1 -2.401004947468e+01   1.134787545443e+01  -8.832417910371e+00 
1  1.472663125275e+01   1.369442199595e+01  -2.134197179309e+01 
1  4.590858663234e+01   1.757957353795e+01   8.533143768453e+00 
1 -8.839458127055e+00  -1.929288017247e+01   5.865957941600e+01 
1 -5.403779205786e+01  -2.094713097629e+01  -9.662621520138e+00 
1  2.405794121704e+01  -9.857819397160e+00  -5.014308012396e-01 
1  4.477004946618e+01   1.246358091393e+00   2.428420745933e+01 
1 -1.751216961100e+01   3.007513895976e+01   1.739160621975e+01 
8
Step 40000
1 -2.264892038403e+01   1.809506110947e+01  -1.092873774122e+01 
1  1.385480341632e+01  -1.634051314166e+01   3.179574502079e+01 
1 -1.627359416955e-01  -7.335255948762e+01  -2.656962873502e+01 
1  1.498186218951e+01  -4.785970269224e+01   7.273770458846e-01 
1  3.293317039933e+01  -3.833158011173e+01   3.407747518961e+01 
1 -7.114548639320e+01   4.881764020314e+01  -7.234322651925e+00 
1  7.792467157590e+00  -2.088735404979e+01  -4.334739311574e+01 
1  7.024488113894e+01  -9.843719992050e+00  -9.551159520287e+00 
8
Step 41000
1 -1.731445528881e+01   3.591384560179e+00   6.320430455089e+00 
1 -5.113434926763e+01  -1.922603878264e+01  -2.999485028171e-01 
1  3.046354975537e+01  -3.080688105981e+01   9.950058977945e+00 
1 -1.711725612871e+01  -1.259278167518e+01   1.804062872556e+01 
1 -1.118708558666e+01   8.740322022081e-01  -1.605771866476e+01 
1 -3.642342849598e+00  -1.180750553394e+01  -2.066742570135e+01 
1 -5.604019581794e+00  -4.027631433242e+01  -2.759918788502e+01 
1 -2.728373089931e+01   2.357906815846e+01   1.121535446484e+01 
8
Step 42000
1  4.759831678259e+01  -2.519619398874e+01   9.134755326835e+00 
1  1.191474568998e+01  -3.289087595105e+01   9.957771437360e+00 
1  2.400493259907e+01   3.407739279391e+01  -2.480926639783e+00 
1  1.524743707812e+01  -9.581098531840e+00   2.191159920488e+01 
1  7.987435517752e+00  -5.784333452190e+00  -3.804969696812e+00 
1  8.511475185141e+00   2.870119378234e+01  -1.551907943663e+01 
1  1.807097262206e+01  -5.469215928332e+00   7.851007008407e+00 
1  5.054872521365e+01   2.075321737439e+01  -7.163909730708e+01 
8
Step 43000
1  3.572358437818e+01  -1.566369513576e+01  -2.368721508456e+01 
1 -4.219796746012e+00   3.102482110985e+00   3.189853604141e+01 
1 -4.947145241040e+01  -1.853958234632e+01  -1.409233166592e+01 
1 -4.491154543022e+01  -5.564075978178e+00  -1.654655372616e+01 
1  2.757031060917e+01  -1.158966033780e+01   3.588064157817e+01 
1 -3.197235975805e+01   1.016270109149e+01  -2.721939318049e+01 
1 -3.164179277282e+01  -1.412637066577e+01  -7.384326925106e+01 
1  2.520893059771e+01  -4.391114615848e+01   1.247155714968e+01 
8
Step 44000
1 -9.949322029518e+00  -3.493799284179e+01  -2.761664724220e+01 
1 -4.801733324688e+01  -1.959241166448e+00  -2.759587773818e+01 
1  8.280142251475e+01  -9.964380457241e+00   6.048015623982e+01 
1 -1.262371814865e+01  -1.062882757538e+01   2.951494689319e+01 
1  9.377996102828e+00   1.975609430858e+01   4.652602495775e+01 
1  6.272380148474e+01  -2.210653612190e-01   1.486724580015e+01 
1  2.323588976956e+01   4.207488893766e+01   6.290148715283e+00 
1  2.408823507050e+01   4.011566797067e+01  -3.821237467773e+01 
8
Step 45000
1  2.788889559695e+01  -3.690154486883e+01  -6.199417003362e+01 
1 -4.954339288848e+00   1.946955264239e+01   1.640010732959e+01 
1 -3.309095902088e+01  -2.540091029668e+01  -2.140457918529e+01 
1 -3.822766166066e+01  -3.116691931346e+01  -3.955606170862e+01 
1  2.046332532842e+01  -2.628773274548e+01   3.307317230560e+01 
1 -6.258928462420e+01   2.699658759828e+00  -5.428738330681e+01 
1 -4.364174243882e+01  -1.742376182824e+01  -2.187490267611e+01 
1  4.255792724060e+01  -5.645956703331e+01   4.802697562676e+01 
8
Step 46000
1  8.243851432846e-01  -1.198982222298e+01   9.387060915319e+00 
1 -2.579022016116e+01  -3.281448975523e+01   3.751715533881e+00 
1  3.563511169404e+01  -3.854191055595e+01   1.062125387177e+00 
1 -5.545342810712e+00   2.046157009946e+01   3.594357910141e+00 
1  1.243124432244e+01  -4.797509463957e-01  -3.531912263936e+00 
1  9.741736002538e+00  -1.450935453409e+01  -1.635450998240e+01 
1  1.208402110791e+01  -4.357773637887e-01  -6.260032896451e+01 
1  1.587121773456e+01  -6.319143501754e-01  -3.316012015901e+01 
8
Step 47000
1  2.683100875618e+01  -1.937518654066e+01  -2.459054071358e+01 
1  2.826059466820e+01   4.131405591010e+01  -5.721116574344e+00 
1  2.095561711637e+01   9.361437974403e+00   2.243391719055e+01 
1 -3.334763441079e+01   4.487142410708e+01   5.232604926113e-02 
1  1.131967141001e+01  -2.069694742607e+01   4.624112605021e+01 
1  3.852552243047e+00  -3.377141886489e+01  -4.519302858734e+01 
1 -1.532587684016e+01   1.752862483844e+01  -2.241764166423e+01 
1  3.585403959111e+00   3.554121057536e+01   4.962070462337e+00 
8
Step 48000
1  9.348844821985e+00   3.114096102326e+00  -6.647678261865e+01 
1 -7.684247079718e-01  -3.663518089868e+01  -7.739379380793e-02 
1 -2.578788160012e+01  -1.610026666985e+01  -3.260465649985e+01 
1 -1.916752961535e+00   1.611220602882e+01   5.149196426162e+01 
1  1.626788375509e+01  -1.257027793792e+01  -1.835131767187e+01 
1 -2.816005559496e+01   2.406650531950e+00  -1.691554208881e+01 
1  2.495023935669e+01  -3.115155848119e+01  -1.357469864534e+01 
1  6.652394127087e+01   1.628441801075e+01   3.153452803299e+01 
8
Step 49000
1 -2.673784882947e+01  -1.810251107947e+01  -2.641519140640e+01 
1 -4.416008804599e+01  -1.241203507090e+00  -2.292707665875e+01 
1  3.830546812514e+01   1.250985272420e+01   3.855095359809e+01 
1 -7.266643912088e+00   9.738563823346e+00   3.277950195808e+01 
1 -6.815501192964e+00  -8.869357586621e+00   9.500126694831e+00 
1  2.143633791617e+01  -1.470727020825e+01  -6.675077907831e+01 
1 -4.966794861234e+01  -3.698741446631e+01   1.640630056354e+00 
1 -4.142058180765e+01   3.120960088849e+01   5.723006214764e+00 
8
Step 50000
1 -1.091155699492e+01   3.323440286346e+01  -2.008736651214e+01 
1  3.296793154968e+01   1.836505397658e+01  -2.295292522040e+01 
1  7.729826764438e+00   1.585175491664e+01  -1.518539607804e+01 
1 -1.938515118253e+01   3.812934125061e+00   1.003708411712e+01 
1 -2.100006363212e+00  -3.223899018837e+01   4.887976041085e+00 
1 -1.229021710706e+01   7.642540199824e+00  -1.410039522533e+01 
1  3.989555890671e+01  -1.742686281444e+01   1.621380280114e+01 
1  3.199955632369e+01   2.618073951666e+00   4.055595456608e+01 
8
Step 51000
1  3.243898879368e+01   6.742670824358e+01  -2.513734951144e+01 
1 -5.084649584308e+01  -1.826000457036e+01  -9.972623732371e+00 
1  6.052664935539e+01   1.101922340572e+01   5.877730353016e-01 
1  9.096951430974e+00  -2.939055269905e+01   2.817689189908e+01 
1  1.400857472626e+00   1.448342764657e+01   1.529160663112e+00 
1 -3.635789987987e+01  -2.961180693270e+01  -6.091234670439e+01 
1 -6.668759653572e+01  -6.027352848572e+01  -3.380831264124e+01 
1 -1.642216067201e+01   2.900724850788e+01  -5.660247371403e+01 
8
Step 52000
1 -1.425595523459e+01   2.490517586714e+01   8.818566231583e+00 
1 -1.311623263765e+01   1.299955088107e+01  -2.238919298844e+01 
1  1.735502490689e+01   3.456760877483e+01   1.195700425600e+00 
1 -4.172766793286e+00   2.779180961841e+01   1.183193960354e+01 
1  2.097755496685e+01   1.348639038820e+01   2.456283895272e+01 
1  2.891207997395e+01   1.288705983708e+01  -1.956803598227e+01 
1  1.156129194219e+01   7.294115084292e+00   2.242640255946e+01 
1  2.056981585758e+01  -2.539569653548e+01   2.001378589036e+01 
8
Step 53000
1  1.244314062011e+01   2.948976316283e+01  -3.098968910265e+01 
1 -2.370266565416e+01  -2.142372808781e+01  -6.832485292354e+00 
1  1.237369458193e+01   3.246990919651e+01   5.612810412178e+00 
1 -1.083848275531e+01   2.832346560649e+01   1.175809060655e+01 
1  3.422434586029e+01  -3.507608634043e+00   2.051075951644e+01 
1 -7.148894563216e+01  -3.150338601215e+01   7.517283692685e+00 
1 -1.328844678901e+01   9.891285557662e+00   3.129889156158e+00 
1  1.571547579822e+01   2.759247277247e+01   1.598869185084e+01 
8
Step 54000
1 -8.225125677340e-01   2.245348796788e+01   1.325143765036e+01 
1 -5.459957885411e+01   2.027174524549e+01  -2.792438595400e+01 
1  4.662445845016e+00   4.959827387070e-01  -9.459548546079e+00 
1 -4.518373170517e+01  -6.895895018431e+00  -1.864301876034e+01 
1  2.381595761618e+01   1.903817287534e+00   3.379791932974e+01 
1  3.532971982962e+01  -1.037373021157e+01  -2.920796727863e+01 
1 -5.753872054718e+01  -1.193519341018e+01  -3.046823018326e+01 
1 -2.825917857827e+01  -6.866123267989e+01   4.372708801658e+00 
8
Step 55000
1  1.725289046441e+01   4.214209878598e+01   3.849555770929e+01 
1  1.282032942236e+01   6.602209667827e+01   1.740832082728e+01 
1  3.474683968194e+01   3.405784575990e+01  -4.918834133206e+00 
1 -8.299823492701e-01   1.008993266048e+01   9.399459025425e+00 
1  2.711482629805e+00  -1.894690814259e+01  -1.117741999788e+01 
1 -5.330915270334e+01   7.296177386143e+00   1.877386756341e+01 
1 -3.290004774323e+01   1.666344666958e+01   2.069201937651e+01 
1 -1.165939637053e+00   3.557874807514e+01  -2.770943326970e+01 
8
Step 56000
1  1.853149706333e+01   4.309305231344e+01  -1.329477027705e+01 
1 -2.092405500607e+01   6.496087852655e+00  -9.936811184113e+00 