8
Step 0
1 -3.472934504792e+01   2.985585161505e+01   4.552711624413e+01 
1 -3.872914153085e+01   5.183552870333e+01   2.841252880511e+01 
1  6.597310272429e+01   3.473535297890e+01   3.212630301548e+01 
1 -6.209027598665e+01   1.844554586020e+01  -3.110501871492e+01 
1 -4.675834713363e+01   3.854789838996e+01   6.659078998682e+01 
1 -1.328434623653e+01  -5.953552595268e+01  -6.135440417252e+01 
1  6.150941286889e+01  -3.705897999201e+01   2.680974576907e+01 
1  1.897523860070e+01  -3.176705575740e+00  -2.894581516525e+01 
8
Step 1000
1 -6.044309765543e+01   3.909016520480e+01   4.700901476644e+01 
1 -3.273723063170e+01   5.693212691623e+01  -3.987694790915e+00 
1  5.475597611846e+01   4.058807216587e+01   1.604040388506e+01 
1 -3.747730268599e+01   4.737335965384e+01   1.130568156351e+01 
1 -3.833964481811e+01   7.106901616724e+01   6.405151327807e+01 
1 -2.749462811727e+01  -6.736249224208e+01  -6.677645153084e+01 
1  3.086671169158e+01  -4.531040725704e+01   4.085107446651e+01 
1 -3.976195296966e-01  -4.960253090542e+01  -3.033328679092e+01 
8
Step 2000
1 -5.994241932772e+01   4.048688352890e+01   2.770810515156e+01 
1 -1.000818233078e+01   3.321465682860e+01  -3.548085924448e+01 
1  2.474437964133e+01   2.664327586898e+01  -2.058992990110e+00 
1  6.712370434126e+00   5.478689311228e+01   4.803091926038e+01 
1 -8.461408915631e+00   7.678485782937e+01   4.047300195249e+01 
1 -2.907518977376e+01  -4.235141397096e+01  -4.743554795045e+01 
1 -1.481073100919e+00  -4.241418597662e+01   2.949280240156e+01 
1 -2.241969549102e+01  -7.549942784515e+01  -2.729621677913e+01 
8
Step 3000
1 -3.513474813698e+01   3.375936832779e+01   2.524181657258e-01 
1  1.786132569023e+01  -4.353144558916e+00  -5.516937699589e+01 
1 -1.346098050166e+01   2.689844579915e+00  -1.720143510858e+01 
1  4.819707023033e+01   3.843863066172e+01   6.978173545316e+01 
1  2.333947842134e+01   5.453053363048e+01   5.041757261298e+00 
1 -1.503807140026e+01   2.485863181139e+00  -1.728260328978e+01 
1 -2.399966008666e+01  -2.688659530417e+01   2.531048980300e+00 
1 -3.811058407682e+01  -6.994552346991e+01  -2.019812320279e+01 
8
Step 4000
1 -3.814578522539e-01   2.078608766262e+01  -2.005192001605e+01 
1  3.620860229967e+01  -3.422412458966e+01  -5.666425448386e+01 
1 -4.507212215048e+01  -1.746654281403e+01  -2.545094733762e+01 
1  6.640233077423e+01   8.659658419801e+00   7.344852284062e+01 
1  3.820423546211e+01   1.680855364260e+01  -2.719904462226e+01 
1  8.616066629106e+00   4.362079988928e+01   6.821726016722e+00 
1 -3.184040705778e+01  -2.960646300369e+00  -2.223495498734e+01 
1 -4.096385336524e+01  -3.915827302991e+01  -9.585434492019e+00 
8
Step 5000
1  2.994261359254e+01   3.562343136778e+00  -2.591514472002e+01 
1  3.787254105925e+01  -4.431889184103e+01  -4.112135749064e+01 
1 -6.117668588759e+01  -2.605297956520e+01  -2.596918669875e+01 
1  5.522398518137e+01  -2.112242529419e+01   6.161966768926e+01 
1  3.031923443696e+01  -2.148093984341e+01  -4.618312243931e+01 
1  3.252483624923e+01   6.452505910597e+01   1.729864955896e+01 
1 -2.806647427493e+01   2.282232057935e+01  -3.234203082680e+01 
1 -3.064217772703e+01   1.200069104724e+00   3.962042318876e+00 
8
Step 6000
1  4.620480955034e+01  -1.579858009880e+01  -1.774807992813e+01 
1  2.334002581901e+01  -3.320684844940e+01  -1.412804397735e+01 
1 -5.830293633746e+01  -2.165338606845e+01  -1.968784314303e+01 
1  1.990227143828e+01  -3.962343422275e+01   3.781292387161e+01 
1  4.815136695264e+00  -4.820174845741e+01  -4.760902880882e+01 
1  4.735517508900e+01   5.816496140023e+01   1.527074715105e+01 
1 -1.833899187757e+01   4.305808383916e+01  -2.340591126866e+01 
1 -1.080601678785e+01   3.464924970948e+01   1.868342121928e+01 
8
Step 7000
1  4.409595056970e+01  -3.345721553815e+01  -1.799977210444e+00 
1 -2.273686930749e-01  -8.419624547849e+00   1.491324449790e+01 
1 -3.791613167341e+01  -7.978144781862e+00  -9.082345390520e+00 
1 -2.494025461226e+01  -3.950152572382e+01   6.484368278203e+00 
1 -2.508320804690e+01  -5.505087843979e+01  -3.264332677901e+01 
1  4.541957938832e+01   2.731497283069e+01   7.537004499206e+00 
1 -8.388480081847e+00   5.002076238066e+01   6.305884746566e-01 
1  1.151420980236e+01   4.771139705933e+01   3.054783938035e+01 
8
Step 8000
1  2.682833774127e+01  -4.441075775164e+01   1.242720984017e+01 
1 -2.137286271028e+01   1.647075614143e+01   3.548595496146e+01 
1 -7.514292211627e+00   7.492417724186e+00   2.035075669237e+00 
1 -5.978934988423e+01  -2.152608647084e+01  -2.632343167696e+01 
1 -4.360747973502e+01  -4.173463726259e+01  -8.844920597714e+00 
1  2.513484634194e+01  -1.441413051373e+01   2.976188208823e+00 
1 -2.132703069820e+00   3.990948022103e+01   2.797685156140e+01 
1  2.803241319984e+01   3.685112737727e+01   3.475287471751e+01 
8
Step 9000
1  3.258169559011e+00  -4.454926352134e+01   1.748362907757e+01 
1 -3.055387845561e+01   2.952016185128e+01   4.102007700203e+01 
1  2.218051434571e+01   1.764047829423e+01   1.008216329575e+01 
1 -6.992516993645e+01   5.279895682372e+00  -5.385274551705e+01 
1 -4.131992708888e+01  -1.627493140786e+01   1.319866901438e+01 
1 -7.088254152348e+00  -4.888620348939e+01   6.786823592203e+00 
1 -1.427718536277e-01   1.594892487690e+01   4.493280891639e+01 
1  3.327074980934e+01   1.085243585763e+01   2.849753395510e+01 
8
Step 10000
1 -1.736510835432e+01  -3.244937929351e+01   1.178637543715e+01 
1 -2.521808538406e+01   2.677710793862e+01   3.168026762576e+01 
1  4.218088441991e+01   1.929668878130e+01   1.328616797329e+01 
1 -5.227166878162e+01   2.875104769262e+01  -7.014959511530e+01 
1 -1.977850179292e+01   9.878715790264e+00   2.536816280087e+01 
1 -3.994717635491e+01  -6.276405670806e+01   1.729861681220e+01 
1 -1.394535223196e-01  -1.309401328781e+01   4.316118316805e+01 
1  2.687993176798e+01  -1.496143383793e+01   1.268050981305e+01 
8
Step 11000
1 -2.923346212106e+01  -9.974807930389e+00  -6.087140585269e-01 
1 -1.001052530077e+01   1.270331343894e+01   1.314860728636e+01 
1  4.798997258988e+01   1.355838167875e+01   1.198829614757e+01 
1 -1.489734816201e+01   3.901533315711e+01  -7.068693013234e+01 
1  1.062714675811e+01   2.713019086188e+01   2.498880439152e+01 
1 -6.173363198862e+01  -5.213230137317e+01   2.727718998750e+01 
1  9.729484052568e-01  -3.681157307115e+01   2.274493727466e+01 
1  1.274295771455e+01  -2.696705301912e+01  -8.247992272936e+00 
8
Step 12000
1 -3.094958314988e+01   1.754169904340e+01  -1.262880744374e+01 
1  6.153921555502e+00  -3.321546797861e+00  -6.073222347319e+00 
1  4.006095370804e+01   4.146510554924e+00   8.094745519274e+00 
1  2.704660882926e+01   3.185204408708e+01  -5.326035695248e+01 
1  3.586103029014e+01   3.078880079028e+01   1.499879989303e+01 
1 -6.390571071746e+01  -2.272519498736e+01   2.782392448433e+01 
1  5.104533674395e+00  -4.680706658220e+01  -8.317827859279e+00 
1 -3.099168732875e+00  -1.929368747326e+01  -2.738316342900e+01 
8
Step 13000
1 -2.468097252704e+01   4.209828043865e+01  -1.783959725002e+01 
1  1.467729475464e+01  -1.236872038992e+01  -1.806567764625e+01 
1  2.301517280925e+01  -4.821222312947e+00   4.054775592925e+00 
1  5.728195845690e+01   1.026415853981e+01  -1.982369551515e+01 
1  4.464053355546e+01   2.227925310207e+01   2.168411640352e+00 
1 -4.420547642840e+01   1.279732419338e+01   1.352679166972e+01 
1  1.174666824179e+01  -3.994679814776e+01  -3.729454118601e+01 
1 -1.486225500393e+01   3.280501879998e+00  -3.764534634711e+01 
8
Step 14000
1 -1.410785513716e+01   5.542506447058e+01  -1.365811428212e+01 
1  1.192535507456e+01  -1.090663227692e+01  -1.895097133930e+01 
1  3.414217259696e+00  -1.075874170912e+01   1.592227083834e+00 
1  6.498061895874e+01  -1.669167945745e+01   2.237015416384e+01 
1  3.378414341045e+01   7.940832913879e+00  -6.396684387193e+00 
1 -7.995893812032e+00   4.035305173990e+01  -1.349346217376e+01 
1  1.809974816402e+01  -1.976188334021e+01  -5.222343981251e+01 
1 -1.918926293304e+01   2.750461346208e+01  -3.483603126184e+01 
8
Step 15000
1 -2.371052085636e+00   5.217032741230e+01  -2.437414275252e+00 
1  1.204186729024e+00  -2.334391398490e+00  -1.051219291090e+01 
1 -1.305108001042e+01  -1.328553683244e+01   8.206078570219e-01 
1  4.881663721674e+01  -3.770197512808e+01   6.181423087948e+01 
1  9.453612859010e+00  -4.357019009488e+00  -6.871003757037e+00 
1  3.329533035620e+01   5.034088289527e+01  -4.334706014294e+01 
1  2.058553995468e+01   5.158197069569e+00  -4.721048566435e+01 
1 -1.610128984699e+01   3.847309590509e+01  -1.979259892479e+01 
8
Step 16000
1  8.869563262118e+00   3.241317346196e+01   1.005524576140e+01 
1 -9.287341231036e+00   5.666379756036e+00   1.042852933234e+00 
1 -2.356543600227e+01  -1.346828838732e+01   2.696104747107e-01 
1  1.662194956343e+01  -4.394506195323e+01   8.619567021125e+01 
1 -1.641092830781e+01  -9.166521673751e+00  -4.774099364364e-01 
1  6.616140207242e+01   4.123273689913e+01  -6.247752362403e+01 
1  1.683460264751e+01   2.505030410082e+01  -2.481794536638e+01 
1 -8.474196694938e+00   2.752091888793e+01   1.734557501854e+00 
8
Step 17000
1  1.900367739006e+01   1.882765091054e+00   1.792701642120e+01 
1 -1.134079897894e+01   6.243213008509e+00   8.449099067124e+00 
1 -2.847447677864e+01  -1.223970787995e+01  -2.106697250154e+00 
1 -1.905566397275e+01  -3.243963839459e+01   8.669412334417e+01 
1 -3.240850306280e+01  -5.879982289125e+00   7.568724255725e+00 
1  7.968735326701e+01   1.907481791809e+01  -5.992519455310e+01 
1  6.914789824974e+00   3.318340041972e+01   5.735080160226e+00 
1 -3.671921334778e-01  -3.242070975959e+00   2.161439694351e+01 
8
Step 18000
1  2.710772280832e+01  -3.008462049515e+01   1.799556860632e+01 
1 -1.376555020537e+00  -2.257447199177e+00   6.860982436158e+00 
1 -2.978206827474e+01  -9.292975493838e+00  -7.475031816266e+00 
1 -4.637462081876e+01  -6.441460491460e+00   6.068416868397e+01 
1 -3.273783302589e+01   1.583995620679e+00   1.106130199502e+01 
1  6.837117854896e+01  -6.367183647130e+00  -3.211599744773e+01 
1 -6.768576960088e+00   2.802458866113e+01   3.300670640089e+01 
1  4.797164258642e+00  -4.186500856436e+01   3.263367228426e+01 
8
Step 19000
1  3.074954796320e+01  -5.292434014420e+01   1.071038429381e+01 
1  1.704803428162e+01  -1.488511901390e+01  -3.866750925486e+00 
1 -2.892012676807e+01  -3.323077314117e+00  -1.484485655845e+01 
1 -5.729247951022e+01   2.566546976056e+01   1.308561233043e+01 
1 -1.889515091192e+01   6.936539621449e+00   5.957601709982e+00 
1  3.322610996805e+01  -2.552677414731e+01   1.472800530838e+01 
1 -2.028738328621e+01   1.306359854694e+01   4.724624539975e+01 
1  5.231384608296e+00  -7.074559317702e+01   3.090762614074e+01 
8
Step 20000
1  2.644146726421e+01  -5.795988078103e+01  -1.708212571528e-01 
1  3.340517467519e+01  -2.213274057870e+01  -1.817587843296e+01 
1 -2.524577925624e+01   6.575045837059e+00  -2.051412046671e+01 
1 -4.932967265905e+01   5.190716442750e+01  -4.248414985005e+01 
1  9.986435450406e-01   4.651697751417e+00  -6.962956927953e+00 
1 -1.664303635652e+01  -3.208924293794e+01   6.402025373174e+01 
1 -2.938620717602e+01  -4.392410046631e+00   4.368270254390e+01 
1  1.262222383003e+00  -7.326362770612e+01   1.769886386917e+01 
8
Step 21000
1  1.217440622624e+01  -4.327439758704e+01  -9.368209304926e+00 
1  3.531015902083e+01  -1.584713916215e+01  -2.685087755503e+01 
1 -1.624667169110e+01   1.931911273856e+01  -1.941562886386e+01 
1 -2.676096585290e+01   6.123923888733e+01  -8.739953399043e+01 
1  1.618464775614e+01  -6.274900902205e+00  -2.147082308517e+01 
1 -6.533287992991e+01  -2.593913419331e+01   9.465656234784e+01 
1 -3.142544345297e+01  -1.626529854330e+01   2.529241843898e+01 
1 -4.586374251372e+00  -4.331152382856e+01  -4.977443906276e-01 
8
Step 22000
1 -1.016258582922e+01  -1.552977562529e+01  -1.314522943526e+01 
1  1.652848389762e+01   4.556601174514e+00  -2.224482017797e+01 
1  5.257986206688e-01   3.123850360233e+01  -8.070742074060e+00 
1  1.620904007524e+00   4.893646271539e+01  -1.065200444615e+02 
1  1.965330904632e+01  -2.081670706498e+01  -2.910267353233e+01 
1 -9.638048436918e+01  -1.297674398823e+01   9.185033104915e+01 
1 -2.641156699656e+01  -1.784033823324e+01   1.327895464788e+00 
1 -8.603209167323e+00   9.916170081782e+00  -1.545443350527e+01 
8
Step 23000
1 -3.387419584906e+01   1.295090124660e+01  -1.118039183364e+01 
1 -1.782648889571e+01   3.004576881390e+01  -3.178399754288e+00 
1  2.442269716119e+01   3.683797740205e+01   1.243940328066e+01 
1  2.631065459519e+01   1.877629044017e+01  -9.410036398900e+01 
1  1.183854312119e+01  -3.005062586115e+01  -2.399455971184e+01 
1 -9.862846214038e+01  -1.385113257710e+00   5.465384713233e+01 
1 -1.624857362981e+01  -9.875252518745e+00  -1.745288593254e+01 
1 -7.542395722190e+00   6.508688084752e+01  -2.143352455121e+01 
8
Step 24000
1 -4.906270530188e+01   2.983503024688e+01  -6.288524213723e+00 
1 -5.154607574064e+01   4.563599275827e+01   2.277478462931e+01 
1  4.922130062086e+01   3.147031500501e+01   3.485970155953e+01 
1  4.013354159060e+01  -1.761391983743e+01  -5.644280818244e+01 
1 -4.818257249467e-02  -2.619333529231e+01  -7.025405408185e+00 
1 -7.109570222547e+01   3.009795317314e+00  -1.676009763543e+00 
1 -3.622159113893e+00   1.825698723223e+00  -2.394006596790e+01 
1 -4.591060112424e-01   9.770868106582e+01  -1.788499116370e+01 
8
Step 25000
1 -4.804088306742e+01   2.987127136979e+01  -2.196483448653e+00 
1 -6.604350721446e+01   4.007537847248e+01   4.271011663382e+01 
1  6.475167234944e+01   1.486035611133e+01   4.849993387781e+01 
1  4.083095696837e+01  -4.586004553634e+01  -9.441260471162e+00 
1 -7.105447897701e+00  -8.369864952686e+00   1.375082383187e+01 
1 -2.485002268823e+01   1.527632305710e-01  -5.241921914223e+01 
1  9.042466920121e+00   9.779861091483e+00  -1.845421760555e+01 
1  1.025751595699e+01   9.382680104797e+01  -9.362818742690e+00 
8
Step 26000
1 -3.041932072371e+01   1.768121813268e+01  -7.973455855558e-01 
1 -5.238151121119e+01   1.411012892468e+01   4.639010389736e+01 
1  6.244852550258e+01  -7.890139331243e+00   4.548353336750e+01 
1  3.115602920228e+01  -5.631598191689e+01   3.013594443334e+01 
1 -5.073828314322e+00   1.608530059043e+01   2.811031439768e+01 
1  2.256346174788e+01  -4.931525904741e+00  -7.746564616644e+01 
1  2.008152825230e+01   9.491145874328e+00  -7.669779964383e+00 
1  1.995265514031e+01   5.782521506080e+01  -1.907226828794e+00 
8
Step 27000
1 -3.602417222376e+00   3.757616315935e+00  -1.154616185184e+00 
1 -1.659667602488e+01  -1.955335131612e+01   3.203343825350e+01 
1  4.039369756937e+01  -2.830192822854e+01   2.536950491967e+01 
1  1.643585994958e+01  -4.777238180991e+01   5.221527905104e+01 
1  3.295372549540e+00   3.564577567328e+01   2.971138056013e+01 
1  5.541149514391e+01  -6.269934813817e+00  -7.092332697644e+01 
1  2.808062039783e+01   1.707686022478e+00   3.787685649605e-01 
1  2.398871750151e+01   8.225544752160e+00   9.322320082234e-01 
8
Step 28000
1  2.105993902277e+01  -2.552681953197e+00  -7.944890473397e-01 
1  2.405361597720e+01  -4.371256624125e+01   6.827618213861e+00 
1  5.169659464263e+00  -3.853698524197e+01  -4.329816001616e+00 
1  1.893037049628e+00  -2.654767943016e+01   5.597903841722e+01 
1  1.092444867336e+01   4.100762419352e+01   1.931815352831e+01 
1  6.600369538485e+01  -1.128871227779e+00  -4.185679284334e+01 
1  3.142847040874e+01  -8.618124385865e+00   1.195803200889e+00 
1  1.998639888048e+01  -3.352099977979e+01  -3.221576436200e-01 
8
Step 29000
1  3.474700521013e+01   1.578858256910e+00   2.013428455733e+00 
1  5.209446140223e+01  -4.694579239391e+01  -1.842475344302e+01 
1 -3.201719989319e+01  -3.532029075411e+01  -3.284463410498e+01 
1 -9.395706286957e+00  -1.540661009118e+00   4.716125669054e+01 
1  1.182475497781e+01   2.982378635632e+01   3.115870400345e+00 
1  5.626438646118e+01   8.720964642787e+00  -6.102315393728e+00 
1  2.861665494985e+01  -1.582894467190e+01  -4.359974807561e+00 
1  8.607363275346e+00  -5.491804045184e+01  -2.473723640219e+00 
8
Step 30000
1  3.394053411497e+01   1.249969809538e+01   6.975847317161e+00 
1  5.710522167946e+01  -2.737391743064e+01  -3.483854102774e+01 
1 -5.998677654348e+01  -1.991610885919e+01  -5.062713593048e+01 
1 -1.629038717589e+01   2.011104621339e+01   3.229738540480e+01 
1  4.249200343946e+00   5.994072845777e+00  -1.160116181941e+01 
1  3.323741735718e+01   1.876469604848e+01   2.274684530636e+01 
1  1.852399912347e+01  -1.610822014391e+01  -1.199315440102e+01 
1 -7.418503808897e+00  -5.443113663427e+01  -2.374307488476e+00 
8
Step 31000
1  2.008397077875e+01   2.232637247097e+01   1.158288117558e+01 
1  3.713724948646e+01   7.559937340954e+00  -3.714034809462e+01 
1 -6.877265083249e+01   2.628609525300e+00  -5.057349705895e+01 
1 -1.826117794738e+01   3.326912792192e+01   1.604917448842e+01 
1 -8.744075501159e+00  -2.180828232793e+01  -1.882236419850e+01 
1  5.811450745292e+00   2.357839094259e+01   3.590887069027e+01 
1  1.436152336225e+00  -8.234526382679e+00  -1.622123474277e+01 
1 -2.349740414898e+01  -3.766607981229e+01   1.311571774723e+00 
8
Step 32000
1 -4.040603446813e-01   2.240100647114e+01   1.211783876264e+01 
1  4.160132813096e-01   4.245033040986e+01  -2.559127640670e+01 
1 -5.333246560931e+01   2.417994313806e+01  -3.094957242247e+01 
1 -1.538007280919e+01   3.543053554772e+01   5.970548816298e-01 
1 -2.020196728539e+01  -4.235235327021e+01  -1.615687197030e+01 
1 -1.741016631642e+01   1.928970758376e+01   3.168764459548e+01 
1 -1.958968036951e+01   5.630248543354e+00  -1.277394374271e+01 
1 -3.391498694980e+01  -1.453722741775e+01   7.279427473126e+00 
8
Step 33000
1 -1.835203098899e+01   8.189936172055e+00   5.995834632994e+00 
1 -3.700393626382e+01   6.010266253577e+01  -6.194740865930e+00 
1 -1.735848996760e+01   3.639830868269e+01   2.479748138566e+00 
1 -8.749574013983e+00   2.739413272006e+01  -1.398664348730e+01 
1 -2.276576609066e+01  -4.650939677739e+01  -6.216571543591e+00 
1 -3.099986218779e+01   6.000422800726e+00   1.602640688614e+01 
1 -3.870142991210e+01   2.033867352213e+01  -9.748674207243e-01 
1 -3.394233700258e+01   5.257492149547e+00   1.218480124706e+01 
8
Step 34000
1 -2.604414944971e+01  -1.733757404984e+01  -6.003623276902e+00 
1 -5.843792896949e+01   5.006677136531e+01   1.229652583927e+01 
1  2.685892002704e+01   3.442725766108e+01   3.790683653735e+01 
1 -5.709631231999e-01   1.261406764699e+01  -2.799798770532e+01 
1 -1.306341756372e+01  -3.165184701589e+01   4.795637134194e+00 
1 -3.423410263054e+01  -1.177130644201e+01  -9.098145643805e-01 
1 -4.900991395704e+01   2.973101623428e+01   1.556995800009e+01 
1 -2.201139967527e+01   1.663639028774e+01   1.268155239227e+01 
8
Step 35000
1 -2.081371084034e+01  -4.422993198536e+01  -1.922831378815e+01 
1 -5.441144720775e+01   1.437503739250e+01   2.277933609610e+01 
1  6.283899080580e+01   1.913295555049e+01   6.188913554037e+01 
1  6.328889761146e+00  -4.281029984446e+00  -4.021057608686e+01 
1  5.878822869375e+00  -3.130712033166e+00   1.055785328341e+01 
1 -3.025742471796e+01  -2.703783689395e+01  -1.006031402684e+01 
1 -4.538645647108e+01   2.918823143436e+01   3.047929515495e+01 
1 -8.013759911432e-01   2.044385087086e+01   7.592604252440e+00 
8
Step 36000
1 -6.124293374626e+00  -5.971615825043e+01  -2.679933958173e+01 
1 -2.685731429812e+01  -3.251758280166e+01   2.298699757568e+01 
1  7.634440890496e+01  -3.092511699455e+00   6.446456795873e+01 
1  9.400839161474e+00  -1.886992492171e+01  -4.719699318450e+01 
1  2.556731765609e+01   2.774107940516e+01   8.012078922981e+00 
1 -2.360283693676e+01  -3.345686424569e+01  -7.687032127917e+00 
1 -2.679048294552e+01   1.754283613967e+01   3.730218197037e+01 
1  2.323970964555e+01   2.134738762335e+01  -1.237684280848e+00 
8
Step 37000
1  1.013180474294e+01  -5.398714157070e+01  -2.283291710506e+01 
1  1.187805450757e+01  -6.945235600983e+01   1.594759130620e+01 
1  6.120298029375e+01  -2.283860473403e+01   4.306580221600e+01 
1  7.477879513781e+00  -2.782433931638e+01  -4.439365513932e+01 
1  3.580122396303e+01   4.818465397459e+01  -1.020683579340e+00 
1 -1.743768842789e+01  -2.808349618897e+01   3.187482021267e+00 
1  2.786166954863e+00  -2.312568063172e+00   3.213388629590e+01 
1  4.181500218240e+01   2.388701539808e+01  -9.791800134141e+00 
8
Step 38000
1  1.935537172106e+01  -2.517517716461e+01  -5.991625905756e+00 
1  4.442252011056e+01  -7.767054624923e+01   7.669047836466e+00 
1  2.228246278727e+01  -3.159821577558e+01   3.992759439231e+00 
1  1.611623924719e+00  -2.931574242786e+01  -2.860079549024e+01 
1  2.963321492806e+01   4.916626991050e+01  -1.069052723690e+01 
1 -1.190358371226e+01  -1.265814222777e+01   1.455724879224e+01 
1  3.482758646378e+01  -2.412033754672e+01   1.524599729445e+01 
1  4.751131349329e+01   2.877161679098e+01  -1.384457657291e+01 
8
Step 39000
1  1.649556363436e+01   1.793080869172e+01   1.815037509978e+01 
1  5.587112005689e+01  -5.026109978327e+01   3.520271463791e+00 
1 -2.498790551295e+01  -2.565251221167e+01  -3.856812605263e+01 
1 -4.891365348083e+00  -2.327371641583e+01  -1.184699321477e+00 
1  7.719457211029e+00   2.973704598854e+01  -1.409414157687e+01 
1 -4.573904747336e+00   6.741074260010e+00   1.761037800088e+01 
1  5.817395460281e+01  -3.985123882116e+01  -8.381059511220e+00 
1  3.681144167455e+01   3.167414476905e+01  -1.123422260131e+01 
8
Step 40000
1  3.368893730827e+00   5.783953741734e+01   3.823048032137e+01 
1  4.189508401495e+01   1.410665349933e+00   4.849406617800e+00 
1 -6.016261437336e+01  -8.710315401510e+00  -6.743157705290e+01 
1 -7.832561965068e+00  -1.174992791716e+01   3.010646545789e+01 
1 -2.019753773933e+01  -1.045717836830e+00  -7.617942053716e+00 
1  7.088945825156e+00   2.210143042925e+01   8.095565557891e+00 
1  6.354691294762e+01  -4.287615887186e+01  -3.034680299565e+01 
1  1.291267646210e+01   2.596478681953e+01  -3.613160164915e+00 
8
Step 41000
1 -1.204595436752e+01   7.767333790734e+01   4.347080356462e+01 
1  1.190978580408e+01   5.245671993467e+01   8.034284935072e+00 
1 -6.903608033991e+01   9.750703152129e+00  -7.150660820373e+01 
1 -4.759109875530e+00   1.675481100293e+00   5.427119483151e+01 
1 -4.024098227881e+01  -2.851906125852e+01   6.076672312561e+00 
1  2.292291582470e+01   2.796588353715e+01  -1.043222050928e+01 
1  4.904448219988e+01  -3.168798250857e+01  -4.301291471317e+01 
1 -1.498971783176e+01   8.138161900966e+00   4.222911468323e+00 
8
Step 42000
1 -2.085116899348e+01   7.027998428181e+01   3.017168995046e+01 
1 -1.768419151882e+01   7.928090222859e+01   7.405274027205e+00 
1 -5.084966267495e+01   2.040498944642e+01  -5.089839677831e+01 
1  3.381379827977e+00   1.354390319829e+01   6.294372811493e+01 
1 -4.262528577374e+01  -4.100076863382e+01   1.966729616304e+01 
1  3.914584693513e+01   2.407986849856e+01  -2.899753504624e+01 
1  2.069832841852e+01  -1.022593366651e+01  -4.309322469894e+01 
1 -3.664372731040e+01  -1.880848700012e+01   7.484720108044e+00 
8
Step 43000
1 -1.801576861205e+01   3.963222775037e+01   3.241750321191e+00 
1 -3.285035863348e+01   7.044791911036e+01  -6.896980436602e-01 
1 -1.612963398733e+01   1.865865784770e+01  -1.470252775029e+01 
1  1.267003164618e+01   2.136415372213e+01   5.343285332623e+01 
1 -2.594928497604e+01  -3.466391523826e+01   2.529622318136e+01 
1  4.933831677234e+01   1.418885140283e+01  -3.817379258874e+01 
1 -1.110841711654e+01   1.440467677582e+01  -3.165092467294e+01 
1 -4.471439028945e+01  -4.586909475115e+01   4.086401230962e+00 
8
Step 44000
1 -4.635529757083e+00  -1.607308967667e+00  -2.544743079319e+01 
1 -2.789878921972e+01   3.080471458020e+01  -1.511332420061e+01 
1  1.871893602635e+01   6.241112378651e+00   2.290153595273e+01 
1  1.778371035221e+01   2.361954591591e+01   2.949519993512e+01 
1  2.300186284064e+00  -1.426197766832e+01   1.849053387124e+01 
1  4.685831480432e+01   3.596613587818e+00  -3.235471717957e+01 
1 -3.520119348559e+01   3.388655428758e+01  -1.288303284933e+01 
1 -3.670692288349e+01  -6.110303080490e+01  -4.124444300323e+00 
8
Step 45000
1  1.224942319520e+01  -3.705460851328e+01  -4.205768628435e+01 
1 -8.382028075688e+00  -1.958151354067e+01  -2.960142662793e+01 
1  3.861063058157e+01  -9.455724793271e+00   4.784762694591e+01 
1  1.471316089077e+01   2.019476301892e+01   5.554255813250e-01 
1  2.857092111376e+01   8.848719923278e+00   1.313794285365e+00 
1  2.900875500539e+01  -3.438441858996e+00  -1.314405616465e+01 
1 -4.396830575690e+01   4.144433236985e+01   7.244269735066e+00 
1 -1.641320057661e+01  -5.591182129321e+01  -1.181633332360e+01 
8
Step 46000
1  2.372829757580e+01  -5.507846644980e+01  -3.893770813791e+01 
1  1.224808866914e+01  -5.608217605161e+01  -3.629856123970e+01 
1  3.788497527636e+01  -1.953311381211e+01   5.298586823421e+01 
1  3.539382645137e+00   1.260969103043e+01  -2.302646316910e+01 
1  4.073523758267e+01   2.292114226187e+01  -1.806048215674e+01 
1 -9.699469829924e-02  -5.938666397019e+00   1.106532843223e+01 
1 -3.735238810782e+01   3.513244663777e+01   2.350349990779e+01 
1  7.503081169892e+00  -3.126183560990e+01  -1.324086997352e+01 
8
Step 47000
1  2.443921055066e+01  -5.394520267127e+01  -1.895796271590e+01 
1  2.146696254191e+01  -6.351708838685e+01  -3.063218055555e+01 
1  2.209117171373e+01  -1.880472827851e+01   4.047397585012e+01 
1 -1.142698716709e+01   3.156566795608e+00  -3.557268721083e+01 
1  3.474439333166e+01   2.244601112714e+01  -3.006845908817e+01 
1 -3.124641328568e+01  -6.093372316798e+00   3.019819501001e+01 
1 -2.199169712172e+01   1.825853231054e+01   3.326671864991e+01 
1  2.602783450366e+01   2.653287534599e+00  -5.877454876903e+00 
8
Step 48000
1  1.485087336595e+01  -3.965387057207e+01   6.955243259822e+00 
1  1.446982143915e+01  -4.195177327802e+01  -1.359099380943e+01 
1  2.665725636413e+00  -7.876664734909e+00   1.840149843646e+01 
1 -2.382324262553e+01  -5.929221941948e+00  -3.740062105353e+01 
1  1.532719722188e+01   9.940806109065e+00  -2.861579144615e+01 
1 -5.397832086391e+01  -6.972110478301e+00   3.742318169405e+01 
1 -6.595135293779e+00  -2.755363259546e+00   3.595110824233e+01 
1  3.326853643185e+01   3.198766943718e+01   8.090576104087e+00 
8
Step 49000
1  2.505791019114e-01  -2.087364845328e+01   2.555908383970e+01 
1 -4.078182323969e+00  -4.459676634703e+00   8.745089618652e+00 
1 -9.771316357321e+00   7.861036512159e+00  -3.806550477814e+00 
1 -2.795596003469e+01  -1.270775266419e+01  -3.272382061792e+01 
1 -7.372263721854e+00  -6.380103807681e+00  -1.383548060863e+01 
1 -6.032368708883e+01  -1.009513361940e+01   3.142947194106e+01 
1  2.509584550860e+00  -2.075675024755e+01   3.170659853874e+01 
1  2.782603736236e+01   4.559337590094e+01   2.252842400142e+01 
8
Step 50000
1 -1.247896512116e+01  -4.175620875140e+00   2.787476871533e+01 
1 -2.308092821844e+01   3.023449818986e+01   2.805812902638e+01 
1 -1.049915031426e+01   2.117781567796e+01  -1.924760993350e+01 
1 -2.134015764620e+01  -1.594376026126e+01  -2.642907292956e+01 
1 -2.320723429932e+01  -1.723774870755e+01   7.968531730975e+00 
1 -4.805737500518e+01  -1.430710050595e+01   1.620531227142e+01 
1  3.999446882284e+00  -3.031189225249e+01   2.096640130673e+01 
1  1.274098554443e+01   4.020333431909e+01   3.010415212042e+01 
8
Step 51000
1 -1.855510044382e+01   8.559723375688e+00   1.327256666605e+01 
1 -3.128209462149e+01   4.694425898544e+01   3.765905387067e+01 
1 -2.004602176164e+00   2.636032578852e+01  -2.539115397901e+01 
1 -5.667402077957e+00  -1.542928380623e+01  -2.099919016659e+01 
1 -2.683527991296e+01  -1.690393035912e+01   2.744495605322e+01 
1 -2.124228130486e+01  -1.649062525680e+01  -1.685053416544e+00 
1  1.236334858127e+00  -2.927721302373e+01   4.681919821903e+00 
1 -6.237053997923e+00   2.124150297373e+01   2.578317736211e+01 
8
Step 52000
1 -1.701070691108e+01   1.916197612393e+01  -1.091265311891e+01 
1 -2.264968566390e+01   3.949373069286e+01   3.477497320258e+01 
1  8.623122353718e+00   2.099308348115e+01  -2.325298421910e+01 
1  1.402120096055e+01  -1.178472299255e+01  -1.532830307786e+01 
1 -1.905099659585e+01  -5.291832958765e+00   3.600342197599e+01 
1  1.179094613249e+01  -1.335543959979e+01  -1.623259744813e+01 
1 -3.909445714211e-01  -1.871996342800e+01  -1.495616465249e+01 
1 -2.274084767723e+01  -8.313987805530e-01   8.993025914886e+00 
8
Step 53000
1 -1.025744025061e+01   2.994673476236e+01  -3.266655598393e+01 
1  1.055593194408e+00   1.165725243919e+01   2.093287508994e+01 
1  1.376155160353e+01   6.205865625845e+00  -1.555082709325e+01 
1  3.095417843920e+01  -6.148653590355e+00  -5.906949470362e+00 
1 -5.237569677506e+00   1.240909597338e+01   2.879677636225e+01 
1  4.103234512106e+01  -3.358312517859e+00  -2.380404407134e+01 
1  3.353335918835e+00  -2.137918009332e+00  -3.367792884307e+01 
1 -3.128572493139e+01  -1.558173285636e+01  -1.584213211470e+01 
8
Step 54000
1 -2.308810025204e+00   4.056121249025e+01  -4.008189416920e+01 
1  3.087126533581e+01  -2.506153198758e+01   9.010070913854e-01 
1  8.849708066840e+00  -1.392080380971e+01  -5.140119241371e+00 
1  3.868043329477e+01   2.007657312861e-01   1.059734720142e+01 
1  7.648587977778e+00   2.792342502061e+01   6.568724890840e+00 
1  5.758821929332e+01   1.203969068963e+01  -2.360834631692e+01 
1  1.326561444843e+01   1.555032788908e+01  -4.540219435972e+01 
1 -2.844818138146e+01  -1.709684400633e+01  -4.042959549690e+01 
8
Step 55000
1  3.375715409119e+00   4.660456673489e+01  -2.608239834031e+01 
1  5.376907193794e+01  -5.536162246877e+01  -1.920015141670e+01 
1 -5.534455618518e+00  -3.332118968776e+01   5.671848169751e+00 
1  3.300585985842e+01   6.240868569432e+00   3.437651749749e+01 
1  1.409010418263e+01   3.295587485917e+01  -2.398023091773e+01 
1  5.596673919116e+01   2.826757129900e+01  -1.713844715264e+01 
1  2.606221934029e+01   2.896667120072e+01  -4.396248537875e+01 
1 -1.363195627030e+01  -6.395726490646e+00  -5.485321106232e+01 
8
Step 56000
1  5.434200135768e+00   4.095362250936e+01   7.086807840518e+00 
1  5.699982949226e+01  -6.454246062934e+01  -3.337289396780e+01 