8
Step 0
1 -4.335052367192e+01   6.226770353478e+01  -1.571831079641e+01 
1 -4.197517804778e+01   5.557624918835e+01   6.050689884240e+01 
1  4.062082842113e+01  -6.869837660098e+01  -6.406602060552e+00 
1  3.202042668263e+01  -9.333787405458e+00   7.585091136361e+01 
1  2.169421302650e+01  -5.304981751903e-01  -3.452327492586e+01 
1  2.479565131470e+00   3.727202342153e+01  -7.541307749490e+01 
1  3.539535683763e+01   1.835259957186e+01  -5.811004072382e+01 
1  1.040422054410e+01   7.251222155371e+01   5.312714128624e+01 
8
Step 1000
1 -7.631599770167e+00   4.520422223924e+01  -2.665572238486e+01 
1 -5.249636714250e+01   1.701588150658e+01   7.151532808130e+01 
1  1.250181647819e+01  -7.012460852603e+01   1.882919379584e+01 
1  1.328302237261e+01  -9.323178391943e+00   8.167742717054e+01 
1  4.319595674227e+01  -1.109533108415e+01  -1.139987334347e+01 
1  4.863902859677e+01   7.442481003516e+01  -7.940721281785e+01 
1  3.043633736018e+01  -5.193766282889e+00  -5.394759254802e+01 
1  2.546622001827e+00   3.681125710915e+01   6.998749260213e+01 
8
Step 2000
1  3.350161340461e+01   1.729317049327e+01  -3.010292877942e+01 
1 -3.634802283529e+01  -3.498509493725e+01   5.500784129683e+01 
1 -1.932844071638e+01  -4.976191780500e+01   3.418317274474e+01 
1 -5.685636843214e+00  -7.447795568807e+00   6.188558039014e+01 
1  5.438480500518e+01  -1.155989549046e+01   1.538583007918e+01 
1  8.256850359413e+01   7.959457885064e+01  -5.900958109624e+01 
1  1.565801874049e+01  -2.830482908793e+01  -3.525649171089e+01 
1 -5.122010568987e+00  -1.029629323313e+01   5.626075485713e+01 
8
Step 3000
1  6.409172300611e+01  -1.093834368136e+01  -2.234309564260e+01 
1 -2.690043934586e+00  -7.498517173094e+01   1.646640566744e+01 
1 -4.550663953482e+01  -1.530825730001e+01   3.382474315948e+01 
1 -2.125004270155e+01  -3.357997983707e+00   2.681249632031e+01 
1  4.936307765385e+01  -4.416953914264e+00   3.175371293931e+01 
1  9.071614184931e+01   5.710593487296e+01  -2.275483658015e+01 
1 -9.160256838506e-01  -4.131194388044e+01  -7.568186863244e+00 
1 -1.262705424292e+01  -5.077411155757e+01   1.908411742181e+01 
8
Step 4000
1  7.138056588384e+01  -2.937432271925e+01  -5.861362945069e+00 
1  3.017469593676e+01  -8.253795938164e+01  -2.826614175091e+01 
1 -5.812950253328e+01   2.125219048356e+01   2.057174949160e+01 
1 -3.156029554244e+01   3.263734856484e+00  -8.271775350818e+00 
1  2.922112232317e+01   1.101270711835e+00   3.047924661787e+01 
1  6.905884585934e+01   2.186470596715e+01   1.560393287625e+01 
1 -1.216890717819e+01  -3.966915156415e+01   2.091810250230e+01 
1 -2.053280769106e+01  -6.839098700869e+01  -2.352352391124e+01 
8
Step 5000
1  5.222374483762e+01  -3.331505250073e+01   1.327739651416e+01 
1  4.618866091715e+01  -5.405235659748e+01  -6.135685578078e+01 
1 -5.394206581570e+01   4.834906462575e+01   2.755385409953e+00 
1 -3.536730865437e+01   1.162883731319e+01  -3.122374547451e+01 
1 -9.608553718220e-01  -1.958304972304e-01   1.525631910433e+01 
1  2.509476651896e+01  -9.015091798235e+00   4.354936306602e+01 
1 -1.574630620004e+01  -2.563426224076e+01   4.216492481379e+01 
1 -2.588227810854e+01  -6.029784636398e+01  -5.386731427546e+01 
8
Step 6000
1  1.438128165027e+01  -2.630699681412e+01   2.879303224974e+01 
1  3.949568585778e+01  -2.485901845486e+00  -7.196896478208e+01 
1 -3.496295975787e+01   5.870162161823e+01  -1.044886298018e+01 
1 -3.135765585610e+01   1.906101074692e+01  -3.780514701960e+01 
1 -3.119321714647e+01  -7.813559559469e+00  -5.445057155682e+00 
1 -2.560650084955e+01  -2.464898808257e+01   5.441485871984e+01 
1 -1.386027422751e+01  -6.016246132517e+00   5.065940972872e+01 
1 -2.631326317482e+01  -3.413848761785e+01  -6.047996374992e+01 
8
Step 7000
1 -2.655816826059e+01  -1.533233961273e+01   3.374632872134e+01 
1  1.497778774522e+01   4.879727019242e+01  -5.805040752673e+01 
1 -7.323790495593e+00   5.085882617476e+01  -1.321237339611e+01 
1 -1.898713887371e+01   2.165680478908e+01  -3.145741763411e+01 
1 -4.953945038208e+01  -1.847781378265e+01  -2.198247017211e+01 
1 -6.565675829840e+01  -2.365428400134e+01   4.836097767432e+01 
1 -1.093059744353e+01   1.180986941949e+01   4.470650940285e+01 
1 -2.129047451036e+01  -1.058649884166e+00  -4.272648135542e+01 
8
Step 8000
1 -5.388425880611e+01  -6.275095007381e+00   2.414683561701e+01 
1 -1.529708318181e+01   7.646634943036e+01  -2.614039599142e+01 
1  2.053905683076e+01   2.859293948793e+01  -6.665093329432e+00 
1  6.885662869337e-02   1.619091855104e+01  -1.976272698348e+01 
1 -5.006383305324e+01  -2.440219137984e+01  -2.688008075059e+01 
1 -8.205180311651e+01  -1.244581939870e+01   3.071355903202e+01 
1 -1.052900730169e+01   2.324484511303e+01   2.671610695220e+01 
1 -9.117385746160e+00   2.584073831560e+01  -9.659387633543e+00 
8
Step 9000
1 -5.734802461868e+01  -2.452801114758e+00   3.449938024748e+00 
1 -3.679114500809e+01   6.836241840648e+01   1.130925477258e+01 
1  4.010635932934e+01  -7.548061051457e-01   2.947273605440e+00 
1  2.099427446386e+01   2.263941469831e+00  -1.010120485149e+01 
1 -3.321721337337e+01  -1.964395230223e+01  -1.982682486905e+01 
1 -7.040658220280e+01  -4.857126757014e-01   9.090728386186e+00 
1 -1.287872668151e+01   2.749491809875e+01   2.421268439676e+00 
1  8.812433626721e+00   3.881770161821e+01   2.522098256572e+01 
8
Step 10000
1 -3.702894664515e+01  -3.377852858009e+00  -1.923227772839e+01 
1 -3.960347922615e+01   2.897650366744e+01   4.137272522389e+01 
1  4.543608191499e+01  -2.794125034979e+01   8.618858060970e+00 
1  3.654958844328e+01  -1.662490783477e+01  -6.062960505553e+00 
1 -5.068962963197e+00  -4.593585109776e+00  -5.788954635501e+00 
1 -3.611591039472e+01   4.428887957808e+00  -9.603925724647e+00 
1 -1.463310719691e+01   2.621003102618e+01  -2.066829576409e+01 
1  2.678382566850e+01   3.801856604427e+01   4.818913404586e+01 
8
Step 11000
1 -2.613167905780e+00  -4.789189704358e+00  -3.459801329765e+01 
1 -2.389402092954e+01  -2.294896284598e+01   5.599830685110e+01 
1  3.561157120780e+01  -4.466608878510e+01   5.824499214833e+00 
1  3.975416437407e+01  -3.351653291859e+01  -6.141545583708e+00 
1  2.256817104754e+01   1.625835869348e+01   9.184173561580e+00 
1  7.590946480765e+00  -4.824115409451e-01  -2.123062619656e+01 
1 -1.125903515776e+01   2.150741627950e+01  -3.535968939930e+01 
1  3.898221834245e+01   2.703675632268e+01   5.060688448866e+01 
8
Step 12000
1  3.013062031839e+01  -2.282210183152e+00  -3.558385860719e+01 
1  1.111332424848e+00  -6.286182595816e+01   5.308461343586e+01 
1  1.505511282870e+01  -4.644161932337e+01  -5.556557107107e+00 
1  2.754846214388e+01  -4.031157901475e+01  -5.498611472519e+00 
1  3.854239818288e+01   3.440958538455e+01   1.882578914823e+01 
1  4.464531375146e+01  -1.179578416076e+01  -2.494759992402e+01 
1 -2.978394288027e-01   1.455722874175e+01  -3.736425815379e+01 
1  4.108755280941e+01   1.176816169304e+01   3.410054328004e+01 
8
Step 13000
1  4.630738018983e+01   5.791137608058e+00  -2.018354699365e+01 
1  2.359510597828e+01  -7.222851854094e+01   3.585649007000e+01 
1 -8.275015503985e+00  -3.374201790385e+01  -2.007338702873e+01 
1  3.235794824312e+00  -3.161627549257e+01   3.297874314128e-01 
1  3.833407098719e+01   4.021627570722e+01   1.994596545776e+01 
1  6.252977488383e+01  -2.203816666054e+01  -2.253727076639e+01 
1  1.661611634292e+01   4.862479468027e+00  -2.720871937796e+01 
1  2.997299895245e+01  -1.460886602792e+00   7.185067295493e+00 
8
Step 14000
1  3.955386809633e+01   1.767492145600e+01   5.431006129344e+00 
1  3.391408868857e+01  -4.704173329476e+01   1.166852264477e+01 
1 -2.567583949978e+01  -1.146002398736e+01  -2.927660385528e+01 
1 -2.386503279417e+01  -8.241944773371e+00   1.215454335950e+01 
1  2.396984963898e+01   3.014553041900e+01   1.465768749429e+01 
1  5.673284032953e+01  -2.400842324826e+01  -1.701231542118e+01 
1  3.347808853608e+01  -8.439687467232e+00  -9.833581647254e+00 
1  6.998695336946e+00  -1.073568210991e+01  -1.989164474916e+01 
8
Step 15000
1  1.457442398802e+01   2.825977095148e+01   2.930907083006e+01 
1  2.812580549004e+01   5.577391246862e-01  -1.142345490497e+01 
1 -3.085257260080e+01   1.255277046699e+01  -2.645922704477e+01 
1 -4.178845865560e+01   2.214085051038e+01   2.610499942279e+01 
1  2.699977410641e+00   7.502844117464e+00   6.423721313858e+00 
1  3.197872484585e+01  -1.416632293272e+01  -1.091649266545e+01 
1  4.210423649164e+01  -2.418592256461e+01   7.403794773529e+00 
1 -2.072740034289e+01  -1.680402558675e+01  -3.673873585309e+01 
8
Step 16000
1 -1.607308387870e+01   3.152035684975e+01   4.058843117770e+01 
1  1.004749067886e+01   4.737714090957e+01  -2.822295994531e+01 
1 -2.274788902179e+01   3.002612840110e+01  -1.069434142371e+01 
1 -4.146722500229e+01   4.768241965692e+01   3.528894241435e+01 
1 -1.500954733722e+01  -1.965188022414e+01  -1.473500274305e+00 
1  3.596581306916e-02   5.574249074135e+00  -5.511100468641e+00 
1  3.623011614809e+01  -3.800225491392e+01   1.772139057105e+01 
1 -4.335862767829e+01  -1.992695444098e+01  -3.765563016502e+01 
8
Step 17000
1 -3.751080258088e+01   2.427500311803e+01   3.400749383995e+01 
1 -1.029166191327e+01   7.091884509170e+01  -3.668503340745e+01 
1 -6.277052718705e+00   3.569360502436e+01   1.329585902151e+01 
1 -2.175136214324e+01   5.692960810437e+01   3.355524848982e+01 
1 -2.162607170037e+01  -3.973954119282e+01  -6.271902272304e+00 
1 -2.566806421727e+01   2.794056215883e+01  -9.329937020656e-01 
1  1.529796101987e+01  -4.357380376449e+01   1.790946029030e+01 
1 -5.267156798202e+01  -2.071390878136e+01  -2.542225885025e+01 
8
Step 18000
1 -3.923331842804e+01   7.405654779713e+00   1.169940529624e+01 
1 -2.297403159463e+01   6.068275203335e+01  -3.660234318228e+01 
1  1.039865209406e+01   2.914275506272e+01   3.697960777923e+01 
1  9.442173614176e+00   4.414535350102e+01   1.898283729401e+01 
1 -1.627567801009e+01  -4.327323615560e+01  -7.724159198154e+00 
1 -3.591793002188e+01   4.353396219951e+01   3.397280425995e+00 
1 -1.463542479655e+01  -3.551254104559e+01   9.763514889231e+00 
1 -4.483142840986e+01  -1.929570767595e+01  -7.828838468121e+00 
8
Step 19000
1 -2.078475661095e+01  -1.435614636872e+01  -1.645166547169e+01 
1 -2.348362190235e+01   2.166665870302e+01  -2.969130345253e+01 
1  1.940754127833e+01   1.415577375290e+01   5.047238434466e+01 
1  3.813932994394e+01   1.268861718010e+01  -4.430032891411e+00 
1 -3.944959861038e+00  -2.838722601674e+01  -7.878240235261e+00 
1 -2.894892017161e+01   4.497141318883e+01   8.026415683496e+00 
1 -4.268099904215e+01  -1.264311738677e+01  -1.017042711919e+00 
1 -2.092849247437e+01  -1.375376561018e+01   7.697494410503e+00 
8
Step 20000
1  8.288502224624e+00  -3.334426908920e+01  -3.702428220650e+01 
1 -1.339563013750e+01  -2.797577018900e+01  -1.847962072006e+01 
1  1.650000193654e+01  -2.941038120789e+00   4.671893938755e+01 
1  5.014392865432e+01  -2.557484538174e+01  -2.784628507756e+01 
1  7.522188852946e+00  -1.172078008262e+00  -8.403553529827e+00 
1 -1.073278212661e+01   2.982893160647e+01   1.269238382300e+01 
1 -5.728553832093e+01   1.961117740148e+01  -7.505274510426e+00 
1  1.167168606690e+01  -3.080029210458e+00   1.625740042900e+01 
8
Step 21000
1  3.396650933360e+01  -4.262460491875e+01  -4.052806499143e+01 
1  1.553594690142e+00  -6.419724992350e+01  -4.559632557871e+00 
1  3.163774296647e+00  -1.571724325619e+01   2.563428896263e+01 
1  3.819295394674e+01  -5.530479825906e+01  -4.161109793883e+01 
1  1.117608529830e+01   2.665886003010e+01  -9.724329188428e+00 
1  7.949564191701e+00   2.196623962421e+00   1.643634970717e+01 
1 -5.167421503640e+01   4.996180662196e+01  -5.282705422825e+00 
1  4.094572146546e+01   1.050240397802e+01   1.691895881963e+01 
8
Step 22000
1  4.404034466668e+01  -3.936525289428e+01  -2.561103196663e+01 
1  1.362445272583e+01  -6.991884553344e+01   1.072459401570e+01 
1 -1.353152349672e+01  -2.034340212995e+01  -5.872872865595e+00 
1  6.433406121307e+00  -6.387621099856e+01  -4.016940012727e+01 
1  4.914779924567e+00   4.252462141150e+01  -1.067715872873e+01 
1  1.727476690363e+01  -2.838409835815e+01   1.800553197335e+01 
1 -2.720167389438e+01   6.567775043004e+01   4.792959162277e+00 
1  5.594742127967e+01   2.274280962697e+01   1.259977645086e+01 
8
Step 23000
1  3.344423927275e+01  -2.483555110328e+01   8.585127292799e-01 
1  1.689629085714e+01  -4.371979023038e+01   2.473448220428e+01 
1 -2.458170735638e+01  -1.695808840723e+01  -3.765276558812e+01 
1 -3.121389521731e+01  -4.711302708656e+01  -2.460237882812e+01 
1 -7.462431102789e+00   3.923990989556e+01  -8.709814235473e+00 
1  1.301415850230e+01  -5.079599724189e+01   1.632722202472e+01 
1  7.264858969010e+00   5.833560810804e+01   1.698446332093e+01 
1  5.165009130931e+01   2.919412270260e+01   8.150196293565e+00 
8
Step 24000
1  7.229202614058e+00  -3.707159011914e+00   2.618760918669e+01 
1  1.097963839879e+01   1.773067610224e+00   3.433032282962e+01 
1 -2.358148650755e+01  -8.695555616590e+00  -5.907102411266e+01 
1 -5.709107253115e+01  -1.168316544319e+01  -2.055890343132e+00 
1 -1.854343092436e+01   1.818179987318e+01  -1.805918077748e+00 
1 -1.880463806301e+00  -5.658829369088e+01   1.093689113231e+01 
1  3.868372589766e+01   2.813430379763e+01   2.345142844030e+01 
1  2.946618540111e+01   2.626566045072e+01   6.568524134381e+00 
8
Step 25000
1 -2.223085879164e+01   1.726395964109e+01   3.800822339419e+01 
1  5.279157935352e-01   4.601206333969e+01   3.702198542512e+01 
1 -9.569610767175e+00   1.016087580555e-01  -6.229950725198e+01 
1 -5.786363669399e+01   2.758298874146e+01   1.746123112253e+01 
1 -2.128969944023e+01  -1.113602496015e+01   9.537711086128e+00 
1 -1.871094376743e+01  -4.307432757775e+01   2.298642847359e+00 
1  5.503642175335e+01  -1.485995826248e+01   1.807344698704e+01 
1 -2.904495937864e+00   1.350992424622e+01   6.883144917144e+00 
8
Step 26000
1 -4.192004710761e+01   3.233227905302e+01   3.104042660426e+01 
1 -8.615948300856e+00   6.847909089580e+01   3.107596555716e+01 
1  1.228432601636e+01   5.781900698610e+00  -4.570756133807e+01 
1 -3.145941755171e+01   5.448632905615e+01   2.605671815646e+01 
1 -1.280035995576e+01  -3.515485323571e+01   2.172921614564e+01 
1 -2.724473507093e+01  -1.470566607473e+01  -8.257951135145e+00 
1  5.087086881484e+01  -5.395091302321e+01   3.681490482060e-01 
1 -3.362939429697e+01  -4.422303691816e+00   5.922743934710e+00 
8
Step 27000
1 -4.381469385871e+01   3.876179177776e+01   9.268669373305e+00 
1 -1.215618976828e+01   5.940786307051e+01   1.660889234481e+01 
1  3.249193485500e+01   6.952719524457e+00  -1.451422435537e+01 
1  1.121852925122e+01   5.818286965449e+01   2.197589112155e+01 
1  4.044029746255e+00  -4.294465843744e+01   2.913646402216e+01 
1 -2.132456848125e+01   1.842324152376e+01  -1.863363471010e+01 
1  2.939019126574e+01  -7.308558092898e+01  -2.316544795748e+01 
1 -5.165575687986e+01  -1.981186549213e+01   1.132355337863e+00 
8
Step 28000
1 -2.805656191354e+01   3.631122233196e+01  -1.625665787900e+01 
1 -8.876374000447e+00   2.492470025495e+01  -3.090952519211e+00 
1  4.147586027859e+01   4.560413193164e+00   2.146743098338e+01 
1  5.116095310005e+01   3.800491757445e+01   1.006502280264e+01 
1  2.170080669514e+01  -3.142757122053e+01   2.678791758069e+01 
1 -2.042884154759e+00   4.455005067907e+01  -2.629006597142e+01 
1  3.746211900561e-01  -6.404736509538e+01  -4.171858073417e+01 
1 -5.090983486236e+01  -2.618348334356e+01  -8.038619784467e+00 
8
Step 29000
1 -2.731950381953e+00   2.660096997326e+01  -3.249445240917e+01 
1 -1.193639657422e+00  -1.823808317318e+01  -2.243241503539e+01 
1  3.448416126526e+01   7.942201216242e-01   5.123899838987e+01 
1  6.988979262298e+01   3.832857002344e+00  -1.220954387160e+00 
1  3.168380124159e+01  -6.106384821296e+00   1.315959723300e+01 
1  2.270296987444e+01   5.478076198718e+01  -2.884520276555e+01 
1 -2.426197128438e+01  -3.031243507302e+01  -4.521394754673e+01 
1 -3.238648185885e+01  -2.117581847663e+01  -1.916500278351e+01 
8
Step 30000
1  2.086531126822e+01   1.211066997250e+01  -3.129453269836e+01 
1  6.281323272085e+00  -5.122261892562e+01  -3.607746419284e+01 
1  1.348559520795e+01  -2.200186417349e+00   6.604771606331e+01 
1  5.833548168957e+01  -2.874504029643e+01  -4.595702217254e+00 
1  2.906231028426e+01   2.145390527126e+01  -8.397058773010e+00 
1  4.174233068143e+01   4.628668529827e+01  -2.463069749843e+01 
1 -3.563975038411e+01   1.394111493433e+01  -2.940709687661e+01 
1 -3.669317936676e+00  -7.404331090965e+00  -2.682572401779e+01 
8
Step 31000
1  3.368542243846e+01  -4.860230747638e+00  -1.344322357205e+01 
1  9.657172328356e+00  -6.025800616859e+01  -4.052565935372e+01 
1 -1.391878321072e+01  -3.180884400168e+00   6.184479921183e+01 
1  2.138850320962e+01  -4.572740360848e+01   1.792795869525e+00 
1  1.485708662583e+01   3.881800032210e+01  -3.022303099998e+01 
1  4.579765508638e+01   2.306290730101e+01  -1.340662079184e+01 
1 -3.172630621991e+01   4.986159768211e+01   1.124030139950e+00 
1  2.478769886735e+01   7.900009196121e+00  -2.579234252161e+01 
8
Step 32000
1  3.265253460879e+01  -2.180806919801e+01   1.185282712344e+01 
1  7.779174275751e+00  -4.299985130704e+01  -3.480251363889e+01 
1 -3.754924332675e+01  -2.119965498768e+00   4.019307550757e+01 
1 -2.451148455609e+01  -4.099469450457e+01   1.299618257793e+01 
1 -4.707063463107e+00   3.862309591007e+01  -4.326586029494e+01 
1  3.193513453545e+01  -5.699263875207e+00   3.110349396493e+00 
1 -1.747793207251e+01   6.262637509450e+01   3.421955574342e+01 
1  4.356822443616e+01   1.633654826872e+01  -1.430172591590e+01 
8
Step 33000
1  2.144728234837e+01  -3.539303305666e+01   3.130010355965e+01 
1  2.466775623434e+00  -9.683274067721e+00  -2.087960123976e+01 
1 -4.889757679513e+01   2.476056579585e-01   7.579586871100e+00 
1 -5.901704610958e+01  -1.869939388691e+01   2.008962507013e+01 
1 -2.123964065920e+01   2.196273476784e+01  -4.121598024851e+01 
1  4.997270888967e+00  -2.932599892296e+01   2.114789658270e+01 
1 -1.685798743634e+00   4.819106671900e+01   5.538500356807e+01 
1  4.678322927137e+01   1.336813685149e+01   5.006507430521e+00 
8
Step 34000
1  7.170853161020e+00  -4.204789130265e+01   3.464938826108e+01 
1 -3.209566837937e+00   2.365804855462e+01  -3.191878069729e+00 
1 -4.446467817299e+01   3.079176874153e+00  -2.649363182378e+01 
1 -6.735587823429e+01   9.352294192076e+00   1.550810027056e+01 
1 -2.800597483654e+01  -2.810427459780e+00  -2.361287581789e+01 
1 -2.456051482773e+01  -4.001663398485e+01   3.567820092575e+01 
1  7.588521466307e+00   1.483676765683e+01   5.445320622382e+01 
1  3.421747662603e+01   9.246490166983e-01   2.549402222901e+01 
8
Step 35000
1 -4.275007735887e+00  -3.874390237671e+01   2.006414363666e+01 
1 -6.735056286827e+00   4.361559988144e+01   1.373055613960e+01 
1 -2.661483807118e+01   5.839421773153e+00  -5.260251739464e+01 
1 -4.706807959070e+01   2.930946317162e+01  -2.455649730510e+00 
1 -2.319109639970e+01  -2.458493267643e+01   3.657489079089e+00 
1 -4.548968605162e+01  -3.574697840330e+01   4.183178638361e+01 
1  6.966854095828e+00  -2.059806283661e+01   3.069118731131e+01 
1  1.132435781193e+01  -1.377312093468e+01   3.899865044557e+01 
8
Step 36000
1 -1.024563035128e+01  -2.399430043525e+01  -5.878886994569e+00 
1 -7.079881560514e+00   4.406334432722e+01   2.714581274971e+01 
1 -1.908807428896e+00   8.092205905480e+00  -6.399825096428e+01 
1 -8.623029975066e+00   3.206360034636e+01  -2.776618112834e+01 
1 -1.071583496372e+01  -3.449680328317e+01   3.065255396825e+01 
1 -5.072917037970e+01  -2.030826179597e+01   3.656482726271e+01 
1 -7.114731979904e-01  -4.096206052784e+01  -6.187404747296e+00 
1 -1.402125508060e+01  -2.191141645309e+01   3.970876912085e+01 
8
Step 37000
1 -1.224856428421e+01  -2.647758846804e-01  -3.073763017397e+01 
1 -4.797596786189e+00   2.783647070390e+01   3.581323043007e+01 
1  2.184274991339e+01   9.116984822964e+00  -5.804950091603e+01 
1  2.986453595217e+01   1.772685665280e+01  -4.853378747323e+01 
1  2.409205837410e+00  -2.956433545809e+01   4.726706959464e+01 
1 -3.938360540289e+01  -1.338417619034e+00   1.998701372197e+01 
1 -8.496548671375e+00  -3.750211087424e+01  -4.010510570677e+01 
1 -3.413558641674e+01  -1.709435732676e+01   2.621156512523e+01 
8
Step 38000
1 -1.428587110505e+01   2.522121284596e+01  -4.167047236961e+01 
1 -1.418442052756e+00   4.554058695196e+00   3.882659880126e+01 
1  3.871387176961e+01   7.841880242973e+00  -3.670090750279e+01 
1  5.135513362301e+01  -5.155317524447e+00  -5.284127270566e+01 
1  1.028890335985e+01  -1.358381515020e+01   4.729338864071e+01 
1 -1.662928726077e+01   1.307803207154e+01  -4.023333221236e+00 
1 -9.221287617745e+00  -1.361711687745e+01  -5.619076917207e+01 
1 -4.313554866795e+01   1.014713534215e+00   2.291391719599e+00 
8
Step 39000
1 -1.839742976114e+01   4.331706319526e+01  -3.284329270225e+01 
1  1.618126111070e+00  -1.506526081073e+01   3.541729444206e+01 
1  4.585215042027e+01   3.491922370273e+00  -5.982134694108e+00 
1  4.836449115192e+01  -2.436571986081e+01  -3.529749420691e+01 
1  1.048231973799e+01   5.177546729193e+00   3.100773748297e+01 
1  8.467425344185e+00   1.815650706915e+01  -2.862181074418e+01 
1  9.962635977512e-01   1.719898734347e+01  -4.739989704248e+01 
1 -3.870861735934e+01   2.495879888847e+01  -2.397316215451e+01 
8
Step 40000
1 -2.251537076200e+01   4.696028623559e+01  -8.272232677276e+00 
1  3.715908928114e+00  -2.467691353855e+01   2.494493012268e+01 
1  4.300345143679e+01  -4.067865028464e+00   2.527467020590e+01 
1  2.509490870919e+01  -3.008987285634e+01  -7.467585310587e-02 
1  4.838601158028e+00   1.850957695287e+01   4.772346289655e+00 
1  2.777915406352e+01   1.416279700067e+01  -4.617890572995e+01 
1  1.993561163640e+01   3.756532775589e+01  -1.783701317015e+01 
1 -2.218195588511e+01   4.317209535128e+01  -4.332539664720e+01 
8
Step 41000
1 -2.222745367187e+01   3.384561192672e+01   2.130840020091e+01 
1  5.983792858736e+00  -2.421301642746e+01   6.817385788183e+00 
1  3.156548012076e+01  -1.379184811067e+01   4.804722171045e+01 
1 -6.108653773945e+00  -1.927112430406e+01   4.001101682247e+01 
1 -1.437839786747e+00   2.204003115364e+01  -2.181960749418e+01 
1  3.719998446695e+01   5.444762200501e+00  -5.073197367358e+01 
1  3.908906422173e+01   3.524563832252e+01   1.845844134468e+01 
1  1.957986362882e+00   4.597638307373e+01  -4.881628270515e+01 
8
Step 42000
1 -1.316287245739e+01   8.635470147163e+00   4.271972930744e+01 
1  9.098064841311e+00  -1.788701832744e+01  -1.789211590081e+01 
1  1.348591895894e+01  -2.261799593207e+01   5.625522293256e+01 
1 -2.961054479407e+01   2.839920165921e+00   6.843415662830e+01 
1 -3.487777448857e+00   1.661046926231e+01  -3.958139292029e+01 
1  3.598063456661e+01  -1.768416093105e+00  -4.011427087706e+01 
1  4.786767663600e+01   1.021819763752e+01   4.437377115559e+01 
1  2.659571488625e+01   2.872126651378e+01  -3.796277613326e+01 
8
Step 43000
1  5.627102737772e+00  -1.768284257189e+01   4.593971371336e+01 
1  1.134701681477e+01  -1.071562695453e+01  -4.398159786580e+01 
1 -8.882505302797e+00  -2.635470917492e+01   4.813243325105e+01 
1 -3.452541627633e+01   2.527528485068e+01   7.280123709446e+01 
1  4.691219192891e-02   7.048816125003e+00  -4.309739765576e+01 
1  2.701347044288e+01  -2.913593027914e+00  -1.734050041775e+01 
1  3.889394271732e+01  -2.548125131829e+01   4.845255370942e+01 
1  4.339584329943e+01  -5.133524550251e+00  -1.391574472687e+01 
8
Step 44000
1  2.894967477351e+01  -3.309631204110e+01   2.945903094906e+01 
1  9.570713939230e+00  -5.292574094589e+00  -6.295634670414e+01 
1 -3.201255743965e+01  -2.175902358842e+01   2.691002806171e+01 
1 -2.072011518127e+01   3.651642127277e+01   5.102035621746e+01 
1  7.164015144192e+00  -9.652326575772e-01  -3.250639688111e+01 
1  1.518596071279e+01   2.281092012792e+00   1.033110313485e+01 
1  1.091572292694e+01  -5.404940961854e+01   2.911240289692e+01 
1  4.654685460831e+01  -4.290859503429e+01   1.566234097414e+01 
8
Step 45000
1  4.726583008832e+01  -3.079372496256e+01   4.944594344601e-01 
1  2.091922868179e+00  -6.438008582498e-01  -6.564627780833e+01 
1 -5.088665310838e+01  -8.238234437153e+00   2.063467073893e-01 
1  2.895603909453e+00   3.075752007490e+01   1.159656074032e+01 
1  1.354422216081e+01  -3.965641406323e+00  -1.283800586190e+01 
1  3.909496448183e+00   1.003431014395e+01   3.408468810080e+01 
1 -2.876069407665e+01  -5.989688219343e+01  -4.342887748722e+00 
1  3.372844783985e+01  -6.942956648816e+01   4.083589631105e+01 
8
Step 46000
1  5.102726259712e+01  -1.253090422101e+01  -2.865565018554e+01 
1 -1.020163072438e+01   5.682959571641e+00  -4.675468492692e+01 
1 -5.926237157254e+01   1.139977029833e+01  -2.277989136713e+01 
1  2.370373781081e+01   1.034938815958e+01  -3.027779141868e+01 
1  1.481829623441e+01  -2.303191250440e+00   8.166339658410e+00 
1 -5.569670848715e+00   1.467465480240e+01   4.636231959837e+01 
1 -6.544147681506e+01  -3.753281795163e+01  -3.529461002195e+01 
1  7.319043669556e+00  -7.374675560757e+01   5.288505031008e+01 
8
Step 47000
1  3.552718826973e+01   1.144119784020e+01  -4.592327125068e+01 
1 -2.358971972732e+01   1.438596759992e+01  -8.986218820659e+00 
1 -5.165802781981e+01   3.077239946316e+01  -3.552780628395e+01 
1  3.077688267613e+01  -1.579782613305e+01  -5.822253623614e+01 
1  9.429891189640e+00   4.489537884208e-01   2.327057596939e+01 
1 -1.325789894585e+01   1.167634445830e+01   4.368129178856e+01 
1 -8.344933600334e+01   4.962074726307e+00  -4.856097100211e+01 
1 -2.395091699634e+01  -5.190237667808e+01   4.723195147561e+01 
8
Step 48000
1  4.445868333197e+00   2.673990870277e+01  -4.476307840298e+01 
1 -3.181983473256e+01   2.307924797393e+01   3.616544541614e+01 
1 -2.677581752605e+01   4.191074187381e+01  -3.609054818189e+01 
1  2.038533516641e+01  -3.572620148734e+01  -6.248246288800e+01 
1 -3.538503675112e-01   2.324723296747e-01   2.873824268849e+01 
1 -2.011082260495e+01   6.524508977779e-01   2.835185978946e+01 
1 -7.315290513041e+01   4.945079915047e+01  -3.828967201417e+01 
1 -4.778421008844e+01  -9.879051974076e+00   2.539707784275e+01 
8
Step 49000
1 -3.032401691082e+01   2.326615627652e+01  -2.743419992506e+01 
1 -2.830873598757e+01   2.679102236656e+01   7.306485130437e+01 
1  1.018631754476e+01   3.874808507602e+01  -2.698158664211e+01 
1 -1.809618984127e+00  -3.956269026454e+01  -4.474633916603e+01 
1 -1.033322358662e+01  -4.542006035069e+00   2.495086929215e+01 
1 -2.635505569106e+01  -1.411167047707e+01   6.903672905693e+00 
1 -3.515961094570e+01   7.575286364511e+01  -9.364879177806e+00 
1 -5.512315680596e+01   3.708598764405e+01  -5.363447538574e+00 
8
Step 50000
1 -5.472859287946e+01   1.238381218362e+00  -2.443042639473e+00 
1 -1.126369254344e+01   2.059054486502e+01   8.750088741994e+01 
1  4.817301334584e+01   2.069809539328e+01  -1.384998005242e+01 
1 -2.421419186261e+01  -2.577570489701e+01  -1.597359631092e+01 
1 -1.660132653507e+01  -1.193054134780e+01   1.551460192614e+01 
1 -3.017151614284e+01  -2.577564262782e+01  -1.288454534212e+01 
1  1.849677316260e+01   7.154677215089e+01   2.450430923890e+01 
1 -4.253999067677e+01   7.217049909054e+01  -3.422961407910e+01 
8
Step 51000
1 -5.909603459804e+01  -2.901292273366e+01   2.036543904966e+01 
1  1.362555988398e+01   3.804108010371e+00   7.255618284731e+01 
1  7.356850126336e+01  -6.105021255949e+00  -2.336927263126e+00 
1 -3.534936630311e+01  -1.347280361070e+00   1.016597098705e+01 
1 -1.729657776820e+01  -1.755940372125e+01   5.474723614314e+00 
1 -2.910878328710e+01  -2.802766748583e+01  -2.442700551000e+01 
1  6.816938894942e+01   3.846220391056e+01   4.680357706383e+01 
1 -1.315854764177e+01   8.387771474228e+01  -5.146920526611e+01 
8
Step 52000
1 -4.181010055298e+01  -5.076685114201e+01   3.312618412037e+01 
1  3.617574403182e+01  -1.798143276303e+01   3.276593140947e+01 
1  7.561440823436e+01  -3.159972777406e+01   4.850930757024e+00 
1 -2.986290129107e+01   2.276589492654e+01   2.400669174233e+01 
1 -1.329162787107e+01  -1.702036989297e+01  -1.489433446310e+00 
1 -2.110768404034e+01  -1.877788594060e+01  -2.563160428116e+01 
1  9.505076753355e+01  -9.037704336127e+00   4.725191080635e+01 
1  2.169613716978e+01   6.900528648806e+01  -5.097351400549e+01 
8
Step 53000
1 -1.057725146943e+01  -4.905204924358e+01   3.307216518177e+01 
1  4.660637580399e+01  -3.512408297976e+01  -1.620824298687e+01 
1  5.190803981289e+01  -4.571491422326e+01   8.323680227540e+00 
1 -1.108786610831e+01   3.571623108518e+01   2.327695046591e+01 
1 -7.335293428698e+00  -8.607372809739e+00  -4.775759531611e+00 
1 -5.778163620743e+00  -1.744028718098e+00  -1.961991627995e+01 
1  8.904982448247e+01  -5.092887778915e+01   2.693051320485e+01 
1  4.733750162202e+01   3.411976928029e+01  -3.279827635225e+01 
8
Step 54000
1  2.046962065288e+01  -2.064166353496e+01   2.374510120682e+01 
1  3.879949179610e+01  -3.860525205447e+01  -5.567947672567e+01 
1  1.059392084373e+01  -4.255178474598e+01   1.043353877912e+01 
1  1.154153945668e+01   3.158657797057e+01   1.391379013847e+01 
1 -2.047758265440e+00   5.206427041069e+00  -5.986988302454e+00 
1  1.378003201727e+01   1.589384143594e+01  -1.129250597626e+01 
1  5.311620442159e+01  -7.005723793670e+01  -4.041438281144e+00 
1  5.444436534056e+01  -7.753984697357e+00  -4.336017915574e+00 
8
Step 55000
1  3.871510598394e+01   2.326403285306e+01   1.129405948651e+01 
1  1.466299023008e+01  -2.510669612061e+01  -7.283755397705e+01 
1 -3.294219132779e+01  -2.368845754925e+01   1.326039231812e+01 
1  2.733231066012e+01   1.316146474018e+01   5.794372579324e+00 
1  1.683694590349e+00   1.871673117485e+01  -7.081371532370e+00 
1  3.217883588386e+01   2.670764697806e+01  -4.844467990805e+00 
1  1.727030115168e+00  -6.030015625115e+01  -3.138447825208e+01 
1  4.180241177196e+01  -4.277600172035e+01   2.324226357473e+01 
8
Step 56000
1  3.970688482205e+01   6.357106535624e+01   9.952472412475e-02 
1 -1.515849206917e+01   1.194268687562e-01  -6.419701574279e+01 