8
Step 0
1  2.130326814812e+00   3.841428738278e+01  -3.900125211552e+01 
1  3.567597752465e+00  -3.504277063756e+01   3.861701022475e+01 
1  6.258847992801e+01  -7.076539324116e+01   6.450599359103e+01 
1  5.978855273526e+01  -4.628740992298e+01  -3.331699604665e+01 
1  5.663920321690e+01  -5.214564811192e+01   5.649937483509e+01 
1 -4.885508989697e+01   7.742773658779e+01   3.518899981800e+01 
1  3.981944038262e+01  -7.472662646084e+01  -5.860625198879e+01 
1 -7.332626035848e+01  -1.421247514719e+01  -1.259120980933e+01 
8
Step 1000
1  1.217370119483e+01   3.632633460268e+01  -1.448240700069e+01 
1  1.421922587300e+01  -3.918697578606e+01   3.364114472078e+01 
1  5.608336260064e+01  -4.780615458244e+01   6.738688525599e+01 
1  5.529367930384e+01  -4.878745207872e+01  -1.598836537377e+01 
1  2.865325796209e+01  -3.188612580818e+01   4.388296640278e+01 
1 -1.733845241848e+01   8.736369446618e+01   2.600031906154e+00 
1  3.861935981493e+01  -4.872937000169e+01  -6.292623348729e+01 
1 -5.265344633130e+01   3.409303445290e+00  -1.430624983997e+01 
8
Step 2000
1  1.167026276287e+01   2.732261531717e+01   1.835350032566e+01 
1  1.552983516713e+01  -2.264459359077e+01   1.879808374683e+01 
1  3.133419930982e+01  -3.037893996159e+00   5.094704994988e+01 
1  2.805000314051e+01  -3.346436225881e+01   9.723004881996e+00 
1 -1.218958949363e+01   6.165052941102e+00   2.650368595699e+01 
1  2.089047932674e+01   5.969623606830e+01  -3.498020650365e+01 
1  2.960671363374e+01  -2.101372938773e+00  -4.656656512097e+01 
1 -9.669090897956e+00   1.532234812638e+01  -1.698131544355e+01 
8
Step 3000
1  2.939370251573e+00   1.208023892346e+01   4.572686891280e+01 
1  1.076743923958e+01   3.911527193794e+00  -4.253870250580e+00 
1 -4.395021809293e+00   4.155026324039e+01   2.007545928068e+01 
1 -9.434269958014e+00  -5.031025334978e+00   3.834780105663e+01 
1 -4.846123061629e+01   4.686200300258e+01   8.112006675772e+00 
1  5.210588044132e+01   6.427381658540e+00  -6.123892448224e+01 
1  1.626415496624e+01   4.680400177255e+01  -1.543408706945e+01 
1  3.504124475105e+01   1.247928019514e+01  -1.791787035052e+01 
8
Step 4000
1 -7.533075973827e+00  -6.671959796939e+00   5.482265988650e+01 
1  7.205558068101e+00   2.460861797860e+01  -2.972759100035e+01 
1 -3.846173960778e+01   6.387952160436e+01  -1.617324012015e+01 
1 -3.978634538383e+01   2.499568910794e+01   5.996219648123e+01 
1 -6.420532249591e+01   7.177199900467e+01  -9.753319702603e+00 
1  6.468873500961e+01  -4.627613056352e+01  -6.259409082502e+01 
1  2.697604914473e+00   7.778144105472e+01   1.778072361706e+01 
1  6.064140964775e+01  -4.291795918916e+00  -1.435232992426e+01 
8
Step 5000
1 -1.098153264006e+01  -2.364622956744e+01   4.052933396596e+01 
1  8.644471504358e+00   2.769785531647e+01  -4.876928725160e+01 
1 -6.040365374978e+01   5.567634615254e+01  -4.701124314879e+01 
1 -5.095704844956e+01   4.504290513567e+01   6.630076345918e+01 
1 -5.405656115374e+01   6.956043323228e+01  -2.618197809113e+01 
1  5.467024155333e+01  -7.581637036023e+01  -3.917716492486e+01 
1 -8.471353786999e+00   7.977224993682e+01   4.107571875615e+01 
1  5.730831703431e+01  -2.515223954101e+01  -5.156226824793e+00 
8
Step 6000
1 -3.621662529150e+00  -3.378789600713e+01   9.609593692791e+00 
1  1.342366947668e+01   1.251419959556e+01  -5.540716420752e+01 
1 -6.503105750297e+01   2.258813149281e+01  -6.416657097929e+01 
1 -4.111408901564e+01   4.820657985208e+01   5.401172191637e+01 
1 -2.433438412984e+01   3.990936171759e+01  -3.916720764476e+01 
1  2.733083034659e+01  -7.132989397314e+01  -1.735214827460e+00 
1 -1.680602967888e+01   5.399369106327e+01   4.819667609982e+01 
1  2.869708911881e+01  -3.760656344237e+01   8.763250386501e+00 
8
Step 7000
1  1.025014740334e+01  -3.463684928509e+01  -2.391811530760e+01 
1  1.668326209880e+01  -1.085743944979e+01  -4.657343120197e+01 
1 -5.150898309555e+01  -1.987433884830e+01  -6.336652292488e+01 
1 -1.727415029116e+01   3.399808378404e+01   2.542790862139e+01 
1  1.088884451124e+01  -6.656909490721e+00  -4.514815580591e+01 
1 -6.739105583120e+00  -3.621427900752e+01   3.491293513868e+01 
1 -2.283158727381e+01   1.191552318741e+01   3.935067067309e+01 
1 -1.145579733818e+01  -3.302041787574e+01   2.431445293627e+01 
8
Step 8000
1  2.212694649630e+01  -2.612201628613e+01  -4.625615037097e+01 
1  1.285974150513e+01  -2.890660888703e+01  -2.177873787432e+01 
1 -2.408532471414e+01  -5.105578927471e+01  -4.428701219180e+01 
1  8.768679705024e+00   8.376182044840e+00  -1.108522720657e+01 
1  3.624377980515e+01  -5.179766666421e+01  -4.025000142152e+01 
1 -3.605036944163e+01   1.160342713502e+01   5.576873067842e+01 
1 -2.666926177745e+01  -2.928042616918e+01   2.045921457499e+01 
1 -4.528445227602e+01  -1.147327347512e+01   3.630880283450e+01 
8
Step 9000
1  2.508106766862e+01  -1.081968728236e+01  -4.893596547307e+01 
1 -3.850035896954e-01  -3.268748553284e+01   1.295748761824e+01 
1  8.383059516855e+00  -5.678262420704e+01  -1.168933949773e+01 
1  2.584538217643e+01  -1.838874890223e+01  -4.411571172892e+01 
1  4.238823522816e+01  -7.756722807318e+01  -2.329648852589e+01 
1 -5.154296169590e+01   5.014570267287e+01   5.355755179140e+01 
1 -2.740410235432e+01  -5.446980610823e+01   2.883072002009e-01 
1 -5.894088668925e+01   1.807083688877e+01   3.942693490303e+01 
8
Step 10000
1  1.600271851174e+01   5.425732823349e+00  -3.101745644093e+01 
1 -1.913549565800e+01  -2.013566046216e+01   4.535239454745e+01 
1  3.672879611819e+01  -3.577309252182e+01   2.528418918796e+01 
1  2.846588430578e+01  -3.606992351748e+01  -6.380749267978e+01 
1  2.970378584454e+01  -7.407161762350e+01   2.204185539456e+00 
1 -4.949082451071e+01   6.378116800769e+01   3.167480192008e+01 
1 -2.356121540074e+01  -5.678950894694e+01  -1.371013543716e+01 
1 -4.788532624339e+01   4.257690688584e+01   3.071039969856e+01 
8
Step 11000
1 -2.692493779570e+00   1.664782775901e+01  -9.617930271008e-01 
1 -3.458225445175e+01   3.194025901219e+00   6.390224903753e+01 
1  5.412704166044e+01   1.726546506881e+00   5.567941316342e+01 
1  1.854972271238e+01  -3.849419734278e+01  -6.487894444806e+01 
1  6.987373539845e+00  -4.264199487593e+01   2.853709332856e+01 
1 -3.270015521215e+01   4.769246123985e+01   5.147181705735e-01 
1 -1.374106641054e+01  -3.890608654220e+01  -1.839387754836e+01 
1 -1.762713478387e+01   5.094933694130e+01   1.075709293891e+01 
8
Step 12000
1 -2.269594851551e+01   2.020261214800e+01   2.721755512143e+01 
1 -3.800336709555e+01   2.509836238614e+01   6.176650665382e+01 
1  5.681917239262e+01   3.865528540776e+01   6.951973977447e+01 
1  3.405478534081e+00  -2.608592585594e+01  -4.810638670265e+01 
1 -1.349674372856e+01   4.181818433207e+00   4.610840793662e+01 
1 -8.290620974049e+00   1.094048181800e+01  -2.660185415612e+01 
1  2.020217527050e+00  -1.101148527170e+01  -1.541418487874e+01 
1  1.875081676433e+01   3.922558238364e+01  -1.587260452491e+01 
8
Step 13000
1 -3.433984765358e+01   1.686040030790e+01   4.212914582197e+01 
1 -2.506101382638e+01   3.459098240292e+01   3.772552954612e+01 
1  4.448133599890e+01   5.801748281462e+01   6.144381513594e+01 
1 -8.532231598281e+00  -5.257887185594e+00  -1.989659484118e+01 
1 -2.232165911868e+01   4.776810755717e+01   4.772549602889e+01 
1  1.528642944923e+01  -2.782744919691e+01  -3.890787360575e+01 
1  2.095335198007e+01   1.413354938355e+01  -9.582384815466e+00 
1  4.659388186296e+01   1.279739953827e+01  -4.090847123009e+01 
8
Step 14000
1 -3.232145391848e+01   9.888092180974e+00   3.901550790788e+01 
1  8.496484194911e-01   2.867211293406e+01  -6.842246481239e-01 
1  2.102544088250e+01   5.124213583195e+01   3.375749874596e+01 
1 -1.174117974919e+01   1.480303505495e+01   1.074204656435e+01 
1 -1.725376170395e+01   7.175185587317e+01   3.236181534446e+01 
1  3.108201800281e+01  -5.103658446445e+01  -3.391647429791e+01 
1  3.759578450579e+01   2.722674771823e+01  -5.908044620750e+00 
1  5.599868879687e+01  -1.657228810330e+01  -5.522854355914e+01 
8
Step 15000
1 -1.759118181184e+01   4.284159192696e+00   2.014514446488e+01 
1  2.888172666238e+01   1.132927999653e+01  -3.844636784650e+01 
1 -6.609387170939e+00   2.189413105972e+01  -4.439286815126e+00 
1 -5.841491104194e+00   2.599098816066e+01   3.567875701632e+01 
1 -3.615906842392e+00   6.816800393648e+01   5.942468493779e+00 
1  3.566644821584e+01  -4.915904212991e+01  -1.716112945780e+01 
1  4.564113615292e+01   2.580246365009e+01  -6.885987864384e+00 
1  4.496790575581e+01  -3.678334314027e+01  -5.251832383418e+01 
8
Step 16000
1  3.627152543571e+00   3.278143904330e+00  -5.085742308634e+00 
1  4.602246646724e+01  -9.097907600263e+00  -6.106409267333e+01 
1 -3.097506147559e+01  -1.609048817307e+01  -4.062338444333e+01 
1  4.495538336421e+00   2.429616125248e+01   4.964913727815e+01 
1  9.244942039164e+00   4.024222369557e+01  -2.080757861790e+01 
1  2.981326745566e+01  -2.422222326989e+01   1.961540323399e+00 
1  4.044691105213e+01   1.422196696421e+01  -1.105670583976e+01 
1  1.916808549419e+01  -4.093024392557e+01  -3.193505008291e+01 
8
Step 17000
1  2.229061536306e+01   6.189067674449e+00  -2.496998443076e+01 
1  4.393136672997e+01  -2.273010132561e+01  -6.043615288638e+01 
1 -4.632242797217e+01  -4.634998642633e+01  -6.271292216487e+01 
1  1.245941416048e+01   1.188647402818e+01   5.119128399658e+01 
1  1.378131394522e+01   8.536487917229e-01  -3.694132304954e+01 
1  1.760478868838e+01   1.058889734528e+01   1.438897003941e+01 
1  2.138039123803e+01   7.649268609920e-01  -1.407585080923e+01 
1 -1.092593481594e+01  -3.006717185798e+01   8.679693761238e-01 
8
Step 18000
1  3.109875530022e+01   9.424825272601e+00  -3.232168105624e+01 
1  2.251903363940e+01  -2.391222383310e+01  -3.692087008510e+01 
1 -4.917047931864e+01  -5.722883519682e+01  -6.339862364374e+01 
1  1.314081573906e+01  -4.388953448568e+00   4.213410632051e+01 
1  8.193496598313e+00  -3.394017932583e+01  -3.638933135460e+01 
1  4.209488937728e+00   3.823010937924e+01   1.555791969369e+01 
1 -6.976482595227e+00  -6.962408341167e+00  -1.150037209101e+01 
1 -3.475421717439e+01  -1.176642977509e+01   3.510873297674e+01 
8
Step 19000
1  2.788467592639e+01   8.370792002801e+00  -2.588335379642e+01 
1 -9.339518340816e+00  -1.461600810076e+01  -7.722542527337e-02 
1 -3.883601888276e+01  -4.462806113847e+01  -4.335652987618e+01 
1  5.541855151259e+00  -1.672687733633e+01   2.585351333088e+01 
1 -3.439961687135e+00  -5.213081712667e+01  -2.065613567828e+01 
1 -6.318746577379e+00   4.654655007991e+01   7.474846258771e+00 
1 -3.572931804614e+01  -5.820901204193e+00  -1.544443011598e+00 
1 -4.555282859463e+01   4.561148224366e+00   5.852109908550e+01 
8
Step 20000
1  1.567208664962e+01  -1.952735976875e-01  -9.575642752614e+00 
1 -3.703088664098e+01  -1.332597996536e+00   3.455381732360e+01 
1 -1.855943364846e+01  -1.442414782345e+01  -1.083621329940e+01 
1 -7.335916637813e+00  -1.957222178905e+01   5.721100988048e+00 
1 -1.362383679001e+01  -4.916615037261e+01   2.354127098649e+00 
1 -1.200067273091e+01   3.271724809751e+01  -3.096181846957e+00 
1 -5.442599386489e+01   2.169573858115e+00   1.355227167601e+01 
1 -4.171075967891e+01   1.258318106822e+01   6.191955862111e+01 
8
Step 21000
1  5.704213004674e-01  -1.496968720503e+01   8.389959337970e+00 
1 -4.759396660432e+01   9.117875911237e+00   5.309903618420e+01 
1  5.577465876716e+00   1.944286951389e+01   2.244862346616e+01 
1 -1.967333465204e+01  -1.158594656560e+01  -1.530301846613e+01 
1 -1.552258304237e+01  -2.929469587323e+01   2.159079027432e+01 
1 -1.331796918143e+01   4.218547334720e+00  -8.788593798862e+00 
1 -5.515965897864e+01   1.124861154993e+01   2.803101232000e+01 
1 -2.635256506324e+01   1.193019186506e+01   4.303947676146e+01 
8
Step 22000
1 -1.111060482652e+01  -3.035770624281e+01   2.001703110627e+01 
1 -3.620941654680e+01   1.202533080988e+01   4.851590451741e+01 
1  2.697864841443e+01   4.354285555348e+01   4.553292806222e+01 
1 -2.551052154831e+01   3.661332838248e+00  -3.406558781017e+01 
1 -7.710802089501e+00  -3.279991451448e+00   2.806612002282e+01 
1 -1.272667460544e+01  -2.474820406552e+01  -5.571528908725e+00 
1 -3.622733380743e+01   1.486259251671e+01   3.514986523727e+01 
1 -5.315298211643e+00   7.529977546174e+00   8.147940080760e+00 
8
Step 23000
1 -1.617163050315e+01  -3.889233266451e+01   2.178305785351e+01 
1 -7.921783938303e+00   7.103815591347e+00   2.345562968046e+01 
1  4.033654658145e+01   5.068222722299e+01   5.157891505612e+01 
1 -2.205011905103e+01   1.888384430321e+01  -4.717731799108e+01 
1  5.165964145743e+00   1.749668713839e+01   1.925669443901e+01 
1 -1.285638973392e+01  -4.066638193765e+01   5.071884865062e+00 
1 -3.485196747543e+00   9.223584232802e+00   3.047705468792e+01 
1  1.511728595511e+01   5.933397740261e+00  -2.992229328045e+01 
8
Step 24000
1 -1.537479165339e+01  -3.417680925182e+01   1.461566079173e+01 
1  2.400674395630e+01  -8.187059312423e-01  -1.019186404046e+01 
1  4.241514617235e+01   3.947030436875e+01   4.058145250824e+01 
1 -1.019365654652e+01   2.656413369181e+01  -5.157149940650e+01 
1  1.558995545000e+01   2.633517101318e+01   2.293892581606e-01 
1 -1.475957914766e+01  -3.706577791830e+01   1.691406278832e+01 
1  3.133413416053e+01  -4.468363086415e+00   1.421534725339e+01 
1  3.000873315425e+01   1.077237544623e+01  -5.655001485350e+01 
8
Step 25000
1 -1.181255507644e+01  -1.470603475480e+01   2.628615216907e+00 
1  4.394561702311e+01  -5.634796615133e+00  -3.704719555615e+01 
1  3.312422324510e+01   1.524017368829e+01   1.905411840500e+01 
1  6.347267107528e+00   2.224340164469e+01  -4.490211473554e+01 
1  1.720117161855e+01   2.279728815652e+01  -1.914193780672e+01 
1 -1.698218472649e+01  -1.690584171531e+01   2.233693716944e+01 
1  5.481047367158e+01  -2.052455153213e+01  -8.452432817363e+00 
1  3.645400688010e+01   2.008724777775e+01  -6.111296584150e+01 
8
Step 26000
1 -8.540454030149e+00   1.411666294303e+01  -8.551449977588e+00 
1  4.192768617109e+01  -4.470490685968e+00  -4.560390385176e+01 
1  1.574014877126e+01  -1.139548995345e+01  -3.978614343023e+00 
1  2.222592846353e+01   6.337244476965e+00  -2.640040866788e+01 
1  8.085139348754e+00   1.206556439308e+01  -2.883279566887e+01 
1 -1.611453027447e+01   9.345959074274e+00   1.654356332676e+01 
1  5.725946310892e+01  -3.149043229982e+01  -2.931857097149e+01 
1  3.374958715548e+01   2.690646291309e+01  -4.151747678103e+01 
8
Step 27000
1 -6.849282835741e+00   4.225968290647e+01  -1.465604878524e+01 
1  1.852893001598e+01   1.538011816927e+00  -3.226526732916e+01 
1 -4.382447224131e+00  -3.126478440011e+01  -2.109281634602e+01 
1  3.205795842725e+01  -1.589007836379e+01   1.467461720825e+00 
1 -6.961007839724e+00   1.888853998631e+00  -2.336712175207e+01 
1 -8.814109250927e+00   2.900292163407e+01   3.201352942611e-01 
1  3.717756869370e+01  -3.124240428374e+01  -4.052570162361e+01 
1  2.290780480398e+01   2.321126512269e+01  -5.475095390668e+00 
8
Step 28000
1 -5.234310638155e+00   5.873539945899e+01  -1.440633497368e+01 
1 -1.535947232172e+01   8.310329090380e+00  -3.021713322413e+00 
1 -2.164146918606e+01  -3.981557453432e+01  -2.840507979299e+01 
1  3.271796159771e+01  -3.569629604870e+01   3.224961904819e+01 
1 -1.900949965346e+01  -2.078608577668e+00  -4.683238540224e+00 
1  5.838764817254e+00   3.329279596208e+01  -1.989292991458e+01 
1  2.289403384880e+00  -1.800634834624e+01  -3.785880961473e+01 
1  6.373006811100e+00   5.150373105912e+00   3.220765096622e+01 
8
Step 29000
1 -1.029221876617e+00   5.569240692826e+01  -9.284723178843e+00 
1 -4.296682438671e+01   1.019388549229e+01   2.810878054921e+01 
1 -3.218032571341e+01  -3.587459493076e+01  -2.642429093809e+01 
1  2.402269455828e+01  -4.402468423491e+01   5.752358760323e+01 
1 -2.012672118620e+01   9.667060970779e-01   1.859994249958e+01 
1  2.511866681266e+01   2.141769525718e+01  -3.460045868044e+01 
1 -3.310770379378e+01   4.358620349134e+00  -2.261448336243e+01 
1 -1.207409259312e+01  -2.340894141936e+01   5.559512941506e+01 
8
Step 30000
1  7.097906166690e+00   3.294775473441e+01  -2.033699596326e+00 
1 -4.987814851383e+01   4.314449069055e+00   4.616971934771e+01 
1 -3.444281453256e+01  -2.216355399173e+01  -1.935009681701e+01 
1  8.025172814684e+00  -3.557701155761e+01   6.955403637012e+01 
1 -7.831375210154e+00   6.979844589362e+00   3.536605887509e+01 
1  4.249653469565e+01   6.253669915242e-01  -3.597067341136e+01 
1 -5.394657915197e+01   2.762184995555e+01  -1.055437749708e+00 
1 -2.791413195988e+01  -5.134827161996e+01   5.461310095531e+01 
8
Step 31000
1  1.755601373826e+01  -1.828633464843e+00   5.039702131786e+00 
1 -3.103110226687e+01  -6.438232926580e+00   4.233525301124e+01 
1 -2.897743594390e+01  -4.087179470022e+00  -1.199810500339e+01 
1 -1.155501974051e+01  -1.120907981634e+01   6.348921714094e+01 
1  1.260551525488e+01   9.419366849561e+00   3.723418462685e+01 
1  4.973455296154e+01  -1.794176911377e+01  -2.188380686327e+01 
1 -5.084521120170e+01   4.269621987572e+01   1.845245265535e+01 
1 -3.687697070944e+01  -6.486964343637e+01   2.952810341181e+01 
8
Step 32000
1  2.580156678390e+01  -3.659136018773e+01   1.051709463490e+01 
1  6.330868983225e+00  -1.566607736238e+01   1.744160567671e+01 
1 -1.781152314894e+01   1.372534809167e+01  -6.821541979491e+00 
1 -2.979207813081e+01   2.189481498985e+01   3.925286100812e+01 
1  3.018429166582e+01   3.553420233707e+00   2.226569018177e+01 
1  4.064052032815e+01  -2.488809939706e+01   2.848493324043e+00 
1 -2.453014555675e+01   4.307931721496e+01   2.904473604038e+01 
1 -3.588933958026e+01  -5.404801215289e+01  -9.019368100639e+00 
8
Step 33000
1  2.610879948438e+01  -5.907720665343e+01   1.355588429546e+01 
1  4.475527884731e+01  -1.694146398823e+01  -1.815610338162e+01 
1 -3.861601785764e+00   2.798862668779e+01  -2.981454004548e+00 
1 -4.140456691476e+01   5.184923924274e+01   2.444003421217e+00 
1  3.405789152353e+01  -1.042926327702e+01  -3.733287728613e+00 
1  1.472501110218e+01  -1.710226269542e+01   2.819851194224e+01 
1  1.373936199191e+01   2.761358478677e+01   2.808493686191e+01 
1 -2.435434247775e+01  -1.873309142649e+01  -4.392831875365e+01 
8
Step 34000
1  1.545374683145e+01  -6.161395132958e+01   1.378950408951e+01 
1  6.468050648810e+01  -7.015465750440e+00  -4.863202954133e+01 
1  1.029093048360e+01   3.556772697786e+01   2.020216687950e+00 
1 -4.227718711438e+01   6.612191793195e+01  -3.686078163573e+01 
1  1.937458377473e+01  -2.692804303508e+01  -2.936361873910e+01 
1 -2.126316295681e+01   5.222611783086e-01   4.312198426641e+01 
1  4.641126864509e+01   1.518634891327e+00   1.814358643512e+01 
1 -5.216245046798e+00   2.937217990816e+01  -5.896307028680e+01 
8
Step 35000
1 -3.966475513167e+00  -4.505582928754e+01   1.048274436596e+01 
1  5.450349788485e+01   1.054276963932e+01  -5.969065681726e+01 
1  2.322549657161e+01   3.441168693976e+01   1.032407838762e+01 
1 -3.103722496366e+01   5.709581011780e+01  -6.755021262133e+01 
1 -9.150321995922e+00  -3.690555704250e+01  -4.333029889678e+01 
1 -5.519823572186e+01   1.754936499751e+01   4.074498195191e+01 
1  5.773881314072e+01  -2.528713888722e+01   5.593317016826e+00 
1  1.574421060909e+01   7.100538557521e+01  -4.682421372597e+01 
8
Step 36000
1 -2.516415392356e+01  -1.712838990373e+01   2.764819150279e+00 
1  1.654486496497e+01   2.582440167805e+01  -4.551980742681e+01 
1  3.335644551161e+01   2.397322453483e+01   2.184653410013e+01 
1 -9.672887297087e+00   2.566761492572e+01  -8.117364147105e+01 
1 -3.814077439345e+01  -3.255619296465e+01  -3.979975232904e+01 
1 -7.407333131053e+01   2.383737097056e+01   2.188534284107e+01 
1  4.134891746394e+01  -4.250329594364e+01  -2.876496613015e+00 
1  3.197118268780e+01   8.804860914885e+01  -1.280208491978e+01 
8
Step 37000
1 -3.875702182416e+01   1.155125094330e+01  -8.619557525733e+00 
1 -3.279927857078e+01   2.844713646961e+01  -1.181008575369e+01 
1  3.802395781501e+01   5.391221241027e+00   3.293384991044e+01 
1  1.631541136387e+01  -1.840720973465e+01  -7.416612978860e+01 
1 -5.215068918007e+01  -1.206506916382e+01  -2.068902240269e+01 
1 -6.916522987411e+01   1.502970181260e+01  -5.128139184370e+00 
1  3.312579088053e+00  -4.379053114762e+01  -3.860812508893e+00 
1  3.818374538360e+01   7.204460280225e+01   2.778447632611e+01 
8
Step 38000
1 -3.728767483485e+01   3.169618438674e+01  -2.062180318784e+01 
1 -7.037315072138e+01   1.388026148618e+01   2.745827963703e+01 
1  3.426494013190e+01  -1.742281711194e+01   3.730058440790e+01 
1  3.887298308565e+01  -5.919263791542e+01  -4.858860625346e+01 
1 -4.207374805979e+01   1.845523658391e+01   4.983753563548e+00 
1 -4.056014521910e+01  -4.913827950297e+00  -2.822165414171e+01 
1 -3.936037656447e+01  -2.922682514353e+01   1.009322972584e+00 
1  3.237292074528e+01   2.899507661372e+01   5.629843648256e+01 
8
Step 39000
1 -2.022746990231e+01   3.925328440409e+01  -2.835873978622e+01 
1 -7.803123043908e+01  -1.270557175054e+01   5.674343744683e+01 
1  2.063116892302e+01  -3.740725746682e+01   2.956940219212e+01 
1  5.024865487201e+01  -8.075984404184e+01  -1.158409945169e+01 
1 -1.092643150098e+01   4.664348614738e+01   2.582409596147e+01 
1  1.778897824603e+00  -2.535982259798e+01  -3.750243102255e+01 
1 -6.609173436957e+01  -5.552972514746e+00   6.115283001942e+00 
1  1.711561830336e+01  -2.265280309176e+01   5.943196341010e+01 
8
Step 40000
1  4.823052143962e+00   3.633134019856e+01  -2.647374002248e+01 
1 -5.146799394110e+01  -3.820087495384e+01   6.494855593642e+01 
1 -1.261807591768e+00  -4.669709781285e+01   9.077512452324e+00 
1  4.628698869234e+01  -7.423721118539e+01   2.716862245105e+01 
1  2.680470618069e+01   5.968058159560e+01   3.390696646791e+01 
1  4.247304807042e+01  -3.484726503048e+01  -2.998558932404e+01 
1 -6.346403329666e+01   1.698991366414e+01   5.186151236115e+00 
1 -1.411697116119e+00  -6.101475628318e+01   3.623556599757e+01 
8
Step 41000
1  2.629641483887e+01   2.794340816296e+01  -1.274241456628e+01 
1 -2.723631817017e+00  -4.801502250880e+01   5.014997233258e+01 
1 -2.619172363314e+01  -4.013909056421e+01  -1.839402331907e+01 
1  2.842331089498e+01  -4.152135970859e+01   5.846310992277e+01 
1  5.298093895328e+01   5.051073276656e+01   2.788527187239e+01 
1  6.737724910955e+01  -2.754469516195e+01  -1.097834469389e+01 
1 -3.174163956532e+01   2.972304366475e+01  -4.701724324394e+00 
1 -1.632588845297e+01  -7.152415690740e+01  -1.564951632887e+00 
8
Step 42000
1  3.456143860914e+01   1.851481387188e+01   9.130476814597e+00 
1  4.519450086143e+01  -3.402040623458e+01   2.053238115385e+01 
1 -4.557788616674e+01  -1.845241201965e+01  -4.288798221577e+01 
1  3.499808817498e+00   4.870974466276e+00   7.525790407144e+01 
1  5.500495187956e+01   2.152063910699e+01   1.349678496677e+01 
1  6.901994411658e+01  -6.234564565923e+00   8.854599570958e+00 
1  1.562014593234e+01   2.876972269517e+01  -2.071393932836e+01 
1 -2.294733586033e+01  -5.360363486790e+01  -3.629054748041e+01 
8
Step 43000
1  2.667649495205e+01   9.878683131364e+00   3.075592249395e+01 
1  7.113347893679e+01  -1.001471891284e+00  -1.099215806611e+01 
1 -5.075984666804e+01   1.046204680438e+01  -5.481698913446e+01 
1 -1.916047329801e+01   4.680458110530e+01   7.418792182019e+01 
1  3.241373541120e+01  -1.552493429785e+01  -1.168566923175e-01 
1  4.994856066470e+01   1.893577858832e+01   1.942028861594e+01 
1  5.736234865815e+01   1.675362063230e+01  -3.508626780590e+01 
1 -2.043075911907e+01  -2.030677911578e+01  -5.332049530705e+01 
8
Step 44000
1  7.944955239247e+00   1.374903130639e+00   4.270955056940e+01 
1  6.660580595013e+01   3.491235012923e+01  -3.377051891568e+01 
1 -3.823566192163e+01   3.473507739776e+01  -4.960594886719e+01 
1 -3.209639554542e+01   6.921287056371e+01   5.649066223042e+01 
1 -2.482106478795e+00  -4.526057466341e+01  -7.121029071479e+00 
1  2.042690632615e+01   3.609010362015e+01   1.652134364246e+01 
1  7.522253101287e+01   1.387605383973e+00  -3.933120203071e+01 
1 -1.168134936674e+01   9.648765491347e+00  -4.709517908075e+01 
8
Step 45000
1 -1.133345281128e+01  -8.183292468350e+00   3.835113722183e+01 
1  3.723356224856e+01   5.601412361670e+01  -4.274699207341e+01 
1 -1.178455872029e+01   4.470737505156e+01  -2.902745385610e+01 
1 -3.256826754295e+01   6.597928031030e+01   2.649399272079e+01 
1 -3.228743264469e+01  -5.715584686669e+01  -7.048110116800e+00 
1 -8.051665066987e+00   3.827374742172e+01   3.427961558325e+00 
1  6.272760451493e+01  -9.656153838870e+00  -2.868021674781e+01 
1 -1.950407993100e+00   2.306067613934e+01  -2.320372679010e+01 
8
Step 46000
1 -2.145934519561e+01  -1.886520170125e+01   1.740002870229e+01 
1 -2.096619791350e+00   5.158106564425e+01  -3.908581470127e+01 
1  1.942045467318e+01   3.643587990347e+01   1.550219318709e-01 
1 -2.312235390875e+01   3.993682971568e+01  -9.574466160076e+00 
1 -4.413037784532e+01  -4.822639602350e+01  -2.926166167646e+00 
1 -2.741032607498e+01   2.554288693543e+01  -1.159246995838e+01 
1  2.552873154247e+01  -1.211550376270e+01  -4.137898181847e+00 
1  3.995964264664e+00   1.780889535065e+01   6.006604467340e+00 
8
Step 47000
1 -1.816866047843e+01  -2.833625074010e+01  -1.303415196187e+01 
1 -3.449026994074e+01   2.170488567288e+01  -2.748945363545e+01 
1  4.363838553322e+01   1.267037666993e+01   2.862789406184e+01 
1 -9.843713606287e+00   1.679944464381e+00  -4.335851181531e+01 
1 -3.414838166352e+01  -2.227804293390e+01  -1.085929848803e-01 
1 -3.469955843622e+01   3.580137990630e+00  -1.950665645138e+01 
1 -2.184551878305e+01  -5.858850073625e+00   2.718626380113e+01 
1  4.154445614942e+00   1.691777918123e+00   2.840112067784e+01 
8
Step 48000
1 -3.946582894812e+00  -3.197868901395e+01  -4.097137540064e+01 
1 -4.926033832563e+01  -2.124695719687e+01  -1.248910447323e+01 
1  5.036253674053e+01  -1.696671783574e+01   4.766492252726e+01 
1  1.066698163506e+00  -3.406419747646e+01  -6.573431098294e+01 
1 -7.931559750992e+00   1.050524694982e+01  -3.091015553327e+00 
1 -3.222086606407e+01  -1.870217760460e+01  -1.517924363631e+01 
1 -6.105497739078e+01   4.690351396708e+00   5.402098289671e+01 
1 -1.863613687962e-01  -1.256018285484e+01   3.703947522360e+01 
8
Step 49000
1  1.334082618436e+01  -2.647939265355e+01  -5.450711098401e+01 
1 -4.433512984536e+01  -5.801329706177e+01   3.027213787146e+00 
1  3.561357135664e+01  -3.909695380441e+01   5.218339955825e+01 
1  6.088694168925e+00  -5.437044656794e+01  -6.990714977740e+01 
1  2.132743019076e+01   3.697950671806e+01  -1.088907720359e+01 
1 -2.449511620452e+01  -3.291267973979e+01   3.043789233238e-01 
1 -7.752049805426e+01   1.270565745120e+01   6.539378702368e+01 
1 -6.103402144936e+00  -1.338444657075e+01   3.065491245019e+01 
8
Step 50000
1  2.395712014940e+01  -1.235444226757e+01  -4.658446464875e+01 
1 -2.515653169675e+01  -7.139510783816e+01   1.629010713117e+01 
1  4.797291431524e+00  -4.336666969650e+01   4.235513459732e+01 
1  5.334545202487e+00  -5.286272130814e+01  -5.391891618335e+01 
1  3.897632783424e+01   4.788090866616e+01  -1.816351137671e+01 
1 -1.552652402592e+01  -3.492006222214e+01   1.997032116799e+01 
1 -6.587458208782e+01   1.299712956923e+01   5.501896413907e+01 
1 -9.324077068560e+00   2.627390850350e+00   1.442207322980e+01 
8
Step 51000
1  2.212903730472e+01   6.843569262215e+00  -1.891083281257e+01 
1 -2.678003927758e+00  -5.389333143151e+01   2.599447775477e+01 
1 -2.903478634619e+01  -2.722838498134e+01   2.199710712274e+01 
1  2.047707273456e+00  -3.126412011730e+01  -2.202116957441e+01 
1  3.662391903827e+01   4.093820908032e+01  -1.948468532218e+01 
1 -7.383694600729e+00  -2.578744101735e+01   3.409864616486e+01 
1 -3.102093948845e+01   3.876853231570e+00   2.407020928133e+01 
1 -6.225628181932e+00   2.789433230038e+01  -2.801175552527e+00 
8
Step 52000
1  8.503238738822e+00   2.518163545079e+01   1.784169137047e+01 
1  1.319610235269e+01  -1.191796571911e+01   3.183225589621e+01 
1 -5.065650772708e+01   2.686013736236e+00  -3.517791494704e+00 
1  1.600510826031e+00   9.800000119160e-01   1.550436816429e+01 
1  1.599309119771e+01   2.001783092177e+01  -1.146437875022e+01 
1  7.520300212696e-02  -1.028059420619e+01   3.470983876937e+01 
1  1.329229761600e+01  -1.155986495420e+01  -1.802378052692e+01 
1  3.114691485269e+00   4.792911692292e+01  -1.411987295622e+01 
8
Step 53000
1 -1.076020465889e+01   3.476571149115e+01   4.792820040606e+01 
1  1.953941228934e+01   3.623536662292e+01   3.213117245085e+01 
1 -4.973855611400e+01   3.323554180969e+01  -2.741752098806e+01 
1  7.537665664141e+00   2.961207835564e+01   4.565808616274e+01 
1 -1.272742624459e+01  -5.773089571257e+00   5.178172765286e+00 
1  8.308878525631e+00   5.511201007024e+00   1.989262139023e+01 
1  5.019530732900e+01  -2.541904905778e+01  -5.641499765710e+01 
1  1.442921624252e+01   4.968552156801e+01  -1.775063432508e+01 
8
Step 54000
1 -2.683105079806e+01   3.179303180316e+01   5.785562319620e+01 
1  1.874113297625e+01   6.957857161121e+01   2.437900585203e+01 
1 -2.574377841532e+01   4.973838954082e+01  -4.292371792537e+01 
1  1.796345228417e+01   4.286566076075e+01   5.837362876743e+01 
1 -3.588737550829e+01  -2.517305538878e+01   2.391923491958e+01 
1  1.762967109299e+01   1.689519211532e+01  -5.092631135759e+00 
1  6.748429871519e+01  -2.977838032938e+01  -7.724797583862e+01 
1  2.261735352777e+01   2.786179214346e+01  -1.507495373551e+01 
8
Step 55000
1 -3.146443441954e+01   1.923644811872e+01   4.328044992445e+01 
1  1.473637631847e+01   7.360619905440e+01   9.377967772442e+00 
1  1.115688552421e+01   4.342951854044e+01  -4.675821412334e+01 
1  2.709054082006e+01   3.677740370536e+01   5.084075912092e+01 
1 -4.242972770350e+01  -3.061835055810e+01   3.553254573499e+01 
1  2.616261101684e+01   2.206297224392e+01  -3.010074271976e+01 
1  6.108548274693e+01  -2.111989093640e+01  -7.309761396799e+01 
1  2.317851655561e+01  -1.154628880088e+01  -1.003813771243e+01 
8
Step 56000
1 -2.273802829024e+01   2.472890973212e+00   1.089175257624e+01 
1  1.192153055293e+01   4.673497061758e+01  -9.069126437595e+00 