8
Step 0
1 -4.335052367192e+01   6.226770353478e+01  -1.571831079641e+01 
1 -4.197517804778e+01   5.557624918835e+01   6.050689884240e+01 
1  4.062082842113e+01  -6.869837660098e+01  -6.406602060552e+00 
1  3.202042668263e+01  -9.333787405458e+00   7.585091136361e+01 
1  2.169421302650e+01  -5.304981751903e-01  -3.452327492586e+01 
1  2.479565131470e+00   3.727202342153e+01  -7.541307749490e+01 
1  3.539535683763e+01   1.835259957186e+01  -5.811004072382e+01 
1  1.040422054410e+01   7.251222155371e+01   5.312714128624e+01 
8
Step 1000
1  1.056948135265e+00  -2.103224600146e+01   1.327777814657e+01 
1 -6.126638594161e+01   6.571887764112e+01   3.073534186951e+00 
1 -2.566441883016e+00   3.277372237337e+01  -7.481913218270e+01 
1 -8.724571164953e+00  -2.263566475631e+01   9.645234565723e+01 
1 -2.388235507969e+01  -2.765525201548e+01  -2.661280127457e+01 
1 -1.075004124580e+02   6.729845773516e+01   5.816642913155e+00 
1  1.578415983181e+01  -6.984646198698e+01   7.364589928898e+01 
1 -2.202886291313e+01  -4.064068875982e+01   4.640774266491e+01 
8
Step 2000
1 -8.112598192604e+01  -3.735601530899e+01  -1.746907919250e+00 
1 -3.310368689061e+01   4.075311107180e+01   3.060038285846e+01 
1  4.983031884698e+01  -6.145388901491e+01   1.039148356836e+01 
1 -2.940954949059e+01   1.748096593269e+01  -1.445283188405e+01 
1  4.352093666908e+01   7.448700560205e+00  -4.965369693441e+01 
1 -3.789033054724e+00  -1.024927089821e+02  -1.878031362466e+01 
1  2.339827909111e+01   1.513511740916e+01  -8.400756116404e-01 
1  1.862444339413e+01  -1.246665842861e+01  -1.155347719888e+01 
8
Step 3000
1  4.083553043756e+01  -4.543862711324e+01   3.992438402873e+01 
1 -3.230432633492e+01  -1.488122666287e+01   5.130991951578e+01 
1  9.701722502011e+00   7.533656571173e+01  -5.421654399391e+01 
1 -1.848411281369e+01  -5.011056437697e+01   1.056993378587e+02 
1 -5.038125698563e+01   7.290223005832e+01  -2.071148050841e+01 
1  1.714939371901e+01  -1.070735567981e+01  -6.312423343566e+01 
1 -6.137452137925e+00  -2.771835775313e+01   3.277836280541e+01 
1  2.877227061696e+01  -5.179877699390e+01   4.011797486284e+01 
8
Step 4000
1 -3.276122548295e+00   2.049155554489e+00  -2.743857784089e+01 
1 -1.200696321185e+01   3.495989466434e+01  -2.641133549867e+01 
1 -1.876893107104e+01   4.436941471211e+00   5.198212449156e+01 
1 -1.782064534170e+01  -8.945600930461e+01   5.606983220491e+00 
1  2.287209189389e+01  -1.804553743186e+01  -4.191209144057e+01 
1 -3.866047800636e+01  -4.812866992222e+01  -4.987812771300e+01 
1 -5.047270423037e+01   4.632779781471e+01   3.399434388677e+01 
1  4.301854966754e+01  -2.989556647375e+01  -2.789817107080e+01 
8
Step 5000
1 -6.419958341391e+01   5.787826975030e+01   1.890021527212e+01 
1 -1.257770792196e+00   4.242412759337e+01  -4.577653840264e+00 
1  3.558907271565e+01   1.841880359471e+01   1.876942775559e+01 
1  3.389675190344e+01   1.587254087990e+01   1.569806164863e+01 
1 -9.357993496690e+01   6.301216231233e+01   2.654088878463e+01 
1  3.326726011369e+01  -6.302082259459e+01  -2.863857259303e+01 
1 -6.211666706395e+00   1.402929652562e+00   1.399647864822e+01 
1 -6.634280461801e+01  -1.456514144532e+01   3.261070516619e+01 
8
Step 6000
1  1.269053768499e+01   2.028639895664e+01  -3.987539912726e+01 
1 -7.703385731945e+00  -2.856302064155e+00  -2.626379941297e+01 
1 -4.288772833048e+01   5.131283958125e+01  -1.654563565941e+00 
1  3.164992984242e+01  -1.367466135450e+01   8.548678212574e+01 
1  7.157299020827e-01  -2.715086346248e+01   1.635765210182e+01 
1 -4.497550450081e+01   5.658805498174e+01  -6.847285664211e+01 
1 -1.339902546411e+01  -8.347667760115e+01  -1.081423306280e+01 
1  3.685209453609e+01  -1.049751621819e+02  -5.597664090444e+01 
8
Step 7000
1 -1.852884104002e+01  -1.098466337095e+02  -8.191733878777e-01 
1 -8.515734336838e+00   5.951115691742e+01  -7.296920809684e+00 
1 -9.102078793825e+00  -1.067407572440e+01  -1.929837985476e+01 
1 -7.152479590745e+01   7.451796780443e+01  -1.479030858576e+01 
1 -4.287494722183e+01  -1.014819685755e+01  -8.652204230815e+00 
1  1.616534985804e+01  -6.335906089876e+01  -9.786245438586e+00 
1  1.644911298923e+01  -5.057572518766e+01   1.168035955355e+01 
1  2.078485671851e+01  -3.880244741192e+01   7.612303429004e+01 
8
Step 8000
1  6.397079273085e+01  -9.778162116685e+00  -8.569619465803e+01 
1 -4.551681581460e+01  -1.373490531107e+01   9.308500402993e+01 
1  5.300749157756e+01   2.437041241935e+01  -1.933135027412e+00 
1 -3.546998265672e+01  -3.709188258873e+01   2.477190401299e+01 
1  1.873840895549e+01  -1.567394453740e+01  -2.952775665307e+01 
1 -4.554991303700e+01   4.517273164259e+01  -4.612087060403e+01 
1  2.649808522631e+01  -7.634019157217e+01  -4.522420494844e+01 
1  2.500071295894e+01   1.278062451434e-01  -1.202298640866e+01 
8
Step 9000
1  8.125159949319e-01   5.466408191319e+01   5.212210692258e+01 
1  1.082309869975e+01   4.702975547469e+01  -5.260342597242e+01 
1 -3.465187259765e+01   1.172872244258e+01  -4.400407583358e+01 
1 -1.227154990352e+00   6.073820982956e+01   1.044053338718e+02 
1  7.990890715082e+01   1.569185478542e+01   1.153832445344e-01 
1 -5.913515858597e+01   3.867339283139e+01  -1.891216610105e+01 
1 -1.631137186334e+01  -2.514681145232e+01  -1.704533352620e+00 
1 -5.604403254295e+01  -4.958392403429e+01  -2.415065190860e+01 
8
Step 10000
1 -3.508307550435e+01  -1.042509856095e+01  -1.203767496445e+02 
1 -3.969709842824e+01   6.545967623886e+01   3.968331550822e+01 
1  5.719720099364e+01  -2.599415199710e+01  -8.186408533312e+00 
1 -1.743792030234e+01  -2.175316474890e+01  -3.961524877743e+01 
1 -3.021892524530e+01  -3.945268135947e+01  -4.098439095693e+00 
1  3.060977748574e+01  -4.538743237106e+01  -1.161073869155e+00 
1 -4.803143992307e+01  -2.631908851264e+01  -3.743724294577e+01 
1 -2.697372598370e+01  -2.843022747738e+01   3.792005920351e+01 
8
Step 11000
1 -9.481955521102e+00   8.181874915585e+01   2.115575146579e+01 
1 -9.878381721814e+00  -5.067712911114e+01  -1.730666051485e+01 
1 -1.660368951982e+01  -1.144929520820e+01  -1.472828604479e-01 
1  2.839518591266e+01   5.992715384324e+01   6.462296155309e+01 
1  3.784839283618e+01   3.029065717895e+01  -4.135471541730e+01 
1 -2.836772797641e+01   1.957670256287e+01  -4.074542071490e+01 
1  8.584804897404e+01  -2.834869096019e+01   9.407850662439e+00 
1 -2.322448126827e+00  -3.449824301028e+01  -5.017285162971e+00 
8
Step 12000
1  2.972897872174e+00  -6.317007587094e+01  -1.000702274232e+02 
1  2.172761543287e+01   2.133883501148e+01  -1.618778849185e+01 
1 -1.207476071632e+00  -4.986915598036e+01   1.305456825889e+01 
1 -1.668492377633e+01  -1.662342621198e+01  -6.203029291307e+00 
1 -6.640844952853e+01   1.022584219890e+00  -1.053707570108e+01 
1  4.609658541207e+01  -6.210086873089e+01  -2.895301294802e+01 
1  2.784083639397e+01   3.420694443104e+00   3.287803640944e+01 
1 -5.028382654242e+00  -6.425902336985e+01   1.181867855204e+00 
8
Step 13000
1 -5.159687770984e+01   8.048561290782e+01   1.355778860388e+01 
1  1.130043120846e+01  -4.431331667431e+01   3.156906918787e+01 
1  3.707518858040e+01   3.602005548413e+01  -1.941391104948e+01 
1  4.957489494587e+01  -2.561410099175e+01  -1.214979504389e+01 
1  3.460446500659e+01   5.113173324462e+01  -6.127084852544e+00 
1  4.730105277688e+00   5.827008758956e+01  -2.976882511047e+01 
1 -4.833707013694e+01   8.403785656883e+00  -2.538237058879e+01 
1 -1.155330202166e+00   1.176593861449e+01   2.063951501665e+01 
8
Step 14000
1  1.088312858921e+01   4.977289831848e+01  -1.167550388069e+01 
1  5.943981436642e+01   7.846065932160e+00  -5.030198633089e+01 
1 -6.217496629535e+01   6.354164159892e+01   5.869363719389e+01 
1  1.397933369188e+01  -1.762002175232e+01   6.247652561313e+01 
1  5.181102426529e+01   1.102547225085e+00  -1.029299949355e+01 
1 -5.922322452488e+01  -2.820727145418e+01  -7.102601543525e+01 
1  3.900588903047e-01   3.135983462276e+01   4.103088757631e+01 
1 -5.782327029405e-01  -6.547167581412e+01  -8.153548781577e+01 
8
Step 15000
1 -5.417521637216e+01  -4.472972780834e+00  -1.102837805387e+02 
1 -6.035054615301e+01   4.439184559544e+01  -1.134628899773e+01 
1  4.038232849578e+01  -3.800627239322e+01  -1.073182902570e+00 
1  2.164496208276e+01  -3.034087069473e+01  -1.850586604019e+01 
1 -4.603483416345e+01   4.841674811133e+01   4.155123677715e+01 
1  6.286763369386e+01  -7.111945193257e-01   3.928989008441e+01 
1  2.159634225856e+00   7.993610288282e+00   4.026493444911e+00 
1  5.220831446780e+01   1.040331340532e+01   2.153151933249e+00 
8
Step 16000
1  2.649768419305e+00  -1.227021191401e+01  -1.399290445486e+00 
1  3.371324826231e+01  -1.109087108789e+02  -2.609194790368e+01 
1 -7.447451353775e+01   8.216594240556e+00  -3.583109911492e+01 
1 -2.969513931511e+01  -1.100219625799e+01   3.782417214158e+01 
1  5.263686915743e+01   9.733499847313e+00   6.382694155384e+00 
1  4.055231512298e+00   4.449113526460e+01  -2.251210031107e+01 
1  5.229206542609e+01  -6.446576687331e+01  -1.182643047948e+01 
1  4.732106934461e+01  -3.907932777913e+01   2.022549525551e+01 
8
Step 17000
1  5.985667652068e+01  -4.637260653639e+01  -5.805061693002e+01 
1  2.038247816247e+01   4.083538881116e+01   4.443622544592e+01 
1  1.605627410920e+01  -1.264953155966e+01   3.543677732791e+01 
1  6.378122236880e+01   1.023112043571e+02  -5.460548162435e-01 
1  6.233413176718e-01   1.025924558935e+01   5.750141502514e+01 
1  4.171654883756e+00   1.154591782077e+01   7.788909383995e+00 
1  1.249108391569e+01   7.749675936199e+01  -4.638422737289e+01 
1  7.434694616612e+00   1.243170494806e+01  -5.716005037725e+01 
8
Step 18000
1 -2.424571131033e+01   5.422591770946e+01   7.778670434090e-01 
1  2.628582834565e+01  -8.211169938655e+01  -3.213408847640e+01 
1  2.158380368607e+01  -3.711884357830e+01  -1.726680276531e+01 
1 -6.280738062047e+01   5.205755258161e+01  -5.113302897478e+00 
1  4.917013803117e+01  -1.122343225283e+01   2.538432761397e+01 
1 -3.442848441974e+01   7.254998061289e+01   5.016995736374e+01 
1  1.899033697085e+00  -1.423882353521e+02  -2.701851212085e+01 
1 -5.680695659697e+01   5.432137858598e+01   1.209960059763e+01 
8
Step 19000
1  2.809780977980e+01  -8.686766752054e+00   1.294188951004e+00 
1 -9.698220654437e+00   5.127061525808e+01  -1.345954592691e+00 
1  1.643482537602e+01   2.164430936389e+00   1.594401600746e+01 
1  1.473256072139e+01   4.069699224825e+01   2.414481233159e+01 
1  4.125014086972e+01   4.604366044736e+00   1.408478038648e+01 
1 -2.711243260204e+01   8.335822639639e+01  -3.658610449674e+01 
1  2.787714675685e+01   8.932191584769e+01  -1.412035752249e+01 
1  5.719693158805e+01  -4.443727900001e+01  -1.690477402566e+01 
8
Step 20000
1  2.176797520852e+01  -8.394683653009e+01  -4.908393375084e+01 
1  1.969322244390e+01  -4.932398335934e+01  -4.440425709441e+01 
1 -7.302153297100e+01  -2.642842412469e+00  -5.999955273527e+00 
1 -3.067097156585e+01  -9.518273059563e+00  -1.736894122576e+01 
1  3.001701727775e+01   3.551985944472e+00   7.724114555112e+01 
1  3.392448039369e+01   1.841543077369e+01   8.102093407926e+01 
1  1.908938831621e+01  -1.959836935150e+01  -2.018425410394e+01 
1  1.820540893093e+01  -2.931019717320e+01   3.557320696254e+01 
8
Step 21000
1  6.846740743732e+00   8.006122498407e+00   1.623005944369e+01 
1  1.624135212511e+01  -1.167962516544e+02   4.044820715893e+00 
1  7.199440773818e+01   7.162591346890e+00  -3.235975496777e+00 
1  3.741973526748e+01   2.589933966728e+01  -1.784043459041e+01 
1 -4.572985306221e+00   4.388505776986e+01  -4.811441780269e+01 
1  2.514323630592e+01  -2.680143619084e+00  -1.235970933508e+01 
1  4.704442055414e+00   3.040641319854e+01   5.487156001964e+01 
1 -1.681155628420e+01   2.842455847514e+01  -1.470664540419e+01 
8
Step 22000
1  3.514932331515e+01  -4.041137140012e+01   4.335600640119e+01 
1  8.371833058054e+01   2.267172124886e+01   6.824315364223e+01 
1 -6.954457979003e+01   1.410384492160e+00   2.312860989416e+00 
1  2.404506223305e+01   2.003111502622e+01  -1.610701909561e+01 
1 -1.671419394487e+01   7.617314929612e+01   9.818574933627e+01 
1  5.509551602409e+01  -4.137553925263e+01   4.241837832673e+01 
1 -3.178620461863e+01   9.180709648174e+01  -5.517794377462e+01 
1 -3.314937794537e+01  -4.056120371844e+01  -5.804840263256e+01 
8
Step 23000
1 -9.247246057164e+00   8.128254361013e+01  -1.367268051582e+01 
1  2.619716337108e+01  -4.727564932437e+01  -3.551753780197e+01 
1  1.576466979093e+01   2.860098173963e+01   1.136089092532e+01 
1  5.264296353658e+01   4.061766047948e+00  -5.051752317889e+01 
1  2.444877777327e+00  -4.043874645078e+00   2.476850925357e+01 
1  3.960964485717e+01   1.608233393342e+01   2.248503096703e+01 
1 -7.509268943669e+01  -8.689729104050e+00  -2.625783811573e+01 
1 -1.637819547913e+01   6.553841652859e+01   4.941810973349e+01 
8
Step 24000
1 -1.595638860349e+01  -3.343600150681e+01  -1.046376124270e+01 
1 -2.068852753443e+01  -2.050979936904e+01   2.599531869909e+01 
1 -6.955917414408e+01  -8.262667821184e+01  -1.782582486289e+01 
1 -5.952228564582e+00  -1.929521974286e+01  -6.352688824847e+01 
1  1.048670412496e+01  -5.127296436830e+00   2.182963304161e+01 
1  6.175276400426e+01  -7.527124076828e+00   4.548173783750e+01 
1  4.964153291661e+01   4.729335472096e+01   1.118087760612e+02 
1 -6.279334445295e+01  -1.247043101256e+01   6.891732965110e+00 
8
Step 25000
1  3.421424222518e+01  -5.453053035907e+01   1.325565565060e+01 
1  6.346595595159e+01  -3.753512738863e+01   6.390076688866e+00 
1  2.285304639977e+01   3.594165212619e+01   3.624618694787e+01 
1  5.059272761652e+01   5.508254082153e+01  -3.681571878082e+01 
1  3.593669961072e+01  -3.916963010289e+01   3.445285042543e+01 
1 -3.442272660416e+01   3.789614721094e+01  -1.203720740036e+01 
1 -9.520089388380e+00  -3.373283332754e+01  -3.338870389033e+01 
1  3.836308790251e+01   5.866757407636e+01  -1.526497759681e+01 
8
Step 26000
1  5.924429647417e+01   3.033561234142e+00  -9.081038290133e+00 
1 -1.717133130242e+01  -3.210391249632e+01   5.720331831016e+01 
1 -2.434234670560e+00  -5.583154066854e+01  -2.193903639034e+01 
1 -1.118229926417e+02  -1.543942688410e+01  -5.888204178290e+01 
1 -1.265118085185e+00  -4.784122735552e+01   2.740422417297e+01 
1  1.419747091924e+01   8.670450574322e+01   3.594199499711e+01 
1 -2.838786240735e+00  -3.459857256453e+01   4.475420887743e+01 
1 -3.815177270156e+01   2.568576847068e+01   5.971303410515e+01 
8
Step 27000
1  4.862953337836e+00   1.778638793620e+01   6.327123952259e+01 
1  2.468557178789e+01   4.469871642994e+01   4.149796813549e+01 
1  1.028156903689e+01  -3.931474989407e+01  -2.837440268006e+01 
1 -1.025952459757e+01   9.203910925417e+01  -1.229628489624e+01 
1  3.696546545005e+01  -1.912730019153e+01   3.804919797349e+00 
1 -9.889555116882e+01   5.706468008656e-01  -3.899448489539e+01 
1  5.269490195927e+01   2.197674450102e+01  -3.072045801397e+01 
1  4.416687649856e+00   2.239539023555e+01  -2.372151309183e+01 
8
Step 28000
1 -2.456805812851e+01   6.704893948820e+01  -2.317878082142e+01 
1 -4.723945787095e+01  -3.459869930948e+01  -2.040651016734e+01 
1 -1.880686691083e+01   2.039347185773e+01   2.710742204180e+01 
1  6.653485109869e+00  -3.278141624064e+01  -4.335053556853e+01 
1 -2.386617854526e+01  -7.546262209847e+01   1.742121587591e+01 
1  5.846039715085e+01  -4.530279452023e+01   1.177469226165e+02 
1 -4.035350138005e+01  -1.077403505258e+01   8.713027730419e+00 
1  1.069572040968e+00   1.206096048999e+02   5.331588775793e+01 
8
Step 29000
1  2.078036077597e+01  -1.437436418841e+01   1.306724237604e+01 
1 -1.185562735906e+01   2.983131345116e+01  -1.040758289361e+00 
1 -4.589327692889e+01  -8.151278526189e+01  -9.277074000995e+01 
1  3.960857107535e+01  -4.988658233084e+00  -3.973178618343e+01 
1 -9.153383211081e+00  -1.921460263470e+01   1.317565444567e+00 
1 -3.483941353523e+01   1.616314724874e+01   1.415067500840e+01 
1  4.032929126643e+01  -1.548503765240e+01   1.057795664573e+01 
1 -1.572639887540e+01  -1.024657364337e+02   1.828723239990e+01 
8
Step 30000
1 -4.364309269066e+01  -6.147902138749e+00   4.005484988201e+01 
1  6.851301848529e+01  -2.542965942568e+01  -1.111179707135e+01 
1 -8.223430709968e+01   4.612518744637e+01   8.744378886373e+01 
1 -4.032591481174e+01   5.835135965637e+00  -1.271060852385e+01 
1 -3.097198448661e+01  -2.493887803433e+01   2.067675826786e+01 
1 -2.512977160344e-01  -3.075787591948e+01   5.370607238362e+01 
1  1.292305954433e+01   7.344612345108e+01  -4.435787343034e+01 
1  9.248487661252e+01  -2.673742870459e+01  -6.942108425106e+00 
8
Step 31000
1  3.281144622281e+01   4.671556976410e-01   4.113101164632e+01 
1  2.033936944035e+01   8.969707052317e+00  -3.261818382578e+01 
1  6.975335794549e+00   8.433929529103e+00  -3.892249540796e+00 
1  1.368163932677e+01  -2.460300429922e+01  -7.098865036215e+01 
1 -7.743504958890e+01   4.747544071716e+01   1.077093546170e+01 
1  4.503245689602e+01   2.380783020610e+01   2.642677655152e+01 
1 -1.785873213629e+01  -4.116317301022e+01   4.169247128750e+01 
1 -6.950116733170e+01   2.507742558777e+01  -8.704726247586e+01 
8
Step 32000
1 -8.225220107524e+01   5.124894399570e+01  -3.783968941651e+00 
1 -9.110030685498e+01   3.547798182363e+00   1.898839654521e+01 
1 -6.557461326721e+01  -1.406438111873e+01   6.145761275181e+00 
1  8.482592225587e+00   1.773250412364e+01  -5.551415062326e+01 
1  4.649035832185e+01  -7.007227585480e+01   5.671755467008e+01 
1 -8.628218741453e+01  -5.979747775388e+00   1.024909574437e+00 
1  1.176545723491e+01   5.050399975037e+01   3.447388435296e+01 
1  3.465733068063e+01  -5.244140169024e+00   1.258102299037e+01 
8
Step 33000
1  3.786434255583e+01  -2.786313770707e+01   1.747396969697e+01 
1 -3.287246055668e+01   4.687615991695e+01  -2.318901378188e+01 
1  3.129872883363e+01   1.223085921830e+01   3.450814842041e+01 
1  2.084129550902e+01  -4.228511485439e+01  -3.981068861874e+01 
1 -2.489480999729e+01  -3.833303032904e+01   1.832738075602e+01 
1  7.132888997943e+01  -3.849559757880e+00   1.109986263374e+01 
1 -6.940086005420e+01  -6.041770428900e+01  -3.691300495961e+01 
1 -1.953503122929e+01   2.701283398975e+01  -7.939489402391e+01 
8
Step 34000
1 -1.335458869806e+01   2.252370660818e+01  -4.298346416597e+01 
1 -1.836061152764e+01  -1.491582110241e+01  -5.591737861110e+00 
1 -5.880089320105e+01  -5.306631312082e+01  -3.120797923560e+01 
1 -4.937040649454e+01   3.455337379616e+01  -2.325678214281e+01 
1  4.329641623986e+01  -4.980679336416e+01   2.183182375733e+01 
1 -4.529134139949e+01   4.672124688841e+01  -1.945717301555e+01 
1  4.944619733429e+01  -6.395959641399e+01   1.146874495224e+02 
1 -3.831340627941e+00   1.196811151792e+01   2.738901057463e+01 
8
Step 35000
1  1.901972534911e-01  -3.626244094479e+01   9.073290688151e-01 
1 -1.022322255249e+01  -6.498700506322e+01   3.620083042704e+01 
1 -2.347320421060e+01   2.507563704899e+01   3.928512452601e+01 
1 -4.159809311904e+00   6.369872624638e+00  -2.231958214820e+01 
1  1.540703750842e+01  -1.938723152109e+01  -1.438282421069e+01 
1  2.282548597591e+01  -2.949227577848e+01   2.471980995583e+01 
1 -1.059522699202e+01   3.069963398302e-01  -1.154659199724e+02 
1 -7.255819838601e+01   5.965705865639e+01  -6.484840613460e+01 
8
Step 36000
1 -5.015304660058e+01   4.901351886780e+01   2.484023636719e+01 
1 -2.927567334131e+01   3.866194990407e+01   6.839824902824e+00 
1 -1.900129543438e+01   8.766970540315e+00  -1.477995590936e+00 
1 -1.576233687310e+01  -1.133672915120e-01  -1.241529101791e+01 
1  5.665659174984e+01   6.157499577831e+00  -7.112832107207e+00 
1  2.122303513893e+01   9.333861061660e+01   1.912694565391e+01 
1 -5.202669052933e+01  -6.864740930082e+00  -2.115060561884e+01 
1  4.309449105180e+00   5.575686242242e+01   2.598760954214e+01 
8
Step 37000
1 -9.047781558247e+01  -1.495767980005e+01  -5.520961462921e+00 
1 -1.536815451506e+01  -4.134100799017e+01  -3.500012223130e+01 
1  2.336110497495e+01  -4.400324067876e+01  -5.965477727205e+00 
1 -2.036556944081e+01   2.473333497001e+01  -5.395227240733e+01 
1  1.455476092104e+01  -7.731118687431e+01  -2.871865246401e+01 
1 -3.755384123235e+01  -5.723560762613e+00  -1.491013592054e+01 
1  5.203355962232e+01   9.883318288686e+00  -2.975728663655e+00 
1 -7.552286115910e+01  -2.938602359456e+01   1.070926300039e+01 
8
Step 38000
1  2.023628153464e+01   1.257652607210e+01   3.378864653015e+01 
1 -5.391928026662e+01   3.512237494329e+01  -1.368704096385e+01 
1 -1.560027636434e+01   7.001191163736e+00   4.323790507036e+01 
1  1.798403351235e+01  -3.643650935355e+01   8.983288639733e+00 
1 -4.954123286391e+01  -4.054707718854e+01  -3.978169163398e+01 
1  5.605215902846e+01  -2.893941281475e+01   6.961462384158e+00 
1 -3.238711255953e+01  -2.658163121432e+00  -5.420787872891e+01 
1  5.718146130183e+01   7.117503112868e+01   8.009380896015e+00 
8
Step 39000
1 -6.217621954768e+00  -2.478836657276e+01   3.221501533631e+00 
1  6.011501119270e+01  -1.099496733631e+02  -1.676684462578e+01 
1  2.065858701536e+01  -1.227588594452e+00  -2.115450561261e+01 
1 -1.830890567967e+01   2.548093759505e+01  -2.915571658707e+01 
1  2.924841272882e+01   2.741620785165e+01   5.403300003104e+01 
1  4.608598001642e+00   1.926225529211e+01  -4.088908667577e+01 
1 -5.688333613151e+01   4.645914069620e+01  -1.378577312843e+01 
1 -1.421052816023e+01  -5.055969418284e+01  -2.504997480133e+01 
8
Step 40000
1 -3.079383540410e+01   3.124717326751e+01   4.145551647643e+01 
1 -5.997574426766e+01   1.701139592406e+01  -7.311105697812e+00 
1 -2.572575335691e+01   2.041204842918e+01   3.141227087896e+01 
1  6.831114480645e+01  -3.267818877647e+01  -2.719867406239e+01 
1 -6.457831838565e+01   5.860927608802e+01  -6.220122936286e+01 
1  5.215811542497e+00  -5.846604455923e+00  -3.025320325285e+01 
1  1.367274774441e+01   3.040933581604e+01   4.550413434287e+01 
1 -6.476654368001e+00   4.954987020479e+01  -1.669681871369e+01 
8
Step 41000
1  7.959522538711e+00   6.662513174092e+00   1.178023631562e+00 
1 -1.507606729566e-01  -4.379011638328e+01   1.104193007335e+01 
1 -2.761548749938e+01   7.129479005800e+01   3.177754013465e+01 
1 -6.899730567604e+00  -4.516496531240e+01   3.449652873979e+01 
1 -4.544017470110e+01  -6.329290959234e+01  -1.938705118273e+01 
1  2.786473376915e+01  -2.095253578250e+01  -4.204753700275e+01 
1 -2.755597202456e+01   3.037941728088e+01  -2.455871417466e+01 
1  3.516480901879e+01   5.138074027722e+01  -5.762227517621e+01 
8
Step 42000
1  3.840448516502e+00   2.572776638306e+01  -3.199426113387e+01 
1 -2.529304491362e+01   1.048929450097e+02   2.918483124436e+00 
1  4.556828020976e+01  -1.239759257401e+01  -1.084112185764e+01 
1  6.393752615694e+01  -2.340198260394e+01  -6.272907152981e+01 
1  2.653548263170e+01  -6.040670771698e+00   5.961834392656e+01 
1 -3.044936649723e+01  -2.018180973987e+01   1.364887333373e+01 
1 -1.162976578170e+01  -3.579375745054e+01   1.364431857636e+00 
1  6.792839291254e-01   2.473598761640e+01   1.982744233184e+00 
8
Step 43000
1  3.520578425578e+00  -1.046821389641e+02   2.850709495337e+01 
1 -5.800649999372e+01  -5.473057901731e+01  -5.846714529617e+01 
1  2.843414721885e+01   2.862947158376e+00   1.414180623140e+01 
1 -6.981741071987e+00  -1.386692124675e+01   8.795138335211e+01 
1 -2.089463748921e+00  -1.154812747568e+02  -6.650455109134e+01 
1 -2.660255946520e+01   3.027308867428e+01  -1.641451653755e+00 
1  2.313201566189e+01  -3.806197086654e+01  -1.113925957834e+01 
1  2.932997495298e+01   7.021063572403e+01  -3.375773446450e+01 
8
Step 44000
1  4.170771610424e+01   6.823327125302e+01  -7.425180979574e+00 
1  2.995687381411e+01   3.425070140218e+01   1.198712857721e+01 
1  2.513261194681e+01   3.419576069628e+01   1.102023526763e+02 
1  1.490799174279e+01   1.102865365480e+02  -2.155630212422e+01 
1  6.100739627159e+01   6.397500638364e+00   2.694169512471e+01 
1 -2.996702935762e+00   3.377529447676e+00  -1.273460732016e+01 
1  2.705705942211e+00  -3.115629504428e+01  -5.270602819101e+01 
1 -1.255168172736e+01   5.012957738008e+01  -5.010749755860e+01 
8
Step 45000
1 -9.136438533930e+01  -5.071159411199e+01   1.912181441238e+01 
1 -3.848714556315e+00   3.138798901501e+01  -5.436022983788e+01 
1  4.268786113447e+01  -5.649063891067e+01  -1.358333998892e+01 
1 -5.991250764838e+01   6.683456586743e+01   2.268413314141e+01 
1 -1.284450850193e+00   5.551326659204e+00  -5.255111886722e+01 
1  7.413289055294e+00   4.287644712286e+01   4.137040152131e-02 
1  2.568310421785e+01  -7.118709061968e+01   2.314121204525e+01 
1  1.642678447079e+01  -7.445059876684e+00   6.938986368633e+01 
8
Step 46000
1 -9.977795220740e+00   6.725871410678e+01  -1.515640366819e+01 
1  7.365678693761e+00  -9.071354261255e+00   1.536868171386e+01 
1 -8.828650850104e+00   9.806899534157e+01   3.234446772816e+01 
1 -7.100746461556e+00  -3.527819343224e+01   6.094431514863e+01 
1  4.791729605014e+01  -3.872438160398e+01  -2.546246285271e+01 
1  5.762307532847e+01   4.138626272505e-01   1.849664320716e+00 
1 -3.682674443936e+00  -2.105709967894e+01  -4.334181762280e+01 
1  1.807606830492e+01  -7.057369934608e+00  -4.762682663554e+01 
8
Step 47000
1  6.420398699978e+01  -3.661739316650e+01   2.613322217358e+00 
1  4.444284096457e+00  -2.055024946176e+01  -1.300827671278e+01 
1  1.756032179713e+01  -4.300986431921e+01  -2.464371027535e+01 
1  5.831112916599e+01  -3.952783506390e+01   3.904122836413e+01 
1 -1.300228193842e+01   9.018674405959e+01   3.607888453141e+01 
1  5.264199940970e+01  -2.177275326742e+01   3.810075935434e+00 
1 -2.954289624242e+00   4.980292993296e+00   2.537084333061e+01 
1 -4.215143693017e+01  -7.218862770913e+01   5.756316103024e+00 
8
Step 48000
1 -2.920380460836e+01  -2.400914589451e+01   4.292284591970e+00 
1  1.760905682133e+01  -4.464367831790e+01  -4.150081437326e+01 
1  6.757601290329e+01   1.361182881794e+02  -8.390248641767e+00 
1 -9.648644019643e+00   9.015089505666e+00   7.702767143208e+01 
1  2.308793649801e+01   2.867769991320e+01  -5.378357373483e+01 
1  3.396207061646e+01  -6.508554377606e+00  -8.626317992065e+01 
1 -1.991196475359e+01  -1.334880967187e+01  -2.962738928657e+01 
1  5.565519806191e+01  -2.854410212536e+01   1.287233073381e+02 
8
Step 49000
1  5.086189788607e+01   1.496322833961e+01   6.855056785130e+00 
1 -5.586207009266e+01   5.711752572999e+00   2.755528031258e+01 
1 -1.012039069283e+02  -6.851896037043e+00   7.996918030856e+01 
1  7.179337437047e+01  -2.627827675871e+01  -8.764708968887e+00 
1 -1.764549612657e+01   7.845077291434e+01   3.074451441186e+01 
1  9.704191380799e+00  -4.602957601831e+01  -6.293422189824e+01 
1  1.751478154862e+01   8.684384425199e+00   4.445101617286e+01 
1  2.703606062594e+01  -9.532132771261e+00  -6.431633149132e+00 
8
Step 50000
1 -5.747623584436e+00   4.067216661479e+01   4.485817478206e+01 
1  1.917442457255e+01   4.307057242905e+01  -4.857104126046e+01 
1  8.789582053971e+01   5.246341649550e+01  -5.748455222475e+01 
1  1.758382237496e+01   2.349813628566e+01   3.560122183362e+01 
1 -1.937280622054e+01   1.433090795418e+01  -3.009975565701e+01 
1  6.083450250731e+01   7.530255639463e+01  -2.053084568064e+01 
1  2.685553766822e+01  -3.303801920563e+01   3.776027756459e+01 
1 -1.742924181306e+01  -8.437666464991e+01   3.942569453540e+01 
8
Step 51000
1 -3.440758274961e+01  -5.278252288134e+01  -2.859499395513e+01 
1 -6.133080286593e+01  -4.248163815975e+01  -1.907340415543e+01 
1  1.740208667944e+01  -2.060157484473e+01   1.631102094154e+01 
1  3.772199946017e+01  -1.176580435877e+01   1.294466818347e+01 
1  2.754224992678e+01  -5.420374217735e+01  -2.152714057589e+01 
1  8.237441750143e+00  -3.130323570002e+01   4.910811357474e+01 
1 -2.550992455499e+01  -5.727386510400e+01   5.909955397210e+01 
1  1.484264277193e+01   1.276678652865e+01   4.074107447623e+01 
8
Step 52000
1  3.064760335506e+01   1.198285861328e+01   3.744694116020e+01 
1  5.424333676074e+01   9.780108556588e+01   4.695165817148e+01 
1  4.349891820895e+01   9.093116129926e+00  -4.168767500325e+01 
1  1.781479581738e+01  -1.701953932707e+01   2.490045439156e+01 
1  2.858375925635e+01  -8.006062167190e+01  -1.915687424169e+01 
1  1.071428848105e+01   3.514061495828e+01  -7.332359288641e+01 
1  6.224417137405e+01  -3.524317403288e+01   1.907440674581e+01 
1 -9.189192748215e+00   4.557150329622e+00   2.132705060848e+00 
8
Step 53000
1  1.020189315146e+00  -3.264483923888e+01  -4.621112307634e+01 
1 -1.479695565298e+01  -1.200726744095e+01   8.032337604770e+00 
1  2.332360831035e+01   2.067951034045e+01  -2.676896747897e+01 
1 -2.616435005211e+01   5.854963564384e+01   7.861793902440e+01 
1  3.112122289935e+01  -3.647069696891e+01  -5.719157538045e+01 
1 -2.083716534589e+01   2.330200057410e+01   8.861699509405e+01 
1 -6.014109453083e+01  -4.357914952003e+01   2.546018830844e+01 
1  6.106162871533e+01   4.401281191014e+01   7.709682011180e+01 
8
Step 54000
1 -2.573505078695e+01  -3.794880934554e+01   3.301085914083e+01 
1  8.026354469413e+00   1.458556231331e+01  -1.383341414760e+01 
1  2.831642178951e+01   2.035206404101e+01   1.692484812742e+01 
1 -5.856118811478e+01   2.245092191704e+01   1.111224496259e+01 
1 -5.247985420195e+00   4.134092464102e+01  -2.385878642818e+01 
1  2.658283789703e+01  -4.526295143020e+01   2.194331349184e+01 
1  4.238967362825e+01   1.191008629207e+01   2.658810286155e+00 
1 -9.108360779882e+00  -8.233376328670e+00  -9.395867524464e+01 
8
Step 55000
1 -4.306621572177e+01   1.874551612048e+01  -1.107616065234e+01 
1 -1.039975561714e+01   1.557938962079e+01   2.469897769300e+01 
1  1.026255092055e+02  -3.074482221697e+01   2.287692945223e+00 
1  3.976540403571e+01  -3.712502493682e+01   5.056189089312e+01 
1  5.497916893945e+00   4.001056587604e+01  -2.766904909281e+01 
1 -1.393477703494e+01   3.992704031665e+00   4.968752441150e+00 
1 -3.711703066544e+01  -4.792673823892e+01   7.366015419195e+00 
1 -2.289779114580e+01  -1.456825021317e+01   8.470882986301e+01 
8
Step 56000
1  6.078081847628e+01  -2.603236323058e+01   3.563122022507e+01 
1  8.013217790011e+00  -8.149065219494e+01  -9.342226398782e+01 