8
Step 0
1  2.086108577697e+01   4.693432203065e+01  -2.284201364120e+01 
1  9.091580979047e+00   6.922598102697e+01   4.061902542366e+01 
1 -3.244458265140e+01   6.111061475566e+01   4.971198066405e+00 
1  1.212382219856e+01  -1.902742052781e+01   7.102886472015e+00 
1 -5.665730473373e+01   6.058214040052e+01   2.055098169242e+01 
1 -6.201009357882e+01   6.982676963481e+01  -4.984931700386e+01 
1 -3.197718126494e+01  -5.533441737496e+00   2.967724491637e+01 
1 -8.215372080555e-01   3.172605093898e+01   4.379452421306e+00 
8
Step 1000
1 -3.262878407548e+01  -2.722233972913e+01  -2.237661766703e+00 
1  1.436744242709e+01   4.632230953858e+00   3.020466097465e+01 
1 -4.516647527940e+01   4.323224990335e+01  -3.592371867313e+01 
1 -3.134109361456e+01   4.075682673101e+01   1.822479614898e+01 
1 -1.441470757712e+01   5.951962897436e+01   1.012926253368e+01 
1 -4.084252289975e-01  -2.095282004880e+01   6.689117283979e+00 
1 -5.463601631105e+00   1.999662015360e+01   2.045169906134e+01 
1 -1.215026689333e+01  -5.638646833653e+01  -3.845746137863e+00 
8
Step 2000
1 -3.815413510954e+00  -1.121868574551e+01  -8.431962774815e-01 
1  1.874441530918e+00   1.333502125769e+01   6.994303443254e+00 
1 -4.713733698859e+01   1.226565786521e+01  -2.806323472097e+00 
1 -2.724704169198e+01   5.639414547356e+00   4.077104064191e+01 
1 -1.794847931263e+01   2.805347979003e+01  -4.035415699819e+01 
1  1.397667624282e+01   1.500411429922e+01   1.506610730647e+01 
1 -3.564970379510e+01   4.989065135673e+01   1.522118039221e+01 
1  5.177671414755e+00  -1.195779966629e+01   4.969097229384e+01 
8
Step 3000
1 -4.488897849502e+01   1.319086151447e+01   5.181103235036e+01 
1 -1.197691783678e+00  -1.350580132591e+01  -4.667777279971e+01 
1 -5.450956725350e+01   1.804270597728e+01   2.831140836614e+01 
1  1.993043511444e+01   5.828308851334e+01   6.872629757401e+01 
1  3.027164949675e+01   3.279944177931e+01   2.008019298976e+01 
1  4.147547997099e+01   5.419473625332e+01   5.084416491226e+00 
1  5.960624043762e+00  -6.241291107082e+01   4.564685985928e+00 
1 -2.988682742704e+01  -3.308631993240e+00   2.771720031298e+01 
8
Step 4000
1  1.332841527859e+00  -4.550958426069e+01   8.741333663825e+01 
1 -8.085871570506e+00  -7.024289784278e+00  -1.364439198713e+01 
1 -2.802503115364e+01  -1.369875776057e+01   5.233620615961e+01 
1  1.175461979038e+01   3.745787487544e+01   4.188862995771e+01 
1  5.746766191213e+01   3.031632421075e+01  -2.655282102155e+01 
1  5.961773698968e+00   3.187097377564e+01  -3.387430223605e+00 
1  4.195089706723e+01   1.425283791457e+01   3.307114591643e+01 
1 -1.036801574420e+01   3.645593680847e+01   1.849208926975e+01 
8
Step 5000
1 -4.408643804807e+01   3.060400364406e+00   2.939882015849e+01 
1 -2.413704545824e+01   1.553851914888e+00   1.572960613231e+01 
1  9.304578715998e+00   1.658943522085e+01   3.266207408717e+01 
1 -8.887835214759e-01  -2.838856555480e+01  -2.040749150738e+01 
1  7.705519674885e+01   1.184119273227e+01  -1.898668818307e+00 
1  2.287551617859e+01  -3.443566498657e+01   2.720128508218e+01 
1 -3.780774143156e+01   5.225431268203e+01   1.325352699758e+01 
1  9.765281716219e+00  -2.308829968775e+01   5.364272840545e+01 
8
Step 6000
1  1.753488734298e+00  -6.461292275707e+01   4.399854771276e+01 
1  1.406322339780e+01  -3.355296452736e+01   4.509041547839e+01 
1  2.067140915510e+01  -1.471682750333e+00  -3.837769070466e+01 
1  3.996743642098e+00   6.716983248647e+00  -1.787232932627e+01 
1 -2.221159581118e+01   1.095557992939e+01   1.740912877317e+01 
1  3.134626400682e+01  -1.329773096606e+01   4.676798464649e+01 
1  3.254481164773e+01   1.107461701264e+01  -6.914040674618e-01 
1  1.203134491528e+01  -6.408887606043e+00   3.837944560606e+01 
8
Step 7000
1  3.159473031929e+01   2.404547740458e+01   5.272227018327e-01 
1 -2.532072890387e+01   5.026487659758e+01   6.372018622634e+01 
1  1.609967311971e+01  -2.700189452645e+01   1.660776027886e+01 
1  8.608127688072e+01   8.705009064860e+00   3.171041837742e+01 
1  3.057598014133e+01  -7.876332898504e+00  -1.608686391469e+01 
1 -1.573231726974e+01   3.286576812166e+01  -7.374778620895e-01 
1  1.449583301843e+01  -9.050269364450e+00  -5.237442397384e+00 
1 -1.116094991404e+01  -9.273101665035e+00   1.710264718272e+01 
8
Step 8000
1  1.991094809878e+01  -1.143828393417e+01   3.948520079241e+01 
1  3.627998351329e+01  -4.456087957781e+01   2.400135266105e+01 
1  5.040337370308e+01   1.032191477728e+01  -6.294110990934e+00 
1 -1.364606019391e+01   2.665462351060e+01  -2.631553166446e+01 
1  5.192084141074e+00   1.135524214818e+01  -1.642319973818e+01 
1  3.554046269462e+01   1.011820493733e+01   9.492975102673e+00 
1 -2.967117287099e+01  -6.876794486993e-01  -7.328472540223e+00 
1  3.033752185792e+01  -6.277783134379e+01   2.032937844923e+01 
8
Step 9000
1  7.018783065658e+00   2.764307551297e+01  -1.607889824950e+01 
1  2.576037939909e+01  -8.268454337114e+00   1.932787159166e+01 
1  6.156459095063e+01  -5.067550772135e+01   3.341944289638e+01 
1  3.456490984073e+01   5.246351934057e+00  -4.085381093533e+01 
1 -4.890647865690e+01   2.434167449711e+01  -8.847063242359e-01 
1  1.028341514004e+01  -4.544605242907e+01  -1.824940253111e+01 
1 -4.550106977622e+00  -6.853271310008e+00   4.611442331214e+00 
1 -2.552714447220e+00   2.198024892884e+01  -7.266082777656e+00 
8
Step 10000
1  5.804540098805e+01   1.340793454764e+01  -4.955767393093e+01 
1 -9.046308513436e+00   1.410532389325e+00   1.845244567967e+01 
1  4.366394528435e+01  -1.751208495036e+01   9.781098227931e+00 
1 -6.943641795303e+00   1.922335200837e+01  -5.969326345496e+01 
1  5.300445742926e+01  -2.309352754890e+01   2.272306242138e+01 
1 -3.372830636760e+00  -2.260799246928e+01  -9.723280304924e+00 
1 -1.552583964213e+01  -1.308431266020e+01  -6.308463580974e+00 
1 -1.764257474781e+01  -3.650096652726e+00   7.064983853571e+00 
8
Step 11000
1  2.087114313761e+01   5.529299397325e+01  -2.358265363982e+01 
1 -1.438265438666e+01  -4.885189970618e+01  -1.178651762322e+01 
1  6.108211794167e+01   4.095829133435e+01   2.820913631773e+01 
1  2.003748435667e+01  -3.412784110930e+00   3.846674952084e+01 
1  5.478834668078e+00   1.981229203328e+01  -4.872108230207e+00 
1 -1.567014901935e+01   3.453894568088e+01  -5.860857099863e+00 
1 -1.776349110166e+01   3.442843631715e+00  -6.115730205749e+01 
1  3.756644103673e+01   5.344252062771e+01  -3.369918686915e+01 
8
Step 12000
1  1.296702936482e+01   2.124224494948e+01  -4.476832289608e+01 
1 -1.225558348602e+01   2.640975454268e+01  -3.458509852503e+01 
1  1.272829309808e+01  -3.670746073630e+01  -1.132178354283e+01 
1  7.813169333616e+01  -1.450983091856e+01   5.996011581072e-01 
1 -1.356007685501e+01   1.165694895289e+00  -8.354120885916e+00 
1 -2.832615725913e+01   8.117236412441e+00   2.860533416349e+01 
1 -2.067973073408e+01  -2.730669590093e+00  -2.699719838853e+01 
1 -3.343462738639e+01   3.253732567168e+01  -6.341718455790e+00 
8
Step 13000
1  1.608197833060e+01  -1.551543288183e+01  -3.010408866066e+01 
1  4.836769760301e+01   1.267400333530e+01  -7.477382003214e+00 
1  2.771224104448e+01  -1.667769764027e+01  -3.444079089453e+01 
1 -5.766500318568e+01   4.294591433168e+01  -4.814315527992e+01 
1  1.006280708038e+01  -5.378204389845e+01   3.124487842617e+01 
1 -3.352153244170e+01   1.169381818521e+01   8.918374802432e+00 
1 -1.032818507622e+01   9.056831485900e+01  -4.453024793695e+01 
1 -1.119238577278e+00   8.118925512545e+00  -5.694016630573e+01 
8
Step 14000
1 -1.667431074209e+01   5.179641571447e+01  -3.558902930916e+01 
1  2.716501736289e+01  -7.071012589429e+00  -1.822915409218e+01 
1  7.769005386055e+01   8.029655717468e+00  -6.590821115939e+00 
1 -2.928878137847e+01   2.918232616140e+01  -3.024184685391e+01 
1  3.380692505552e+00   3.784985035903e+01   2.806559856992e+01 
1 -1.265217174847e+01   1.059071457939e+00   2.036152412452e+01 
1 -4.756351351412e+01   4.573184894108e+01  -1.352920988619e+01 
1  5.268257546791e+01   3.629216224736e+01   9.760826184808e+00 
8
Step 15000
1  3.097228278418e+01  -8.981114063469e+00   7.016957213200e+00 
1  8.440313040611e+00   4.216529678199e+01   1.709005975880e+01 
1 -4.851651768698e+01  -1.830829468315e+01   1.012702215763e+01 
1  2.077342703102e+01   1.077024803150e+01  -2.972613217674e+01 
1 -2.170218593121e+01   8.071393297885e+01   5.083590805816e+00 
1  5.454463154370e+00   2.065845078134e+01  -1.884495475129e+00 
1 -1.793410868970e+01   1.485333335490e+01  -4.285112131924e+01 
1  3.562618973417e+00   3.373526380759e+01  -9.585532900670e+00 
8
Step 16000
1  2.372745284679e+01   4.209115100928e+01   2.125647229142e+01 
1  9.424366563005e+00  -4.809854918671e+01  -4.460270675793e+01 
1  6.930348351176e+00   2.839740464872e+01   3.287413333077e+01 
1 -2.120988544893e+01   5.478855447436e+01  -2.603132053488e+01 
1 -3.479777242201e+01   4.816087747819e+01  -2.700522587902e+01 
1 -3.717595875829e+01   3.402628567315e+01  -1.714437421707e+01 
1  1.437783271032e+01  -1.071181418151e+01   1.282289197801e+01 
1 -7.479600642961e+00  -3.439745656661e+01   8.626830394221e+00 
8
Step 17000
1  7.879409379452e+01  -3.225059567594e+00   1.993933233024e+01 
1 -2.870229368816e+01  -3.085092036695e-01  -5.902729596336e+01 
1  3.260530593716e+01   3.797981554160e+00   4.501109148134e+01 
1 -2.762920769522e+01   1.712435934705e+01  -1.240055043894e+01 
1 -4.585874809948e+01   1.677505908879e-01  -2.770932735467e+01 
1  2.471558759489e+01   3.498610652147e+00  -1.609379139695e+01 
1  7.611849210453e+00   2.238694032120e+00   5.160527404896e+01 
1 -1.899867334925e+01   2.267631259854e+01  -3.651057297374e+01 
8
Step 18000
1 -5.130756274749e+00  -4.969915005356e+01   4.868267215697e+00 
1  3.211529320996e+01   1.780419903590e+01   2.831851626173e+01 
1  3.048898246191e+01   1.669582035156e+01   4.357011406907e+01 
1  2.714498154041e+00   1.079763044585e+02   1.430953801626e+00 
1 -1.062675468371e+01   3.172210596285e+01  -2.656899240650e+01 
1  3.595150991120e+01  -1.550462130398e+01  -1.488155842912e+01 
1  1.797091777158e+01   1.229464339831e+01   1.659550492581e+01 
1  2.331256958200e+00   1.729506080798e+01   8.695939807157e+00 
8
Step 19000
1 -6.595821081121e+01   4.113096934689e+01  -5.375520693383e+00 
1 -4.436612171013e+00  -5.810237730969e+01   1.161714480934e+01 
1  3.341436499475e+01  -2.860404691214e+01   1.012235778377e+01 
1  2.008908754071e+01  -3.918262032188e+01   4.154561120866e+01 
1  2.572975809646e+01   7.357084988776e+00  -5.641810470488e+00 
1 -2.087788653383e+01  -3.659869880807e+00  -1.638630652082e+01 
1  7.921594713652e+00   7.417349682989e+00  -2.371845699036e+01 
1 -7.002865277457e+00  -1.140936942485e+01   5.231797830961e+01 
8
Step 20000
1  2.206767281209e+00  -5.347404299285e+01   2.416601137178e+01 
1  2.470395774422e+01  -4.467601647530e+01   1.091075321639e+01 
1 -1.809612714284e+01   1.353373635056e+01  -1.722239142524e+01 
1  3.625098523374e+01  -4.456779569143e+01   1.578290283133e+01 
1  1.264303636922e+01   3.753096452907e+01  -3.886087992236e+01 
1  1.828501092021e+01   2.247061773271e+01  -3.253352313502e+01 
1  2.351766863493e+01  -2.862716251464e+01  -3.203810995805e+01 
1 -1.854544199217e+01  -3.548659945501e+01  -3.325568427331e+00 
8
Step 21000
1 -2.945336900828e+01  -1.382298409096e+01  -2.224235734590e+01 
1  3.538167196456e+01  -2.249392339030e+01  -2.817851773101e+01 
1 -4.022632653197e+01  -4.504776996371e+01  -1.105093323603e+01 
1  3.709322524354e+01  -4.885596676551e+01   3.783058349777e+01 
1  1.982062795782e+00  -4.878406764850e+01   2.805374398813e-01 
1  2.502055854476e+01   3.149798041877e+01   2.835822600412e+01 
1  3.211055158859e+01   1.518522311990e+01   1.696247721894e+01 
1 -1.448592903131e+01  -1.554114634105e+01   2.602413418644e+01 
8
Step 22000
1  6.046368539427e+00  -7.986907563995e+01   1.445077878491e+01 
1 -4.561187090106e+01   8.172037798113e+00  -6.618398365599e+01 
1  9.575644867367e+00   1.862197629418e+01   3.004960820438e+01 
1 -7.518168799800e-01  -8.457368864640e+00   1.549523724824e+01 
1  4.176913411119e+01  -5.225033371950e+01  -1.398268861151e+01 
1  8.313893843870e+01  -2.801671580067e+01   1.036308192715e+01 
1  3.021913308950e+01   2.852986485039e+01  -2.465758658786e+01 
1 -2.003150074006e+01  -3.565116472327e+01   9.601404133879e+00 
8
Step 23000
1 -5.130080264598e+01  -4.588926128017e+01  -4.700247394977e+01 
1 -1.113112677882e+01  -3.019879863988e+01   1.225630990486e+01 
1  1.262722402433e+01  -5.147355587090e+01   3.682261281559e+01 
1 -2.082032228482e+01   5.075243550676e+00  -1.260252279290e+01 
1  8.110545733335e+00   7.851055659839e+00   1.188014756314e+01 
1  1.293135067570e+01  -6.980094412855e+01  -4.689084061936e+01 
1 -2.045460835553e+01  -1.719131088153e+01   1.973831121718e+01 
1  1.118353718606e+01  -1.613072542664e+00  -1.820576947229e+00 
8
Step 24000
1  2.792377744464e+00   1.774378107631e+01   1.129679968883e+00 
1  1.048404452238e+01  -3.758952060114e+01  -3.814345910024e+01 
1 -4.476884098454e+01  -6.291424907720e+01  -3.968928670092e+01 
1  1.664040512456e+01  -1.267750200661e+01  -2.361552494743e+01 
1 -5.640875446963e+01  -2.189989678242e+01  -7.543389814474e+00 
1 -2.698899391174e+01  -4.105690057068e+01  -7.948517031830e+01 
1  1.959096581074e+01  -1.016901036167e+02   4.469947888385e+00 
1 -8.589582104224e+00  -6.829743126932e+00   3.141536946654e+01 
8
Step 25000
1  2.838565536059e+01  -2.418549552301e+01  -4.338146783020e+01 
1 -8.201453216684e+00  -2.023136819655e+01  -6.137284875912e+01 
1  1.403881601939e+01   2.651543286799e+01   2.339333645525e+01 
1  2.441257141235e+01  -1.206310854986e+01   2.609612341803e+01 
1 -2.628712577666e+01   2.778854270776e+01  -2.767861104822e+01 
1 -2.359578398510e+01   9.821036890867e+00   2.468695694063e+01 
1  4.321389477337e+01  -3.357729309436e+01   3.253254424637e+01 
1 -1.437991284286e+01  -1.785955274097e+01   4.816150064374e+01 
8
Step 26000
1 -6.890467489061e+01   4.405742773830e+01   2.019626681952e+01 
1  6.105997542895e+00   6.479684265218e+00   1.197437944152e+01 
1 -8.763801517881e+00   4.711242336785e+00  -2.572376566241e+01 
1  6.471433847453e+00  -6.013186028090e+01   1.867396269838e+01 
1 -1.630564491830e+01   1.015960736564e+01  -8.524857442158e+01 
1 -3.921594713792e+01  -1.597342251047e+01  -3.649263061160e+00 
1 -3.710901666246e+01  -2.067858278693e+01   1.663311164600e+01 
1  1.907176512163e+01  -1.054563929260e+02  -3.207282123244e+01 
8
Step 27000
1  7.499032915565e+00   3.131644493733e+00   6.153126723298e+00 
1 -1.717445058203e+01   3.599355757194e+01   3.505212972326e+01 
1 -1.936565054020e+01  -1.325259938482e+01  -4.859167454873e+01 
1  3.521181633909e+01  -5.055084856666e+00  -1.183026438579e+01 
1 -4.733932790092e+01   2.420352489380e+01  -6.265132651443e+01 
1 -2.007327919018e+01  -1.513755131785e+01   7.190490254214e-01 
1 -7.603167011069e+01  -3.948803935566e+01   2.933910075217e+00 
1 -2.887235924219e+01  -7.034613980452e+01  -4.752166425581e+01 
8
Step 28000
1  2.578156721775e-01   5.162979111382e+01  -2.956338547882e+01 
1 -3.806078371018e+01   4.355662187081e+00   3.284976646362e+01 
1  1.749562694212e+01  -4.282812012424e+01  -1.071464330690e+01 
1 -5.200897505814e+01   6.950436252166e+00  -5.865102659755e+01 
1 -1.510494053883e+01   1.102410283149e+00  -2.066076598285e+01 
1 -1.674827652976e+01  -2.643843556316e+01   4.402095548707e+01 
1 -3.609365193419e+01  -2.870793833769e+01  -1.940424258334e+01 
1 -4.192520213361e+01  -5.056380917402e+01  -3.472487661422e+00 
8
Step 29000
1  3.889898752189e+01   4.388422835930e+01  -8.380360862250e+00 
1  7.969294238474e+00   2.167695250500e+01   4.213301359842e+01 
1 -1.921995583921e+01   2.741048455482e+01  -6.348599734356e+01 
1  2.147466872435e+00   2.055029523616e+01  -5.943569321115e+01 
1  2.735803369282e+01  -3.318795784830e+01   2.537795161682e+01 
1 -8.059305270298e+01   1.135577604509e+01   5.668818069766e+01 
1 -2.932279480541e+00  -1.447952130871e+01   2.273215682531e+01 
1 -3.620806565017e+01   5.670260133663e+01  -3.624659552045e+00 
8
Step 30000
1 -3.251816202007e+01   5.496016786199e-01   3.202989611183e+00 
1 -2.711126519090e+01   1.164987158115e+01   4.739723598584e+00 
1 -4.702784612321e+01   2.253754178645e+01   4.258397323213e+01 
1  8.856830592190e+00  -1.204706637512e+01  -1.184357561826e+01 
1 -9.780559136755e+00  -4.014674861256e+01  -3.136325976857e+01 
1 -1.786060355314e+00   5.338733036148e+00  -8.324427460650e+00 
1 -3.495321341311e+01  -5.723859818270e+00   2.399555796373e+01 
1 -6.482074274640e+01   3.623974176598e+01  -2.560171828200e+01 
8
Step 31000
1  2.192854943696e+01  -5.436995215871e+00   7.421160246458e+01 
1 -2.733997579850e+01   1.583949961660e+01  -2.206671234665e+01 
1  1.475098453161e+01   2.469581519112e+01  -1.631456369570e+01 
1  9.355710850073e+00   1.693000711829e+01  -3.048347437661e+01 
1 -4.352058288481e+01  -2.420873421697e+01  -2.807867104047e+01 
1 -9.925039013483e+00  -4.730492678029e+01   1.219005864374e+01 
1 -4.778164805250e+01   5.239951784354e+01   4.413195436789e+00 
1 -9.193900067189e+00   3.887369910877e+01  -2.276533991135e+01 
8
Step 32000
1  3.357183648991e+01  -6.828614475946e-01   2.873248966154e+00 
1 -2.300394946387e+01   2.143578702432e+01   3.402033330613e+01 
1 -4.750007851418e+00  -4.243994884694e+00  -1.549479019402e+01 
1  3.419889806857e+01  -3.435862087736e+01   8.497878978295e+01 
1 -3.710860207965e+01  -3.372073557560e+00   3.229522992684e+01 
1 -1.810656865912e+01   1.576486216974e+01   1.843548688089e+01 
1 -1.243001782386e+01   5.509209118740e+01   4.810694661032e+01 
1 -9.578581822651e-01   2.804361532833e+00  -3.360690399914e+01 
8
Step 33000
1  2.021704156847e+01   9.860854679762e+00   4.408226754846e+01 
1  9.151343079779e+00   2.748642978809e+01  -7.112546557855e+00 
1  1.059742415546e+00  -2.116142059335e+01  -2.299509512518e+01 
1  7.993803490967e+00  -2.938468556255e+01   1.521242113114e+01 
1 -3.740993858494e+01   4.427166137861e+01   3.657503058290e+01 
1  1.594165882889e+01   3.016296974514e+01   1.081484266260e+01 
1  3.694502348456e+01   2.623594212807e+01   2.289472657211e+01 
1 -6.651335163376e+00   1.697613889963e+00  -2.522503989196e+01 
8
Step 34000
1 -2.904891264513e+01  -1.960327960435e+00   6.842445569920e+01 
1  5.054869144046e+01   8.575344887576e+00   2.762742236480e+01 
1  3.562295979570e+01  -2.676363871158e+01   1.626909092156e+01 
1  3.019586642469e+01  -5.277252257038e+01   2.592321654719e+01 
1 -1.754836930398e+01  -2.935786957033e+01   5.141552539619e+01 
1 -5.204450115228e+01   3.290330274888e+01   1.915215587738e+01 
1  2.884238218525e+01   3.022601850721e+01  -8.889704412206e+01 
1  3.779425088939e+00   3.501375489486e+01  -5.025819775802e+01 
8
Step 35000
1 -2.083185910962e+00  -2.222698846951e+01   3.004742370369e+01 
1  5.586019795986e+01  -2.033537355573e+01   2.201412639787e+01 
1 -1.045323594014e+01  -7.013012389168e+00  -8.731456937468e-01 
1 -2.201117465906e+01  -2.173081445267e+00   3.925759860831e+01 
1  8.666158781272e+00   2.691403130944e+01  -2.199732502015e+01 
1  2.074396541562e+01   4.464735347503e+01   2.624940478835e+01 
1  7.624484712784e+00  -4.292177093921e+01  -3.607020716175e+01 
1 -2.806719520028e+01  -4.747904854275e+01  -1.214120462480e+01 
8
Step 36000
1  2.348377622405e+01   2.654540174628e+01   3.844830202531e+01 
1  3.822174386804e+01  -2.488084723010e+01  -3.787300338145e+01 
1  6.754357480812e+01  -4.855706806636e+01   4.787095903257e+01 
1  5.288751186856e+00   2.066674175375e+01   5.038013446508e+01 
1 -2.492562862326e+01   1.328042878837e+01   5.572476453052e+01 
1  4.992384426597e+01  -6.179594987924e+00   6.524758307190e+00 
1 -6.746082853354e+00  -2.644674864744e+00   1.538578621449e+01 
1  3.651644094975e+01   6.312928553703e+01  -1.897458986228e+01 
8
Step 37000
1 -1.376797651238e+01  -1.597805679527e+01  -2.248174246582e+01 
1 -2.460924877153e+01  -2.304080585012e+01  -1.875863250521e+00 
1 -5.996633859191e+00  -3.157793896940e+01   1.711888285801e+01 
1 -2.076456254026e+00   7.117357146342e+01  -2.000827212504e+01 
1  3.503587037064e+00  -3.489431479365e+01   2.174178473675e+01 
1  8.426538914186e+00  -3.175005061855e+00  -3.643864927139e+01 
1  2.547637387507e+01   2.278077832631e+01   3.739955320998e+01 
1  2.539013271075e+01  -2.678136155908e+01   4.048139862937e+01 
8
Step 38000
1 -2.502081715201e+01  -8.409499934358e+00   9.376611361641e+01 
1  3.124930175128e+01  -1.159208155864e+01   8.274912356476e+00 
1 -1.690246664448e+01   3.400240759484e+01  -4.467047127721e+01 
1 -9.590085953753e+00  -7.693863572300e+00   2.904836000108e+01 
1  7.143736712901e+01  -1.081173528399e+01  -2.617234943215e+01 
1  2.031810046816e+01   3.117186060125e+00  -2.263093402160e+01 
1  3.097304362888e+01  -1.990657416983e+01  -8.083400196574e+01 
1 -3.128849850083e+01   1.001029128167e+01  -2.419503928902e+01 
8
Step 39000
1 -1.318391438729e+00  -3.551359160413e+01   1.300750789379e+01 
1 -3.920439711790e+00   3.996472805186e+00   5.328155493135e+00 
1  2.100131596499e+01   8.309218931665e+01  -2.412514864328e+01 
1 -4.273129668204e+00   1.578580566204e+00  -1.755973422867e+01 
1 -2.848432589793e+01   1.026108023698e+01   6.258841363980e+00 
1  1.328712480901e+01  -1.799493625549e+00  -4.584116488515e+00 
1 -2.233739546673e+00  -4.754866358138e+01   1.897192256582e+01 
1  6.094873293125e+01  -8.110425583188e+00   5.670425134471e+01 
8
Step 40000
1  2.444916110805e+01   1.547012214471e+01   1.146598812155e+01 
1 -6.808015466491e+00   3.092232522262e+01   1.845458813493e+01 
1 -2.516454685802e+01   3.001214949882e+01  -4.079971014326e+01 
1 -4.384337746578e+00   4.326018105764e+01  -5.205597293496e+01 
1  3.663388473338e+01   1.845892205005e+01   4.312271828776e+01 
1  9.399094811056e+01   3.292723543944e+00  -3.689536854674e+01 
1  3.181672190994e+01   2.301390242083e+01   6.673511816653e+00 
1 -3.615090527026e+01  -1.386187262613e+01  -7.377910366513e+00 
8
Step 41000
1  1.775947655663e+01   1.833069217628e+01   4.113251838067e+00 
1 -3.325343199238e+01   1.744935711560e+01   4.278341725683e+01 
1 -1.809379234191e+01  -2.359823708106e+01  -6.816697200438e+01 
1 -3.107257037993e+01   3.319830879201e+01  -3.749626142236e+01 
1 -1.424361324955e+01   1.346725776966e+01  -1.472804686733e+01 
1 -9.915644409895e+00  -2.370701645335e+01   1.001797570310e+01 
1  2.515267159037e+01   3.284564169483e+01  -2.193795393744e+01 
1 -1.447820386053e+01   1.153646289983e+01   2.573699286640e+01 
8
Step 42000
1  4.941468172153e+00   4.184126558690e+01  -7.893880084348e+00 
1 -3.233136182891e+01  -4.345871937076e+00   1.335984755292e+01 
1  7.722698654386e+00  -1.560470528905e+01   1.183908188575e+01 
1  1.074128165857e+01   4.780531882136e+01  -1.740243468589e+01 
1 -1.145076660396e+01   1.039591164965e+01  -5.826723299423e+01 
1  1.731309158403e+01   2.079147334799e+01  -5.965328748157e+00 
1  8.612851940807e+00  -1.837997223354e+01  -3.544455362029e+01 
1  1.295523932280e+01   7.397749095114e+00  -4.447077151412e+01 
8
Step 43000
1  2.989858914457e+00   6.935737610770e+01  -7.969128758349e+00 
1  7.310972656641e+01   1.785215677754e+00  -2.073091922452e+01 
1 -2.659762085692e+00   1.452780036310e+01   5.111170761304e+01 
1  1.286146574631e+01   3.625582673770e+01  -2.425256859831e+01 
1 -3.041494847860e+01  -8.035226259304e+00  -4.447885910808e+00 
1 -1.735688902282e+01   4.456399400425e+01   1.750460696938e+01 
1 -1.492103892873e+01  -9.519120102299e+00   6.077234781184e+01 
1 -9.579229640155e+00   2.616903171295e+01  -1.760530963577e+01 
8
Step 44000
1  6.022836368918e+00   2.541629778488e+01  -8.030878542623e+01 
1  2.275683942256e+01   2.427838654352e+01   2.348774781773e+01 
1  2.985038262114e+00   1.078147863841e+01   4.353404406082e+01 
1 -2.788525074673e+01   1.756357916678e+01  -5.662242912967e+00 
1 -1.873119669557e+01   6.784644512449e+01  -5.285349299007e+01 
1 -2.464968350103e+01   3.251904041428e+01  -1.980114898147e+01 
1 -1.278666648879e+01  -7.067904182199e+00  -2.299542558870e+01 
1  1.865405259205e+01  -2.267080724918e+01   1.866347232904e+01 
8
Step 45000
1  2.368056823988e+01   9.948961182837e+01   1.464126376729e+01 
1  6.338641525275e+01  -3.748713332198e+01   5.508183325110e+01 
1 -4.014457847034e+00   3.963193543186e+00  -4.498735550530e+00 
1 -3.771063980009e+01  -1.522237985081e+01  -1.226434960293e+01 
1 -1.004845059161e+01   2.067768234280e+01  -1.198562236084e+01 
1 -2.532915278092e+00   8.484556863998e+00  -2.588081997889e+01 
1 -5.814279947608e+01  -5.764706748449e+00  -6.429966141937e+01 
1 -6.807891052634e+01   1.575952921932e+01  -7.406895719515e-02 
8
Step 46000
1 -2.592589275740e+01   6.116091775263e+01   1.479563828939e+01 
1  3.263555208509e+01  -4.934771484849e+00   5.608770380624e+01 
1 -2.515988575020e+01  -3.793628383099e+01   1.102525173568e+01 
1  1.315182815366e+01   3.379378279414e+01  -4.787615621577e-01 
1  2.519848912684e+00   5.482867000899e+00   3.002880918319e+01 
1 -1.486879661424e+01  -1.599175303550e+00  -5.406731717506e+01 
1 -8.027832261392e+00  -4.113335045199e+01  -8.009811621215e+00 
1 -5.293469424644e+00   2.930504227888e+00  -2.833512212443e+01 
8
Step 47000
1  2.524978902637e+01   3.628353400029e+01  -1.394600889420e+01 
1  6.480902842234e+00   1.007809191250e+02   2.194654062155e+01 
1  4.978686092345e+01  -2.395634097358e+01   6.709783885724e+01 
1 -6.363228283986e+00   2.927267937250e+01  -1.317281440571e+01 
1  1.288259376047e+01   2.201330616901e+01  -2.642976799950e+00 
1 -2.586282790663e+01  -8.494376735947e+00  -4.200478271658e+01 
1 -2.823763774067e+01  -3.107072651425e+01   6.723480106205e+01 
1  2.001979330777e+00  -5.014318397760e+01  -2.451440139357e+01 
8
Step 48000
1  3.270613564891e+01  -6.883243951617e+00   1.252446730962e+00 
1 -2.230535032910e+00   3.534884367082e+01  -3.478604359560e+01 
1 -4.065423705219e+01   4.070496996945e+01   3.926099413989e+01 
1 -2.160809050348e+01  -8.319787767270e+01   5.246727352639e+00 
1  1.011895478540e+01   1.129300358168e+01   2.450727389180e+00 
1 -1.595844890384e+01  -1.332529004744e+01  -6.567432727990e+00 
1 -1.552417655551e+01  -1.290127834909e+01   1.565344370020e+01 
1  5.323807750792e+00  -1.627346173606e+01   1.085897143176e+01 
8
Step 49000
1  4.725076460910e+01  -9.585156409049e+00  -4.392575678321e+00 
1  1.260915476838e+01   5.058120437510e+01   1.223190894054e+01 
1 -5.186152585977e+00  -4.143823517420e+01   3.076310943225e+01 
1  2.768796103475e+01  -5.682732293968e+01   2.910466012536e+01 
1 -6.523384373774e+00  -3.311495308746e+01  -1.987078645617e+01 
1 -2.445635734094e+01   2.689947048485e+01  -6.807134172186e+01 
1  8.318861549723e+00  -1.372446691836e+01  -5.360360677711e+01 
1  4.101424903267e+00  -3.902561579791e+01   3.478125520796e+01 
8
Step 50000
1 -5.218081897669e+00  -2.479177710520e+01   6.794427404605e+01 
1 -1.974435528923e+00   5.994187283396e+01  -1.679295990640e+00 
1  1.553087540567e+01  -6.966911648711e+01  -2.939096711696e+01 
1  3.809423919721e+01   1.426048061449e+01   4.520716244599e+00 
1 -6.926019583869e+00  -8.409711311555e+01   3.119426744083e+01 
1  6.379389311915e+00  -2.830471579085e+01   2.359407873048e+01 
1 -2.378604327400e+01  -2.224223392090e+00   1.155296976596e+00 
1  3.380085881807e+00   2.994883917951e+01   3.759329163828e+01 
8
Step 51000
1 -3.924113203637e+01  -9.083414834094e+01  -4.836648293247e+01 
1  5.457256777938e+01  -6.309034039697e+00  -1.738231948796e+01 
1  4.325047602848e+00   1.250374576594e+01  -6.530673584578e+01 
1  3.485118546558e+01   7.652540898636e+00   1.492564805670e+01 
1 -2.517004610901e+01  -9.133258650061e+00  -1.588056160410e+01 
1  1.079037650457e+01  -1.678959144414e+01   1.554361737438e+00 
1  1.094585345239e+01  -4.432535153709e+01   6.183573411222e+00 
1  4.478854257533e+01   7.036843738772e+00   3.982593566579e+00 
8
Step 52000
1 -3.039868659513e+01  -7.585043772745e+01   1.705776490695e+01 
1  2.309237699309e+01  -5.326391726283e+01   1.156323501049e+01 
1  9.758040366361e+00  -5.233317339649e-01  -2.346470202215e+01 
1 -3.682189903230e+01  -1.833819536409e+01   5.273369511595e+00 
1 -1.557313166909e+01  -3.409735477278e+01  -6.577569062082e+01 
1 -1.241275018635e+00   3.810927567373e+00  -4.331625833742e+01 
1  6.171145192312e+00  -9.495014661569e+00   1.358215208770e+01 
1 -4.068821484210e+01   1.404508767921e+01   6.490425382943e+00 
8
Step 53000
1 -2.319181456105e+01  -4.530091376916e+01   4.694360508144e+00 
1 -2.962091398821e+01  -9.628566235984e+01  -3.418925469471e+01 
1  3.000465403178e+01  -5.679716788308e+01  -4.389188128626e+00 
1 -3.301057438608e+01   3.602698948951e+01  -3.775395424079e+01 
1  4.485571801597e+01  -1.667796175197e+01   1.001577513405e+01 
1  1.549374843425e+01  -1.839481480222e+01  -1.673338413267e+01 
1  1.141409273121e+01   2.157922209074e+01  -3.952249307803e+00 
1  8.906881083061e+00  -2.092316809148e+01  -5.211712831781e+01 
8
Step 54000
1 -3.673702686788e+01  -3.587159672842e+01   2.982842208143e+01 
1 -4.751731443135e+01  -8.206817408271e+00  -2.506181876008e+00 
1  1.779397763899e+00   1.416363505843e+01  -4.808768813623e+01 
1  5.011291968674e+01  -7.129147119148e+00  -6.714513378521e+01 
1  6.357208077067e+00   7.935590888010e+00   5.813864769400e+00 
1  7.442618714799e+00  -3.646503099907e+01   1.305298533881e+01 
1 -1.203009273000e+01  -1.015342703293e+01   1.510791653243e+01 
1 -1.523324563379e+01   1.485976148359e+00  -8.464873032619e+00 
8
Step 55000
1 -2.755168762351e+01  -5.846243169826e+01  -5.961597284327e+01 
1 -7.432111715305e+01   1.485397852523e-01  -3.898912669783e+01 
1 -1.046690279395e+01   8.968162052520e+00  -5.099946484631e+01 
1  2.031602156922e+01  -3.540388940980e+01  -5.205122332817e+01 
1  4.142119742456e+00   2.032297124259e+01  -4.212029191401e+01 
1  1.076169349849e+01  -1.517020225111e+01   3.246616263600e+01 
1 -7.494006371227e+00  -4.482411602055e+01   2.849462798321e+01 
1 -1.299080206736e+01   1.049766270598e+01  -2.493100722195e+01 
8
Step 56000
1 -5.302785629105e+00  -2.429930464508e+01  -2.663295386289e+01 
1 -4.728455256103e+01   1.783161095805e+01  -1.867236243297e+01 