8
Step 0
1 -3.94061988146087572e+01 1.18916196883487657e+02 8.55685290802887550e+01
1 1.36501938020772457e+02 -1.35308016235196362e+01 -9.09223133699828878e+01
1 6.65428271204233965e+01 -1.05348507972668870e+02 1.31009609705545074e+02
1 1.10254769678774210e+02 6.45138362185037124e+01 -7.24355953380595707e+01
1 -1.10800389477006718e+02 -6.73010997941944851e+01 1.43929037097842922e+02
1 1.42491588546480500e+02 -6.75663757928104332e+01 -3.66779340279109789e+01
1 -1.43791989475014987e+02 1.22303159202592212e+02 -1.15527759018590942e+02
1 -2.14852441358500812e+01 1.09423845570803792e+02 -7.22295150862399282e+01
8
Step 10
1 -2.72636568582218182e+01 1.11324833475421130e+02 8.87397013839758841e+01
1 1.31607853283271055e+02 -8.70083439427041583e+00 -1.02397637609723418e+02
1 6.63441167176061128e+01 -1.08459650769908663e+02 1.22118790976513012e+02
1 1.11890972050380000e+02 5.64481288442766314e+01 -7.19262541919164136e+01
1 -1.12048093419422415e+02 -6.73392842500951332e+01 1.34570685969096871e+02
1 1.34357444655319853e+02 -6.13249230875479441e+01 -3.60976704476427344e+01
1 -1.49246026874854294e+02 1.20676823136809617e+02 -1.18539660292932908e+02
1 -2.05848766550742184e+01 1.09542370115358409e+02 -7.66891572674864079e+01
8
Step 20
1 -1.52141229094324508e+01 1.02669712656975420e+02 9.11127040450223831e+01
1 1.25104842725912320e+02 -3.52747641535992829e+00 -1.12522092714300015e+02
1 6.59400704339894759e+01 -1.10798653281500819e+02 1.12018958645258621e+02
1 1.12845911754700481e+02 4.79519109990938404e+01 -6.96724154063276870e+01
1 -1.12028956322348265e+02 -6.63711313531510854e+01 1.23344953321216323e+02
1 1.24964799147604637e+02 -5.40406416767464890e+01 -3.60009344353152088e+01
1 -1.53349034174264517e+02 1.18202564221418996e+02 -1.21016682370387002e+02
1 -1.89566664500181332e+01 1.08670000942379303e+02 -8.02031161096526404e+01
8
Step 30
1 -3.35159920758589625e+00 9.30520374198477072e+01 9.26653017407929127e+01
1 1.17047388046330454e+02 1.92409989412162941e+00 -1.21191056752563426e+02
1 6.53051271338253514e+01 -1.12355876083566386e+02 1.00837769657370970e+02
1 1.13114681734232263e+02 3.91133358677636380e+01 -6.56537985839627680e+01
1 -1.10738370041505078e+02 -6.44574874371914035e+01 1.10406542676812137e+02
1 1.14430426791437355e+02 -4.57269164785586995e+01 -3.63874058717555613e+01
1 -1.56055929011563506e+02 1.14852633276621646e+02 -1.22939889466957752e+02
1 -1.66074076245127884e+01 1.06786758295509728e+02 -8.27107517824031646e+01
8
Step 40
1 8.23540773279257721e+00 8.25855029149468436e+01 9.33859984246086157e+01
1 1.07513024783654913e+02 7.58331204232366130e+00 -1.28319513740142185e+02
1 6.44153357882742625e+01 -1.13130751633266684e+02 8.87155264642350971e+01
1 1.12697878099833659e+02 3.00272979973749585e+01 -5.98823459787996910e+01
1 -1.08187123006565514e+02 -6.16731351632214668e+01 9.59385907637446849e+01
1 1.02886374476790010e+02 -3.64132527181004590e+01 -3.72436424397067540e+01
1 -1.57335296941746464e+02 1.10607491224503050e+02 -1.24293097523758703e+02
1 -1.35545154596563169e+01 1.03886802438593051e+02 -8.41660310780416836e+01
8
Step 50
1 1.94647116939051443e+01 7.13952696448855448e+01 9.32743894720575781e+01
1 9.66019812902035824e+01 1.33749891592897985e+01 -1.33843623513946795e+02
1 6.32488614542332854e+01 -1.13131772048964280e+02 7.58034797218948739e+01
1 1.11601825254124222e+02 2.07943611648152924e+01 -5.24026544644356136e+01
1 -1.04401842301873998e+02 -5.81057839687609032e+01 8.01505855088045251e+01
1 9.04785752006255279e+01 -2.61455628543259877e+01 -3.85432205875805209e+01
1 -1.57170143531467630e+02 1.05456781166194091e+02 -1.25063188054738731e+02
1 -9.82615396892488135e+00 9.99791351195407145e+01 -8.45385732081085735e+01
8
Step 60
1 3.02612621031936300e+01 5.96167133376018157e+01 9.23414122589492905e+01
1 8.44364577490373307e+01 1.92203429635776573e+01 -1.37722156000298156e+02
1 6.17864968505164143e+01 -1.12376393408573833e+02 6.22619223492904510e+01
1 1.09838787097740351e+02 1.15194811799573849e+01 -4.32919183276877675e+01
1 -9.94252987598867719e+01 -5.38548435142556770e+01 6.32757580774240083e+01
1 7.73651774346824084e+01 -1.49862042027435152e+01 -4.02471287893013709e+01
1 -1.55558614948307479e+02 9.94002507293759408e+01 -1.25240464510956386e+02
1 -5.46123317697879163e+00 9.50881223769821560e+01 -8.38145550182602790e+01
8
Step 70
1 4.05579462572602338e+01 4.73939031933372661e+01 9.06094555254445737e+01
1 7.11594633436267401e+01 2.50380990158789913e+01 -1.39937712585942961e+02
1 6.00121641367198038e+01 -1.10890826698067727e+02 4.82580352941580912e+01
1 1.07427133267282997e+02 2.31050781491538437e+00 -3.26592838226313091e+01
1 -9.33165055542928599e+01 -4.90299449644381085e+01 4.55678738035035948e+01
1 6.37145399363724962e+01 -3.01370305134916228e+00 -4.23044387068957732e+01
1 -1.52514622583008105e+02 9.24485675720101057e+01 -1.24819029703739574e+02
1 -5.09234830438914488e-01 8.92537751437479585e+01 -8.19974178473192552e+01
8
Step 80
1 5.02963598114635886e+01 3.48777753432731359e+01 8.81122826980388396e+01
1 5.69331384389736428e+01 3.07457875023680849e+01 -1.40497637035108653e+02
1 5.79133866777384796e+01 -1.08709682638367227e+02 3.39634636626776825e+01
1 1.04391425380613768e+02 -6.72353342347897609e+00 -2.06445165081204465e+01
1 -8.61505361280081416e+01 -4.37491845049767534e+01 2.72973736429089904e+01
1 4.97028602881656525e+01 9.67789607059238044e+00 -4.46532758128733533e+01
1 -1.48068293707312847e+02 8.46239633343096500e+01 -1.23797156184467724e+02
1 4.97017467469299845e+00 8.25317202536957524e+01 -7.91083072537459771e+01
8
Step 90
1 5.94275133016637582e+01 2.22239917200564747e+01 8.48947248521812696e+01
1 4.19365105328387386e+01 3.62611777354351048e+01 -1.39434507837224231e+02
1 5.54817068949425547e+01 -1.05875439644608775e+02 1.95516284527556046e+01
1 1.00762387877835735e+02 -1.54743580746320930e+01 -7.41589891711595506e+00
1 -7.80179916427477878e+01 -3.81370807671276566e+01 8.74686065293528614e+00
1 3.55114333001221283e+01 2.29801052771595771e+01 -4.72221009761279760e+01
1 -1.42266164409488027e+02 7.59606393005205689e+01 -1.22177616838169342e+02
1 1.09077793100851288e+01 7.49927987642346778e+01 -7.51861732315949354e+01
8
Step 100
1 6.79124318303244081e+01 9.59050417077727957e+00 8.10121059308862215e+01
1 2.63626669393309285e+01 4.15038237032283845e+01 -1.36806105911974441e+02
1 5.27130244920876976e+01 -1.02437711405203544e+02 5.19481132791618894e+00
1 9.65767317204020799e+01 -2.38364932667292386e+01 6.83269038009710972e+00
1 -6.90240622163580611e+01 -3.23222614150247907e+01 -9.79401852423655228e+00
1 2.13235704907725214e+01 3.67715204349105420e+01 -4.99312987342838923e+01
1 -1.35171034728366237e+02 6.65048718515238306e+01 -1.19967941059427758e+02
1 1.72257193898322356e+01 6.67222418227833174e+01 -7.02874640688604444e+01
8
Step 110
1 7.57225990242893090e+01 -2.86512339303673524e+00 7.65293761722339525e+01
1 1.04153711236305941e+01 4.63966712626787867e+01 -1.32694767818715036e+02
1 4.96078300066666955e+01 -9.84523026559847807e+01 -8.93891592385589639e+00
1 9.18768070317334917e+01 -3.17094343715070899e+01 2.18855165048868940e+01
1 -5.92871496451510751e+01 -2.64349216264490110e+01 -2.80341847059618807e+01
1 7.32125059030440539e+00 5.09197992879412169e+01 -5.26950476795952909e+01
1 -1.26861419794930811e+02 5.63147681159500948e+01 -1.17180563312953339e+02
1 2.38386739233841709e+01 5.78183964173473299e+01 -6.44853623933032623e+01
8
Step 120
1 8.28401960638691151e+01 -1.49885493556651994e+01 7.15199486235400315e+01
1 -5.69480077085568581e+00 5.08676631076905039e+01 -1.27206064958370305e+02
1 4.61713121780413047e+01 -9.39800576934905649e+01 -2.26888135290989332e+01
1 8.67100723884830700e+01 -3.89998005172475075e+01 3.75094870182057321e+01
1 -4.89370505562086038e+01 -2.06041253687242971e+01 -4.56870549445168521e+01
1 -6.31839102541291364e+00 6.52840543664787702e+01 -5.54234256516002191e+01
1 -1.17430554604575036e+02 4.54596419440586885e+01 -1.13832835956984098e+02
1 3.06553031343040061e+01 4.83910028962393213e+01 -5.78685367480684221e+01
8
Step 130
1 8.92580924500412038e+01 -2.66315314590569798e+01 6.60642565479983546e+01
1 -2.17546766580106947e+01 5.48512676120779119e+01 -1.20466791895644960e+02
1 4.24133241737987134e+01 -8.90855245166484195e+01 -3.59045180544588760e+01
1 8.11283831358938983e+01 -4.56233882468254777e+01 5.34592847724486404e+01
1 -3.81127353638543056e+01 -1.49550455860970040e+01 -6.24765601078855539e+01
1 -1.94265936574976443e+01 7.97175869751908124e+01 -5.80246800109863869e+01
1 -1.06984942389703761e+02 3.40190064586348342e+01 -1.09946886941739436e+02
1 3.75799113351662299e+01 3.85590606529208344e+01 -5.05394145459020834e+01
8
Step 140
1 9.49795569886818640e+01 -3.76547127095672209e+01 6.02480741992607705e+01
1 -3.75528876508776364e+01 5.82898539755303631e+01 -1.12622298295332712e+02
1 3.83482030721034164e+01 -8.38354762992419040e+01 -4.84488641317938118e+01
1 7.51871176248527888e+01 -5.15070178480283687e+01 6.94829471937770791e+01
1 -2.69597963970709387e+01 -9.60625795062088628e+00 -7.81429845298966939e+01
1 -3.18463609380036630e+01 9.40708527391665115e+01 -6.04075743202944224e+01
1 -9.56424749254087914e+01 2.20812100818767831e+01 -1.05549315048699995e+02
1 4.45142674073752787e+01 2.84483544008828844e+01 -4.26120195686234169e+01
8
Step 150
1 1.00017674339299631e+02 -4.79301741920002016e+01 5.41606670286926288e+01
1 -5.28842465311449104e+01 6.11348402516300808e+01 -1.03833253835482353e+02
1 3.39944485482828114e+01 -7.82973489935867377e+01 -6.02003370033035381e+01
1 6.89441770598807864e+01 -5.65900727227949645e+01 8.53276524700064840e+01
1 -1.56276736714207924e+01 -4.66721129799555001e+00 -9.24483468529232084e+01
1 -4.34355387762855472e+01 1.08194519701543115e+02 -6.24837104827343239e+01
1 -8.35301938253819429e+01 9.74177521339447239e+00 -1.00670729937236700e+02
1 5.13595008567448161e+01 1.81887467564307244e+01 -3.42094553027438621e+01
8
Step 160
1 1.04394472896481673e+02 -5.73436196016263082e+01 4.78928566865046577e+01
1 -6.75538884255648782e+01 6.33475535104529683e+01 -9.42719871705687353e+01
1 2.93742793623314178e+01 -7.25376669333831643e+01 -7.10550232665288348e+01
1 6.24589097091003325e+01 -6.08256494695851231e+01 1.00745440843341484e+02
1 -4.26679397691215723e+00 -2.35993697270515945e-01 -1.05181056262894913e+02
1 -5.40694215776532019e+01 1.21942461727643106e+02 -6.41697225923145993e+01
1 -7.07818001979266143e+01 -2.89847122817415492e+00 -9.53451601070285051e+01
1 5.80179789569920672e+01 7.91136862995464085e+00 -2.54611494129871083e+01
8
Step 170
1 1.08139791661610730e+02 -6.57960792957041463e+01 4.15350978911706292e+01
1 -8.13809655221778740e+01 6.48997621687122574e+01 -8.41185809657513772e+01
1 2.45130983863283696e+01 -6.66205351087175615e+01 -8.09279574050449355e+01
1 5.57910212577490228e+01 -6.41812645087293134e+01 1.15498594073268535e+02
1 6.97422682859955856e+00 3.60250488621009257e+00 -1.16159624992923298e+02
1 -6.36427556683941660e+01 1.35174527470853150e+02 -6.53892472449285265e+01
1 -5.75350502781831423e+01 -1.57353630272989928e+01 -8.96093670698642342e+01
1 6.43950677401152092e+01 -2.25414756270554761e+00 -1.64999991453190376e+01
8
Step 180
1 1.11289934536819217e+02 -7.32050600422043942e+01 3.51756655565189646e+01
1 -9.42017217704446068e+01 6.57738675346616333e+01 -7.35569276891258141e+01
1 1.94389065528562774e+01 -6.06062755448652624e+01 -8.97538062700227499e+01
1 4.89995377814426689e+01 -6.66390995338593228e+01 1.29364422816506845e+02
1 1.79511713625699088e+01 6.77796330177859563e+00 -1.25235293902645893e+02
1 -7.20710553196893358e+01 1.47758941422722160e+02 -6.60745950226894507e+01
1 -4.39291909950981889e+01 -2.86633317693752048e+01 -8.35021161656963500e+01
1 7.04006885040804349e+01 -1.21822494611369923e+01 -7.45956735369776691e+00
8
Step 190
1 1.13886177279436424e+02 -7.95051165604050425e+01 2.88990399334426478e+01
1 -1.05871830786231200e+02 6.59627714091097630e+01 -6.27709494592867756e+01
1 1.41817112031065342e+01 -5.45502751115711035e+01 -9.74868878590793173e+01
1 4.21418844159364951e+01 -6.81958081827839351e+01 1.42139269892278406e+02
1 2.85264731666536449e+01 9.23550370394399245e+00 -1.32293524859074012e+02
1 -7.92912058330370542e+01 1.59574228847673254e+02 -6.61680772656674066e+01
1 -3.01025871413163024e+01 -4.15771958137443036e+01 -7.70634610557707873e+01
1 7.59506023045461376e+01 -2.17537391086254743e+01 1.52852930332915959e+00
8
Step 200
1 1.15973202539796418e+02 -8.46478754690547390e+01 2.27845554761542175e+01
1 -1.16267953550575172e+02 6.54694644690756746e+01 -5.19411577721673297e+01
1 8.77297332268185315e+00 -4.85020937990306322e+01 -1.04100576970838659e+02
1 3.52731307860031436e+01 -6.88619438146827889e+01 1.53641620421124117e+02
1 3.85710486745286829e+01 1.09360842642153457e+01 -1.37254417484639959e+02
1 -8.52613914965129709e+01 1.70510607069995814e+02 -6.56229767478136807e+01
1 -1.61906689355927504e+01 -5.43737017699867806e+01 -7.03340980242527394e+01
1 8.09673853963318066e+01 -3.08576547444540132e+01 1.03369251004543212e+01
8
Step 210
1 1.17597540180666087e+02 -8.86015923320859144e+01 1.69053487344375704e+01
1 -1.25288550292897909e+02 6.43064011551484214e+01 -4.12416786399029576e+01
1 3.24513063202665641e+00 -4.25048584539601748e+01 -1.09586199443101734e+02
1 2.84454348891597206e+01 -6.86610964964057757e+01 1.63714304556137677e+02
1 4.79656746874169215e+01 1.18564647063079640e+01 -1.40072200958769230e+02
1 -8.99604433312822351e+01 1.80470844022939218e+02 -6.44041844596580830e+01
1 -2.32428750969606668e+00 -6.69527542797234787e+01 -6.33548371561661838e+01
1 8.53810941281153220e+01 -3.93927221725410988e+01 1.88444296738064843e+01
8
Step 220
1 1.18806083159338712e+02 -9.13503590593304438e+01 1.13276070358046947e+01
1 -1.32854049308103185e+02 6.24947369706155200e+01 -3.08378042558573568e+01
1 -2.36877952012489823e+00 -3.65949410744503254e+01 -1.13951550144678350e+02
1 2.17076935010782925e+01 -6.76288409930896250e+01 1.72225867991693093e+02
1 5.66019315230772833e+01 1.19888282959494195e+01 -1.40734016998886915e+02
1 -9.33867422263294600e+01 1.89370640918087645e+02 -6.24885510819124335e+01
1 1.13714871291574440e+01 -7.92183137747693564e+01 -5.61662213649504665e+01
1 8.91296520428761596e+01 -4.72683877417718961e+01 2.69375483002590919e+01
8
Step 230
1 1.19644735146930927e+02 -9.28930955163474579e+01 6.11008924457340452e+00
1 -1.38906522000445705e+02 6.00635018948449115e+01 -2.08840660457449481e+01
1 -8.03538962511413324e+00 -3.08018974865503168e+01 -1.17219182217931717e+02
1 1.51053835558318497e+01 -6.58115945862568736e+01 1.79071253187600803e+02
1 6.43827787938878799e+01 1.13401568619288788e+01 -1.39258236572004790e+02
1 -9.55568303895504982e+01 1.97138639069179987e+02 -5.98650161376503291e+01
1 2.47781460425499276e+01 -9.10789861777414842e+01 -4.88083039690757161e+01
1 9.21590185256611534e+01 -5.44054879248741301e+01 3.45116219814225715e+01
8
Step 240
1 1.20157227751768431e+02 -9.32424539653711406e+01 1.30386788594060588e+00
1 -1.43409030965115335e+02 5.70487703397331032e+01 -1.15227684135582464e+01
1 -1.37211720736816272e+01 -2.51486253769808599e+01 -1.19424605626006070e+02
1 8.68055964485636800e+00 -6.32654656510955107e+01 1.84171969127982720e+02
1 7.12228617211419532e+01 9.93145115320948868e+00 -1.35692538132474340e+02
1 -9.65038765486045094e+01 2.03716174014728722e+02 -5.65345784122665265e+01
1 3.77841662543044379e+01 -1.02448364844493540e+02 -4.13205749058340857e+01
1 9.44232126970493368e+01 -6.07366387974309987e+01 4.14716485869505362e+01
8
Step 250
1 1.20384126341794357e+02 -9.24237411054039484e+01 -3.04776847855579280e+00
1 -1.46344806329602079e+02 5.34928675347204177e+01 -2.88288686258154270e+00
1 -1.93925310865314557e+01 -1.96516923209521046e+01 -1.20614506147440693e+02
1 2.47196084271713046e+00 -6.00551461797863126e+01 1.87475926637373391e+02
1 7.70486566828871986e+01 7.79687026537898475e+00 -1.30111926675687954e+02
1 -9.62761123022024066e+01 2.09056900865582577e+02 -5.25101595935182885e+01
1 5.02851782776698073e+01 -1.13245207335008359e+02 -3.37420084337410771e+01
1 9.58842668734352941e+01 -6.62064385703383920e+01 4.77328672497124984e+01
8
Step 260
1 1.20362027275453769e+02 -9.04739269730632572e+01 -6.90931239279158493e+00
1 -1.47716371355300737e+02 4.94436294163730992e+01 4.92077790238403168e+00
1 -2.50158458653798164e+01 -1.43217845535594570e+01 -1.20845059223598213e+02
1 -3.48482340364833787e+00 -5.62528705461639262e+01 1.88957085405722125e+02
1 8.17985559902645605e+01 4.98283681126026501e+00 -1.22616804793465761e+02
1 -9.49353168319532443e+01 2.13126396241070410e+02 -4.78163934210249479e+01
1 6.21839852695231343e+01 -1.23393535575451082e+02 -2.61111938685613687e+01
1 9.65121725300983968e+01 -7.07715684939965683e+01 5.32211912910703973e+01
8
Step 270
1 1.20122937912481348e+02 -8.74407711412057580e+01 -1.02529832736938715e+01
1 -1.47544691796375048e+02 4.49537127110731092e+01 1.17882889197802925e+01
1 -3.05574968115494876e+01 -9.16423389410079814e+00 -1.20180374959448031e+02
1 -9.15717448729416184e+00 -5.19374350893100285e+01 1.88615009221498980e+02
1 8.54229684587813836e+01 1.54712570622601819e+00 -1.13331135335441587e+02
1 -9.25553844769430754e+01 2.15901810923513921e+02 -4.24893502911712844e+01
1 7.33905361392187672e+01 -1.32822739248462966e+02 -1.84665064051162489e+01
1 9.62848623335885065e+01 -7.44008564433663082e+01 5.78735628407711715e+01
8
Step 280
1 1.19693824661705293e+02 -8.33820618146675372e+01 -1.30586548156582012e+01
1 -1.45868375534705706e+02 4.00799371639475979e+01 1.76351793591640700e+01
1 -3.59839042471447712e+01 -4.17959057738394524e+00 -1.18691078046343293e+02
1 -1.45152897007521187e+01 -4.71932529492245010e+01 1.86474370442177076e+02
1 8.78844810206111759e+01 -2.44207033831299203e+00 -1.02400673811232721e+02
1 -8.92209726281296156e+01 2.17371611368192674e+02 -3.65761871327529917e+01
1 8.38219350376766954e+01 -1.41467743110150195e+02 -1.08462767283784594e+01
1 9.51882492911193339e+01 -7.70753396690478354e+01 6.16382802887622532e+01
8
Step 290
1 1.19096312840862097e+02 -7.83649373413999797e+01 -1.53137795306014066e+01
1 -1.42742908085639925e+02 3.48826341273769458e+01 2.23930185832546087e+01
1 -4.12616031829637606e+01 6.35779117699065921e-01 -1.16453003514983806e+02
1 -1.95320758543002277e+01 -4.21094079054748960e+01 1.82584394535741922e+02
1 8.91580941541319021e+01 -6.90712261393892302e+00 -8.99912057185161416e+01
1 -8.50262011067839723e+01 2.17535414373050457e+02 -3.01346978319864114e+01
1 9.34025426208716425e+01 -1.49269274627954786e+02 -3.28892426040671104e+00
1 9.32163226758396064e+01 -7.87883347793069362e+01 6.44753237479937980e+01
8
Step 300
1 1.18346523832509632e+02 -7.24652442287516010e+01 -1.70133102048210390e+01
1 -1.38239880667048965e+02 2.94249746699636852e+01 2.60099475028227616e+01
1 -4.63573699473847967e+01 5.28908185210417692e+00 -1.13545977163720465e+02
1 -2.41831039160124242e+01 -3.67786694228790196e+01 1.77018197855942816e+02
1 8.92315154455555302e+01 -1.17620275976057158e+01 -7.62867023803268722e+01
1 -8.00733603729498213e+01 2.16403892175437164e+02 -2.32327320915521724e+01
1 1.02064195985589507e+02 -1.56174243584261717e+02 4.16697242206293250e+00
1 9.03712830527188515e+01 -7.95454987177023867e+01 6.63566789331920717e+01
8
Step 310
1 1.17455038286136272e+02 -6.57668805530031761e+01 -1.81596061070018138e+01
1 -1.32446152160313403e+02 2.37722546385473734e+01 2.84511649396557083e+01
1 -5.12384083465885851e+01 9.79047724532967756e+00 -1.10052647109531705e+02
1 -2.84466263446559822e+01 -3.12964369365669839e+01 1.69871949802877026e+02
1 8.81054741695325419e+01 -1.69135792387008657e+01 -6.14873070936181350e+01
1 -7.44715836400215494e+01 2.13998707127902151e+02 -1.59474503431938501e+01
1 1.09746548369154098e+02 -1.62136223463947488e+02 1.14826849383925325e+01
1 8.66636868656020596e+01 -7.93648470407946860e+01 6.72666397234737872e+01
8
Step 320
1 1.16426977523373495e+02 -5.83610768565721330e+01 -1.87623044013098443e+01
1 -1.25462883466558324e+02 1.79911219158673141e+01 2.96993264381153779e+01
1 -5.58725954785221361e+01 1.41524494568009001e+01 -1.06057337804978630e+02
1 -3.23036503269679116e+01 -2.57595922537277389e+01 1.61263784041468000e+02
1 8.57940064800455957e+01 -2.22626769114529175e+01 -4.58070773828757609e+01
1 -6.83354447843405097e+01 2.10352426031625271e+02 -8.36438816021264842e+00
1 1.16397508974186977e+02 -1.67116007404662724e+02 1.86194320060554439e+01
1 8.21125648495226983e+01 -7.82766861000751817e+01 6.72020558973653550e+01
8
Step 330
1 1.15262197861347431e+02 -5.03455758926994719e+01 -1.88381343260201177e+01
1 -1.17404390086851251e+02 1.21487407192573897e+01 2.97548053458057034e+01
1 -6.02287809574709669e+01 1.83891697851436362e+01 -1.01644907338801772e+02
1 -3.57380542440090068e+01 -2.02652524687081979e+01 1.51332390350225836e+02
1 8.23246553896508004e+01 -2.77057817593910265e+01 -2.94714339800139555e+01
1 -6.17834568326624733e+01 2.05508363062369284e+02 -5.76314002844982021e-01
1 1.21973748530361888e+02 -1.71082199885178397e+02 2.55385635822449117e+01
1 7.67454774418559964e+01 -7.63234134405991256e+01 6.61724854634854722e+01
8
Step 340
1 1.13955593754706669e+02 -4.18236855996002106e+01 -1.84106526916930697e+01
1 -1.08396773360601856e+02 6.31189771658082677e+00 2.86357627398091736e+01
1 -6.42771283853892612e+01 2.25158508469307392e+01 -9.68996004079035202e+01
1 -3.87367312221189195e+01 -1.49094299770509693e+01 1.40235235855997672e+02
1 7.77385311869221312e+01 -3.31365197707665544e+01 -1.27142980382147446e+01
1 -5.49364619104750460e+01 1.99520305357500149e+02 7.31812258358927981e+00
1 1.26441227369107139e+02 -1.74011799030592385e+02 3.22018252009385719e+01
1 7.05984734696885852e+01 -7.35591447751297096e+01 6.42002101434404864e+01
8
Step 350
1 1.12497505349338155e+02 -3.29031944787625577e+01 -1.75098832945771399e+01
1 -9.85763098717979176e+01 5.46063876280463933e-01 2.63779768678184894e+01
1 -6.79894844933615445e+01 2.65480953998444065e+01 -9.19039010253530790e+01
1 -4.12897422352790855e+01 -9.78561945597227023e+00 1.28146388545955347e+02
1 7.20901849922077531e+01 -3.84474148846030843e+01 4.22506910817531622e+00
1 -4.79159204050562550e+01 1.92452085004148501e+02 1.52159406066492018e+01
1 1.29775699289978746e+02 -1.75890722901580574e+02 3.85716901639437566e+01
1 6.37159246920006126e+01 -7.00491348914077605e+01 6.13200769235740921e+01
8
Step 360
1 1.10874224421580607e+02 -2.36951534987466097e+01 -1.61718490246018405e+01
1 -8.80875995597903909e+01 -5.08556648079327278e+00 2.30343927779224593e+01
1 -7.13397594348661954e+01 3.05012460074615923e+01 -8.67373993633727309e+01
1 -4.33904615379205723e+01 -4.98334287456007186e+00 1.15253943818237659e+02
1 6.54472593987062652e+01 -4.35317213542124506e+01 2.11054780126352277e+01
1 -4.08421228170841388e+01 1.84376973764272236e+02 2.30115489561967799e+01
1 1.31963145573807935e+02 -1.76714235737115388e+02 4.46117433638357568e+01
1 5.61502173109737512e+01 -6.58689723270334611e+01 5.75791370143881522e+01
8
Step 370
1 1.09068590124210175e+02 -1.43125424515653670e+01 -1.44379928824533685e+01
1 -7.70814938723556793e+01 -1.05230325338693440e+01 1.86743671183896787e+01
1 -7.43043011607964985e+01 3.43897448369410057e+01 -8.14756951553002153e+01
1 -4.50356988638292250e+01 -5.86691864411791553e-01 1.01757083459666632e+02
1 5.78898942123393923e+01 -4.82853128163311709e+01 3.76874023080552476e+01
1 -3.38323608989971163e+01 1.75376890954303292e+02 3.05986003117444874e+01
1 1.33000098342790494e+02 -1.76487236120852344e+02 5.02870980226748898e+01
1 4.79612914300628148e+01 -6.11035421318976404e+01 5.30360648111137749e+01
8
Step 380
1 1.07060662956549109e+02 -4.86885031884712483e+00 -1.23544919642138318e+01
1 -6.57128440223661983e+01 -1.57105298333677936e+01 1.33826000019188438e+01
1 -7.68622475357174295e+01 3.82265154139957772e+01 -7.61893652326511415e+01
1 -4.62257855062359013e+01 3.32708842321981280e+00 8.78628231293255340e+01
1 4.95098808215894763e+01 -5.26085770612436860e+01 5.37366555992881700e+01
1 -2.69991041860094860e+01 1.65541429180235610e+02 3.78719281364381786e+01
1 1.32893820269919246e+02 -1.75224377692716700e+02 5.55648255061995329e+01
1 3.92160297586896576e+01 -5.58457660995780643e+01 4.77603522894051764e+01
8
Step 390
1 1.04828462425824611e+02 4.52339214344325669e+00 -9.97147594849856134e+00
1 -5.41381245313759223e+01 -2.05972688496259764e+01 7.25776361603686926e+00
1 -7.89958417210278157e+01 4.20223797731319095e+01 -7.09430248280854840e+01
1 -4.69646147949179991e+01 6.68892877324364843e+00 7.37825268308147599e+01
1 4.04095743338777851e+01 -5.64082610767117956e+01 6.90280478078266952e+01
1 -2.04482332913819569e+01 1.54966715954252152e+02 4.47295103728705712e+01
1 1.31662317557508345e+02 -1.72950003521920507e+02 6.04143786009221913e+01
1 2.99875068003868890e+01 -5.01951441190924399e+01 4.18312874564499353e+01
8
Step 400
1 1.02348751429087756e+02 1.37540842761511364e+01 -7.34216804526074895e+00
1 -4.25129976108568073e+01 -2.51382408345452717e+01 4.10854226147771895e-01
1 -8.06906991566567484e+01 4.57855249481852411e+01 -6.57945113046435353e+01
1 -4.72596313065048221e+01 9.43913605664434741e+00 5.97282830805067633e+01
1 3.07005869797317992e+01 -5.95992108712090030e+01 8.33489106161419215e+01
1 -1.42773821343370901e+01 1.43754140558271246e+02 5.10744006291158499e+01
1 1.29334174235136885e+02 -1.69697886709380356e+02 6.48079901671640641e+01
1 2.03541185080343325e+01 -4.42561325306210165e+01 3.53367378148263001e+01
8
Step 410
1 9.95978488132524689e+01 2.27169872015696264e+01 -4.52197118386193697e+00
1 -3.09898888416672413e+01 -2.92948667288934068e+01 -7.03669119584980685e+00
1 -8.19360179580756380e+01 4.95210321302641319e+01 -6.07942153133875038e+01
1 -4.71217670710933376e+01 1.15284272991839245e+01 4.59092462423926477e+01
1 2.05022981946401650e+01 -6.21059547663686544e+01 9.65023863282326886e+01
1 -8.57443778127688816e+00 1.32008984022239872e+02 5.68165690750547370e+01
1 1.25948207208745146e+02 -1.65510781244775870e+02 6.87210317770838088e+01
1 1.03986192291305670e+01 -3.81364045279677910e+01 2.83717702025133356e+01
8
Step 420
1 9.65524510695974527e+01 3.13110730889428091e+01 -1.56752505566155853e+00
1 -1.97156438928425253e+01 -3.30355105672671456e+01 -1.49550615543618068e+01
1 -8.27247283883694422e+01 5.32304802120926794e+01 -5.59845785998132044e+01
1 -4.65653267516746965e+01 1.29187692874910027e+01 3.25280472858522813e+01
1 9.94022525483186747e+00 -6.38640867356965032e+01 1.08310387104127187e+02
1 -3.41623939922977016e+00 1.19838995151075309e+02 6.18746007066233332e+01
1 1.21552952144073586e+02 -1.60439797646330476e+02 7.21323205871036777e+01
1 2.07097138434537031e-01 -3.19450430196991064e+01 2.10371459734675916e+01
8
Step 430
1 9.31904447199083847e+01 3.94417554699450221e+01 1.46423967056413429e+00
1 -8.82933007657338820e+00 -3.63358455288723121e+01 -2.32082628431020517e+01
1 -8.30535809042789595e+01 5.69116330968616424e+01 -5.13997705079090395e+01
1 -4.56078269660531816e+01 1.35840053041743030e+01 1.97773713768218755e+01
1 -8.55697263592412050e-01 -6.48214170013868340e+01 1.18616150518956928e+02
1 1.13249210615391438e+00 1.07352956893008411e+02 6.61772073821321385e+01
1 1.16205999272111441e+02 -1.54543626583711529e+02 7.50243669506753150e+01
1 -1.01320790552360318e+01 -2.57907176384048000e+01 1.34377347125872806e+01
8
Step 440
1 8.94916925149932894e+01 4.70219722959727022e+01 4.51702498398623931e+00
1 1.53976367630746358e+00 -3.91790677354098733e+01 -3.16563738198387981e+01
1 -8.29231757451072582e+01 6.05582174102071278e+01 -4.70655474919799559e+01
1 -4.42697973320242966e+01 1.35102610119096145e+01 7.83678643357177585e+00
1 -1.17528807863530531e+01 -6.49388692289110310e+01 1.27286340456494059e+02
1 5.01997366132094491e+00 9.46592851036115235e+01 6.96645210191518913e+01
1 1.09973204813230794e+02 -1.47887639842053517e+02 7.73835597420320482e+01
1 -2.05293105602532329e+01 -1.97798949418082550e+01 5.68089035642690199e+00
8
Step 450
1 8.54387788121284046e+01 5.39731031466263289e+01 7.53604510531190019e+00
1 1.12738879190362713e+01 -4.15559594029642909e+01 -4.01578089521782786e+01
1 -8.23379398103536886e+01 6.41597944700461369e+01 -4.29992924526924583e+01
1 -4.25745522626884068e+01 1.26961312584396584e+01 -3.13011102694926979e+00
1 -2.26178441608379472e+01 -6.41911158916877298e+01 1.34212666801898706e+02
1 8.20792039015015717e+00 8.18646964174115510e+01 7.22891472567411171e+01
1 1.02927807452190123e+02 -1.40542901232956353e+02 7.92002905915523456e+01
1 -3.08947882778417835e+01 -1.40151249073200681e+01 -2.12516904581675270e+00
8
Step 460
1 8.10177020580822074e+01 6.02257120605107303e+01 1.04688443619509428e+01
1 2.02683286716092468e+01 -4.34648084178583289e+01 -4.85715381755722433e+01
1 -8.13060584179551569e+01 6.77017278557629680e+01 -3.92102241658011863e+01
1 -4.05479429434709147e+01 1.11526576684454604e+01 -1.29781864090357093e+01
1 -3.33179354512635868e+01 -6.25669543927684799e+01 1.39313020556690361e+02
1 1.06718490391061849e+01 6.90729743115216053e+01 7.40169703836756696e+01
1 9.51494800221121579e+01 -1.32585120350543519e+02 8.04690218099133006e+01
1 -4.11394597384384184e+01 -8.59343858068263700e+00 -9.87294202446546265e+00
8
Step 470
1 7.62185047910584217e+01 6.57201167484448945e+01 1.32660405975906155e+01
1 2.84326259419796408e+01 -4.49111954200604799e+01 -5.67592222650070042e+01
1 -7.98393703308689169e+01 7.11652459006579790e+01 -3.56997619726803066e+01
1 -3.82180983283522266e+01 8.90311263123367347e+00 -2.15828673018990251e+01
1 -4.37229852497645055e+01 -6.00694352633350590e+01 1.42532140528226250e+02
1 1.24011353954490318e+01 5.63838535633207698e+01 7.48277102119967878e+01
1 8.67233444978854209e+01 -1.24093579715299498e+02 8.11883053669383514e+01
1 -5.11759278554663126e+01 -3.60488241504755491e+00 -1.74571560338395813e+01
8
Step 480
1 7.10358336499259906e+01 7.04067925357852573e+01 1.58819861799828335e+01
1 3.56915144107319975e+01 -4.59076618695456133e+01 -6.45872329676742396e+01
1 -7.79532341986415673e+01 7.45275970116631754e+01 -3.24620275040684589e+01
1 -3.56151625554049929e+01 5.98260837082086638e+00 -2.88418441556670970e+01
1 -5.37068721933489286e+01 -5.67157595525975324e+01 1.43841841993841825e+02
1 1.33988426625787937e+01 4.38920342590182244e+01 7.47152389693246448e+01