8
Step 0
1 4.02573418348032419e+00 7.25924814801329035e+01 -7.37016840553729082e+01
1 6.74178258713448031e+00 -6.62212382901105627e+01 7.29755721256853462e+01
1 1.18275084079295254e+02 -1.33727210584591177e+02 1.21898659695395679e+02
1 1.12983988585053169e+02 -8.74705266328554671e+01 -6.29599970029564844e+01
1 1.07032580602187579e+02 -9.85409922385121604e+01 1.06768343259554399e+02
1 -9.23227384961577116e+01 1.46317214693880771e+02 6.64975713889727160e+01
1 7.52478357784244452e+01 -1.41212856387992275e+02 -1.10749764006389398e+02
1 -1.38566548014815197e+02 -2.68576852312545071e+01 -2.37939378072723002e+01
8
Step 10
1 7.62893313964859932e+00 7.22922798965025635e+01 -6.81979662267188189e+01
1 1.03657112654703720e+01 -7.04206595658127839e+01 7.34564682039505783e+01
1 1.18595044170909205e+02 -1.31379054683307459e+02 1.25758078147321243e+02
1 1.14336273631376045e+02 -9.04640160150832457e+01 -5.86859362474027080e+01
1 1.01628854069295286e+02 -9.63067431788849717e+01 1.04967857925207653e+02
1 -8.59671284418653130e+01 1.52393963534260394e+02 5.98429475065718108e+01
1 7.56766023430967891e+01 -1.37939471646093551e+02 -1.13467529764323345e+02
1 -1.36865433742750071e+02 -2.30837933486427751e+01 -2.31621258198921929e+01
8
Step 20
1 1.08937337455710566e+01 7.18963477788388161e+01 -6.18280909258107556e+01
1 1.36169127793017140e+01 -7.32397534167105277e+01 7.34121052334982522e+01
1 1.18278741836581418e+02 -1.27133299317894540e+02 1.28879778233867597e+02
1 1.14051897953769611e+02 -9.21115490686672160e+01 -5.40130216124815874e+01
1 9.49992080383125455e+01 -9.29762770639147504e+01 1.02712481286085492e+02
1 -7.92921128729193896e+01 1.57032150859564780e+02 5.23196603008239123e+01
1 7.54218291700774586e+01 -1.33198098639833830e+02 -1.15184868781166500e+02
1 -1.33937365184286733e+02 -1.92052650114001722e+01 -2.23441341962717956e+01
8
Step 30
1 1.37516192704205551e+01 7.14265806956406379e+01 -5.46213410821166576e+01
1 1.64822601753790146e+01 -7.46525806536366190e+01 7.28061699720149420e+01
1 1.17306409406927656e+02 -1.21045648508549860e+02 1.31222531454072964e+02
1 1.12154958035205937e+02 -9.23623684006548729e+01 -4.89507968439787788e+01
1 8.72036304288652389e+01 -8.85790247796299610e+01 1.00045281418941286e+02
1 -7.23636357921303386e+01 1.60184293113779972e+02 4.39917555625110452e+01
1 7.44552046110741372e+01 -1.27056715031002199e+02 -1.15861518817957219e+02
1 -1.29799994651170437e+02 -1.53219775952756621e+01 -2.13778580617759530e+01
8
Step 40
1 1.61433231391994028e+01 7.09040397992285847e+01 -4.66214367285465769e+01
1 1.89598678342290690e+01 -7.46589027169334827e+01 7.16117585543600370e+01
1 1.15661534261745771e+02 -1.13199712875935035e+02 1.32751277696693052e+02
1 1.08692728469776739e+02 -9.11904921783211222e+01 -4.35117512237610455e+01
1 7.83189016685728348e+01 -8.31551229877298965e+01 9.70094004594594708e+01
1 -6.52462999161317327e+01 1.61818836323402763e+02 3.49371466398039630e+01
1 7.27585664239731216e+01 -1.19600735730899871e+02 -1.15468183132484739e+02
1 -1.24484444979156763e+02 -1.15256877196585403e+01 -2.03060133450798403e+01
8
Step 50
1 1.80211924406909532e+01 7.03480555664991130e+01 -3.78879453964878650e+01
1 2.10569526140187122e+01 -7.32831094910788181e+01 6.98121749439415851e+01
1 1.13331562944080005e+02 -1.03704804357961820e+02 1.33437680302034835e+02
1 1.03736720377665776e+02 -8.85972396756197327e+01 -3.77106295659832469e+01
1 6.84386335552914176e+01 -7.67554984150784634e+01 9.36470422225366548e+01
1 -5.80028990003881262e+01 1.61920927993750666e+02 2.52469995361706552e+01
1 7.03249652253021793e+01 -1.10932472471060578e+02 -1.13987051005955706e+02
1 -1.18037450112478396e+02 -7.89848255228526330e+00 -1.91749330232610085e+01
8
Step 60
1 1.93507658814400969e+01 6.97752279938721927e+01 -2.84968111465922966e+01
1 2.27881834459734947e+01 -7.05723371066535918e+01 6.74008134272924195e+01
1 1.10308387639287488e+02 -9.26933978659160687e+01 1.33260810112704348e+02
1 9.73833472391868327e+01 -8.46118226300159790e+01 -3.15647468213544542e+01
1 5.76731179602797113e+01 -6.94418090795034146e+01 8.99987466022488718e+01
1 -5.06939812402983918e+01 1.60493141225712691e+02 1.50248677522727156e+01
1 6.71595228622129810e+01 -1.01170286456233129e+02 -1.11412475524538124e+02
1 -1.10522848670556485e+02 -4.51370395987036144e+00 -1.80322056377135524e+01
8
Step 70
1 2.01117634384276691e+01 6.91982134593276470e+01 -1.85400081548507316e+01
1 2.41744119450002799e+01 -6.65947324956583770e+01 6.43807503190247132e+01
1 1.06588611164050832e+02 -8.03190145333261682e+01 1.32207792838441321e+02
1 8.97535806989450293e+01 -7.92883783697823930e+01 -2.50953791285635930e+01
1 4.61485107188665609e+01 -6.12860368330966594e+01 8.61030126802344284e+01
1 -4.33774207034063508e+01 1.57556079857922612e+02 4.38551187746907889e+00
1 6.32799682189949593e+01 -9.04474056687921575e+01 -1.07751765061168726e+02
1 -1.02021464145201378e+02 -1.43906978413187914e+00 -1.69235623303435325e+01
8
Step 80
1 2.02986686031712082e+01 6.86240469901184298e+01 -8.12418144518090557e+00
1 2.52414206701723458e+01 -6.14383657564665597e+01 6.07644347476400881e+01
1 1.02173824804419965e+02 -6.67547283733638039e+01 1.30274252331870144e+02
1 8.09912837987791931e+01 -7.26996193006179254e+01 -1.83296602343126658e+01
1 3.40050987925573480e+01 -5.23696104284497892e+01 8.19961606111891967e+01
1 -3.61079802229087790e+01 1.53148757691241030e+02 -6.54667689018307719e+00
1 5.87168039842053560e+01 -7.89104002596837688e+01 -1.03026002142552244e+02
1 -9.26290028454786807e+01 1.25936826693347603e+00 -1.58898260519929355e+01
8
Step 90
1 1.99206428321022493e+01 6.80520923436415899e+01 2.63203267824173892e+00
1 2.60185919889585726e+01 -5.52105278832888544e+01 5.65733188717053110e+01
1 9.70711136140232185e+01 -5.21917286561321347e+01 1.27464488249513366e+02
1 7.12604156939076461e+01 -6.49291221738575359e+01 -1.13021724494764246e+01
1 2.13948033284379058e+01 -4.27820872083005739e+01 7.77122255323087501e+01
1 -2.89368599307337000e+01 1.47328602258916362e+02 -1.76397559874724408e+01
1 5.35130808461483412e+01 -6.67172298258285963e+01 -9.72708182099670893e+01
1 -8.24523421845248521e+01 3.51383564518171143e+00 -1.49645701417484354e+01
8
Step 100
1 1.90003840639513619e+01 6.74721012763067307e+01 1.36021640304152491e+01
1 2.65376234878995021e+01 -4.80367037253655411e+01 5.18371288452830967e+01
1 9.12937841604504143e+01 -3.68371229901644881e+01 1.23791405162941459e+02
1 6.07415638543618357e+01 -5.60644923029284286e+01 -4.05576279602071210e+00
1 8.47828536648910891e+00 -3.26195169568304948e+01 7.32827738838522009e+01
1 -2.19112447649561588e+01 1.40170880369959150e+02 -2.87569737912477699e+01
1 4.77236895824402438e+01 -5.40346550308951947e+01 -9.05370818443118708e+01
1 -7.16048275099301179e+01 5.25248615247670436e+00 -1.41726027109559496e+01
8
Step 110
1 1.75718242694591709e+01 6.68630422633824111e+01 2.46573840229596257e+01
1 2.68313860762146952e+01 -4.00585454782529524e+01 4.65927416268402226e+01
1 8.48621387716880946e+01 -2.09104301584176007e+01 1.19276227790268010e+02
1 4.96282434124326315e+01 -4.61929025369045334e+01 3.35848532218903983e+00
1 -4.57801628552732076e+00 -2.19826657875940619e+01 6.87367193277137858e+01
1 -1.50739052958003263e+01 1.31767295486332955e+02 -3.97604163424856196e+01
1 4.14139740247102210e+01 -4.10347521186272601e+01 -8.28914297539312770e+01
1 -6.02010201803804605e+01 6.39786701857904561e+00 -1.35290995153581868e+01
8
Step 120
1 1.56770145908162224e+01 6.61935048791046228e+01 3.56726979499146708e+01
1 2.69329699841313577e+01 -3.14304939462994284e+01 4.08829668771055026e+01
1 7.78041231782660248e+01 -4.63857566980527025e+00 1.13948063802174786e+02
1 3.81233573475975618e+01 -3.54004001356292832e+01 1.08821729383338397e+01
1 -1.76046462897527221e+01 -1.09754506939351479e+01 6.41003597896095840e+01
1 -8.46298686617586604e+00 1.22223585038247492e+02 -5.05157719563600693e+01
1 3.46574688076085380e+01 -2.78904525202510563e+01 -7.44164004301777311e+01
1 -4.83514734134331121e+01 6.86652934792992209e+00 -1.30394556878344847e+01
8
Step 130
1 1.33631469474551920e+01 6.54243337967768923e+01 4.65324403314242545e+01
1 2.68750344960731127e+01 -2.23152855808986210e+01 3.47556926931419241e+01
1 7.01559083156121517e+01 1.17504143010432767e+01 1.07843409277610590e+02
1 2.64360825968366804e+01 -2.37766340789818464e+01 1.84516670478921760e+01
1 -3.04314250580684629e+01 2.95731944016224269e-01 5.93978720663671780e+01
1 -2.11219920836098218e+00 1.11656469086289079e+02 -6.08978200200222730e+01
1 2.75329709016481914e+01 -1.47707315847999094e+01 -6.52095963583998071e+01
1 -3.61591131690926986e+01 6.57185818582647663e+00 -1.27004915204537792e+01
8
Step 140
1 1.06810624674602614e+01 6.45127748828840311e+01 5.71328462102877026e+01
1 2.66896597763293251e+01 -1.28794559975118954e+01 2.82634321771392791e+01
1 6.19629098284301065e+01 2.80341863626352286e+01 1.01005581695415870e+02
1 1.47787906025842606e+01 -1.14247739455374191e+01 2.60015435785940277e+01
1 -4.28892228877544497e+01 1.17211106829210774e+01 5.46522253475578950e+01
1 3.94854237733818447e+00 1.00191405081749949e+02 -7.07946527938297692e+01
1 2.01220464448003860e+01 -1.83710883406082748e+00 -5.53811863886937417e+01
1 -2.37198030102973689e+01 5.43299695020388551e+00 -1.25036780121556355e+01
8
Step 150
1 7.68576946253262694e+00 6.34155801678132889e+01 6.73803691872369228e+01
1 2.64088204637694588e+01 -3.29016891882290219e+00 2.14621924245988573e+01
1 5.32817137591330123e+01 4.40016438079935313e+01 9.34838172714304534e+01
1 3.36262175119041373e+00 1.52843435469117273e+00 3.34690240510493169e+01
1 -5.48118188390947552e+01 2.31855959319252172e+01 4.98859281028482968e+01
1 9.69256228393039976e+00 8.79629549852985804e+01 -8.01076601935034773e+01
1 1.25083525124868835e+01 1.07571362890923918e+01 -4.50499397112671573e+01
1 -1.11278702460783805e+01 3.38891173096559228e+00 -1.24395710541169091e+01
8
Step 160
1 4.43778541489919753e+00 6.20897834851374100e+01 7.71875620494787569e+01
1 2.60654345415066580e+01 6.28685309842362283e+00 1.44082415256007774e+01
1 4.41819480971675844e+01 5.94554538378101114e+01 8.53319121630914310e+01
1 -7.60929219577688709e+00 1.49293540556784947e+01 4.07986971436711698e+01
1 -6.60387699126187471e+01 3.45678661636092031e+01 4.51209139716385934e+01
1 1.50968170843993477e+01 7.51172715558549839e+01 -8.87471449486390043e+01
1 4.77849167325883162e+00 2.28661852848490881e+01 -3.43393410014912490e+01
1 1.51728260070345056e+00 4.10384922072212999e-01 -1.25009436431221008e+01
8
Step 170
1 1.00397757971360657e+00 6.04934489484337448e+01 8.64701526956319668e+01
1 2.56949539444234212e+01 1.56900613425694218e+01 7.15293365464498532e+00
1 3.47456641692598041e+01 7.42105850811741590e+01 7.66070100478598022e+01
1 -1.79497947603867694e+01 2.86023044355250349e+01 4.79469641490579264e+01
1 -7.64193501329689440e+01 4.57420369778431279e+01 4.03776397587719771e+01
1 2.01432774014580183e+01 6.18135752777210641e+01 -9.66277414356848681e+01
1 -2.97758093094973963e+00 3.43520329233805413e+01 -2.33750784807873337e+01
1 1.41084889436392693e+01 -3.49633477146759963e+00 -1.26830998742940455e+01
8
Step 180
1 -2.54219117890267876e+00 5.85885895639539100e+01 9.51470671504359160e+01
1 2.53375302058377265e+01 2.47663355225866013e+01 -2.62667328787474341e-01
1 2.50626166566807420e+01 8.80897605224616314e+01 6.73695728449776823e+01
1 -2.74943492941810845e+01 4.23586173005106943e+01 5.48852554446358454e+01
1 -8.58165992049367787e+01 5.65813883000321312e+01 3.56740975762327466e+01
1 2.48203903468110134e+01 4.82225390782490066e+01 -1.03667248265004261e+02
1 -1.06677352441501938e+01 4.50867928863929137e+01 -1.22836049755513201e+01
1 2.65327110920948144e+01 -8.29298168487880893e+00 -1.29823799830769957e+01
8
Step 190
1 -6.12102391614620256e+00 5.63453135704364882e+01 1.03142549124709632e+02
1 2.50404329409559843e+01 3.33757396053822077e+01 -7.81147727036533990e+00
1 1.52222123575080133e+01 1.00918391066102927e+02 5.76851421089389120e+01
1 -3.61044895816690143e+01 5.60060049850087012e+01 6.16003507536874295e+01
1 -9.41105499928294336e+01 6.69626747866467724e+01 3.10252415458426967e+01
1 2.91238803758584943e+01 3.45222815485372578e+01 -1.09788615631880148e+02
1 -1.81999056807491186e+01 5.49557632999186723e+01 -1.19087096693101424e+00
1 3.86749186315847524e+01 -1.39150630840110132e+01 -1.33945314093254986e+01
8
Step 200
1 -9.64829924778570458e+00 5.37449697698443813e+01 1.10388733319184539e+02
1 2.48596391293757897e+01 4.13950839370123376e+01 -1.54808554855670319e+01
1 5.30487849092932695e+00 1.12522296518482932e+02 4.76273452120206215e+01
1 -4.36676081846018320e+01 6.93562269103649953e+01 6.80906265746424708e+01
1 -1.01200302223576941e+02 7.67698980103546376e+01 2.64428978793090153e+01
1 3.30568125537988351e+01 2.08936397354258716e+01 -1.14923007910426179e+02
1 -2.54845079353866559e+01 6.38600737790910955e+01 9.77916927216841714e+00
1 5.04218047252613530e+01 -2.02771267873207144e+01 -1.39136929756079901e+01
8
Step 210
1 -1.30388558691797964e+01 5.07810534259404136e+01 1.16827516194649860e+02
1 2.48591587879248088e+01 4.87191926249043163e+01 -2.32690325085728702e+01
1 -4.62371447061988583e+00 1.22730445204055314e+02 3.72802629626095268e+01
1 -5.00941252485109700e+01 8.22302541697374494e+01 7.43591140559022676e+01
1 -1.07005050361546154e+02 8.58970127938051888e+01 2.19360274443022014e+01
1 3.66291609698797345e+01 7.51580147998150316e+00 -1.19012433742189501e+02
1 -3.24365691809239394e+01 7.17184878520243387e+01 2.05062176988072196e+01
1 6.16646246909533602e+01 -2.72769588849940696e+01 -1.45319759684801788e+01
8
Step 220
1 -1.62113922044913785e+01 4.74580966910177580e+01 1.22411314143648070e+02
1 2.51074437385477012e+01 5.52599687057778937e+01 -3.11782632806758677e+01
1 -1.45133817327883072e+01 1.31382213314634242e+02 2.67380416992688872e+01
1 -5.53141415208080289e+01 9.44610748808738094e+01 8.04062875373057011e+01
1 -1.11464314887249969e+02 9.42495191078398022e+01 1.75111800695555679e+01
1 3.98570899844911466e+01 -5.43735748148913522e+00 -1.22011465430717024e+02
1 -3.89774480577716176e+01 7.84683651234293649e+01 3.08752895396542542e+01
1 7.23011858045788642e+01 -3.47990214246756722e+01 -1.52394219043326622e+01
8
Step 230
1 -1.90929589165775759e+01 4.37896223700837766e+01 1.27102889026849837e+02
1 2.56716611017444549e+01 6.09443333854090668e+01 -3.92069844179846072e+01
1 -2.43255752689464195e+01 1.38336283993039785e+02 1.61012018816465563e+01
1 -5.92753883607846390e+01 1.05895021244553277e+02 8.62254683711630747e+01
1 -1.14537582117262176e+02 1.01745160242884850e+02 1.31730051798686478e+01
1 4.27620327111360936e+01 -1.78002695007065839e+01 -1.23888183071923279e+02
1 -4.50361508504920351e+01 8.40659079295216429e+01 4.07782360175937413e+01
1 8.22371804056321309e+01 -4.27174592633510315e+01 -1.60241596793082763e+01
8
Step 240
1 -2.16218922146078256e+01 3.97962028876806784e+01 1.30874717872758623e+02
1 2.66114763264405987e+01 6.57122708396754405e+01 -4.73434133501225602e+01
1 -3.40274644475760937e+01 1.43478113443618014e+02 5.47110878487935537e+00
1 -6.19429104907851737e+01 1.16392607630671975e+02 9.18017349011811774e+01
1 -1.16203482837684390e+02 1.08313973905280349e+02 8.92472528294044132e+00
1 4.53695901870970886e+01 -2.94181288571139739e+01 -1.24624640316837869e+02
1 -5.05502870739508054e+01 8.84858382005775894e+01 5.01150464491245060e+01
1 9.13870250038909120e+01 -5.08988445972504735e+01 -1.68726580805812638e+01
8
Step 250
1 -2.37488902977789778e+01 3.55041104600588113e+01 1.33708367088898768e+02
1 2.79738252706634327e+01 6.95156929544246509e+01 -5.55619213530165936e+01
1 -4.35865414155223334e+01 1.46724418788879319e+02 -5.05526043598193198e+00
1 -6.32997955804488655e+01 1.25829448399722878e+02 9.71133630464287165e+01
1 -1.16458614681103583e+02 1.13897857093008781e+02 4.76851743724605548e+00
1 4.77082890051635715e+01 -4.01488839164045430e+01 -1.24217061851732637e+02
1 -5.54667198238342891e+01 9.17206532089738857e+01 5.87948790985292575e+01
1 9.96743260506231650e+01 -5.92047165890920581e+01 -1.77700173540538451e+01
8
Step 260
1 -2.54367192782871285e+01 3.09445398698642649e+01 1.35594112498006297e+02
1 2.97894549066811081e+01 7.23182245881844068e+01 -6.38221971076121406e+01
1 -5.29671232445348110e+01 1.48024735083839403e+02 -1.53888937958751644e+01
1 -6.33480768111092090e+01 1.34097382805970511e+02 1.02134339086369536e+02
1 -1.15316123337260564e+02 1.18449738952780820e+02 7.05769146741879849e-01
1 4.98082731619651256e+01 -4.98648017093783338e+01 -1.22675857160839840e+02
1 -5.97419695857979391e+01 9.37795998286820804e+01 6.67368093458079983e+01
1 1.07032073287494327e+02 -6.74939313886425083e+01 -1.87002689994658233e+01
8
Step 270
1 -2.66592777493177557e+01 2.61531762235746257e+01 1.36530804356582962e+02
1 3.20713232166347808e+01 7.40956363133437463e+01 -7.20704132796995509e+01
1 -6.21288581932718245e+01 1.47360884244836456e+02 -2.54504412674502412e+01
1 -6.21092959465885173e+01 1.41105743473989975e+02 1.06836952085041645e+02
1 -1.12804173888989837e+02 1.21932430778600860e+02 -3.26281828309576616e+00
1 5.17000270861415387e+01 -5.84536328959209115e+01 -1.20025466728913926e+02
1 -6.33424272922205347e+01 9.46874842397838847e+01 7.38703238537417661e+01
1 1.13402653987152092e+02 -7.56248349135853175e+01 -1.96466668229225832e+01
8
Step 280
1 -2.74005785592967257e+01 2.11698916308148561e+01 1.36525845982526249e+02
1 3.48145020019716611e+01 7.48365437498303834e+01 -8.02414222111888904e+01
1 -7.10266762482912952e+01 1.44745294156796319e+02 -3.51705013329664524e+01
1 -5.96245694606557208e+01 1.46782697575662695e+02 1.11194058328868067e+02
1 -1.08964463621797847e+02 1.24317221134838647e+02 -7.13729935384363845e+00
1 5.34132228108906588e+01 -6.58194238323735732e+01 -1.16304040791517451e+02
1 -6.62444257479341729e+01 9.44834036072924022e+01 8.01356187067768388e+01
1 1.18737773813630710e+02 -8.34572815949185554e+01 -2.05919605005455111e+01
8
Step 290
1 -2.76539072617466886e+01 1.60384406432356421e+01 1.35595155059877783e+02
1 3.79970628742417560e+01 7.45430545354282259e+01 -8.82612267896194425e+01
1 -7.96115220748145731e+01 1.40218869578253106e+02 -4.44891208260162330e+01
1 -5.59541356311080378e+01 1.51076610290487480e+02 1.15180945348097140e+02
1 -1.03850960978543242e+02 1.25582310416695179e+02 -1.09187230582965462e+01
1 5.49757615978760441e+01 -7.18830423402226870e+01 -1.11562954620061134e+02
1 -6.84342101848965285e+01 9.32194561386234710e+01 8.54837698290520365e+01
1 1.22998357312502719e+02 -9.08545330556198962e+01 -2.15186475898765117e+01
8
Step 300
1 -2.74211901046003170e+01 1.08060975168198361e+01 1.33763040946343381e+02
1 4.15814831526733641e+01 7.32311663413889562e+01 -9.60493210127761046e+01
1 -8.78313876267238527e+01 1.33848818109464844e+02 -5.33549900163772790e+01
1 -5.11763193496079296e+01 1.53957328468330530e+02 1.18776807979618980e+02
1 -9.75290965350705363e+01 1.25711256851438435e+02 -1.46094778837040842e+01
1 5.64130443595801836e+01 -7.65824909286123301e+01 -1.05866166326663617e+02
1 -6.99078389917089709e+01 9.09594610963331718e+01 8.98768347718197305e+01
1 1.26154483549097748e+02 -9.76850759026140594e+01 -2.24092012831924485e+01
8
Step 310
1 -2.67125027907292640e+01 5.52321671351974341e+00 1.31061988919423413e+02
1 4.55162669518654326e+01 7.09308266790302753e+01 -1.03520781299699863e+02
1 -9.56323845646681292e+01 1.25726599458551391e+02 -6.17246121713794622e+01
1 -4.53857581886510815e+01 1.55417131048981275e+02 1.21965779140606926e+02
1 -9.00756386155023705e+01 1.24691749236319325e+02 -1.82135796742210800e+01
1 5.77474525083194479e+01 -7.98730699552932037e+01 -9.92894168563190931e+01
1 -7.06710336464235525e+01 8.77777014710540300e+01 9.32879218837719293e+01
1 1.28185393872067465e+02 -1.03824397616544260e+02 -2.32462685353891381e+01
8
Step 320
1 -2.55456359194484222e+01 2.42711158831501517e-01 1.27532366230063886e+02
1 4.97376351557608771e+01 6.76856311020969059e+01 -1.10588155871490400e+02
1 -1.02959757881879540e+02 1.15966020368717167e+02 -6.95615700206216303e+01
1 -3.86907237138737017e+01 1.55470894760388745e+02 1.24737330407693292e+02
1 -8.15793718652330710e+01 1.22515190248514230e+02 -2.17366207390375514e+01
1 5.89979398213024098e+01 -8.17274235672854275e+01 -9.19192635450744859e+01
1 -7.07389820564875151e+01 8.37576867343192362e+01 9.57012355441846694e+01
1 1.29079595617151313e+02 -1.09156758585204201e+02 -2.40128253951022437e+01
8
Step 330
1 -2.39456516184898263e+01 -4.98055462381086578e+00 1.23222062559768133e+02
1 5.41712465737957700e+01 6.35521690349369806e+01 -1.17163271152754433e+02
1 -1.09758829701126160e+02 1.04701422818008751e+02 -7.68359159147689041e+01
1 -3.12095565672557953e+01 1.54154931159904351e+02 1.27085788763940101e+02
1 -7.21423810777625789e+01 1.19177637329807013e+02 -2.51850412850645000e+01
1 6.01795259584327908e+01 -8.21354614580781828e+01 -8.38519434215442203e+01
1 -7.01360838673410427e+01 7.89909190061884630e+01 9.71120852446676679e+01
1 1.28835087028993570e+02 -1.13577004780100424e+02 -2.46922634351877619e+01
8
Step 340
1 -2.19443879445643297e+01 -1.00904580621640001e+01 1.18186065399489706e+02
1 5.87339662530583055e+01 5.85990469884829821e+01 -1.23159098593891599e+02
1 -1.15975899175042002e+02 9.20858836559354330e+01 -8.35236592836275520e+01
1 -2.30666143061305497e+01 1.51524157798361614e+02 1.29008834471961762e+02
1 -6.18812850209685834e+01 1.14682435517033298e+02 -2.85644922916834396e+01
1 6.13023954828307041e+01 -8.11041207831747215e+01 -7.51920925807029619e+01
1 -6.88956149388135657e+01 7.35756339491285445e+01 9.75268394101425002e+01
1 1.27459753123863749e+02 -1.16992484913122397e+02 -2.52683699641012396e+01
8
Step 350
1 -1.95798838100292265e+01 -1.50303969496524434e+01 1.12485960161694919e+02
1 6.33357108625854934e+01 5.29056464141776459e+01 -1.28491835131710218e+02
1 -1.21559136457441767e+02 7.82893392009137727e+01 -8.96062929038372999e+01
1 -1.43885208754407792e+01 1.47647816230733383e+02 1.30505190958477925e+02
1 -5.09274722614665052e+01 1.09044348939215411e+02 -3.18773551065569265e+01
1 6.23703800524233785e+01 -7.86569486001149585e+01 -6.60513943523278044e+01
1 -6.70592862269784433e+01 6.76154826244206362e+01 9.69628107610166268e+01
1 1.24972017313868392e+02 -1.19325148874391914e+02 -2.57251805899512185e+01
8
Step 360
1 -1.68957079538160677e+01 -1.97441453495683312e+01 1.06189339699881430e+02
1 6.78813899903425551e+01 4.65607109321663586e+01 -1.33083339188718355e+02
1 -1.26459514180857738e+02 6.34965540923524898e+01 -9.50702735613090937e+01
1 -5.30161274622115641e+00 1.42604587557759345e+02 1.31572141813241615e+02
1 -3.94256468717804651e+01 1.02294356719630613e+02 -3.51198272986973308e+01
1 6.33790065862502772e+01 -7.48335716440692096e+01 -5.65472506548936806e+01
1 -6.46766791455005574e+01 6.12181269586394876e+01 9.54480675489372743e+01
1 1.21401804693718120e+02 -1.20513830830354635e+02 -2.60467726514683910e+01
8
Step 370
1 -1.39401832742873903e+01 -2.41767729415762069e+01 9.93691083484651045e+01
1 7.22729376913600277e+01 3.96608753709356208e+01 -1.36863982853828531e+02
1 -1.30631829583147805e+02 4.79048597950902888e+01 -9.99063450342218715e+01
1 4.06886692976341013e+00 1.36478282105454639e+02 1.32203730881651154e+02
1 -2.75308085345067717e+01 9.44838130873709332e+01 -3.82791820755566548e+01
1 6.43140101082828153e+01 -6.96892446357757791e+01 -4.68015123234264081e+01
1 -6.18045480527656395e+01 5.44937376871610084e+01 9.30211623947790969e+01
1 1.16791645273098979e+02 -1.20516446856116815e+02 -2.62172463494648760e+01
8
Step 380
1 -1.07655042777390904e+01 -2.82756072900460040e+01 9.21026701248396336e+01
1 7.64114239489744733e+01 3.23092011976294202e+01 -1.39775815190316536e+02
1 -1.34035890627017409e+02 3.17215863114862913e+01 -1.04108562965123596e+02
1 1.35979666717715819e+01 1.29355062629054203e+02 1.32390291630423832e+02
1 -1.54045607902512316e+01 8.56865986159876485e+01 -4.13317926398430018e+01
1 6.51517038784774343e+01 -6.32946961717086793e+01 -3.69391556322489052e+01
1 -5.85059859259296715e+01 4.75534031861250881e+01 8.97307577144006672e+01
1 1.11197320714975675e+02 -1.19311431940010223e+02 -2.62212697020478203e+01
8
Step 390
1 -7.42675132765548263e+00 -3.19912135801876971e+01 8.44709983411084977e+01
1 8.01993059999389857e+01 2.46137027193484741e+01 -1.41775802299834879e+02
1 -1.36637970755539754e+02 1.51610902353615629e+01 -1.07672876957838895e+02
1 2.31594344052036583e+01 1.21322475545282614e+02 1.32119347760757677e+02
1 -3.21160772573024866e+00 7.59984185099046385e+01 -4.42423301312819461e+01
1 6.58620334046559606e+01 -5.57362842738426849e+01 -2.70866652363963532e+01
1 -5.48494548042476708e+01 4.05074756997885359e+01 8.56351152249785486e+01
1 1.04687238081732360e+02 -1.16897651813571102e+02 -2.60453872001736499e+01
8
Step 400
1 -3.98081242225018750e+00 -3.52783644409444861e+01 7.65575954687903959e+01
1 8.35430004668099428e+01 1.66858905078946620e+01 -1.42838915078982325e+02
1 -1.38412647012136830e+02 -1.55875943964664110e+00 -1.10595226620531449e+02
1 3.26243353413637109e+01 1.12469826367562874e+02 1.31377362167588217e+02
1 8.88348519706763717e+00 6.55334524322486374e+01 -4.69642881198849338e+01
1 6.64135699303084550e+01 -4.71161408215405046e+01 -1.73699470862051619e+01
1 -5.09076913565462164e+01 3.34638948908561247e+01 8.08014173307374648e+01
1 9.73401740601200913e+01 -1.13292627491318456e+02 -2.56798137749475437e+01
8
Step 410
1 -4.85234961220669170e-01 -3.80969747527294942e+01 6.84473700640206033e+01
1 8.63559380157143437e+01 8.63957268838978187e+00 -1.42960732744967913e+02
1 -1.39345009796078898e+02 -1.82207820512882144e+01 -1.12869447847239499e+02
1 4.18604846659534147e+01 1.02889180158454295e+02 1.30151765695873621e+02
1 2.07197471711773780e+01 5.44193919668023014e+01 -4.94418305129739863e+01
1 6.67785219433237245e+01 -3.75518522615039103e+01 -7.91183804546398228e+00
1 -4.67565054012066099e+01 2.65265330584559393e+01 7.53049010986026843e+01
1 8.92419202603812067e+01 -1.08529784441146219e+02 -2.51200874564747529e+01
8
Step 420
1 3.00295074626373903e+00 -4.04129815346621442e+01 6.02254802121994928e+01
1 8.85619000119373254e+01 5.90252370658204351e-01 -1.42158739672334576e+02
1 -1.39432824408465137e+02 -3.46133282925472088e+01 -1.14485855242261408e+02
1 5.07328582454722223e+01 9.26765195256370902e+01 1.28433023447528740e+02
1 3.21436460422175756e+01 4.27919409950323910e+01 -5.16129462563997592e+01
1 6.69360104269751872e+01 -2.71753959679756889e+01 1.17050987925794558e+00
1 -4.24734915514084506e+01 1.97936013271026461e+01 6.92278053258142165e+01
1 8.04818905329967009e+01 -1.02655806356833608e+02 -2.43680389329812748e+01
8
Step 430
1 6.42837534437253666e+00 -4.21991507533641936e+01 5.19762052679434277e+01
1 9.00978550354802223e+01 -7.34491420574382392e+00 -1.40471117942930221e+02
1 -1.38687672213378221e+02 -5.05352371248253505e+01 -1.15431667787863063e+02
1 5.91050634894464011e+01 8.19327995080475375e+01 1.26216603610314962e+02
1 4.30127926914390954e+01 3.07895257894107779e+01 -5.34137264160743399e+01
1 6.68727946502691424e+01 -1.61313034667045621e+01 9.76804574511162471e+00
1 -3.81366747115601044e+01 1.33561472202782632e+01 6.26581534005667109e+01
1 7.11506261569458616e+01 -9.57288964180016393e+01 -2.34318693772151292e+01
8
Step 440
1 9.73838489595516243e+00 -4.34357851286268257e+01 4.37818871693432570e+01
1 9.09153087381609737e+01 -1.50472962117137836e+01 -1.37952611859398559e+02
1 -1.37134062974494100e+02 -6.57999156034891541e+01 -1.15693699563773905e+02
1 6.68419427478110748e+01 7.07645222466870933e+01 1.23504476505334452e+02
1 5.31986919602019412e+01 1.85488566128828971e+01 -5.47830860674638700e+01
1 6.65816170264724860e+01 -4.57418477856008110e+00 1.77817966910349057e+01
1 -3.38231117563681707e+01 7.29666665063547892e+00 5.56884145323095296e+01
1 6.13386209151996553e+01 -8.78181868053819557e+01 -2.23254411066739813e+01
8
Step 450
1 1.28839867494431619e+01 -4.41112980069535396e+01 3.57219360085813804e+01
1 9.09798464870958412e+01 -2.23979843746756160e+01 -1.34668778768918742e+02
1 -1.34806477835236535e+02 -8.02377494324124427e+01 -1.15262198800709896e+02
1 7.38130673427541666e+01 5.92833727657276199e+01 1.20305665920831515e+02
1 6.25880721015698214e+01 6.20194946780246426e+00 -5.56668730562306777e+01
1 6.60581710413567009e+01 7.33416508754214647e+00 2.51243262182080898e+01
1 -2.96074727230733039e+01 1.68784912426492584e+00 4.84140937306526240e+01
1 5.11363096413540603e+01 -7.90039999865144296e+01 -2.10670870931393885e+01
8
Step 460
1 1.58207024652577903e+01 -4.42226253774798224e+01 2.78718676927916498e+01
1 9.02695724433513789e+01 -2.92802430181661357e+01 -1.30690811984314678e+02
1 -1.31745516080755124e+02 -9.36969420957367873e+01 -1.14134048649503214e+02
1 7.98964484756610176e+01 4.76047210905844906e+01 1.16635678479672862e+02
1 7.10829327171886405e+01 -6.12510631090564317e+00 -5.60204968583909135e+01
1 6.52980820600220397e+01 1.94278278933346016e+01 3.17207594971993032e+01
1 -2.55606270378588327e+01 -3.40852523496954163e+00 4.09322926646897045e+01
1 4.06346937069582310e+01 -6.93783770580258050e+01 -1.96782940298109175e+01
8
Step 470
1 1.85093371307249832e+01 -4.37754666051978845e+01 2.03023494079981148e+01
1 8.87735024381153295e+01 -3.55826813741489687e+01 -1.26092219837646013e+02
1 -1.27994542362935832e+02 -1.06043593335344809e+02 -1.12314499520506502e+02
1 8.49816395721360607e+01 3.58452093434076886e+01 1.12515079383534228e+02
1 7.85999141262623482e+01 -1.83118696238772749e+01 -5.58097719229551146e+01
1 6.42949452502826944e+01 3.15397799131633398e+01 3.75095357433331458e+01
1 -2.17482737372138573e+01 -7.94250975618173349e+00 3.33402735135620958e+01
1 2.99260416379970735e+01 -5.90453281309210283e+01 -1.81825211004125578e+01
8
Step 480
1 2.09166528370053761e+01 -4.27843514183703206e+01 1.30782257106980104e+01
1 8.64905106183337580e+01 -4.12024171024415296e+01 -1.20947243282606962e+02
1 -1.23597493772337188e+02 -1.17161765248470616e+02 -1.09817821682236527e+02
1 8.89716406274553577e+01 2.41199317797731254e+01 1.07967767813561778e+02
1 8.50697550271261633e+01 -3.02424507814486851e+01 -5.50102384540171059e+01
1 6.30397001764090774e+01 4.35047217896362355e+01 4.24429962136751868e+01
1 -1.82296890869913568e+01 -1.18766838111930610e+01 2.57340652670164616e+01