8
Step 0
1 -3.472934504792e+01   2.985585161505e+01   4.552711624413e+01 
1 -3.872914153085e+01   5.183552870333e+01   2.841252880511e+01 
1  6.597310272429e+01   3.473535297890e+01   3.212630301548e+01 
1 -6.209027598665e+01   1.844554586020e+01  -3.110501871492e+01 
1 -4.675834713363e+01   3.854789838996e+01   6.659078998682e+01 
1 -1.328434623653e+01  -5.953552595268e+01  -6.135440417252e+01 
1  6.150941286889e+01  -3.705897999201e+01   2.680974576907e+01 
1  1.897523860070e+01  -3.176705575740e+00  -2.894581516525e+01 
8
Step 1000
1  2.233018833634e+01  -5.295098986893e+00   3.269690691785e-01 
1 -1.911251645812e+01   1.169647699567e+01   2.513268601405e+01 
1 -7.022742634808e+00   1.770462547016e+01   1.221347995363e+01 
1 -4.818657618076e+01  -1.042187450535e+01  -5.419270303864e+01 
1 -1.042272008234e+01  -3.599986659746e+01  -2.625832297824e+00 
1  1.002437382371e+01   1.262398508446e+01   1.461530292903e+01 
1  3.877189894297e+01   2.408384420239e+01  -7.327820119254e+00 
1  2.684060177111e+01   6.580793845674e+01  -5.992770190267e-01 
8
Step 2000
1  3.699411064003e+01  -2.518717949159e+01  -1.078445105107e+01 
1  2.001177349842e+01  -2.248669049900e+01  -8.497829875441e+00 
1 -5.051844510710e+01  -1.602227625487e+00  -8.672076754143e+00 
1  6.990234272848e+00  -7.455959170979e+00   3.902246474272e+00 
1  1.996143187209e+01  -3.198598986704e+01  -6.584370457657e+01 
1  2.423094941978e+01   4.968531381911e+01   3.400874138103e+01 
1 -1.613140840510e+01   3.807655175533e+01  -2.461384583586e+01 
1  1.311835506237e+01   3.547245518516e+01   2.191567042720e+01 
8
Step 3000
1  8.990624308814e+00   2.580729600579e+00  -3.398037838100e+00 
1  3.634713300138e+01  -3.190399638116e+01   3.843579982277e+00 
1 -2.354756268977e+00  -3.042570612597e+01   1.269052923382e+00 
1  5.291405186601e+01  -1.627901871007e+01   4.148835813963e+01 
1  1.334862789776e+01   1.300722075538e+01  -2.368089272859e+01 
1  1.430901960748e+01   2.378840073827e+01   6.664469781405e-01 
1 -2.540904189334e+01  -6.837625853868e+00  -2.800780757845e+01 
1 -1.424027007927e+01  -2.626107634388e+01   1.022760970478e+01 
8
Step 4000
1 -9.978451538793e+00   2.178970952269e+01  -1.772100708528e+01 
1  1.168873265221e+01  -2.214685979024e+01   2.176408875722e+01 
1  4.775045612475e+01  -4.270336817984e+01   6.250145407534e+00 
1  4.459069188873e+01  -3.093102414199e+01   3.898753423054e+00 
1  5.121425643588e+00   2.523983881305e+01   5.549348738166e+01 
1 -1.023571824948e+01  -1.278965080703e+01  -2.260682669084e+01 
1 -8.114794781741e-01  -2.042563253788e+01  -2.410670975304e+00 
1 -3.276098482082e+01  -3.299355557010e+01  -1.741376505598e+01 
8
Step 5000
1 -2.631024343426e+00  -8.129243969531e+00  -2.824647430673e+01 
1 -2.771692518344e+01   2.402729618024e+00  -1.054707509489e+01 
1  3.066081327099e+01  -1.207859684902e+01  -7.143620957091e+00 
1 -1.118424115404e+01  -7.435806561206e+00  -4.438554579519e+01 
1  1.869458752050e+01  -2.805371395088e+00   6.317406880231e+01 
1 -3.035862963324e+01  -2.613926061149e+01  -1.332108566978e+01 
1  5.602696578248e+00   8.616046816439e+00   4.266614785968e+01 
1 -1.901784240676e+01  -2.202670483894e-01  -2.688986672183e+01 
8
Step 6000
1 -3.234437065694e+00  -3.422847507575e+01   1.929359847940e+01 
1 -2.575362860920e+01   3.205273756571e+01  -4.943664252408e+01 
1 -2.540272687564e+01   4.157520105845e+01  -8.354636496471e+00 
1 -5.111075795739e+01   4.749277549619e+01  -9.089407138962e-01 
1  9.044881425993e+00  -2.361714262025e+01  -3.000660326818e+01 
1 -1.500106017315e+01  -1.836437080183e+01   1.430827414158e+01 
1 -1.477962645680e+01   1.048034989601e+00   3.347877374811e+01 
1  3.200891071100e+01   5.435983189794e+00   6.048873254963e+00 
8
Step 7000
1 -2.288751003945e+01   1.326625838604e+00   4.650681568899e+01 
1  6.363243918239e+00   2.906310992940e+01  -1.670340501457e+01 
1 -2.817678985074e+01   3.989897485414e+01   1.286781582126e+00 
1 -2.414205317141e+01   3.848383215971e+01   5.041662995910e+01 
1 -3.603275985938e+01  -6.181916395662e+00  -6.591488557032e+01 
1  1.657764455547e+01  -8.250232813093e+00   2.471277907005e+01 
1 -1.056888262740e+01  -3.407457898529e+01  -2.512461899977e+01 
1  4.306759830455e+01  -8.863975208789e+00   3.191401825058e+01 
8
Step 8000
1 -1.655847106817e+01   3.060972179379e+01   3.998287113520e+00 
1  7.798541628086e+00   3.856944646519e+00   3.287235419542e+01 
1 -1.173552925407e+01   1.185985919290e+01  -4.121759853819e+00 
1  4.238412911552e+00  -1.284820834659e+01   4.761791868415e+00 
1 -4.867950832230e+01   1.020514745420e+01  -1.167806239323e+01 
1  2.337965930673e+01   5.931784911802e+00   1.230471864921e+01 
1  2.180782668544e+01  -1.154228021549e+01  -3.620652803982e+01 
1 -2.132805514763e+00   1.468516760172e+01   1.792235621768e+01 
8
Step 9000
1  2.223940216276e+01   1.077549914194e+01  -3.247742597565e+01 
1 -9.567076318221e+00  -1.437873984879e+01   3.898077521724e+01 
1 -1.472228264102e+01   1.018802187193e+00  -1.632462789834e+00 
1  2.535511158900e+00  -2.922000809188e+01  -5.827316161840e+01 
1  3.024240542512e+00   6.350231079981e+00   3.590020958668e+01 
1  2.960712489915e+00   2.206419543281e+01  -1.807536545546e+01 
1  3.731188930265e+01   4.083473299214e+01   9.367705431646e+00 
1 -4.382777670483e+01   3.909623705877e+01  -1.422221340592e+01 
8
Step 10000
1  4.042027406408e+01  -1.362732656670e+01  -5.290913675445e+00 
1  6.366363690129e-01  -1.672112388304e+01   6.326065716481e+00 
1 -1.371479930794e+00  -1.750435453990e+01   2.724659262730e+01 
1  5.172782571625e+00  -2.618439557305e+00  -2.124541046142e+01 
1  6.695436654856e+01   3.398324812215e-02   2.396132492787e+01 
1 -1.872323489814e+01   2.524602231858e+01  -4.358780352282e+01 
1  5.289308512965e+00   3.998289184098e+01   3.539100053172e+01 
1 -2.770802247916e+01  -2.733678034469e+00  -3.496192164275e+01 
8
Step 11000
1 -3.594487876038e+00   9.178365475653e-01   1.838774352634e+01 
1  2.686862775363e+01  -1.244242952262e+01  -2.867471078632e+01 
1  4.955601327767e+01  -6.194902406934e+01   2.253716082626e+01 
1  3.285432671550e+01   4.289312116758e+00   6.671970363539e+01 
1  4.489995252224e+01   8.150167506773e+00  -9.291436198860e+00 
1 -1.020578738060e+01   4.554836977701e+00  -1.087922852026e+01 
1 -5.114976410821e+01  -1.341199205880e+01  -8.932590411804e+00 
1  3.008692056033e+01  -5.973438433259e+01  -1.725747689807e+01 
8
Step 12000
1 -2.646969155586e+01   1.045923296998e+00  -1.558233483792e+01 
1  6.984415004340e+00  -5.288056860241e+00  -2.541101921330e+01 
1  4.388145081398e+01  -3.960723518058e+01  -3.009584379960e+01 
1  2.642571802619e+01  -1.433469226399e+01   3.050822004275e+01 
1 -2.635008341850e+01   7.429507997572e+00  -7.300064607809e+00 
1  1.234215084105e+01  -1.764545240241e+01   4.097730583283e+01 
1 -4.422135655051e+01  -2.192523660410e+01  -3.370373146861e+01 
1  3.491852176605e+01  -1.352139647406e+01   2.136132658693e+01 
8
Step 13000
1 -2.799107959524e-01  -2.350605253059e+01  -1.855873969321e+01 
1 -1.643908400142e+01   2.003648607572e+00  -4.844161882682e+00 
1 -8.758600106625e+00   3.172442134036e+01  -3.231934570777e+01 
1 -6.805596621159e+00  -5.921611451641e+00  -3.342231199026e+01 
1 -3.191289520874e+01  -1.025274478102e+01   1.784598041794e+00 
1  9.893031870435e+00  -2.377790186449e+01   3.094621597524e+01 
1  5.533300011345e+00  -1.110607690792e+01  -3.055824621094e+00 
1  1.069298236077e+00   3.459140207301e+01   2.871400586295e+01 
8
Step 14000
1  1.127649272999e+01  -2.141136151376e+01   2.367348582944e+01 
1 -6.108378563533e+00   9.750380841111e+00   5.896362008292e+00 
1 -4.537737506787e+01   7.423674701751e+01   1.664373243595e+01 
1 -3.156278455027e+01   1.929915329792e+01  -3.100955484609e+01 
1  3.351777264330e-01  -2.570194031216e+01  -1.828841587771e+00 
1 -1.345564232362e+01  -1.739104828170e+01  -1.750040614734e+01 
1  5.000990392709e+01  -2.462315672843e+01   3.246271291380e+01 
1 -2.459826095305e+01   1.436189849644e+01   2.685232048720e+00 
8
Step 15000
1 -1.791067361313e+01   2.896430756492e+01   3.768953798026e+01 
1  1.526415008231e+01   1.638794524518e+01   4.922179371202e+00 
1 -3.373587394774e+01   2.619491159209e+01   3.776520626941e+01 
1 -3.014936682147e+01   2.399336290746e+01   1.532339565335e+01 
1  6.655604540547e+00  -1.006217335952e+01  -7.657168864439e+00 
1 -2.332332327217e+01   1.013315645516e+01  -3.856679935794e+01 
1  4.589728907087e+01  -1.537333557657e+01   2.903370754112e+01 
1 -2.068060244604e+01  -3.539831749490e+01  -3.135482804357e+01 
8
Step 16000
1 -1.968572984727e+01   4.962029306260e+01  -1.743070377261e+01 
1 -5.234379261080e+00   1.417946683699e+01   1.965894767131e+01 
1  3.825782286115e-01  -5.240804182805e+01  -1.305841399933e+01 
1 -6.489850315006e+00  -1.548601551913e+00   1.507049973818e+01 
1 -1.915880286224e+01   2.758562704325e+01  -2.109539620127e+00 
1  1.358532946404e+01   3.181913254947e+01   2.076961494234e+00 
1 -1.644528076901e+01   5.028452800694e+01  -1.349097087952e+01 
1  6.121785014141e+00  -1.613067554076e+01  -1.765142220926e+01 
8
Step 17000
1  2.901644582390e+01  -1.427268020962e-01  -3.726882020391e+01 
1 -3.309399347368e+01  -2.821062672072e+00   3.527598429710e+01 
1  1.814279496821e+01  -4.613495278455e+01  -2.735159511442e+01 
1  1.839486391812e+01  -1.702893833499e+01  -1.134332777972e+01 
1 -5.123610647919e+00   3.278483383962e+01   5.118650036067e+00 
1  4.114848873813e+01   1.360208381509e+01   2.362513438087e+01 
1 -6.114981444083e+01   6.218453379943e+01  -4.072134328222e+01 
1  2.194486839088e+01   3.513761349266e+01   2.434538045112e+01 
8
Step 18000
1  3.378917883239e+01  -3.012681644663e+01   5.167223829259e+00 
1 -7.441520134834e+00  -2.254070061506e+01  -2.919931319686e+00 
1  2.922470732731e+01  -1.894136171789e+00   1.997805838021e+01 
1  3.017721421088e+01  -1.338351510274e+01   5.588758571688e+00 
1  3.778118538518e+01   5.642702404747e+00   5.849208864229e+00 
1  3.631995941782e+00  -4.420888613715e+00  -4.596221132608e+00 
1 -3.767647572004e+01  -1.398458339679e+01  -2.550911372178e+01 
1  1.244204963163e+01   2.656617795083e+01   2.168917090357e+01 
8
Step 19000
1 -1.940797155556e+01  -1.030532635372e+01   2.183160921888e+01 
1  4.076343619749e+01  -2.475407686445e+01  -6.297912268798e+01 
1  2.875113067164e+01   6.664193752914e+00   2.589659567230e+01 
1  2.172402953715e+01  -6.893296384965e+00   2.553374245265e+01 
1  3.575929778413e+01  -1.798264635807e+01   3.809179511948e+00 
1 -4.728206605502e+01   6.949935250389e+00  -1.507820158387e+01 
1  2.394216162641e+01  -5.959113718230e+01   1.684018302296e+01 
1 -1.121126982143e+01  -1.163282146927e+01  -1.834493124771e+01 
8
Step 20000
1 -3.782578882471e+01  -3.658693777618e+00  -7.022929553135e+00 
1  4.393819601424e+01  -3.623868723238e+00  -4.611818474203e+01 
1  2.671628646591e-01   3.112465614910e+00  -2.558388760195e+01 
1  2.084833143452e+00   2.350958548421e+00  -1.423016875203e+00 
1 -1.544526156042e+01  -2.531176993795e+01   5.238886173814e-01 
1 -3.162806058116e+01   2.759036135309e+00   1.453805526068e+01 
1  5.767898545948e+01  -1.769078872943e+01   4.452807551190e+01 
1 -2.323885190380e+01  -2.224517052267e+01  -2.934972196750e+01 
8
Step 21000
1  1.377710073443e+01  -2.236547031999e+01  -1.988387581072e+01 
1 -1.512419414224e+01   2.873395223287e+01   5.904711313956e+01 
1 -4.290326302382e+01   2.889750269070e+01  -4.519699011560e+01 
1 -2.107944000567e+01   1.783909331961e+01  -3.990922057151e+01 
1 -5.770512542382e+01  -1.623770968287e+01  -5.209899582401e+00 
1  4.396435106348e+01  -4.752466924599e+01   2.561186596731e+01 
1  2.241345987047e+01   3.401813123607e+01   1.906613745376e+01 
1 -8.179942178644e-01  -1.936194042550e+01   1.280514997608e+01 
8
Step 22000
1  3.230701004079e+01   6.000576543661e-01   6.605510238579e+00 
1 -5.239358289857e+01   2.518901687393e+01   7.057825948500e+01 
1 -3.108842519103e+01   2.961082513240e+01   8.455549717580e+00 
1 -2.939941398122e+01   1.231101698964e+01  -1.683399685223e+01 
1 -2.431391060255e+01   9.801438795407e+00  -6.429442958146e+00 
1  5.224232223722e+01  -4.486692518671e+01  -1.241568878459e+01 
1 -3.888227313698e+01   1.067669689260e+01  -3.038422837448e+01 
1  3.099007487738e+01  -1.422813852450e+01   3.644006592836e+01 
8
Step 23000
1 -1.082582201872e+01   4.040754418534e+01   1.463139883701e+01 
1 -2.654074668005e+01   1.612794543152e+00  -1.618219063920e+01 
1  4.019801002000e+00  -1.079339492482e+01   3.139301830753e+01 
1 -2.858343206857e+01  -5.244644127285e+00   1.432221886289e+01 
1  1.774206752261e+01   2.025919928695e+01  -3.346295152769e+00 
1 -7.616108724969e+00   2.346324770278e+01  -2.203398240762e+01 
1 -3.092743900604e+01  -1.578782581063e+01  -2.348549726760e+01 
1  2.139729490885e+01   6.835070644647e+00   5.787730905090e+00 
8
Step 24000
1 -2.301566018081e+01   3.205219468614e+01   3.303720322098e+00 
1  9.651270286884e+00  -1.080560689188e+01  -4.481035168431e+01 
1  1.445276280857e+01  -4.143744263781e+01   1.467798674463e+01 
1 -5.937936356475e+00  -9.926312245704e+00   1.619947921754e+01 
1  3.283761307624e+01   1.081539575756e+01   1.470968189300e+00 
1 -4.327319011540e+01   6.860135769585e+01   3.113262451954e+00 
1  1.323299336305e+01   2.389171443564e+00   7.864007182198e+00 
1 -2.359305644340e+01   4.340408050887e+01  -2.737123390370e+01 
8
Step 25000
1  1.357850842207e+01  -2.335700922432e+01  -3.197695249286e+00 
1  2.679636926646e+01  -1.142438352039e+01   1.151342291454e+01 
1  6.948938593795e+00  -2.056840531271e+01  -2.822026041214e+00 
1  4.736852998460e+01  -1.038603486516e+00   9.587301679283e+00 
1  2.111358378380e+01  -3.352144528232e+00   6.104272095698e+00 
1 -2.035215188018e+01   2.609768047973e+01   1.192279711401e+01 
1  2.511162893312e+01   2.315276231203e+01   8.412224401698e+00 
1 -5.182772702644e+01   3.931347290123e+01  -2.180734387627e+01 
8
Step 26000
1  2.103566338937e+01  -4.505441696116e+01  -6.377423259437e+00 
1  2.092447234800e+01  -8.185227482956e+00   3.129526376380e+01 
1  4.544104988411e+00   3.017938339041e+01  -1.457302914311e+01 
1  6.225266864325e+01   2.405547864263e+00   4.477162224179e+00 
1 -1.733039985303e+01  -2.076337282485e+00   6.259277918547e+00 
1  2.412883814546e+01  -5.176769488581e+01  -6.034243415565e+00 
1 -1.192426105021e+01   1.240980408537e+01  -1.225402467861e+01 
1 -4.567774150827e+00  -3.215776995466e+01   1.434076205878e+01 
8
Step 27000
1 -1.634686224614e+01  -7.545277223760e+00  -9.936778864265e+00 
1  1.144306396847e+01  -7.444169261764e+00  -3.141413262652e+01 
1  1.470805117713e+01   3.348524854106e+01  -2.014943010314e+01 
1 -2.991000774982e-01  -4.999331553807e+00  -7.572852340178e+00 
1 -3.550192508446e+01   5.283572664407e+00   3.036196267728e+00 
1  2.645572193948e+01  -4.142165321453e+01  -3.104857514090e+00 
1 -3.110242615076e+01   3.730847447849e-02  -2.055657729758e-01 
1  6.153764128820e+01  -6.763029256249e+01   2.470103264225e+01 
8
Step 28000
1 -1.167157945058e+01   6.338337468014e+00  -2.684675873853e+00 
1 -3.022899914641e-01   2.594439225426e+00  -3.767390684710e+01 
1  1.362660305908e+01  -3.042257236368e+00  -8.464525809629e+00 
1 -6.533786574225e+01   1.148152397877e+00  -2.595317521258e+01 
1 -5.717609487859e+00  -1.887740518677e+01  -2.930333816352e+00 
1  2.924618221068e+00   7.996699766473e+00   2.024940896513e+01 
1  8.574028319703e+00  -1.579443424683e+01   3.106112267688e+01 
1  4.925193705173e+01  -1.440918758608e+01   3.239570422965e-01 
8
Step 29000
1  2.780378076074e+01  -3.443335063338e+00   9.130080268263e+00 
1 -2.950738369998e+01   2.405312976380e+01   4.307280953696e+01 
1 -1.562270072281e+01  -1.979658470465e+01   1.419204913743e+01 
1 -5.162187022586e+01   1.785217823476e+01  -1.941217915350e+01 
1  2.838719487941e+01  -3.885673705720e+01  -1.088429075957e+01 
1 -9.431634508027e+00   4.062369162547e+00   7.886843637565e+00 
1  4.630270549648e+01  -4.744137139936e+01   1.316362998445e+01 
1 -3.086566762341e+01   4.558200949304e+01  -1.475299241650e+01 
8
Step 30000
1  1.521764160250e+01   1.716588534913e+01   2.840138372138e+00 
1 -3.728098260976e+01   2.063057765661e+01   5.262636360141e+01 
1 -3.641384309238e+01  -9.113057329450e+00   1.384053184549e+01 
1  1.164760375272e+01   7.309182475428e+00   1.255830444321e+01 
1  1.503962314702e+01   6.107384711821e-01  -9.120433448587e+00 
1 -8.568503563568e+00  -9.790138483189e+00  -2.187672963541e+01 
1  2.023205543462e+01  -3.340052318841e+01  -3.020444755154e+01 
1 -5.934503509985e+01   3.333346433517e+01   3.591879356478e-01 
8
Step 31000
1 -3.262467198738e+01   4.181953474669e+01  -2.437036795021e+00 
1  1.651319493194e+00  -1.435825122563e+01  -2.835582047520e+01 
1 -2.274018313119e+01   2.491696390180e-02   1.407009483025e+00 
1  4.094272144267e+01  -2.667846928992e+01   3.104384284346e+01 
1 -1.948071334589e+01   5.254427198080e+01   2.773456652852e+00 
1 -1.950878144898e+00   1.503364389612e+01  -1.484665820178e+01 
1 -3.431404909814e+01   4.235992335304e+01  -2.768045482224e+01 
1 -4.075362790303e+00  -1.115927733011e+01   1.228628349726e+01 
8
Step 32000
1 -3.367123730136e+01   1.204550769224e+01   1.706602242263e+01 
1  4.219009735984e+01  -3.511994883488e+01  -5.258016288764e+01 
1  1.033540623727e+01   3.305558655128e+00   1.290532425146e+01 
1  2.806174759715e+01  -3.026819095578e+01   1.968810835511e+01 
1 -1.662052944957e+01   4.053949384494e+01   1.169937908256e+01 
1  2.974372293537e+00   3.629621712620e+01   1.042059954273e+01 
1 -5.361336269771e+01   9.452301363244e+01   1.181873921879e+01 
1  3.376608138445e+01  -1.836606758232e+01  -1.383242817369e+01 
8
Step 33000
1  1.854196367652e+01  -5.407298639466e+01   1.348776817621e+01 
1  2.425800854930e+01  -3.148958981051e+00   2.264686942673e+01 
1  4.242942995141e+01   1.113884523902e+01   1.310821125580e+01 
1  1.040479799518e+01   2.604630317901e+01  -8.755383354657e+00 
1  1.755028213060e+01  -2.850554860470e+01   1.105288181380e+01 
1 -2.704810206003e+00   5.457440596814e+00   3.411047508768e+00 
1 -1.212804456967e+01   2.557538038960e+01   2.334296615202e+01 
1 -2.757054056126e+00   4.293935968574e+00  -3.573713197296e+01 
8
Step 34000
1  3.058647632223e+01  -4.532563081859e+01  -2.875136041257e+01 
1 -1.778224860368e+01   2.772305341299e+01   3.695500342701e+01 
1  3.857926676227e+01   5.057647324899e+00  -3.050255590224e+01 
1 -1.212964070863e+01   4.980731818213e+01  -2.198127308122e+01 
1  1.515089531247e+01  -4.566087848536e+01   3.922311815398e+00 
1 -9.295615196745e+00  -1.920298359400e+01  -7.052385218286e+00 
1  4.017564694850e+01  -7.357379332887e+01   3.005284727092e-01 
1 -1.670755273342e+01   8.690669188172e+00   1.048348381248e+01 
8
Step 35000
1  3.348626332853e+00   5.876435095108e+00  -2.618277683862e+01 
1 -8.840613851892e+00   7.338135250144e+00  -1.788723951459e+01 
1  8.763560205852e+00  -7.034045204763e+00  -3.697798063449e+01 
1 -2.684177070302e+01   2.335850703949e+00  -1.227728077428e+01 
1 -8.519792861457e+00  -5.256972644907e+00  -4.185936515475e+00 
1 -4.455322159096e-01  -4.414254558644e+00   1.205127608277e+01 
1  3.673643488883e+01  -5.494485694979e+01  -4.790022209774e+00 
1  1.940794254702e+01  -1.418170750279e+00   4.492220319802e+01 
8
Step 36000
1 -2.369938259970e+00   2.552565374259e+01   1.613658006287e+01 
1  1.466204445463e+01  -1.700649071548e+01  -3.033807692521e+01 
1 -3.111235950761e+01  -9.146761512496e-01   1.095733073062e+01 
1 -2.074147434072e+01  -4.303489633727e+01  -5.060559505091e+00 
1 -1.086586175054e+01   1.751278470791e+01  -1.696780417496e+01 
1  1.918288318971e+01  -1.543119757906e+01   2.327094399165e+01 
1  3.088716302437e+00   3.018089845524e+00   3.671057347777e+00 
1  3.466713806943e+01  -1.272613443063e+01   1.661152720016e+01 
8
Step 37000
1  5.039633739387e+00   2.029354906822e+01   3.028007060715e+01 
1 -3.385793328336e+00  -3.532168300751e+00   1.635727414912e+01 
1 -6.162094346627e+01   1.178522763185e+01   5.116849763421e+01 
1  1.462036732444e+01  -2.888822817138e+01   7.999241757195e-01 
1  3.862886914884e+00   9.545722079089e+00  -1.602165507556e+01 
1  2.132855333168e+01  -4.471274221623e+01  -1.083309962876e+01 
1 -2.299758101054e+01   2.541827376060e+01   5.081583478249e+00 
1 -1.451339454354e+01  -1.641061329421e+01  -4.915396648126e+01 
8
Step 38000
1 -9.011976830702e+00   1.365606462340e+01  -8.373925626746e+00 
1 -3.316933813240e+01   1.877096946428e+01   3.440054382034e+01 
1 -2.342152002595e+01  -6.953070202175e+00   1.207359150478e+01 
1  3.699661545695e+01   2.305035802927e+01   1.662483922097e+01 
1  5.411237764465e+00  -1.738432455930e+00   1.489424592276e+01 
1 -1.091079409150e+01  -9.015528554852e-01  -4.323879461265e+01 
1 -1.309762407602e+01   1.726435148141e+01   3.078514585027e-01 
1 -5.726322206245e+01   8.188156115761e-01  -4.768695207191e+01 
8
Step 39000
1 -2.514170194949e+01  -7.620642965417e-01  -1.944583080650e+01 
1 -1.149872308023e+01   3.456567832332e+00  -1.646449837606e+00 
1  5.242132776602e+01  -3.056894828675e+01  -3.744826619595e+01 
1  5.969160224563e+00   3.247326088666e+01   2.599536829931e+01 
1 -2.030283812099e+00  -6.998554552898e+00   2.989622258305e+01 
1 -3.350728215422e+01   7.565097327722e+01  -1.415994913025e+01 
1  3.322214844534e-01   1.539520915240e+01  -1.057400018915e+01 
1 -1.857739831782e+01   2.400665839618e+01   2.686824811006e+01 
8
Step 40000
1 -1.409910048722e+01  -2.452382614922e+01   1.703190508677e+01 
1  2.510496760781e+01  -1.857100211046e+01  -1.922281478200e+01 
1  6.455736596687e+01  -4.110944633159e-01  -1.117986043499e+01 
1 -3.322359760460e+01   1.796652363473e+00   8.215868761701e+00 
1  4.951864232226e+00  -8.586165579883e+00  -2.185233172278e+00 
1 -1.646916651026e+01   5.885615635042e+01   3.174132501795e+01 
1 -2.199702757188e+01   1.432832786128e+01  -3.035100556054e+01 
1  3.681015225363e+01   2.561531689986e+01   5.353264231437e+01 
8
Step 41000
1  1.652817834436e+01  -4.042042656110e+01   1.322287638185e+01 
1  2.246095221688e+01  -4.544940074941e+00  -3.550912422910e+00 
1  1.033363507098e+01   5.876943694451e+01   2.854146281576e+01 
1 -1.765937880181e+01  -6.245655472706e+00  -3.030969152444e+01 
1  9.470606707090e+00   1.151339060571e+01  -2.933950284417e+01 
1  1.292695417052e+01  -4.062469337808e+01   3.567367913176e+01 
1 -3.057168716651e+01  -6.454315095878e+00  -1.725744420903e+01 
1  3.453146010879e+01   5.598504336047e+00  -2.192367702038e+00 
8
Step 42000
1  3.556126299431e+01  -6.311433565743e+00  -3.829728713102e+01 
1  1.451169830850e+00   1.668612477375e+01  -1.300926979322e+00 
1 -4.511594176861e+01   2.807790143809e+01  -7.848121660736e+00 
1  3.218817775731e+01  -6.968241562233e-01  -4.011663562910e+01 
1 -1.835938471642e+01   3.467781194118e+01   2.941132379033e+00 
1  2.406872616086e+01  -8.403107877774e+01  -3.385280015950e+00 
1  4.646615929266e+01  -3.103998212193e+01   5.903262713497e+01 
1 -5.606257398394e+00  -2.523264190723e+01  -4.033446143795e+01 
8
Step 43000
1  1.707673319879e+01   2.956676794381e+01  -1.881531491226e+01 
1  6.167031494508e+00   2.660766608890e+00  -7.222718825855e+00 
1 -3.269786157460e+01  -4.390522298261e+01  -3.522545066651e+01 
1  2.230710933495e+01  -8.677943267495e+00  -1.238593347800e+00 
1 -2.420961080885e+01   4.854421327202e+00   2.329772904687e+01 
1  1.029926186766e+01  -1.373084215628e+01  -2.225817758772e+01 
1  7.340556701536e+01  -1.835398942855e+01   6.177503104597e+01 
1 -1.524151787342e+01  -2.549031228387e+01  -4.468598779999e+00 
8
Step 44000
1 -3.904340519372e+00   2.970357343303e+01   2.843333125096e+01 
1  6.798104070882e-01  -7.451951857718e+00   6.775427908920e-01 
1 -1.322029932321e+01  -3.761881930767e+01   1.952712206825e+00 
1 -1.798835645091e+01  -1.028263740749e+01   2.301374700388e+01 
1  1.238001220076e+01  -4.132750081851e+01  -1.117318297049e+01 
1  4.859871591200e+00   2.161446595531e+01  -1.024481022343e+01 
1  6.155513878784e+00  -7.603980261588e+00  -1.728051377940e+01 
1 -7.060780064950e-01  -1.263303561519e+01   1.403245516376e+01 
8
Step 45000
1 -1.937899754397e+01   8.449747662705e+00   1.997630729322e+01 
1 -3.389418497842e+01   1.891596251609e+00   9.530341283028e+00 
1  2.157536828684e+00   1.687418868904e+01   4.094476128376e+01 
1 -2.829006712954e+01   3.749666142327e+00   1.781352973053e+01 
1  4.293146251936e+01  -3.997177880487e+01  -3.618739068981e+01 
1  2.701618414533e+00   8.009460071369e+00   1.117245408594e+01 
1 -7.388353495990e+01  -4.080704446753e-01  -7.971932481519e+01 
1  9.349162182214e+00   5.200984499413e+00  -7.453113289864e-01 
8
Step 46000
1 -2.423528130811e+01  -1.648358999245e+01  -2.227201775525e+01 
1 -3.619651369084e+01   3.247937932590e+00   7.530223090092e+00 
1  2.977413569249e+01   2.800294955602e+01   1.705176691288e+01 
1  3.463548060350e+00   6.113161180891e+00   1.892866139607e+00 
1  1.040467425031e+01   2.085702253914e+01   6.799356985073e+00 
1 -1.242193075203e+01   8.055854984080e+00   1.149777058213e+01 
1 -5.792366768955e+01   2.214808232601e+01  -3.519867970840e+01 
1  1.900462615984e+00   2.362240608467e+01  -4.940166095819e+00 
8
Step 47000
1 -1.434237982994e+01  -2.880630823488e+01  -1.201635237309e+01 
1  2.546085081556e+01  -8.553450139992e+00   5.218853660213e+00 
1  3.675604808561e+01  -7.318885179196e+00  -3.099611683519e+01 
1  2.933540800018e+01  -8.471732590630e+00  -6.588054835708e+00 
1 -4.914833887530e+01   5.963134418206e+01   5.797045459741e+01 
1 -3.045928051196e+01   2.629370749793e+01  -2.283503671701e+01 
1  3.430583725404e+01   3.770254679017e+01   5.566839043523e+01 
1 -2.323969777168e+01   2.542444941104e+01   3.841117902144e+00 
8
Step 48000
1  6.165034436543e+00  -2.201536589328e+01   2.968084761234e+01 
1  7.112770500850e+01  -1.665989243069e+00   1.073989768010e+00 
1 -9.831617760886e+00  -2.999227956287e+00  -2.470107378950e+01 
1  1.598954092406e+01   2.679239728324e+00  -1.185594082399e+01 
1 -4.441884122761e+01   2.424690327557e+01   2.388487357815e+01 
1 -2.143597153984e+01   1.060580015896e+01  -3.540210936451e+01 
1  6.726364109888e+01   1.218201816552e+01   6.292949038337e+01 
1 -3.681996334390e+01   4.424568808763e+00  -8.813986833781e+00 
8
Step 49000
1  3.340392879996e+01   4.690585323101e+00   5.015018104019e+00 
1  1.970963609542e+01   1.494594867106e+01  -1.982782944798e+01 
1 -5.103290341504e+01   2.738687763567e+01   1.519812098423e+01 
1 -1.216702687731e+01   3.429560253025e+01  -1.420207450856e+01 
1  2.242581662083e+01  -2.780960016406e+01  -5.677554668446e+01 
1  2.343249524720e+01  -3.073241424300e+01   3.438152992019e+01 
1  3.663587871418e+00  -3.322767424336e+01  -5.718523378816e+00 
1  1.410189570125e+01  -2.147543228651e+01  -1.042587773915e+01 
8
Step 50000
1  3.156385706527e+01   2.380000242734e+01  -3.139237476229e+01 
1 -4.168484537382e+01   1.713742272129e+00  -1.882613169556e+01 
1 -8.936873089859e+00  -5.103163719662e+00   7.574298756805e+00 
1 -1.671576015122e+01   1.136537338127e+01  -4.858972332552e-01 
1  3.167806388080e+01  -2.187366957095e+01  -4.168310711606e+01 
1  3.675729071433e+01  -2.095851472712e+01   6.248152178627e+01 
1 -2.843659765537e+01  -2.840065947815e+01  -2.657920651677e+01 
1  5.952828780076e+01  -1.932316832731e+01   2.331309192345e+01 
8
Step 51000
1  1.080227249577e+01   2.331384296626e+01  -7.178311065815e+00 
1 -2.990145935246e+01  -8.311255236810e+00   5.991470946578e+00 
1  2.560542816709e+01  -3.534681071852e+01  -1.598306523534e+01 
1 -1.160946877212e+01  -2.534599249476e+01   7.868608717361e+00 
1  1.930934034405e+00  -8.960153869597e+00   1.030987259005e+01 
1  1.538192188216e+01   9.610021341380e-01  -3.319476252812e-01 
1  2.289318775550e+00  -9.637760759807e+00  -5.641264013315e+00 
1  3.055385136392e+01  -1.088487221643e+01   2.647881001076e+01 
8
Step 52000
1 -2.641225983087e+01   1.077492967341e+01   2.423986118685e+01 
1 -2.136594500576e-01   2.411172099416e+00   2.372044032845e+01 
1  8.802474963618e+00  -7.813018144403e+00  -1.512144265734e+00 
1 -6.624118192443e-01  -3.289396545968e+01   5.085782403450e+00 
1  6.993241699667e+00  -1.881952357002e+01   3.450758144714e+01 
1 -1.053110629961e+01  -1.545237847645e+00  -7.298154529687e+01 
1  1.734058629287e+01  -3.715457265845e+00  -4.739455097364e+00 
1 -4.256904569954e+01  -2.977250992181e+00  -2.091897736519e+01 
8
Step 53000
1 -5.000955026199e+01  -2.044020913149e+01   7.252820852285e+00 
1  1.519897806271e+01   8.355976863305e+00   6.637021070651e+00 
1 -2.205622124344e+01   4.160899094949e+01   3.673793642778e+01 
1  2.350423917348e+01  -1.175476541520e+00  -1.561031167291e+00 
1  2.283357075730e+01  -6.431290659115e+00   1.901736136680e+01 
1 -2.625035162249e+01  -4.141603008063e+00  -4.101093052440e+01 
1 -1.104274826702e+01   1.280737034357e+01  -1.033630045241e+01 
1 -6.806022476481e+01   1.589391320654e+01  -5.496743327277e+01 
8
Step 54000
1 -1.741558675020e+01  -3.725330859856e+01  -1.726888109396e+01 
1  1.426906020075e+01  -8.064487053239e+00  -1.561017068520e+01 
1 -5.723424617720e+00   1.895439678503e+01   2.193526593681e+01 
1  2.749516680443e+01   2.244483515318e+01   1.510192463192e+00 
1 -1.877438644011e+01   3.555587029106e+01  -1.414733379992e+01 
1 -1.869424310187e+01   1.423226024061e+01   5.643328685878e+01 
1 -3.059256331773e+01   3.381078177601e+01  -9.269842181533e-02 
1  4.711938213480e+00   2.482919284710e+01  -4.277896506430e+00 
8
Step 55000
1  2.937060052692e+01  -1.287577552897e+01   3.991610949132e+00 
1  3.889892335929e+00  -1.030360172192e+01  -4.383673925676e+00 
1  2.259686430166e+01  -3.254380742620e+01  -3.670961675270e+01 
1 -6.876667913614e+00   1.962748191843e+01   9.629198572708e+00 
1 -6.595188413049e+01   4.105693285897e+01  -3.067033954095e+01 
1  8.244993156865e-01   2.304984481661e+01   5.470363685765e+01 
1 -1.189187827763e+01   2.180410396257e+01   2.336181435225e+00 
1  5.600184002335e+01   6.743778942761e+00   5.433565197103e+01 
8
Step 56000
1  3.941114235859e+01   1.899472853956e+01   1.787487813741e+01 
1 -8.073841321870e+00   1.219469650639e+01   8.295149603292e+00 