8
Step 0
1 -3.472934504792e+01   2.985585161505e+01   4.552711624413e+01 
1 -3.872914153085e+01   5.183552870333e+01   2.841252880511e+01 
1  6.597310272429e+01   3.473535297890e+01   3.212630301548e+01 
1 -6.209027598665e+01   1.844554586020e+01  -3.110501871492e+01 
1 -4.675834713363e+01   3.854789838996e+01   6.659078998682e+01 
1 -1.328434623653e+01  -5.953552595268e+01  -6.135440417252e+01 
1  6.150941286889e+01  -3.705897999201e+01   2.680974576907e+01 
1  1.897523860070e+01  -3.176705575740e+00  -2.894581516525e+01 
8
Step 1000
1 -5.956401678828e+01   4.168711303024e+01   3.677697585547e+01 
1 -1.904752597403e+01   3.570912966874e+01  -1.558715989637e+01 
1  4.163337685845e+01   2.593627047520e+01   1.463765908080e+01 
1 -1.087635204922e+01   4.672648215867e+01   3.023574742187e+01 
1 -1.609837060636e+01   7.155137638443e+01   5.884592455597e+01 
1 -3.007836163196e+01  -5.268895073393e+01  -5.165330945350e+01 
1  2.049219656111e+01  -5.260374663986e+01   3.011657947624e+01 
1 -1.440883011430e+01  -6.635094527086e+01  -2.994500513425e+01 
8
Step 2000
1 -2.548709393116e+01   4.595497706253e+01  -4.985412666310e+00 
1  2.894527419431e+01  -2.797983018172e+01  -5.150352163037e+01 
1 -1.525732846460e+01  -1.596039639405e+01  -2.896194332834e+00 
1  6.264386359416e+01   2.664242856003e+01   7.726930586250e+01 
1  4.195938070473e+01   4.301052311512e+01   1.133747742644e+01 
1 -1.239160114178e+01   2.464193105052e+01  -9.649065155636e+00 
1 -1.008053616796e+01  -4.114395976791e+01  -1.884911877356e+01 
1 -4.960160922958e+01  -6.912901180971e+01  -2.400297519870e+01 
8
Step 3000
1  2.468208239332e+01   3.722765462702e+01  -1.784804507219e+01 
1  4.795130828053e+01  -5.213551948467e+01  -5.389108247891e+01 
1 -6.256344681338e+01  -3.517746666131e+01  -1.404287503679e+01 
1  7.216646249315e+01  -8.135285701383e+00   9.830212445523e+01 
1  4.148977552342e+01  -1.758691832016e+01  -3.363154031108e+01 
1  2.936247594608e+01   8.979477836340e+01   1.011618349841e+00 
1 -2.671862470457e+01   6.326944870212e-01  -4.485797292272e+01 
1 -5.366174003150e+01  -1.939641622481e+01  -1.518898246315e+00 
8
Step 4000
1  4.466244422387e+01   8.099919443949e+00   1.522143930891e+01 
1  2.276706148633e+01  -1.336329769206e+01  -3.295100530599e+01 
1 -7.154700399648e+01  -1.518801048893e+01  -1.572811922702e+01 
1  1.559722045440e+01  -1.263490579933e+01   8.672575056498e+01 
1 -1.782523743271e+01  -5.272501964025e+01  -3.808630719471e+01 
1  5.931685786626e+01   8.085191007410e+01  -2.340203443205e+01 
1 -4.260764436137e+01   4.012023993725e+01  -9.689772680574e+00 
1 -1.857901994485e+01   1.318176264714e+01   2.641646711105e+01 
8
Step 5000
1  3.501913752667e+01  -3.724022638015e+01   5.316279318108e+01 
1 -5.987861411941e+00   2.964435214122e+01  -2.186555977893e+01 
1 -4.991380181044e+01   1.024066115472e+01  -1.430333011679e+01 
1 -3.564035306855e+01   1.118874368309e+01   4.317536272785e+01 
1 -6.049536590456e+01  -3.973810936420e+01  -1.081715056575e+01 
1  5.268411557812e+01   2.008746193723e+01  -3.051111697926e+01 
1 -5.537046080025e+01   4.278806688666e+01   4.654162062947e+01 
1  2.932138158458e+01  -7.405166752937e+00   3.153352110397e+01 
8
Step 6000
1  2.080005268855e+01  -7.148769530097e+01   4.958682992740e+01 
1 -5.330468981075e+00   2.473959005380e+01  -3.113712584782e+01 
1 -2.074482361080e+01   1.050101306068e+01  -2.147785343412e+01 
1 -3.042363369377e+01   2.472952120207e+01  -1.298079784163e+01 
1 -3.434137004558e+01  -4.940480490271e+00   8.950473243500e+00 
1  1.055204006067e+01  -2.407513908975e+01   9.044752297234e+00 
1 -4.557679954105e+01   9.279095378790e+00   6.167266579968e+01 
1  5.231387668252e+01  -4.178389925835e+01   3.513830815769e+00 
8
Step 7000
1  1.128757692393e+01  -6.226104051715e+01   3.658950405674e+00 
1  7.769790516046e+00  -7.130521133675e+00  -3.431848352825e+01 
1  3.747742607441e+00  -4.807674798154e+00  -3.598560525467e+01 
1  4.247763930940e+00   4.005610081308e+00  -4.975906565323e+01 
1  2.878527514574e+01   1.233789016397e+01   3.099414372612e+00 
1 -4.307521877909e+01  -1.752991445777e+01   5.814479660744e+01 
1 -5.514312368617e+00  -2.599286399343e+01   2.499981429987e+01 
1  3.480361546199e+01  -2.993451045369e+01  -2.997389948631e+01 
8
Step 8000
1 -3.402762149480e+00  -9.268853147292e+00  -4.324002481267e+01 
1 -1.254740100089e+00  -1.069227852235e+01  -3.425048117625e+00 
1  2.565281627635e+01  -5.159458923426e+00  -3.751828934609e+01 
1  7.492812392973e+00  -3.107273651153e+01  -5.142306772827e+01 
1  5.615668829090e+01   1.298526659682e+00  -7.422468909642e+00 
1 -7.498744668038e+01   5.819790627556e+00   6.006883312646e+01 
1  4.132617821977e+01  -3.173347842149e+01  -1.633453434948e+01 
1 -3.035039216306e+00   2.842131418808e+01  -3.120915680427e+01 
8
Step 9000
1 -2.478317434554e+01   4.544920496495e+01  -5.532897035382e+01 
1 -2.920701723016e+01   1.935156154654e+01   4.840781540102e+01 
1  4.447554685967e+01   1.707692686332e+01  -8.784349455537e+00 
1 -2.931566402676e+01  -4.422442866445e+01  -3.603901529285e+01 
1  2.203201320873e+01  -1.458502074520e+01   5.690346455410e-01 
1 -6.308213820095e+01  -6.788422993140e+00   1.275462771062e+01 
1  5.960904789429e+01  -9.268919160583e+00  -2.066912841980e+01 
1 -2.682692708559e+01   7.131729205900e+01   1.402772429444e+00 
8
Step 10000
1 -3.574638953082e+01   5.543772968124e+01  -3.677896546657e+01 
1 -3.713788444351e+01   3.113719449252e+01   7.608242481672e+01 
1  4.908129378401e+01   3.615899920420e+01   3.802245404181e+01 
1 -5.334692657504e+01  -2.657561612338e+01  -3.074212368917e+01 
1 -2.904850054202e+01  -9.024846855503e+00   1.587045632212e+01 
1 -1.468288568335e+01  -5.595160342295e+01  -2.998815900150e+01 
1  3.859307082697e+01   1.640836398628e+01  -7.634624999875e-01 
1 -2.224039528027e+01   5.211079450691e+01   3.051689261893e+01 
8
Step 11000
1 -2.566125420765e+01   1.730138303419e+01  -1.526781455457e+01 
1 -5.357037397917e+00  -6.840340410817e+00   5.468858647371e+01 
1  3.121295049757e+01   2.647097327201e+01   6.617437423402e+01 
1 -2.595124504716e+01   8.691239321232e-01  -3.499814632263e+01 
1 -4.156982459425e+01   1.690356476209e+01   9.457121604069e+00 
1  3.554665087762e+01  -8.882056968641e+01  -2.818158810969e+01 
1  2.259654864469e+00   2.524948041027e+01   2.173049787961e+00 
1 -5.042641166429e+00  -4.928835497862e+00   2.593276054563e+01 
8
Step 12000
1 -8.877496417607e+00  -2.610864905841e+01  -4.589800407389e+00 
1  3.404316689373e+01  -5.495955160683e+01   7.407142303478e+00 
1  2.876467518586e-01  -8.547592304635e+00   5.243925976362e+01 
1  2.482027693462e+01   1.913195275280e+01  -2.315452986277e+01 
1 -9.792997792749e+00   3.668184347216e+01  -2.007972554409e+01 
1  5.446489977789e+01  -6.079210876565e+01  -1.030185058420e+00 
1 -1.800665943216e+01   1.569026167906e+01  -2.180699970293e+01 
1  1.002793480169e+00  -3.795952270905e+01   5.964024174458e-02 
8
Step 13000
1 -5.265136358406e+00  -3.215256677641e+01   5.168464068879e+00 
1  3.493481157953e+01  -5.025513952261e+01  -2.282236453850e+01 
1 -2.031825261961e+01  -4.125042080295e+01   1.208847448601e+01 
1  4.371349666066e+01   2.887964546932e+01   1.420511482571e+01 
1  2.614235987526e+01   2.735191278009e+01  -3.789739589181e+01 
1  3.675897295153e+01   1.399064049210e+01   7.960789872129e+00 
1 -1.530208687311e+01  -2.273154873843e+00  -3.838746471432e+01 
1 -8.384586955685e+00  -2.135566472344e+01  -1.150341517788e+01 
8
Step 14000
1 -1.020766936323e+01  -2.311751043984e+00   2.400448780473e+01 
1 -1.627848882829e+00   1.093978990348e+01  -2.247269369291e+01 
1 -1.860309270620e+01  -4.656982613912e+01  -1.896380048223e+01 
1  2.151413556649e+01   3.540509989823e+01   4.871307735145e+01 
1  3.174030071778e+01  -4.454966766073e+00  -1.634858061784e+01 
1  5.551137977827e+00   7.634617260793e+01  -9.818729721846e+00 
1 -8.066292798441e+00  -1.716680517568e+01  -1.765842214727e+01 
1 -1.627757365218e+01   1.270251829431e+01   2.239754875314e+00 
8
Step 15000
1  7.620717741528e-01   2.475159876025e+01   4.115791930725e+01 
1 -2.844344484475e+01   6.436964641611e+01  -1.509450930796e+01 
1 -7.639037116872e+00  -2.192841290804e+01  -2.270350198131e+01 
1  1.359105577591e+00   3.084069242870e+01   4.731864031648e+01 
1  1.126891417614e+01  -2.704361422121e+01   2.694045025500e+01 
1 -1.302554057277e+01   8.287022712662e+01  -2.470487228850e+01 
1 -1.268594431329e+01  -1.987961726685e+01   2.323167238004e+01 
1 -7.576332363296e+00   2.228350660941e+01   1.498828551416e+01 
8
Step 16000
1  3.460611008340e+01   1.857228792438e+01   3.738620461347e+01 
1 -1.393735625980e+01   5.468192684948e+01  -2.177142050400e+01 
1 -8.983026568542e+00   1.395716749960e+01  -1.371876306268e+01 
1  1.464065489465e+01   3.639730668547e+00   1.719550367957e+01 
1 -7.156731416285e+00  -1.719042525710e+01   4.663174099058e+01 
1 -1.177341320412e+01   4.596016216933e+01  -1.608613837955e+01 
1 -2.294879418096e+01  -7.723693821480e+00   4.009354850809e+01 
1  1.293970266157e+01   3.581767299430e+00   5.676083366104e-01 
8
Step 17000
1  6.194113926570e+01  -1.168942916079e+01   1.134565753277e+01 
1  1.925395988990e+01  -1.434692646374e+00  -3.038813022394e+01 
1 -2.329750087927e+01   3.651154699754e+01  -1.618068611545e+01 
1  3.557370523536e+01  -3.548792992078e+01  -1.276992118579e+00 
1 -7.452096319141e+00   1.249490268855e+01   2.228894900280e+01 
1 -1.291279734412e+00   9.816523968695e+00   2.441229306350e+00 
1 -1.913083052119e+01   9.871703212825e+00   1.655091917979e+01 
1  2.763450157706e+01  -1.713330130789e+01  -2.994367516806e+01 
8
Step 18000
1  4.726576712338e+01  -3.073578066668e+01  -1.634172087422e+01 
1  2.649460786872e+01  -3.954701814455e+01  -1.553414847597e+01 
1 -2.749144347226e+01   3.238156780725e+01  -3.367437595389e+01 
1  1.727879675596e+01  -5.135683837830e+01   1.283052471036e+01 
1  5.053016322484e-02   2.555033644570e+01  -1.570593903196e+01 
1  5.648223767583e+00  -2.846247829454e+00   9.773569545224e+00 
1  5.504973146631e+00   1.510177767436e+01  -1.658717805201e+01 
1  2.622794093786e+01  -2.346151159686e+01  -3.978673140000e+01 
8
Step 19000
1 -6.959491618072e+00  -1.679309046593e+01  -2.534733829492e+01 
1  4.293220275416e-01  -2.608246224801e+01   1.862254960260e+01 
1 -6.416285922860e+00   9.715196686895e+00  -4.429969958291e+01 
1 -3.871784871081e+01  -2.217249723955e+01   3.070447493945e+01 
1 -1.448956996709e+00   3.738364938603e+00  -2.402215715462e+01 
1  4.646295723772e+00  -9.332222827226e+00   1.035758288648e+01 
1  3.211072229269e+01   9.344469128073e-01  -2.149704053660e+01 
1  1.480507870214e+01  -2.416120625353e+01  -1.320006740317e+01 
8
Step 20000
1 -5.790796641245e+01   1.683200650985e+01  -1.579353023903e+01 
1 -2.183754185204e+01   7.070826311320e+00   3.460274911682e+01 
1  2.383171242782e+01  -8.245052150827e+00  -2.484573531272e+01 
1 -7.523518949759e+01   2.800279019733e+01   1.164442540228e+01 
1 -1.226860154522e+01  -3.026418375746e+01  -7.789850227500e-01 
1 -2.158118837911e+00  -3.100027252385e+01   2.120375391856e+01 
1  3.344150207580e+01  -1.576464953689e+01   4.009678846524e-01 
1  3.839167686810e+00  -2.818971031611e+01   2.302180659130e+01 
8
Step 21000
1 -6.696337125080e+01   3.715987483830e+01  -5.682311407448e+00 
1 -1.110384052368e+01   1.038015511405e+01   8.995139207306e+00 
1  3.267874994150e+01  -6.439460871926e+00   2.140187485692e+01 
1 -4.803925057959e+01   4.899047961360e+01  -3.781212986422e+01 
1 -1.689707878932e+01  -3.794253169366e+01   1.352522928574e+01 
1 -1.093393953414e+01  -5.680320127367e+01   3.720461514859e+01 
1  4.544371813468e+00  -1.013821017486e+01   1.491856910286e+01 
1 -6.160459488056e+00  -2.340121963942e+01   3.151665104898e+01 
8
Step 22000
1 -3.812423895904e+01   2.550839313329e+01  -8.510840255588e+00 
1  1.457439039671e+01  -1.863365077410e+01  -2.989913534785e+01 
1  1.414000434820e+01   3.742764645412e+00   6.420474613332e+01 
1  1.436718229266e+01   2.027862713314e+01  -6.671432372592e+01 
1 -4.008495089205e+00  -1.047172455443e+01  -9.130213609775e+00 
1 -1.642794676514e+01  -5.626594630671e+01   3.234209993486e+01 
1 -2.776836825744e+01   1.792105044147e+01   3.760635484665e+00 
1 -2.113048326624e+01   7.144891869567e+00   1.052981590311e+01 
8
Step 23000
1 -4.477723946126e+00  -7.913170716991e+00  -1.761032947986e+01 
1  1.675288352863e+01  -3.692795586152e+01  -2.940671922570e+01 
1 -3.716560155678e+00  -3.039222064235e+00   7.234780139901e+01 
1  4.117485294964e+01  -2.438863576635e+01  -4.435127207394e+01 
1  1.876889730262e+01   2.145831428132e+01  -4.343066418361e+01 
1 -1.316959056671e+01  -2.044498979147e+01  -3.470191092261e+00 
1 -3.047402006674e+01   3.595997422393e+01  -1.152152009303e+01 
1 -3.810789812464e+01   5.280915692511e+01  -5.647808075396e+00 
8
Step 24000
1  1.332974566184e+01  -3.883087041808e+01  -1.540317928595e+01 
1 -8.696043566927e+00  -1.389492278590e+01   1.968928939187e+01 
1  3.506574534640e+00  -3.111538076820e+01   4.043023105408e+01 
1  7.874164252088e+00  -3.471491991808e+01  -3.577293861108e+00 
1  3.204564582992e+01   2.562952724821e+01  -3.966980584706e+01 
1 -2.016285680263e+00   2.260247168671e+01  -4.051532728867e+01 
1 -5.465006240997e-01   1.502788048644e+01  -2.461488328213e+00 
1 -4.174771046962e+01   7.498979199278e+01   7.279040724890e+00 
8
Step 25000
1  2.135072898946e+01  -4.843338854977e+01   3.057986022092e+00 
1 -2.506557587221e+01   2.881966331525e+01   6.316364723251e+01 
1  2.087443280557e+01  -4.954724785617e+01  -9.070970603107e+00 
1 -3.067431803184e+01  -3.114187323466e+00   2.292529194627e+00 
1  2.193836951976e+01   9.127565596969e+00   1.001862554459e+01 
1  9.607275006045e+00   3.880696636007e+01  -3.863359802502e+01 
1  2.961572402920e+01  -3.012494480438e+01   2.228370942974e+01 
1 -2.101039636821e+01   4.709827345698e+01   2.977985302103e+01 
8
Step 26000
1  2.989149324787e+01  -3.142600901962e+01   2.184026327036e+01 
1 -7.428034683385e+00   4.620192018822e+01   4.527251927815e+01 
1  1.297015610426e+01  -2.472016712127e+01  -4.523474510599e+01 
1 -1.064111690097e+01   2.577223090428e+01  -2.255937445944e+01 
1 -8.533588154794e+00   6.957352599634e+00   5.449494211544e+01 
1  1.610241222891e+01   2.604399088031e+01  -1.437790474612e-03 
1  2.730975815719e+01  -5.098810206694e+01   2.564172010092e+01 
1  1.336021747400e+01  -1.132454340855e+01   2.304047901847e+01 
8
Step 27000
1  3.299451562091e+01   4.715265917284e+00   2.329187217635e+01 
1  2.140896109513e+01   2.598478642062e+01  -1.971668035492e+01 
1 -2.441296541951e+01   3.126873238102e+01  -5.161497188568e+01 
1  5.585461064376e+01   1.330552513818e+01  -1.877507598236e+01 
1 -3.989300835704e+01   2.858276621424e+01   4.605308883318e+01 
1  1.981423976390e+01   1.059811933096e+01   2.792932407445e+01 
1 -3.769302179561e+00  -2.163649171716e+01  -5.230480569647e+00 
1  3.615817001850e+01  -5.067192091289e+01  -1.750750961877e+01 
8
Step 28000
1  2.233893663698e+01   4.160065004665e+01   9.565395781640e+00 
1  2.103148618203e+01  -3.042725138890e+00  -5.889973845710e+01 
1 -5.039581398015e+01   6.258804087759e+01  -3.522141329750e+01 
1  9.046141375318e+01  -2.045489208562e+01   3.937756596154e+01 
1 -4.827455368659e+01   3.762483806008e+01   7.405979360870e-01 
1  2.539088966694e+01   1.021552347005e+01   1.122330568746e+01 
1 -2.881688684606e+01   2.649828467301e+01  -3.648486245157e+01 
1  3.459820984012e+01  -4.151131144432e+01  -5.079354837930e+01 
8
Step 29000
1  9.218972231875e+00   5.532362637339e+01   7.569484283608e-02 
1 -1.027841402931e+01  -1.210344031599e+01  -3.173887746311e+01 
1 -3.211453596013e+01   3.436011304193e+01  -1.572889254485e+01 
1  4.611927263428e+01  -2.355755305880e+01   9.610733194434e+01 
1 -2.449165170506e+01   3.217894546306e-01  -2.461502073265e+01 
1  2.686446029580e+01   1.593672678758e+01  -2.626382927751e+01 
1 -2.364330545545e+01   4.027849734817e+01  -3.143774608078e+01 
1  2.189866498355e+01  -3.591416522249e+00  -3.989066725119e+01 
8
Step 30000
1  1.014954521625e+01   3.310570469482e+01   6.219598657149e+00 
1 -3.253819105380e+01  -6.911490592236e+00   2.061366923915e+01 
1  8.404261312310e+00  -2.080531203663e+01  -4.186448005049e+00 
1 -3.513961630501e+01   1.744127893217e+01   8.243966148492e+01 
1  1.646516337274e+01  -5.880627002522e+01  -8.202731370465e+00 
1  9.969509056542e+00   1.297261794206e+01  -3.563340824198e+01 
1 -2.603245864523e-01   8.117792456063e+00   1.776153782032e-01 
1  1.749568918765e+01   1.869362679871e+01   2.006060496249e+00 
8
Step 31000
1  1.670007672048e+01  -8.592794100950e+00   1.611844677329e+01 
1 -1.847167529196e+01  -1.187660427093e+01   2.991076432154e+01 
1  2.135278888356e+01  -3.766651227544e+01   6.063278023544e+00 
1 -7.161851268066e+01   5.605713988806e+01   9.747845924565e+00 
1  4.551468473436e+01  -7.567689172603e+01   1.382922478604e+01 
1 -2.646483173228e+01   4.188171953566e+00  -7.240818231285e+00 
1  1.241731848133e+01  -2.764266860336e+01   1.607337288585e+01 
1  2.006771996822e+01   1.935278691076e+00   2.701549850842e+01 
8
Step 32000
1  2.321983058286e+00  -3.245614416672e+01   1.108445262683e+01 
1  1.164375398182e+01  -3.175402853805e+01  -1.418813199472e+01 
1 -3.343689131965e+00   1.371379305979e+00   2.715565731875e+01 
1 -3.908984989734e+01   4.143632769084e+01  -4.283090074068e+01 
1  4.453155335498e+01  -2.601513063334e+01   4.964989357699e+00 
1 -5.678405757483e+01   1.563299106049e+00   2.137901234914e+01 
1  6.398203184794e+00  -2.444401464882e+01   1.427066717240e+00 
1  9.543928603059e+00  -3.494354527535e+01   1.141288700615e+01 
8
Step 33000
1 -3.467352824658e+01  -1.726631189692e+01  -7.411623784732e+00 
1  2.253727524096e+01  -4.376204260407e+01  -5.706342607000e+01 
1 -2.161520634682e+01   4.332241946302e+01   5.281699170715e+01 
1  9.378882623021e+00  -1.664146862534e+01  -3.306039032150e+01 
1  2.144862422053e+01   4.028372721838e+01  -1.964459247938e+01 
1 -5.184040120988e+01   3.282139368339e+00   2.112658547910e+01 
1 -8.077100676941e-01   1.009938015278e+01  -1.216156134321e+01 
1 -2.233756237104e+01  -5.221315957560e+01  -1.798713228689e+01 
8
Step 34000
1 -5.691074561621e+01   1.635679592866e+01  -1.996094060928e+01 
1  1.088885650613e+01  -2.706685434417e+01  -4.955152286817e+01 
1  2.004732158208e+00   3.113974809053e+01   5.685396401439e+01 
1  1.728178876314e+01  -5.751810870345e+01  -2.727032940032e+00 
1 -2.091336898206e+00   5.720165907404e+01  -2.220050002355e+01 
1 -1.542292426321e+01  -3.499578640766e+00   6.366525228766e+00 
1  4.830081658850e+00   3.390308017278e+01   4.202312629263e+00 
1 -5.402900341535e+01  -2.794175930386e+01  -2.046260979733e+01 
8
Step 35000
1 -3.335883456050e+01   2.745083080693e+01  -1.699140319345e+01 
1  2.445349361979e+00   9.609452654758e+00  -2.039956605038e+00 
1  4.148415237058e+01  -2.293096590681e+01   2.215390977275e+01 
1 -1.041464122619e+01  -4.213758953280e+01  -7.493094391116e+00 
1 -1.543653362503e+01   2.055079719924e+01  -2.751814694757e+00 
1  1.817943023387e+01  -2.170280058751e+01   6.871244478863e+00 
1  1.436811073823e+01   2.391567534154e+01   3.273712173833e+01 
1 -5.480135926219e+01   2.219761929706e+01   9.523350098781e+00 
8
Step 36000
1  1.726627652613e+01  -1.957161462012e+00  -8.677673325612e+00 
1  1.218337511209e+01   3.771238432800e+01   3.506941861905e+01 
1  4.338586752470e+01  -5.520306749828e+01  -2.928160919704e+01 
1 -2.738730033731e+01   6.269508340248e+00  -3.941927022118e+01 
1 -2.252522682636e+01  -1.664071095313e+01   3.923215056868e+00 
1  1.986016900670e+01  -3.671044832932e+01   2.061413082766e+01 
1  1.056300309492e+01  -4.007391294780e+00   3.303678132567e+01 
1 -1.818574348137e+01   5.891349672157e+01   4.055897306888e+01 
8
Step 37000
1  4.291074448740e+01  -4.583144489631e+01  -1.007306419722e+01 
1  2.510233364700e+01   3.911578247779e+01   3.269583586081e+01 
1 -1.291368751021e+00  -3.215427462116e+01  -4.955043949768e+01 
1 -8.608897289997e+00   3.464410391769e+01  -4.704804479783e+01 
1 -2.819761019292e+01  -1.584660735861e+01  -1.536324580944e+01 
1 -1.002242328780e+00  -3.327454824878e+01   1.718412574838e+01 
1 -6.046854251551e+00  -2.193090273832e+01  -1.070963708464e+00 
1  2.857534702809e+01   5.400022754103e+01   4.148238651890e+01 
8
Step 38000
1  1.741629474907e+01  -5.775107642111e+01  -1.963839450288e+01 
1  1.729331566342e+01   2.017895093764e+01   7.664279078650e+00 
1 -4.278968995486e+01   1.144704701866e+01  -1.747183405982e+01 
1  2.481016371702e+01   2.083784388054e+01  -1.323914035672e+01 
1 -2.701070361396e+01   3.756670098813e+00  -2.824283015135e+01 
1 -8.498965298600e+00  -1.439861728065e+01  -1.384342737431e+01 
1 -1.756096635982e+01  -2.150824619376e+01  -3.111514172104e+01 
1  4.921728190783e+01   1.601861078511e+01   1.182863960076e+01 
8
Step 39000
1 -2.957650545137e+01  -1.795830853309e+01  -1.918974588150e+01 
1 -1.266522417934e+01   1.648058690059e-01  -6.202763481517e+00 
1 -3.363267097799e+01   2.222630911310e+01   3.140991356373e+01 
1  3.793363709243e+01  -9.206236536758e+00   2.187955107320e+01 
1 -1.059291910891e+01   7.748210826241e-01  -1.087425582181e+00 
1  1.328074358430e+01   4.239551656687e+00  -4.195086307822e+01 
1 -1.256404391694e+01  -1.408030335311e+01  -2.295439418296e+01 
1  3.000280444878e+01  -1.697144185346e+01  -2.257462297633e+01 
8
Step 40000
1 -4.599412704378e+01   4.220697797476e+01   1.894760844284e+00 
1 -4.024378590238e+01  -9.302953780506e+00   4.022420317636e+00 
1  1.208803525439e+01  -2.381137164466e+00   4.003560121198e+01 
1  2.246089193134e+01  -1.896108544665e+01   2.062236250211e+01 
1  1.591165489116e+01  -2.662394258163e+01   4.778379594184e+01 
1  3.708541682999e+01   1.528709989500e+01  -3.395273051412e+01 
1 -1.206128037997e+00  -9.125618555091e+00   8.449863927860e+00 
1 -8.455655334050e+00  -1.547936700203e+01  -3.688190050995e+01 
8
Step 41000
1 -1.545633007842e+01   6.922217645976e+01   2.936970232394e+01 
1 -4.235637578386e+01  -1.324305748744e+01   2.364700910224e+01 
1  3.710490850703e+01  -1.596963035071e+01  -3.156130116817e+00 
1  1.768346688096e-01  -4.340648681970e+00   2.375995930939e+00 
1  3.281791619930e+01  -3.529633411769e+01   6.250979030171e+01 
1  2.561189628166e+01   2.651106987657e+01  -2.488777223105e-01 
1  2.427163018530e-01  -3.639644012362e+00   1.822061402119e+01 
1 -3.037836006284e+01   8.526603718019e+00  -2.753524010143e+01 
8
Step 42000
1  2.919141812870e+01   4.006734358250e+01   3.931328144577e+01 
1 -2.145677263384e+01  -2.144157236134e+01   3.151856035238e+01 
1  1.454865849753e+01   7.746572138009e+00  -4.925607643295e+01 
1 -5.489433701376e+00   9.071729668533e+00   1.226179675609e+01 
1  2.450223173782e+01   3.058742517262e+00   1.899892547526e+01 
1 -1.776330309077e+01   4.231301808367e+01   1.758827449568e+01 
1 -7.368205478223e+00   8.937181940877e+00  -8.811855500912e+00 
1 -1.666627137856e+01   1.458031630907e+01  -8.799842984926e+00 
8
Step 43000
1  4.755660817049e+01  -1.576405518396e+01   2.511785334393e+01 
1  2.106495360832e+00  -3.127799298677e+01   1.918624773667e+01 
1 -2.018668968082e+01   3.628031496913e+01  -4.567150654971e+01 
1  5.012877412649e+00   4.109498170245e+00   4.981222314608e+01 
1 -2.927915341876e+00   5.638871751658e+01  -4.079326530773e+01 
1 -4.645894990206e+01   4.818021805889e+01   2.561469324318e+00 
1 -7.657682678075e+00   2.619386878989e+01  -3.650241708253e+01 
1  1.887092844300e+01  -1.754428584479e+01   4.488447850231e+00 
8
Step 44000
1  3.444155583457e+01  -4.625302278674e+01   4.212788828119e+00 
1  1.559310225465e+01  -2.825896948806e+01  -6.089286956037e+00 
1 -2.095199699602e+01   2.506461783356e+01   7.981150034690e-01 
1  1.024483911435e+01  -5.831405815955e+00   6.258572122171e+01 
1 -2.481633243619e+01   6.544903937726e+01  -5.695445612560e+01 
1 -2.565218941186e+01   2.646118447017e+01  -1.453279498887e+01 
1  6.969359151993e+00   3.688800452362e+01  -2.436094869623e+01 
1  4.127107882187e+01  -5.874609703243e+01   9.419544844946e+00 
8
Step 45000
1  1.309742585086e+01  -2.938524423687e+01  -3.691500778472e+00 
1  2.178421883040e+01  -2.902645575906e+00  -3.185209131702e+01 
1  6.492252040930e+00  -1.699146535050e+01   3.497758480671e+01 
1 -4.698694937443e+00   2.249305463142e+00   1.966368435995e+01 
1 -2.020795834435e+01   1.685107288062e+01  -2.256834392449e+01 
1  2.264735885406e+01  -1.461988979417e+01   2.503238937930e-01 
1  2.231902419996e+01   3.092068761069e+01   1.805712984097e+01 
1  2.595550873323e+01  -6.169159329540e+01   1.208821308884e+01 
8
Step 46000
1 -1.043267798705e+00   9.060494870914e+00   8.201437972278e-01 
1  2.520382153467e+01   3.396607285561e+01  -4.766712122315e+01 
1  1.815072644701e+01  -3.762574583619e+01   2.237448550707e+01 
1 -3.015568480650e+01   2.663096856300e+01  -3.962736180946e+01 
1  9.809818865360e+00  -4.000663788341e+01   1.485015933649e+01 
1  4.360708877133e+01  -4.115515800540e+01   3.361998209846e+01 
1  1.999264958766e+01   7.488634217981e+00   4.279542381090e+01 
1 -1.829648711239e+01  -1.672497671810e+01   1.496141552078e+01 
8
Step 47000
1 -1.290693775601e+01   2.622144716648e+01   8.814151598384e-01 
1  2.430450931713e+01   5.502757490689e+01  -4.799309560002e+01 
1 -3.540442043993e+00  -1.185424652930e+01  -9.652365474848e+00 
1 -4.256557424047e+01   3.843868369842e+01  -5.550376196546e+01 
1  4.173658952376e+01  -5.290411509682e+01   1.757618306250e+01 
1  1.567768996621e+01  -3.245935824325e+01   4.105415341717e+01 
1  2.885211030260e+00  -2.215709835921e+01   2.561707370193e+01 
1 -5.435847226430e+01   3.475249491976e+01   1.202839394432e+01 
8
Step 48000
1 -2.847958223101e+01   7.658951017897e+00  -1.060413630705e+01 
1  1.670977560376e+01   4.255140952945e+01  -3.377360932951e+01 
1 -2.604384429714e+01   2.322446409448e+01  -1.272898891720e+01 
1 -2.886826517191e+01   1.602145138119e+01  -2.890446794548e+01 
1  4.812618004796e+01  -2.489950260036e+01   1.207690108332e+00 
1 -2.623955529836e+01  -8.322906049080e+00   8.880157464911e+00 
1 -8.354867432045e+00  -4.009936947190e+01  -5.537040867704e+00 
1 -4.989580798381e+01   4.977497806333e+01  -1.459787349542e+00 
8
Step 49000
1 -3.929052629544e+01  -2.285968615365e+01  -2.077241158888e+01 
1  4.383425908625e+00   5.918007432845e+00  -9.368073193221e+00 
1 -1.443289121891e+01   1.905443602740e+01   1.783492903813e+01 
1  9.320574082707e-01  -2.662121072962e+01  -1.576349100074e+01 
1  1.883396496412e+01   2.252273313390e+00   2.118214911869e+00 
1 -3.729608121099e+01  -3.641683467597e+00  -2.619219491822e+01 
1 -3.239192552097e+00  -3.331406052277e+01  -1.118291254392e+01 
1 -6.978519405118e+00   2.991120511073e+01  -1.739739763901e+01 
8
Step 50000
1 -3.341764723012e+01  -3.149372492198e+01  -1.709496102139e+01 
1 -9.878145471529e+00  -2.648403705602e+01   2.142704420393e+01 
1  2.067120956503e+01  -1.852423665286e+01   3.898586654930e+01 
1  2.137464524374e+01  -5.240060094750e+01  -4.522073370974e+01 
1 -2.775995270394e+01   4.283630174839e+00   2.442406510569e+01 
1 -1.460657756524e+01  -2.362204893220e+01  -2.456921986154e+01 
1  4.788272056790e+00  -7.322888073742e+00   8.008771543169e+00 
1  3.819736119632e+01   9.822871049238e+00  -1.862937764663e+01 
8
Step 51000
1 -1.386904573706e+01  -9.640381272507e+00  -7.306528685051e+00 
1 -2.473414282735e+01  -3.357929939851e+01   5.370791935343e+01 
1  3.792377143417e+01  -3.726467154923e+01   1.796882770161e+01 
1  1.796753897233e+01  -4.232487516434e+01  -7.235520357036e+01 
1 -5.826691944682e+01  -2.337002812344e+00   3.505799784507e+01 
1  8.149731593427e+00  -3.638423600375e+01   5.150652326111e+00 
1 -2.486849119328e+00   1.431058763389e+01   1.573096821695e+01 
1  4.888668559010e+01   9.107565017754e+00   1.321352555688e+00 
8
Step 52000
1  6.034099137146e+00   2.075718436460e+01  -8.497715479260e+00 
1 -3.575653685351e+01  -1.976457608567e+01   7.546115414262e+01 
1  2.129363648548e+01  -1.092836275237e+01  -2.583969689857e+01 
1  2.710256090868e+00  -1.157084629033e+01  -3.625497403118e+01 
1 -5.180616168986e+01   4.859871089494e+00   9.810587977896e+00 
1  9.367416428388e+00  -1.445474146202e+01   2.117827939817e+01 
1 -2.134424199103e+01   1.293497307943e+01  -7.554840770472e+00 
1  2.007937995651e+01   1.375564981637e+01   2.546173253175e+01 
8
Step 53000
1  2.065260237363e+01   3.275439138340e+01  -2.093727994276e+01 
1 -3.236633699483e+01  -5.901300556423e+00   6.951464741082e+01 
1 -1.067908823290e+00   2.454426243684e+01  -4.526144408683e+01 
1 -3.549474945095e+00   1.584810598423e+01   5.070521241861e+01 
1 -1.689664965880e+01   1.799603899987e+01  -3.062638789570e+01 
1  3.382802033275e+00   2.987069528358e+01   3.311058540182e+00 
1 -2.868688414858e+01  -3.130669278851e+00  -3.699350680885e+01 
1 -1.990763323873e+01   4.317876551626e+00   2.734565738978e+01 
8
Step 54000
1  3.301250671924e+01   1.971689177469e+01  -2.325260374895e+01 
1 -7.352406566388e+00  -6.021661885420e+00   2.955362271924e+01 
1  7.486066894316e-01   2.079444510042e+01  -2.132337035083e+01 
1  2.570174642679e+00   3.260735990184e+01   1.043438962346e+02 
1  1.722551844551e+01   1.386684079794e+01  -4.254078456595e+01 
1  1.268744263550e+01   5.763473953122e+01  -2.390432334334e+01 
1 -1.087817033845e+01  -6.395536769584e+00  -3.479459593971e+01 
1 -3.654689369407e+01  -1.444683088074e+01   5.841830992747e-01 
8
Step 55000
1  4.197507433364e+01  -3.357176016999e+00   2.896148615730e+00 
1  2.820132163322e+01  -1.405255172576e+01  -2.742959396103e+01 
1  1.435635798176e+01  -1.332922925283e+01   1.596976570941e+01 
1  5.341992697319e+00   4.508363386465e+01   7.059123223486e+01 
1  2.887137874258e+01  -7.137560508182e+00  -1.501164799691e+01 
1  3.044619682821e+01   4.847829723169e+01  -2.621687121239e+01 
1  1.818817748926e+01   1.423268536158e+01   5.665328239851e-01 
1 -2.018737729181e+01  -2.360732242717e+01  -2.937688714529e+01 
8
Step 56000
1  3.645972716275e+01  -1.820099317040e+01   4.649127106630e+01 
1  4.758708431749e+01  -1.301500906148e+01  -7.086625430335e+01 