8
Step 0
1 -4.335052367192e+01   6.226770353478e+01  -1.571831079641e+01 
1 -4.197517804778e+01   5.557624918835e+01   6.050689884240e+01 
1  4.062082842113e+01  -6.869837660098e+01  -6.406602060552e+00 
1  3.202042668263e+01  -9.333787405458e+00   7.585091136361e+01 
1  2.169421302650e+01  -5.304981751903e-01  -3.452327492586e+01 
1  2.479565131470e+00   3.727202342153e+01  -7.541307749490e+01 
1  3.539535683763e+01   1.835259957186e+01  -5.811004072382e+01 
1  1.040422054410e+01   7.251222155371e+01   5.312714128624e+01 
8
Step 1000
1 -3.187852522976e+01  -1.229226777964e+01   2.919340397376e+01 
1 -3.207639447957e+01   5.569767731373e+01   2.175030844825e+01 
1  6.855726534323e+01   6.045634163705e+01   1.522863243003e+01 
1 -6.694656250814e+01   1.688232542192e+01  -8.575413664802e+01 
1 -4.406947524055e+01   3.162595151871e+01   4.705143595240e+01 
1 -4.219502719922e+01  -8.193420416167e+01  -1.279470984191e+01 
1  9.078331745158e+00  -2.645195402349e+01   5.763985382005e+01 
1  8.195521261065e+00   4.132013656073e+01  -2.204431069712e+01 
8
Step 2000
1  4.351160508077e+00  -2.288600121302e+01  -1.057033279822e+01 
1 -3.553576922274e+01   1.688642016933e+01   4.503351160694e+01 
1  1.875469181010e+01  -4.464134569052e+01  -3.940313289227e+01 
1 -1.013862657550e+01  -9.808707561195e+00   3.635292686322e+01 
1 -6.700545137441e+00  -5.516596043850e+01  -2.957540351043e+01 
1 -1.194740871320e+01   6.212467883145e+00  -6.724630055051e+00 
1  3.108084885641e+00   2.704200106291e+01   2.318923957846e+00 
1  9.585534091924e+00   8.267390038167e+01   5.389848663791e+01 
8
Step 3000
1 -1.878289754325e+01   2.357424614708e+00   4.379593231342e+01 
1 -9.484453496151e-01   3.488759456873e+01  -3.935931093460e+01 
1  2.882231421080e+01   3.616233195087e+01  -4.191284259273e+01 
1 -4.620500654002e+01   1.860424405459e+01   5.957343440804e+01 
1 -5.087406862775e+01  -5.222780146207e+00   4.124858017001e+01 
1 -5.835395569266e+00  -5.985617068929e+01  -3.368722986971e+01 
1  1.715267420534e+01   5.220211997942e+00   5.080224084382e+01 
1  4.052487795635e+00  -3.054966234837e+01  -4.754358293627e+01 
8
Step 4000
1  2.132271269652e+01   1.615164837057e+01  -1.440166939277e+01 
1 -2.536849358820e+01   4.988634607319e+00   3.342629385610e+01 
1 -1.935681770011e+01  -3.644365195388e+01   2.270040145215e+01 
1 -2.438067033437e+01  -2.011843569563e+01   4.680685669029e+01 
1  4.532008532550e+01  -2.776570424285e+01  -5.996410940778e+00 
1  9.596148620150e+01   6.672459918184e+01  -6.637174991650e+01 
1  8.905863374336e+00   3.965543731457e+00  -1.799720468291e+01 
1 -1.932566195714e+01  -2.486282373128e+01   3.503015113930e+01 
8
Step 5000
1 -5.212026292261e+01   1.143918355924e+01   1.185654917140e+01 
1  2.238129053613e+00   3.058612145353e+01  -1.196873198117e+01 
1  4.244228005150e+00   2.240732487466e+01   1.779784176796e+01 
1  3.144775924982e+01   1.383247346570e+01  -3.412713883929e+01 
1  1.836783616630e+01   6.344965392498e+01  -2.014930840126e+01 
1 -1.652452554074e+01  -4.208748414953e+01  -4.028711529949e+01 
1 -5.001732276584e+01  -1.077177401491e+01   4.373808890579e+01 
1 -2.689605692827e+01  -3.940322691835e+01   1.402023803731e+01 
8
Step 6000
1  3.816629578572e+01  -4.363060943392e+01  -2.032446210274e+01 
1 -5.728358039490e-01  -3.063054258317e+01   3.280252104356e+01 
1  2.404274238094e+01   7.046172009176e-01   2.433572377449e+01 
1  1.593835511562e+01  -3.081818210973e+01  -6.752130885533e+01 
1 -1.796229635873e+01   1.063620834331e+01   1.496623819979e+01 
1 -3.746974465916e+01  -3.960787574487e+01   9.223480240379e+00 
1  4.516668726533e+00  -1.126657320638e+01   3.951231019664e+01 
1  3.813360713272e+01   2.891551550552e+01   2.282239377836e+01 
8
Step 7000
1 -2.758598249431e+01   1.186853455609e+01  -2.752493752112e+00 
1  8.349989616828e+00   3.206026368247e+01  -1.906662984292e+01 
1  1.458885755854e+01  -2.329885343066e+01  -7.256137201913e+01 
1  3.558430625024e+01  -1.493472575297e+01   8.931351019557e+01 
1 -9.278544323213e+01   3.674370288483e+00  -1.863817776437e+01 
1 -5.268444072752e+01  -4.273669609797e+01   5.055074492887e-01 
1  6.976861843013e+01   4.507366903895e+01  -1.785411567265e+01 
1  3.756610795707e+01   5.181327605428e+01  -2.011204675226e+01 
8
Step 8000
1  2.121093860713e+01  -1.640569853201e+01   1.893009911236e+01 
1 -4.292309679909e-01  -1.261299057572e+00   1.658973926379e+01 
1  3.918380248307e+00   1.358479520220e+00   3.609456459916e+00 
1 -5.696864031042e+01  -3.323554950319e+00   9.429855995129e+00 
1 -4.635141220194e+01   6.550505746847e+00   5.723781449050e-01 
1  1.135651550927e+02  -9.722931037239e+00  -8.704821783407e+00 
1  4.646708045498e+01  -2.697379425179e+01  -4.477657727193e+00 
1 -5.129518568538e+01  -2.693353651084e+01  -4.901094932968e+00 
8
Step 9000
1 -2.270672753435e+01   1.683868912081e+01  -1.968048684221e+01 
1  6.630344978321e+00   1.615588379006e+01   4.645162888395e+00 
1 -2.403917691951e+00  -3.107197820307e+01  -6.213527447217e-01 
1  2.417811724363e+01   1.765170575601e+01   2.505317989420e+01 
1  9.062085918965e+01   8.880744383297e+00  -6.433130294463e+01 
1  5.940652268689e+01   2.603871374235e+01  -1.443344531657e+01 
1 -5.855763191920e+01  -1.295461073821e+00  -2.168703960196e+01 
1 -8.280973239636e+01  -8.884973639961e+00   4.399116586917e+01 
8
Step 10000
1  1.920270356291e+01  -3.266828744129e+01  -2.813290031701e+00 
1  2.024130287468e+00  -2.093545835488e+01  -7.985269995089e+00 
1  2.202470587001e+01   3.610825969650e+01   4.155802643823e+01 
1 -2.990476608877e+01   2.527994543007e+01  -1.073590444849e+02 
1  3.238997569397e+01   2.515838238967e+01   4.689092766152e+01 
1 -8.028165982273e+01  -8.718170986616e+01   2.704534269224e+01 
1 -1.351098573267e+01  -6.393512334007e+00   6.659484616532e+01 
1  4.553659438588e+01  -2.428080493240e+01  -3.090154384299e+01 
8
Step 11000
1  3.232852691004e+00   7.531641140850e+00  -3.603412805081e+01 
1 -1.916627484259e+01   2.332249022909e+00   3.315623474488e+00 
1 -2.862074977824e+00  -4.065667946819e+01  -1.798260504697e+01 
1  4.091748300228e+01  -3.241104863960e+01   5.601763652070e+01 
1 -2.707197195458e+01  -3.446859350064e+01   1.680419726285e+00 
1 -3.858895740296e+01   2.332531857407e+01  -1.947659499465e+01 
1  4.214621810757e+01   6.705842398175e+01  -2.129537850844e+01 
1  6.421446899763e+01   5.092794606470e+01  -6.086427294338e+00 
8
Step 12000
1 -1.529435346261e+01   5.149264657816e+00   4.568489575625e+01 
1  1.106038419365e+01   2.848503939249e+01  -2.498996158773e+01 
1  1.945334527500e+01   1.865446197780e+01  -1.812514507169e+01 
1 -1.950740196129e+01   7.943835254187e+00   1.782193609673e+01 
1 -8.830708898894e+01   4.300080108297e+01   1.610599643759e+01 
1  2.421704260650e+01  -2.239670630229e+01  -3.509930373225e+01 
1  4.555732111970e+01  -1.207089831021e+01   2.904162193661e+01 
1 -6.052614634574e+01  -6.169791826594e+01  -2.958001798243e+01 
8
Step 13000
1  1.871337954375e+01  -7.023817730103e+00  -2.379903523049e+01 
1  9.961610575916e+00  -9.559035148751e+00   2.767986512024e+01 
1 -2.445929191148e+00  -5.746072666066e+01   2.267668544286e+01 
1  9.536213263212e-01  -1.421879796925e+01   5.840632115774e-01 
1  4.509163973829e+01   2.712628065080e+01  -5.324119818893e+01 
1  1.129157023101e+02   5.790411986199e+01  -2.863614985355e+01 
1 -2.408865686198e+01  -1.857726708214e+01   3.115745139135e+01 
1 -7.646593473883e+01  -7.201623405253e+00   3.180138814200e+01 
8
Step 14000
1 -3.084748654241e+01  -1.500957902956e+00  -1.743399345899e+00 
1  1.292191792754e+01   1.018637963600e+01  -7.491816392825e+00 
1  1.371731928027e+00   2.337017807819e+01  -5.944110192385e+00 
1 -1.394272120036e+01   5.709286458857e+01  -3.713731198955e+01 
1  2.822966912413e+01   4.445850870955e+01  -2.808283322937e+01 
1 -3.735970515510e+01  -7.723763908975e+01   6.324535896874e+01 
1 -6.658675866634e+01  -4.141224889792e+01   4.985784941024e+01 
1  3.174799047373e+01   2.941666502399e+01  -5.248226680132e+01 
8
Step 15000
1  3.098585710413e+01  -2.030690612515e+01  -3.405025086015e+01 
1 -1.673741027274e+01  -3.241965934933e+01   4.100544710487e+01 
1 -1.314765036788e+01  -3.312934669755e-01   1.969415977186e+01 
1 -1.263174094666e+01  -8.246300436942e+00  -2.404495300295e+01 
1  3.714718319913e+01  -5.155541491684e+01   3.259649060087e+01 
1 -1.000829224700e+01  -1.890410988951e+01   5.059485749666e+01 
1 -2.470275194509e-01   5.603479521092e+01  -3.355196504447e+01 
1  5.755548661807e+01   2.404916736586e+01  -1.749437339957e+01 
8
Step 16000
1 -3.046776415458e+01   3.574955710690e+01   2.970602356939e+01 
1 -1.665484683832e+00   3.654129010599e+01  -1.898619885070e+01 
1 -4.293702245951e+00   1.678863141553e+01  -6.664523687775e+01 
1  4.185496275422e+01  -5.423095036361e+00   8.585291742350e+01 
1 -4.552683048084e+01  -3.597390487238e+00   7.443963919823e-01 
1 -4.583999080580e+01   3.623667256440e+01  -5.293902421141e+01 
1  3.150907281487e+01   4.454830302034e+01  -4.492004632909e+01 
1 -4.104658961582e+01  -6.926530907424e+01   2.395883093660e+01 
8
Step 17000
1  4.795370763854e+01  -2.560220805504e+01   1.285665400010e+01 
1 -2.162607696520e+00  -3.487061956313e+01   2.050330618061e+01 
1  1.126441510145e+01  -1.565389142661e+01   3.787138849484e+01 
1 -3.914250284156e+01  -3.940542637054e+01  -3.912928974056e+01 
1 -1.721765548709e+01   3.558425924056e+01   6.669817005556e+00 
1  6.380480054767e+01   4.084210470099e+01  -5.376667316125e+01 
1  3.996999642676e+01  -4.373944923571e+01   7.984913153469e+01 
1 -2.838546555441e+01  -3.460973079586e+01   6.376014015944e+00 
8
Step 18000
1 -3.030326957138e+01   2.424001651631e+01  -2.705626951948e+01 
1 -6.722656000165e+00   2.471976722707e+01  -1.995606035074e+01 
1 -2.435117315349e+00  -2.557421631369e+01  -5.306802200916e+00 
1  1.519770251618e+01   2.044418048075e+01   2.225677600757e+01 
1  2.350269601765e+01   4.513036458586e+01  -4.987735795228e+01 
1  1.812498973387e+01  -4.462896934118e+01   3.256542252461e+01 
1 -5.012121754237e+01  -2.105104737105e+01   1.224747977387e+01 
1  1.486819599028e+00   9.388523197074e+01  -3.215592164050e+01 
8
Step 19000
1  1.685072800018e+01  -3.657187059937e+01   8.560387451607e+00 
1 -1.856189423486e-01  -1.181539500462e+01   4.421486982096e+00 
1  4.868107979899e+00   2.731151779628e+01   4.479829763202e+01 
1 -4.809881331140e+01   5.142274286436e+01  -7.630538850842e+01 
1 -4.642213886595e+00  -1.067322085583e+01   4.109051353058e+01 
1  1.272491948103e+00  -7.662432538590e+01   6.679416099965e+01 
1 -3.032782200485e+01   1.239031610573e+01  -1.432792647243e+00 
1  3.836370932548e+01  -4.462571313614e+01  -2.425062352933e+01 
8
Step 20000
1 -1.620287451303e+01   1.683361334329e+01  -1.905867343867e+01 
1 -5.847785891777e-02   2.572544180714e+01   7.688870507997e+00 
1 -1.053228817873e+01  -2.931447636151e+01  -2.573767292657e+01 
1  4.458368689184e+01  -8.372091162462e+00   6.890992760958e+01 
1  2.836178779371e+01  -5.139434478684e+01  -2.795240558769e+01 
1 -3.316458979721e+01   8.237591408003e+01  -3.973718070777e+01 
1  1.423915270879e+01   6.016177711667e+01  -5.714393623255e+01 
1 -8.783228163648e+00  -2.630151846015e+01   4.747602974232e+01 
8
Step 21000
1  2.856250670179e+00  -3.196979601213e+00   4.132014429463e+01 
1  1.419147176902e+01  -7.786591298843e+00   1.569831606414e+01 
1 -5.156373342374e-01   2.173890103245e+01  -1.057325762965e+01 
1 -3.179344016272e+01  -5.403147676212e+00  -2.573788371737e+01 
1 -6.344632307236e+01   2.549002644138e+01   2.457698876915e+01 
1 -3.416862424377e+01   2.430697484981e+01  -2.631191613128e+01 
1  8.425524507239e+01  -4.953534309090e+01   2.951440788136e+01 
1 -8.587594025580e+00  -7.071190679259e+01  -5.263397889001e+00 
8
Step 22000
1  1.350673677529e+01   1.077417994273e+01  -4.389072756541e+01 
1 -8.709960211492e+00  -2.310952176684e+01   2.585990787924e+01 
1 -1.651458050306e+01  -4.030190204860e+01  -9.637673465643e+00 
1  1.055903725380e+01  -3.026140888224e+01   1.752350383051e+01 
1  4.334017865507e+01   4.380936367966e+01  -3.325562330059e+01 
1  7.770110849672e+01   1.625509921705e+01  -1.569592978752e+01 
1  2.534717107408e+01  -5.732924233268e+01   4.053089647528e+01 
1 -6.297313905283e+01   1.173611555947e+02  -1.286000508791e+01 
8
Step 23000
1 -2.085189752343e+01  -5.412037012348e+00   3.333640835963e+01 
1 -1.210828038516e+00   1.455672632835e+01  -2.563009418729e+01 
1 -4.442031892182e+00   3.608222544104e+01  -2.110567411382e+01 
1 -9.380949449243e+00   6.408116932633e+01  -1.617497338865e+01 
1 -2.305160722646e+01   5.116221408861e+01   7.395753489154e+00 
1 -9.465983573380e+00  -1.033581351847e+02   3.868713860379e+01 
1 -7.748400568560e+01  -3.147174358230e+00   1.332609373314e+01 
1  2.491764101331e+01  -4.157058969658e+01  -2.789386080190e+01 
8
Step 24000
1  3.052102151156e+01  -2.312412947945e+01  -2.213763108561e+01 
1 -5.371947692162e+00  -2.191502580010e+01   1.391649038008e+01 
1  5.151767402511e+00  -1.851392404677e+01   4.659881342958e+01 
1  3.427439032213e+00  -1.179577686322e+01  -1.902881784242e+01 
1  4.066695612280e+01  -6.106699323352e+01   6.325526708320e+00 
1  7.890335164256e+00   4.299307923345e+01  -1.556211674295e+01 
1 -1.263431986875e+00   5.888131554137e+01  -2.149296585682e+01 
1  3.903238562828e+01  -2.771973824364e+01   3.758152623086e+01 
8
Step 25000
1 -4.627331963947e+01   3.667313193480e+01   1.901188086642e+01 
1  1.958665424154e+00   4.584396952745e+01  -2.348158212369e+01 
1  1.253366399719e+01   2.247760282264e+01  -2.089536266676e+01 
1  1.879845648530e+01   2.254020717140e+01   3.501405818341e+01 
1 -4.926001025444e+01  -1.906267458358e+01  -2.322478842352e+01 
1 -1.011561863497e+02   4.002096690448e+01  -1.062057652694e+01 
1  6.996319271843e+01  -1.643937061179e+01  -3.797061529635e+01 
1 -2.178854618301e+01  -3.684771181193e+01   9.455203793802e+00 
8
Step 26000
1  3.657361295401e+01  -2.022219295558e+01  -2.144174901912e+01 
1  4.312853318890e+00  -4.056573265412e+01   3.217445242519e+01 
1  5.470615973111e+00  -2.631859227032e+01   3.341139452863e+01 
1 -4.794959271969e+01  -3.505038873281e+01  -3.505583359964e+01 
1  7.137092638562e+00   1.891666713141e+01   4.017497405247e+00 
1  7.716914386460e+01   4.238631767514e+01  -1.065958555958e+01 
1  7.551747201222e+01  -6.053677385761e+01   4.649888621462e+01 
1 -5.538353241238e+01   2.226467838212e+01   5.057879726648e+00 
8
Step 27000
1 -3.546715296101e+01   2.431477054145e+01  -1.677209072802e+00 
1 -4.910363434874e+00   2.880517058088e+01  -1.736657321144e+01 
1 -1.733567219709e+01  -4.424289359354e+00  -6.825415032467e+01 
1  1.970946599882e+01   2.573543674274e+01   5.257317313968e+01 
1  1.425169337417e+01   7.223042289375e+01  -2.909040849947e+01 
1  2.472081120817e+01  -5.113178839792e+01   2.007929480060e+01 
1 -9.361533126691e+01  -1.116057068304e+01  -6.803768973704e+00 
1  3.875403393571e+00   4.030609188788e+01  -2.205499001570e+01 
8
Step 28000
1  3.541734031763e+01  -4.494103198630e+01   2.177088426063e+01 
1  8.611218172041e+00  -3.618778912184e+01   1.606970406278e+01 
1 -1.090260444943e+01   8.898135852449e+00   2.569095223215e+01 
1 -2.253200349720e+01   1.109282488996e+01  -5.771621032635e+01 
1  1.126442480427e+01  -2.140346604931e+01   4.918911393785e+01 
1 -2.897010386008e+00  -2.818798960888e+01   1.391411025189e+01 
1 -4.147201624622e+00   2.132700671917e+01   1.237216538202e+01 
1  5.301172899141e+01  -4.813236521408e+01  -2.810319103615e-01 
8
Step 29000
1 -2.554945912944e+01   3.524920911388e+01  -2.408105890273e+01 
1 -9.443189875006e+00   2.684999562048e+01  -7.976672623585e+00 
1 -1.077159568662e+01  -5.435413807722e+00  -1.504441911368e+01 
1  6.222469896656e+01  -9.100317570900e+00   5.010540712184e+01 
1  3.594857407714e+00  -4.851459448831e+01  -2.242153991435e+01 
1 -1.057136248791e+02   7.821378817310e+01  -6.087043677433e+01 
1  7.011436313118e+01   6.734599638409e+01  -6.296684603802e+01 
1 -3.530220113929e+00  -1.107188899913e+01   5.956300831776e+01 
8
Step 30000
1  8.094579590635e+00  -9.845479217300e+00   1.892768910870e+01 
1  8.337555393877e+00  -1.531435180963e+01   1.208309876981e+01 
1  1.220933597943e+01   1.521890143352e+01   3.315818410531e+01 
1 -2.684831224226e+01   4.731578866424e+00  -3.881529283521e+01 
1 -5.157304019190e+01   4.780743791034e+00   1.612278435099e+00 
1  8.226700539217e+00  -3.600247495514e+00   1.594866820978e+01 
1  4.969448190967e+01  -5.484139637004e+01   4.040461211592e+01 
1 -3.102182823485e+01  -4.504614915495e+01  -1.379270837854e+01 
8
Step 31000
1  2.799897769820e+00   8.260605472411e+00  -3.935027972419e+01 
1 -5.522059018844e+00  -7.438942057101e+00   1.246131244718e+00 
1  4.195941088312e+00  -3.096990351353e+01  -1.573890301603e+01 
1  2.266217486716e+00  -4.262302635240e+01   3.831834694395e+01 
1  3.429065416757e+01   3.483741805317e+01  -3.393936720153e+01 
1  9.444109060377e+01   4.235858831288e+01   6.269271120864e+00 
1 -4.834282638597e+01  -2.204982170650e+01   1.030569960358e+00 
1 -2.762574119776e+01   8.749011544084e+01  -7.105833634420e+00 
8
Step 32000
1 -6.256442176717e+00  -2.602047510934e+01   5.522131827527e+01 
1  5.501417837275e+00   3.891449495635e+00  -1.852006644003e+01 
1 -4.993245979445e-03   2.623228309186e+01  -2.582311669233e+01 
1 -4.233675656249e+01   4.440791493273e+01  -1.786887270943e+01 
1 -2.504659551210e+01   3.885862168772e+01   2.990113236401e+01 
1 -3.730318027548e+01  -6.778757571865e+01   4.123137822725e+01 
1 -4.691898167444e+01  -7.359896224585e+00  -9.194967665113e-01 
1  6.951257653119e+01  -6.765922511063e+01  -2.023504200457e+01 
8
Step 33000
1  2.355429221206e+01  -6.008893636009e+00  -2.939956646781e+01 
1  1.359001818200e+00  -1.734145500189e+01   1.380648995821e+01 
1 -8.551478405417e+00  -2.505495747040e+01   2.166262280482e+01 
1  2.008810679682e+01  -2.018788777028e+01   6.823254073061e+00 
1  6.793189744387e+01  -5.351098197610e+01   1.701577852135e+01 
1 -3.349816369043e+01   1.044918099105e+01  -4.629696755688e+01 
1 -7.944374711650e+00   9.483135886281e+01  -3.989553409930e+01 
1  5.032801978191e+01   1.996236312485e+01   4.476121181808e+01 
8
Step 34000
1 -3.609810737633e+01   3.259268051133e+01   1.775015929678e+01 
1  2.729604564986e+00   2.935729863606e+01  -1.337804837302e+01 
1 -4.449316055299e+00   2.517917057206e+01  -1.443108262597e+01 
1  4.122835603015e+01   3.126968594895e+01   2.530969593388e+01 
1 -3.952493286046e+01  -2.669882103380e+01  -1.063568486986e+01 
1 -1.031262982550e+02   4.693122744373e+00  -2.611653670256e+01 
1  5.983430153816e+01   2.781156998197e+00   1.036777911750e+01 
1 -5.597726133123e+01  -5.348830230538e+01  -5.494580623250e+00 
8
Step 35000
1  3.788070466796e+01  -2.008034087818e+01  -2.720857765978e+01 
1  1.256238361082e+01  -4.607620124464e+01   2.755411441304e+01 
1 -4.655626541167e-01  -2.677601250395e+01   4.101853257331e+01 
1 -1.628421389453e+01  -4.657509210851e+01  -3.030463087641e+01 
1  5.196070541884e+00  -1.212461643861e+01  -5.641807838013e+00 
1  9.405746738935e+01   7.689839192638e+01  -7.096534645089e+00 
1  2.967731345418e+01  -3.564386754120e+01   3.354345284187e+01 
1 -3.776033894333e+01   3.217524961163e+01   7.112460977913e+00 
8
Step 36000
1 -1.820597714443e+01   7.939848902522e+00   2.113660524854e+01 
1 -6.113005947182e+00   3.072886668543e+01  -2.192619121022e+01 
1 -5.727225050994e+00   2.510438068626e+01  -5.166965628212e+01 
1 -6.917201460985e+00   9.640947849103e+00   2.697309525407e+01 
1 -3.009204099439e+01   6.707846598877e+01  -1.352007859582e+01 
1 -5.679169170056e+00  -2.498456706843e+01   2.640164209275e+01 
1 -7.010579150340e+01  -3.993618146914e+01  -1.653532832894e+01 
1  2.529465459493e+01   2.447512477722e+01  -2.453847874741e+01 
8
Step 37000
1  4.284180194865e+01  -4.536851813592e+01   1.703118973398e+01 
1  7.779074684369e+00  -3.086657633015e+01   9.720716488831e+00 
1  8.874697406687e-01  -3.266092040001e+00   2.192759964397e+01 
1 -3.669150385821e+01  -1.883577493792e+01  -3.804946199939e+01 
1  2.576719175771e+01  -1.293423199039e+01   4.797745449836e+01 
1 -4.638689752001e+00  -6.081502434599e+01   1.433148989537e+01 
1 -2.274860318922e+01   4.803345278065e+01  -9.866002013166e+00 
1  8.454908073257e+01  -5.810706905997e+00   1.151719161696e+01 
8
Step 38000
1 -4.108022575632e+01   4.875844842242e+01  -2.217514795498e+01 
1 -2.014166799185e+01   4.421429353880e+01  -2.206467845047e+01 
1 -3.415816998275e+00   8.010024718718e+00  -2.875326510271e+01 
1  5.596923376069e+01   5.229253608597e+00   6.177641062692e+01 
1  5.615192192863e+00  -2.281931830655e+01  -1.644872582309e+01 
1 -1.182700002565e+02  -1.058115472650e+01  -5.220090714001e+01 
1  2.649915964976e+01   1.122788391813e+02  -4.911660849497e+01 
1  1.122821256218e+01  -2.988213041686e+01   3.697965683871e+01 
8
Step 39000
1  1.707443857806e+01  -1.448577755209e+01   9.187481596100e+00 
1  1.190633130936e+01  -2.291966981814e+01   1.340956672661e+01 
1 -4.534618238328e-01  -1.253353084758e+01   3.840232949473e+01 
1 -7.674917936673e+00   5.699598768949e+00  -3.207629385704e+01 
1 -2.492088805360e+01  -2.180147963887e+01   1.298669844045e+01 
1 -3.091218412055e+01   3.880421927761e+01  -1.932040778221e+01 
1  9.367456331745e+01   7.624619139995e-01   4.861750582823e+01 
1 -2.525524074920e+01  -9.863940189252e+01   5.658820311149e+00 
8
Step 40000
1 -4.593557778861e-01   2.741854759780e+01  -3.971996045586e+01 
1 -6.433596259405e+00   1.212185485272e+01   1.844125327970e+00 
1 -4.477391416956e+00   1.873776536607e-01  -8.501465256570e+00 
1  3.260712019451e+01  -1.701957948029e+01   3.501035461295e+01 
1  1.291673185585e+01   2.262795961009e+01  -3.752237409768e+01 
1  6.142451536813e+01   7.726445286232e+01   4.561696719719e+00 
1 -1.494643923385e+01  -7.114411869106e+01  -9.535758188280e+00 
1 -7.941008581139e+01   9.280702934791e+01  -3.879198347540e+01 
8
Step 41000
1  5.626733039014e+00  -3.315466633560e+01   5.851951726641e+01 
1  4.759103964446e+00  -2.569334118514e+00  -1.321374357337e-02 
1 -2.693380497536e+00   3.610538265998e+01  -6.828133305044e+00 
1 -5.288162181475e+01   2.346806548071e+01  -3.087097527723e+01 
1 -4.695397294835e+01   3.631948196457e+01   1.049725185585e+01 
1 -5.680222829149e+00  -1.260369839291e+02   7.872918519406e+01 
1 -4.635328402389e+01  -1.094220956479e+01  -5.049680371488e+00 
1  8.250497237248e+01  -4.358678035728e+01  -2.241507826337e+01 
8
Step 42000
1  1.492164174694e+00   4.640899958911e+00  -3.445638019128e+01 
1 -1.370267345261e+01  -2.231329632063e+00  -6.529142750248e+00 
1 -4.053491961720e+00   1.984517136361e+00  -1.480561841314e+01 
1  2.259128703895e+00  -4.914421793331e+01   7.975991427715e+00 
1  6.399874663542e+01   4.454357479038e+00   9.501805416595e+00 
1 -5.153813294698e+00   3.087018011131e+00  -3.313853820957e+01 
1  1.419716398060e+01   8.995850983537e+01  -3.016735883928e+01 
1  1.285972366042e+01   2.244640816459e+01   4.695437156783e+01 
8
Step 43000
1 -2.215447953419e+01   1.031319186530e+01   3.058951839232e+01 
1 -5.714674647468e-01   2.067012149398e+01  -1.010030267531e+01 
1  9.360578355500e+00   2.314529136954e+01  -1.324454900833e+01 
1  6.717617164922e+00   4.637425652250e+01  -3.670839224834e+00 
1 -2.716183760562e+01   1.255256826907e+01   1.056576584073e+01 
1 -9.837153257962e+01  -2.272703717688e+01  -2.455768215064e+01 
1  1.130514604543e+01   3.633135864634e+01   2.106622262693e+01 
1  1.769845539415e+01  -1.431105258138e+02   8.965386485308e+00 
8
Step 44000
1  2.650423427114e+01  -6.767964634361e+00  -3.554242222238e+01 
1  8.439396355430e+00  -3.349605093641e+01   1.599304862919e+01 
1  1.119631193377e+01  -2.948881823956e+01   3.087848097397e+01 
1  1.059322075575e+01  -2.719336263982e+01  -8.377309981543e+00 
1  2.917319075461e+01  -2.154730614108e+01   2.943159475466e+00 
1  1.803438312943e+01   6.697570232897e+01  -4.347488390613e+01 
1  5.890113050957e+01  -1.443289539541e+01   3.144683394479e+01 
1 -4.373868108663e+01   5.644613798377e+01   1.636655318760e+00 
8
Step 45000
1 -2.885785147378e+01   1.549668989108e+01   1.578356408210e+01 
1 -9.686219005240e+00   1.804747033037e+01  -1.541467280706e+01 
1 -7.686504563513e+00   3.099368379794e+01  -2.462289853534e+01 
1  3.899407011959e-01   1.431069498098e+01   2.701866524122e+01 
1 -4.409239049712e+01   1.384192542620e+01  -1.642423595758e+01 
1 -1.846242468306e+00  -1.309202278362e+01   3.426610511247e+01 
1 -2.112556523509e+01  -7.563474242658e+01  -6.326063330185e+00 
1 -1.659461781950e+01   4.879224886181e+01  -3.648093745858e+01 
8
Step 46000
1  4.128173812171e+01  -4.083954065208e+01  -7.617098096764e+00 
1  2.265404077326e+00  -4.377097153681e+01   1.774849525778e+01 
1 -1.324538422585e+01  -1.530018545158e+01   3.222060432385e+01 
1 -4.794412449854e+01  -5.638908973663e+01  -5.679267930311e+01 
1  4.381143462824e+01  -1.470733263366e+01   1.019941172576e+01 
1  1.088013855565e+02  -2.425319915293e+01   4.966409349788e+01 
1 -5.023065565205e+01   4.494272695104e+01  -3.812966494902e+01 
1  6.943953584159e+01   3.496429591128e+01   5.285475131376e+01 
8
Step 47000
1 -2.779351633242e+01   3.169233895161e+01   2.416893574733e+00 
1 -1.403120886848e+01   4.590154373295e+01  -2.201579453669e+01 
1 -1.947651488084e+00   2.562437258314e+01  -4.137817422745e+01 
1  2.319933656148e+01   1.912687757610e+01   5.611311906037e-01 
1  8.870056782431e+00   5.025817805361e+01  -8.706858321800e+00 
1 -6.647714563767e+01  -1.176579135502e+01  -1.104074594554e+01 
1 -9.513836387142e+00   2.052608296003e+01  -1.176059655747e+01 
1 -3.015779027228e+01  -3.818148115218e+01   1.073425890754e+01 
8
Step 48000
1  3.996536067175e+01  -4.892566098992e+01   2.006719635783e+01 
1  2.551323910390e+01  -3.767954538823e+01   1.256558535448e+01 
1  2.388122210280e+01  -3.236933916373e+01   3.855538755735e+01 
1 -2.314132287964e+00   2.808303881611e+01  -3.720894956175e+01 
1 -1.192005754927e+01  -2.680625473383e+01   3.584713653214e+01 
1 -5.639910045827e+01  -4.568556558982e+01  -1.513582954470e+01 
1  8.545582062265e+01   3.069145125372e+01   4.975002901176e+01 
1 -1.585596535128e+00  -5.507780235720e+01   6.772413123293e+00 
8
Step 49000
1 -3.106127816807e+01   3.558485203803e+01  -3.670617748074e+01 
1 -1.879399966717e+01   2.640923306606e+01  -2.270890785472e+01 
1 -3.473050439008e+00  -1.549753457103e-01  -2.440761616961e+01 
1  5.245325877972e+01   1.471910032884e+00   7.166227579062e+01 
1  1.091497890907e-01  -2.680783704891e+01  -3.091879747560e+00 
1  4.277679866089e+00   5.485382521875e+01  -4.755506989892e+01 
1 -1.086185419760e+01  -2.344184057155e+01  -2.805601391859e+01 
1 -5.705944764683e+01   1.087689585869e+02  -1.652602727000e+01 
8
Step 50000
1  7.115415606797e+00  -1.969074701048e+01   3.111557878044e+01 
1  2.327221697152e+00  -1.440408290790e+01   1.489571456721e+01 
1 -6.704519042483e+00  -4.877449000794e+00   3.230594739662e+01 
1 -3.427093547386e+01   4.732495383459e+00  -2.230388601765e+01 
1 -3.956966830413e+01  -2.258099304504e+01  -1.243884724957e+01 
1  9.668684896498e+01  -3.126629290392e+01   2.797585968846e+01 
1 -2.450469398504e+01  -7.883924970833e+01   3.399678820785e+01 
1  1.537129501660e+01   1.706604711628e+01  -1.102692543524e+01 
8
Step 51000
1  1.004669830238e+01   2.157502396654e+01  -3.462913541925e+01 
1 -8.114439190122e+00   6.564510024509e+00   6.839207401859e+00 
1 -3.286756575080e+00   5.531219593713e+00  -1.011519690367e+00 
1  2.640358969451e+00  -3.685186749047e+01  -2.038728601059e+01 
1  5.760509181464e+01   1.351107544062e+01  -2.669384709561e+01 
1  1.450737279171e+01   3.207744986624e+01   8.686729842201e+00 
1 -5.881086544132e+01  -4.500670149288e-01  -4.023469826714e+01 
1  2.629523597644e+01   7.008031958594e+01   3.203390847250e+01 
8
Step 52000
1  6.188596235425e+00  -2.212134503083e+01   3.657354554226e+01 
1  2.830170898397e+00  -3.277800707990e+00   5.183095317789e+00 
1  7.057531276553e+00   1.281155828672e+01  -7.593302928285e+00 
1 -1.497602342688e+01   2.469049883995e+01  -3.020426817472e+01 
1 -1.367491217526e+01   2.701888249337e+01   1.443505167414e+01 
1 -9.622925275350e+01  -6.640765625059e+01   7.346318297116e+01 
1 -1.605457285791e+01  -8.764187040603e+00  -2.495903146101e+01 
1  6.238942004437e+01  -6.121128201719e+01   9.825474354529e-01 
8
Step 53000
1  7.129501225573e+00  -6.715003659405e+00  -3.219056327475e+01 
1 -9.180798745029e+00  -1.315782723376e+01  -6.354176199056e+00 
1  2.035617461119e+00  -4.229049059591e+00  -1.420056229752e+01 
1  1.943476013494e+01  -2.230639705551e+01   1.586990048052e+01 
1  4.002126539291e+01  -1.142963495882e+01   3.923571174126e+01 
1  6.079642509443e+00   2.480630810368e+01  -3.312948623973e+01 
1  4.666392003382e+01   5.637583448575e+01  -3.087553194740e+01 
1 -4.119165289191e+01   4.094908271130e+01   1.413396598423e+01 
8
Step 54000
1 -3.472814332874e+01   1.526602113690e+01   3.646705272795e+01 
1 -1.569803065700e+01   2.726310174810e+01  -3.784003829649e+00 
1  4.292600028875e+00   2.344181276040e+01  -2.015893771859e+01 
1  1.556378304167e+01   3.009661236820e+01   5.431390157093e+01 
1 -8.522094589920e+01  -1.777315325007e+00  -5.138549397990e+00 
1  1.877282535955e+01  -1.764425862352e+01  -6.279167917968e+01 
1  5.742032972601e+01  -8.885555424899e+01   5.649159022149e+01 
1 -8.300668736364e+01  -5.350023614107e+00  -3.325461605530e+01 
8
Step 55000
1  2.744002630636e+01  -1.360607931256e+01  -1.782195797545e+01 
1  1.646845483687e+01  -3.012986451797e+01   1.910374251792e+01 
1  1.612042615572e+01  -2.918790105184e+01   3.494848445528e+01 
1 -3.706117556039e+01  -2.528176410408e+01  -1.811426115881e+01 
1 -5.061454747445e+00  -8.653807044797e+00  -3.633392205478e+01 
1  1.207236643479e+02   2.801199998902e+01  -6.609595972969e+01 
1 -1.540365104342e+01  -1.757200024494e+01   8.581373247311e+01 
1  3.170158480336e+01   6.020870385650e+01   7.889959058657e+00 
8
Step 56000
1 -2.434913233312e+01   3.122253872492e+01  -9.042397741712e+00 
1 -9.378547647983e+00   3.225382895020e+01  -1.454451851699e+01 