8
Step 0
1 3.94217382670848053e+01 8.86930133271171144e+01 -4.31651493543225655e+01
1 1.71805978663685437e+01 1.30818143144767532e+02 7.67588324996520157e+01
1 -6.13113746399629207e+01 1.15482323690817282e+02 9.39420273435533204e+00
1 2.29107032403702249e+01 -3.59566131870835761e+01 1.34225099515044235e+01
1 -1.07066787510991873e+02 1.14483651908727097e+02 3.88357264847838621e+01
1 -1.17182092299329568e+02 1.31953469057579980e+02 -9.42015554093610774e+01
1 -6.04281140407965012e+01 -1.04566892741751758e+01 5.60818642945577892e+01
1 -1.55248030418366056e+00 5.99535465093119910e+01 8.27596554425096542e+00
8
Step 10
1 4.21445232205933991e+01 8.93506583801898557e+01 -3.87194517859003398e+01
1 1.18951403911107167e+01 1.24349694078967659e+02 7.51516631238648358e+01
1 -5.80841262016530919e+01 1.25238494997016545e+02 8.12984145543754977e+00
1 2.28501786217428986e+01 -4.57032615972945493e+01 1.89769442998487925e+01
1 -1.04353185138980706e+02 1.19192880882550398e+02 3.96190702460509101e+01
1 -1.17233665115215317e+02 1.29707143010682302e+02 -9.22815359743286336e+01
1 -5.40966017077350543e+01 -1.86768697610888630e+01 5.08983347915453024e+01
1 -7.03771146738204312e+00 6.04323421375996972e+01 9.33151722670297001e-01
8
Step 20
1 4.49687014541500929e+01 8.87979322184550313e+01 -3.36401739493315546e+01
1 6.56577789394787548e+00 1.16723798770015080e+02 7.37018111504842039e+01
1 -5.36082281269464005e+01 1.33299730907280036e+02 6.12412041910308869e+00
1 2.25796014008856751e+01 -5.49873152869535602e+01 2.42655541457659645e+01
1 -1.00755720026880937e+02 1.22956867156386423e+02 4.07157766813764894e+01
1 -1.16146934282046843e+02 1.26253111445608070e+02 -8.94801087461244862e+01
1 -4.71397855310323024e+01 -2.72081549275611039e+01 4.56635913354505121e+01
1 -1.19074017065466276e+01 6.03477439673414224e+01 -6.10310298448623456e+00
8
Step 30
1 4.78789962452410762e+01 8.70185253072550609e+01 -2.79303266983627552e+01
1 1.24438525312936710e+00 1.08013426940831607e+02 7.24262597532949002e+01
1 -4.79203048036799260e+01 1.39657622763676216e+02 3.36589633506967578e+00
1 2.20849871093403500e+01 -6.36928164803457761e+01 2.92424406671278980e+01
1 -9.63133856408854427e+01 1.25778699309277371e+02 4.20938427925678695e+01
1 -1.13941266129307934e+02 1.21659523471340961e+02 -8.58304143482237407e+01
1 -3.95558806647321433e+01 -3.59594705460676280e+01 4.04427963607520269e+01
1 -1.61247486164404457e+01 5.97441724714258982e+01 -1.27740926708561240e+01
8
Step 40
1 5.08536916619937287e+01 8.40124410223892966e+01 -2.16033053107044424e+01
1 -4.01906226697792412e+00 9.83077844067123152e+01 7.13329240786670766e+01
1 -4.10754561978113983e+01 1.44329555128724905e+02 -1.41584579249196874e-01
1 2.13546457182843596e+01 -7.17088917839576254e+01 3.38675833039380265e+01
1 -9.10752916427721573e+01 1.27671128076464726e+02 4.37104127477455648e+01
1 -1.10648923518424041e+02 1.16007881710296004e+02 -8.13763373310837324e+01
1 -3.13413495800928317e+01 -4.48384814970705108e+01 3.52978419539043173e+01
1 -1.96739383713484521e+01 5.86748547135917562e+01 -1.90236957096370745e+01
8
Step 50
1 5.38647241483068839e+01 7.97989966378347901e+01 -1.46854673403460563e+01
1 -9.17599685099690809e+00 8.77106472870078733e+01 7.04209979357892877e+01
1 -3.31473983900734552e+01 1.47355700424302626e+02 -4.37718626335374417e+00
1 2.03798225187724675e+01 -7.89312307035596348e+01 3.81081036038227126e+01
1 -8.51002329084752205e+01 1.28655889019754937e+02 4.55125804937016483e+01
1 -1.06315191200202548e+02 1.09392728416271311e+02 -7.61716938233773675e+01
1 -2.24959206937309943e+01 -5.37514106810924730e+01 3.02843784039950705e+01
1 -2.25561610034127042e+01 5.71994857615073400e+01 -2.47991199092996126e+01
8
Step 60
1 5.68779812748934077e+01 7.44186544249579356e+01 -7.21735280417426583e+00
1 -1.41788278284055167e+01 7.63385627982283239e+01 6.96816495066221648e+01
1 -2.42279632687968949e+01 1.48796365468728112e+02 -9.30014334409959176e+00
1 1.91550879090384782e+01 -8.52634444733469508e+01 4.19395204173290850e+01
1 -7.84561351446188269e+01 1.28762930858796409e+02 4.74384349499634723e+01
1 -1.00998338980448835e+02 1.01921117857914254e+02 -7.02791745155337821e+01
1 -1.30315977945005379e+01 -6.26012197026285975e+01 2.54490873349356619e+01
1 -2.47815567323620982e+01 5.53803389319119290e+01 -3.00519623270867484e+01
8
Step 70
1 5.98537901098947955e+01 6.79338714620056123e+01 7.46107995339203023e-01
1 -1.89810135105356927e+01 6.43191983707925914e+01 6.90986378573983728e+01
1 -1.44255344875028371e+01 1.48729181593195563e+02 -1.48501932159458114e+01
1 1.76785009029895903e+01 -9.06183395232765463e+01 4.53467336262712237e+01
1 -7.12193498865523225e+01 1.28029533539653329e+02 4.94183642543529658e+01
1 -9.47693392635134728e+01 9.37116900719716597e+01 -6.37690914383216025e+01
1 -2.98299011536449221e+00 -7.12850046057994149e+01 2.08284549191805617e+01
1 -2.63597578187119410e+01 5.32778587203252130e+01 -3.47396425058520464e+01
8
Step 80
1 6.27475615922323797e+01 6.04294762734748403e+01 9.13595109628010960e+00
1 -2.35377567840403792e+01 5.17898558959225426e+01 6.86485681311526434e+01
1 -3.86263431735015494e+00 1.47245675037705183e+02 -2.09490386356709166e+01
1 1.59517189649177507e+01 -9.49191570654937919e+01 4.83244360776741857e+01
1 -6.34737703552056587e+01 1.26499275903485710e+02 5.13766582855435132e+01
1 -8.77112853945434807e+01 8.48932401181249219e+01 -5.67180073242546356e+01
1 7.58500210227535110e+00 -7.96919951619285598e+01 1.64492594211577163e+01
1 -2.72927646621606783e+01 5.09471843799847335e+01 -3.88268732649428401e+01
8
Step 90
1 6.55105550215951098e+01 5.20125248870083396e+01 1.78701872958885204e+01
1 -2.78070527160712544e+01 3.88959076960025456e+01 6.83008845066454171e+01
1 7.32661442352420700e+00 1.44447662396964631e+02 -2.75026271804317339e+01
1 1.39802465266927811e+01 -9.81007954187984268e+01 5.08768795308272530e+01
1 -5.53097459767863668e+01 1.24220782872189986e+02 5.32334973053788261e+01
1 -7.99184900714709556e+01 7.56027734856785969e+01 -4.92073591665495371e+01
1 1.85747117754704618e+01 -8.77032119800528989e+01 1.23297896154277336e+01
1 -2.75723770350782935e+01 4.84365769363204848e+01 -4.22867709382997887e+01
8
Step 100
1 6.80907297752343936e+01 4.28112035664157915e+01 2.68557480084096909e+01
1 -3.17507290068671466e+01 2.57888988640505445e+01 6.80179118157642648e+01
1 1.89985416402160965e+01 1.40444354887930672e+02 -3.44039778887395045e+01
1 1.17738852263137055e+01 -1.00110965834388509e+02 5.30171847064634250e+01
1 -4.68227919900890655e+01 1.21246152716492745e+02 5.49075188622861603e+01
1 -7.14952486139209924e+01 6.59830918805551647e+01 -4.13222464293541094e+01
1 2.98583788480759367e+01 -9.51930491622693324e+01 8.48060863787290842e+00
1 -2.71818746780621723e+01 4.57878901785259700e+01 -4.51014941641007425e+01
8
Step 110
1 7.04336601227249020e+01 3.29724728497707744e+01 3.59914000807652386e+01
1 -3.53352870804300281e+01 1.26242115917199715e+01 6.77551861318890758e+01
1 3.10013067871272021e+01 1.35350848836326321e+02 -4.15364017488233870e+01
1 9.34730933136445685e+00 -1.00911186874116865e+02 5.47664588390726550e+01
1 -3.81121457069247782e+01 1.17628987737788123e+02 5.63193490233290746e+01
1 -6.25542195192859509e+01 5.61799438141097482e+01 -3.31506527906868911e+01
1 4.12845815989030029e+01 -1.02032668481987315e+02 4.90433449273878974e+00
1 -2.61004767063489282e+01 4.30388207805831087e+01 -4.72627057500854875e+01
8
Step 120
1 7.24835115174709301e+01 2.26583922552768371e+01 4.51713429129013377e+01
1 -3.85325181131052474e+01 -4.41689742249276485e-01 6.74621492695396796e+01
1 4.31757018898699059e+01 1.29288495681892556e+02 -4.87769010982934645e+01
1 6.72059992794342609e+00 -1.00477522293595840e+02 5.61529012953046589e+01
1 -2.92793715470896103e+01 1.13422219200604431e+02 5.73966660046410908e+01
1 -5.32143412459036895e+01 4.63387548123680588e+01 -2.47834378068677665e+01
1 5.26874398523649887e+01 -1.08095320342195848e+02 1.59472341589222188e+00
1 -2.43095420696146505e+01 4.02265798805630652e+01 -4.87726024373221350e+01
8
Step 130
1 7.41841067217688277e+01 1.20413420005902996e+01 5.42889285217083497e+01
1 -4.13199213447279163e+01 -1.32543849508792047e+01 6.70831798468439899e+01
1 5.53557645643135956e+01 1.22387394988824326e+02 -5.59993319994884899e+01
1 3.91946106640380076e+00 -9.88010246328540944e+01 5.72109670979187186e+01
1 -2.04274850104901198e+01 1.08676745395929629e+02 5.80809029459553727e+01
1 -4.35982927807524234e+01 3.66010868542527774e+01 -1.63151681466364238e+01
1 6.38981582337892817e+01 -1.13263771114881777e+02 -1.46394330506351400e+00
1 -2.17999005881590477e+01 3.73918240494800500e+01 -4.96465184947354174e+01
8
Step 140
1 7.54800896360635392e+01 1.29890503720439621e+00 6.32398340066568423e+01
1 -4.36808620471381914e+01 -2.56649910325718267e+01 6.65589916469922542e+01
1 6.73700954812548360e+01 1.14790071933003290e+02 -6.30768473371370959e+01
1 9.74729385827585726e-01 -9.58879698069346915e+01 5.79805495652210254e+01
1 -1.16611565342117345e+01 1.03442949750794384e+02 5.83334817993392818e+01
1 -3.38298476801491788e+01 2.71013873450277281e+01 -7.84490935344179263e+00
1 7.47573030452157496e+01 -1.17438720312291878e+02 -4.29585066352450173e+00
1 -1.85786334770140620e+01 3.45797888449644404e+01 -4.99170872714810372e+01
8
Step 150
1 7.63180713457233963e+01 -9.39044996399900889e+00 7.19245123668429613e+01
1 -4.56041648696013411e+01 -3.75339836835936111e+01 6.58286777385590653e+01
1 7.90449994250083279e+01 1.06653668044744393e+02 -6.98837367622805345e+01
1 -2.07902064121826680e+00 -9.17600423977912101e+01 5.85060353289163615e+01
1 -3.08785208920107523e+00 9.77762480655478470e+01 5.81366816378540321e+01
1 -2.40317993899695779e+01 1.79648480948152347e+01 5.24790602687840391e-01
1 8.51237608120220273e+01 -1.20544952494295273e+02 -6.93068591130273859e+00
1 -1.46721290457902978e+01 3.18354982097995283e+01 -4.96371129129292541e+01
8
Step 160
1 7.66475640844666231e+01 -1.98505442861003658e+01 8.02505894128578205e+01
1 -4.70827866784220532e+01 -4.87348559419672966e+01 6.48326330203780401e+01
1 9.02096144961683137e+01 9.81482987441935251e+01 -7.62977560480026114e+01
1 -5.20534437409213790e+00 -8.64544123056406306e+01 5.88350821787746980e+01
1 5.18133052308766118e+00 9.17438165482957686e+01 5.74864467139661315e+01
1 -1.43247667358095150e+01 9.30652912942983157e+00 8.69143953354722854e+00
1 9.48769412563031693e+01 -1.22532570371728937e+02 -9.40030937509799536e+00
1 -1.01239822900470777e+01 2.91949628688788962e+01 -4.88773490736035825e+01
8
Step 170
1 7.64216625466794568e+01 -2.99104063173641102e+01 8.81357522115239362e+01
1 -4.81118273253025706e+01 -5.91563824047034217e+01 6.35156971880878203e+01
1 1.00701826216289248e+02 8.94518860273999081e+01 -8.22040051506295839e+01
1 -8.36743049638904424e+00 -8.00233026603929005e+01 5.90171370727189952e+01
1 1.30321750585996927e+01 8.54275340614963739e+01 5.63819951853566721e+01
1 -4.82636624566257044e+00 1.23090798822419423e+00 1.65570726754650011e+01
1 1.03913718206954812e+02 -1.23374594663800664e+02 -1.17368585949751711e+01
1 -4.99043356807008820e+00 2.66787636294864257e+01 -4.77196106667150204e+01
8
Step 180
1 7.55976354678085158e+01 -3.94076858755468180e+01 9.55106728154354414e+01
1 -4.86869277586858757e+01 -6.87022484870777248e+01 6.18290518673893530e+01
1 1.10373530873737266e+02 8.07431955971818667e+01 -8.75002307461297875e+01
1 -1.15287124626783015e+01 -7.25327939220758395e+01 5.91018952334450702e+01
1 2.03490909885872462e+01 7.89215761238910716e+01 5.48199424504946009e+01
1 4.34988577135958732e+00 -6.16889251201386557e+00 2.40317277036541554e+01
1 1.12144485003261607e+02 -1.23064103113991933e+02 -1.39723085152680344e+01
1 6.63269613044132123e-01 2.42913197586471483e+01 -4.62494786110219280e+01
8
Step 190
1 7.41376302099582745e+01 -4.81923841820957151e+01 1.02320986863922968e+02
1 -4.88041404405778323e+01 -7.72880105508739632e+01 5.97299584623713287e+01
1 1.19094365524746095e+02 7.21942972149372082e+01 -9.21022663083523554e+01
1 -1.46526024666818966e+01 -6.40611580911163259e+01 5.91379305403635414e+01
1 2.70177845604696536e+01 7.23270871746063904e+01 5.27955781911090867e+01
1 1.30960517651086885e+01 -1.28121805287726751e+01 3.10354323958693001e+01
1 1.19490830536682353e+02 -1.21612379188019887e+02 -1.61384984168889503e+01
1 6.76481367104743025e+00 2.20239248182055611e+01 -4.45514375972118017e+01
8
Step 200
1 7.20096420556535293e+01 -5.61302481904885582e+01 1.08527513025687838e+02
1 -4.84615970008696948e+01 -8.48369888572643447e+01 5.71798914213156166e+01
1 1.26753527526650927e+02 6.39633820601884864e+01 -9.59476776710633885e+01
1 -1.77017285866922123e+01 -5.46972642388457047e+01 5.91715818378888088e+01
1 3.29290215122838461e+01 6.57468839013453703e+01 5.03082926560998800e+01
1 2.13113890469231606e+01 -1.86317281653067504e+01 3.74991216021558387e+01
1 1.25884837438280570e+02 -1.19047823242812669e+02 -1.82669903795978250e+01
1 1.32358917226035384e+01 1.98586527991855739e+01 -4.27063075836953772e+01
8
Step 210
1 6.91888029965806908e+01 -6.31052084085091565e+01 1.14104418025412116e+02
1 -4.76622989399236303e+01 -9.12775287710146586e+01 5.41426812111191254e+01
1 1.33259858774093630e+02 5.61891838567892137e+01 -9.89959852783537002e+01
1 -2.06372033765273990e+01 -4.45393308639568772e+01 5.92460126352423160e+01
1 3.79833738651363859e+01 5.92815200924375461e+01 4.73664643063490090e+01
1 2.89038356021343930e+01 -2.35745245920579620e+01 4.33649350630984003e+01
1 1.31269210104022051e+02 -1.15415060987652055e+02 -2.03886481574057328e+01
1 1.99930941631865444e+01 1.77718331981551430e+01 -4.07897389198843783e+01
8
Step 220
1 6.56588808980579444e+01 -6.90205226066965167e+01 1.19035792589356717e+02
1 -4.64167692492475084e+01 -9.65432816843417640e+01 5.05841065287791949e+01
1 1.38540927908133682e+02 4.89880826410290240e+01 -1.01225447521964199e+02
1 -2.34183207682391590e+01 -3.36939128088087898e+01 5.94003649762518009e+01
1 4.20960137908669410e+01 5.30264077107803686e+01 4.39889264346377047e+01
1 3.57912035052183128e+01 -2.76021774706391589e+01 4.85861801767253212e+01
1 1.35597640547979836e+02 -1.10773941141705095e+02 -2.25330311123599074e+01
1 2.69487851882981921e+01 1.57370423437542346e+01 -3.88709241406563137e+01
8
Step 230
1 6.14137324030652110e+01 -7.37987219318406176e+01 1.23311742167219393e+02
1 -4.47445360547147502e+01 -1.00576288159301740e+02 4.64732058017891418e+01
1 1.42541945172990125e+02 4.24539234938014118e+01 -1.02628207172521357e+02
1 -2.60027558506376515e+01 -2.22748752306262645e+01 5.96690608898520907e+01
1 4.52003762706002874e+01 4.70691484589917692e+01 4.02031711867526980e+01
1 4.19020460381982573e+01 -3.06909815080654234e+01 5.31271322991476822e+01
1 1.38835140238429062e+02 -1.05198337959910091e+02 -2.47277146908840244e+01
1 3.40119431264840131e+01 1.37278293862880023e+01 -3.70113555686673692e+01
8
Step 240
1 5.64584361150330949e+01 -7.73808206698054022e+01 1.26925165915597105e+02
1 -4.26741825118353546e+01 -1.03331258731190815e+02 4.17844920249755489e+01
1 1.45224941052043562e+02 3.66595002858506049e+01 -1.03205988095475561e+02
1 -2.83470981503663921e+01 -1.04022189423626177e+01 6.00813700554294243e+01
1 4.72501419411629371e+01 4.14867326296819741e+01 3.60422390801531023e+01
1 4.71762578473528649e+01 -3.28317143280698218e+01 5.69627609297477164e+01
1 1.40958252512374742e+02 -9.87747730847206213e+01 -2.69976169449559471e+01
1 4.10890133162461950e+01 1.17201766534793137e+01 -3.52638453114517461e+01
8
Step 250
1 5.08099464674846075e+01 -7.97253406189240224e+01 1.29869913075481207e+02
1 -4.02423292629527509e+01 -1.04779379433770018e+02 3.65000257451461536e+01
1 1.46568219943773613e+02 3.16584061449614929e+01 -1.02967478349772520e+02
1 -3.04075141195568577e+01 1.79923883096508397e+00 6.06613115345027154e+01
1 4.82197356253207019e+01 3.63429139454673162e+01 3.15420258161012477e+01
1 5.15654955441989884e+01 -3.40292371322730247e+01 6.00783982413121720e+01
1 1.41955135906893076e+02 -9.16008971770884415e+01 -2.93643772804163561e+01
1 4.80848972982640248e+01 9.69449631624467933e+00 -3.36720499103966873e+01
8
Step 260
1 4.44972637147320711e+01 -8.08075310186742399e+01 1.32140348630090728e+02
1 -3.74921167344593940e+01 -1.04910740172096510e+02 3.06107648000883898e+01
1 1.46565967231181588e+02 2.74864439047366247e+01 -1.01927323269394890e+02
1 -3.21404178514980785e+01 1.42012757109000169e+01 6.14278879696524740e+01
1 4.81038202931389449e+01 3.16862524581038265e+01 2.67396519992954360e+01
1 5.50334857310778034e+01 -3.43019735539360582e+01 6.24693300674662311e+01
1 1.41825530742694980e+02 -8.37838675979698877e+01 -3.18458086375424685e+01
1 5.49041789465965167e+01 7.63695638845511393e+00 -3.22705947511484155e+01
8
Step 270
1 3.75612263636524162e+01 -8.06189017079585426e+01 1.33731889603938896e+02
1 -3.44716456627151118e+01 -1.03735293379288109e+02 2.41171765826326663e+01
1 1.45227925040004493e+02 2.41624172695123285e+01 -1.00106084020414016e+02
1 -3.35031133838327690e+01 2.66737295162841015e+01 6.23956189851131739e+01
1 4.69161879240592867e+01 2.75491176545918925e+01 2.16727393072822245e+01
1 5.75562517868519379e+01 -3.36813154408423543e+01 6.41402936623923665e+01
1 1.40580622194261736e+02 -7.54386441850425342e+01 -3.44554287847341740e+01
1 6.14526135132708191e+01 5.54003395567830914e+00 -3.10857506439621893e+01
8
Step 280
1 3.00540615073440591e+01 -7.91669885895909147e+01 1.34641943696618540e+02
1 -3.12326209542443927e+01 -1.01282700601602926e+02 1.70293901621293600e+01
1 1.42579082947447802e+02 2.16885027627828819e+01 -9.75305208748450383e+01
1 -3.44544228992469641e+01 3.90860000696715346e+01 6.35753210607573749e+01
1 4.46883034985595344e+01 2.39476698637658139e+01 1.63791700175704378e+01
1 5.91222594794985312e+01 -3.22109684757101533e+01 6.51048907825943246e+01
1 1.38242805634557470e+02 -6.66862087348709451e+01 -3.72020687430266506e+01
1 6.76388407534357299e+01 3.40231389216437519e+00 -3.01365294396875782e+01
8
Step 290
1 2.20387914990844322e+01 -7.64751974652844098e+01 1.34870823543992032e+02
1 -2.78292555345118515e+01 -9.76015098873639317e+01 9.36716091972199827e+00
1 1.38659322348089574e+02 2.00505017711413203e+01 -9.42337815684759335e+01
1 -3.49553476450384082e+01 5.13085684523479060e+01 6.49750272072120794e+01
1 4.14676824063525302e+01 2.08826517888107013e+01 1.08969617064984359e+01
1 5.97324611399207512e+01 -2.99462181989299268e+01 6.53849448934854820e+01
1 1.34845347662619133e+02 -5.76516963056841263e+01 -4.00895539754922083e+01
1 7.33762489109078331e+01 1.22764685319215472e+00 -2.94360172284157287e+01
8
Step 300
1 1.35885368820154699e+01 -7.25825922113932336e+01 1.34422437327461012e+02
1 -2.43173775221013493e+01 -9.27579909783856067e+01 1.15978359902464323e+00
1 1.33522941760635774e+02 1.92182165306857939e+01 -9.02552829342377407e+01
1 -3.49698381602213217e+01 6.32144875741499277e+01 6.66008230694868928e+01
1 3.73162758552614662e+01 1.83407335628054611e+01 5.26406779462567087e+00
1 5.94002103428586921e+01 -2.69530793211121491e+01 6.50098350326036183e+01
1 1.30431918345310976e+02 -4.84624040871230548e+01 -4.31164548846570241e+01
1 7.85849030710354413e+01 -9.76149284239094972e-01 -2.89927232986499028e+01
8
Step 310
1 4.78571152650676623e+00 -6.75435430518099054e+01 1.33304726233425498e+02
1 -2.07536416968636779e+01 -8.68347988753498612e+01 -7.55403315787665797e+00
1 1.27237992825753523e+02 1.91461009022490884e+01 -8.56401994840874181e+01
1 -3.44657739196608972e+01 7.46807533656320714e+01 6.84572083448476718e+01
1 3.23090708525886257e+01 1.62961111200616564e+01 -4.81876746802873401e-01
1 5.81510226549002525e+01 -2.33072901054895389e+01 6.40158271933513134e+01
1 1.25055944668256316e+02 -3.92456083288681796e+01 -4.62759075397325148e+01
1 8.31934391793735699e+01 -3.19880195704162817e+00 -2.88116786316318283e+01
8
Step 320
1 -4.27891273709211006e+00 -6.14271904190276317e+01 1.31529894284517354e+02
1 -1.71947455923987995e+01 -7.99295211856808976e+01 -1.67263763871505660e+01
1 1.19885368221066884e+02 1.97742628097329884e+01 -8.04385259388163405e+01
1 -3.34162426546500200e+01 8.55894282720690001e+01 7.05464578862317921e+01
1 2.65331381569420870e+01 1.47120039310950386e+01 -6.30367282366377957e+00
1 5.60221692384916778e+01 -1.90931236723596420e+01 6.24454059657975620e+01
1 1.18779702739666078e+02 -3.01260642746414433e+01 -4.95555180676365339e+01
1 8.71408020673206209e+01 -5.42902167022899995e+00 -2.88949931579551560e+01
8
Step 330
1 -1.35072942221150214e+01 -5.43167012653723376e+01 1.29114485914760479e+02
1 -1.36965624905569339e+01 -7.21531037943906313e+01 -2.63004772418966866e+01
1 1.11557595263194457e+02 2.10298506818612623e+01 -7.47036903870360760e+01
1 -3.18011281831243195e+01 9.58283998589071615e+01 7.28665214305440685e+01
1 2.00873068770595076e+01 1.35416400606100460e+01 -1.21642878789904785e+01
1 5.30621033301955904e+01 -1.44020040316664595e+01 6.03465934243140936e+01
1 1.11673044747118951e+02 -2.12230018792579394e+01 -5.29373955341094486e+01
1 9.03776859068803162e+01 -7.65558789340520995e+00 -2.92416478317842277e+01
8
Step 340
1 -2.27953743150585240e+01 -4.63083047083881283e+01 1.26079350583681375e+02
1 -1.03131098313510137e+01 -6.36281261628369279e+01 -3.62112409559818218e+01
1 1.02357304676941823e+02 2.28288271193810246e+01 -6.84906987511370744e+01
1 -2.96088555620611587e+01 1.05291750820292933e+02 7.54074108201120339e+01
1 1.30824097321103796e+01 1.27283847828865486e+01 -1.80260453284652939e+01
1 4.93297285083217361e+01 -9.33093554313309070e+00 5.77722335413725574e+01
1 1.03811709434349424e+02 -1.26464464090485489e+01 -5.63984171529365597e+01
1 9.28675430918956692e+01 -9.86794957841831888e+00 -2.98465312541253276e+01
8
Step 350
1 -3.20344938291363235e+01 -3.75101007180214410e+01 1.22449515271042472e+02
1 -7.09526522568406826e+00 -5.44868921452968493e+01 -4.63859849352170812e+01
1 9.23953794825332153e+01 2.50780868344482073e+01 -6.18538623554878768e+01
1 -2.68379735005378173e+01 1.13879869814450458e+02 7.81467032413357998e+01
1 5.64159429636874776e+00 1.22050924977736930e+01 -2.38492890933263872e+01
1 4.48935178154523840e+01 -3.98077942119819550e+00 5.47792201162159174e+01
1 9.52754142037020841e+01 -4.49299970347879718e+00 -5.99108905770734737e+01
1 9.45870308844442178e+01 -1.20564529525705471e+01 -3.06990946306262735e+01
8
Step 360
1 -4.11129574283555570e+01 -2.80406435963564959e+01 1.18253973051153807e+02
1 -4.08912649966441677e+00 -4.48693005677579961e+01 -5.67453962414609734e+01
1 8.17888585201204705e+01 2.76777746657965871e+01 -5.48443921726202817e+01
1 -2.34981956961075724e+01 1.21499558678260385e+02 8.10453827501360990e+01
1 -2.10032373492997726e+00 1.18936309970966541e+01 -2.95906600566373292e+01
1 3.98304863057569065e+01 1.54556747979136677e+00 5.14276539923210692e+01
1 8.61464379665342221e+01 3.15794968534833842e+00 -6.34437355014561604e+01
1 9.55256626762234475e+01 -1.42124002739891129e+01 -3.17822789795349223e+01
8
Step 370
1 -4.99177175208538557e+01 -1.80273122909218309e+01 1.13525389329649698e+02
1 -1.33389950391348067e+00 -3.49204547014305504e+01 -6.72047030593043218e+01
1 7.06587374626393085e+01 3.05235197059243646e+01 -4.75084923537328550e+01
1 -1.96106392569076817e+01 1.28064409899323806e+02 8.40453749015192386e+01
1 -9.99969164905104790e+00 1.17063697132059037e+01 -3.52012661608102349e+01
1 3.42250155146810542e+01 7.14502796467432155e+00 4.77799282585494964e+01
1 7.65098425802058699e+01 1.02455246864214082e+01 -6.69640149837307064e+01
1 9.56842692773896175e+01 -1.63278153875423406e+01 -3.30723047722979615e+01
8
Step 380
1 -5.83361371806062792e+01 -7.60449129946936964e+00 1.08299724503010395e+02
1 1.14078617489877554e+00 -2.47879607260177757e+01 -7.76750319345036644e+01
1 5.91277859991943160e+01 3.35082576105608254e+01 -3.98866899621113546e+01
1 -1.52072432867199829e+01 1.33495620983479199e+02 8.70696648208929815e+01
1 -1.79096369731797154e+01 1.15510869216852825e+01 -4.06254245494706581e+01
1 2.81675343949548669e+01 1.27161761210857485e+01 4.38997529598789669e+01
1 6.64559741612026045e+01 1.67240770540136445e+01 -7.04381639597076656e+01
1 9.50720766895763347e+01 -1.83943342126914615e+01 -3.45394464316439240e+01
8
Step 390
1 -6.62577820636608124e+01 3.08840206341680990e+00 1.02615771343866157e+02
1 3.31811957049766315e+00 -1.46188617293846406e+01 -8.80648844301632465e+01
1 4.73183956827712962e+01 3.65234985812004709e+01 -3.20146387183159504e+01
1 -1.03296043958615229e+01 1.37723215489783513e+02 9.00249712241470377e+01
1 -2.56876173767238036e+01 1.13385836632139565e+01 -4.58010632560513997e+01
1 2.17530759099499917e+01 1.81609985460654713e+01 3.98511403767751773e+01
1 5.60840658780905699e+01 2.25555904679556107e+01 -7.38320640868373914e+01
1 9.37030675025257267e+01 -2.04008586219967540e+01 -3.61493149811332870e+01
8
Step 400
1 -7.35761857798280232e+01 1.39089962020022551e+01 9.65146094518274396e+01
1 5.19752304350535965e+00 -4.55619140494573127e+00 -9.82815977579707720e+01
1 3.53505598518520401e+01 3.94601812045758322e+01 -2.39249522606855685e+01
1 -5.02758136427374680e+00 1.40687463259675582e+02 9.28061086383152798e+01
1 -3.32028566848576077e+01 1.09898963485992756e+01 -5.06625168839858375e+01
1 1.50797445528024152e+01 2.33865469950973583e+01 3.56973792068160591e+01
1 4.55041801225888634e+01 2.77013642092264014e+01 -7.71096468096202443e+01
1 9.15931036444903270e+01 -2.23306318121644480e+01 -3.78639007014325699e+01
8
Step 410
1 -8.01905358600911882e+01 2.47140891446373203e+01 9.00389947024311539e+01
1 6.79706630063687811e+00 5.26470724770220233e+00 -1.08232557509355019e+02
1 2.33405604000480871e+01 4.22093557286991867e+01 -1.56496479876842667e+01
1 6.42068128403005978e-01 1.42340282993444731e+02 9.53010757468633898e+01
1 -4.03417699246622092e+01 1.04399607804018810e+01 -5.51452438259725426e+01
1 8.24714268701055886e+00 2.83064513208640989e+01 3.15000326102035473e+01
1 3.48354224148832259e+01 3.21173902922427956e+01 -8.02306425793779994e+01
1 8.87589870001654049e+01 -2.41591005902561413e+01 -3.96418873868585422e+01
8
Step 420
1 -8.60072429159819478e+01 3.53617457823782999e+01 8.32327343843820984e+01
1 8.15282734212259541e+00 1.47196076799459270e+01 -1.17825893954317422e+02
1 1.14013115026009757e+01 4.46629147999643550e+01 -7.22334327742737603e+00
1 6.61692448671371469e+00 1.42646550973111005e+02 9.73964496149484944e+01
1 -4.70104284305813351e+01 9.63690714358488520e+00 -5.91909181403877653e+01
1 1.35481033273087048e+00 3.28422721604190642e+01 2.73180010606060684e+01
1 2.42008399510437009e+01 3.57553869950965293e+01 -8.31486853437876334e+01
1 8.52194569805346589e+01 -2.58535511703004843e+01 -4.14382863645524822e+01
8
Step 430
1 -9.09413794633100849e+01 4.57132935450275326e+01 7.61401325397627602e+01
1 9.31341871692144707e+00 2.36977433841287812e+01 -1.26970581174734178e+02
1 -3.55363853831807353e-01 4.67146632010364868e+01 1.31276299804018159e+00
1 1.28299990594791282e+01 1.41585313399186020e+02 9.89829409660748780e+01
1 -5.31337897201710661e+01 8.53858866029625041e+00 -6.27511617184022512e+01
1 -5.49926952940408320e+00 3.69246880800591626e+01 2.32066952790420480e+01
1 1.37213387899751460e+01 3.85683795092258350e+01 -8.58109313888608938e+01
1 8.09972180721377413e+01 -2.73746286402629906e+01 -4.32039163002673092e+01
8
Step 440
1 -9.49179863547301608e+01 5.56351585333762202e+01 6.88055784660067218e+01
1 1.03303584609878829e+01 3.21024214054894586e+01 -1.35576273481453427e+02
1 -1.18159830061361291e+01 4.82620275272551496e+01 9.90712460444921028e+00
1 1.92106529756038285e+01 1.39150794293066923e+02 9.99605875702820867e+01
1 -5.86520249736647727e+01 7.10897387010367066e+00 -6.57888648642092022e+01
1 -1.22200604416653746e+01 4.04945254339634246e+01 1.92173626371138226e+01
1 3.51098693311890031e+00 4.05180795185302429e+01 -8.81597026621719380e+01
1 7.61209399278427981e+01 -2.86792814469308013e+01 -4.48854625891325156e+01
8
Step 450
1 -9.78732290213959715e+01 6.50005169629602619e+01 6.12732761799395362e+01
1 1.12479958590742566e+01 3.98501160294787411e+01 -1.43553476376174331e+02
1 -2.28645705143203202e+01 4.92083977481021293e+01 1.84959346025256579e+01
1 2.56853256139794190e+01 1.35352968063613218e+02 1.00242691754983426e+02
1 -6.35153114071182614e+01 5.31648930613336468e+00 -6.82772513076879761e+01
1 -1.87167311258961462e+01 4.35036440726822065e+01 1.53965972425619420e+01
1 -6.32536673580872222e+00 4.15813112382075118e+01 -9.01356444119179940e+01
1 7.06264831171381786e+01 -2.97245121050657275e+01 -4.64265955045285708e+01
8
Step 460
1 -9.97553688541971866e+01 7.36907601501869891e+01 5.35870494557765724e+01
1 1.20969519131138004e+01 4.68690297231009367e+01 -1.50814406948302945e+02
1 -3.33846838769545258e+01 4.94657955630495749e+01 2.70040071670216193e+01
1 3.21781196384650059e+01 1.30217508123983436e+02 9.97578600389248891e+01
1 -6.76791709058532405e+01 3.13478680905494844e+00 -7.01978949118884117e+01
1 -2.49037651126228639e+01 4.59156924728651319e+01 1.17860464860661747e+01
1 -1.56927428597184413e+01 4.17538548563343923e+01 -9.16811898592912655e+01
1 6.45570066071795026e+01 -3.04713007632896371e+01 -4.77700116763256375e+01
8
Step 470
1 -1.00525532590523270e+02 8.15967728150703664e+01 4.57901816886072268e+01
1 1.28922886285656979e+01 5.30980398949636907e+01 -1.57274407108033984e+02
1 -4.32629170682947262e+01 4.89576499833176015e+01 3.53481399719085800e+01
1 3.86113388928451826e+01 1.23785088459123017e+02 9.84501358003522000e+01
1 -7.11019354241349220e+01 5.44867477344314732e-01 -7.15390846197220753e+01
1 -3.07019109171604896e+01 4.77067500533711950e+01 8.42231921231828018e+00
1 -2.45060288155591408e+01 4.10514876415336190e+01 -9.27432930038577013e+01
1 5.79619538514109394e+01 -3.08880636129759303e+01 -4.88598084785580724e+01
8
Step 480
1 -1.00158293914965810e+02 8.86200247990097978e+01 3.79253030113752203e+01
1 1.36350616723189777e+01 5.84863376411495679e+01 -1.62853528827086137e+02
1 -5.23919368950826794e+01 4.76215790161528290e+01 4.34418242286099385e+01
1 4.49060859412181870e+01 1.16110184892722586e+02 9.62777916743743418e+01
1 -7.37446121874436358e+01 -2.46296800361685664e+00 -7.22952772604403009e+01
1 -3.60389865485241714e+01 4.88658707126505192e+01 5.33709743429495909e+00
1 -3.26900087523339238e+01 3.95089301273668880e+01 -9.32750767845296309e+01