8
Step 0
1  7.395189469585e+00   2.868572838882e+01  -2.182869978595e+01 
1  3.581768520100e+01  -5.040078629445e+01  -1.872152468762e+01 
1 -8.956057854562e+00   4.753479582038e+00   1.574679953468e+00 
1  1.977878075509e+01   3.607585693886e+01  -2.422827477529e+01 
1  7.002853144553e+01   7.647335132185e+01   2.165794942044e+00 
1  2.570063494682e+01  -1.914862205628e+01   1.732125061436e+00 
1  5.826318678326e+01  -1.353795077675e+01  -5.974027404880e+01 
1  5.370653369435e+01  -9.140397982714e+00  -5.549262301199e+01 
8
Step 100
1  1.714561255409e+01   5.151479753214e+01  -1.556584935974e+01 
1  2.923988144325e+01  -3.507184879798e+01  -4.984231041775e+01 
1 -4.327019366739e+01  -1.731775682130e+01  -2.978144007878e+01 
1  1.602196241099e+01   6.443044669756e-01   4.183295093228e+01 
1  4.325225592339e+01   1.618815306069e+01  -1.042961133278e+01 
1  3.913288051011e+01   9.023573238698e+00  -1.716726133028e+01 
1  6.107319090870e+01  -2.877995171851e+01  -3.824986883895e+01 
1 -1.076932527505e+01   7.498885442837e+00  -5.302548886409e+01 
8
Step 200
1 -2.289006081782e+00   5.512217094883e+01   1.035201703173e+01 
1 -1.854338415655e+01   1.739392327611e+01  -2.852610885913e+01 
1 -2.817614262057e+01  -3.795137506649e+01  -1.872456694924e+01 
1 -4.446529179423e-01  -2.112160774639e+01   1.003739654505e+02 
1 -1.193370211930e+01  -3.941472641718e+01   8.219703778180e+00 
1  3.210079963443e+01   3.651767804160e+01  -5.725273712257e+01 
1  2.419552841285e+01  -3.878358224570e+01   6.092244001314e+00 
1 -6.915845272182e+01   2.549073018675e+00   3.397037168233e-01 
8
Step 300
1 -4.864301547234e+00   2.653425885002e+01   2.708130391020e+01 
1 -3.630942864891e+01   2.404486506039e+01  -1.300102266011e+01 
1 -9.713407160242e+00  -4.035407453704e+01   1.825888493601e+01 
1  3.891421821105e+00  -1.490573369512e+01   1.017254630046e+02 
1 -3.352967604850e+01  -5.095357605743e+01   3.493458235510e+01 
1  2.319671963592e+01   5.797665016521e+01  -5.582417120774e+01 
1 -3.873115021927e+01  -3.710459591113e+01   2.555641141404e+01 
1 -8.421660653859e+01  -3.723879100756e+01   3.713118349860e+01 
8
Step 400
1  3.030582169726e+01  -2.033601145903e+01   2.405842534483e+01 
1 -1.787379874050e+00  -2.027674202999e+01  -3.676901668295e+01 
1 -2.098080538572e+01  -1.724464594004e+01   2.921117572029e+01 
1  2.611549848349e+01  -1.770101501896e+00   5.413818960540e+01 
1 -1.483055948048e+01  -2.882257576576e+01   2.590771080245e+01 
1  1.466752165192e+01   6.846612959134e+01  -3.886869868827e+00 
1 -8.282610768733e+01  -1.792630635818e+01   9.202655769143e+00 
1 -4.957076118281e+01  -6.949185102791e+01   2.007900992629e+01 
8
Step 500
1  6.639463435240e+01  -5.526302915364e+01   1.584945148822e+01 
1  3.341383595918e+01  -4.352004319523e+01  -6.356896747649e+01 
1 -4.549187787774e+01   2.140532421368e+01  -8.973627127185e+00 
1  2.872502207117e+01   1.067458779874e+00   1.073048778906e+01 
1  1.946721038232e+00  -5.998720448577e+00  -2.121825117470e+01 
1 -3.136440221220e+00   5.869710651412e+01   4.346818550769e+01 
1 -7.236836078663e+01   8.743911380049e+00  -3.629961940112e+00 
1  1.128734824915e+01  -5.607918258390e+01  -1.461417928992e+01 
8
Step 600
1  5.656502377463e+01  -5.732701721108e+01   1.588052885532e+01 
1  2.268349690860e+01  -4.064055226135e+00  -4.433596397394e+01 
1 -4.685930574823e+01   4.931299907424e+01  -5.977861706739e+01 
1 -3.970245548581e+00   8.612988846850e-01  -3.354907618453e-01 
1 -9.385925400146e+00  -3.314221374392e-02  -5.550357918805e+01 
1 -2.668375295096e+01   2.508852349640e+01   4.353513617917e+01 
1 -1.728116169632e+01   2.150794343222e+01   1.946017085645e+01 
1  6.051084972073e+01  -9.624371483276e+00  -1.443810149945e+01 
8
Step 700
1  3.392965039893e+00  -2.968171833271e+01   1.644476732076e+01 
1 -1.308243317354e+01   5.013228712866e+01   1.210294523619e+01 
1 -1.631296413659e+01   4.459992859056e+01  -6.903668764276e+01 
1 -3.906614805722e+01   7.907430944256e+00  -4.623856991197e+00 
1 -2.686055594577e+01  -2.364073811725e+00  -3.424156710467e+01 
1 -3.654023552595e+01  -1.943536144135e+01   1.624438160760e+01 
1  3.683958297579e+01   1.186981761411e+01   5.525324214374e+01 
1  6.821428224745e+01   2.938268215488e+01   1.703030083977e+01 
8
Step 800
1 -4.630726026873e+01   7.384361523644e+00   1.257201345224e+00 
1 -2.182453766480e+01   4.689694607113e+01   4.986771587368e+01 
1  2.105482385006e+01   1.242828815297e+01  -2.489936796852e+01 
1 -3.670294098863e+01   1.215408636451e+01  -3.283797647742e+01 
1 -1.629596954081e+01   2.948922469274e+00   2.160182897652e+01 
1 -2.194543610856e+01  -5.184917675766e+01   5.266326634758e+00 
1  5.174943841327e+01  -3.792786106088e+00   5.119065945810e+01 
1  3.031710993860e+01   4.072071138838e+01   2.915113404497e+01 
8
Step 900
1 -5.675585965463e+01   3.234166039348e+01  -2.825608102747e+01 
1  5.026713094698e+00  -1.347081575423e+01   3.797584996586e+01 
1  3.950099266018e+01  -1.778494145492e+01   3.295739737038e+01 
1 -3.628865084487e+00  -3.101084137327e+00  -6.919325648258e+01 
1  2.021021304741e+01   1.716807280965e+01   4.929989161986e+01 
1  2.466051146681e+00  -5.974736129483e+01   1.582170110812e+01 
1  2.823253551673e+01  -2.736886409832e+00  -5.664521091797e+00 
1 -2.574228804763e+01   3.464237455405e+01  -3.641003702010e+00 
8
Step 1000
1 -3.641863481636e+01   3.365801036249e+01  -4.849136805515e+01 
1  2.369636597077e+01  -5.748272588400e+01   6.467284523122e+00 
1  3.824883659588e+01  -2.290264498932e+01   5.933251156775e+01 
1  1.466532143957e+01  -2.965633494715e+01  -7.034224369848e+01 
1  4.561009222350e+01   2.431717498002e+01   1.861550082030e+01 
1  1.332356678359e+01  -5.158154840647e+01   1.571336279436e+01 
1 -1.939110345299e+00   1.600134303747e+01  -6.449607660853e+01 
1 -5.734454091600e+01   2.414458995028e+01  -4.399514480395e+01 
8
Step 1100
1 -1.534792839111e+01   1.410591657063e+01  -3.999302056006e+01 
1  2.956535555679e+00  -3.298939201232e+01   2.331837082720e+00 
1  3.192148929024e+01  -1.067722384526e+01   4.810284498401e+01 
1 -5.000985572322e+00  -3.529342429747e+01  -2.848607053086e+01 
1  3.367562536594e+01   1.043966047612e+01  -3.261871660934e+01 
1  6.770521156913e+00  -4.188345954528e+01  -9.605838873697e+00 
1 -1.109894169546e+01   2.961618285304e+01  -6.684093892637e+01 
1 -4.137471937027e+01   8.049977343644e+00  -3.832620425023e+01 
8
Step 1200
1 -5.258007104273e+00  -1.168387221201e+01  -1.081758553631e+01 
1 -3.074148529556e+01   2.742437671598e+01   2.735870974395e+01 
1  2.479642593619e+01  -5.542376594955e+00   2.483442570667e+01 
1 -3.184575010716e+01  -2.947853536060e+00   1.353115015825e+01 
1 -2.515492409158e+00  -1.662537180760e+01  -4.578149857960e+01 
1 -6.695408733393e-01  -2.968989679975e+01  -3.236591926593e+01 
1 -9.993349297866e-02   1.934918824470e+01  -1.354280060047e+01 
1  4.811522664615e+00  -1.381522136865e+01   1.448482547342e+01 
8
Step 1300
1  4.379930951457e+00  -2.459011339686e+01   1.175598565882e+01 
1 -2.933884357313e+01   5.015872372258e+01   3.904600960534e+01 
1  7.672548965344e+00  -1.517402716977e+01   9.639890361796e+00 
1 -2.087203185909e+01   4.008086986149e+01   1.771090397046e+01 
1 -2.868708483496e+01  -2.993251025663e+01  -1.029161211294e+01 
1  3.166638280161e+00  -1.310561284128e+00  -2.347664859439e+01 
1  8.792988876106e+00  -6.824839258302e+00   3.636981570185e+01 
1  3.699504238815e+01  -2.552071734130e+01   5.851686862499e+01 
8
Step 1400
1  1.988038326800e+01  -1.504860416798e+01   1.378264339809e+01 
1  8.668341458942e+00   1.368691177344e+01   1.118471042801e+01 
1 -2.044427882804e+01  -2.151459782910e+01  -1.444931634361e+00 
1  2.617037906596e+01   4.780015286499e+01   2.705353111642e+00 
1 -2.773258829857e+01  -1.198371888792e+01   2.930344034588e+01 
1  1.056038651433e+01   4.440251522991e+01   1.939154574394e+00 
1 -4.126078606971e-01  -2.535966754003e+01   3.583179454707e+01 
1  2.677821007258e+01  -1.216350303660e+01   4.806531851145e+01 
8
Step 1500
1  3.002552315293e+01   7.778451053430e+00   9.452766158593e+00 
1  3.533485081177e+01  -3.145980677564e+01  -3.021666006968e+01 
1 -4.023984843361e+01  -7.784633718353e+00  -1.879725733172e+01 
1  6.044861404792e+01   9.319300905322e+00   1.423760817993e+01 
1 -9.993544274208e+00   2.293597620422e+01   3.301554946484e+01 
1  8.457403542979e+00   8.093643823165e+01   5.517188500978e+00 
1 -1.975060281748e+01  -2.539044243626e+01  -1.645070713304e-01 
1 -1.120476009778e+01   1.477307590720e+01  -1.382609869744e+00 
8
Step 1600
1  2.447587827775e+01   2.218034381130e+01   1.988425880685e+01 
1  1.795289727230e+01  -3.149112700525e+01  -4.222028203269e+01 
1 -3.237724880442e+01   1.710373592087e+01  -3.778761989080e+01 
1  4.533526887787e+01  -3.431009199220e+01   5.574938312717e+01 
1  6.421430468601e+00   4.050424110873e+01   1.027457376790e+01 
1 -5.533968170274e-01   7.572082403124e+01  -1.718848145997e+01 
1 -2.690234545943e+01  -1.651902601165e+01  -2.153524840094e+01 
1 -3.502911952760e+01   2.432668548600e+01  -3.747326119458e+01 
8
Step 1700
1  1.166564575826e+01   1.420561168788e+01   4.256140847329e+01 
1 -1.780716008594e+01   6.728260156513e+00  -2.163899212018e+01 
1 -5.327955448475e+00   3.016960354304e+01  -4.342493600481e+01 
1 -6.230628176331e-01  -3.516885719078e+01   7.764029718851e+01 
1  1.397265429292e+01   2.322851907164e+01  -3.239099496697e+00 
1 -1.879733680463e+00   2.850705916389e+01  -2.758621605490e+01 
1 -1.041696458112e+01  -9.907143137275e+00  -7.478575473541e+00 
1 -1.882704188613e+01   2.511142478879e+00  -3.440507611276e+01 
8
Step 1800
1  6.498418560951e+00  -7.735002331711e+00   4.975274548996e+01 
1 -2.410341204452e+01   3.379557244113e+01  -5.076332576587e+00 
1  1.071434454502e+01   2.343670176525e+01  -2.948490914939e+01 
1 -2.999035568925e+01   6.980151283868e+00   4.189084596639e+01 
1  1.359462081101e+01  -1.120094794367e+01   2.373459012763e+00 
1  8.616516200904e+00  -2.231797472459e+01   1.172722258963e+00 
1  1.719741793232e+01  -2.965244997847e+00   1.440506965605e+01 
1  2.239707755213e+01  -2.944664557202e+01  -1.371808942352e+01 
8
Step 1900
1  6.898713899674e+00  -2.001157775511e+01   1.974191475478e+01 
1  5.111577901078e+00   2.210412647171e+01  -1.563388441082e+01 
1  5.723441910176e-01   1.031720262748e+01  -5.441708170512e+00 
1 -2.353042910404e+01   4.348829850913e+01  -2.395210531560e+01 
1  6.214819434894e+00  -3.123246712836e+01   3.297376286149e+00 
1  1.601220253854e+01  -3.781161022970e+01   4.190798693546e+01 
1  3.097556401429e+01   1.065977272864e+01   1.130396954744e+01 
1  4.926024756075e+01  -3.924396658442e+01  -6.024332553094e+00 
8
Step 2000
1 -3.754266445499e+00  -8.352533467872e+00  -3.449553323668e+01 
1  2.802070792186e+01  -7.935296083257e+00  -2.967426449003e+01 
1 -1.527550142348e+01   3.006857632230e+00   1.577354438013e+01 
1 -6.744551281622e+00   3.158360881891e+01  -5.858784833593e+01 
1 -5.466030920510e+00  -2.706878921573e+01  -1.586811502929e+01 
1  4.930950125510e+00  -2.081479964408e+01   4.603291992692e+01 
1  1.785329044833e+01   2.407769031317e+01  -1.003599637146e+01 
1  3.763764713657e+01  -2.046179081073e+01  -1.009253922002e+01 
8
Step 2100
1 -2.914863224453e+01   1.604628186453e+01  -7.321181845103e+01 
1  1.273077532405e+01  -2.445835616179e+01  -1.005045429862e+01 
1 -6.886638652022e+00  -3.624494199102e+00   2.967069525973e+01 
1 -9.683169200381e+00  -1.909172171833e+01  -4.221570364577e+01 
1 -1.175079829287e+01  -1.545599335652e+01  -3.447764988262e+01 
1 -1.974522278983e+01  -9.259105898743e+00   8.281238786551e+00 
1 -1.151774218179e+01   2.212072319704e+01  -1.575949200264e+01 
1 -1.234159877736e+00   4.635879566264e+00  -2.408992554435e+00 
8
Step 2200
1 -4.752955520229e+01   2.633051773122e+01  -6.625492347211e+01 
1 -2.092523077546e+01  -2.332909077221e+01   3.903550201563e+01 
1  2.398165470565e+01  -1.805413063746e+01   3.687506957066e+01 
1 -2.735267293305e+01  -5.808590994468e+01  -1.475360149769e+01 
1 -2.977296075327e+00  -1.074883572352e+01  -2.348010108200e+01 
1 -3.701758974565e+01  -2.779066069551e+01  -2.451027926149e+01 
1 -3.268646602048e+01   3.631981683744e+00   6.434483343964e+00 
1 -3.637091531095e+01   1.527051892747e+01   2.248443213212e+01 
8
Step 2300
1 -3.582349199325e+01   7.094064404308e+00  -2.144229842750e+01 
1 -2.846550903256e+01  -2.015182706899e+01   6.900851320002e+01 
1  4.170563012070e+01  -3.165982206402e+01   3.471722555667e+01 
1 -2.975541149842e+01  -4.685118838900e+01  -1.725885426256e+01 
1  1.509189021961e+01  -3.737633859798e+00   1.062203002482e+01 
1 -3.210407882710e+01  -5.554890605496e+01  -1.322558813593e+01 
1 -2.759715079493e+01  -1.187914757028e+01   2.856700424394e+01 
1 -4.704023828860e+01   1.441447173507e+01   3.940609400517e+01 
8
Step 2400
1 -8.725005263960e-01  -2.801779810056e+01   2.413546912270e+01 
1  8.851745998187e-01  -1.667384831590e+01   4.342769832626e+01 
1  2.109620269811e+01  -2.601680281280e+01   1.894099288361e+01 
1 -4.431867039101e+00   4.441381769024e+00  -3.696221053172e+01 
1  2.035802873227e+01   2.109400100324e+01   2.933799931352e+01 
1 -8.900103469774e+00  -4.968053114715e+01   2.189493559189e+01 
1  2.107696185597e+00  -7.441512618896e+00   1.881859042184e+01 
1 -3.611683862893e+01   1.757006858349e+01   2.538027380305e+01 
8
Step 2500
1  2.445655760892e+01  -4.668679655056e+01   3.999326322949e+01 
1  2.960876280014e+01   3.636513646184e+00  -1.363903665117e+01 
1 -1.528798732456e+01  -1.912065435356e+00  -5.789608658037e+00 
1  2.495952885031e+01   4.922187532536e+01  -3.002349129575e+01 
1 -1.774881871234e+00   5.141386721963e+01   1.316550641414e+01 
1  1.805537432871e+01   1.069097183677e-01   2.623335220267e+01 
1  3.514812452965e+01   7.113520293381e+00  -1.328212385350e+01 
1 -1.832527501161e+01   2.728180390394e+01  -5.516027904475e+00 
8
Step 2600
1  2.216657904680e+01  -3.097561665066e+01   3.084461854571e+01 
1  2.210618796822e+01   4.125392656164e+01  -4.253496484530e+01 
1 -2.225794277833e+01   1.386752429786e+01  -2.523731442175e+01 
1  3.051606253570e+01   5.267006083162e+01   8.700730482960e+00 
1 -3.379603468036e+01   5.090072473124e+01  -8.339332926422e+00 
1  3.836912440302e+01   5.244534578920e+01  -1.309961910723e+01 
1  4.519553814593e+01   6.934126089849e+00  -2.603199933361e+01 
1 -1.043769772587e+00   2.960223910854e+01  -1.646082404337e+01 
8
Step 2700
1  1.159450980720e+01   4.452892050733e+00   2.209196182276e+01 
1 -8.914146315305e+00   6.350593730645e+01  -2.168040236829e+01 
1  4.871485986706e+00   4.348931789312e+00  -3.060479889805e+01 
1  1.806138023836e+01   2.191266510186e+01   3.633196861165e+01 
1 -4.031198352380e+01   7.634693680398e+00   6.945569572069e-02 
1  4.783941864486e+01   6.418806884449e+01  -4.756775772111e+01 
1  2.146128832232e+01  -1.081822919702e+01  -4.052065418902e+00 
1  1.909853415069e+01   1.627185675463e+01   1.433315668573e+00 
8
Step 2800
1  1.853641510381e+01   3.054406207693e+01   2.303776165891e+01 
1 -2.535863548997e+01   3.912374681068e+01   1.227023863922e+01 
1  2.081948558240e+01  -1.032870522095e+01  -2.688078171813e+01 
1  1.445856056711e+01  -1.189632988731e+01   2.899988664890e+01 
1 -8.324415283811e+00  -4.119440458121e+01   2.505484266116e+01 
1  3.986054914598e+01   4.040065142792e+01  -3.503496098898e+01 
1 -2.192411316256e+01  -2.123357251413e+01   1.871744539287e+01 
1  4.118113124595e+01  -3.575562529274e+00   1.561213158644e+01 
8
Step 2900
1  3.701032922800e+01   3.323696266033e+01   1.841094219837e+01 
1 -1.570751423167e+01  -1.830579871342e+01   1.692361182749e+01 
1 -8.262078904015e+00   2.051648214447e+00  -2.279467198074e+01 
1  2.663890275751e+01  -2.530295363104e+01   1.907756881408e+01 
1  3.466606568175e+01  -4.844339324177e+01   2.233419167755e+01 
1  9.662951943161e+00   1.995243704139e+01   3.012051282071e+00 
1 -5.309995594135e+01  -8.570434807030e+00   5.008161935990e+00 
1  5.180267980392e+01  -1.823936851169e+01  -4.694629595705e+00 
8
Step 3000
1  3.783394447582e+01   2.177653518225e+01  -3.926594980784e+00 
1 -2.623431870274e+00  -5.918919981189e+01  -5.963739469555e+00 
1 -5.357663715029e+01   3.780878918605e+01  -1.684012910101e+01 
1  3.186529018906e+01  -1.607884332641e+01   4.180068993146e+01 
1  4.820483512850e+01  -1.452138912881e+01  -1.586902903539e+01 
1 -3.052946968969e+01   2.014166909255e+01   1.475468157671e+01 
1 -4.550282032633e+01   7.634433096999e+00  -3.239642394394e+01 
1  3.745234454580e+01  -2.845162748485e+01  -4.526548901805e+01 
8
Step 3100
1  1.066185292762e+01   1.172359047956e+01  -2.946944776970e+01 
1 -3.066856307509e+00  -5.245056890745e+01  -2.412390986857e+01 
1 -5.538312681187e+01   5.379326086575e+01  -4.960041761694e-01 
1  1.079493251416e+01   2.714269335327e+00   7.058684248878e+01 
1  2.162263939880e+01   1.371706032430e+01  -4.224003788650e+01 
1 -5.279831261388e+01   1.729209133230e+01  -6.777016979073e+00 
1 -2.059987851950e+00  -2.794803934743e-01  -4.329079379426e+01 
1  2.177669817795e+00  -3.800798723905e+01  -6.039465441578e+01 
8
Step 3200
1 -2.086891506244e+01   7.085279906899e+00  -3.238429704998e+01 
1 -4.894325672678e+00  -1.754258656708e+01  -2.225311361751e+01 
1 -1.164748004937e+00   2.083911671800e+01   2.499220124277e+01 
1 -2.453278243277e+01   1.412446329480e+01   4.649140114052e+01 
1 -1.670414564759e+01   5.060303299377e+00  -1.840712355323e+01 
1 -4.099410287537e+01  -1.168973628934e+01  -1.502484713994e+01 
1  4.263231716021e+01  -2.297896270801e+01  -5.098291423432e+00 
1 -3.221512568236e+01  -3.880814746191e+01  -2.705379493394e+01 
8
Step 3300
1 -3.063376494737e+01   1.602564435726e+00  -9.953562932199e+00 
1  7.710556364876e+00   4.612393650711e+00  -1.524452538206e+01 
1  5.247923196748e+01  -3.349515483412e+01   4.339280461336e+01 
1 -4.485267199602e+01   7.382655965111e+00  -3.059206855177e+01 
1 -3.173377241503e+01  -1.567118738243e+01   2.612731919751e+01 
1 -1.165889373007e+01  -4.808052778636e+01   1.896773048534e+01 
1  5.022741947825e+01  -1.973698736956e+01   4.450506897588e+01 
1 -4.434327409587e+01  -2.044003157509e+01   2.723396768154e+01 
8
Step 3400
1 -2.246453064535e+01  -8.497135490397e+00   1.151848840708e+01 
1  2.442459863611e+01   1.733247940211e+00  -1.721739584756e+01 
1  4.874686971775e+01  -5.454713743098e+01   4.084151516494e+01 
1 -3.906794150621e+01  -1.230365661821e+01  -8.484378029697e+01 
1 -1.754083419225e+01  -5.705506203459e+00   2.948855077069e+01 
1  3.686438964077e+00  -5.282126650695e+01   5.793844666577e+01 
1  1.620480125240e+01   2.317575596688e+01   5.235699979912e+01 
1 -3.178409990841e+01   7.474831137378e+00   5.574258625079e+01 
8
Step 3500
1 -1.753087609869e+01  -1.930453888217e+01   1.065838682052e+01 
1  2.338511337041e+01  -2.925869507598e+00  -1.821851165218e+01 
1  1.021252709648e+00  -2.813431866164e+01   2.181827450470e+01 
1 -2.170494071060e+01  -2.453024957837e+01  -6.185849491179e+01 
1  3.945962170953e+00   3.064907807231e+01  -1.558155045976e+01 
1 -2.389649227988e+00  -2.136817083353e+01   4.710970760664e+01 
1 -2.530579235709e+01   6.339639507591e+01   1.466908685649e+01 
1 -9.599443166674e+00   2.126968950854e+01   4.329364227482e+01 
8
Step 3600
1 -2.084306253728e+01  -2.476828170389e+01  -3.709238370180e+00 
1  5.185976987601e+00   1.065772515901e+01  -2.298220274005e+00 
1 -2.992867250549e+01   7.805371800201e+00   1.029469449557e+00 
1 -7.962654279977e+00  -1.148985521908e+01  -1.056791315737e+00 
1  1.215817239080e+01   4.425835717761e+01  -4.888455859968e+01 
1 -6.352300816194e+00   8.417980825873e+00  -1.001923653586e+01 
1 -3.588171076940e+01   4.916050830276e+01  -2.352799937079e+01 
1  6.068307167911e+00   1.447439122454e+01   1.301710304738e+01 
8
Step 3700
1 -1.794692614116e+01  -2.278227142811e+01  -8.048495071215e+00 
1 -6.270134315696e+00   3.221553469535e+01   2.417258433093e+01 
1 -1.363214467303e+01   1.631320250477e+01  -1.381708287458e+01 
1  2.938902048040e+00   1.986692605100e+01   1.613748299183e+01 
1  6.710414123838e+00   8.105982104520e+00  -2.162820322677e+01 
1  1.169824648489e+01   4.853109459830e+00  -5.244842220826e+01 
1 -1.013065766004e+01  -1.435987154840e+01  -2.499531964360e+01 
1  1.010595864401e+01   9.522873480687e+00  -6.122408718745e+00 
8
Step 3800
1 -2.038642086898e+00  -1.424700773687e+01   1.372313546457e+00 
1  1.880512722828e+00   3.660943821287e+01   3.717831755630e+01 
1  1.861004220770e+01   5.042149964067e+00  -2.388563562163e+01 
1  1.731361030089e+01   3.815738581664e+01  -2.524018873137e+01 
1 -3.409860192129e-01  -4.202984994618e+01   3.770610178483e+01 
1  3.715978945197e+01  -1.731992302854e+01  -3.837337435980e+01 
1  2.205826260099e+01  -6.503917831026e+01  -2.182354540973e-01 
1  7.642553587829e+00   2.663179475507e+01  -8.445455445303e+00 
8
Step 3900
1  1.261247444700e+01   5.078010819282e-01   2.959906870793e+00 
1  1.176857940637e+01   1.535282745361e+01   2.590844998673e+01 
1  2.304583842442e+01   3.368825796314e+00  -2.714599369043e+01 
1  3.092875757562e+01   1.780446719776e+01  -5.592065778800e+01 
1 -2.618803218872e+00  -4.994980859046e+01   5.819372304014e+01 
1  3.635628894062e+01  -1.843702306205e+01   5.256487061818e+00 
1  2.825261065123e+01  -5.312416905853e+01   1.402511155061e+01 
1  5.490463902118e+00   4.985288843208e+01  -7.739581459399e+00 
8
Step 4000
1  1.177050615867e+01   1.998507051973e+01  -1.752943527062e+01 
1 -1.558122183121e+00  -1.563561940238e+01   6.841790341700e+00 
1  8.605644207514e-01   1.244681232051e+01  -1.625633381690e+01 
1  3.292638548505e+01  -2.975937581873e+01  -1.713850566692e+01 
1 -4.759621089288e+00  -9.553419509527e+00   1.531339761544e+01 
1 -1.299928814234e-01   1.306708268077e+01   2.194796216906e+01 
1  4.225857017828e+00   3.787121702974e+00   2.116834383973e+00 
1  6.082258957418e+00   4.121020170312e+01  -1.414311749659e+01 
8
Step 4100
1  4.361700407346e+00   3.523756755456e+01  -3.900909567016e+01 
1 -3.394593571062e+01  -3.435370806077e+01   2.995227855944e+00 
1 -1.124507778407e+01   3.545143677315e+00   6.881453141982e+00 
1  2.132691732303e+01  -5.908231714874e+01   5.968376622673e+01 
1 -1.216862375487e+01   2.812987913192e+01  -3.971893436984e+01 
1 -4.040928177172e+01   4.484705351701e+01  -3.155439518150e+00 
1 -2.654862627019e+01   4.271976774913e+01  -1.682013177947e+01 
1  7.797149713338e+00  -9.355156336738e+00  -2.150885648198e+01 
8
Step 4200
1  1.134956174495e+01   3.245441965894e+01  -2.387225827481e+01 
1 -5.159167774332e+01  -3.316395793868e+01   1.430838094145e+01 
1  1.496089797784e+00  -3.029844817007e+01   2.296341312295e+01 
1  6.563530808189e+00  -3.418819990125e+01   9.246941919388e+01 
1 -2.031095636067e+01   2.172553792949e+01  -4.439064490039e+01 
1 -4.390065109543e+01   4.232799185033e+01  -2.932876634502e+01 
1 -3.791041258731e+01   2.697967124917e+01  -1.874984137569e+01 
1  8.240228038221e+00  -6.145892642903e+01  -1.705485267075e+01 
8
Step 4300
1  3.222067090076e+01   7.483902249981e+00   3.274040814723e+01 
1 -3.084630446364e+01  -2.011949876783e+01   1.685732046820e+01 
1  9.903402834487e+00  -4.766159983163e+01   1.371357478674e+01 
1 -3.163955269301e+00   3.008281864252e+01   5.662793305159e+01 
1 -1.689168682726e+01  -5.847779084214e+00  -1.715868313627e+00 
1 -6.852312199102e+00   1.381196705972e+01  -1.921646981442e+01 
1 -2.326911213642e+01  -1.601730992418e+01  -5.448247432984e+00 
1  6.203036471935e+00  -6.787380271882e+01   9.034919544985e-01 
8
Step 4400
1  3.890416216419e+01  -2.333041814903e+01   8.464854138683e+01 
1  1.323647281248e+01  -5.511536590260e+00  -7.712126701381e+00 
1 -1.211535260512e+01  -7.535062653866e+00  -1.340802904560e+01 
1 -1.149559683220e+01   7.662499166732e+01   9.728629156354e+00 
1  4.963809545990e+00  -2.183671459509e+00   3.057677330503e+01 
1  3.468562289257e+01  -2.597358353855e+00   1.338979390369e+01 
1  5.478494417328e+00  -3.247110963622e+01   3.775735735010e+00 
1  1.516797225500e+00  -2.935348776412e+01   1.819100949133e+01 
8
Step 4500
1  1.272808285165e+01  -3.355246019053e+01   7.914648378272e+01 
1  4.396139263732e+01   6.545387074009e+00  -4.729567381014e+01 
1 -4.059655872524e+01   6.260375242592e+01  -2.797052753119e+01 
1 -2.459413907635e+01   6.189415194316e+01   3.790987942229e+00 
1  3.520306280031e+01   3.588748768328e+01   1.772025430764e+01 
1  4.434242690499e+01   7.943403448643e+00   2.810767080317e+01 
1  3.115213849285e+01  -4.761406078094e+00   2.207138158855e+00 
1 -5.128922430951e+00   7.262956595760e+00   1.878462916146e+01 
8
Step 4600
1 -2.568082548120e+01  -1.395049908632e+01   1.764469280907e+01 
1  4.376600708284e+01   1.654898459874e+01  -6.942011992681e+01 
1 -3.048766019340e+01   8.465962248721e+01  -1.133219518549e+01 
1 -3.632429160158e+01   9.240427077862e-01   1.114542953889e+01 
1  5.192939000380e+01   5.138961870007e+01  -1.234692913031e+01 
1  2.018715795567e+01   1.702636796882e+01   1.605703046956e+01 
1  4.165381978061e+01   3.486476287453e+01   3.329163362397e+00 
1 -1.177484728663e+01   1.013327822673e+01   2.818138452551e+00 
8
Step 4700
1 -3.957771134527e+01   1.488311006600e+01  -4.492742480028e+01 
1  2.485205006588e+01   2.483761179874e+01  -5.265860210886e+01 
1  1.669291344414e+01   2.424026113731e+01   2.026279348105e+01 
1 -3.123667269188e+01  -5.058833359643e+01  -2.422282560367e+01 
1  3.957915863021e+01   5.666058039699e+00  -1.686223804579e+01 
1 -1.350158225347e+01  -4.776113115004e+00   5.288778499578e+00 
1  3.213377152816e+01   4.687676418530e+01   1.631054851002e+01 
1 -1.487794198026e+01  -1.845228724531e+00  -1.256302291834e+01 
8
Step 4800
1 -2.286710779537e+01   2.183386461207e+01  -6.078126366230e+01 
1  5.985890993737e+00   2.971408190897e+01  -6.477771641498e+00 
1  4.588392000293e+01  -5.827004779983e+01   3.428321386990e+01 
1 -5.139234225543e+00  -5.335660999388e+01  -8.847244015015e+01 
1  4.270660237739e+00  -6.050571462108e+01   2.571870052615e+00 
1 -3.447041508856e+01  -4.370804779193e+01   1.237313928070e+01 
1  7.308492896178e+00   2.372742143480e+01   2.797329130494e+01 
1 -1.103203162713e+01   5.363166155117e+00  -1.093824824843e+01 
8
Step 4900
1 -6.027676601498e+00  -6.360107323199e-01  -3.806780946066e+01 
1 -6.959081108712e+00   2.766607323043e+01   3.818199157760e+01 
1  2.131413284170e+01  -7.647091877673e+01   1.983589044840e+01 
1  2.429771852751e+01  -1.941416916625e+01  -1.050621433230e+02 
1 -3.038853646936e+01  -7.318442620528e+01   1.167751813108e+01 
1 -3.577130020412e+01  -5.948379897675e+01   1.717582928438e+01 
1 -1.822195972431e+01  -1.310565917275e+01   1.909669890354e+01 
1 -4.848215785887e-01   2.864945057610e+01   5.169991519087e+00 
8
Step 5000
1 -1.215722631769e+01  -2.762569365518e+01  -1.839116892265e+01 
1 -1.525591189681e+01   1.441772627141e+01   5.581406258650e+01 
1 -2.225040181614e+01  -2.149766804052e+01  -4.056135386548e+00 
1  3.322542934091e+01   1.112738426925e+01  -4.208726666220e+01 
1 -4.445895155331e+01  -1.911027541033e+01   1.228624112961e-01 
1 -1.940023036166e+01  -3.768091759577e+01  -1.708738235676e+00 
1 -2.973422880843e+01  -4.030093079995e+01  -8.262726611665e+00 
1  1.121700607414e+01   3.476912694723e+01   1.728032870795e+01 
8
Step 5100
1 -2.609084522211e+01  -2.789975621776e+01  -2.063248983126e+01 
1 -1.620012345728e+01  -1.032708095409e+01   4.351477116616e+01 
1 -2.276969041751e+01   3.313993040159e+01  -1.503234098205e+01 
1  1.389599101610e+01   1.470753452231e+01   3.583204767105e+01 
1 -3.587348951229e+01   3.821624376978e+01  -4.908968502226e+00 
1  7.694701199505e+00  -4.195365682828e+00  -2.819855840283e+01 
1 -2.474655733813e+01  -4.536695035800e+01  -2.975969866725e+01 
1  1.554393075321e+01   1.160919381439e+01   1.169657445913e+01 
8
Step 5200
1 -1.695809589316e+01   2.044466049408e+00  -2.333587264593e+01 
1 -9.101120823232e+00  -3.722804449719e+01   2.048379191826e+01 
1  2.582190233186e+01   2.550322366609e+01  -1.155451204642e+01 
1 -1.757442800795e+01   1.255723291758e+00   4.767554994721e+01 
1 -1.774085420593e+01   3.795287915779e+01   1.520504875476e+01 
1  2.996332045252e+01   1.247270741574e+01  -2.742363243748e+01 
1 -1.449752063333e+01  -2.663637504921e+01  -2.571274241597e+01 
1  7.821513502105e+00  -1.169054847585e+01  -4.478829875161e+00 
8
Step 5300
1  1.849268631548e+01   3.348325106580e+01  -1.652201943109e+00 
1 -3.891806739535e+00  -4.995381456250e+01   8.836478375679e+00 
1  6.158751044627e+01  -2.227923833912e+01  -6.728851748833e+00 
1 -3.465721721303e+01  -6.524684428218e+00   1.888365403044e+00 
1 -2.794264208973e+00  -6.265691997648e+00   3.518478685226e+01 
1  2.964358504803e+01   1.626805902530e+01   3.482707456002e+00 
1 -8.797708827308e+00   5.834412350862e+00  -2.153225460113e+00 
1 -7.821495683935e+00  -4.970428398152e+00  -1.182013438660e+01 
8
Step 5400
1  5.005516327395e+01   3.486705931628e+01   3.467602826516e+01 
1 -1.092086293488e+01  -3.754090317635e+01   1.203046873084e+01 
1  3.138187722470e+01  -4.018885980618e+01  -6.537903878395e+00 
1 -2.147290792632e+01   1.255022487380e+00  -1.784753901889e+01 
1  6.901697999094e+00  -3.106702431185e+01   1.613952772540e+01 
1  5.776935301405e+00   2.857775641913e+01   2.575732080068e+01 
1 -3.339784770296e+00   3.033759411651e+01   1.723397805965e+01 
1 -2.039191269733e+01   2.010030965294e+01  -2.220469557340e+00 
8
Step 5500
1  5.059547396577e+01   4.912542467335e+00   5.182644850346e+01 
1 -2.221331158051e+01  -6.202906101293e+00   1.124242508695e+01 
1 -3.939949082772e+01  -1.323491662947e+00  -3.910120373379e+00 
1  1.330424898563e+01   1.725927102265e+01   3.149207978329e+01 
1  1.640965231280e+01  -5.817207444386e+00  -3.636613176347e+01 
1 -1.728861318816e+01   4.929451910894e+01   7.754269639756e+00 
1  1.201440080441e+01   2.873511401029e+01   1.600769195589e+01 
1 -1.968643518165e+01   2.368947763855e+01   1.022757409929e+01 
8
Step 5600
1  2.517896776959e+01  -2.550053188851e+01   3.508979363769e+01 
1 -1.564571735372e+01   2.444766690988e+01  -1.226356027114e+01 
1 -7.391708724864e+01   4.836758712841e+01   5.560010465253e+00 