8
Step 0
1 -4.335052367192e+01   6.226770353478e+01  -1.571831079641e+01 
1 -4.197517804778e+01   5.557624918835e+01   6.050689884240e+01 
1  4.062082842113e+01  -6.869837660098e+01  -6.406602060552e+00 
1  3.202042668263e+01  -9.333787405458e+00   7.585091136361e+01 
1  2.169421302650e+01  -5.304981751903e-01  -3.452327492586e+01 
1  2.479565131470e+00   3.727202342153e+01  -7.541307749490e+01 
1  3.539535683763e+01   1.835259957186e+01  -5.811004072382e+01 
1  1.040422054410e+01   7.251222155371e+01   5.312714128624e+01 
8
Step 100
1  1.106773861749e+01   3.628727839175e+01  -1.679929784695e+01 
1 -3.617426545959e+01  -9.834818178746e+00   4.897241186622e+01 
1 -4.505258052072e+00  -6.776929238063e+01   3.722971155269e+01 
1  1.051974207588e+01  -2.097548090688e+00   6.399771854138e+01 
1  4.092495988564e+01  -1.596710501221e+01   1.185984258521e+01 
1  7.123483768448e+01   7.435876709070e+01  -6.334270527563e+01 
1  1.840974824335e+01  -9.994557089017e+00  -5.492114388653e+01 
1  7.484783077013e-01   1.667571512513e+01   5.240424848461e+01 
8
Step 200
1  6.963088207755e+01  -1.075896381807e+00   5.176431821056e+00 
1  1.242790723610e+01  -6.792854088614e+01  -4.029539812905e+01 
1 -4.809706637983e+01  -3.221187961973e+01   4.013926023964e+01 
1  1.962855625381e+00   3.755517503471e+00   1.446691598061e+01 
1  2.712028541884e+01  -1.729924528421e+01   4.250573131151e+01 
1  9.309044787426e+01   5.689902740438e+01  -1.324746521559e+01 
1 -1.637196072379e+01  -2.761323846152e+01  -3.731263861777e+01 
1 -9.131524172726e+00  -3.856137249493e+01  -1.964867617089e+01 
8
Step 300
1  8.401643166754e+01  -3.008179447497e+01   2.805860299946e+01 
1  2.299101671320e+01  -4.990930387562e+01  -1.061060691977e+02 
1 -5.555209006071e+01   6.668100911066e+00  -1.185758349918e+01 
1 -9.653535522080e-01  -1.056213195042e+01   1.276265861296e+01 
1 -4.947883709904e+00  -1.490298568919e+01   1.767392574919e+01 
1  3.337915739710e+01   3.358165227857e+01   1.559827871897e+01 
1 -3.009850200428e+01  -4.212235225147e+01  -7.163602920678e-01 
1 -1.866779117426e+01  -6.167198895100e+01  -6.749623749750e+01 
8
Step 400
1  4.688736154173e+01  -3.438768879677e+01   3.135145497105e+01 
1 -1.847210973486e+01   1.847798531852e+01  -7.974686712204e+01 
1 -2.790884267787e+01   2.450046791167e+01  -6.199628977874e+01 
1 -4.563613682356e+00  -2.525006458312e+01   6.001284060336e+01 
1 -2.569857616478e+01  -1.837835150287e+01  -2.028612871512e+01 
1 -5.307215741064e+01   3.851806106700e+01   8.755359371645e+00 
1 -1.342889120328e+01  -5.713503754002e+01   4.051026610631e+01 
1 -2.333872464851e+01  -5.549469077850e+01  -3.402409194521e+01 
8
Step 500
1  1.183397399094e+00  -1.382338802843e+01   1.485833379032e+01 
1 -4.850113967324e+01   5.528022249432e+01  -2.158051162754e+00 
1 -4.176277192993e-02   2.306469974420e+01  -5.922627930403e+01 
1 -3.575334362100e+00  -1.766137956471e+01   8.093303885601e+01 
1 -2.347979557525e+01  -2.486158938244e+01  -1.773982183169e+01 
1 -8.587662594407e+01   5.643335707884e+01   1.977464237437e+00 
1  8.260554966694e+00  -5.643531035452e+01   5.772451469544e+01 
1 -2.042350893969e+01  -3.208057012747e+01   3.614011775423e+01 
8
Step 600
1 -1.211244133180e+01   1.207539632801e+01  -4.514646552823e+00 
1 -1.885681625702e+01   2.262412914608e+01   3.983416901654e+01 
1 -5.856697111820e-01   2.287844961554e+01  -1.469919799001e+01 
1  3.858264614333e+00   3.675465680141e+00   3.152069485329e+01 
1 -1.326654017548e+01  -1.953934182453e+01   1.499537119211e+01 
1 -4.343176515055e+01   4.795346842845e+01   1.828095632254e+01 
1  8.706703703813e+00  -2.175373841790e+01   3.797172615171e+01 
1 -1.002575665084e+01   1.754362687630e-03   6.134124829774e+01 
8
Step 700
1  3.057755271096e-01   1.789358208416e+01  -1.008439859425e+01 
1  3.947613373061e+01  -3.454432877562e+01   1.714927381608e+01 
1 -2.079069627151e+01   3.450171188141e+01   2.059555105908e+01 
1  6.688488093324e+00   1.220234537729e+01  -4.252990862209e+01 
1 -1.248838299388e+01   6.325783480229e+00   2.206352740717e+01 
1  2.298592037724e+01  -3.468429812717e+00   3.489555331151e+01 
1 -1.003666122966e+01   3.533764548981e+01   1.748802673487e+00 
1  5.757597903007e+00   2.625621100692e+01   1.914787642950e+01 
8
Step 800
1 -7.782678936642e-01  -2.797277100018e+00  -1.563399338688e+00 
1  5.786343662359e+01  -4.857489471355e+01  -1.845304104743e+01 
1 -2.627995048907e+01   3.952845517232e+01   1.910408281529e+01 
1 -4.889526827447e+00   1.993806243856e+00  -6.730525135644e+01 
1 -1.478243064771e+01   3.646559495516e+01  -1.594796991957e+01 
1  5.042551840500e+01  -6.891360256549e+01   2.262639062127e+01 
1 -2.161234831491e+01   7.199252567951e+01  -1.698278498500e+01 
1  2.098374895074e+01   2.873948096083e+01  -3.442417373059e+01 
8
Step 900
1 -3.062333940600e+01  -2.822355512654e+01   5.601586759400e+00 
1  2.002778886135e+01  -1.120451958507e+01  -1.238800159553e+01 
1  1.253140885416e-01   1.163254706945e+01   2.858222778937e+00 
1 -2.238548019403e+01  -4.317318510492e+00  -3.874929777752e+01 
1  8.350480965693e-01   4.070486662705e+01  -5.138544088421e+01 
1  2.963518491754e+01  -1.008932581015e+02  -5.232921235744e+00 
1 -8.040180714122e+00   5.839006703057e+01  -9.771587739794e+00 
1  2.599971236387e+01   8.966949545993e+00  -4.124880478721e+01 
8
Step 1000
1 -5.906827541676e+01  -2.931443035381e+01  -2.932986135245e+00 
1 -2.470201690875e+01   2.887110988617e+01   2.506109975280e+01 
1  3.792043395087e+01  -4.284933023671e+01   4.778739196139e+00 
1 -2.662312093946e+01   9.155267562836e+00  -1.702361099393e+01 
1  3.491510898782e+01   8.601680881063e+00  -3.356530935060e+01 
1 -3.614975947350e+00  -7.584032549736e+01  -1.126229045954e+01 
1  1.878326630682e+01   1.151406307655e+01   9.712628607315e-01 
1  1.363145630809e+01  -6.724817173620e+00  -6.549500318828e+00 
8
Step 1100
1 -4.903188134999e+01  -4.971005926441e-01  -2.499422101592e+01 
1 -2.959947983240e+01   3.268072940003e+01   4.312636663193e+01 
1  5.220778257824e+01  -7.734167270399e+01   2.570095177126e+01 
1 -1.139623254633e+01   2.434392600883e+01  -3.678583959337e+01 
1  5.552727544503e+01  -3.210115794610e+01   2.170382112808e+01 
1 -1.952575253869e+01  -1.531080375263e+01   8.869833978987e+00 
1  2.959118423247e+01  -2.127279032488e+01  -5.732305496525e+00 
1 -1.039904120497e+01   4.060747849081e+00   2.051150669903e+01 
8
Step 1200
1 -3.697698487322e+00   3.162153673228e+01  -4.254357716330e+01 
1 -6.113350433395e+00   1.201036278187e+01   2.363942600843e+01 
1  3.310445362819e+01  -5.328032914472e+01   3.840713396886e+01 
1  8.287413703303e+00   1.091126145418e+01  -5.893291214528e+01 
1  3.308646936178e+01  -4.142336099718e+01   5.068822350041e+01 
1 -2.005747647621e+01   3.325430132138e+01   1.599234543418e+01 
1  1.126317455478e+01  -1.501395599459e+01  -2.116771626046e+01 
1 -2.744897263266e+01   2.845920924665e+01   1.444852479070e+01 
8
Step 1300
1  3.833660758833e+01   3.445955949927e+01  -3.753343778381e+01 
1  3.961181064554e+00  -1.322560198392e+00   9.606346281115e-01 
1  2.995498002917e+00   1.088794544664e+01   2.446671250445e+01 
1  1.515822753783e+01  -2.899195580939e+01  -2.915486414333e+01 
1 -1.972770807991e+01  -1.104698585804e+01   2.385680339123e+01 
1 -1.722411465416e+01   3.971949801379e+01  -1.535258802157e+01 
1 -1.732064445322e+01   7.506511199863e+00  -2.000944888836e+01 
1 -2.204835783656e+01   3.107637110391e+01  -1.287420094635e+00 
8
Step 1400
1  4.705092414409e+01   4.079698453172e+00  -8.001310475037e+00 
1 -9.442115471081e+00  -1.863779105744e+00   7.946002672301e+00 
1 -1.273058848320e+01   5.322651341502e+01  -6.784985143608e+00 
1  9.523755577026e+00  -5.307756494345e+01   4.156048492575e+01 
1 -5.520484938863e+01   2.655313013807e+01  -1.844047837986e+01 
1 -8.699797115276e+00   1.677570482739e+01  -5.309554853075e+01 
1 -2.492155638985e+01   7.615624210963e+00   3.041403088610e+00 
1  1.061008816688e+00  -2.015748643179e-01   3.862235309715e+00 
8
Step 1500
1  2.837547478376e+01  -2.824063099910e+01   2.957887464744e+01 
1 -1.610641942958e+01  -7.383967571962e+00   2.665166404505e+01 
1 -1.341206024045e+01   3.745574021156e+01  -3.383868583091e+01 
1  5.240509865401e+00  -2.569564728179e+01   8.691117948598e+01 
1 -4.269643461841e+01   3.602232511611e+01  -2.172648136461e+01 
1  1.211444651630e+01   3.979410310219e+00  -4.525593635931e+01 
1 -2.944294320287e+00  -2.050392409759e+01   2.245223464814e+01 
1  1.943160852631e+01  -3.470363809129e+01   2.250166389411e+01 
8
Step 1600
1  6.289468062819e+00  -2.800936571501e+01   5.398859241413e+01 
1  3.582258908837e+00  -2.023304008612e+01   1.291884156958e+01 
1 -1.555903060585e+01  -5.773544924372e+00  -4.475783039944e+01 
1  9.671089334313e+00   3.619252124007e+01   7.048958639809e+01 
1 -2.210350872275e+00   1.726337325818e+01   1.165737619057e+01 
1  3.398263399936e+01   2.324436481555e+01   7.929333274260e+00 
1  2.426757324951e+01  -4.465729459457e+01   1.378223313836e+01 
1  1.622132770581e+01  -3.596573626975e+01   2.183723225770e+01 
8
Step 1700
1 -6.464918087020e+00   6.183148921774e+00   5.405809279652e+01 
1  2.679940267323e+01  -1.847466212862e+01  -3.984041479690e+01 
1 -2.438563889913e+01  -1.882478322319e+01  -3.785122710149e+01 
1  1.608034212103e+01   7.486371801445e+01   2.604653148263e+01 
1  2.232863925043e+01  -2.918050875471e+00   3.071085563343e+01 
1  3.396933399345e+01   5.340753668862e+01   4.798976118118e+01 
1  2.561873972579e+01  -3.556588507038e+01  -1.352448754381e+01 
1 -1.915443671018e+00  -6.896916398065e+00  -8.497104851048e+00 
8
Step 1800
1 -1.132090612446e+01   3.973764461930e+01   3.388196088885e+01 
1  2.078120488971e+01   7.754533587761e+00  -8.394856203212e+01 
1 -2.584860128978e+01   1.098084278227e+01  -1.425791456226e+01 
1  1.521941799355e+01   5.173822917446e+01   4.602125155123e+00 
1  1.571853213162e+01  -8.743568562803e+00   6.382855062565e+00 
1  8.100178353559e+00   5.318104165574e+01   3.115745239781e+01 
1 -2.407237788280e+00  -8.538539976962e-01  -2.557108774955e+01 
1 -1.245423685354e+01   1.546799602093e+01  -3.990099873034e+01 
8
Step 1900
1 -8.724746639144e+00   3.709107834434e+01   5.290815845729e+00 
1 -9.018356457020e+00   3.173737684620e+01  -7.100205740540e+01 
1 -9.399254177691e+00   3.789856011274e+01   1.897804755475e+01 
1  6.369965698767e+00  -1.205710500051e+01   6.605548310374e+00 
1  4.062798564768e+00  -1.076364619146e+01  -3.185132024869e+01 
1 -1.919143139453e+01   9.644033747140e+00  -1.524069439692e+01 
1 -3.166614914186e+01   2.774211003113e+01  -5.645177384477e+00 
1 -2.423180381177e+00   8.426028324608e+00  -4.011779310118e+01 
8
Step 2000
1  3.329418586300e+00  -1.761239495670e+00  -2.238133356040e+01 
1 -2.459369392625e+01   2.016465712983e+01  -8.115403639257e+00 
1  1.202127619632e+01   1.933492817270e+01   4.230910492640e+01 
1 -6.286104027673e+00  -5.871852572322e+01  -6.642532316556e+00 
1  1.354793087133e+01  -2.103405743545e+01  -3.826874575437e+01 
1 -2.420940839269e+01  -4.304205189337e+01  -2.862461385870e+01 
1 -3.248835975304e+01   3.132875435238e+01   2.423848626988e+01 
1  1.705624122399e+01  -1.063895080733e+01  -1.173981756750e+01 
8
Step 2100
1  1.524707772331e+01  -4.079337700513e+01  -4.514957163658e+01 
1 -7.183669172725e+00  -1.904481747680e+01   5.050452626331e+01 
1  1.597026081470e+01  -2.708786225028e+01   3.612050024223e+01 
1 -2.094719621297e+01  -5.389761555762e+01  -4.562431053180e+01 
1  3.140777353574e+01  -2.853222199981e+01  -1.059259843799e+01 
1 -1.367653839406e+01  -6.045129948075e+01   7.112691983613e+00 
1 -5.196831995006e+00   1.828033094044e+01   2.990689454432e+01 
1  2.317399083967e+01  -1.388784044709e+01   1.438972013779e+01 
8
Step 2200
1  7.082574224900e+00  -4.453999990760e+01  -5.853790088855e+01 
1  1.827083264583e+01  -4.111934962204e+01   6.345820442591e+01 
1  1.732644870947e+00  -4.665410888680e+01   5.082124123179e+00 
1 -3.456288718728e+01  -1.654902399754e+01  -7.109929931025e+01 
1  2.233861758897e+01  -1.333192355357e+01   1.402335652223e+01 
1 -1.175834163699e+01  -3.889336551971e+01   4.336512488982e+01 
1  2.217958078354e+01   4.972447626702e+00   6.878135733909e+00 
1  6.098930852190e+00  -3.010560790455e+00   1.873144516650e+01 
8
Step 2300
1 -2.566965373147e+01  -1.221434109522e+01  -5.321436847029e+01 
1  1.912978776242e+01  -1.997294060336e+01   3.843919029595e+01 
1 -5.890788614963e+00  -1.894356783328e+01  -1.990266626941e+01 
1 -3.635766944508e+01   1.067168268083e+01  -4.984110707082e+01 
1 -2.108032097371e+01   2.038176182440e+01   1.373964263606e+01 
1 -2.202957155225e+01  -1.697154060665e+01   3.401075040900e+01 
1  2.522022645963e+01  -3.061183040885e+00  -1.568494653518e+01 
1 -2.183437549891e+01  -7.958641464164e-01   1.190458785335e+01 
8
Step 2400
1 -5.535182560047e+01   2.396212620406e+01  -2.190328861362e+01 
1 -1.561377868868e+00   1.895052642092e+01   9.895213236573e+00 
1  1.092934974922e+01   1.721859398256e+01  -1.317863025078e+01 
1 -1.618207507684e+01   9.872704687599e+00  -4.322958019215e+00 
1 -6.065493296908e+01   4.173315155820e+01   5.997281193072e+00 
1 -1.955584390037e+01  -2.462455009656e+01  -5.899147924690e+00 
1  6.781310121605e+00  -5.950222436502e+00  -1.209090089373e+01 
1 -3.901001305030e+01  -9.331123791539e+00   1.309523274602e+01 
8
Step 2500
1 -4.578350066952e+01   3.086378647280e+01   2.647646725355e+01 
1 -1.306136615947e+01   3.189049596875e+01  -2.335568962004e+00 
1  3.551743000148e+01   1.519501487645e+01   1.404554420483e+01 
1  1.705257133859e+01   1.635810418846e+00   1.621149497806e+01 
1 -5.285819658172e+01   2.904924165374e+01   1.204474034906e+01 
1  1.276096895567e+01  -4.143440804333e+01  -2.587189559999e+01 
1 -9.843196804733e+00   3.078747857522e-01   8.324766108425e+00 
1 -3.333599495023e+01  -4.201931601110e-01   2.241328955553e+01 
8
Step 2600
1  4.367445803164e+00   5.108172877710e+00   6.477219222524e+01 
1 -2.880283027332e+00   1.311383009536e+01  -3.611769277485e+00 
1  3.417652421383e+01  -1.899092720433e+01   2.426323959463e+01 
1  3.552594854492e+01   1.318466321115e+01   3.949293182018e+00 
1 -2.439286532419e-02  -2.692967674732e+00   2.005107293954e+01 
1  5.202377373235e+01  -1.973487217588e+01  -1.207887504693e+01 
1 -8.200413143103e+00   1.478713575500e+01   1.452135092391e+01 
1 -9.287710338517e+00   4.040977069988e+01   2.346814705038e+01 
8
Step 2700
1  5.356026101364e+01  -2.677292800103e+01   6.671659473102e+01 
1  6.566758714155e+00  -2.078483174097e+00  -3.641878577481e+00 
1 -1.531001169928e-01  -3.548365526515e+01  -1.144913946585e+00 
1  2.189508040315e+01   4.141340625401e+01  -1.210081981228e-01 
1  5.004615006113e+01  -2.062708752755e+01   5.170749961231e+00 
1  5.544935857696e+01   4.971525622225e+01  -3.085386004223e+00 
1  5.214965198653e+00   1.867168541211e+01  -5.555251472888e+00 
1  1.908406848012e+01   7.623270845779e+01   7.828686894185e+00 
8
Step 2800
1  6.084197547111e+01  -3.431527082244e+01   3.304645462006e+01 
1 -5.738015823355e+00   9.067525515400e+00  -3.910905711240e+00 
1 -3.478721744176e+01  -5.471248640598e+00  -3.620537890954e+01 
1 -3.049962746797e+00   5.350227675392e+01   2.886153132355e+01 
1  5.529739769663e+01  -1.402447650824e+01  -2.366480037888e+01 
1  1.441006021804e+01   1.119085273868e+02  -2.751988679710e+01 
1  1.146438067304e+01  -8.352635539186e+00  -2.887323634322e+01 
1  3.791309534952e+01   5.232899638470e+01  -1.475258596652e+01 
8
Step 2900
1  3.072748988152e+01  -8.955274905886e+00  -6.997893635155e+00 
1 -2.473756193565e+01   2.171897995882e+01  -5.771421578264e+00 
1 -3.613748285626e+01   4.183796188193e+01  -4.038178080988e+01 
1  4.114532208838e-01   2.376102087791e+01   5.839141913814e+01 
1  2.178288940670e+01  -2.393180184448e+00  -2.699671409826e+01 
1 -2.921230017785e+01   1.038767131329e+02  -5.387745707883e+01 
1  1.703286131587e+00  -5.238700162330e+01  -2.650254403668e+01 
1  3.854636460016e+01  -2.864315905385e+01  -3.121230438520e+01 
8
Step 3000
1  3.171182514565e+00   3.131822021430e+01  -2.501043258242e+01 
1 -2.013942933752e+01  -6.584320026990e-02  -1.469737912374e+01 
1 -1.138350841296e+01   5.660824349177e+01  -9.460551167044e+00 
1  3.733359049528e+01  -3.376545354580e+01   4.674406103664e+01 
1 -1.087115484155e+01  -2.754022413119e+00   6.752492158712e+00 
1 -3.275330251129e+01   2.966485922637e+01  -3.069113309990e+01 
1 -1.417012212120e+01  -6.511633965739e+01  -2.079284442678e-01 
1  2.015090237855e+01  -9.237869647983e+01  -3.877131434979e+01 
8
Step 3100
1  2.936879278377e+00   5.685789019276e+01  -2.164956700973e+01 
1  6.642646565238e+00  -4.446169427296e+01  -2.805080370347e+01 
1  2.939590747938e+00   2.877499028112e+01   1.863883317429e+01 
1  6.042887431127e+01  -7.284347715373e+01   1.058923547436e+01 
1 -1.828808050104e+01  -5.751612489994e+00   3.316396373258e+01 
1 -7.084212066953e+00  -4.057388828706e+01   3.394865084798e+01 
1 -1.978767764835e+01  -1.965071297078e+01   2.018764202001e+01 
1 -6.777782926076e+00  -7.597738733828e+01  -3.837250198367e+01 
8
Step 3200
1  1.414153656546e+01   4.771954614274e+01  -1.823669938998e+01 
1  2.236932370694e+01  -5.946204985529e+01  -3.047609377670e+01 
1 -8.082537600279e+00  -8.102402899932e+00   1.467498229006e+01 
1  2.562523431397e+01  -5.899928488435e+01   2.186553815269e+00 
1 -1.309842834395e+01   3.801328194999e+00   9.002994368705e+00 
1  1.035798799357e+00  -5.372308380000e+01   7.224589389559e+01 
1 -9.712387349926e+00   4.476844568200e+01   1.527378608403e+01 
1 -2.402305600020e+01  -7.879815140766e+00  -2.424695953327e+01 
8
Step 3300
1  9.297276067251e+00   6.864209237714e+00  -2.290395958436e+01 
1  1.113192473207e+01  -2.205741339700e+01  -1.369706646717e+01 
1 -1.970193913119e+01  -2.618879327156e+01  -3.633992608393e+00 
1 -4.637478263373e+01  -3.329064121027e+00   2.474701860488e+01 
1 -1.647913565128e+01   1.668374762895e+01  -4.127107919550e+01 
1 -2.333313323940e+01  -3.027889136670e+01   4.438043832831e+01 
1  7.129824021999e+00   6.177544414687e+01  -1.608309582099e+00 
1 -2.006684298951e+01   2.921176500545e+01   7.492939664063e+00 
8
Step 3400
1 -1.455048509029e+01  -4.009482579219e+01  -1.961364751743e+01 
1 -3.221293414428e+00   2.857862686561e+01   6.452269257884e+00 
1 -6.924922766740e+00  -2.880302300701e+01   1.172961815530e+00 
1 -8.718950838909e+01   4.749341316097e+01   2.081087949110e+01 
1 -2.486907546193e+01   1.072453223467e+01  -5.076352052910e+01 
1 -4.177746553613e+01  -2.283639008851e+01  -9.597235680118e+00 
1  1.740157993405e+01   1.887519352470e+01  -5.294443132841e+00 
1 -2.280229786638e+00   3.562644457764e+00   4.219916450303e+01 
8
Step 3500
1 -3.924836973671e+01  -6.089725667934e+01   4.377421058101e+00 
1  4.902476159264e+00   4.092008681642e+01   7.222719085858e+00 
1  1.809950517243e+01  -2.624707975207e+01   3.224376476412e+01 
1 -6.077978683709e+01   5.459209222476e+01  -3.966062810149e+01 
1 -1.688724875342e+01  -1.179057143212e+01   4.260344017547e-01 
1 -1.721124331679e+01  -4.103012560773e+01  -2.550270656845e+01 
1  1.503147749066e+01  -2.550942673787e+01   8.336745635618e+00 
1  8.538987226013e+00  -3.161234241300e+01   5.344377291423e+01 
8
Step 3600
1 -5.126806423591e+01  -4.060018274725e+01   3.260321021966e+01 
1  2.337104401844e+01   1.410713702739e+01  -8.790639043904e+00 
1  2.506511269527e+01  -1.295270184583e+01   5.150075185885e+01 
1 -2.621391174248e+00   1.947618775474e+01  -1.023028259670e+02 
1  1.350290974301e+01  -2.157870468660e+01   5.619090671862e+01 
1  3.257485382681e+01  -4.541873269452e+01   1.959100795318e+00 
1  4.466232525225e+00  -1.666586828776e+01   2.018823467663e+01 
1 -6.139441994760e-01  -1.607417863029e+01   3.093781294185e+01 
8
Step 3700
1 -4.828454936424e+01   4.436911943913e+00   3.346887205162e+01 
1  2.056242816422e+01  -9.073066568639e+00  -1.276781923505e+01 
1  9.934017108613e+00   1.515363173322e+01   2.708322855874e+01 
1  2.819017520374e+01  -2.266269623570e+01  -9.224157850544e+01 
1  4.336894915161e+01  -3.012301769341e+00   5.446491603570e+01 
1  5.447983902356e+01  -1.015898302912e+01   2.142510600506e+01 
1 -4.643677405206e+00   2.820121651385e+01   1.365379764664e+01 
1 -2.035812906003e+01   3.941278882572e+01  -5.894299654277e+00 
8
Step 3800
1 -2.780359575385e+01   3.727351179949e+01  -1.049284258031e+00 
1 -7.194035011489e+00  -1.666724604949e+00   1.425542472742e+01 
1  1.437900169329e-01   3.694115209354e+01  -2.618080105803e+01 
1  1.834908091522e+01  -3.773387791748e+01  -1.468489115315e+01 
1  4.258825496100e+01   2.006220603232e+01   2.243207564230e+00 
1  2.466270051218e+01   3.632327523937e+01  -3.068833023556e-01 
1 -5.981491417490e+00   4.454964310260e+01  -6.413189450468e+00 
1 -2.724558011972e+01   7.249427687970e+01  -2.688994214106e+01 
8
Step 3900
1  1.207281134188e+01   3.122884747154e+01  -4.105732863364e+01 
1 -2.805082810886e+01   1.649651527144e+01   5.307594226568e+01 
1  1.332239094941e+01   2.306008818954e+01  -6.082580050023e+01 
1  5.965653844820e+00  -2.135044262935e+01   4.723341219275e+01 
1  4.785340268331e+00   1.379382144186e+01  -3.905740183138e+01 
1 -2.391233851915e+01   4.558461758762e+01  -3.539921503319e+01 
1 -1.865699568177e+00   4.245403770286e+00  -2.126135345556e+01 
1 -7.539051446792e+00   4.930057342264e+01  -2.066110589268e+01 
8
Step 4000
1  5.613495799225e+01  -4.328389072659e+00  -4.914448680432e+01 
1 -1.852233860445e+01   1.186774930044e+01   6.399230252339e+01 
1  2.854663099559e+01  -2.155579701975e+01  -4.736605284383e+01 
1  2.251491042715e+01   3.402208670977e+00   3.927048393697e+01 
1 -4.408629627791e+01  -1.759047858888e+01  -3.247498148577e+01 
1 -4.119048926674e+01   1.198618903891e+01  -3.697607001157e+01 
1 -3.889130211940e-01  -4.851509441102e+01  -1.928483364538e+01 
1  2.667210879141e+01  -2.498206102333e-02  -2.059932762268e+00 
8
Step 4100
1  7.195944149456e+01  -3.119794018737e+01  -2.016793882366e+01 
1  3.437344843975e+00  -1.543905190570e+01   3.067257194921e+01 
1  1.360134309793e+01  -5.233043699673e+01  -2.661462767978e+00 
1  4.907195025131e+01   1.383821039825e+01   4.125060989811e+00 
1 -6.652726231519e+01  -3.284687867913e+01  -3.690025978754e+00 
1 -1.532945315090e+01  -1.921030270224e+01  -3.438102570610e+00 
1 -6.406308657227e+00  -5.416925629528e+01  -5.912512816730e+00 
1  4.622093652712e+01  -2.830636500550e+01   7.988058028405e+00 
8
Step 4200
1  4.162393570368e+01  -1.912494654634e+01   1.702909910906e+01 
1  3.589722867356e+00  -3.316726677571e+01  -2.219388371378e+01 
1 -2.695052047413e+01  -3.403066641865e+01   3.136340149367e+01 
1  4.203885414059e+01   1.001312916876e+01   1.748866185008e+01 
1 -4.322720667301e+01  -7.312293705035e+00   4.545163624720e+00 
1  2.091943310346e+01  -7.938534688254e+00   2.196622854906e+01 
1 -1.548887676921e+01  -1.210293730661e+01   4.873293368089e+00 
1  3.105464856885e+01  -2.833081589426e+01   3.297962786071e+00 
8
Step 4300
1 -9.629877636072e+00   2.215651042600e+01   3.562562473365e+01 
1 -1.927303112474e+01  -2.082573488745e+01  -5.563679386317e+01 
1 -5.029584007585e+01   1.477118788061e+01   3.002495606656e+01 
1 -7.078478870607e+00   8.750917409179e+00   7.746993889216e+01 
1  1.148986514521e+01   3.097233178684e+01  -7.834193766970e+00 
1  3.179258239134e+01   3.208432573201e+01   1.108885393840e+01 
1 -1.748018443626e+01   2.219135693922e+01   5.044249573010e+00 
1 -9.579119375959e+00  -2.612842633138e+01  -7.331225030418e+00 
8
Step 4400
1 -3.339173721404e+01   4.962475353461e+01   3.886774398523e+01 
1 -2.901914252527e+01   4.268395506238e+00  -5.479273125021e+01 
1 -2.943458026933e+01   4.258686300215e+01   5.503645618019e+00 
1 -5.482957805752e+01   1.834709526637e+01   9.982345951673e+01 
1  5.955526546563e+01   3.553931653567e+01  -5.933308363791e+00 
1  1.494247219071e+01   5.216822429432e+01  -1.270177147610e+01 
1 -6.595525598378e+00   1.192063788544e+01  -1.132624564371e+00 
1 -4.222583987691e+01  -3.224675978237e+01  -1.360097199870e+01 
8
Step 4500
1 -1.412083038642e+01   3.141619458274e+01   4.457252844873e+01 
1 -2.519588497640e+00   1.319090438816e+01  -3.541471423476e+01 
1  8.565514841488e+00   2.963341705468e+01  -1.258654029478e+01 
1 -5.605008546077e+01   2.535688386432e+01   3.306262236380e+01 
1  6.959964234848e+01   4.908850737620e+00   2.063083764512e+01 
1 -6.134860155055e+00   2.965189479685e+01  -1.098361918788e+01 
1  1.294103220682e+01  -1.376379004942e+01  -3.310716420315e+00 
1 -3.894537124648e+01  -2.732651605862e+01  -1.230604574525e+01 
8
Step 4600
1  1.255580841162e+01  -1.911662903386e+01   4.918154744256e+01 
1  3.586807230658e+01   3.755610000478e+00  -1.680710157800e+01 
1  1.679867373113e+01   6.995173294315e+00  -8.575915260234e+00 
1 -1.413368533830e+01   1.092922191690e+01  -6.659878136440e+01 
1  3.877973085121e+01  -1.522980044602e+01   3.706743508273e+01 
1 -1.408929442512e+01  -1.050776382270e+01   1.577012021209e+01 
1  3.038772055984e+01  -4.244456580958e+00   3.716381124701e+00 
1 -2.025730698115e+00  -5.158183586000e-01  -4.589546315327e+00 
8
Step 4700
1  4.729254418714e+00  -5.405859917725e+01   2.668583322530e+01 
1  4.354372315309e+01  -1.810928387923e-01  -2.398097986618e+00 
1 -8.421651451185e+00   8.169065926769e+00   7.718812620889e+00 
1  2.527865253312e+01  -2.192405191280e+01  -1.020152440805e+02 
1 -6.881884256681e+00   3.807177398130e+00   1.299908150531e+01 
1 -1.131530204105e+01  -3.305259424292e+01   3.144481454455e+01 
1  3.554328416669e+01   3.948489085247e+01   1.401427005723e+01 
1  3.604167683824e+01   2.351844150142e+01   6.999539586018e+00 
8
Step 4800
1 -3.098710889923e+01  -4.049129639136e+01  -3.170405438001e+01 
1  1.558808167148e+01   1.524903503728e+01   1.346033686649e+01 
1 -2.149449075168e+01   2.026896656873e+01   1.573402207062e+01 
1  2.774531925989e+01  -4.570902851618e+01  -5.873663388492e+01 
1 -3.615665110600e+01   2.977317066001e+01  -2.889902970298e+01 
1 -7.572278424563e+00  -3.509285902566e+01   1.724801640720e+01 
1  2.375737724181e+01   6.259603697422e+01   1.571154152000e+01 
1  4.169107875109e+01   1.672884856328e+01   1.725277238587e+01 
8
Step 4900
1 -4.884458095592e+01   6.532142305505e+00  -9.107815250631e+01 
1 -1.139441711655e+01   3.362337387751e+01   2.895975269988e+01 
1  8.985790268196e+00   5.467898716670e+00   6.611213285108e+00 
1  2.040614042385e+00  -3.633537579991e+01  -1.118671420141e+01 
1 -3.696360650171e+01   1.243672163573e+01  -3.871174614707e+01 
1 -5.517787892250e+00  -3.603056653791e+01  -4.667183361716e+00 
1 -2.746887551603e+00   2.804271387270e+01   3.529430746410e+00 
1  1.024220370133e+01  -8.697954174273e+00   1.890080799924e+01 
8
Step 5000
1 -2.375273997504e+01   4.001037299114e+01  -1.003580227911e+02 
1 -8.864554857905e+00   2.901133902144e+01   3.485208397588e+01 
1  5.355130921990e+01  -3.917411490720e+01  -9.098333187248e+00 
1 -1.938579506672e+01  -2.276556183819e-01  -1.509212961979e+01 
1 -2.085512489196e+01  -4.345018940693e+01  -4.132259716320e+00 
1 -2.653665473937e+00  -3.976899891552e+01  -6.595866551476e+00 
1 -3.252152836718e+01  -3.422104017102e+01  -1.291777713992e+01 
1 -2.996469539736e+01  -1.229618457547e+01   9.470413045165e+00 
8
Step 5100
1  1.681781252189e+01   2.916754721170e+01  -4.770283140449e+01 
1  8.494169280604e+00  -1.654776725112e+00   2.750240149232e+01 
1  5.629970632535e+01  -6.855828853897e+01  -1.390181401374e+01 
1 -1.893524785288e+01   3.107379723900e+01  -3.780712145294e+01 
1 -7.512963538950e+00  -7.526775733186e+01   3.331929243255e+01 
1  7.277438604186e-01  -2.813469184822e+01   4.794196533819e+00 
1 -4.683375182162e+01  -6.343250104397e+01  -1.637419769845e+01 
1 -4.402805738281e+01   1.892893105336e+01  -3.685090331997e+00 
8
Step 5200
1  3.067798871096e+01  -1.069573130163e+01   2.439514367186e+01 
1  7.822083328957e+00  -3.578401647967e+01   1.311427207486e+01 
1  7.590770362856e+00  -4.483523837089e+01  -2.744280219312e+00 
1 -5.975842421080e+00   3.394347930502e+01  -1.837584779312e+01 
1 -5.193363292110e+00  -3.997205529055e+01   3.277555465378e+01 
1  2.097941798463e+00   6.652950896901e+00   1.698393086197e+00 
1 -3.233643014818e+01  -4.095356839349e+01  -1.069254219163e+00 
1 -2.341512891031e+01   4.936568458836e+01  -9.792155443387e+00 
8
Step 5300
1  1.430303437948e+01  -3.658477042557e+01   6.224761538528e+01 
1 -1.582514729762e+01  -4.946635957218e+01  -4.600016246635e-01 
1 -4.117256896352e+01   1.278949336305e+01   1.142328730214e+01 
1  2.989300640257e+00   1.370092967395e+01   3.727224610481e+01 
1 -6.381553700704e+00   2.907135869726e+01   2.741768915205e+00 
1  2.278997188253e+00   4.091337044407e+01  -2.043648468373e+01 
1  3.506234959102e+00  -4.585724819295e+00   1.747927514550e+01 
1  8.402166894435e+00   4.008471580977e+01  -5.705035637620e+00 
8
Step 5400
1  1.530797525457e+00  -2.262378080634e+01   5.309138500679e+01 
1 -3.573812272753e+01  -3.685046349087e+01  -9.583363985648e+00 
1 -4.050263764653e+01   4.923476470038e+01   1.188239621303e+01 
1  4.569270439506e+00  -7.080293055267e+00   6.475952448564e+01 
1  6.822388686856e-01   6.044752202550e+01  -1.796618157514e+01 
1  4.839755849094e+00   4.507606080579e+01  -3.341324887761e+01 
1  3.262994210916e+01   6.655980691533e+00   1.708314205162e+01 
1  2.228396458620e+01   1.532598932261e-01   1.924938464241e+00 
8
Step 5500
1  1.290173495194e+01   1.621734831589e+01   2.721277138899e+01 
1 -3.228268978486e+01  -6.555044155906e+00  -1.221317771197e+01 
1 -2.450453702177e+00   3.914409813859e+01  -3.290071441458e+00 
1  7.273270692527e+00  -1.511295648478e+01   3.799918612270e+01 
1  1.829147976396e+01   3.115409217485e+01  -1.518766359397e+01 
1  9.962135380071e+00   2.252622057116e+01  -1.603260540582e+01 
1  3.083922548936e+01   1.724022317425e-01  -5.411476795175e+00 
1  1.365825981063e+01  -2.767644099199e+01   5.710432200158e+00 
8
Step 5600
1  2.892673913998e+01   4.253493153935e+01   1.472328918449e+01 
1 -1.364231035605e+01   2.854670228360e+01  -6.801262864769e+00 
1  1.935782479832e+01   8.987834097809e+00  -1.956709788564e+01 