8
Step 0
1 -9.321326070699e+00  -6.620647350791e+01   2.192230498819e+01 
1 -8.248198198250e+00  -1.617199106698e+01  -7.593054286380e+00 
1  2.400492857207e+01   3.392125150928e+01  -5.637948731377e+00 
1  2.126464604586e+01   2.348679313380e+01   6.886595029720e+01 
1  6.973119689275e+00   6.026314038082e+01  -5.613207189903e+01 
1 -4.185591075337e+00   2.039818970777e+01  -4.194277105585e+01 
1 -4.494768800927e+01   3.092602338611e+01  -2.494547172582e+01 
1  6.436472496678e+01  -6.150106059053e+01  -2.602981437612e+01 
8
Step 1000
1  2.002967462202e+01  -6.944434187166e+00  -2.664458931199e+01 
1 -3.056000847017e+01  -6.472980750557e+01  -9.146099609808e+00 
1 -4.505512371424e+01   6.260161956424e+01  -5.425765661462e+00 
1 -8.454786287496e+00  -6.124967978281e+01   7.853713700625e+01 
1  2.584404914417e+01   7.007137183643e+01  -5.840872226953e+01 
1  1.055921957001e+01   2.120537763008e+01  -3.014265999563e+01 
1  2.091155921922e+01  -3.442314007732e+01  -2.426115953855e+01 
1 -2.104810163813e+01  -5.441591460286e+01  -1.810718562205e+01 
8
Step 2000
1 -1.543150989808e+01  -1.827037033636e+01  -4.850552736123e+01 
1 -2.897736861727e+00   1.697617051664e+01   3.761370562443e+01 
1 -4.525661968792e+00   6.712126778449e+00   2.662272783149e+01 
1  3.227108084300e+01  -2.676043516287e+01  -1.275702684517e+01 
1 -3.748997227051e-01   3.433140812483e+01  -4.335136158616e+01 
1 -3.057107263928e+01   1.145375971172e+01  -3.395666373259e+01 
1 -5.668500993216e+01   5.985155020066e+01   1.209548254434e+00 
1  2.270230156294e+01   8.750369836108e+00   3.221626042303e+01 
8
Step 3000
1 -2.887036595023e+01   4.918025899860e+01  -7.700311013526e+00 
1 -3.464330171259e+01   1.856437685328e+01  -2.368909245755e+01 
1  1.980008967222e+01   3.423339357502e+01   1.144874271949e+01 
1  2.851434558763e+01   1.145534281165e+01   6.973050853729e+01 
1 -7.035923775880e+00   1.447539275750e+01  -1.470773638379e+01 
1 -2.590328458800e+01   4.928912669645e+01  -2.936436024755e+01 
1  1.608246054681e+01  -4.485498072079e+01  -4.226298490784e+01 
1 -2.203902168771e+01  -3.549813861539e+01  -1.927265877137e+00 
8
Step 4000
1 -2.990762458294e+01  -3.541637455083e+01  -1.138066456157e+01 
1  1.195429733221e+01   3.770004956892e+00  -1.689385123926e+01 
1 -4.007200891597e+01   6.811605411784e+00  -1.568726301318e+01 
1  1.877547774267e+01   1.370809973865e+01   1.887887872061e+01 
1  2.692427864244e+00   5.628349552868e+01  -1.344472203628e+01 
1 -3.641658204788e+01   5.834312619723e+00   1.285137995730e+01 
1  1.473936420622e+00  -2.681165823315e+01   9.403741107109e+00 
1 -9.248344790357e+00  -5.417623826281e+01  -7.865037173622e+00 
8
Step 5000
1 -1.340040262427e+01  -4.341919912693e+01  -3.187123707155e+01 
1 -2.476256599478e+01   7.095874667458e+00   7.503505611031e+01 
1  1.634617183099e+00   1.514896799437e+01  -7.472056791896e+00 
1 -2.691690223068e+01   3.370975384922e+01   1.391219525787e+01 
1  3.800019896629e+00  -2.892726524557e+00  -3.734726874015e+01 
1 -2.242600814536e+01  -1.316216042135e+01  -4.086635736465e+01 
1  4.490259430353e-01  -9.449036244359e+00  -1.885638253770e+01 
1  5.866741831062e+01  -3.776791021504e+01   3.712577018971e+01 
8
Step 6000
1  6.743542950418e+01  -3.083109646679e+01   2.547639212313e+01 
1 -1.132016799432e+01   2.029271305740e+01  -3.356608056707e+01 
1 -2.450365248967e+01   1.393986939580e+01  -4.706823884693e+00 
1  2.338813027146e+01   4.884119247654e+00   9.023721526499e+01 
1 -1.762410126810e+00   5.532356756164e+01  -6.852379353252e+01 
1 -3.080931275345e+01   3.449641312291e+01  -9.276800571990e+00 
1 -6.018114194697e+00  -5.681683398537e+00   4.984403787141e+00 
1  1.816414097072e+01  -2.858510757917e+01   6.202488210978e+00 
8
Step 7000
1 -7.637367290156e+01   4.180111302587e+01  -3.425822651060e+01 
1 -1.165422632501e+01  -5.570653588735e+00   2.580860686474e+01 
1  1.032891406670e+01   6.372511102071e+01  -3.566570482364e+00 
1 -1.975810696386e+01  -4.275566244390e+01  -1.073634850380e+01 
1  2.835007603628e+01   5.536820981479e+00   1.360736718832e+01 
1 -3.220874265796e+01  -6.701811945449e+01   1.009624847476e+01 
1 -1.711495327169e+01   2.734541415331e+01   5.324276013979e+00 
1 -1.966060394500e+01  -2.111951955610e+01  -1.869155097787e+00 
8
Step 8000
1  5.546253874451e+00   3.170421495047e+00   2.204411831377e+01 
1 -1.184374629083e+01   1.841847365998e+01  -2.126543301941e+00 
1 -5.005045664567e+00   3.564631438790e+01  -1.603386412281e+01 
1  1.192302749532e+01   2.745486822701e+01   6.584751265635e+01 
1  1.401949301555e+01   3.977820277374e+01  -1.490398248144e+01 
1  3.031503417999e+01   2.966001580578e+01  -1.827975349526e+01 
1 -2.776789221188e+01  -4.764898306810e+01   2.154997385342e+00 
1 -8.173835152740e+00  -3.216171086330e+01   3.199887026816e+01 
8
Step 9000
1 -3.187237609192e+01  -1.658003480965e+01  -5.060495572436e+00 
1 -2.174969087211e+01   2.267714995306e+01   6.511582634064e+00 
1 -3.508561814105e+01   3.321217049089e+01   2.162260768674e+01 
1  2.531719229573e+01  -1.753082654626e+01   1.209044592828e+00 
1 -2.636996784221e+01   2.168585098993e+01   3.764306889509e-01 
1 -2.949911515875e+01  -2.970603064809e+01   4.562471258431e+00 
1  1.766512402762e+01  -1.769609724590e+01   1.453713220055e+01 
1  4.471119100582e+01  -6.213342097072e+01   2.353739626470e+01 
8
Step 10000
1  2.027152220922e+01  -5.136793816753e+01   4.449854053503e+00 
1  2.283513429961e+01  -8.726904252055e+00   3.335134757290e+01 
1 -1.344108593465e-02   5.579660643047e+00  -2.000916132317e+01 
1 -1.912067221017e+01   4.816494762106e+01  -3.826355526805e+01 
1 -1.610134556807e+01  -6.401728877275e+00   3.401935655498e-01 
1 -1.246938932505e+01  -1.446041286144e+01  -4.392410869572e+00 
1  3.417529057799e+01  -2.814245546465e+01   3.646697866082e+01 
1 -1.026296167037e+01   2.226597438010e+01   3.826833026426e+01 
8
Step 11000
1 -8.241419156273e+00   1.934171193664e+01   5.170139150434e+01 
1 -2.375612796458e+01   2.769440643101e+01   2.579118469243e+01 
1 -3.306533765500e+01   6.441839797832e+00  -3.972201653126e+01 
1  3.362785730461e+01   3.803685906568e+00   7.635702922929e+01 
1  7.742957694894e+00   2.142304339348e+01   2.271252499539e+01 
1  1.642177948078e+00   4.644210883576e+01  -5.860885064768e+00 
1 -3.735437150199e+01  -2.506267254225e+01  -1.127315957964e+01 
1  3.295300310632e+01  -3.504717773777e+01  -6.316194197523e+00 
8
Step 12000
1  2.912894957093e+00   2.257793571035e+01  -4.918197894577e+01 
1 -8.146091915813e+00   3.825870503835e+01   1.864062007391e+01 
1 -1.842205115281e+00   1.763060741218e+01   3.852749784204e+01 
1 -7.328329981188e+00   2.075473748968e+01  -2.304341543914e+01 
1  5.809364827805e+01  -1.359374597580e+01  -1.515738439335e+00 
1 -4.152815839935e+00  -4.254401411823e+01   3.199500928755e+01 
1 -2.559077709391e+01   2.256858723199e+01   2.567771132181e+01 
1 -5.239670861606e+00  -3.657012532349e+01   4.782497604637e+01 
8
Step 13000
1 -3.234508535072e+01   2.518249783041e+01  -1.353572482481e+00 
1 -4.732937897362e+01   2.081826637397e+00   3.943957360771e+01 
1  5.335407124929e+01  -2.300086634784e+01  -3.217587960409e+01 
1 -4.371933188401e+01  -2.467518334076e+01  -1.868943917586e+01 
1 -1.853730348433e+00  -3.406712912613e+01   2.244961276559e+01 
1 -1.633908146149e+01  -1.481606522334e+01   1.304198400395e+01 
1  3.801204998741e+00  -2.758081816216e+01   2.422306744533e+01 
1  1.351734415612e+01   7.744744282701e+00   3.968514151676e+01 
8
Step 14000
1  2.930651993784e+01  -3.704537896205e+01   5.993729925489e+01 
1  3.348575972291e+01  -3.811907924174e+01  -2.061257835960e+01 
1  1.185246032937e+01   5.996523014371e+01  -3.407074696974e+00 
1 -8.728859695577e+00   4.109957942896e+01  -1.509332678240e+01 
1 -3.433597062804e-01   3.075955424320e+01   1.493488138297e+00 
1  4.412904252581e+01  -5.854831520748e-02   4.527003387197e+01 
1  3.808939942899e-02   1.748439358114e+01   7.095215443729e+00 
1  4.039966755187e+01  -6.851048824323e+01   1.950720131301e+01 
8
Step 15000
1 -2.914347674545e+01  -1.320645138691e+01  -2.303249698592e+00 
1 -1.867750982692e+00   6.821913651359e+00   6.410325696448e+01 
1  2.851710469291e+01  -5.713598947346e+01  -1.607147756820e+01 
1 -4.040139027904e+01  -9.751641521455e+00  -5.156758002584e+01 
1 -2.278857929955e+01  -2.337321925291e+00   5.689818855307e+01 
1 -5.093611392208e+00  -2.175955058732e+01   4.214717106145e+01 
1  7.783149276026e+00  -5.705198794917e+00  -2.062627892123e+01 
1  2.697540302780e+00   3.959488731472e-01   2.228184554831e+01 
8
Step 16000
1  4.240919780934e+01   2.124688393999e+01  -1.023637396592e+00 
1 -2.186946852929e+01   1.823689180010e+01   6.913224752241e+00 
1  3.090929678308e+01  -1.992569004902e+01   5.610917995050e+00 
1  4.916744194452e+01   1.833259391482e+01   3.937073143257e+00 
1  1.493955462482e+01  -5.943682858165e+00   1.630525242556e+01 
1 -9.168930749977e+00   1.664453482382e+01  -8.306197364905e+00 
1  1.445700420967e+01  -1.576619802791e-01   2.681464855526e+01 
1  9.934135091034e+00  -3.080775837361e+00   1.265668499206e+01 
8
Step 17000
1 -7.188474880010e+01   4.901311827528e+01   1.308897618384e+01 
1  4.971888338546e+01   3.387263357256e+01   1.786646407941e+01 
1 -2.957530700834e+00  -4.800105239933e+01   5.059922967785e+00 
1 -4.232876425435e+00  -2.942348487849e+01  -2.924439032222e+01 
1 -3.153360569679e+01  -4.730171050600e+01   3.029030816268e+01 
1  9.360626583553e+00  -1.401244354516e+01   3.742803094215e+01 
1  1.661402970919e+01   7.673749363594e+00   1.452072629001e+01 
1  2.743171321176e+00   7.846398967042e+00   2.108737423622e+01 
8
Step 18000
1  5.313562000415e+01  -3.831409529320e+01  -3.514953866722e+01 
1 -2.667095127897e+01  -3.490837860321e+01   3.190781354060e+01 
1  9.528263209898e+01  -1.148389071797e+01  -5.789401602974e+01 
1 -7.812462794395e+01   2.124033602561e+01  -7.358148871405e+01 
1  4.406888346091e+01  -6.048565266725e+01   3.725350005146e+01 
1  4.272539822199e+01  -1.230596508770e+01   3.171859159041e+01 
1 -2.842069221781e+01   7.769768193745e+00   1.829331124713e+01 
1  3.277725991339e+01  -1.146695137568e+01   3.426085703585e+01 
8
Step 19000
1 -1.132197170267e+01   3.478103102766e+00   5.040821428677e+01 
1  2.095746237563e+01  -2.274172182933e+01  -1.583776562260e+01 
1  3.994144408353e-01  -3.089285303857e+01   3.572733664669e+01 
1 -1.958832245463e+01   4.298675385863e+00   5.247200310376e+00 
1  2.557993930932e+01  -1.006276645028e+01  -4.997592112421e-01 
1 -2.929366146721e+01   2.387709805755e+01   5.049425517775e+00 
1  1.491474936314e+01   3.756335083726e+01  -1.238977532884e+01 
1 -5.444740805258e-01  -5.356000212264e+01  -7.215226613496e+00 
8
Step 20000
1  1.958983821994e+01   1.213440987203e+01  -3.594185666196e+01 
1 -5.395674747902e+00  -1.748708362033e+01   2.227895209118e+01 
1  9.529359744010e+01  -8.567697083090e+00  -1.053064103863e+01 
1 -9.968507551735e+00   1.234374153107e+01  -3.694102066379e+01 
1 -3.916522755060e+01   2.467263427835e+00   3.181872562653e+01 
1  3.461963032685e+01  -1.754027205610e+01   2.442646704485e+01 
1  1.586216292787e+01  -1.348810438961e+01  -1.562500869922e+01 
1  4.605892405774e+01   5.010428259654e+01  -8.021397525321e+00 
8
Step 21000
1 -1.035722044520e+01   4.917684971128e+01   1.739317173058e+01 
1  3.087131682618e+01   1.108416727261e+01  -1.124956239395e+01 
1  1.663907952299e+01  -7.902395788103e+01  -2.897474149482e+01 
1 -6.566818645353e+01  -5.028403203316e+01  -2.056663247444e+01 
1  3.859019789674e+00  -6.032617047172e+01   8.128473833783e+00 
1 -4.592223393004e+00  -3.347846460820e+01   2.301913958548e+01 
1 -2.185017877901e+01   7.512777828771e+01  -1.832213318848e+01 
1 -5.555687683596e+00   3.672358849399e+01   3.248658299497e+00 
8
Step 22000
1  2.392278022970e+01   8.591361552488e+00  -1.714550827484e+01 
1  2.316386985319e+01   1.892598872495e+01  -1.677917214035e+01 
1 -6.980494929839e+00  -2.003823918984e+01   2.066027092856e+00 
1  5.615847102015e+01   2.794176880220e+00  -3.050943483731e+01 
1  7.995546685249e+00   3.108301545626e+00   3.125883476568e+01 
1 -1.212076436485e+01   1.112845493216e+01   1.550926974893e+01 
1  4.429660257100e+01  -1.355952579522e+01  -3.708296713796e+00 
1 -1.373932112253e+01   1.225742046091e+00   3.719693045723e+00 
8
Step 23000
1  4.036027701997e+00  -3.888891392686e+01  -3.031680655255e+01 
1 -2.982333643815e+01   8.378904222695e+00   1.221937156179e+01 
1  6.635014187203e+01  -4.957758275505e+01   2.379867051461e+01 
1 -4.715577819904e+01   1.001948074877e+01  -5.143574009938e+01 
1 -8.316656804228e+00  -5.591500652449e+01   1.367714444900e+01 
1  4.214354806095e+01  -1.481825506104e+01  -1.227489283138e+01 
1 -4.739865218836e+01   2.112879596993e-01  -3.168227662647e+01 
1  3.935580705786e+00   3.049027239647e+01  -2.037445888678e+00 
8
Step 24000
1  4.323756044476e+00  -1.570071548203e-01   5.729117658257e+00 
1  2.856359993581e+01  -6.011580160369e+01  -2.570294749402e+01 
1  3.079674091603e+01   1.230113935329e+01  -6.017657778475e+00 
1 -3.750773099600e+01   3.355862130059e+01  -4.254798849084e+01 
1  4.117535668923e+00  -4.105805742984e+01   1.369268243844e+01 
1 -1.963595990090e+01   3.105874529967e+00  -9.485780649193e+00 
1  1.482578757948e+01   4.659507008461e+01  -2.933936525136e+01 
1  4.861935606419e+01  -1.001446604912e+01  -2.666992162107e+01 
8
Step 25000
1  1.999312092936e+01   7.094955276483e+01   7.348590025329e+00 
1  4.616170670090e+00   4.752991740654e+00   1.105394524097e+01 
1  2.928850866942e+01  -4.561523328833e+01   3.300526839898e+01 
1 -5.186087017531e+01  -1.201285986847e+01  -1.749981347636e+01 
1  1.900052611908e+01  -2.124350303749e+01   3.926498026082e+01 
1  2.739579953468e+01   3.972697435942e+01  -2.039886454227e+00 
1 -3.288542116305e+01   2.847556320581e+01  -4.885806378812e+01 
1 -1.461198401791e+01   7.705336982642e+01  -5.893511517645e+01 
8
Step 26000
1  1.997470897411e+01  -7.935202890313e+00  -4.807433506745e+01 
1  1.185198959148e+01  -2.971477330489e+01  -3.582902529374e+01 
1  4.952548780888e+01   6.081215374579e-01  -2.533097974939e+01 
1 -1.489580202873e+01  -1.701625812750e+00  -6.650075231990e+01 
1 -4.022528956134e+01  -3.957201062533e+01  -8.459317079294e+00 
1 -1.039524243920e+00  -5.165937805147e+01   3.225296954959e+01 
1 -1.457643164397e+01   2.371253304639e+00  -1.818940078314e+01 
1  2.226561212195e+01   4.418982666292e+01   1.299014842771e+01 
8
Step 27000
1  1.540503795752e+00  -5.475723549446e+00   2.759883105529e+01 
1 -3.397316629888e+01   5.495970160578e+00  -4.304547749323e+01 
1 -1.712421018343e+01   1.298370893015e+00   3.915104230343e+01 
1  5.082932897556e+00  -3.781465028699e+01   1.745013075822e+01 
1 -6.499741846656e+00   5.829184840567e+00   4.733022283819e-01 
1  5.528399599739e-01   4.983838646626e+00  -1.844495045338e+01 
1 -1.675590644822e+01   2.905805899007e+01  -5.878455858546e+01 
1 -2.848221226380e+01  -5.243056956648e+00  -3.733895165607e+01 
8
Step 28000
1  2.098265432012e+01  -4.220287086687e+01  -6.685462313867e+01 
1  3.806585416046e+01  -3.307882632924e+00   5.079129446543e+01 
1  4.856749592897e+00  -5.824299933043e+00   7.168475584451e-01 
1 -3.638380873510e+01   4.857096945192e+01  -7.837654593663e+01 
1 -2.403032178021e+01  -2.095886273266e+01   1.857741998503e+01 
1  1.553924620585e+01  -3.255635729217e+01   1.269597991027e+01 
1  2.464803266474e+01   2.649373127889e+01  -5.575908819226e+01 
1 -7.378535318469e+00   5.877331594630e+01  -6.546065722877e+00 
8
Step 29000
1  7.675210804793e+01  -1.400622726154e+01   5.344018818348e+01 
1 -3.622071504046e+01   3.260748728690e+00  -7.735465321887e+01 
1 -2.244054939948e+01   3.431267148884e+00   2.706017217030e+01 
1 -2.547454122819e+01  -3.524625349909e+01  -2.925611539299e+01 
1 -4.251845481498e+01  -3.913066777434e+01  -1.774698159585e+01 
1  1.664621047993e+01   2.387192009105e+01  -3.062077430914e+01 
1 -9.156264799254e+00   5.551462960419e+01  -2.161070476361e+01 
1 -3.276884630059e+01   9.220663574690e+00  -7.422940914382e+01 
8
Step 30000
1 -2.706516381345e+01   4.474486652154e+01  -5.052693016790e+01 
1  1.281546189079e+01  -6.326623359314e+01   3.772118303493e+00 
1  2.939814111834e+01   1.163297715936e+01   4.979951542310e+01 
1  2.787900632337e+00   3.795282719410e+01  -2.628342373848e+01 
1 -1.407199160905e+01   3.072973692685e+00   2.255146493238e+01 
1 -2.924990733118e+01   2.984847317451e+01  -1.341668915838e+01 
1 -3.305922895244e+01   1.379849015704e+01  -2.478849860649e+01 
1  1.730209321180e+01   1.534079014992e+01  -1.409640431497e+01 
8
Step 31000
1  6.948733319038e+00  -1.190085879522e+01  -1.302339882460e-01 
1  8.113927619589e+00  -1.031285575538e+01  -2.747128624006e+01 
1  5.165265202446e+00   3.850314372411e+01  -2.276937225237e+01 
1 -6.531633305224e+01   4.266383362312e+01  -1.528673875451e+01 
1  1.125599314608e+00  -7.709359009508e+01   7.718132223956e+00 
1  2.669025993294e+01  -2.870622077525e+01   1.206365674999e+01 
1  1.631342502268e+01   2.492185044807e+01  -4.944216773029e+00 
1 -1.955535850491e+01   5.809326220152e+01  -7.466810912629e+00 
8
Step 32000
1  1.755394258274e+01  -1.160336302298e+01  -1.226707359245e+01 
1 -1.247797535565e+01  -2.224087080088e+01  -6.336649779550e+01 
1 -6.111692389825e+01  -3.742227131144e+01   3.889306797276e+01 
1  5.026035018159e+00  -4.162487298212e+01   7.698543777638e+00 
1 -5.780554417478e+01  -2.948102256446e+01  -5.834117513252e+00 
1 -3.016569754428e+01   2.563942843277e+01  -4.724292034946e+01 
1 -4.078390803468e+01  -7.546334830015e+00  -2.204607974637e+01 
1  1.446821215797e+00  -1.333803618816e+01  -6.322792306869e+01 
8
Step 33000
1  1.571639778338e+01  -4.169579770074e+01  -6.134686999412e-01 
1 -2.443692877849e+01   9.878438543808e+00   6.092070652791e+01 
1 -1.296695882561e+01   4.514377412704e+01   1.727177455965e+01 
1 -9.188481459742e+00   4.517519108371e+01  -8.070219660710e+00 
1  2.411679842881e+01   2.052631506345e+01  -2.660157058197e+01 
1  3.380491528743e+01  -1.201736483116e+00   4.928519280254e-01 
1  8.146798227304e+00   2.078854374206e+01  -5.999282142973e+01 
1 -3.280660592526e+01   6.325295791824e+01   1.211534208619e+01 
8
Step 34000
1 -5.379905004325e+00  -1.543392751962e+01   1.957621762968e+00 
1  4.195090827014e+01  -2.873256766369e+01  -6.926728159251e+01 
1 -4.711238693433e+00   2.055693347681e+01   2.647057757583e+01 
1 -1.697234571679e+01   4.118554941215e+01   1.068870831706e+01 
1 -3.612744676801e+01   1.532286385613e+01  -1.561876659961e+01 
1 -1.911907549848e+01  -3.166715699640e+00  -6.878922686344e+00 
1  8.384857073027e+00   3.421852909120e+01   4.092772857896e+00 
1 -1.093950106005e+01  -2.622111004201e+01  -9.673216443081e+00 
8
Step 35000
1  1.741733379515e+01   4.074336194840e+00   2.062635731207e+01 
1 -2.025993889583e+01  -1.464644203329e+01  -1.401201459533e+01 
1 -7.691902189700e+01   2.217708305504e+01   1.740818096453e+01 
1  1.326018841904e+01   1.108879298316e+01  -1.623133999884e+01 
1 -3.004993236279e+01   4.650388764851e+00   3.227069995060e+01 
1  5.009735883005e+00  -1.374736525130e+01   1.266408890240e+01 
1 -1.099369683063e+01   2.976419969995e+00  -2.945973224607e+01 
1  6.100455891530e+00   1.340971545820e+01  -7.038677380269e+00 
8
Step 36000
1 -1.785932708110e+01   5.972765468682e+01   4.192603764329e+00 
1 -4.935636801858e+01  -4.810623069066e+01  -5.827476753839e+01 
1  2.526621471670e+01   2.784495039917e+01   4.832899144841e+01 
1 -1.474448393310e+01  -2.845350410532e+01   2.715549836480e+01 
1 -4.075109531228e+00   2.291759964283e+01   1.708579252697e+01 
1  2.210608915802e+01  -2.344294133652e+01   2.895897660710e+01 
1 -1.967995904753e+01   1.209467501269e+01   1.105490405250e+01 
1 -3.833435606879e+01   4.309546166254e+01   1.021795195956e-01 
8
Step 37000
1  1.857278090781e+01  -2.552062432644e+01   5.671232471369e+01 
1  2.410359761043e+01  -3.732918483838e+01  -3.492816453843e+01 
1 -7.381518768853e+01   3.449729305222e+01   1.736245048634e+01 
1  2.244374499055e+01   5.147313247737e+01  -3.410502208348e+01 
1  1.047720579973e+01  -2.043039384793e+01   7.837751340481e+00 
1 -2.814130519173e+01   3.651281380791e+00  -3.867050813041e+01 
1 -1.309723437648e+01  -1.534141170084e+00  -1.157487448903e+01 
1  3.422715684095e+01  -2.471053377406e+01   6.928824919779e+00 
8
Step 38000
1 -2.705094515398e+01  -1.095976745539e+01  -6.035894768154e+00 
1  5.612948353773e+00   1.129880118262e+01   4.001304845644e+01 
1 -3.807761578112e+01   2.241679347824e+01   2.845929859023e+01 
1  1.535217654411e+01   3.973506259737e+01   1.165223893795e+01 
1  5.641448770733e+00   4.075715660781e+01   3.533606374707e+00 
1  2.015728288419e+01   1.250593750736e+01   1.971185964964e+00 
1 -3.936895700748e+01  -5.080882860851e+01  -2.702444703602e+01 
1 -4.397533269389e+01   8.574752834647e+00   2.456796336178e+01 
8
Step 39000
1  6.321979271820e+01  -2.786129316854e+01   6.266366150906e+01 
1 -4.565871192360e+01   2.756225766867e+01  -3.498321014195e+01 
1  1.181016329241e+01   3.828243215246e+01   2.005614253901e+01 
1  8.766553274767e+00   3.258081171219e+01   3.611990253751e+01 
1 -7.317341626388e+00   3.888955543160e+01   1.935628498108e+01 
1  2.491979144899e+01  -6.116474420375e+00   2.551396268164e+01 
1  5.369973133352e+01   2.834380327090e+01   3.481778456853e+01 
1  2.290667036913e+01   3.728957686321e+01   2.746617103378e-01 
8
Step 40000
1 -1.944362154243e+01   7.461889176322e+01  -5.210156833761e+00 
1  2.114326143584e+01  -3.700194705084e+01  -3.346445481755e+01 
1 -6.989437144710e+01  -1.869341267005e+01  -6.945700321876e-01 
1 -3.622079679727e+00  -5.483670407806e+00   2.338702738083e+01 
1  3.831238352289e+00  -5.622539472035e+01  -6.859154478352e+00 
1 -3.219905091046e+01   1.524293223107e+01   2.549004604935e+01 
1 -1.033093003411e+01  -1.778400697018e+01  -5.673967048777e+00 
1 -3.231725311401e+01  -4.465845839591e+01   5.795496937994e+01 
8
Step 41000
1 -2.189207076765e+01   1.422435927024e+01   6.176119431264e+01 
1 -3.126574343220e+01  -1.883453421630e+01   3.674843571727e+01 
1  2.816103334517e+01   2.070246932804e+01   6.196018694299e+00 
1  4.140760331141e+01   5.057586198999e+01   1.421568221992e+01 
1  5.811053543191e+00   3.264319252455e+01   9.662082558220e+00 
1  1.944521325704e+01  -1.822662062453e+01   3.917431101762e+00 
1  1.069849424860e+01  -7.246126181168e+00   3.700646368982e+01 
1  5.528624289557e+00   6.424841367508e+00   6.190594575358e+00 
8
Step 42000
1  5.550374309476e+01   2.806314897931e+01   6.465131803282e+01 
1 -7.517331033556e+00  -1.606784920640e+01  -6.611519898157e+01 
1 -2.966933811147e+01   5.596029476611e+01   1.563055236710e+01 
1 -1.495077100351e+01  -4.016502628285e+00   1.272617653164e+01 
1  1.699554771259e+01  -4.628345201023e+00  -4.594974717742e+01 
1  2.169517142211e+01  -4.845842770569e+01   1.944299088427e+01 
1  2.022746597536e+01   8.071800414684e+00   5.831361519329e+01 
1 -1.381127413340e+01  -2.331314159683e+01   4.005369256075e+01 
8
Step 43000
1  5.037023666078e+00   4.390450653674e+01   1.605799165496e+01 
1  4.692808622180e+01  -5.614533989582e+01   7.798547806383e+01 
1 -3.655007118630e+01  -7.180929876882e-01   9.524024848275e+00 
1  1.037533287712e+01   1.690673030570e+01   1.440731861441e+00 
1  2.644876731680e+01  -4.399828790437e+00   4.265587205556e+00 
1  2.865303534279e-02   4.838585739384e+01  -6.426231946212e+00 
1 -6.999108636661e+00  -4.124462960432e+01  -1.685670260517e+01 
1  3.660144458223e+01  -1.031187474976e+01   9.886993392505e+00 
8
Step 44000
1 -4.363606983484e+01  -1.067449127465e+01   2.557688253593e+00 
1 -1.056763387479e+01   6.815825719606e+01  -2.770960946881e+01 
1 -1.954549196323e+00   8.669739485409e+00   3.834668228787e+01 
1  2.775028553539e+01   1.767467530221e+01   3.079956488836e+01 
1  1.183028929837e+00   1.670120085137e+01   2.714894423611e+01 
1  3.608828311692e+01  -4.163762632202e+01  -1.616669360390e+01 
1 -1.438828404638e+01   8.120525376695e+00   8.115859658817e+01 
1 -2.972224376923e+00  -2.639940241196e+01   5.338982777922e+01 
8
Step 45000
1  2.888315849099e+01   1.458149117041e+01   2.549950423069e+01 
1  2.097733288477e+01  -3.828033734633e+01  -2.968151120124e+00 
1 -9.219225800635e+00   1.140708609401e+01   8.077536802322e+00 
1  5.303827403522e+00  -2.170317567655e+00  -2.122112202859e+00 
1 -1.189234982273e+01   1.451180323342e+01  -5.313881628850e+01 
1  1.406378822707e+01   1.261676188094e+01   4.636577085065e+01 
1  4.580993871033e+01  -4.062699950551e+01   3.789749994387e+01 
1  3.312051545310e+01  -1.482909860770e+01   4.597612473636e+01 
8
Step 46000
1 -3.492434569814e+00   5.228706466829e+01   8.187083131293e+01 
1 -2.853126024852e+01   5.074414059480e+00   2.520126208575e+01 
1  1.794088291908e+01  -4.617438715211e+01  -2.355151084616e+01 
1  2.497648691060e+01  -5.640579296905e+00   5.668378628224e-01 
1 -1.589155474863e+01   4.293264358414e+00  -1.192614901756e+01 
1  1.744524725554e+00  -2.800015239228e+01  -3.235289677728e+01 
1 -2.211196025811e+01  -7.320449649894e+01   1.141263341433e+01 
1 -4.235216840115e+01  -3.296537463266e+01   2.429070873008e+01 
8
Step 47000
1 -1.673514665058e+01   2.605038743866e+01   3.337367630485e+01 
1  7.703874170393e+01   2.959359558679e+00  -7.210514858977e+00 
1  1.287386817018e+01   1.604844801102e+00   1.850492576300e+01 
1  5.232191195380e+01   2.572517565954e+01   2.462163398455e+01 
1 -5.437300954633e+00  -9.528258464507e-01  -5.055291865857e+01 
1  5.283231443163e+01  -1.063737364031e+01   3.602057562738e+01 
1  5.652486172535e+01   4.814663814336e+01   1.782228264813e+01 
1  2.296938560928e+01  -8.297833072315e+00   1.004096876588e+01 
8
Step 48000
1  2.049290679723e+01   3.006400098005e+01  -3.991162698977e+01 
1 -2.748352066498e+01  -8.772926191284e+00   3.114953148526e+01 
1 -1.370508039214e+01  -6.459772061427e+00  -2.300358035094e+01 
1  3.347682251425e+01  -4.612152794025e+01   4.032722729578e+01 
1  3.714982894009e+01   3.671996934468e+01  -9.308376917303e+00 
1 -3.871490097704e+01  -4.829356395918e+00   3.830283943561e+00 
1 -3.490015732283e+01  -8.750008392230e+01  -1.119682543368e+01 
1  1.827238903822e+01  -2.713813461131e+01   2.812331611049e+01 
8
Step 49000
1 -4.284668276018e+01  -1.754624046362e+01   4.242194958498e+01 
1 -1.515336032899e+01   1.486417257725e+01  -1.926742712802e+01 
1  5.188639760756e+01  -3.687479695005e+01   1.250715126462e+01 
1 -8.528627610579e-01   4.813806796458e+01   1.493013085788e+01 
1  3.323754720427e+00   6.149726016486e+01  -2.751885331471e+01 
1  4.356026801968e+01  -1.460075061753e+01   2.315762451513e+01 
1  2.817909940314e+01  -2.575924883317e+01   3.237891564514e+01 
1 -5.134851524160e+00  -5.095359332195e+01   2.456702102130e+01 
8
Step 50000
1  7.799609723247e+00   1.889750965207e+01   6.321390981713e-01 
1  4.454567690024e+01   4.208355209847e+01   1.982758528581e+01 
1 -1.142736610189e+01  -1.360551068148e+01  -9.310257859107e+00 
1  3.577713643801e+01  -5.078258366374e+01   8.968373098194e+00 
1  7.625323155118e+00  -4.593816172837e+01  -2.194826541615e+01 
1 -7.870650425442e+00   1.747769490689e+01  -1.271861064007e+01 
1 -2.968035806485e+01  -7.021496972061e+00   2.452075016251e+01 
1  1.673071624499e+01  -2.156381455846e+01   2.974645745984e+01 
8
Step 51000
1 -5.354983681452e+00   4.772092277467e+01  -1.070023780285e+01 
1 -3.222162935461e+01  -1.682764754486e+01   1.785552952345e+01 
1  4.533668817949e+01  -6.815403087112e+01  -8.425902992554e+01 
1  3.277732722342e+01  -5.781285149284e+01   3.718867085182e+00 
1  1.227025393024e+01   5.638946881079e+01  -2.366227619834e+01 
1 -5.982674938215e-01  -1.501459467213e+01  -3.021559491349e+01 
1  2.694639337650e+01  -5.888655133477e+01  -1.691850934513e+01 
1  2.407717883819e+01  -3.899132711871e+01  -9.386893538902e+00 
8
Step 52000
1 -2.555808864001e+01  -3.027289150387e+01   4.066276034878e+00 
1 -9.806885440571e-02   4.421204942868e+01  -3.910691105818e+01 
1  4.543008071329e+01  -2.876353632943e+00   4.348727016860e+01 
1  5.772430741637e+01   3.689214103258e+01   2.478168931121e+01 
1  4.764829992614e+00  -3.874138094149e+01  -2.572958680251e+01 
1  3.825314317726e+01  -1.838208439304e+01   1.748085600476e+01 
1 -2.142802987140e+01   3.953948104099e+01   1.763389388549e+01 
1 -4.427518966689e+01  -1.941581728329e+00  -6.346969063399e+01 
8
Step 53000
1  2.629517896285e+00  -1.381590001847e+01  -7.932796134435e+01 
1  4.768396564435e+01  -2.598293894417e+01   3.556279074642e+01 
1 -5.573228086860e+01  -4.077818087684e+00  -9.170844005486e+01 
1  2.084655226261e+01   2.176999970115e+00   6.958762399881e+00 
1 -5.732695220664e+00   4.490649528169e+01  -1.819180796842e+01 
1  1.942453389962e+01   2.787372615944e+01  -8.143445028662e+00 
1  4.186948435769e+01  -2.252531472577e+01   2.851936028724e+01 
1  3.743327973653e+01  -3.095464129481e+01   5.165127084413e+01 
8
Step 54000
1 -6.372282906990e+00  -3.082242391314e+01  -9.701566396060e+00 
1 -3.911355181206e+01   3.828759421328e+01   3.914097555333e+00 
1  3.424772006883e+01  -3.285893704826e+01   1.770586475362e+01 
1  5.369997719946e+00  -1.745304102175e+01   2.641410535507e+01 
1 -2.457981295841e+01   3.822873305251e-01  -4.023019937380e+01 
1 -1.464961312601e+01  -5.669454070751e+01   8.156752512308e+00 
1 -4.716452820780e+01   2.833993141288e+01  -2.579611770251e+01 
1 -3.313274898875e+01  -5.365605273478e+01  -5.555150338691e+01 
8
Step 55000
1 -3.232726914839e+01  -5.075765777581e+00  -6.972050654426e+00 
1  2.773058358677e+01   5.902550545741e+01  -1.872276511716e+01 
1 -4.776238977665e+00  -3.680042235011e+01  -1.563124249393e+01 
1  2.749223454203e+01  -4.037639626063e+01  -3.396551994623e+00 
1  2.860237054843e+01  -3.261400075625e+01  -5.079215899848e+01 
1  3.144823214272e+01   2.015559556183e+01   2.258088544648e+01 
1 -1.902048074966e+01   6.700256019195e+00   2.541925954877e+01 
1  1.209791212404e+01   1.251692262512e+01  -3.624448946385e+01 
8
Step 56000
1  2.347075653725e+01   1.035589202591e+01  -6.365838406842e+01 
1  1.685591407352e+00  -1.753671554874e+01   2.100623363270e+01 