8
Step 0
1  2.086108577697e+01   4.693432203065e+01  -2.284201364120e+01 
1  9.091580979047e+00   6.922598102697e+01   4.061902542366e+01 
1 -3.244458265140e+01   6.111061475566e+01   4.971198066405e+00 
1  1.212382219856e+01  -1.902742052781e+01   7.102886472015e+00 
1 -5.665730473373e+01   6.058214040052e+01   2.055098169242e+01 
1 -6.201009357882e+01   6.982676963481e+01  -4.984931700386e+01 
1 -3.197718126494e+01  -5.533441737496e+00   2.967724491637e+01 
1 -8.215372080555e-01   3.172605093898e+01   4.379452421306e+00 
8
Step 1000
1 -5.074695330751e+01   5.278878626984e+01   1.166815940732e+01 
1  7.937046271302e+00   3.527145222446e+01  -9.053544608227e+01 
1 -3.605765818950e+01   2.245820697887e+01   3.116186231498e+01 
1  3.008905794998e+01   5.140942604324e+01   4.707967513057e+01 
1 -4.060066439273e+01  -5.084195215256e+00  -3.808977780378e+01 
1 -2.391700135247e+01   2.613803010737e+01   8.966639040878e-03 
1 -2.480894720476e+01   1.801116513870e+01  -4.894703682010e+01 
1  1.880713417215e+01  -1.586801513883e+01  -2.657575955330e+01 
8
Step 2000
1 -3.262034357269e+01  -2.718539148123e+01  -2.229620798393e+00 
1  1.443886398646e+01   4.632095922750e+00   3.014506811423e+01 
1 -4.521176640589e+01   4.325133951401e+01  -3.588805741725e+01 
1 -3.123809976066e+01   4.082428645448e+01   1.820459679045e+01 
1 -1.451216945359e+01   5.950388246695e+01   1.020053420949e+01 
1 -3.266847180120e-01  -2.096694325885e+01   6.657894317574e+00 
1 -5.468853810499e+00   2.002491426388e+01   2.042217892206e+01 
1 -1.215339266873e+01  -5.637790065268e+01  -3.859625274105e+00 
8
Step 3000
1  1.692756723930e+01   5.631376390670e+00  -1.695120392740e+01 
1 -3.137218187895e+01  -3.479342753768e+01   3.291075597102e+01 
1 -2.391349684399e+01   2.567756807457e+01   1.156249782060e+01 
1 -2.279431129767e+01   5.289357503662e+00   4.122283869867e+01 
1  7.360300806077e+01   2.848805314320e+01  -4.442929881277e+01 
1 -2.463402735528e+01   4.779853435854e+01  -2.538993671978e+01 
1  7.809492688693e+00  -1.834929877421e+01  -3.106250187779e+01 
1  4.715732894205e+01   7.605441315331e+00  -2.788869943925e+00 
8
Step 4000
1 -3.766376982485e+00  -1.129176189427e+01  -8.536375456788e-01 
1  1.923003116113e+00   1.330914706348e+01   6.949919349269e+00 
1 -4.716960372767e+01   1.230724808768e+01  -2.778339398530e+00 
1 -2.725129894040e+01   5.747681558667e+00   4.075549895091e+01 
1 -1.793832572149e+01   2.807414749872e+01  -4.040082391325e+01 
1  1.398284479574e+01   1.495617340750e+01   1.502802906549e+01 
1 -3.568747016813e+01   4.990541815030e+01   1.521534517247e+01 
1  5.277127026381e+00  -1.206054128894e+01   4.971908583566e+01 
8
Step 5000
1 -3.283696131894e+01   6.011031017738e+01  -3.364609426343e+01 
1 -3.672379987716e+01  -5.976718727243e+00   4.026007350060e+01 
1  4.780592942929e+01   4.894624501520e+00   1.422989659102e+01 
1 -5.974072121521e+00  -3.136111795478e+01   3.315304844193e+00 
1  5.394568484382e+01   1.509564804040e+01   9.342964324326e+00 
1 -2.013605950516e+01   2.059882657427e+01   5.740254255735e+00 
1  1.042886018734e+01   2.217951405441e+01  -6.996925442336e+00 
1 -4.590929954441e+01   4.067438950601e+01  -2.095169930397e+01 
8
Step 6000
1 -4.486405191058e+01   1.328783385379e+01   5.179290115291e+01 
1 -1.188141375051e+00  -1.353159375570e+01  -4.674039927060e+01 
1 -5.454788541198e+01   1.814420584911e+01   2.834897921298e+01 
1  1.995137927545e+01   5.808109323578e+01   6.877084448562e+01 
1  3.040167557350e+01   3.281028291416e+01   2.008614709449e+01 
1  4.150077173768e+01   5.425881151998e+01   5.171135474349e+00 
1  5.997229546298e+00  -6.244946200521e+01   4.489762414666e+00 
1 -2.996485669567e+01  -3.223617081506e+00   2.758858756373e+01 
8
Step 7000
1 -1.818237367714e+01  -4.671688001017e+01  -6.596961300952e+01 
1 -1.030246505582e+01  -9.061899969685e+00   8.360768416254e+01 
1 -2.370145063536e+01  -2.238653523179e+01  -9.208504502425e+00 
1  2.665400706722e+01  -2.030312716729e+01  -2.752058101493e+01 
1 -4.877993117285e+01  -3.674466508837e-01  -1.534623267286e+01 
1 -6.623605192189e+00  -2.550792313199e+01   1.942866590758e+01 
1  2.430868833898e+00   2.915225533377e+01   1.233059300973e+01 
1  6.483254412428e+01  -4.090823200405e+01   2.340708918671e+01 
8
Step 8000
1  1.290511686663e+00  -4.551580207246e+01   8.727015318211e+01 
1 -8.067381970894e+00  -7.002499877719e+00  -1.366133395943e+01 
1 -2.814464434610e+01  -1.358002291363e+01   5.235528877468e+01 
1  1.188938224466e+01   3.736059007805e+01   4.184154232852e+01 
1  5.742788760114e+01   3.038186049740e+01  -2.652092641975e+01 
1  5.931181605647e+00   3.195362464333e+01  -3.373966811868e+00 
1  4.202068655738e+01   1.398983882844e+01   3.304099232741e+01 
1 -1.033274826070e+01   3.634687906000e+01   1.845207206043e+01 
8
Step 9000
1 -1.298348406724e+00   2.941872450733e+01  -3.177789546246e+01 
1  9.321893910007e+00  -1.359669634333e+01   2.593673152046e+01 
1 -1.651418388028e+01   4.130202526334e+00  -4.749589816874e+00 
1  3.547752491476e+01  -3.323288909557e+01   3.383316397613e+01 
1 -5.994376330034e+00   9.718423008484e+00   1.334553455222e+01 
1  1.275022941797e+01  -1.174583885173e+01   3.700258899259e+01 
1 -4.617584959271e+01   2.064927638330e+01   4.952727290184e-01 
1  3.398092607115e+01  -4.444024335279e+01  -2.026967622057e+01 
8
Step 10000
1 -4.424362293975e+01   3.181767133309e+00   2.943200721948e+01 
1 -2.407429273899e+01   1.553880797332e+00   1.568286467484e+01 
1  9.383669263396e+00   1.654239021449e+01   3.281560432515e+01 
1 -9.136418875463e-01  -2.849403905878e+01  -2.050344631762e+01 
1  7.730927395768e+01   1.196642932776e+01  -1.855643347913e+00 
1  2.289875360010e+01  -3.443741235828e+01   2.715702745637e+01 
1 -3.790991028223e+01   5.241355299023e+01   1.322260426267e+01 
1  9.886518156169e+00  -2.322621561320e+01   5.368138933260e+01 
8
Step 11000
1 -5.859835242576e+00  -1.088408109420e+01   4.256639635555e+00 
1  4.569392068869e+00  -1.691429594124e+01  -1.111281741752e+01 
1  2.117772199285e+01  -2.123629257834e+00   4.966112298354e+01 
1  3.415074694635e+01  -1.447661807959e+01   1.310408942650e+01 
1 -2.465780061917e+01  -6.716352053142e+00  -1.293463486859e+01 
1 -8.061880908431e+00  -1.652420976078e+01   1.217000052292e+01 
1  1.854392867513e+01  -4.528097336575e+01   2.008550340576e+01 
1  4.228021527910e+01  -2.843195898444e+01  -2.930728875214e+00 
8
Step 12000
1  1.652729154793e+00  -6.482609909653e+01   4.403423213717e+01 
1  1.402439748552e+01  -3.369999039072e+01   4.533106177093e+01 
1  2.064963257925e+01  -1.478542579865e+00  -3.863852679603e+01 
1  4.017952900781e+00   6.772767343084e+00  -1.784542942600e+01 
1 -2.233552903387e+01   1.080878304802e+01   1.736637589593e+01 
1  3.138960326952e+01  -1.339175024343e+01   4.678750428544e+01 
1  3.270832266310e+01   1.104987012541e+01  -6.407629191879e-01 
1  1.198490418623e+01  -6.419073948269e+00   3.838644745262e+01 
8
Step 13000
1  1.410697225569e+01  -2.377996900299e+01  -7.558180782396e-01 
1  4.387896742278e+01  -2.509188864337e+01   1.166050177840e+01 
1  2.807389150162e+00  -2.944501422940e+01  -3.148462950751e+00 
1  9.265355863449e+00   7.702127345953e+00   1.625508984707e+01 
1  9.785729267663e+00  -1.332524023534e+01   1.575398923561e+01 
1 -1.832582636356e+01  -8.037813908783e+00  -8.054792076490e+00 
1 -2.173939361819e+01  -6.016896866340e+01  -7.131958359011e+00 
1  7.720343022234e+00   1.050529889915e+01   4.262885116751e+00 
8
Step 14000
1  3.141181434159e+01   2.423663983469e+01   3.895844125017e-01 
1 -2.536144598404e+01   5.024895495114e+01   6.391226779217e+01 
1  1.603039136180e+01  -2.720167145858e+01   1.657104890089e+01 
1  8.618607152256e+01   8.679233182165e+00   3.193634605632e+01 
1  3.071213345663e+01  -7.959436755289e+00  -1.622645065781e+01 
1 -1.568864843188e+01   3.288021726974e+01  -7.334296563839e-01 
1  1.439749055623e+01  -9.007702241083e+00  -5.352308813600e+00 
1 -1.123458684642e+01  -9.182301709749e+00   1.713064930106e+01 
8
Step 15000
1 -2.528341190952e+01   1.152799257065e+01  -1.333538567576e+01 
1  2.051574518093e+01  -1.610448138218e+01  -1.699258478699e+01 
1  5.144909671594e+01  -1.547149146634e+01  -2.697370529573e+01 
1 -7.060258519659e+01  -4.032268108202e+01  -4.446114895818e+01 
1  4.089887013347e+01  -9.099091666037e+01   3.076643107647e+01 
1 -2.636702086822e+01  -7.399387948561e+01   3.102175432051e+01 
1 -9.423001667675e+00  -4.753578059143e+01   1.498516505478e+01 
1  4.459651114511e+00   8.544237832741e+00   3.627684172051e+01 
8
Step 16000
1  1.977002604495e+01  -1.150916330872e+01   3.967561128525e+01 
1  3.611979452226e+01  -4.415509632861e+01   2.447578895922e+01 
1  5.045465928448e+01   9.702660984462e+00  -6.351807282738e+00 
1 -1.327680804743e+01   2.683325890801e+01  -2.605167625081e+01 
1  5.084867165684e+00   1.089051782213e+01  -1.613649254816e+01 
1  3.512028743740e+01   1.011200408695e+01   9.545101252957e+00 
1 -2.919629572184e+01  -1.005861099385e+00  -7.018187093758e+00 
1  3.030458596447e+01  -6.253183714227e+01   1.989099583542e+01 
8
Step 17000
1  4.427573890163e+01  -4.102750574009e+01   1.551042514532e+01 
1 -6.004119210186e+00   5.046000331061e+00   1.067724556503e+01 
1  1.208468524873e+01   9.740266487441e+00  -3.170693198171e+00 
1 -3.973939809272e+01   6.168118446666e+00  -2.122459397461e+01 
1  3.067191038464e+01   2.043189865815e+00   3.259065783468e+01 
1 -2.242340561101e-01  -5.094770644008e+01   2.233707855787e+01 
1 -2.668078387263e+00  -8.639678667698e+00  -4.723252350231e+01 
1  1.402537278110e+01  -6.255927126913e+01  -1.139427923427e+00 
8
Step 18000
1  7.023697621554e+00   2.754218481231e+01  -1.576567768689e+01 
1  2.585983448101e+01  -8.626686587448e+00   1.920906560128e+01 
1  6.114104828193e+01  -4.971968649636e+01   3.309486382161e+01 
1  3.532186969741e+01   5.362799225501e+00  -4.030757416342e+01 
1 -4.929986609847e+01   2.433950543441e+01  -9.312864489540e-01 
1  1.061973503814e+01  -4.611982446354e+01  -1.839752391942e+01 
1 -4.881479100364e+00  -6.964334518074e+00   4.606053885990e+00 
1 -2.379669837176e+00   2.202186010423e+01  -7.305746308224e+00 
8
Step 19000
1  7.517220674083e-01   2.532617121879e+01   2.119302274977e+01 
1  2.226088009448e+01   4.538517626799e+01  -6.270803643305e+00 
1 -4.027794576744e+01  -3.229512401275e+01  -4.496190424135e+01 
1 -6.508927320423e+00  -4.539340038827e+01  -1.472296143720e+01 
1 -2.926330456029e+01  -4.375873981405e+01   6.605580075242e+00 
1  3.925452627530e+01  -2.913485665764e+01   5.302870935573e+01 
1 -1.435733308762e+01   2.498943556533e+00  -2.033946484786e+01 
1  4.863865575717e+00  -1.333989915065e+01  -2.143863500764e+00 
8
Step 20000
1  5.767104307775e+01   1.385191150675e+01  -4.903753712046e+01 
1 -9.265040548643e+00   1.732359013927e+00   1.844688880842e+01 
1  4.399719859704e+01  -1.746528805061e+01   1.036868857565e+01 
1 -6.240180915838e+00   1.938264492562e+01  -5.866879380873e+01 
1  5.207830349373e+01  -2.286171649060e+01   2.278326906717e+01 
1 -3.192905084034e+00  -2.295849937294e+01  -9.872016771239e+00 
1 -1.593208613900e+01  -1.252741350989e+01  -6.549978061702e+00 
1 -1.715710555011e+01  -3.598317794049e+00   6.634713696666e+00 
8
Step 21000
1  6.999018761103e+00  -7.918775476416e+01  -6.335369822955e+00 
1 -4.768436338424e+01   4.007853216336e-01  -1.676271665765e+01 
1 -4.397279428802e+00  -3.695313422437e+00   4.223495061018e-01 
1 -1.835315736570e+01   8.983267882741e+00  -2.372436918954e+01 
1 -1.588057936027e+01  -4.583263411809e+01  -3.274624197628e+01 
1  3.240639915077e+00  -2.072910869669e+00   2.220123046597e+01 
1 -3.047972310523e+00  -3.620524361930e+01  -1.038896432373e+01 
1  7.853641904230e+00  -3.547048362366e+01  -2.405749714304e+01 
8
Step 22000
1  2.024281538560e+01   5.615130349407e+01  -2.341554671496e+01 
1 -1.370745714817e+01  -4.874300507580e+01  -1.263461629359e+01 
1  6.074682480834e+01   4.160926244959e+01   2.791352252795e+01 
1  2.189957432647e+01  -3.629868184897e+00   3.978847018794e+01 
1  5.782219236900e+00   1.938644734180e+01  -4.993141418040e+00 
1 -1.571914240715e+01   3.456050434136e+01  -6.295098838477e+00 
1 -1.819974927203e+01   4.548291754529e+00  -6.101281496991e+01 
1  3.713231767572e+01   5.413052748234e+01  -3.337276924740e+01 
8
Step 23000
1 -2.840226950312e+01   1.239866134203e+01  -2.481589391830e+01 
1  1.226962858465e+00   6.794207359625e+00  -2.391525509666e+00 
1  2.181516819517e+01  -4.103674075564e+01  -5.492914694387e+01 
1 -8.914805378172e+01  -2.200582379885e+01  -3.609832718065e+01 
1 -2.909759180865e+00  -6.148425245557e+01   1.734393515372e+01 
1  4.614518481880e+00  -4.603337896704e+01   2.223740376972e+01 
1  7.672167841220e+00   5.098093438648e+01  -2.524446748235e+01 
1 -2.006117529877e+00   4.473014856407e+01  -1.016212324662e+01 
8
Step 24000
1  1.217088994981e+01   2.098467306767e+01  -4.502381435897e+01 
1 -1.243848837592e+01   2.515095257824e+01  -3.396690389290e+01 
1  1.244793815353e+01  -3.584696037954e+01  -1.055253450972e+01 
1  7.593200417208e+01  -1.394800012965e+01   2.184029257577e+00 
1 -1.343317719489e+01   1.435883080625e+00  -8.762493404699e+00 
1 -2.876891094976e+01   9.071079027510e+00   2.798602301040e+01 
1 -1.997015561144e+01  -1.623143573923e+00  -2.836526742261e+01 
1 -3.325278132868e+01   3.329281888413e+01  -6.935879440200e+00 
8
Step 25000
1 -7.334262503218e+01  -2.198581293165e+01  -3.225901041823e+01 
1 -5.053635409474e+01   1.064675461857e+01   3.585104273052e+00 
1  2.183809754602e+01   1.259585848244e+01   1.679763166800e+01 
1  3.469160649913e+00  -3.029491662351e+00  -9.272006543252e+00 
1 -4.096554615867e+01   3.255714677348e+01   9.760190286039e+00 
1  3.440003502778e+01  -5.361347382307e+01  -3.797084271027e+01 
1 -1.303364348574e+01   2.776716575184e+00  -5.993424624118e+00 
1  1.009629453385e+01   6.933875314990e+00   4.601641649427e+01 
8
Step 26000
1  1.287491662482e+01  -1.810995892818e+01  -3.560244030720e+01 
1  4.817473358624e+01   1.404732736328e+01  -3.693150912484e+00 
1  3.161452636407e+01  -1.884497029926e+01  -3.524705054660e+01 
1 -6.030141245199e+01   5.064057543406e+01  -4.910733371636e+01 
1  1.167427130552e+01  -5.630502583755e+01   3.276969780168e+01 
1 -3.499453500649e+01   1.133815332117e+01   7.459846105008e+00 
1 -8.487436257079e+00   9.375550401876e+01  -4.680995796135e+01 
1 -5.718843323503e-01   1.170696602429e+01  -5.526953420226e+01 
8
Step 27000
1 -1.470798269504e+01   3.724293558006e+01   2.602443421389e+01 
1 -5.832585504842e+01  -1.394087023260e+01  -3.574232019414e+01 
1 -3.151068426832e+00  -1.750216977732e+01   2.009969462197e+01 
1 -1.528027691231e+01  -6.639585149129e+00  -1.470907276489e+00 
1 -3.374216953053e+01  -3.176363637237e-02   2.497271476408e+01 
1  1.702505531846e+01   2.576953067475e+01  -2.764128185328e+01 
1 -2.354645882959e+01   3.931923454689e+00   3.401455016794e+00 
1 -1.289038244795e+01   3.002282394001e+01  -3.030520580120e+01 
8
Step 28000
1 -1.358156034308e+01   5.329508310715e+01  -2.584524482253e+01 
1  2.459075182362e+01  -2.673776473935e+00  -1.817995242061e+01 
1  7.526920689985e+01   9.420134893393e+00  -8.674548801793e+00 
1 -2.600327071987e+01   3.103626241785e+01  -2.966417758067e+01 
1  6.281373452684e+00   3.697027824424e+01   2.875826177596e+01 
1 -1.275830352691e+01   4.202598155233e+00   2.198482728527e+01 
1 -4.851526286709e+01   4.587325403830e+01  -1.054893076125e+01 
1  5.066618279325e+01   3.188628570193e+01   7.463483329822e+00 
8
Step 29000
1 -3.960225538218e+01   1.398563944251e+01   1.105451994423e+01 
1 -5.550417603861e+01  -7.769383661833e+00  -6.871322731558e+01 
1 -5.992509164108e+00  -8.309136704453e-01  -1.595701454138e+01 
1 -3.501207133570e+01  -1.074215195300e+01   5.721726833073e+01 
1 -8.289965068082e+00  -7.043614358556e+01  -4.525446017462e+00 
1 -1.432349244645e+01  -1.006684009952e+01   1.990752788306e+01 
1  1.319873345450e+01   3.462288650406e+00  -1.059222523406e+01 
1 -6.202644155044e+01   1.595765899256e+01  -9.532044184876e+00 
8
Step 30000
1  2.913755437108e+01  -1.329393066706e+01   3.977045712860e+00 
1  5.025621965752e+00   4.816750516947e+01   2.394595388371e+01 
1 -4.865990920300e+01  -1.671186890412e+01   1.332475522520e+01 
1  1.018229752019e+01   1.781247652205e+01  -3.264761257094e+01 
1 -2.073452421723e+01   7.954428819577e+01   1.027428570495e+01 
1  4.849971670017e+00   2.511919471720e+01  -3.616392105556e+00 
1 -2.568805663212e+01   1.632673084423e+01  -4.907710348099e+01 
1  4.324778554960e+00   3.206766936732e+01  -6.037939157660e+00 
8
Step 31000
1  4.478674434356e+01  -5.959408444397e+00   1.346516227178e+01 
1 -5.721635238280e+01   1.826436939412e+01   2.194503287484e+00 
1 -1.180005633364e+01   1.495838231775e+01   6.572712049277e+00 
1 -1.519803322371e+01  -1.449228791039e+00   3.764604311420e+01 
1 -4.531850464165e+00   6.335654589273e+00  -2.736358884173e-01 
1  2.767399659879e+01   3.225843935617e+00   4.184575921895e+01 
1  1.099794327856e+01   5.194267536223e+01  -2.050214695204e+01 
1 -3.929787631871e+01   3.625533345893e+01  -2.713408678885e+01 
8
Step 32000
1  2.458767546867e+01   4.108293506889e+01   2.759436475781e+01 
1  1.335961813679e+01  -4.576868838175e+01  -4.964794335014e+01 
1  3.778019098924e+00   4.012969322918e+01   3.105588819648e+01 
1 -1.100049170167e+01   4.401715469174e+01  -2.294507015953e+01 
1 -3.767715980668e+01   5.027951751509e+01  -2.260598275634e+01 
1 -3.185911068009e+01   3.213685802880e+01  -1.147666024029e+01 
1  9.157989911493e+00  -3.741215957454e+00   8.324723494391e+00 
1 -1.412007731770e+01  -3.062435783572e+01   5.553144412374e+00 
8
Step 33000
1 -2.227437923730e+01   5.353339220547e+01   7.460135964750e+00 
1 -7.470350493950e+00  -1.407072591362e-02   5.153843779234e+01 
1 -7.079270703794e+01   4.184223024191e+01  -6.837482169165e+00 
1 -6.455506623948e+00   1.792907361905e+01   4.308075284857e+01 
1  2.119448127939e+01  -2.552369106328e+01   9.282898457237e+01 
1  2.384089957434e+00  -2.009305174535e+01   5.627878385519e+01 
1 -2.592837959857e+01   3.261242414067e+01  -6.885406565775e+00 
1  9.450903778324e+00   6.334032219037e+01  -6.708926480415e+00 
8
Step 34000
1  7.674357980661e+01  -2.618879925568e+00   1.597252455316e+01 
1 -3.612115061043e+01  -7.962536212477e+00  -6.021946787985e+01 
1  2.687168251753e+01   1.248777524909e+01   4.771672419834e+01 
1 -3.072051507904e+01   9.772161683082e+00  -8.237485721642e+00 
1 -4.215453697453e+01   1.990526060249e+00  -2.950990059794e+01 
1  2.908188958840e+01  -2.710320682582e+00  -2.506449879543e+01 
1  2.189974467696e+00   4.790179236710e+00   5.037117523387e+01 
1 -6.626449064409e+00   2.315303489910e+01  -3.890490939866e+01 
8
Step 35000
1 -2.572103073427e+01   4.995593446194e+00   6.456336437079e+00 
1  1.628727483964e+01   4.885119359951e+00   5.016822957781e+01 
1 -6.203632628939e+01   2.238848466237e+01   1.240697630621e+01 
1  1.165743439053e+01   8.075438603478e+00   1.270232147400e+01 
1  1.864912395165e+01   1.673970736757e+01   2.943802457450e+01 
1 -4.377488089281e+01  -7.600855968212e+00  -8.195932476448e+00 
1 -2.873121739611e+01  -2.904174628234e+00  -4.356413886203e+01 
1  1.728099518644e+00  -2.222839793962e+01   3.856479600452e+01 
8
Step 36000
1 -9.704531662791e+00  -5.090025099613e+01   8.911725016540e+00 
1  4.779704921865e+01   2.976636093707e+01   3.769267448809e+01 
1  2.504547948479e+01   3.182882294785e+01   2.730687629675e+01 
1 -3.555333396772e+00   1.203555754466e+02   1.621701644325e+01 
1 -1.928220308064e+00   2.151553777354e+01  -2.128922225207e+01 
1  4.442491216757e+01  -1.014770742617e+00  -1.821789866329e+01 
1  1.918157052743e+01   1.258605105297e+01   2.452767042101e+01 
1 -1.087171325378e+00   3.288571289769e+01   1.700675001972e+01 
8
Step 37000
1  6.478562231084e+01  -8.673411212841e+00   1.533566472294e+01 
1 -3.313761136719e+01   3.523313223094e+01  -5.049536605748e+01 
1 -8.269438972286e+00  -1.353017516548e+00   5.308262693016e+01 
1 -2.216001722859e+01  -1.284358176851e+01   2.757502081221e+01 
1 -6.339758004699e+01   1.144153489598e+01   3.192301902498e+01 
1  6.915702282041e+00  -4.907240451025e+01   3.082535965931e+01 
1  2.751887768631e+01   3.738781290239e+01   5.933605271859e+00 
1 -2.011234859371e-01  -1.600527697398e+01   9.038714307689e+00 
8
Step 38000
1 -8.080280019524e+01   6.220817130389e+01   7.889182821487e+00 
1  1.937073673449e+01  -6.227662975539e+01   4.556294307007e+00 
1  8.532071175530e+00  -1.756891150149e+00  -7.303425166153e+00 
1  2.024557056280e+01  -1.718559042583e+01   5.706628222562e+01 
1  2.356852000475e+01   7.892670792811e+00  -3.145826577065e+00 
1 -1.644642848094e+01   6.146280809798e+00   7.538496312015e+00 
1  1.571324610832e+01   5.924880459381e+00  -3.663895212266e+01 
1 -2.087179917923e+01  -5.023558830837e+00   4.193070548366e+01 
8
Step 39000
1 -1.868107397771e+01   2.383362341930e+01   4.383814789342e+01 
1  1.472139201695e+01  -2.194458024165e+01  -1.709488741988e+01 
1  1.768198411104e+01   1.591654900879e+01   5.140768339709e+01 
1  1.929345122725e+01   6.065218010784e+01  -5.419634056760e+00 
1 -1.634554106399e+01  -2.836190347242e+01   7.738940796499e+00 
1  1.678468708457e+01  -1.442717120872e+01  -7.920171531178e+00 
1  4.721024438146e+00   1.083857376236e+01   6.556212187851e+01 
1  2.399227706050e+01   6.785374447357e+00   1.016708074915e+01 
8
Step 40000
1  2.708018262961e+01  -6.096694413432e+01   2.860717417811e+01 
1  1.350077325483e-01  -2.265352688710e+01  -4.304448436692e+00 
1 -2.932699574870e+01   2.236096573841e+01  -1.216771994264e+01 
1  3.764752743618e+01  -5.657978702093e+01   2.289478199581e+01 
1  2.148000455821e+01   3.296588437642e+01  -2.196962230992e+01 
1  2.339841045739e+00   4.775052473370e+00  -1.685455005812e+01 
1  1.836253510938e+01  -1.800513497217e+01  -3.843845544340e+01 
1 -2.638708372064e+01  -4.617971134196e+00  -1.061836848444e+01 
8
Step 41000
1  6.312709880827e+00   3.553861825141e+01   3.393231816085e+01 
1  2.636627596586e+00  -9.653921152044e+00   2.778406839844e+01 
1 -1.200603129977e+01  -1.298689175304e+00   2.997677690910e+01 
1 -4.467975893165e+00   4.894505204506e+01   3.105669125417e+01 
1  1.006188006173e+01   2.981725010838e+01  -6.358114877718e+00 
1  1.795197534441e+01   2.173514511651e+01   7.128412653751e+00 
1  1.576784799762e+01  -3.905857454051e+01   4.037891920913e+01 
1  4.838376011845e+01   2.295884041454e+01   1.608923769962e+01 
8
Step 42000
1  1.663358227270e+00  -7.948395756355e+01  -4.260027409341e+01 
1 -8.785156593038e+00   4.186607419132e+01  -3.362189337671e+01 
1 -3.874998518934e+01  -2.193248932204e+01  -7.777836750881e+00 
1  4.646337809387e+01  -4.859919315372e+01   3.498355504566e+01 
1  1.402209533901e+01  -4.357847818627e+01   1.496832946931e+01 
1  4.229779833250e+01   3.452648488520e+01   2.261589245378e+01 
1  3.651969783147e+01   3.386613796620e+01   1.634025732443e+01 
1 -3.017647907908e+01  -2.427464411103e+01   1.218471780653e+00 
8
Step 43000
1  1.494902505867e+01   2.766959906542e+01   5.372278550570e+01 
1 -1.051947743650e+01  -4.509077575736e+01   2.408919098460e+01 
1 -3.477803046886e+01  -5.095618756464e+00  -3.049627391306e+01 
1  2.295534118141e+01   9.426991772777e+00  -8.606826346067e+00 
1 -1.408580761036e+01   5.759566398770e+01  -5.023151560281e+01 
1 -2.305425954951e+01  -1.383841877531e+01   1.329639663939e+01 
1  2.592164734839e+01  -6.072085620332e+01   4.361678980619e+01 
1  3.726007502176e+01  -3.834811733098e+01   1.991334238294e+01 
8
Step 44000
1  1.258729852909e+01  -4.140130448436e+01   4.411660952227e+01 
1 -4.891252303644e+01  -9.513802263330e+00  -5.467341140977e+01 
1  2.269331495038e+01  -3.168760643615e+00   9.818154163909e-01 
1 -8.584916210486e-01  -2.292138967779e+01  -4.793674829311e+00 
1  3.363050277072e+01  -3.074796596346e+01  -2.294917700995e+01 
1  8.395216031247e+01  -3.637005281549e+01   3.349073031415e+01 
1  2.411996729942e+01   4.819381973551e+01  -3.138734895346e+00 
1 -4.552748763052e+01  -1.096036173700e+01  -3.008373250341e+00 
8
Step 45000
1  4.157244417824e+01   3.347757274589e+01  -1.914816016960e+01 
1  9.189994955345e+01  -3.297556805385e+01   6.352977394421e+01 
1 -8.476560814534e+01   1.201845852475e+01  -1.823097439329e+01 
1  2.960430826098e+01  -6.444522351052e+00  -2.322181378048e+01 
1  2.334070509188e+01   6.993684612727e+00  -2.884765666438e+01 
1 -1.343515152554e+01   5.104079241399e+01  -9.890837412704e+00 
1  2.864675673454e+01  -1.302513875655e+00   2.417581492118e+01 
1  6.149544365470e+01  -5.363452616689e+01   1.518179929621e+01 
8
Step 46000
1 -4.250333028342e+01  -6.721748683866e+01  -3.592624669400e+01 
1 -2.865999876632e+01  -1.010297311541e+01  -2.278603021475e+01 
1 -1.094117734664e+01  -2.412985587729e+01   3.224778428851e+00 
1 -7.698966446108e+00  -1.075093793394e+01  -7.499187760358e+00 
1  2.396389436318e+01   1.853168642365e-01   8.460161962585e+00 
1  9.390736412002e+00  -7.774732099891e+01  -3.064599433273e+01 
1 -3.323529295867e+01  -1.160087543582e+01  -1.104069181115e+01 
1  9.004831591230e+00  -9.751124716398e+00   1.362650073011e+01 
8
Step 47000
1  1.435906960930e+01  -7.896698235439e+00   1.972845131911e+01 
1  1.406613225168e+01   2.088924092883e+01   1.184725318424e+00 
1  1.049545594817e+01   1.086346017429e+01   8.911905428685e+00 
1 -6.605743172139e+00   2.273203211317e+01  -7.831810525614e+00 
1  1.330403721476e+01   2.333259240012e+01  -5.556702387232e+01 
1  3.306972957913e+01   1.631511459293e+01   3.119384517920e+01 
1  4.056561787784e+01   1.570913331072e+00   5.039661188140e+01 
1  7.937894200658e+00  -9.247602189741e+00   3.152498273497e+01 
8
Step 48000
1 -1.509823626345e+01   2.334701658032e+01  -7.250020913380e+00 
1  3.192563620187e+01  -5.143013068561e+01  -8.178073568321e+00 
1 -5.327664220061e+01  -6.987036227709e+01  -4.997209796508e+01 
1 -5.675398232536e+00  -2.595222163983e+01  -5.374753236845e+01 
1 -2.264268372829e+01  -6.065430217499e+01  -1.318407733937e+01 
1 -2.534738338200e+01  -2.403186506369e+01  -8.464059843858e+01 
1  9.111456448946e-02  -7.887339237645e+01   1.317817588340e+01 
1  1.525875196404e+01  -2.011050259877e+01   3.547498199384e+01 
8
Step 49000
1  1.623480251238e-01   3.245948301286e+01   4.913744155793e+01 
1  1.642447619993e+01   2.652104238707e+01   7.513443467612e+00 
1  5.507119001567e+01  -5.952915799162e+00  -1.356038873971e+01 
1  4.647039496079e+01   6.477222254068e+00   4.065318614598e+01 
1 -9.307446058687e+00  -2.038829769046e+01  -6.767996457940e+01 
1  2.071667779545e+01  -3.202920984391e+01  -1.236773159259e+01 
1  1.575842114534e+01   4.152550442557e+01  -1.716669666529e+01 
1 -5.097837547661e+01   1.743317453120e+01  -5.626658156230e+01 
8
Step 50000
1 -4.068230423214e+01   2.318467909215e+01  -7.305804142343e+01 
1  2.904274659563e+01  -2.296611224784e+01  -1.339783074183e+01 
1 -2.807186273471e+01   4.688925151022e+00  -1.601419890505e-01 
1  4.134497748535e+01  -9.887824843843e+00   1.134906920545e+01 
1 -1.249155021666e+01   4.539430343928e+00  -5.307253213933e+01 
1 -6.300153274081e+00  -1.343900065591e+01   8.559850030000e-01 
1  3.431511371727e+01  -5.894762646088e+01   2.646855261798e+01 
1  3.159231768647e+01  -1.171369115301e+01   7.558482836440e+00 
8
Step 51000
1  2.074748121888e+01  -6.203199026874e+00  -2.558498402951e+01 
1 -6.850450249453e+00  -1.863294499536e+01  -8.740056741739e+00 
1 -5.583400164987e+00  -3.714109323190e+00  -1.106792891869e+01 
1  6.754411048690e-01   2.317170230293e+01   1.383265809696e+01 
1 -1.992133894716e+01   1.845347836082e+01  -1.993007161157e+01 
1 -1.740242747490e+01  -2.502042254051e+01  -2.137063588453e+01 
1 -2.206953255716e-01   1.425248571709e+00  -8.946342676095e+00 
1 -1.827208923446e+01  -1.466321958450e+01  -1.363466281500e+01 
8
Step 52000
1 -7.859246409666e+01   1.595787303962e+01   2.802935726046e+00 
1  1.284622489057e+01   5.631131799083e+01   1.142295701135e+01 
1 -8.985767876260e+00  -2.761910423394e+00  -5.513083803007e+00 
1 -1.967815937475e+00  -5.578171071385e+01   1.804454343568e+01 
1 -2.403307519858e+01  -1.499294014761e+01  -5.947589613562e+01 
1 -2.231014683111e+01  -1.870978854046e+01   8.253534954474e+00 
1 -5.286352755902e+01  -1.972770947028e+01   1.894568993160e+01 
1  7.755215575157e+00  -1.002390933590e+02  -2.628731046614e+01 
8
Step 53000
1  1.854166477384e+01   5.968952878102e+01   5.371252107333e+00 
1 -1.956085661553e+00   2.521761643126e+01  -2.936269460282e+01 
1  3.710133665812e+01  -1.816885797895e+01  -1.000163030498e+01 
1  3.601841793229e+01  -7.519225800169e+01  -1.438705565257e+01 
1  1.673307495543e+01   1.494824083151e+01   6.346588182426e+00 
1 -3.649369878350e+01   1.748473268518e+01  -1.696007731146e+01 
1  1.877097414866e+01   1.903112637457e+01  -2.620224597740e+01 
1  3.105431637943e+01   4.108902082454e+01  -3.063901818968e+01 
8
Step 54000
1 -4.062681901699e+01   1.623746035144e+01  -5.807483972902e+01 
1 -2.984427764634e+01   2.445627124245e+01   2.039425238655e+01 
1  3.464970025252e+01  -2.540170416266e+01   5.253876897535e+00 
1 -7.557523087732e+00   1.564714772218e+01  -6.997044872644e-01 
1 -3.487246004222e+00  -3.964393999208e+00  -4.630977092039e+01 
1  2.584259317839e+00  -3.954247263878e+01  -7.746400990132e+00 
1 -2.517260385321e+01  -3.965017318213e+01  -3.678965925012e+00 
1 -3.712846708475e+01  -8.753722315190e+01  -7.655918590430e+01 
8
Step 55000
1 -1.042005331563e+01  -3.424424383752e+01   7.279730454394e+00 
1  3.526671977571e+01   1.830745454255e+01  -4.556737458620e+01 
1 -2.257556996635e+01   5.864352495857e+01  -1.534960550285e+01 
1  4.217721669167e+01  -2.278281254150e+01   1.410953543660e+01 
1 -3.570070476239e+01  -1.044464563396e+00   3.479352098307e+01 
1  1.002386921156e+01   8.917838399435e+01  -1.856211863520e+00 
1 -1.751124721000e+01   7.210059078478e+01  -9.059565669541e+00 
1  1.341290048086e+00   3.834295964827e+01   2.612866657154e+01 
8
Step 56000
1  1.329832267931e+01   1.736423469261e+01  -7.696866585290e+01 
1 -5.358239913463e+01   5.005309311071e+01   4.927454146450e+01 