8
Step 0
1  2.130326814812e+00   3.841428738278e+01  -3.900125211552e+01 
1  3.567597752465e+00  -3.504277063756e+01   3.861701022475e+01 
1  6.258847992801e+01  -7.076539324116e+01   6.450599359103e+01 
1  5.978855273526e+01  -4.628740992298e+01  -3.331699604665e+01 
1  5.663920321690e+01  -5.214564811192e+01   5.649937483509e+01 
1 -4.885508989697e+01   7.742773658779e+01   3.518899981800e+01 
1  3.981944038262e+01  -7.472662646084e+01  -5.860625198879e+01 
1 -7.332626035848e+01  -1.421247514719e+01  -1.259120980933e+01 
8
Step 1000
1  1.221413980861e+01   3.631964516864e+01  -1.439038378564e+01 
1  1.426192937919e+01  -3.920637605559e+01   3.362402961211e+01 
1  5.606213165831e+01  -4.772227115149e+01   6.740179888227e+01 
1  5.528077871839e+01  -4.880127871626e+01  -1.592549707475e+01 
1  2.854947895861e+01  -3.181321571426e+01   4.383530632901e+01 
1 -1.721923703851e+01   8.740944977354e+01   2.476328840034e+00 
1  3.861583750795e+01  -4.863511861276e+01  -6.294691473906e+01 
1 -5.257852055473e+01   3.479305684909e+00  -1.431255871094e+01 
8
Step 2000
1  1.178633679008e+01   2.735902223917e+01   1.847758934532e+01 
1  1.564791366169e+01  -2.276439844642e+01   1.883515616120e+01 
1  3.141226980234e+01  -2.987139045490e+00   5.108557689611e+01 
1  2.814806936687e+01  -3.360676318254e+01   9.735803979302e+00 
1 -1.229245729091e+01   6.176724036813e+00   2.645054051840e+01 
1  2.105407429466e+01   5.999047775779e+01  -3.517646368352e+01 
1  2.963355965213e+01  -2.068624389924e+00  -4.672517981204e+01 
1 -9.641529025400e+00   1.552470069480e+01  -1.699455236119e+01 
8
Step 3000
1  3.522335300784e+00   1.318320670039e+01   4.383593455249e+01 
1  1.104871894389e+01   2.169178747697e+00  -2.610023171133e+00 
1 -1.863223861289e+00   3.852268677103e+01   2.225490811245e+01 
1 -6.811913851238e+00  -7.075668234720e+00   3.616575613602e+01 
1 -4.585711666681e+01   4.393925993454e+01   9.413016438654e+00 
1  4.987827908561e+01   1.014664131454e+01  -5.945006933847e+01 
1  1.713607120023e+01   4.329522060014e+01  -1.763819302595e+01 
1  3.197026688434e+01   1.284525203074e+01  -1.787788905919e+01 
8
Step 4000
1 -5.890595787543e+00  -2.851258689766e+00   5.003822459668e+01 
1  7.470014545258e+00   2.000095550718e+01  -2.432079988518e+01 
1 -3.066443339411e+01   5.593061242246e+01  -9.161027670219e+00 
1 -3.233289824602e+01   1.875692617774e+01   5.352536845829e+01 
1 -5.736178374502e+01   6.375628609853e+01  -5.405827843965e+00 
1  5.876446276645e+01  -3.525741620459e+01  -5.845993953415e+01 
1  5.394981406455e+00   6.799175158891e+01   1.102438165861e+01 
1  5.244632455937e+01  -2.482535074974e+00  -1.460089307588e+01 
8
Step 5000
1 -9.697877423164e+00  -1.765385236085e+01   3.510557758787e+01 
1  7.845387661270e+00   2.293996111083e+01  -4.062252382059e+01 
1 -4.900833323070e+01   4.590843347833e+01  -3.695564030517e+01 
1 -4.145885020177e+01   3.634047140233e+01   5.710327500085e+01 
1 -4.559471635421e+01   5.943798921524e+01  -1.917324556508e+01 
1  4.741798000699e+01  -6.090580355192e+01  -3.441850286104e+01 
1 -4.675382788854e+00   6.687424510196e+01   3.166315743426e+01 
1  4.740202798837e+01  -2.196089275676e+01  -6.173461970859e+00 
8
Step 6000
1 -4.557703223956e+00  -2.753480466548e+01   5.012985310334e+00 
1  1.074091203358e+01   1.071119037057e+01  -4.660797786949e+01 
1 -5.324661404045e+01   1.431954548282e+01  -5.512501743390e+01 
1 -3.345977563445e+01   4.050416619229e+01   4.460938980530e+01 
1 -1.681612926485e+01   3.141912523754e+01  -3.114612909936e+01 
1  2.085750182145e+01  -5.872453007950e+01   3.019980347493e+00 
1 -1.322548104847e+01   4.208219768907e+01   3.976822449075e+01 
1  2.087126684304e+01  -3.477485700328e+01   6.836833622275e+00 
8
Step 7000
1  6.641833121027e+00  -2.962548939980e+01  -2.700945485164e+01 
1  1.219905708172e+01  -8.637024093218e+00  -3.872445126949e+01 
1 -4.218980209469e+01  -2.375086109130e+01  -5.802108534615e+01 
1 -1.384419672707e+01   2.970926010510e+01   1.820312529554e+01 
1  1.568571696595e+01  -1.074849752956e+01  -3.786345678359e+01 
1 -1.092077042276e+01  -3.078030711199e+01   3.850529661687e+01 
1 -2.023015671813e+01   4.086915036661e+00   3.442443527367e+01 
1 -1.471715724884e+01  -3.190448850158e+01   2.150358716755e+01 
8
Step 8000
1  1.679239310597e+01  -2.335057871343e+01  -4.682243687276e+01 
1  7.927879338574e+00  -2.329409200139e+01  -1.702883185335e+01 
1 -1.992140889076e+01  -4.872030817427e+01  -4.380746117336e+01 
1  6.915950053465e+00   8.820483579520e+00  -1.369373999333e+01 
1  3.685036957802e+01  -4.941402410558e+01  -3.536489068934e+01 
1 -3.616433969031e+01   7.494373531756e+00   5.652709108561e+01 
1 -2.505085169593e+01  -3.055979062658e+01   2.014649107304e+01 
1 -4.246425236651e+01  -1.273594984136e+01   3.267418841956e+01 
8
Step 9000
1  1.992215381991e+01  -1.118705248505e+01  -4.689601947238e+01 
1 -3.424569575554e+00  -2.573032727545e+01   1.220981228616e+01 
1  5.786160081825e+00  -4.938979472577e+01  -1.644401683107e+01 
1  1.958938058326e+01  -1.314228314715e+01  -4.073112212779e+01 
1  3.909455567740e+01  -6.907495433681e+01  -2.253134628574e+01 
1 -4.714725101172e+01   3.757485925101e+01   5.133758143439e+01 
1 -2.657869288929e+01  -4.894574862101e+01   4.310378516645e+00 
1 -5.089222239620e+01   1.426237375395e+01   3.566581291457e+01 
8
Step 10000
1  1.339436256448e+01   2.005942540665e+00  -2.794994143007e+01 
1 -1.837740045506e+01  -1.493131768917e+01   3.892092746291e+01 
1  2.807715404803e+01  -2.703328118841e+01   1.652072315929e+01 
1  2.079770452189e+01  -2.800212948327e+01  -5.549737029411e+01 
1  2.468250359591e+01  -6.311541596074e+01  -2.031896461546e+00 
1 -4.242050274266e+01   4.765098802448e+01   2.784667386881e+01 
1 -2.346995343416e+01  -4.716169375091e+01  -7.344452463222e+00 
1 -3.807713087643e+01   3.742432011637e+01   2.818105273977e+01 
8
Step 11000
1 -1.080407832903e+00   1.146997256549e+01   1.423004973883e+00 
1 -2.975873087543e+01   3.993121155868e+00   5.375380439409e+01 
1  4.198007823619e+01   7.660703110921e+00   4.558085869377e+01 
1  1.283451360416e+01  -3.083478985873e+01  -5.444551341343e+01 
1  2.572913211302e+00  -3.399478330761e+01   2.001252502198e+01 
1 -2.561182645467e+01   3.472528180787e+01  -2.986857849036e+00 
1 -1.436849189122e+01  -2.893741579717e+01  -1.238069329876e+01 
1 -1.002913617934e+01   4.660521264839e+01   1.067124725750e+01 
8
Step 12000
1 -1.690627678512e+01   1.484168872258e+01   2.798960702729e+01 
1 -3.050684219108e+01   2.088451451383e+01   5.070029816020e+01 
1  4.457837026779e+01   3.865778545440e+01   6.088526662661e+01 
1  1.687639317587e+00  -2.163241731171e+01  -3.875687631940e+01 
1 -1.580179668400e+01   6.869460872243e+00   3.540858791084e+01 
1 -3.529880564749e+00   6.458111963290e+00  -2.785253875868e+01 
1  6.741677934810e-01  -3.805543847803e+00  -1.176238947703e+01 
1  2.140985921297e+01   3.745583191036e+01  -1.293977365382e+01 
8
Step 13000
1 -2.632128819340e+01   1.263743502656e+01   4.125737494402e+01 
1 -1.751720776477e+01   2.719327062674e+01   2.895509992005e+01 
1  3.558397183765e+01   5.181798627041e+01   5.648882187280e+01 
1 -6.266612834002e+00  -5.271088467372e+00  -1.405367137101e+01 
1 -2.235540602614e+01   4.357144522715e+01   3.786862065254e+01 
1  1.645749427942e+01  -2.267326975357e+01  -3.733065589198e+01 
1  1.905673079175e+01   1.718102255687e+01  -8.912886571126e+00 
1  4.387159559122e+01   1.411088358902e+01  -3.558137290021e+01 
8
Step 14000
1 -2.503018955685e+01   7.766769802395e+00   3.712310855441e+01 
1  5.945044574180e+00   2.110013031220e+01  -4.879623396713e+00 
1  1.767178064760e+01   4.144067669200e+01   3.320362509948e+01 
1 -7.413743869750e+00   1.110224025833e+01   1.238308856156e+01 
1 -1.608564028769e+01   6.295837064434e+01   2.627177388278e+01 
1  2.897017358102e+01  -3.949591461327e+01  -3.045382937843e+01 
1  3.593340973335e+01   2.665127784094e+01  -7.508038270293e+00 
1  4.982462083427e+01  -1.342280278743e+01  -4.947666001307e+01 
8
Step 15000
1 -1.348496543588e+01   4.616285864193e+00   1.794937929667e+01 
1  3.042361726417e+01   6.289134130477e+00  -3.819086238782e+01 
1 -4.390116375789e+00   1.202884612622e+01  -2.116552664065e+00 
1 -2.159140158870e+00   2.086485029714e+01   3.398002365960e+01 
1 -2.686400002017e+00   5.870966583197e+01   5.202950690730e+00 
1  3.158032185671e+01  -3.670532975202e+01  -1.332422486493e+01 
1  4.532553237788e+01   2.308973337778e+01  -9.311313843520e+00 
1  3.820799940944e+01  -3.423248605235e+01  -4.843491743211e+01 
8
Step 16000
1  3.596225508725e+00   6.043280861720e+00  -7.003361296558e+00 
1  4.416499761540e+01  -9.959335528190e+00  -5.821976268393e+01 
1 -2.534899178472e+01  -2.302122059788e+01  -3.833723950186e+01 
1  5.361319894561e+00   2.025149919649e+01   4.617189992936e+01 
1  8.809649445490e+00   3.358192674597e+01  -1.620364362581e+01 
1  2.517914789826e+01  -1.602017479297e+01   4.431808204663e+00 
1  4.181470361210e+01   1.066623462526e+01  -1.303597742054e+01 
1  1.392938965397e+01  -4.102053781067e+01  -3.023828699213e+01 
8
Step 17000
1  1.872125184242e+01   1.126062021756e+01  -2.615205395557e+01 
1  3.950717100705e+01  -1.880247230065e+01  -5.710222753910e+01 
1 -4.095159515325e+01  -4.909715562000e+01  -6.288944600268e+01 
1  9.893040378430e+00   1.049563158919e+01   4.753788487554e+01 
1  1.150381386821e+01  -1.430526373615e+00  -2.816733218594e+01 
1  1.332184806731e+01   1.197739965742e+01   1.396418052921e+01 
1  2.331297929758e+01  -2.963930536662e+00  -1.505495397453e+01 
1 -1.413167276759e+01  -3.329223521257e+01   1.343977417757e+00 
8
Step 18000
1  2.567018647196e+01   1.640671132591e+01  -3.281650081983e+01 
1  1.599832573319e+01  -1.594278719692e+01  -3.367540547489e+01 
1 -4.734726774855e+01  -5.650154794733e+01  -6.638265885637e+01 
1  8.199314757683e+00  -3.142559988723e+00   3.925082435067e+01 
1  4.435983243331e+00  -3.257482005922e+01  -2.525229981564e+01 
1  3.951646362961e-01   3.396351464429e+01   1.176202450451e+01 
1 -7.069263041454e+00  -1.069433656846e+01  -1.152179041751e+01 
1 -3.701636117199e+01  -1.685502408757e+01   3.700457156787e+01 
8
Step 19000
1  2.251103686804e+01   1.579647254027e+01  -2.558035554038e+01 
1 -1.871758156748e+01  -4.711621806265e+00   5.196959091209e+00 
1 -4.137351405112e+01  -4.101991891157e+01  -4.656253939293e+01 
1 -3.216710961563e-02  -1.418891208330e+01   2.344159781978e+01 
1 -7.819585415222e+00  -4.949375323060e+01  -8.979522150884e+00 
1 -1.002968263255e+01   4.007548363402e+01   1.116915529968e+00 
1 -4.130643251914e+01  -9.274845375817e+00  -3.834723887369e-01 
1 -4.870602697518e+01   1.181972416484e-01   6.460209564717e+01 
8
Step 20000
1  1.142188631729e+01   3.966022823702e+00  -6.934055560898e+00 
1 -5.016359375458e+01   7.948225776057e+00   4.544469175100e+01 
1 -2.277235154366e+01  -6.227213525866e+00  -8.838520302310e+00 
1 -1.247288003894e+01  -1.705447423016e+01   1.802260488932e+00 
1 -1.754170234052e+01  -4.708747316038e+01   1.341885753006e+01 
1 -1.587321959463e+01   2.654136307729e+01  -1.002813662738e+01 
1 -6.797754302887e+01   1.500912504638e-01   1.723226353110e+01 
1 -4.638908663346e+01   1.115623263374e+01   7.244475880937e+01 
8
Step 21000
1 -2.848232197016e+00  -1.918809516825e+01   1.505999617155e+01 
1 -6.236821885615e+01   1.532667187791e+01   7.082548072043e+01 
1  4.828649205883e+00   3.463033791031e+01   3.529583484297e+01 
1 -2.404008358088e+01  -8.683557229391e+00  -2.384752512330e+01 
1 -1.688849330540e+01  -2.678470725946e+01   3.062541396052e+01 
1 -1.734383003751e+01  -2.062249541936e+00  -1.269942042003e+01 
1 -7.503834650770e+01   1.236130954805e+01   3.592445458105e+01 
1 -3.026032354763e+01   1.403302940821e+01   5.315796981998e+01 
8
Step 22000
1 -1.426306047963e+01  -4.576253301744e+01   3.004074333327e+01 
1 -4.659070135832e+01   1.270593115695e+01   6.832712683609e+01 
1  3.384896981077e+01   6.543289621148e+01   6.958979411881e+01 
1 -2.836035908100e+01   8.778705055821e+00  -4.912707966596e+01 
1 -3.967295640564e+00   2.055263901035e+00   3.185376355891e+01 
1 -1.681307747277e+01  -3.280762095838e+01  -1.980579646203e+00 
1 -5.555048204689e+01   1.963982210902e+01   4.693740065450e+01 
1 -4.570041056557e+00   1.180996433522e+01   9.766651547615e+00 
8
Step 23000
1 -1.910646461085e+01  -6.242212027038e+01   3.207424683959e+01 
1 -7.996225145202e+00   1.220323781896e+00   3.691178879427e+01 
1  5.498685977814e+01   7.514704307822e+01   7.947169726841e+01 
1 -2.229218791939e+01   2.700195298684e+01  -6.674773514811e+01 
1  1.445580260172e+01   2.580493339090e+01   1.417573448880e+01 
1 -1.724910562895e+01  -5.048856168537e+01   1.816998960303e+01 
1 -1.423751753886e+01   1.617307609942e+01   4.297682464322e+01 
1  2.245361466937e+01   1.106647981713e+01  -4.176414450511e+01 
8
Step 24000
1 -1.812870605827e+01  -5.756600783212e+01   2.162596744299e+01 
1  3.482657795232e+01  -1.080343393431e+01  -8.829646990521e+00 
1  6.062762975729e+01   6.013439590282e+01   6.178571893566e+01 
1 -7.345972422179e+00   3.576768994554e+01  -7.031877561116e+01 
1  2.731111576256e+01   3.492425834098e+01  -1.382615854068e+01 
1 -1.976180539057e+01  -4.682789792283e+01   3.619727275072e+01 
1  3.287617503110e+01   2.488731745537e+00   2.326869751997e+01 
1  4.244457255694e+01   1.641951700746e+01  -7.934404319521e+01 
8
Step 25000
1 -1.476356447751e+01  -2.918467677950e+01   4.198974456154e+00 
1  6.008218398645e+01  -1.480781636132e+01  -4.724402535936e+01 
1  4.866690441100e+01   2.649957274941e+01   2.667210446266e+01 
1  1.147035880872e+01   2.889715059898e+01  -5.712700252853e+01 
1  2.663663937839e+01   2.853774449674e+01  -3.723521185729e+01 
1 -2.197067031518e+01  -2.493833187036e+01   4.024660848544e+01 
1  6.662122298485e+01  -1.467522603531e+01  -5.400831212378e+00 
1  4.999340102795e+01   2.635005169845e+01  -8.660657026985e+01 
8
Step 26000
1 -1.165371435148e+01   1.297028216452e+01  -1.216918119973e+01 
1  5.573107231121e+01  -8.769589646187e+00  -6.217609838716e+01 
1  2.403156575468e+01  -1.135299468738e+01  -1.030703051278e+01 
1  2.768367217982e+01   7.610479028238e+00  -2.876011228179e+01 
1  1.150653891996e+01   1.299842301310e+01  -4.366696058906e+01 
1 -1.953345214785e+01   3.856322049838e+00   2.548426041969e+01 
1  7.389589506718e+01  -2.725561061955e+01  -3.207155419313e+01 
1  4.397655886517e+01   3.358046513466e+01  -6.083508310434e+01 
8
Step 27000
1 -9.409047963100e+00   5.233307555530e+01  -2.128602111687e+01 
1  2.522732590911e+01   3.039303732358e+00  -4.906109147947e+01 
1 -4.034741489107e+00  -4.005529726549e+01  -3.605015111933e+01 
1  3.547518202963e+01  -2.000743451382e+01   8.084091675818e+00 
1 -1.007400321787e+01  -1.997667178538e+00  -2.936599696509e+01 
1 -9.438597130717e+00   2.642512568899e+01  -2.911630546815e+00 
1  5.343353950424e+01  -2.935675376516e+01  -4.676831341578e+01 
1  2.715003492140e+01   2.977190804647e+01  -1.387034014023e+01 
8
Step 28000
1 -6.256369230305e+00   7.328431714489e+01  -2.134776244215e+01 
1 -1.537657302227e+01   1.368761890438e+01  -1.586211765243e+01 
1 -2.624793364373e+01  -5.278927603397e+01  -4.428588862895e+01 
1  3.269412945216e+01  -4.233752709832e+01   4.233701502293e+01 
1 -2.608483036212e+01  -9.299372623947e+00  -1.208879377137e+00 
1  7.471936986105e+00   3.424205685733e+01  -3.237217553995e+01 
1  1.597725143177e+01  -1.969638797216e+01  -4.505659662977e+01 
1  4.957983562018e+00   1.162832678527e+01   3.358378280005e+01 
8
Step 29000
1 -1.461859653521e-01   6.793989649184e+01  -1.450261343140e+01 
1 -4.665198721095e+01   1.658769268373e+01   2.087374974702e+01 
1 -3.762326313325e+01  -4.831991548295e+01  -3.671607492004e+01 
1  2.110163053086e+01  -4.973305994574e+01   6.445769502930e+01 
1 -2.796301036637e+01  -7.671119583087e+00   2.786865358384e+01 
1  2.687459793223e+01   2.697774037111e+01  -5.003073386945e+01 
1 -2.207423554421e+01  -1.974209171884e+00  -2.942321316233e+01 
1 -1.669164318182e+01  -1.636981721898e+01   6.278698005958e+01 
8
Step 30000
1  9.154927474504e+00   3.881818662403e+01  -4.407064495661e+00 
1 -5.480812270572e+01   9.596695034562e+00   4.511767241870e+01 
1 -3.722599166800e+01  -3.035403467575e+01  -2.060212931569e+01 
1  4.094490690866e+00  -3.832059437332e+01   6.936650655761e+01 
1 -1.414454102800e+01  -8.333806665943e-01   4.547693132724e+01 
1  4.207638373838e+01   1.090315569410e+01  -4.847467371881e+01 
1 -4.617405013132e+01   1.702322084552e+01  -6.806757410891e+00 
1 -3.275067042714e+01  -4.388823997161e+01   6.392205223023e+01 
8
Step 31000
1  1.922763752329e+01  -3.038011818672e+00   5.581243031839e+00 
1 -3.617903354784e+01  -3.271560940090e+00   4.725003561963e+01 
1 -2.720983097061e+01  -6.042503537192e+00  -4.313199475619e+00 
1 -1.413251677820e+01  -1.091665869740e+01   5.606241366812e+01 
1  9.112190286391e+00   4.947961024155e+00   4.414910320209e+01 
1  4.603726532476e+01  -5.297097866000e+00  -2.784191503845e+01 
1 -4.788901901963e+01   3.026066008438e+01   1.430761308684e+01 
1 -3.956312230583e+01  -5.852697750230e+01   3.828055937483e+01 
8
Step 32000
1  2.548237241180e+01  -4.210842496461e+01   1.293195682947e+01 
1  7.044999552732e-01  -1.463897577195e+01   2.739513792880e+01 
1 -1.202577505731e+01   1.728067522551e+01   6.344209185288e+00 
1 -2.872821889462e+01   2.309035058974e+01   2.814157175821e+01 
1  2.972549196575e+01   4.461666748073e+00   2.431767028956e+01 
1  3.452233619771e+01  -1.420206244663e+01   3.701926893954e+00 
1 -2.817631421288e+01   3.270740642351e+01   2.681607213019e+01 
1 -3.552767948048e+01  -5.138594661235e+01  -1.822315619186e+00 
8
Step 33000
1  2.329586746362e+01  -6.389265831553e+01   1.616829732056e+01 
1  3.744856828952e+01  -1.776749127787e+01  -4.170367178638e+00 
1  2.992016119859e+00   3.360285425697e+01   1.024310093854e+01 
1 -3.535987093444e+01   5.025061942437e+01  -5.914414497682e+00 
1  3.619989257060e+01  -3.142570213598e+00  -4.838559235064e+00 
1  9.537261288047e+00  -1.311414297042e+01   3.262659624401e+01 
1  1.774638228817e+00   2.346878113307e+01   2.796741537394e+01 
1 -2.212546185401e+01  -2.315516033001e+01  -3.738259565960e+01 
8
Step 34000
1  1.163686317693e+01  -6.191340216985e+01   1.508964296142e+01 
1  5.580575043151e+01  -1.029241093368e+01  -3.212225545991e+01 
1  1.428444554293e+01   3.913951200755e+01   1.008531880642e+01 
1 -3.224006820150e+01   5.940750867989e+01  -3.608723174516e+01 
1  2.443832831949e+01  -1.387220277456e+01  -2.997101602824e+01 
1 -2.060954982211e+01  -5.373482756025e+00   4.721085787494e+01 
1  2.618404899465e+01   6.574895792553e+00   2.058588653528e+01 
1 -3.883943066245e+00   1.491956798555e+01  -5.257383496704e+01 
8
Step 35000
1 -5.954132557532e+00  -4.046593677152e+01   9.942326070967e+00 
1  4.749368229686e+01   3.864880140708e+00  -4.430257911124e+01 
1  2.141959500900e+01   3.364500685851e+01   1.015106195424e+01 
1 -2.045458308096e+01   4.685567893881e+01  -5.540744708968e+01 
1 -4.811250043995e-01  -2.119475163769e+01  -4.112768257547e+01 
1 -4.559678982384e+01   2.473938676811e+00   4.302901063886e+01 
1  3.355346277876e+01  -1.131038349667e+01   1.060560831774e+01 
1  1.374694572983e+01   4.739837474187e+01  -4.252217398645e+01 
8
Step 36000
1 -2.308336862666e+01  -1.007753391727e+01   1.265098347091e+00 
1  1.637358091628e+01   1.624621986578e+01  -3.625089627944e+01 
1  2.510250635604e+01   1.928431652338e+01   1.346401311539e+01 
1 -3.022662576162e+00   1.666886221655e+01  -6.081099643215e+01 
1 -2.684384404132e+01  -1.927128909113e+01  -3.535170765477e+01 
1 -5.677932022809e+01   4.868357681184e+00   2.324430925767e+01 
1  2.103354793317e+01  -2.390020040310e+01   3.483543465258e+00 
1  2.616953556911e+01   6.144036256008e+01  -1.353713005880e+01 
8
Step 37000
1 -3.247108434259e+01   1.739317840646e+01  -9.254505386134e+00 
1 -2.338272653501e+01   1.863382698003e+01  -1.233518497783e+01 
1  2.527138955848e+01  -3.268686931211e-01   1.937162897971e+01 
1  1.524037790918e+01  -2.058671304840e+01  -5.218027580818e+01 
1 -4.142694739201e+01  -6.299307752913e+00  -1.669144531161e+01 
1 -4.954858896132e+01  -3.518911791261e-02  -3.026347149991e+00 
1 -5.054075548003e+00  -2.719782420770e+01   1.817829104826e+00 
1  3.037034479886e+01   5.159946206738e+01   2.039741610246e+01 
8
Step 38000
1 -2.917034920541e+01   3.304317105876e+01  -1.852824186870e+01 
1 -5.304015185539e+01   7.955119707757e+00   1.651685117141e+01 
1  2.083006749813e+01  -1.988146427297e+01   2.343246503087e+01 
1  2.858475050000e+01  -5.092384534760e+01  -3.218656319272e+01 
1 -3.635772447480e+01   1.366298130447e+01   5.595878739224e+00 
1 -2.602027162838e+01  -9.284830005381e+00  -2.424030768152e+01 
1 -3.117668476225e+01  -2.092191021140e+01   4.187916527896e+00 
1  2.585612906357e+01   2.294726392436e+01   4.348576232377e+01 
8
Step 39000
1 -1.392098361637e+01   3.468384464718e+01  -2.243498059530e+01 
1 -5.876892381259e+01  -1.115727926869e+01   3.825871639434e+01 
1  1.061546014667e+01  -3.340263474839e+01   2.032347547138e+01 
1  3.264143613483e+01  -6.284069875424e+01  -5.672838896305e+00 
1 -1.376452244326e+01   3.212440137163e+01   2.170423374327e+01 
1  5.212427165446e+00  -1.667413891077e+01  -3.215002916110e+01 
1 -4.305838641340e+01  -8.668114292229e+00   6.070662322993e+00 
1  1.500943664030e+01  -1.101979564303e+01   4.558037242389e+01 
8
Step 40000
1  6.856944585611e+00   2.670306659738e+01  -1.742705841915e+01 
1 -3.808587099472e+01  -2.844185720978e+01   4.488653894198e+01 
1 -5.242157125945e+00  -3.633208345416e+01   7.416379869844e+00 
1  2.626453616120e+01  -5.198014667679e+01   2.199163567509e+01 
1  1.557771558424e+01   4.013591941565e+01   2.612802983982e+01 
1  3.328455865788e+01  -1.645803072695e+01  -2.545883272142e+01 
1 -3.303238665588e+01   4.162000819636e+00   2.661399145989e+00 
1  1.926225419866e+00  -3.546605644458e+01   2.678275097061e+01 
8
Step 41000
1  2.426916148239e+01   1.595734708038e+01  -3.159207627536e+00 
1 -3.630092784753e-01  -3.307671367240e+01   3.516673037981e+01 
1 -2.381678877670e+01  -2.698203311712e+01  -1.327488752481e+01 
1  1.196365845295e+01  -2.222473446047e+01   4.576338848919e+01 
1  3.770536209370e+01   3.230815106058e+01   1.946706222892e+01 
1  4.927315423167e+01  -6.591786426268e+00  -9.570911033324e+00 
1 -3.391890155822e+00   1.283660152109e+01  -8.094661080114e+00 
1 -9.180972916470e+00  -4.100786587862e+01  -3.449976268470e+00 
8
Step 42000
1  3.075855787926e+01   7.675089589961e+00   1.623982763317e+01 
1  3.723942986104e+01  -1.964287712595e+01   1.451252070384e+01 
1 -3.861664452020e+01  -7.808454595709e+00  -3.498712393498e+01 
1 -4.781437306819e+00   1.507009486216e+01   6.058727584986e+01 
1  4.181790969139e+01   9.929216699354e+00   7.589142939880e+00 
1  4.895694765084e+01   9.828762918414e+00   6.216230321243e+00 
1  3.405536177010e+01   1.476506013504e+01  -2.348923409970e+01 
1 -1.518287005054e+01  -2.772819283527e+01  -3.106627455867e+01 
8
Step 43000
1  2.377725926357e+01   3.072552686154e+00   3.341019860085e+01 
1  5.836777455402e+01   7.455579524655e+00  -8.517281117621e+00 
1 -4.200065025542e+01   1.417694733515e+01  -4.869892245316e+01 
1 -1.780212880962e+01   4.527428048864e+01   6.222860194700e+01 
1  2.603280604420e+01  -1.850787958017e+01  -1.854965365464e+00 
1  3.458169160997e+01   2.556635858722e+01   1.352822480098e+01 
1  6.253589342793e+01   1.058547140323e+01  -3.655601811431e+01 
1 -1.495918137297e+01  -5.347524336229e+00  -4.402798361608e+01 
8
Step 44000
1  7.215493037953e+00  -4.041773511661e-01   4.033607048810e+01 
1  5.534836656570e+01   3.561750544920e+01  -2.652783525319e+01 
1 -2.970846169266e+01   3.041573811078e+01  -4.784541488013e+01 
1 -2.315535622694e+01   5.755737844329e+01   4.885142172264e+01 
1 -1.503041343226e+00  -4.157503811301e+01  -4.611416799184e+00 
1  1.300906604900e+01   3.310264943728e+01   9.314722393636e+00 
1  6.859556984186e+01   3.612055790647e+00  -3.951122084065e+01 
1 -9.643645078539e+00   1.236067408074e+01  -3.728533654681e+01 
8
Step 45000
1 -1.103057804821e+01  -6.121735374983e+00   3.128018636092e+01 
1  3.066590218928e+01   5.077353391017e+01  -3.537618874818e+01 
1 -3.418993462733e+00   3.461441157193e+01  -3.080559105584e+01 
1 -2.002598898361e+01   4.821864631999e+01   2.121656903306e+01 
1 -2.749678567828e+01  -5.059700105783e+01  -1.024534658999e+00 
1 -8.273373356770e+00   2.826616567055e+01  -3.161791096268e+00 
1  4.743192976361e+01  -2.430823094242e+00  -2.723939383910e+01 
1 -2.412694068906e+00   1.533225545753e+01  -1.464285434458e+01 
8
Step 46000
1 -2.244873794950e+01  -1.529376080085e+01   6.392785734213e+00 
1 -4.710432192843e+00   4.357995992203e+01  -3.476932665066e+01 
1  2.873608820021e+01   2.472517164421e+01  -1.690446456258e+00 
1 -1.101924202359e+01   2.052683596797e+01  -1.608085144702e+01 
1 -3.993352890729e+01  -4.159893344503e+01   5.460354345717e+00 
1 -2.338274209552e+01   1.169231751454e+01  -1.602225278284e+01 
1  4.374067088600e+00  -4.729334886632e+00  -1.372355317009e-01 
1  2.878360641339e+00   2.011064576900e+00   1.330427413102e+01 
8
Step 47000
1 -2.180427524031e+01  -2.478923207962e+01  -2.595180772556e+01 
1 -3.533053003597e+01   1.475636620724e+01  -2.703699626501e+01 
1  5.321110002449e+01   4.407620905832e+00   2.966463547410e+01 
1 -1.485726734669e+00  -1.408409214530e+01  -5.236132015018e+01 
1 -3.334395354431e+01  -1.695064219924e+01   8.849977610198e+00 
1 -2.944068595781e+01  -1.061555795944e+01  -2.043351107199e+01 
1 -4.449787015314e+01  -2.449660862948e+00   3.327598734738e+01 
1  3.868121946576e+00  -1.918706714276e+01   3.433927059946e+01 
8
Step 48000
1 -1.052956711189e+01  -2.873275190287e+01  -5.148562426161e+01 
1 -4.960652990626e+01  -2.247994838956e+01  -1.506278672780e+01 
1  5.739363228077e+01  -1.687453149645e+01   5.140309459659e+01 
1  3.831878821934e+00  -4.013426006668e+01  -7.425992470821e+01 
1 -1.204339620775e+01   1.334216719206e+01   4.371578289137e+00 
1 -2.783082779191e+01  -2.919615341274e+01  -1.242122104891e+01 
1 -7.856874769323e+01   2.163304269049e+00   5.905994617573e+01 
1  7.513456684475e-01  -3.385128445411e+01   4.074455812156e+01 
8
Step 49000
1  4.370488633435e+00  -2.367341017122e+01  -5.842661914906e+01 
1 -4.509467068432e+01  -5.055283047834e+01  -1.089549346838e+00 
1  3.808518234103e+01  -2.880243409821e+01   5.669661093796e+01 
1  3.736662438765e+00  -4.767757583712e+01  -7.368194841324e+01 
1  1.244980072180e+01   3.648948282683e+01  -6.334516204234e+00 
1 -2.204772739415e+01  -3.690993473768e+01   4.952698249154e+00 
1 -8.506667118670e+01   5.419429026304e+00   6.641062254966e+01 
1 -4.762910702149e+00  -3.050275678054e+01   3.147790235385e+01 
8
Step 50000
1  1.509649838797e+01  -1.032872608905e+01  -4.284820545655e+01 
1 -2.693076798981e+01  -5.720332235223e+01   1.246191702592e+01 
1  2.466408800948e+00  -2.631717785102e+01   4.574669025926e+01 
1  2.071113160768e-01  -3.558607742068e+01  -5.041556477207e+01 
1  2.845019043655e+01   4.459197916277e+01  -1.745426444928e+01 
1 -1.496991287383e+01  -3.213030341978e+01   2.394129564611e+01 
1 -6.308527224001e+01   4.688914185311e+00   5.182717073660e+01 
1 -9.238172412810e+00  -7.561478410109e+00   1.247311060199e+01 
8
Step 51000
1  1.712664362089e+01   7.327149367202e+00  -1.022149258814e+01 
1 -4.797568770442e+00  -3.961103811551e+01   2.349484682819e+01 
1 -3.460823815282e+01  -1.102753385580e+01   2.318104583898e+01 
1 -3.002807112817e+00  -9.988606522326e+00  -1.225426390083e+01 
1  2.920242120781e+01   3.595721638825e+01  -2.279530549995e+01 
1 -7.901169378447e+00  -1.787351741552e+01   3.538150874221e+01 
1 -2.168173609226e+01  -7.981112536124e-01   1.955009036420e+01 
1 -9.020178676838e+00   2.542542839364e+01  -6.614377815762e+00 
8
Step 52000
1  1.063742927133e+01   2.193928153359e+01   2.521560331136e+01 
1  1.199101233545e+01  -6.777284309591e+00   2.991409582139e+01 
1 -5.585914197940e+01   9.175801484785e+00  -3.486240275546e+00 
1 -1.747089839776e+00   1.680779250967e+01   2.570380025406e+01 
1  1.601121646284e+01   1.543498637007e+01  -1.816092829364e+01 
1 -8.847672089155e-01  -5.827492575646e-01   3.296710474678e+01 
1  2.195798545427e+01  -8.637033106157e+00  -1.807700278282e+01 
1 -3.308545172436e+00   5.158504900377e+01  -1.810451753606e+01 
8
Step 53000
1 -1.289241904469e-01   2.686117338385e+01   4.777227020907e+01 
1  2.014112970479e+01   2.519680102987e+01   2.941690104766e+01 
1 -5.218603302244e+01   2.447868224853e+01  -2.606251185348e+01 
1  5.273992235338e+00   3.252422731699e+01   4.922746148749e+01 
1 -2.872975787892e+00  -7.061781118406e+00  -4.496518363582e+00 
1  6.690843455563e+00   1.332899644070e+01   1.739252491670e+01 
1  5.192279762779e+01  -1.422172080524e+01  -4.715559736176e+01 
1  5.333848322676e+00   5.731964232618e+01  -2.040773220055e+01 
8
Step 54000
1 -9.796898387847e+00   2.184521427137e+01   4.881721161908e+01 
1  2.165509795064e+01   4.363243339952e+01   2.046174929343e+01 
1 -2.583202514367e+01   2.777659356116e+01  -3.922595495327e+01 
1  1.533726511009e+01   3.217268607452e+01   5.249856509990e+01 
1 -1.848528201246e+01  -2.256394806946e+01   1.258741645665e+01 
1  1.508984819032e+01   2.107457987804e+01  -5.678353178791e+00 
1  6.188662086240e+01  -1.414127462676e+01  -6.021995445176e+01 
1  1.364634784743e+01   3.890789020069e+01  -1.625158241772e+01 
8
Step 55000
1 -1.389304814725e+01   1.119658587663e+01   2.823570134426e+01 
1  1.975299976217e+01   4.185412486186e+01   4.073951343923e+00 
1  1.303435623857e+01   1.637952195478e+01  -4.134571420930e+01 
1  2.360877281674e+01   1.710272213637e+01   3.701995034669e+01 
1 -2.426616271568e+01  -2.594951890403e+01   2.552071815868e+01 
1  2.308843583370e+01   2.264303882114e+01  -2.847803924063e+01 
1  5.235038896842e+01  -6.966034746181e+00  -5.495316444504e+01 
1  1.805680339425e+01   1.860169943813e+00  -1.040321452792e+01 
8
Step 56000
1 -1.109059524036e+01   9.220601291780e-02  -5.408781808986e+00 
1  1.736855275787e+01   2.065496081428e+01  -1.568829060928e+01 