8
Step 0
1 -2.085286265275e+01   6.292774221803e+01   4.528091614985e+01 
1  7.223371578599e+01  -7.160191957723e+00  -4.811401682497e+01 
1  3.521294812006e+01  -5.574803034824e+01   6.932730076890e+01 
1  5.834431226767e+01   3.413925235964e+01  -3.833126681060e+01 
1 -5.863304183448e+01  -3.561420874390e+01   7.616396741191e+01 
1  7.540330238677e+01  -3.575458675880e+01  -1.940912708350e+01 
1 -7.609144493216e+01   6.472004551485e+01  -6.113465809600e+01 
1 -1.136950171554e+01   5.790460616002e+01  -3.822221383630e+01 
8
Step 1000
1  3.493140415966e+01   4.599250931702e+01   1.005255391908e+01 
1  3.031750279380e+01  -3.151206273303e+01  -4.846854688851e+01 
1 -4.871814900798e+01   5.506226097609e+01  -1.600435047171e+01 
1 -2.089890414333e+01  -2.395024108616e+00  -2.561290267351e+01 
1 -4.376535773254e+01  -2.799014019917e+01   8.533414505352e+01 
1  6.347003413707e+00   7.878213379162e+00   4.753569228171e+01 
1  3.680143792225e+01  -6.082120656046e+01   5.353527192518e+01 
1 -5.123739929286e+01   2.804676831025e-01  -2.466580074977e+01 
8
Step 2000
1  2.281752886712e+00  -2.447403167855e+01   2.255124157641e+00 
1  4.519668624095e+01   3.486858002739e+01  -1.647919704327e+00 
1 -1.403063483627e+01  -6.145643353019e+01   3.012101643192e+00 
1 -3.336516916689e+01   9.428793333935e+01  -1.361163002142e+02 
1  1.514001484772e+01  -4.340265059228e+01   2.879386414243e+01 
1  4.216739892133e+01  -4.386277467609e+01   5.436291232146e+01 
1  8.688911888063e+00   7.112502673672e+01   1.828667997577e+01 
1  7.851942071954e+01   5.210524794372e+01   4.014526280053e+00 
8
Step 3000
1  5.178304390428e+01   2.248999755209e+01   3.842491490714e+01 
1  2.006362699356e+00  -3.114988380832e+01   8.935998763184e+00 
1  3.159730171004e+01   4.933563816899e+01  -6.308997629625e+00 
1 -3.212170388493e+01   2.857466165013e+01  -5.504026898787e+00 
1 -2.613838925996e+01  -2.622893579842e+01   3.784834946928e+01 
1  4.756910974191e+01   3.854597961814e+01   3.309859565325e+01 
1  4.366638540273e+01  -2.936136727295e+01  -3.946761649158e+01 
1 -2.443279892955e+01   1.099396973894e+01   1.468584234910e+01 
8
Step 4000
1  2.097608105664e+01   8.472262966097e+00  -1.041085649220e+01 
1  1.631037301665e+01  -3.380516336355e+01  -2.527147441393e+01 
1 -3.314408033716e+01  -8.010310359181e+01   2.521933550541e+01 
1 -1.397832713290e+01  -4.143964090340e+01  -5.797590281322e+01 
1  9.473056704802e+01  -5.181186597030e+01   3.618051072927e+01 
1 -3.349823948081e+01   3.645053041041e+01   3.949768348466e+01 
1 -2.536913399012e+01   1.429787558469e+01  -1.064031230308e+00 
1 -2.460644286081e+01   6.816970263072e+01  -5.810277898769e+01 
8
Step 5000
1 -2.871908606345e+01   3.683673268971e+01   3.089463099230e+00 
1  6.016457736005e+00   2.042219852271e-02   6.339097858306e+01 
1  4.889717677882e+01  -7.390377249813e+01  -1.050583108070e+01 
1 -9.503334927847e+00   3.481039676323e+01  -7.033345932411e+01 
1 -1.674711981567e+01  -5.956407730933e+01   1.105353455552e+01 
1  5.517304477842e+01   4.739745393632e+00   3.482080301386e+01 
1 -4.769742855071e+00   3.524081562546e+01  -5.637308261476e+00 
1 -3.433156889800e+01   7.985812839460e+01   7.295363083159e+01 
8
Step 6000
1  3.694282787168e+01   3.761906028472e+01   2.493591271660e+01 
1  2.117379352656e+01  -3.871797787961e+01  -6.447393881455e+01 
1 -1.567061835406e+01  -2.047882563312e+01   3.534697356405e+00 
1  4.767429084322e+01   7.952744143931e+00  -1.903675234628e+00 
1  1.991718145029e+01  -2.767820785874e+01   3.306825476299e+01 
1  4.563285999493e+01   7.780530916652e+01   3.315746400430e+01 
1  5.159223869326e+01   3.411443453763e+00   2.170551122329e+01 
1 -2.523449540310e+01   4.698095386475e+01  -6.886651116297e+01 
8
Step 7000
1 -4.514936657686e+01  -1.243701371243e+01   3.711773120920e+01 
1  4.466356870070e+01   2.581681449736e+01  -1.582628804002e+01 
1  9.002855048008e+00  -4.740943781954e+01   2.249261718233e+01 
1 -3.673149492703e+01   3.010450286576e+01  -8.868108110561e+01 
1 -7.754347239816e+00  -2.457452287802e+01  -1.297349666599e+01 
1  6.109856784872e+01  -8.705497086685e+01   7.283328414638e+01 
1  2.438676561695e+01   4.967098129885e+01   2.281731086421e+01 
1 -2.370618354500e+01   5.189088745380e+01   1.259931412104e+01 
8
Step 8000
1  4.950592558629e+01   1.391723777769e+01  -1.206154841230e+01 
1  1.594281926824e+01  -7.406576950822e+01   6.773893949847e+01 
1  1.350861593092e+00  -1.809573193896e+01  -8.171792267532e+00 
1  4.491001997737e+01  -8.714375934878e+01   1.238178978529e+01 
1 -5.711261254086e+00   3.205289873921e+01  -1.009948313524e+00 
1  1.181680209237e+01   3.645299759445e+01  -2.649500726943e+01 
1 -7.582196663793e+00   3.518217484148e+01  -3.849908101601e+01 
1  2.013939816198e+01   5.652267843180e+01  -4.044025415998e+01 
8
Step 9000
1 -2.088750896903e+01   2.110773898385e+01   9.745264666846e+01 
1  2.795852417006e+01  -2.086921743538e+01  -1.046962174354e+02 
1 -7.101707145086e+01  -6.191398849717e+00   5.795889639185e+01 
1  6.091175070858e+01  -4.720906477455e+01   1.859415982826e+01 
1  2.572206271849e+01  -3.478821160742e+01  -1.072086832339e+01 
1 -3.833134840766e+01  -8.328960020752e+00   1.928957841316e+01 
1 -8.204188088972e+00   1.003538737438e+02   6.065199201210e+01 
1 -1.022597211807e+01   7.490760630491e-01  -8.189374172806e+01 
8
Step 10000
1 -2.875025503890e+01  -1.842451967569e+01  -6.096442302784e+01 
1  1.486216207513e+01  -3.571732103399e+01  -9.146245425317e+00 
1  3.852942826296e+01  -3.148854106316e+01   3.713623996846e+01 
1  1.125371476344e+01  -6.208429746919e+01  -1.008224992640e+02 
1 -6.995421362734e+01   2.995568133268e+01   4.072470162951e+01 
1  9.055096788708e+01  -2.892392864166e+01   6.156126608442e+01 
1 -2.553659169334e+01   6.987369960911e+01  -2.792306141108e+01 
1  3.345469157990e+00   2.272171874005e+01   1.180420509082e+01 
8
Step 11000
1  2.433221162215e+01   1.021687088683e+01   6.848380320450e+01 
1  2.146856835472e+01  -1.164133330185e+01  -7.401208332323e+00 
1 -6.425184324266e+01   5.520548494832e+01   2.690382710664e+00 
1  8.169594644972e+01   3.515225597859e+01   7.186277266980e+01 
1  2.577934614954e+01   7.024322646947e+00  -4.810344063655e+00 
1 -4.574851519491e+00   5.132739586069e+01  -3.456910557509e+01 
1  1.609450148008e+01  -3.570869540025e+01   8.444844349394e+00 
1  3.598222609412e+01   3.058853591012e+01  -5.844792461169e+01 
8
Step 12000
1  6.899850674103e+01  -9.476368437614e+01  -1.080274593152e+01 
1  4.074304603750e+01   6.772047966684e+00  -2.130529019394e+01 
1 -9.799981683735e+00   6.188932933843e+00   3.531686167174e+01 
1 -4.644857713620e+01   2.315105928893e+01  -4.870390054682e+01 
1 -4.273290375425e+01  -5.166844326234e+01   1.306821129210e+01 
1  1.233818199947e-01  -3.362705884940e+01   3.479624713024e+00 
1  1.512117031417e+01  -6.746538253761e+00  -2.832160959046e+01 
1 -1.773798311332e+01   2.300724856833e+01  -2.449938113126e+01 
8
Step 13000
1 -6.704806571306e+00  -5.232430401093e+00   5.514862845659e+01 
1 -4.752747804861e+01  -5.049762845069e+01   2.253197280969e+01 
1  2.400157681152e+00  -3.532638431060e+01  -2.630008226173e+01 
1 -5.686259455533e+00  -1.953702770528e+01  -1.277802305390e+01 
1  5.179578550801e+01  -2.607757280056e+01   2.613662230488e+00 
1 -1.808939195926e+01   3.516738727037e+01   7.004620466545e+00 
1 -3.856898100305e+00  -3.919654009338e+01  -5.019845737780e+01 
1 -5.303513875554e+01   1.195988209890e+02   2.192043581453e+00 
8
Step 14000
1  7.610773334732e+01  -4.660658009216e+01   2.464562146747e+00 
1  2.369796714958e+01  -6.691208787843e+00  -5.479919989704e+01 
1 -3.747675544411e+01  -1.920767928073e+00   2.526071733036e+01 
1 -2.908735413296e+00   2.089685967042e+01   8.023912074342e+01 
1  4.340532501057e+01  -2.795894390653e+00  -4.738604876640e+01 
1 -7.344097590188e+01   4.119323649187e+01   5.537852639351e+00 
1  2.283842720698e+01   1.914892727586e+00   6.886633083298e+00 
1 -3.729795087610e+01  -1.493621394869e+01  -5.297258017706e+01 
8
Step 15000
1 -3.932707053232e+01   2.362593275579e+01  -3.965932263140e+00 
1 -5.288088365550e+01   5.810194361830e+01  -2.821187718685e+00 
1  5.848206052182e+01  -4.538320862577e+01  -3.907207330824e+00 
1  3.830795584768e+01  -2.477283284428e+01  -2.945037646983e+01 
1 -1.121024484811e+01   1.990666533045e+01  -1.197225817815e+01 
1 -4.374975894928e+00  -8.441906986473e+00   2.838576314790e+00 
1 -4.155539511098e+01  -3.690538795494e+00  -1.287415973207e+01 
1  4.848940994301e+00   8.165729302065e+00   4.581411426894e+01 
8
Step 16000
1  5.110615529207e+01   1.326826243222e+01   3.516820911973e+01 
1  6.615321188665e+00  -8.168938135236e+01   2.516293607231e+01 
1 -1.343193459665e+01   9.576173573889e+01  -2.731060810287e+00 
1 -2.104180089271e+01   1.163999697708e+01   9.046474028907e+00 
1 -8.653089211750e+00  -3.702808520103e+01  -1.206938883547e+02 
1  6.226473333702e+00  -3.100980964741e+01  -1.265213695444e+01 
1  3.645204798784e+00   9.131729503242e+00   6.567275813612e+00 
1 -1.626420523208e+01  -3.703113768975e+01   1.772226089069e-01 
8
Step 17000
1 -3.062336148360e+01  -4.305647380199e+01   2.736371881198e+01 
1  4.495799520956e+01   4.725542161043e+01   2.474506554063e+00 
1 -3.763218862474e+01  -1.482284736523e+01   1.326273911084e+01 
1  5.742498154159e+01   1.566339239848e+01   4.302514372836e+01 
1 -5.904473556145e+01   2.657256616838e+01  -3.622682136460e+01 
1  6.060910575321e+01  -6.802810240620e+01  -1.818421892394e+01 
1 -6.996034164355e+01   8.673355774265e+01  -1.898545282306e+01 
1 -2.361954257634e+01  -1.460341027266e+01  -4.524535485770e+01 
8
Step 18000
1 -5.376725313644e+01   2.970455365908e+01  -1.416208639333e+00 
1 -6.162939941578e+00  -1.108917174812e+02  -4.247258010457e+01 
1 -2.338817688284e+01   2.839873610470e+01  -2.842691485289e+01 
1 -3.027373985066e+00  -8.301958647023e+01  -3.085257033513e+01 
1 -1.502867902493e+01   1.045231467209e+01  -3.290218024184e+01 
1 -3.613518716955e+01  -3.980337710078e+00  -1.566256678527e+01 
1 -6.049996615551e+01  -6.227292575759e+01   6.113896407224e+01 
1 -1.187077854485e+01   2.817283129928e+01   4.377000808276e+01 
8
Step 19000
1 -2.395235585964e+01   4.230132404712e+01   2.559960776609e+01 
1 -3.389265024379e+01   8.498955797293e+01   4.412681323216e+01 
1 -1.325254680025e+01   9.882442865113e+00   7.462024956793e+00 
1  9.208781633027e+01  -2.993442162158e+01   4.519645508413e+01 
1  2.000895089586e+01   9.545295918591e+00  -6.691754173097e+01 
1  7.019195930198e+00  -2.242987076152e+01  -7.557389477397e+00 
1 -1.187561717802e+01   7.626911858054e+01   1.353043041776e+01 
1 -3.563722511089e+01  -2.091954766431e+01  -7.180982301033e+01 
8
Step 20000
1 -1.445674680323e+01  -3.506580665032e+01  -3.365304159849e+01 
1  1.844152376610e+01   6.852137341177e+01  -1.181826229086e+01 
1 -2.608243618005e+01   7.596196681548e+01   2.587404824595e+01 
1 -2.649676534948e+01  -3.760286869099e+01   1.711023916104e+01 
1 -5.892400557455e+01   3.770801218991e+01  -4.169371125261e+01 
1  3.416503773293e+00  -5.397114856319e+01   1.497608476978e+01 
1  5.648723963271e+00  -9.369346440972e+01   1.969901618465e+01 
1  4.047943996355e+01   1.730982882920e-02  -1.065214016504e+01 
8
Step 21000
1 -6.793745900844e+00   5.583370671591e+01   1.596079271616e+01 
1 -8.909418136387e+01  -3.162694220146e+01   5.619000499046e+00 
1  9.311661858528e+00  -4.706418379241e+00  -4.749415138034e+01 
1 -1.636861085327e+01  -1.474175668024e+01   1.966422156681e+01 
1  3.201961742030e+01   6.714447743359e+00  -8.173220387822e+01 
1 -3.675587506937e+01   6.761846049555e+00  -5.738647612049e+01 
1  3.851679934490e+01  -6.251081546720e+01   4.231799660000e+01 
1 -4.094214892803e+01   2.732554060397e+01   4.223355786863e+01 
8
Step 22000
1  8.820203047271e+00  -7.461754925411e+01  -2.547718639096e+01 
1 -1.297108858128e+01   2.803267614408e+01   5.672448022727e+01 
1 -2.346173376709e+01   2.884463486352e+01  -5.874600851397e+00 
1 -5.105810848739e+01   2.123985789030e+01   5.445736218355e+01 
1 -4.665276107654e+01  -3.362675672911e+00  -4.205301909113e+01 
1 -2.730523557227e+01  -6.857954065444e+00   1.689706309162e+00 
1  2.377607917461e+01   2.956163264731e+01  -1.615023822583e+01 
1  1.149272408958e+01  -4.774117959916e+01  -7.336798809194e-01 
8
Step 23000
1 -6.194648551903e+01   8.087432462129e+01   3.903940923170e-01 
1 -3.031764197538e+01  -1.169370227939e+01  -4.334606307863e+01 
1  7.911062342542e+01   5.134749915967e+00  -7.323716908053e+00 
1  5.107561259257e+00   7.867845711754e+00   3.712657304140e+01 
1 -8.762647413237e+00  -3.408183235308e+01  -4.086124217658e+01 
1 -4.881564926146e+01  -4.461756841663e+00   1.209591055009e+01 
1 -5.313698871462e+01  -5.597844536014e+01  -4.394947882504e+01 
1  2.172742957441e+01   6.409147324581e+01   6.260858198821e+01 
8
Step 24000
1 -1.476036940187e+01  -1.592493814640e+01   7.032926029859e+00 
1 -5.701752583157e+01   9.724302860415e+01   2.478951172719e+01 
1 -3.245484726665e+01   1.024472385905e+01  -1.894304659722e+01 
1 -1.080769073369e+01  -7.618156217656e+00   4.361809030728e+01 
1 -3.339254294313e+01   4.012227537973e+01  -4.890820858447e+01 
1 -8.889441777156e+00  -7.575944885216e+00  -2.228813998852e+01 
1  9.742735446336e+01  -4.810193001006e+01   3.169221342624e+01 
1 -1.243832910955e+01  -7.421249753129e+01   2.689700166502e+01 
8
Step 25000
1  1.134484814835e+01  -5.487533057331e+00   1.744778391807e+01 
1  4.965682903015e+00   5.399205580253e+01  -9.246452676051e+00 
1 -4.529952075083e+01   7.972497964615e+01   3.581574232915e-01 
1  3.867669795282e+01   2.749984795666e+01   7.075657559239e+01 
1  1.887487951173e+00   5.599326421838e+01  -3.019770877067e+01 
1 -2.258520740188e+01  -1.043939351202e+00  -2.853776709000e+01 
1 -5.463170399984e-02  -3.782181099052e+01  -3.986804356662e+01 
1  9.182285607342e+01  -5.048415689728e+01  -1.340074661526e+00 
8
Step 26000
1 -9.029945389506e+01  -4.271701915579e+01  -4.079776802073e+01 
1  1.173715884086e+00  -1.954077787646e+01  -1.552371152457e+01 
1  3.041966934715e+01   4.917903097172e+00  -1.045034253647e+01 
1 -5.146524809857e+01  -4.849850906118e+01   7.188777388434e+00 
1 -5.467985903311e+01   4.539296498358e+01  -4.046265452417e+01 
1  6.961376840663e+01  -4.998945030123e+01   9.140997725986e+01 
1 -6.089636467095e+00  -2.029455381971e+01   5.552136203780e+01 
1 -7.925834588639e+01   4.543502557478e+00   7.493711933346e-01 
8
Step 27000
1  1.985932397095e+01  -1.573133749713e+01   6.373145413880e+01 
1 -3.663615835154e+01   7.450307132755e+01   4.646691752100e+01 
1  2.868864382578e+01   2.761199995030e+01  -2.577365780858e+01 
1  3.941790834481e+01  -3.684846745619e+00   6.539768846973e+01 
1  8.937042911086e+00   6.388809542371e+01  -2.996253363525e+01 
1 -8.490601688500e+01  -3.402535368486e+01  -1.034620899725e+02 
1 -2.704550846156e+00   3.668631871160e+01   2.069778151351e+01 
1  2.626871205063e+01  -8.361266444990e+01  -3.653669073417e+01 
8
Step 28000
1 -1.168601381512e+01   2.028232603207e+01  -3.672846015090e+01 
1  5.265468980395e+00  -1.880192102737e+01  -4.139334788120e+00 
1  5.152194519071e+00   6.088910618042e+01   1.622866019243e+01 
1  7.059330371343e+00  -3.447460405132e+01   6.175304790300e+01 
1 -2.175030268265e+01   4.580032905734e+01  -2.727303130306e+01 
1  3.121371077548e+01  -5.309940617502e+01   4.308519504765e+01 
1 -3.974186004286e+01  -5.374214309985e+00   7.481449570978e+00 
1  4.889560987121e+01   6.127548825084e+01   5.292199131525e+01 
8
Step 29000
1 -1.053164883280e+01  -6.973551405531e+00  -3.123451309161e+01 
1 -4.040369024448e+01   4.603091827009e+01   4.678082690929e+01 
1  4.294170485537e+01  -8.243999233634e+00  -6.323365821772e+01 
1  3.924924339283e+01   5.518294784915e+00   2.907565721670e+01 
1  6.648678909746e+00   4.653193291064e+01  -6.279363343108e+01 
1  3.145701171316e+01   2.533961253795e+01  -1.894075313531e+01 
1  2.447954436525e+01  -4.765284997551e+01   7.677714489929e+01 
1 -2.755729531612e+01  -6.605691026548e+01  -2.832580759328e+00 
8
Step 30000
1  2.000586643400e+01  -9.556993527124e+01   1.960187947977e+01 
1 -8.836255983555e+00   7.973908864923e+00   3.001121589237e+01 
1  3.833009021786e+00   2.569716704875e+01   9.085037008469e+00 
1 -2.213320030078e+01   4.245821917312e+00   3.184534007954e+01 
1  6.911677288282e+01  -2.124932780720e+01   2.969043286939e+01 
1 -4.342212345887e+01  -1.085596140397e+01  -4.077273014160e+01 
1 -1.920663928174e+01   5.290063456564e+01  -3.477134653626e+01 
1  3.700863736373e+01   4.759937737103e+01   5.579296389372e+01 
8
Step 31000
1  3.356060939295e+01   2.142741284028e+01  -8.551114171975e+00 
1  4.488782070857e+01   7.760203597793e+00   5.259376865099e+01 
1  7.809229204565e+01  -2.425218041612e+01  -6.484001339561e+01 
1 -1.884505432010e+01  -3.668692867564e+01   2.187505172561e+01 
1 -1.846912167031e+01   7.031011863032e+01  -6.066275319705e+01 
1 -7.668804540191e+00   6.310618475612e+01  -8.081068408156e+00 
1  2.016167890324e+00  -1.459874781768e+02   2.409087385253e+01 
1 -5.961662475079e+01   2.592096838930e+01   3.744858989857e+01 
8
Step 32000
1 -3.161366940443e+01   9.470605927314e+00   5.266907621187e+00 
1  1.220612982594e+01   1.807673888471e+01   3.139479262936e+01 
1  1.825261029205e+00  -5.190540349016e+01  -3.123943478962e+01 
1 -5.966626623281e+01   5.331857170674e+01   2.558208396795e+01 
1  4.276551863597e+01  -5.394476210788e+01  -1.617653998212e+01 
1 -5.692350941217e+01   2.783084490050e+00  -2.166199115077e+01 
1  5.547340092960e+01   3.925653208435e+01   5.146495935908e+01 
1  1.936073354034e+01  -3.919046086637e+01   6.377325621989e+01 
8
Step 33000
1  7.270355600604e+01   6.945878994681e+00   9.962521782135e+00 
1 -8.486814082859e+00   7.007650950967e+01   1.316848964122e+00 
1  1.110044727088e+02   5.322598788861e+01   2.229204146995e+01 
1  8.087124675514e+00  -6.362986546386e+01   5.375957622929e+01 
1 -3.187347776877e+01  -2.769663166378e+01  -4.925694662243e+01 
1  4.494633017049e+01  -3.040798781482e+01   3.186129909632e+01 
1  1.734807281668e+01   4.458097187736e+01  -6.057935899932e+01 
1  4.326141130691e+01   3.907450800154e+01  -7.543807078510e+00 
8
Step 34000
1 -6.801523769702e+00   9.582894462140e+00  -3.713803914521e+01 
1  1.547587347034e+01  -4.109092499271e+01   9.862748565909e+00 
1  1.271893055047e+01  -7.476880552934e+01  -1.221375715362e+02 
1 -4.958999773730e+00   6.175156807960e+00   4.229240480952e+01 
1  1.318856413781e+01   6.237704228773e+01   1.144657093519e+01 
1 -4.789260653105e+01   3.272525509534e+01  -2.364081180691e+01 
1  1.486822593359e+01   2.884578237470e+01   1.019571834634e+02 
1  6.121890711061e+01  -6.950680569644e+01   8.859941172282e+01 
8
Step 35000
1  2.063725328350e+00  -5.452285881624e+01   3.713634320315e+01 
1  6.492023788590e+01   1.099441406814e+01   1.980638620211e+01 
1  3.925627801984e+01   3.312776570362e+01   2.867260486915e+01 
1  3.183623218145e+00  -5.300928243201e+01   3.005651078156e+00 
1 -1.040584226330e+02   5.639286666866e+01  -6.197492115796e+01 
1  2.594048636297e+01  -8.952128274923e+01   2.802849367077e+01 
1  3.246910810990e+01   4.769984425780e+01  -6.264962489824e+01 
1  6.080543454172e+00  -6.654889339393e+01  -3.319475235622e+01 
8
Step 36000
1  1.124485655417e+02   5.683931462019e+01  -1.944936983613e+00 
1 -1.507628042061e+00   3.409926116462e+01   2.336458722955e+01 
1 -1.491089641630e+01   4.057176482666e+01  -1.134180926586e+01 
1 -2.790386160932e+00  -6.837102078286e+01   1.884898778754e+01 
1 -7.486026954915e+00   5.837531529181e+01   4.572605707208e+01 
1  3.510164056913e+01  -7.058177128125e+00   7.317763672264e+00 
1 -4.311010912043e+01  -3.418977499401e+00   1.356322529136e+01 
1  1.807788138713e+01  -4.419414879508e+01  -2.734191968199e+00 
8
Step 37000
1 -2.069422017081e+01  -4.855137001737e+00  -7.440150481098e+01 
1  4.250607933658e+01   4.360159755429e+01   5.176884818631e+00 
1  8.166598159949e+01  -4.800720276271e+01  -4.505997902125e+01 
1  1.803687542981e+01  -9.528280691197e+00  -8.667178516509e+00 
1 -3.433559513257e+01  -4.427431461583e+01   6.009612637873e+01 
1 -7.571888370084e+01  -1.847951240498e+01  -4.133423102317e+01 
1  7.629475338843e+01   1.846914238867e+01   2.112210199332e+01 
1  2.380099568393e+01  -1.740214566052e+01   3.629909337766e+01 
8
Step 38000
1  5.017326278465e+01  -2.270347447282e+01   3.186540712117e+00 
1 -2.860293582953e+01   7.038275267690e+01  -2.616594347454e+01 
1  3.630068967164e+01  -6.409855123772e-01   3.006857835179e+01 
1 -6.138855666126e+00  -4.044773147664e+01   2.560135809987e+01 
1  1.455896840767e+01  -3.013187774413e+01   8.959218115635e+00 
1  2.123710427805e+01   4.048694499321e+01   5.073198069337e+01 
1 -2.384350830284e+00  -5.747472970912e+01  -4.905035054512e+01 
1  4.532685715383e+01   7.490444351966e+01  -1.109990477438e+01 
8
Step 39000
1  3.027562437085e+01   1.001332541254e+00  -7.935699097628e+01 
1  6.413230403477e+01  -4.269319021827e+01   1.103163662436e+01 
1  2.905671586636e+01  -1.158131190284e+00  -3.632912389215e+01 
1 -3.563156344965e+01   5.681178753326e+01   4.727375838102e+00 
1  2.864724194920e+01  -4.490239582269e+01   5.950327649999e+01 
1 -2.165569928724e+01  -3.171197900636e+01  -1.199222860729e+01 
1  4.609131173938e+01  -1.934556527574e+01   3.408983766903e+01 
1 -3.295612919014e+01  -5.835769546501e+00  -4.854012223922e+01 
8
Step 40000
1 -2.313093505679e+01   4.992877730338e+00  -3.258680845094e+01 
1  2.573335400844e+01   2.217524911963e+01   2.966011454035e+01 
1 -3.992756411267e+01  -5.328090528648e+01  -1.648309311240e+00 
1 -2.144598583809e+01   3.075888183375e+01   1.233171594826e+01 
1  4.859546902743e+01   2.151076126547e+01  -2.622082867884e+01 
1 -3.397254768475e+01  -1.145210817493e+01   2.735278788722e+01 
1 -2.970945082965e+00  -7.843011164567e+01  -6.275009488400e+01 
1 -3.201955149005e+01  -1.245993839180e+01   4.873995129793e+01 
8
Step 41000
1  2.912770133482e+01  -1.971803092245e+01  -1.898693153486e+01 
1  3.362875148412e+01  -7.303849047002e+00   7.023248185202e-01 
1  2.216802607488e+01  -1.229503348854e+01  -1.757115972796e+01 
1 -2.822276272961e+01   2.836522465590e+00   8.045193981001e+01 
1  2.501502262233e+01   2.606865302361e+01   1.458433509643e+01 
1  1.346065532354e+01   2.412389698594e-02  -5.343105501291e+00 
1 -2.886109289641e+01   1.281223777081e+01  -5.641865053373e+01 
1  2.597021696933e+01  -1.123044830619e+01  -4.661527505330e+01 
8
Step 42000
1 -1.917643563638e+01   5.011813291059e+01  -5.114699911536e+01 
1  6.724347289608e+01   1.974550170232e+01  -1.028486033684e+01 
1  3.101155554918e+01  -2.607187157918e+01  -4.220123217140e+01 
1  3.789579942407e+01  -1.700077519753e+01  -5.229202186148e+01 
1  8.560593814253e+00   8.884863588401e+01   4.679549731305e+01 
1 -2.166424458263e+00   1.677617556593e+01   2.956273455883e+01 
1  1.830358874631e+01   2.185879500128e+01   1.509081670198e+01 
1 -6.756470636107e+01  -7.725304734932e+01   4.143739902562e+01 
8
Step 43000
1 -2.659556963552e+01  -5.827406375467e+01  -3.712089505893e+01 
1 -2.946228169776e+01  -6.273243958780e+01  -2.050721416127e+01 
1 -2.973124756388e+01  -2.910645788385e+01  -2.557002300933e+01 
1 -7.881971125154e+01  -3.109911100268e+01   1.786809867678e+01 
1  5.906553306007e-01  -1.565113144753e+01  -2.788154717860e+01 
1  5.476424063001e+01  -1.410674611752e+01  -2.154542388121e+01 
1 -2.040838056129e+01   5.170601428116e+01  -4.733253765153e+01 
1  7.210281807213e+01  -4.095510156441e+00   5.959563954562e+01 
8
Step 44000
1  4.293961865557e+01   2.752713341196e+01   1.569200523183e+01 
1  6.000770616481e+01   2.329897609913e+01   5.504826622399e+00 
1 -4.853147084289e+01   2.345267048144e+01   3.446906438839e+01 
1  4.780780253307e+01  -1.944712529268e-01  -3.025657100243e+01 
1 -2.650553777629e+01   2.771311276092e+01   9.561319433223e+01 
1 -4.194232651391e+01  -2.212212213167e+01  -6.127081038281e+01 
1 -3.280857925194e+01   1.331270762436e+01  -1.740212700663e+01 
1 -2.699029348170e+01  -2.026766120377e+01  -8.062528365870e+01 
8
Step 45000
1 -7.600849182139e+00  -5.577703878603e+01  -3.446187355613e+01 
1 -1.762679955435e+01  -8.931489895796e+01  -3.716664801049e+01 
1  2.045569512883e+00  -3.296833415976e+01  -2.131937247593e+01 
1 -1.737943788717e+01   4.210106076932e+01  -2.571070391281e+01 
1 -2.566505104331e+01   4.696095325570e+01   2.274290264449e+01 
1  4.544253280117e+00   4.435391248100e+01   1.124253695388e+01 
1 -2.557239400815e+01  -7.691902137488e+00   5.843740569733e+00 
1 -4.345454556742e+01  -3.377726029251e+01   1.831111392248e+01 
8
Step 46000
1 -3.377871577651e+01   4.996149636110e+01  -3.346814691654e+00 
1  1.773682601862e+01  -1.537279944149e+00   3.687623865521e+01 
1 -1.838268045288e+01   3.299477164510e+01   1.659379066774e+01 
1 -7.392082211151e+00  -1.270038164346e+01  -4.168086094153e+01 
1 -3.116763323324e+00  -6.961672431912e+01   3.757360054269e-01 
1 -1.075084451469e+01  -1.076332889746e+00   3.201114588189e+01 
1 -4.246145220771e+01   5.017120130227e+01  -3.442116338930e+01 
1  5.586111081332e+01   4.655913312416e+01  -6.173660167139e+01 
8
Step 47000
1  3.302164422115e+01  -2.431168900801e+01  -2.777044655073e+01 
1 -2.019245008011e+01   3.578689009652e+01   7.896957747161e+00 
1 -4.368461961522e+01  -1.141001343265e+02  -7.901574518176e+01 
1  2.858993665235e+01  -3.606365531371e+01  -2.714811258689e+01 
1  2.682565098517e+01   1.365361352035e+01   8.104935617122e+01 
1 -4.488225045503e+01   6.380865181373e+01   1.082871280821e+01 
1  5.731219930348e+01   2.163121920818e+01   2.187767265032e+01 
1 -5.460830277186e+01   6.147575219165e+01  -3.176538486650e+01 
8
Step 48000
1 -2.003645417575e+01  -1.653728793159e+01   9.078233320860e+00 
1 -1.420373896360e+01  -8.003399079926e+00  -2.714388950343e+01 
1  1.882979556511e+01   2.718506425320e+01   2.767403125299e+00 
1 -8.307273528070e+01   3.314828410369e+01   1.435449575716e+01 
1 -1.279316505053e+01  -8.067425725491e+01  -3.925201572585e+01 
1 -5.783020743048e+01  -3.120550175324e+00   2.113893567211e+01 
1 -2.032867230571e+01   3.667249245825e+01  -7.965183060588e+01 
1  1.616049621190e+01   5.366636092794e-01   1.676846641936e+01 
8
Step 49000
1 -2.578823160795e+01  -4.011343950133e+01  -2.296838787887e+01 
1  3.521156162150e+01  -2.387403638577e+01   3.251428860316e+01 
1 -9.569156238499e+01  -4.710499254650e+01   1.048599581014e+02 
1 -4.149150280632e+01   7.686911022735e+01  -6.826137169512e+01 
1  3.289456690759e+01  -3.212602038283e+01   8.470346332380e+01 
1 -3.539439752525e+01  -3.251237092984e+01   4.555327823635e+01 
1 -1.673644949788e+01   2.168476627057e+00  -7.433894701637e+01 
1 -4.847843676361e+01   6.611571461872e+01  -1.089313664349e+02 
8
Step 50000
1 -5.954783807048e+01   4.709835967908e+01   3.851528246082e+01 
1  7.357657165361e+01   4.928721971612e+01  -9.361394639991e+00 
1  7.642055299371e+01  -2.848298147320e+01  -1.725698284777e+01 
1 -6.917778092030e+01   6.124553536044e+01  -4.155588790697e+01 
1 -1.661437490531e+01   3.691491488092e+00  -1.797642902371e+01 
1 -1.268493824637e+01   4.515729371806e+01  -9.775866338010e+00 
1  1.236623486100e+01  -2.291562813645e+00  -6.140311586479e+00 
1 -3.060341738187e+01   1.333130596133e+01   3.902888081025e+01 
8
Step 51000
1 -3.275622940943e+01  -2.719546522743e+01  -3.939423495385e+01 
1 -4.622000308935e+01  -1.014260132143e+02  -4.576730426044e+01 
1 -1.200057330250e+02   2.403679043102e+01   5.151327804853e+01 
1  9.693010696239e+00  -3.055321767836e+01  -1.389124160433e+01 
1  1.279675260188e+01   2.191286204828e+01   3.004654779575e+01 
1  2.440747442644e+01  -2.444299478974e+01   1.048385350943e+02 
1 -8.025999161331e+00   8.022123392771e+01  -3.675919639527e+01 
1 -8.429936711345e-01   1.929782888575e+01  -4.499678430370e+01 
8
Step 52000
1  4.484690220779e+01   5.085460372045e+01   7.146414298228e+01 
1  4.139965065682e+01   1.999110580189e+01   2.885188584906e+01 
1 -5.001660283670e+01  -2.281203372195e+01  -1.084897201924e+00 
1 -4.533885442236e+01  -7.685496759547e+00  -5.795778792740e+00 
1 -7.533933876943e-01   1.060200532344e+01   8.595424178394e+01 
1  2.516850083121e+01   4.717046407156e+01  -1.083757851185e+02 
1 -1.877352760201e+01  -1.802762864643e+00  -8.210120327809e+01 
1 -2.551974759805e+01   1.719578631539e+01  -2.551791518378e+01 
8
Step 53000
1 -1.953515180950e+01  -4.600668052908e+01  -2.236391295481e+01 
1 -1.126595413746e+01  -4.832325886210e+01  -3.614442985330e+00 
1 -4.481974761283e+01   3.315716684953e+01  -1.235673685164e+01 
1  1.770504304644e+01   3.535880268559e+01  -5.206112888365e+00 
1 -2.877400657941e+01   4.748681885594e+01  -4.552275600567e+01 
1 -3.760408059470e+01  -1.253787261596e+01   3.268087470522e+01 
1 -7.962727555905e+01   3.244884478187e+00   5.530812397518e+01 
1  1.669720841043e+01  -2.893055250360e+01   6.328793661363e+01 
8
Step 54000
1 -4.802834820140e+00   4.802177809858e+01   6.261561790773e+01 
1 -4.897832349061e+01  -1.677700943730e+01   4.728953224225e+01 
1 -7.938825435332e+01   6.655613084955e+01   9.646048042038e+00 
1  8.347781408783e+00  -1.734242291850e+01  -7.001854223327e+01 
1 -3.496053452800e+01   2.339998826498e+00   1.566445254308e+01 
1 -7.216794274445e+00  -5.563960792018e+01  -6.765895517477e+01 
1  4.898607611613e+01   3.757259493487e+01   5.648012161055e+00 
1  1.379564548255e+01  -1.245087065887e+01  -1.232859474142e+01 
8
Step 55000
1 -3.139620304568e+01   6.594365745391e+01  -2.469678814740e+01 
1 -3.373657155091e+01   3.886712701637e+01  -3.241056784462e+00 
1  4.353001969261e-01  -8.321163436206e+01   8.146356688284e+01 
1  1.490430500450e+00   4.856288018629e+01  -2.129152345648e+01 
1  6.549453186408e+01  -1.887820410455e+01   4.631785212578e+01 
1  6.258207706601e+01   9.899028897866e+01  -1.481037241990e-01 
1 -4.763106989238e+01  -3.454682498469e+01  -9.311004101583e+00 
1 -2.806952235734e+00   1.013722465593e+01   4.631568019034e+01 
8
Step 56000
1 -1.067870706835e+01   9.216105120720e-01   2.635485367601e+01 
1  5.322317114655e+00  -7.886479287988e+01  -3.525001090139e+01 