8
Step 0
1 1.26120211529828964e+02 -1.19964011082790137e+02 8.56699457260447161e+01
1 -7.91980072839022426e+01 1.23053404130892602e+02 1.24278054187235682e+02
1 1.16412581309152188e+02 -9.38921372381371953e+01 -1.46638407554805156e+02
1 -9.96920434527471855e+01 9.94735615805020643e+01 -1.18808568691081746e+02
1 6.36504381408827271e+01 -1.04604283145044349e+02 1.24102504584792143e+02
1 -5.54108445267948042e+01 1.07658714896362881e+02 1.04016405427425212e+02
1 1.40517534172474200e+02 -1.04007577170116804e+02 1.30949593135921589e+02
1 8.04415317329834920e+01 7.95094374155129344e+01 9.03305913300075645e+01
8
Step 10
1 1.26939703271762653e+02 -1.18099929596785046e+02 8.78083655928048188e+01
1 -8.12898090406913525e+01 1.21724973732095336e+02 1.22603741362313201e+02
1 1.20065890513306599e+02 -8.33300400283665113e+01 -1.55325495123654662e+02
1 -9.95865456710100148e+01 1.05161887195734195e+02 -1.18111305494653678e+02
1 5.65221874002750226e+01 -1.00466857641250101e+02 1.27131838557114065e+02
1 -5.87653256866028997e+01 1.15591438416938828e+02 1.05031671016799038e+02
1 1.47498804605547093e+02 -1.02018223972933527e+02 1.32723311291612703e+02
1 8.88344050690448626e+01 8.58180198619833448e+01 9.30426637525665683e+01
8
Step 20
1 1.26639211637835331e+02 -1.15224785115602870e+02 8.91339462829018458e+01
1 -8.26213822561128666e+01 1.19608489247201206e+02 1.19983959662503196e+02
1 1.22533639952179499e+02 -7.12794967518573657e+01 -1.62555123131297478e+02
1 -9.82840996493080610e+01 1.09856412453598296e+02 -1.15709857391264535e+02
1 4.85090589052143173e+01 -9.45505342232839325e+01 1.28727991048279591e+02
1 -6.20496701260072356e+01 1.23067923542639917e+02 1.04426128594527370e+02
1 1.52578687564307700e+02 -9.89462008244668283e+01 1.33249594305974284e+02
1 9.68302189614532836e+01 9.11063219570277880e+01 9.46986906244528512e+01
8
Step 30
1 1.25223614915814863e+02 -1.11337377962773814e+02 8.96609399769963176e+01
1 -8.31934730534570264e+01 1.16715221754294859e+02 1.16428272871767533e+02
1 1.23806175622384572e+02 -5.78265786535685322e+01 -1.68268115759704898e+02
1 -9.57765216381440325e+01 1.13484367092521893e+02 -1.11576965446959207e+02
1 3.96846947775411749e+01 -8.69334628131608014e+01 1.28900415621607948e+02
1 -6.52515469240950239e+01 1.30020392639380844e+02 1.02224127015708419e+02
1 1.55743563006869863e+02 -9.48818954219118211e+01 1.32499546102627619e+02
1 1.04352156753427209e+02 9.53274432682200512e+01 9.52604896758036261e+01
8
Step 40
1 1.22710949067719326e+02 -1.06447007810938757e+02 8.94142893411320756e+01
1 -8.30129218837991232e+01 1.13062140983548161e+02 1.11956589633671399e+02
1 1.23890570759738026e+02 -4.30819226689038786e+01 -1.72422475490233950e+02
1 -9.20694872938373123e+01 1.15985548345558925e+02 -1.05710626672045066e+02
1 3.01326863711963888e+01 -7.77190207763765528e+01 1.27679804255230110e+02
1 -6.83536193509324761e+01 1.36380906738709058e+02 9.84718018774358228e+01
1 1.57002882683312691e+02 -8.99271906614553131e+01 1.30458270678963800e+02
1 1.11326530367665171e+02 9.84492688735662824e+01 9.47033777629604003e+01
8
Step 50
1 1.19132576289997743e+02 -1.00574093423283998e+02 8.84293766873532689e+01
1 -8.20926863934864031e+01 1.08672146222319782e+02 1.06599206975598008e+02
1 1.22810500933286050e+02 -2.71801529567095059e+01 -1.74993964067137028e+02
1 -8.71829511687504919e+01 1.17313179374610002e+02 -9.81347912071741888e+01
1 1.99461328625036209e+01 -6.70348205472054701e+01 1.25117404923899542e+02
1 -7.13336945842612238e+01 1.42082168718392154e+02 9.32366497454844136e+01
1 1.56389134720273830e+02 -8.41941589996570769e+01 1.27125449277553614e+02
1 1.17683308737088453e+02 1.00454887843861442e+02 9.30166741126004979e+01
8
Step 60
1 1.14533317531134855e+02 -9.37507831747908682e+01 8.67517069033214341e+01
1 -8.04519460788040135e+01 1.03574365672389490e+02 1.00396844859590175e+02
1 1.20606047126832280e+02 -1.02790174775762821e+01 -1.75976715382543233e+02
1 -8.11515700260021333e+01 1.17434805357652564e+02 -8.88999160233979495e+01
1 9.22713539233412128e+00 -5.50315422711842928e+01 1.21284205599844398e+02
1 -7.41650309116559470e+01 1.47058527269659066e+02 8.66070122702069938e+01
1 1.53957844451095013e+02 -7.78037235563194827e+01 1.22515930717757740e+02
1 1.23356729213456333e+02 1.01342994960342452e+02 9.02042240402517308e+01
8
Step 70
1 1.08971491548909313e+02 -8.60214878151057718e+01 8.44364828138177757e+01
1 -7.81162548019832172e+01 9.78044757619997540e+01 9.34006247891951915e+01
1 1.17333379322761431e+02 7.44186813089858745e+00 -1.75383827277214493e+02
1 -7.40250669970748021e+01 1.16333198121011861e+02 -7.80832797426245122e+01
1 -1.91384396697029802e+00 -4.18814891450067321e+01 1.16269931479441070e+02
1 -7.68168126747914926e+01 1.51247189100925539e+02 7.86913938902238073e+01
1 1.49787505124015013e+02 -7.08842165358739891e+01 1.16660271471563547e+02
1 1.28286036398632319e+02 1.01128229902223808e+02 8.62848980893679567e+01
8
Step 80
1 1.02518787787477407e+02 -7.74432542329934535e+01 8.15480259901459732e+01
1 -7.51176966507973987e+01 9.14049826839151507e+01 8.56719325872771265e+01
1 1.13064257343108210e+02 2.57827824920463584e+01 -1.73247852740440976e+02
1 -6.58684543750473352e+01 1.14007212559430485e+02 -6.57889347449556823e+01
1 -1.33588292731681317e+01 -2.77767518464063095e+01 1.10181785146909405e+02
1 -7.92547985698683561e+01 1.54589625480648294e+02 6.96175178807041561e+01
1 1.43979295519663253e+02 -6.35697627778654564e+01 1.09605143450307423e+02
1 1.32416377681107747e+02 9.98413828323311492e+01 8.12929970594473019e+01
8
Step 90
1 9.52598932775877500e+01 -6.80858915760697130e+01 7.81589957234444199e+01
1 -7.14949943971114550e+01 8.44254040726363542e+01 7.72820985310676605e+01
1 1.07885278229119479e+02 4.45262649461155178e+01 -1.69621090199834953e+02
1 -5.67620212745909356e+01 1.10472514435520523e+02 -5.21471593870853454e+01
1 -2.49834450822343150e+01 -1.29268754725544035e+01 1.03142854878528908e+02
1 -8.14421411328862916e+01 1.57033134863902745e+02 5.95310199776499474e+01
1 1.36656431821580242e+02 -5.59984292444072125e+01 1.01413517157197731e+02
1 1.35699854461574489e+02 9.75293816582767192e+01 7.52784764217850153e+01
8
Step 100
1 8.72917968396182147e+01 -5.80317628597399633e+01 7.43493665245690778e+01
1 -6.72935177902593722e+01 7.69222895074715751e+01 6.83118297850218568e+01
1 1.01896800618880803e+02 6.34401529493927825e+01 -1.64575561170739434e+02
1 -4.68009908904942620e+01 1.05762082996129323e+02 -3.73132781457466507e+01
1 -3.66583400845403986e+01 2.44405102261707174e+00 9.52901262997837648e+01
1 -8.33403645722366946e+01 1.58532498459420481e+02 4.85936886463362328e+01
1 1.27963017043791197e+02 -4.83101083002064229e+01 9.21645246463561847e+01
1 1.38096689729117543e+02 9.42549755100928621e+01 6.83068971586244373e+01
8
Step 110
1 7.87227080501055951e+01 -4.73751688916240781e+01 7.02051408880712700e+01
1 -6.25651416097658029e+01 6.89590250448869426e+01 5.88503418750947276e+01
1 9.52114876939470491e+01 8.22813097788842924e+01 -1.58202565205584733e+02
1 -3.60947626119276350e+01 9.99263863707457460e+01 -2.14657420661465395e+01
1 -4.82509341242203291e+01 1.81009179314355784e+01 8.67720576225845122e+01
1 -8.49104753139681492e+01 1.59051643128442407e+02 3.69811864101266536e+01
1 1.18062285865159566e+02 -4.06441391347698442e+01 8.19529118129242278e+01
1 1.39576437430796204e+02 9.00960403309593261e+01 6.04590151753162957e+01
8
Step 120
1 6.96705533274826649e+01 -3.62212767870785513e+01 6.58167973445667229e+01
1 -5.73679116266358449e+01 6.06053797388539053e+01 4.89941571368130226e+01
1 8.79524322139491659e+01 1.00800003752838350e+02 -1.50611718753234129e+02
1 -2.47656774445790404e+01 9.30331350651211579e+01 -4.80340536058129608e+00
1 -5.96274689718000559e+01 3.38017061175935183e+01 7.77457175255773194e+01
1 -8.61141658626890205e+01 1.58565208960279222e+02 2.48802254512973491e+01
1 1.07134190629875320e+02 -3.31367129433826477e+01 7.08880058074812496e+01
1 1.40119133987774262e+02 8.51444550485795872e+01 5.18299375063861447e+01
8
Step 130
1 6.02610452787849837e+01 -2.46845804314801072e+01 6.12775007981081075e+01
1 -5.17654905803576426e+01 5.19367707546546171e+01 3.88455664755441319e+01
1 8.02508589893556916e+01 1.18744836782307260e+02 -1.41929415609669690e+02
1 -1.29472799731047186e+01 8.51665395928152975e+01 1.24580065299621818e+01
1 -7.06553075994328879e+01 4.93020958045962203e+01 6.83735340823835287e+01
1 -8.69150594336888247e+01 1.57059910029193162e+02 1.24852189888629059e+01
1 9.53723336564435584e+01 -2.59181497776992273e+01 5.90921528695940239e+01
1 1.39716278822530114e+02 7.95045289459100246e+01 4.25277983657636227e+01
8
Step 140
1 5.06253610090745383e+01 -1.28869212695055300e+01 5.66811289314364615e+01
1 -4.58263750966514110e+01 4.30332468292795411e+01 2.85107834848894370e+01
1 7.22434395058718195e+01 1.35868058273048803e+02 -1.32296689150413442e+02
1 -7.82093932080139886e-01 7.64260311656204436e+01 3.00901718641728166e+01
1 -8.12053941674953847e+01 6.43604192910113255e+01 5.88197556277642235e+01
1 -8.72799324938415708e+01 1.54535578916069198e+02 -5.51660418678756592e-03
1 8.29803182152198673e+01 -1.91101733237600939e+01 4.66986246944057015e+01
1 1.38371529715872043e+02 7.32909969235037266e+01 3.26719390478076690e+01
8
Step 150
1 4.08975061824170325e+01 -9.55139286219151229e-01 5.21201914965889372e+01
1 -3.96228961723084296e+01 3.39782152935684749e+01 1.80978539901230775e+01
1 6.40692975363793522e+01 1.51931044569415747e+02 -1.21866506464581505e+02
1 1.15810224792721819e+01 6.69244464645319823e+01 4.78570510379531555e+01
1 -9.11547617472757850e+01 7.87427563939034485e+01 4.92467661945808004e+01
1 -8.71798478196145936e+01 1.51005801174480041e+02 -1.23938785484917684e+01
1 7.01676547164758375e+01 -1.28233349664014611e+01 3.38490445959809207e+01
1 1.36101014851020039e+02 6.66266295776694051e+01 2.23906135643866442e+01
8
Step 160
1 3.12114791258682835e+01 1.09815393234707219e+01 4.76837370122771418e+01
1 -3.32300375652772004e+01 2.48569633846322269e+01 7.71441657633162947e+00
1 5.58668288608713723e+01 1.66709677295403992e+02 -1.10800578761034288e+02
1 2.39898268811250475e+01 5.67857248586004388e+01 6.55201596673064586e+01
1 -1.00388958388482763e+02 9.22279429389478196e+01 3.98114149129041195e+01
1 -8.65911343789553030e+01 1.46498075742434111e+02 -2.44862297891916256e+01
1 5.71454048951332680e+01 -7.15473989166041147e+00 2.06904397311096169e+01
1 1.32933200550927666e+02 5.96395260589659273e+01 1.18182916838199521e+01
8
Step 170
1 2.16983780204275440e+01 2.27942415562691423e+01 4.34553533052701937e+01
1 -2.67241256538305123e+01 1.57550488747199395e+01 -2.53456357979268665e+00
1 4.77704940583789863e+01 1.79999325320407280e+02 -9.92658278437956341e+01
1 3.62917936950884013e+01 4.61422148543222193e+01 8.28439718310921478e+01
1 -1.08804254522777711e+02 1.04612247269904174e+02 3.06615139590564993e+01
1 -8.54961618951473525e+01 1.41053477706248003e+02 -3.60975629518404162e+01
1 4.41217705654208530e+01 -2.18620575962472197e+00 7.37207063535896445e+00
1 1.28908304091700415e+02 5.24601815721598612e+01 1.09268966076419360e+00
8
Step 180
1 1.24836098495994889e+01 3.43571561896141660e+01 3.95113714177081903e+01
1 -2.01814603013066396e+01 6.75665715515360610e+00 -1.25489510961830817e+01
1 3.99077611673430326e+01 1.91619139585433743e+02 -8.74306977383197932e+01
1 4.83371862547270581e+01 3.51317310518452501e+01 9.96011568962977947e+01
1 -1.16309499357386940e+02 1.15713466850296328e+02 2.19326536770239890e+01
1 -8.38838748492880200e+01 1.34725844637332386e+02 -4.70553392104957950e+01
1 3.12978438801755203e+01 2.01704946534230478e+00 -5.95778249483819167e+00
1 1.24077288259890054e+02 4.52184569664826768e+01 -9.64829350460305690e+00
8
Step 190
1 3.68435867943861428e+00 4.55500454701271238e+01 3.59193717590555011e+01
1 -1.36769683931833033e+01 -2.05696192577572212e+00 -2.22353549979682619e+01
1 3.23963697687484427e+01 2.01415415948900431e+02 -7.54615321839737305e+01
1 5.99819161471540880e+01 2.38945360414683279e+01 1.15577353556709284e+02
1 -1.22827516040708986e+02 1.25374220937711470e+02 1.37454827876624890e+01
1 -8.17500714755063456e+01 1.27580552262537594e+02 -5.72027845182602448e+01
1 1.88637363787917458e+01 5.40713213229964929e+00 -1.91548865420008703e+01
1 1.18500511404091185e+02 3.80406101194929818e+01 -2.02695387063119483e+01
8
Step 200
1 -4.59254943892081524e+00 5.62604060167290783e+01 3.27370651056934250e+01
1 -7.28296706828095175e+00 -1.06088613563121719e+01 -3.15086930957711076e+01
1 2.53420594657085836e+01 2.09263865338097759e+02 -6.35192418256984439e+01
1 7.10900243705068675e+01 1.25704348304958735e+01 1.30575222448778817e+02
1 -1.28295964952902068e+02 1.33464278512587185e+02 6.20358885997585929e+00
1 -7.90974372746971426e+01 1.19692985204289755e+02 -6.64014746920873051e+01
1 6.99528450047970196e+00 7.95359576264727064e+00 -3.20817932995973862e+01
1 1.12246136015249860e+02 3.10465560350500169e+01 -3.06413858563121870e+01
8
Step 210
1 -1.22522868577239610e+01 6.63851605159712079e+01 3.00115819681223606e+01
1 -1.06811767027984872e+00 -1.88274699120164541e+01 -4.02933352126885254e+01
1 1.88368570024501274e+01 2.15070742503841501e+02 -5.17564534564430119e+01
1 8.15356600159159655e+01 1.29615662418673083e+00 1.44417592900897148e+02
1 -1.32667655903232770e+02 1.39881858051006958e+02 -6.07927316323085609e-01
1 -7.59353671069723077e+01 1.11146837337661054e+02 -7.45331129532677608e+01
1 -4.14851921894606424e+00 9.64299795346004274e+00 -4.46100974004589332e+01
1 1.05388419574513719e+02 2.43474987713747097e+01 -4.06418834343875019e+01
8
Step 220
1 -1.92131256780444595e+01 7.58318171231167213e+01 2.77791587485193290e+01
1 4.90336899785425473e+00 -2.66473115699001255e+01 -4.85237989007417667e+01
1 1.29579548927082087e+01 2.18772908347135200e+02 -4.03152701237077764e+01
1 9.12044916753789749e+01 -9.79684007698657666e+00 1.56949620941185600e+02
1 -1.35910346071337159e+02 1.44553947365175759e+02 -6.62315890662375573e+00
1 -7.22796303604438037e+01 1.02032386605132018e+02 -8.15004891290675744e+01
1 -1.44272946955813364e+01 1.04779758401058629e+01 -5.66221166233319906e+01
1 9.80060176718675962e+01 1.80440310692885646e+01 -5.01585155972219354e+01
8
Step 230
1 -2.54070155004018972e+01 8.45190993818351046e+01 2.60651674915259228e+01
1 1.05722489658359589e+01 -3.40093651383036502e+01 -5.61450165470169154e+01
1 7.76715173053003305e+00 2.20337013367757550e+02 -2.93256885421328342e+01
1 9.99945558020412193e+01 -2.05840620173608180e+01 1.68039988028605478e+02
1 -1.38006113015424290e+02 1.47435792359189236e+02 -1.17954360482411573e+01
1 -6.81519451619571583e+01 9.24448765520473756e+01 -8.72276949985218408e+01
1 -2.37202558844364546e+01 1.04759619029196251e+01 -6.80119653794581467e+01
1 9.01804165788121423e+01 1.22247386822830144e+01 -5.90893776645547035e+01
8
Step 240
1 -3.07797076826788683e+01 9.23771126439581423e+01 2.48844071305213994e+01
1 1.58844952144932492e+01 -4.08611101388901261e+01 -6.31122334198543768e+01
1 3.31077208349082897e+00 2.19758066555267106e+02 -1.89046382395219084e+01
1 1.07816612595916695e+02 -3.09491663734426616e+01 1.77581272066681322e+02
1 -1.38950430996907983e+02 1.48509771760630400e+02 -1.60968241287218170e+01
1 -6.35795269881041278e+01 8.24831026160297256e+01 -9.16597393249424783e+01
1 -3.19265018303315493e+01 9.66767948044419789e+00 -7.86860633330128962e+01
1 8.19945814321182809e+01 6.96528797593738869e+00 -6.73438356289464366e+01
8
Step 250
1 -3.52905349055351323e+01 9.93471601898507544e+01 2.42415633396217416e+01
1 2.07913294522393706e+01 -4.71563433456231564e+01 -6.93906268458862741e+01
1 -3.80049193444097100e-01 2.17057677998424964e+02 -9.15554175564530759e+00
1 1.14594130829193816e+02 -4.07846914983738600e+01 1.85489694164627508e+02
1 -1.38751095036349568e+02 1.47783899170376884e+02 -1.95172316159200676e+01
1 -5.85946643746513800e+01 7.22482523872103997e+01 -9.47617458759348068e+01
1 -3.89647748499942566e+01 8.09555197876774457e+00 -8.85631806071548482e+01
1 7.35318634750978930e+01 2.32792822486891726e+00 -7.48427597813092262e+01
8
Step 260
1 -3.89119706120331799e+01 1.05381344887531441e+02 2.41317513139444593e+01
1 2.52491068024127934e+01 -5.28548681913929386e+01 -7.49547521504825198e+01
1 -3.28884307975015089e+00 2.12282232955072686e+02 -1.68256243694805963e-01
1 1.20263048820751166e+02 -4.99924356190742358e+01 1.91704473772007219e+02
1 -1.37427127099888850e+02 1.45290174055718978e+02 -2.20632827722053655e+01
1 -5.32343530292394007e+01 6.18429965218375699e+01 -9.65179223878472783e+01
1 -4.47728717351690406e+01 5.81213421471712355e+00 -9.75741575498033455e+01
1 6.48751649993015604e+01 -1.63868793793983913e+00 -8.15184566029175954e+01
8
Step 270
1 -4.16290848992036544e+01 1.10442088737643488e+02 2.45410763374956638e+01
1 2.92191322828622866e+01 -5.79221568521840595e+01 -7.97879186302674412e+01
1 -5.41315521336200156e+00 2.05501183521982000e+02 7.98075376941743020e+00
1 1.24771456530330951e+02 -5.84836092818551236e+01 1.96187010107936771e+02
1 -1.35007767150087687e+02 1.41082949356215039e+02 -2.37570846334143546e+01
1 -4.75399949491812919e+01 5.13707819002001642e+01 -9.69304611622685002e+01
1 -4.93068870590825767e+01 2.87863624930566919e+00 -1.05661445740838133e+02
1 5.61063230306481131e+01 -4.89946833485037381e+00 -8.73144320231976394e+01
8
Step 280
1 -4.34389868453185528e+01 1.14501678072048165e+02 2.54471739609779952e+01
1 3.26674809436522793e+01 -6.23290670961229480e+01 -8.38815805497991818e+01
1 -6.76385072833023848e+00 1.96805553142103122e+02 1.52281481850578757e+01
1 1.28079317639794510e+02 -6.61788855864710399e+01 1.98920058971565425e+02
1 -1.31531608463287540e+02 1.35237411195400853e+02 -2.46349762680987610e+01
1 -4.15571467378922037e+01 4.09352490166065195e+01 -9.60184831867595676e+01
1 -5.25404325933771901e+01 -6.36430830089814270e-01 -1.12778600331236788e+02
1 4.73056487020934711e+01 -7.43271811503669166e+00 -9.21851049162136889e+01
8
Step 290
1 -4.43503067912399231e+01 1.17541905381465099e+02 2.68197183777593722e+01
1 3.55648762660398390e+01 -6.60516696116649484e+01 -8.72347998276817407e+01
1 -7.36442185968199325e+00 1.86306660816858823e+02 2.15234511081313187e+01
1 1.30158309565581703e+02 -7.30084502935882398e+01 1.99907007030346222e+02
1 -1.27045892542991169e+02 1.27848193109584145e+02 -2.47463034247940428e+01
1 -3.53352853028742189e+01 3.06396845678070093e+01 -9.38170808732034942e+01
1 -5.44639256558033367e+01 -4.65849280574989955e+00 -1.18889819881582227e+02
1 3.85515506934342014e+01 -9.22991208260732243e+00 -9.60955593469496137e+01
8
Step 300
1 -4.43827348606486396e+01 1.19553839079312453e+02 2.86209094323797650e+01
1 3.78866594344563410e+01 -6.90712128611169334e+01 -8.98538060613377354e+01
1 -7.25030960090053522e+00 1.74135001973418298e+02 2.68288612023083211e+01
1 1.30991813892527034e+02 -7.89121201165372383e+01 1.99171276812177496e+02
1 -1.21605942458657651e+02 1.19028087061502973e+02 -2.41522226106238200e+01
1 -2.89275513117923602e+01 2.05864261355130722e+01 -9.03764619954142177e+01
1 -5.50839849349650734e+01 -9.10806339248565422e+00 -1.23969588623157094e+02
1 2.99201762810584171e+01 -1.02954338185408840e+01 -9.90213865578186159e+01
8
Step 310
1 -4.35666009418437170e+01 1.20537717251334769e+02 3.08059632373002188e+01
1 3.96128602287222051e+01 -7.13742263362775589e+01 -9.17516520675363267e+01
1 -6.46822263355795890e+00 1.60439179226412534e+02 3.11191546726423134e+01
1 1.30575048190406392e+02 -8.38395606379264535e+01 1.96755836957289034e+02
1 -1.15274688724081130e+02 1.08906773976834089e+02 -2.29245109108636207e+01
1 -2.23904308567191421e+01 1.08761540860476806e+01 -8.57611574066268929e+01
1 -5.44229252585279895e+01 -1.39018489199849729e+01 -1.28002436370032939e+02
1 2.14850182461575301e+01 -1.06462841671522259e+01 -1.00948630932218265e+02
8
Step 320
1 -4.19424601756378621e+01 1.20502934795287274e+02 3.33236381883586148e+01
1 4.07283617953651103e+01 -7.29527422452380137e+01 -9.29479428578560487e+01
1 -5.07541916941729720e+00 1.45384759285735527e+02 3.43816689325308644e+01
1 1.28915297720042389e+02 -8.77506021619265084e+01 1.92722749973433224e+02
1 -1.08122229329733784e+02 9.76294790531232906e+01 -2.11443429848142515e+01
1 -1.57833420358195706e+01 1.60703075141874496e+00 -8.00492310748657445e+01
1 -5.25183088087208461e+01 -1.89538464068783590e+01 -1.30982799078653272e+02
1 1.33164553229518905e+01 -1.03117395860484962e+01 -1.01873823389074104e+02
8
Step 330
1 -3.95606374696627512e+01 1.19468076661596541e+02 3.61168281335612633e+01
1 4.12231379913269933e+01 -7.38046011926616075e+01 -9.34686040010334551e+01
1 -3.13891053152045574e+00 1.29152937844587456e+02 3.66163308973781625e+01
1 1.26032184133307922e+02 -9.06156264564435361e+01 1.87152664872594954e+02
1 -1.00225363274821447e+02 8.53554585455552228e+01 -1.89009932944353594e+01
1 -9.16810341216215718e+00 -7.12632631988056353e+00 -7.33314224745502230e+01
1 -4.94224912421048899e+01 -2.41764652838916732e+01 -1.32914940968987253e+02
1 5.48121386407331901e+00 -9.33292720082347849e+00 -1.01804063187405788e+02
8
Step 340
1 -3.64806835022251050e+01 1.17460942527445468e+02 3.91232490968007767e+01
1 4.10925336194243798e+01 -7.39337991502944902e+01 -9.33456509260639820e+01
1 -7.34547733562790350e-01 1.11938916316189705e+02 3.78356803472448817e+01
1 1.21957897790681699e+02 -9.24159811128234168e+01 1.80144152988087825e+02
1 -9.16670421752092750e+01 7.22562398864993582e+01 -1.62904270348969042e+01
1 -2.60827349710797263e+00 -1.52340252928318129e+01 -6.57101557137949754e+01
1 -4.52020959090856209e+01 -2.94816878713283224e+01 -1.33812887413606887e+02
1 -1.95824391763158268e+00 -7.76227801790812144e+00 -1.00757095353213799e+02
8
Step 350
1 -3.27707009867439893e+01 1.14518508542224637e+02 4.22762369973928998e+01
1 4.03375542542431447e+01 -7.33508301060200836e+01 -9.26169223123448830e+01
1 2.05403834456976142e+00 9.39499265970069786e+01 3.80648349425366135e+01
1 1.16737319658598125e+02 -9.31443705288666450e+01 1.71812789874476977e+02
1 -8.25356951473302161e+01 5.85135607480130062e+01 -1.34137546541049471e+01
1 3.83163707383240171e+00 -2.26322023557614145e+01 -5.72983634096123566e+01
1 -3.99373550283139451e+01 -3.47822660658784031e+01 -1.33700315314736571e+02
1 -8.94438593441340402e+00 -5.66282172699869513e+00 -9.87613255522616384e+01
8
Step 360
1 -2.85065113642515762e+01 1.10686777888981254e+02 4.55056628394131764e+01
1 3.89651328071199927e+01 -7.20729801659083762e+01 -9.13257465515519016e+01
1 5.13665887568360446e+00 7.54028772532697218e+01 3.73413472418790988e+01
1 1.10427966446871991e+02 -9.28051716127181976e+01 1.62289902938186373e+02
1 -7.29243973205047524e+01 4.43169818134070965e+01 -1.03755398574228455e+01
1 1.00870672689092267e+01 -2.92443965685594840e+01 -4.82180927753020541e+01
1 -3.37212693150913339e+01 -3.99929350669602002e+01 -1.32610352688112101e+02
1 -1.54253018832807580e+01 -3.10729476753931833e+00 -9.58557168116911669e+01
8
Step 370
1 -2.37706464972208877e+01 1.06020482080508657e+02 4.87389602524023005e+01
1 3.69883438270429608e+01 -7.01245335312679146e+01 -8.95205187915836262e+01
1 8.41795112277233137e+00 5.65216321990405390e+01 3.57149127172791268e+01
1 1.03099706944970862e+02 -9.14146263428333015e+01 1.51720931772401627e+02
1 -6.29298719350561839e+01 2.98611817659751466e+01 -7.28196749371185170e+00
1 1.60943976823954351e+01 -3.50029378245140066e+01 -3.85988836576693117e+01
1 -2.66585526407389821e+01 -4.50316139732209351e+01 -1.30585249515110235e+02
1 -2.13553875735200691e+01 -1.77046090235431997e-01 -9.20895222813176275e+01
8
Step 380
1 -1.86511655707260182e+01 1.00582607682783291e+02 5.19022492008707417e+01
1 3.44265431688475232e+01 -6.75368577542048456e+01 -8.72541760027683750e+01
1 1.17989090665985668e+01 3.75339674124745883e+01 3.32468983421491089e+01
1 9.48342162704916518e+01 -8.90008708408462752e+01 1.40263383343956036e+02
1 -5.26513392231406669e+01 1.53429809622642228e+01 -4.23889424983960694e+00
1 2.17920010982528396e+01 -3.98502834405111486e+01 -2.85759308867822099e+01
1 -1.88643421414457357e+01 -4.98205623017821466e+01 -1.27675894839550139e+02
1 -2.66959895951047486e+01 3.03926068243181824e+00 -8.75218234126567296e+01
8
Step 390
1 -1.32403127472262518e+01 9.44437372859230493e+01 5.49215301005775771e+01
1 3.13054194116219371e+01 -6.43483441488938865e+01 -8.45835677795457883e+01
1 1.51785311047726594e+01 1.86682798822664289e+01 3.00096720016215563e+01
1 8.57241555302951355e+01 -8.56037707163726509e+01 1.28084402717773656e+02
1 -4.21892487196403394e+01 9.58178415083945634e-01 -1.34982139791627453e+00
1 2.71213141871500483e+01 -4.37402391747363950e+01 -1.82880642513534291e+01
1 -1.04626668709549548e+01 -5.42874710382782837e+01 -1.23941167497585056e+02
1 -3.14159826052996038e+01 6.44713731491731323e+00 -8.22208604836476411e+01
8
Step 400
1 -7.63304485754775452e+00 8.76812078999744386e+01 5.77239152620592009e+01
1 2.76569532247264895e+01 -6.06041884220857909e+01 -8.15687302579753037e+01
1 1.84555438428303269e+01 1.50144384537458375e-01 2.60857240126442989e+01
1 7.58720848435964257e+01 -8.12745446031535153e+01 1.15358016141099569e+02
1 -3.16439493881642484e+01 -1.31016844801899595e+01 1.28615507510986338e+00
1 3.20278900978523495e+01 -4.66390057194051266e+01 -7.87559701562897629e+00
1 -1.58468412896768496e+00 -5.83664785486102318e+01 -1.19447117961757982e+02
1 -3.54922566714167829e+01 9.94793141173316009e+00 -7.62631589537102172e+01
8
Step 410
1 -1.92546942838377522e+00 8.03781034646447665e+01 6.02388601182417815e+01
1 2.35192897055446828e+01 -5.63560058559799586e+01 -7.82720786482495612e+01
1 2.15301534408186761e+01 -1.78011727748321888e+01 2.15665842860459165e+01
1 6.53891359246394046e+01 -7.60751714219787232e+01 1.02262131901070319e+02
1 -2.11143592376657203e+01 -2.66525100325100830e+01 3.57634800519868623e+00
1 3.64623918874786739e+01 -4.85260013116229629e+01 2.52189319925830313e+00
1 7.63328442247554140e+00 -6.19991043328459384e+01 -1.14265987313602679e+02
1 -3.89100947308033653e+01 1.34406251564747947e+01 -6.97324685352777607e+01
8
Step 420
1 3.78675921785474845e+00 7.26221097901604224e+01 6.23993554675659041e+01
1 1.89365330801437324e+01 -5.16612845245193455e+01 -7.47575395396184206e+01
1 2.43057745622140509e+01 -3.49761288623942406e+01 1.65515507491432210e+01
1 5.43934853468706550e+01 -7.00775907899989221e+01 8.89754031669552177e+01
1 -1.06966928876944021e+01 -3.95206663509689022e+01 5.43636070843835206e+00
1 4.03814899054104046e+01 -4.93944241319408448e+01 1.27677801075932713e+01
1 1.70518586843964108e+01 -6.51350841884609792e+01 -1.08475078526301218e+02
1 -4.16634208228378142e+01 1.68237288512532608e+01 -6.27185418359339906e+01
8
Step 430
1 9.41003471983648154e+00 6.45042690520324129e+01 6.41430441119270540e+01
1 1.39584695939767354e+01 -4.65826894509114453e+01 -7.10896468039948672e+01
1 2.66906929703852427e+01 -5.11781381536825393e+01 1.11462537165832529e+01
1 4.30086805121075457e+01 -6.33627184965150079e+01 7.56740664410860830e+01
1 -4.83294850141271271e-01 -5.15457529309017843e+01 6.79177521828243425e+00
1 4.37486321006652901e+01 -4.92515333730635589e+01 2.27305288838021227e+01
1 2.65307703504387398e+01 -6.77330766935839392e+01 -1.02155506206361167e+02
1 -4.37549016369378663e+01 1.99972152840110340e+01 -5.53157868134808695e+01
8
Step 440
1 1.48543340873442293e+01 5.61176762377272169e+01 6.54132305754120864e+01
1 8.64021378187725908e+00 -4.11872406530095674e+01 -6.73326250382496312e+01
1 2.85996284379869046e+01 -6.62265247216194552e+01 5.46108649782308575e+00
1 3.13618765475967578e+01 -5.60193087672026948e+01 6.25288696344454351e+01
1 9.43838903478889257e+00 -6.25830406347745978e+01 7.57959010954876256e+00
1 4.65346641623562647e+01 -4.81186437498952344e+01 3.22856935612704490e+01
1 3.59310139543019318e+01 -6.97612031515941879e+01 -9.53908627672979463e+01
1 -4.51958895133674901e+01 2.28644346653526682e+01 -4.76218329998456795e+01
8
Step 450
1 2.00346483291754964e+01 4.75561613609844898e+01 6.61597603473033189e+01
1 3.04176378631528843e+00 -3.55453973894074409e+01 -6.35494834081641642e+01
1 2.99551733728422249e+01 -7.99591134069328859e+01 -3.90462552792975814e-01
1 1.95820433436388193e+01 -4.81427016526944698e+01 4.97021943706217684e+01
1 1.89866864971174714e+01 -7.25055370158578540e+01 7.74937224296883898e+00
1 4.87182855683859941e+01 -4.60308431768290518e+01 4.13177148435636283e+01
1 4.51169035211137128e+01 -7.11973863996106928e+01 -8.82658488521030620e+01
1 -4.60062040844090561e+01 2.53339496475227257e+01 -3.97360557229893985e+01
8
Step 460
1 2.48722708701460782e+01 3.89129989443670254e+01 6.63397541261256407e+01
1 -2.77254727502285192e+00 -2.97300864406885026e+01 -5.98011415275594658e+01
1 3.06890855153647593e+01 -9.22344004761381484e+01 -6.29353523124613901e+00
1 7.79819785877894311e+00 -3.98334972526610045e+01 3.73454580706425006e+01
1 2.80864186189540668e+01 -8.12056441312673485e+01 7.26410892824471244e+00
1 5.02863370095043294e+01 -4.30364558745656254e+01 4.97214757122834143e+01
1 5.39579762615472234e+01 -7.20294672255068633e+01 -8.08649200443865084e+01
1 -4.62137603109925692e+01 2.73212356513529357e+01 -3.17581044348096455e+01
8
Step 470
1 2.92959165465226476e+01 3.02796807451903405e+01 6.59181915831256759e+01
1 -8.73470412847304267e+00 -2.38157114772231964e+01 -5.61456072322357755e+01
1 3.07434138952231031e+01 -1.02933270978527688e+02 -1.21336392937808419e+01
1 -3.86229144839763716e+00 -3.11961985067994227e+01 2.55968556394648985e+01
1 3.66694708720088016e+01 -8.85963913007694686e+01 6.10076459107182689e+00
1 5.12339232904954898e+01 -3.91962821321851678e+01 5.74035886128349517e+01
1 6.23307031857810756e+01 -7.22550954805728907e+01 -7.32709985009088882e+01
1 -4.58540605395967162e+01 2.87502022099624774e+01 -2.37864790795679575e+01
8
Step 480
1 3.32426550517810142e+01 2.17447797992143350e+01 6.48683472436248962e+01
1 -1.47737515292181421e+01 -1.78771741840950575e+01 -5.26372227572042704e+01
1 3.00714423473055952e+01 -1.11960254832599944e+02 -1.77983472062882733e+01
1 -1.52752922730683522e+01 -2.23378608896715782e+01 1.45794729274697517e+01
1 4.46752240301120196e+01 -9.46122424177089272e+01 4.25055679303761380e+00
1 5.15643828381033273e+01 -3.45826506749547278e+01 6.42834046035740982e+01
1 7.01199831568946479e+01 -7.18814103208119377e+01 -6.55642884293755230e+01