8
Step 0
1  2.086108577697e+01   4.693432203065e+01  -2.284201364120e+01 
1  9.091580979047e+00   6.922598102697e+01   4.061902542366e+01 
1 -3.244458265140e+01   6.111061475566e+01   4.971198066405e+00 
1  1.212382219856e+01  -1.902742052781e+01   7.102886472015e+00 
1 -5.665730473373e+01   6.058214040052e+01   2.055098169242e+01 
1 -6.201009357882e+01   6.982676963481e+01  -4.984931700386e+01 
1 -3.197718126494e+01  -5.533441737496e+00   2.967724491637e+01 
1 -8.215372080555e-01   3.172605093898e+01   4.379452421306e+00 
8
Step 1000
1 -6.014243589021e+01   6.202108230230e+01   1.058246469015e+01 
1  8.545368258873e+00   3.720769924661e+01  -1.092773616421e+02 
1 -4.765054232232e+01   2.039898270510e+01   2.183405567109e+01 
1  3.881560523675e+01   5.612129583703e+01   7.286085548758e+01 
1 -4.860123120556e+01   5.723663234640e+00  -4.306754923875e+01 
1 -2.756994743772e+01   2.589089109656e+01  -5.663512913506e-01 
1 -3.181100112094e+01   2.130979635077e+01  -6.046458757346e+01 
1  2.029781201377e+01  -3.179794710040e+01  -3.681999797232e+01 
8
Step 2000
1 -3.934216554711e+01  -3.836987977330e+01  -3.367769587833e+00 
1 -5.455164947710e+00   2.918217578895e+00   4.271763147903e+01 
1 -2.720449380817e+01   6.613808435127e+01  -4.029221617938e+01 
1 -5.491624299283e+01   4.855416805460e+01   3.815451227667e+00 
1 -5.700979486465e+00   8.514642613253e+01   2.031154836594e+01 
1  2.928117764941e+00  -3.006059257476e+01   1.354040788321e+01 
1 -3.720679924591e+00   2.108196969981e+01   2.856909528937e+01 
1 -3.236158728033e+01  -7.153970665024e+01   4.157869656842e+00 
8
Step 3000
1  1.341461578511e+01   1.962807276418e+01  -1.516964038112e+01 
1 -4.980016105793e+01  -6.047274940608e+01   4.840746241348e+01 
1 -2.439519002283e+01   4.677001827499e+01   2.138833636375e+01 
1 -3.319780137990e+01  -1.513316039250e+00   5.521139637969e+01 
1  1.021177116962e+02   1.295596229436e+01  -7.770568205921e+01 
1 -4.036339341147e+01   7.417864273631e+01  -4.216027880215e+01 
1  9.703495443382e+00  -2.664031290484e+01  -5.056169381425e+01 
1  8.684902348295e+01   3.398236136857e+01   5.847698952218e-01 
8
Step 4000
1 -9.665019568342e+00  -9.551593149712e+00   8.217902499174e+00 
1 -8.789173212252e+00   2.602783096549e+01   1.977194066624e+01 
1 -5.702528183258e+01   1.440134816970e+01  -1.333121417441e+01 
1 -3.696211626098e+01  -9.492421601147e+00   4.150306194581e+01 
1 -2.441170638022e+01   6.601338001680e+01  -4.691092707631e+01 
1  2.165171122378e+01   2.021468170964e+01   3.281208125728e+01 
1 -5.126658767513e+01   7.437756660938e+01   2.642201742456e+01 
1 -2.682123939019e+00  -3.420513583777e+01   6.700194381520e+01 
8
Step 5000
1 -6.730959151638e+01   1.042887045418e+02  -5.719737920120e+01 
1 -5.087631230421e+01  -1.772942540097e+01   3.932427451124e+01 
1  5.806234958229e+01  -2.823887700173e+01   8.482048667217e+01 
1  6.621242177038e+00   3.586802548851e+01  -3.645704331682e+01 
1  8.789925420337e+01  -2.769518500426e+01   1.375737158034e+01 
1 -3.517201275227e+01   5.301584270457e+01  -4.533798580996e+00 
1  1.937118122414e+01   2.045542547678e+01  -2.433154379094e+01 
1 -5.835531775213e+01   3.514312876348e+01  -1.213903099222e+01 
8
Step 6000
1 -4.966512542680e+01   2.549184560125e+01   6.129195146471e+01 
1  1.119064748708e+01  -4.103992166985e-01  -4.495963773466e+01 
1 -6.364312842326e+01   5.353315530362e+00  -8.178209345728e+00 
1  5.093017414540e+01   9.373944878897e+01   1.070440357973e+02 
1 -7.236003098366e+00   2.381094508198e+01   1.096728347565e+00 
1  4.210166570529e+01   4.642834938330e+01   1.765300209175e+01 
1 -1.208501407808e+01  -6.114592159976e+01   1.194059436616e+01 
1 -2.728743347881e+01  -1.317647741077e+00   4.542428403946e+01 
8
Step 7000
1 -2.373596016732e+01  -8.088946814276e+01  -7.992922443392e+01 
1 -4.410820160512e+01  -1.389461984501e+01   1.278565912309e+02 
1  1.885902110825e+01  -3.516632877618e+01  -2.282972025545e+01 
1 -4.917349635820e+01  -6.355448036120e+01  -5.156474836342e+01 
1 -1.896706978597e+01  -9.657652302289e-02  -2.207594971568e+01 
1 -1.398787655041e+01  -2.387331918674e+01   2.293350849103e+01 
1  2.618773644699e+01   4.193867010384e+01   1.135166529157e+01 
1  1.041045930876e+02  -4.225989044110e+01   4.557706189550e+01 
8
Step 8000
1 -1.633595067274e+01   9.875888516739e+00   1.112604431337e+02 
1 -2.333675833140e+00  -5.927827158888e+01  -1.168830262610e+01 
1  2.259120032237e+01   7.874328750477e-01   3.989504925196e+01 
1 -1.342394096338e+01   3.448265449695e+01   3.712465419663e+01 
1  5.053911245982e+01   5.501242246045e+01  -3.034059677986e+01 
1  3.180439366665e+01  -1.366040939509e+01   2.194370902233e-03 
1  4.590911141607e+01   1.710131582756e+01   5.314411636389e+01 
1 -2.454912476007e+01   6.992313683870e+01   3.201920207589e+01 
8
Step 9000
1  7.204665859365e+00  -3.307256295513e+01  -4.397239528102e+01 
1 -1.527414410986e+01   6.532742274543e+01   4.292065898903e+01 
1  1.109876830972e+01   2.876808126437e+01   2.044766417481e+01 
1  3.121077917295e+01  -1.153003586543e+02   6.091259365961e+01 
1 -1.502810590850e+00   4.797675351859e+01   2.486398867955e+01 
1 -8.142665449445e+00  -4.637925885430e+00   4.314699808292e+01 
1 -7.737656976167e+01   4.526779281712e+01  -2.860520008549e+01 
1  6.824203938796e+01  -7.842925677689e+01  -2.976140386589e+01 
8
Step 10000
1 -8.985543043852e+01   1.414969072096e+01   7.830347229403e+01 
1  1.940323441085e+00  -2.277408160234e+01  -2.203631145131e+01 
1 -4.400231568459e+00   9.997778680752e+00   8.151903267887e+00 
1  5.544407299137e+01   1.646203090150e+01  -2.529101637801e+01 
1  2.024088267707e+01   3.059307028252e+01   6.212168080718e+01 
1  5.545213146116e+00  -3.771449211294e+01   6.733313114678e+00 
1 -5.368956086358e+00   1.799963885438e+01   2.964326076047e+01 
1 -8.623216684652e+00  -1.744971532781e+01   5.993636723418e+01 
8
Step 11000
1  6.449844709103e+01  -9.073361364052e+01  -4.123574362184e+01 
1 -1.978441277987e+01   4.225629094645e+00   4.841554589596e+01 
1  1.891943639015e+01  -2.215806598717e+00   7.168633266816e+01 
1 -7.943193532900e+00   2.568888615950e+00  -1.133196683911e+01 
1 -5.149117197404e+01  -5.613708165550e+01   1.045397099403e+01 
1  5.885040880576e+01  -3.385440448736e+01  -5.486759073021e+00 
1  3.860137535352e+01  -4.692879111778e+01   2.642118538003e+01 
1  5.421243664200e+01  -2.537359137748e+01   3.003801414816e+00 
8
Step 12000
1 -8.835678984840e-01  -4.411778148262e+01   7.254152789426e+01 
1  3.411551289000e+01  -6.445624360565e+01  -3.321889959977e+01 
1  2.477990770024e+01  -3.088067588016e+01  -1.472711424940e+01 
1 -1.264760729629e+01   3.450363476558e+01  -1.990901733829e+01 
1  4.731251226249e-01   3.510527262074e+01   6.373747308667e+01 
1 -3.500780125256e+00  -1.890145326984e+01   7.504973391016e+01 
1  5.844273746823e+01  -4.653080170091e+01  -5.398714723350e+01 
1  2.751321613647e+01  -4.082983216696e+00   7.485489865793e+01 
8
Step 13000
1  4.171653985598e+01  -8.131521914724e+01   5.550695200373e+01 
1  4.962331393254e+01   2.397877321722e+01   3.668026017278e+01 
1  2.994479309632e+01  -1.704844966907e+01  -2.731925976796e+01 
1 -3.160584963654e+01  -1.377084654032e+01  -3.631644256582e+01 
1  5.303760924448e+01  -7.116682246570e+01   3.653257385277e+01 
1 -1.917764575063e+01   1.789902300882e+01  -6.678952060723e+01 
1 -4.256933088406e+01  -9.905464390328e+01   6.036509000581e+01 
1 -1.155577115451e+01   1.526309202920e+01   2.571594914797e+01 
8
Step 14000
1  9.743030002545e+01   1.764112420061e+01  -2.709191411160e+00 
1 -5.153151909446e+01   4.102850513739e+01   5.970809950144e+01 
1  9.797129049490e+01   2.407598032985e+01   3.869847591277e+01 
1  1.565140903258e+01   2.665527421045e+01   2.472567562764e+01 
1  6.582823164978e+01  -1.821534742062e+01   1.926511322079e+01 
1 -8.072641556878e+01   1.822339406068e+01   4.576151944010e+01 
1 -4.679560866760e+00   1.231666914859e+01  -6.441901696585e+01 
1  9.244621228831e+00  -2.614488763943e+01   6.124081412949e-01 
8
Step 15000
1 -3.485482605337e+01  -1.823806807435e+01   3.506749531573e+01 
1  3.791054019360e+01  -2.887236509863e+01  -1.129494628022e+02 
1  3.941075891314e+01  -7.080644866136e+01   1.016657773555e+01 
1 -7.987057432068e+01  -5.778455013638e+01  -4.090073380771e+01 
1  3.663747443386e+00  -2.715908787053e+01  -3.020872391349e+00 
1  2.942345605049e+01  -1.161667453444e+02   3.546713630726e+01 
1  2.264253091502e+01  -6.072743184794e+01   6.446869138121e+01 
1 -1.715287829629e+01  -2.518605742867e+01   3.802426649968e+01 
8
Step 16000
1  5.154125787645e+01  -6.541630172868e+01  -2.204713092890e+01 
1 -2.868658551043e+01   1.362100564652e+01   9.132574715766e+01 
1  7.269505359711e+01  -4.526458866959e+01  -6.403199804507e+01 
1  3.463764137794e+01  -1.355132676573e+01  -2.589951945365e+01 
1 -4.469164887598e+01   2.149214619971e+00   1.077745330781e+01 
1  6.861100177612e+01   1.533369877648e+01  -2.105820344515e+01 
1 -4.374139160920e+01   3.161504460811e+01  -5.495447358305e-01 
1  1.109842473567e+02  -7.364869757917e+01   5.741466894826e+01 
8
Step 17000
1  3.272191483736e+01   1.953636868054e+01   5.602716338614e+01 
1  1.306334992832e+02  -9.000005500103e+01  -3.693565068050e+01 
1 -1.430140138651e+01   1.437488099405e+01   1.680863721567e+01 
1  1.239987812768e+01   2.271617433728e+01  -4.576238158214e+01 
1  4.836644926711e+01  -5.844707122472e+01   2.716218239212e+01 
1 -7.853814719097e+00  -1.088204792283e+02   3.794648731562e+01 
1 -1.487104081893e+01  -1.285155030899e+01  -5.403689651111e+01 
1 -7.824907891198e+01  -2.245081104253e+01   1.229297448592e+01 
8
Step 18000
1  1.031083856995e+01   3.770875021297e+01  -2.692823625111e+01 
1 -1.334361004020e+01   6.245423021641e+01   6.116734144812e+01 
1  1.352006689061e+02  -5.124721027168e+01  -6.290293012227e+00 
1  1.201853211927e+01   5.824066835209e+00  -8.860050427809e+01 
1 -5.433933746685e+01  -3.818056851109e+01   1.143813208056e+01 
1  5.383368479513e+01  -4.352088622514e+01  -1.416974351450e+01 
1 -9.228955840485e+01   3.338547119570e+01   5.073178464056e+01 
1 -1.290301585872e+01   8.146535832952e+00  -5.790762373978e+01 
8
Step 19000
1 -7.412136813081e+00   1.103923694973e+01   5.452970378334e+01 
1  6.596076548422e+01   5.226439402300e+01  -5.361948602339e+01 
1 -9.369226575788e+01  -8.612455452590e+00  -3.550734375919e+01 
1  1.270161751139e+01  -7.696630585397e+01   2.092090441543e+01 
1  4.970993693088e+01  -3.216791497290e+01   2.819576686275e+01 
1 -1.745614769459e+01   6.331990885992e+00  -2.400389274551e+01 
1 -1.750565198319e+01  -7.387437836563e+01  -4.863663260803e+01 
1  2.235841615721e+01  -3.002781219050e+01   2.193576348124e+01 
8
Step 20000
1  3.108563821881e+01  -2.271751773897e+00  -6.795849016963e+01 
1 -2.456008094170e+01   8.076916681390e+00  -5.163298417770e+01 
1  8.573566667058e+01   3.163738753698e+00   3.905662408275e+01 
1 -2.101353396796e+01  -4.631223068850e+01  -9.501877453409e+01 
1  1.759001612922e+00  -5.030555339146e+01   1.414334059167e+01 
1 -1.219881372666e+01  -3.169569120858e+01  -2.791471999933e+01 
1  4.458973542446e+01   4.743116130690e+01   6.630610585697e+01 
1  2.939980140067e+01  -9.274879141137e+00  -2.485257369259e+01 
8
Step 21000
1 -2.795457272508e+00   6.202630252329e+00  -2.897156059246e+01 
1  2.387253695241e+01  -6.626717459630e+01   1.825635605776e+01 
1  9.702880734031e+00  -5.612932861653e+01  -8.480870353645e+01 
1 -3.255495717913e+01  -3.196078640703e+00  -1.489315712747e+01 
1 -6.506786223446e+00  -2.919201571246e+01   2.039083092891e+01 
1  2.847455120604e+01  -4.857197566849e+01   2.580096479042e+01 
1 -6.184555967760e-01  -5.641759187792e+01  -1.924752353977e+01 
1 -6.191576106021e+01   1.010936341814e+01  -2.515390658396e-01 
8
Step 22000
1  4.574268934887e+01   4.483782093493e+01   2.413470195543e+01 
1  4.942394392058e+01   6.641186551269e+01   3.461060174989e+00 
1  8.676323389721e+01   2.964567693802e+01   5.031454756641e+01 
1 -1.119708081224e+01   4.741104428948e+01  -3.525298773554e+01 
1 -3.848929473462e+01  -2.937509622346e+01  -3.921172228825e+00 
1 -6.501204265424e+01   3.548874664966e+00  -5.965495671851e+01 
1  4.363897818070e+00   2.928720476775e+01  -1.116634366429e+02 
1  4.868517033293e+01   3.821799120399e+01  -4.523575431553e+01 
8
Step 23000
1  3.117471565494e+01   8.795561672629e+01  -3.680519443532e+01 
1 -5.741671230011e+01   2.005820481066e+01  -5.736080751182e+01 
1 -4.479142283983e+01  -7.826569300808e+01  -6.278065748721e+01 
1 -6.068520600903e+01   1.916966793708e+01  -4.306974023105e+01 
1 -2.982044203930e+00  -3.353266259359e+01   1.230352984462e+02 
1  2.990183992424e+01   3.082112895083e+01   2.185409936951e+01 
1 -1.601054865980e+01   7.044769993292e+00  -5.775762043119e+01 
1 -5.899389841585e+01  -5.787059281422e+01   1.903343757109e+01 
8
Step 24000
1 -1.080566715626e+02   2.530184095920e+01  -3.930119225563e+01 
1  3.781056813846e+01  -3.219004317242e+01  -8.539459512557e+01 
1  3.707230369926e+01   4.739254938672e+01   1.792780304731e+01 
1  5.113049263787e+01   2.139060241915e+01  -2.326036080891e+01 
1 -2.112482226696e+01  -4.691410664977e+01  -6.193077985290e+01 
1 -1.912370761092e+01   3.064818882280e+01   8.307721487533e+00 
1  1.913570287045e+01  -8.284829569798e+00  -3.549676457870e+01 
1  6.736486782872e+00   1.571973420796e+01  -1.887271829384e+01 
8
Step 25000
1  5.673928502718e+01  -4.417126199161e+01  -6.172982602942e+00 
1 -3.882930066724e+01   6.217640450349e+01  -4.643634629102e+01 
1 -1.400302436075e+01  -5.279703464297e+01   5.221711885933e+01 
1 -5.252662221000e+01   2.677207027216e+01  -6.941858557218e+01 
1  7.806019378978e+00   9.610815894896e-01   9.830934618545e+01 
1  3.006475534354e+01   2.814086506951e+01   1.751689629115e+01 
1  4.776871593767e+00   4.402043629935e+01  -4.120043066598e+01 
1 -1.843117736710e+01  -4.958768414647e+01  -6.727543799242e+01 
8
Step 26000
1  7.973022494310e-01   4.241692269108e+01  -4.891271168070e+00 
1  9.239111150361e+01  -1.850158478876e+01  -3.873918660509e+01 
1 -1.222580622378e+01   5.122381627268e+01  -3.396488097401e+01 
1 -1.140403366199e+01   2.213908437927e+01   8.859714641245e+00 
1 -3.733706335884e+01   3.117067406415e+01   1.390763425460e+01 
1 -5.960367803831e+01   5.445293762349e+01  -8.456283327717e+01 
1 -4.127708412339e+00  -1.885131083352e+01  -4.995111755301e+01 
1 -1.974004907048e+01  -1.913625981456e+01  -3.916572492878e+01 
8
Step 27000
1 -1.714771985959e+01   5.651167421140e+01   5.683676094908e+00 
1 -5.917318491757e+01   2.429270057998e+01  -6.040889029598e+00 
1 -1.676859704729e+01   8.808758325110e+00   5.156750937612e+01 
1 -6.699510996620e+01   2.834127028814e+01  -2.877317116712e+01 
1 -4.602136372292e+01   2.458606030429e+01   1.236366495690e+01 
1  6.485511073065e+01  -1.836513034848e+01   2.799794872634e+01 
1 -5.267965026655e+01   1.030215840618e+02   4.912003360832e+00 
1  7.079774208251e+00   2.584014695516e+01  -9.431112134276e+01 
8
Step 28000
1 -1.312718983078e+01   3.294067170938e+01  -1.894035618202e+01 
1 -1.530907491076e+01   2.533347012748e+01  -6.575929400967e+01 
1 -2.689427703834e+01   2.842938546057e+01  -1.676659474624e+01 
1  1.123372774972e+02   2.747302273333e+01  -1.308235179160e+01 
1  2.915287188237e+01   1.951164714410e+01   4.879465961223e+01 
1 -1.330657715657e+01  -4.263088926901e+01  -5.199237305197e+00 
1 -8.072256231110e+00   5.254244359271e+01  -6.843227332771e+01 
1 -1.020339125976e+02   7.845792823866e+01  -4.457928532967e+01 
8
Step 29000
1 -4.364753879274e+01   3.633262771178e+01  -6.128358130290e+01 
1 -7.648533155039e+01  -7.598971632181e+01  -5.192140612710e+00 
1 -6.322140582625e+01   2.987327328233e+01  -2.334755345630e+01 
1  6.826633512062e-01  -4.514756190141e+01  -1.632602274365e+00 
1 -4.155465085988e+00   3.009677193382e+00   2.884160014721e+01 
1  1.851689673165e+01   2.881310424826e+01   2.022112432220e+00 
1 -2.321832237046e+01   1.892908430049e+01   5.489622271118e+01 
1  3.129914641442e-01   1.340034370002e+01   8.113161539744e+00 
8
Step 30000
1  5.756927323562e+01  -5.752992809611e+01   5.890513282190e+01 
1  7.247992501377e+01   3.969620019070e+01  -1.357524194302e+01 
1 -5.229846283873e+01  -4.360343852372e+01   3.416180893345e+01 
1 -7.098123755226e+00   1.204133243719e+02  -9.236201523470e+00 
1 -8.289507717850e-01   5.897002654664e+01  -2.722544240917e+00 
1  2.304680807519e+01   5.839530499579e+01  -4.799897895605e+01 
1  1.473788395129e+00   1.246109530141e+00  -9.158932072287e+01 
1 -5.626544497531e+01   6.071023771952e+00  -4.275926592765e+01 
8
Step 31000
1 -6.211987069137e+01   7.671170091432e+01  -2.974165195452e+01 
1  2.892033864418e+01  -7.081232357499e+01   1.997973682244e+01 
1 -3.879160063612e+01   8.680421840027e+01   5.079356735966e+01 
1 -5.690910621896e+01  -1.160241491595e+01  -4.628961705775e+01 
1  1.114757661850e+01  -1.413079746201e+01   2.988339776273e+01 
1 -1.624058169018e+01   6.053954618448e+01   3.283734541731e+01 
1  1.305148395550e+00   7.240062270203e+01   1.572220815710e+01 
1 -3.289906599682e+01   9.961630062883e+01   2.139306823305e+01 
8
Step 32000
1  3.345453547583e+01  -2.251384165189e+01   5.144615852164e+01 
1 -1.260105837774e+02   4.356977430312e+01  -1.072788455412e+01 
1  3.801559879648e+01  -6.721580616169e+01  -3.532927973290e+01 
1  7.924437831324e+00   7.834980914043e+01  -7.450492905468e-01 
1  1.819259683201e+01  -6.620944059714e+00   5.216250644808e+01 
1  7.945232139101e+00   1.857127562910e+01  -3.944021062981e+01 
1 -4.191172764866e+01   2.797744968916e+01   1.623443734486e+01 
1 -8.651624988853e+01   4.887144667530e+01  -1.036513223253e+02 
8
Step 33000
1 -8.673319074916e+01   8.032636639432e+01  -1.604435113210e+00 
1  3.543282339930e+01  -1.892762949514e+00   1.457305318677e+01 
1 -7.173030297082e+01   1.468628573743e+00   2.788916436993e+01 
1  8.806637188479e+00   2.689576072221e+01   2.433742971489e+01 
1  1.591773456048e+01  -5.566211352113e+01  -2.095137110260e+01 
1 -5.070483473558e+01   4.698832069062e+01   1.238179323334e+01 
1  4.002524429648e+01   5.016032500448e+01  -2.163150291570e+01 
1  6.880114109843e+01   2.462669466481e+01   1.196622471914e+02 
8
Step 34000
1  8.631911204555e+01  -1.436106617538e+01   3.804386652272e+01 
1 -2.656592945654e+01  -6.966134367889e+01  -5.026828444903e+01 
1  8.364229632908e+00  -5.635355841776e+00  -9.653754932905e+00 
1 -3.642479217468e+01   9.739532580787e+00   2.042652561411e+01 
1 -7.137726592239e+01   5.775826053086e+01  -1.417532626291e+01 
1  8.652456428740e+01  -7.378266592889e+01   2.127075894387e+01 
1 -4.319500507242e+01   5.164797618154e+01   7.134944905473e+01 
1 -1.465728420536e+01  -3.784038833531e+01  -7.330919133718e+01 
8
Step 35000
1 -8.332794265571e+00   3.722591432151e+00   5.306334410756e+01 
1 -9.689388169547e+00   1.091270093039e+01   3.825920242154e+01 
1 -1.144525483522e+02   2.707788589743e+01   3.168303645268e+01 
1  4.024560263306e+01  -6.230090534041e+00   3.012574804219e+01 
1 -3.510527120845e+01   2.386423453091e+01  -3.594735431208e+00 
1 -5.212311537850e+01   3.854801276980e+00   1.168352847171e+01 
1  5.677079039032e+01   8.227325206522e+01   4.210840120494e+00 
1  5.100928272789e+01   2.847319277003e+01   2.956999719022e+01 
8
Step 36000
1  2.159610915862e-01   1.139722886422e+01   3.990189122263e+01 
1  7.234635880597e+00  -3.994923554489e+01   1.182274224863e+01 
1  3.310103004782e+00   4.228986458996e+01   1.127205548577e+01 
1  3.246534131564e+01  -3.974965107008e+01  -4.630860249535e+00 
1  5.917581602574e+00   9.635134655157e+01   6.670353110931e+01 
1  3.662203071073e+01   7.662246004011e+00   4.152534304284e+00 
1 -6.244097861409e+01   7.337276113632e+01  -6.793899313019e+01 
1 -2.080794209839e+01  -4.842622514699e+01   2.250817430680e+01 
8
Step 37000
1 -7.211396639950e+01   7.813205574877e+00   6.437554596659e+01 
1 -2.481663983225e+01   1.000832263515e+02  -6.659211316781e+01 
1 -5.337751266231e+00  -2.819326407367e+01   3.955487574541e+01 
1  1.048154278339e-01  -8.449389869481e-01  -3.506310893873e+00 
1 -5.934163237953e+01  -7.913493033525e+01  -4.435627334597e+01 
1  8.829463131795e+00  -6.129500479675e+00   5.598309735711e+01 
1  6.316091470242e+01  -3.461233188011e+01   1.646938625561e+02 
1  9.135521023375e+00   4.531500511240e+01  -1.667016443651e+01 
8
Step 38000
1  2.772071505589e+01   7.005165043930e+00  -1.943855819998e+01 
1  1.207667212534e+01  -6.879471472037e+01   3.335792236443e+01 
1 -4.994825396545e+01   3.017962073226e+01   6.785481542279e+01 
1  1.517856097938e+01  -1.390208579691e+01   2.635472989004e+00 
1  4.900397357533e+01  -1.682498850447e+02   7.528935868803e+01 
1 -2.921165631566e+01  -3.125028823098e+01  -3.185876458906e+01 
1  4.350942336581e+01  -2.193933536852e+01  -8.360077423724e+01 
1  5.662053619882e+00   1.936105375080e+01   5.527727446910e+01 
8
Step 39000
1  5.830580544260e+01  -2.281933644805e+01   4.126067283729e+01 
1 -4.970977772165e+01   5.457155192886e+01  -1.524761397178e+01 
1  3.593479272589e+01  -7.134614117871e+01   1.173765577633e+01 
1 -4.332752937238e-01   6.525807748507e+01   4.487852420697e+01 
1  3.947553507731e+01   7.523404669304e+01   2.146458933812e+01 
1  2.792107842228e+01  -1.504388630342e+01   1.535073842318e+01 
1 -2.402250087283e+01  -4.470637291935e+01   8.981947319409e+01 
1  4.395158984797e+01   1.522175675934e+01   2.815458774039e+00 
8
Step 40000
1 -8.981748813849e+01  -3.486752112410e+01   1.554627177481e+01 
1  6.658525197294e+01  -1.356104790123e+02   5.259725148769e+00 
1 -7.546736632412e+01   1.648259749270e+01   3.320943447551e+01 
1 -3.064413662680e+00   2.019843146470e+01   3.277928919390e+01 
1  5.053737604021e+01  -3.068984147629e+01  -8.062287889902e+01 
1 -1.545583002095e+01   5.330557969288e+01   1.712190323444e+01 
1  6.000528424974e+01  -6.537110439123e+01   6.559223445464e+01 
1 -4.819650085511e+01  -2.081343675302e+01   1.243505594454e+01 
8
Step 41000
1  3.447722170347e+01   7.947580693700e+01   3.593963070790e+00 
1 -4.889814042625e+01   5.793745513998e+01   7.401616214199e+01 
1 -2.835843684137e+01  -4.318549711856e+00   4.143671745675e+01 
1  4.573686904457e+01  -4.374469044683e+01  -3.573132415821e+00 
1  1.785365534399e+00   5.776141776941e+01   2.359077929196e+01 
1  7.399016699854e+01  -1.076691914581e+02  -2.134834025160e+01 
1 -2.454769171299e+00   4.362968639846e+01  -4.116862381179e+00 
1  2.438483360544e+01  -2.267873093711e+01   4.827531462891e+01 
8
Step 42000
1 -4.409035519916e+01  -7.973998235612e+01   3.009134995133e+01 
1  5.667055688112e+01  -2.953648352063e+01  -3.883346483848e+01 
1  4.226723862803e+00  -5.098248860077e+01  -9.884734022119e+01 
1 -4.759644924028e+00  -5.518964862471e+01   7.321822288567e+01 
1  2.544327202261e+01  -1.382699562915e+00  -4.525101251555e+01 
1  7.302191338466e+00   8.309679579814e+00   1.973078929150e+01 
1  1.313865332179e+01  -6.144544917660e+01   8.782776093011e+01 
1  1.727238799760e+01  -1.011469249558e+02   5.764161277585e+01 
8
Step 43000
1  3.387632436664e+01   9.874759934140e+00   6.514503655435e-01 
1 -7.112032482437e+01  -1.518244482189e+01   1.672107835356e+01 
1  1.288562923059e+01  -1.733836561967e+01   5.490780265259e+01 
1  9.380079897516e+01  -5.402409054915e+01  -2.970639339524e+01 
1  1.096928905347e+01  -1.438484594911e+01   3.764941463734e+01 
1  7.120058497849e+00  -5.461737064957e+01  -4.893766107734e+01 
1  1.087300518515e+01   9.522243494404e+00   4.065105001578e+00 
1  3.560506504855e+01  -4.377415716962e+01   3.882865951832e+01 
8
Step 44000
1  4.335875216360e+01  -4.528961558590e+01   5.619117856030e+01 
1  2.079135091850e+01  -7.577990557080e+01  -3.150469939997e+01 
1  1.652130200776e+01  -3.073572273396e+01   4.695351474622e+01 
1 -1.518240323043e+00   1.296967829300e+01   1.171390537630e+01 
1 -1.920329287886e+01   1.499774066317e+01  -5.662871342613e+01 
1  5.113567099474e+01  -1.506985724750e+01  -3.077914426922e+01 
1  1.277400650353e+01   1.783758388376e+01   8.197488800167e+01 
1 -1.606688881905e+01  -4.497589975533e+01  -3.352583039395e+00 
8
Step 45000
1 -7.002863000208e+01   5.047610180353e+01  -1.439783096065e+01 
1  3.524760435645e+01  -1.438795459146e+01   2.232252226345e+01 
1  4.506039508330e+00  -1.664642126124e+00  -2.904904348321e+01 
1  2.544658036203e+01   3.759789924129e+01  -4.938891168902e+01 
1  1.443814415128e+01  -1.920725078017e+01  -2.047294364265e+01 
1 -5.101590927521e+00   1.012632534289e+01  -4.187913250548e+01 
1 -4.016962374698e+00  -7.618872971868e+01   6.083829426252e+01 
1  6.839743769714e+01   1.393196530157e+01   6.795078266876e+01 
8
Step 46000
1  1.449261914163e+01  -6.268621067933e+01   5.493801889189e+01 
1 -6.112883455433e+01   3.031639202330e+01  -3.409225510312e+01 
1 -1.291549724641e+01  -9.996913617908e+01   2.124922887584e+01 
1  5.559732241426e+01  -1.241500822892e+02  -1.518984652460e+01 
1 -7.418226454844e+01  -3.474856021303e+01  -5.352530009820e+01 
1  1.779315419708e+01  -4.080760587213e+01   2.058857210287e+01 
1  4.874452752515e+01   2.227828729788e+01   8.437721589768e+01 
1  3.166798299816e+00  -3.822263097174e+01  -8.344121690175e+01 
8
Step 47000
1  9.774844291602e+01   4.979253125415e+01  -5.385012203731e+01 
1  2.392316696834e+01  -4.617883358321e+01   6.105235069666e+01 
1  6.494108338992e+01   3.887729475153e+01  -4.465901917212e+01 
1  2.726200547795e+01  -4.065576092263e+01   2.603534069051e+01 
1  9.020397993499e+01  -3.916590962804e+01  -1.418022616034e+01 
1 -8.581405403227e+00   9.399636639183e+00   9.421552848626e+00 
1 -6.532301644305e+00  -3.295522217581e+01  -8.992925286575e+00 
1 -3.776592704497e+01  -1.521464932485e+01  -5.172145260280e+01 
8
Step 48000
1 -1.922637616353e+01  -1.276040759002e+02  -1.027946760220e+01 
1 -1.653655930426e+01   3.752632343717e+01  -3.032958868225e+00 
1  4.159165969618e+01  -9.525279229735e+01  -3.103593921823e+01 
1  1.108756475702e+01   2.987392071993e+00  -6.218196420849e+01 
1 -5.140248985092e+01  -4.224868814651e+01  -1.612880860345e+01 
1 -6.240104825793e+01  -8.655642094930e+01   7.454747779117e-01 
1 -9.525188320588e+00   1.070803167945e+01   2.256831609077e+01 
1  8.269527262594e+01   4.060737705188e+01   5.608903062056e+01 
8
Step 49000
1  1.040361650789e+01   5.046468359673e+01   1.309117504935e+01 
1  6.573067593217e+01   4.380006533491e+01   7.091726515813e+00 
1 -2.998039917341e+00   5.457902254891e+01   5.780469624153e+01 
1 -2.705177784932e+01  -4.200156767719e+01   2.189415942506e+01 
1  3.350695478264e+01  -1.062043976491e+01  -8.336395249797e+01 
1 -3.172562886752e+01  -3.660148745547e+00  -6.327274736736e+01 
1  1.017262434337e+02   2.343588983455e+01  -4.506334346381e+01 
1 -6.014958218769e+01   6.777938420555e+00  -6.286885950511e+01 
8
Step 50000
1  3.507586236806e+01   9.215686238745e+00  -4.233094253308e+01 
1 -2.718025091939e+01  -1.830115502575e+01  -9.646850517513e+00 
1  2.596093950227e+01  -9.095362741339e+01   2.110179736110e+01 
1  4.482773678312e+00   6.735123712194e+01  -6.507178339184e+01 
1 -4.555236990803e+01   4.414549213851e+01   3.093680841394e+01 
1 -1.905804473547e+01  -3.984230637513e+01   5.615905812770e+01 
1 -4.133251260069e+01  -2.132920727609e+01  -1.454335530517e+00 
1  3.466797525197e+01  -1.545541754621e+01  -5.252322309953e+01 
8
Step 51000
1 -5.804472465490e+01  -4.908961247871e+01  -3.518260159222e+00 
1  1.260581814229e+02   5.508221505793e+01  -8.789050010982e+01 
1  3.553414399735e+01   4.713771140823e+01   1.939877058591e+01 
1 -3.157123273033e+01  -5.333691128295e+01  -5.675352745970e+00 
1 -1.719237757890e+01  -2.701170056359e+01  -5.182444078185e+01 
1  2.544568497604e+01  -2.913605881671e+00  -3.183729421777e+01 
1  1.290807455313e+01  -1.272354207448e+01  -3.565624240365e+01 
1 -4.374737037267e+01  -6.393764660093e+01  -3.735062053840e+01 
8
Step 52000
1  8.940132734665e+01   5.101624366188e+01  -4.654603013462e+01 
1 -3.394870796750e+01  -3.249226375634e+01   1.074319014521e+02 
1  1.180347491706e+01  -2.993164669372e+01  -6.177183159199e+01 
1  4.009752076868e+01  -4.343666920538e+01   1.722868424504e+01 
1 -1.573925632945e+01   1.734208198692e+01  -3.572444116841e+01 
1 -6.686528266414e+01  -4.178569408514e+01  -8.002211083030e+01 
1 -8.685793875585e+00  -4.286791073046e+00   4.295505746154e+01 
1 -3.621423558219e-01   4.752045367477e+01  -1.054937173486e+01 
8
Step 53000
1  5.729960806982e+01  -5.332886420556e+00  -1.568744171030e+01 
1  6.204560920684e+01   6.456286478889e+01  -5.434430199227e+01 
1 -4.797901083854e+01   8.535331761790e+01  -5.065883541393e+01 
1 -7.401420214961e+00   1.137844861710e+01  -1.526324062756e+00 
1 -7.651573311613e+01   7.173248420054e+01  -4.534484007047e+01 
1  2.568861848354e+01   3.248082280344e+00  -4.412418797224e+01 
1 -4.116023375994e+01   3.033240856409e+01  -8.393536087354e+00 
1  7.273272134441e+01  -5.073206301177e+01  -5.074083427749e+00 
8
Step 54000
1 -3.583526720660e+01  -1.389488949071e+01  -8.257871480814e+01 
1 -3.230431342437e+01   2.488305066585e+00   4.974975533530e+01 
1 -1.198179755810e+01   2.598008705930e+01   2.490875220014e+01 
1 -2.785950405206e+01   2.350899784505e+01   3.426608949850e+01 
1  2.445986590479e+01   4.211451750585e+01   2.600258584202e+01 
1 -5.727776342317e+01   1.059267265967e+01  -8.865001593956e+01 
1 -3.935835225273e+01  -2.251315025876e+01  -5.498454481412e+01 
1 -3.244540221788e+01   1.863342170404e+01   1.681648629637e+01 
8
Step 55000
1  2.495817668185e+01   5.284120394646e+01  -2.784030239621e+00 
1 -4.440194611935e+01   3.117722319440e+01   1.263936652270e+01 
1  1.129237607018e+02  -7.205531704126e+00  -1.767573436632e+01 
1  6.396310295247e+01   3.348903899138e+01  -6.564223935110e+01 
1 -5.919941043566e+01   9.337888753445e+01  -6.208090337915e+01 
1  1.086788658300e+01  -1.705141060868e+01  -3.778686251509e+01 
1 -1.727486109953e+01  -2.624328524231e-01   7.823658898344e+01 
1 -2.597494334137e+01  -3.572613368838e+01  -1.211258482462e+02 
8
Step 56000
1 -2.818652863397e+01   1.119683114673e+01  -4.139662594216e+01 
1  9.650021701704e+00   8.799469866572e+01  -7.716833312945e+01 