8
Step 0
1  2.130326814812e+00   3.841428738278e+01  -3.900125211552e+01 
1  3.567597752465e+00  -3.504277063756e+01   3.861701022475e+01 
1  6.258847992801e+01  -7.076539324116e+01   6.450599359103e+01 
1  5.978855273526e+01  -4.628740992298e+01  -3.331699604665e+01 
1  5.663920321690e+01  -5.214564811192e+01   5.649937483509e+01 
1 -4.885508989697e+01   7.742773658779e+01   3.518899981800e+01 
1  3.981944038262e+01  -7.472662646084e+01  -5.860625198879e+01 
1 -7.332626035848e+01  -1.421247514719e+01  -1.259120980933e+01 
8
Step 1000
1  1.306977660575e+01  -2.070533942379e+01  -1.040595460092e-01 
1  4.207507061769e+01  -2.649971557353e+01  -5.780100820344e+01 
1 -5.975181416915e+01  -7.172015043773e+01  -5.445329953110e+01 
1  4.945995594712e+01   5.034026325282e-01   5.166185819191e+01 
1  5.009678574202e+01  -2.804360047273e+01  -2.719212541594e+01 
1  3.156237948232e+01   3.520902211792e+01   2.625154288841e+01 
1 -6.500037904069e+00  -9.514098684233e+00   5.697225768454e+00 
1 -1.497830661373e+00  -1.316431239505e+01  -7.078745980559e+00 
8
Step 2000
1  8.990327600302e+00  -3.697079165782e+01  -3.823191578761e+01 
1  4.920632849477e+00  -1.938443467275e+01   4.333346197815e+01 
1  2.125851629691e+01   3.097143262049e+01  -9.335730381376e+00 
1  6.469503017603e+00  -8.991094645610e+00  -4.205619461357e+01 
1 -7.916537865924e+00   1.704568099863e+01  -4.303001787735e+01 
1 -3.798334293798e+01  -5.314554655670e+01   4.118686786968e+01 
1  5.236742460092e+01  -2.161026622480e+01   1.055662779993e+01 
1  3.872600271958e+01  -1.016193432209e+01   2.148773615542e+01 
8
Step 3000
1  4.556846837174e+01  -4.412334899292e+01   3.512032575842e+01 
1  1.798955342473e+01   7.861779253391e+00  -5.580638486048e+01 
1 -1.778805981697e+01  -1.455347389602e+01  -2.076455409558e+00 
1  4.925366966924e+01   1.782402546288e+00   1.872261683273e+01 
1  4.622596380661e+01   4.452947747614e+00  -3.183539712567e+01 
1  1.587360355330e+01   4.284747284952e+00   4.255096036095e+00 
1 -3.230709498515e+01   1.802930254622e+01  -1.062977703559e+01 
1  2.832328957396e+01  -4.260419300425e+01  -4.384410093007e+01 
8
Step 4000
1 -1.736886125908e+01   9.359103120367e+00  -6.489631106373e+00 
1  1.913689525944e+01  -6.946376073619e+01  -8.046999936878e+00 
1  1.019756645898e+01   3.696801379356e+01  -2.404100381130e+00 
1  6.651102949754e+00  -4.954999054616e+01  -3.488811274106e+00 
1 -7.290972136817e+00   3.031011450553e+01  -1.537124100993e+01 
1 -1.548616512448e+01  -7.336448707403e+01   2.726463118782e+01 
1 -2.126571640127e+01   2.955084521579e+00  -1.506765400782e+01 
1 -2.260971962556e+01  -2.934544097476e+01  -1.745306586775e+01 
8
Step 5000
1  3.602040139958e+01  -2.743843790923e+00  -3.304387389562e+01 
1  1.148159810840e+01  -1.164898210418e+01  -1.108299231468e+01 
1 -8.885402196174e+00   4.131399053939e+00   2.715577247518e+01 
1  7.711035955293e+01  -7.014123434160e+01  -6.152403611478e+01 
1  1.060578821289e+00   1.923152750137e+01  -8.359550366673e+00 
1 -1.044726300770e+01   1.320975815024e+01  -1.556009276097e+01 
1 -5.860852386489e+01  -8.510651252389e+00   3.898389886126e+00 
1  2.236812641149e+00   7.796485340484e+00  -7.968234586897e+00 
8
Step 6000
1  9.586396090068e+00   2.788637662595e+00   3.257419779874e+01 
1  3.102248169705e+01   8.658452368642e+00  -7.239464383210e+01 
1 -9.058343437288e+00   2.350809345135e+01   1.086616618926e+00 
1  1.264093953481e+01   5.786708703195e+01  -1.190029216651e+01 
1 -3.944381407609e+01  -1.313935220065e+01   1.100350820396e+01 
1 -5.725712890189e+00  -5.708519143375e+00   1.033758529180e+01 
1  1.063611197825e+01   1.656288479094e+00  -1.638846903651e+01 
1  3.178525595119e+01  -4.037760707623e+01  -3.294276222463e-01 
8
Step 7000
1  2.531307035387e+01  -3.403897785083e+01  -3.621945696796e+01 
1  4.068870700937e+01   9.959247942864e+00  -9.363896362221e+00 
1 -2.120744461108e+00   2.393265557959e+01  -2.997997543728e+01 
1  2.312539580245e+01   2.349104109679e+01  -4.923666301878e+01 
1 -2.845373908105e+01   1.359866710192e+01  -2.755595706100e+01 
1 -4.311304933748e+01  -3.078709144263e+01   1.759717636974e+01 
1  2.209128516939e+01  -5.920932327073e+01  -1.216909973448e+01 
1 -1.607286231880e+01   8.676358238639e+00  -7.501806341944e+00 
8
Step 8000
1  1.162878204902e+01  -6.313123884960e+00   4.453212788901e+01 
1 -2.678922118329e+01   7.855036960577e+00   3.133664319566e+01 
1 -3.097616571089e+01   1.483702339882e+01  -3.908841468195e+01 
1  4.144209018756e+00   5.602715018435e+01   1.509472162562e+01 
1  2.033304451190e+01  -6.314232482516e+00   9.118666130892e+00 
1 -1.062442558384e+01   2.816730132131e+01  -2.870098125107e+01 
1 -3.826459116577e+01  -2.656062105117e+01  -4.517225165646e+01 
1  1.890686211323e+01  -1.083175916745e+01  -1.185616620693e+01 
8
Step 9000
1  4.569548118400e+01   2.258414104926e+01  -5.008633890709e+01 
1  6.608271861736e+00   2.302480001769e+01  -6.963014795148e+00 
1  7.984103473265e+00  -4.234624867221e+01  -2.636416122132e+01 
1 -2.031459950315e+01  -3.304604976640e+00  -6.028821482485e+00 
1 -1.160377070664e+01  -1.806310886021e+01  -6.840900555022e+01 
1 -6.800732954190e+01  -4.084545016763e+00   3.318842240590e+01 
1 -2.750488735045e+01   3.304841460068e+01  -9.211135053232e+00 
1 -1.551129409406e+01  -2.040816614395e+01   1.539700743712e+01 
8
Step 10000
1 -3.295312751650e+01   3.771155033699e+01  -5.882358841400e+00 
1 -1.290944329818e+01  -7.603697970655e+00   6.138675101431e+00 
1  2.090660930160e+01   3.104406383743e+01  -2.456565154520e+01 
1 -5.012313864245e+01  -3.909217401261e+01  -7.360421702659e+01 
1  1.860821788292e+01   4.640563279446e+00   2.905185369319e+01 
1 -2.089134304029e+01  -2.709096844423e+00   2.457024858169e+01 
1 -5.382092024771e+00   9.482816591314e+00  -6.177382143902e+00 
1 -1.403129084790e+01   5.211796956587e+01  -9.801120870073e-01 
8
Step 11000
1  1.658340311873e+01   1.503800454233e+01   4.993799762171e+00 
1  4.339180718364e+01  -1.602006314958e+00  -3.399105528230e+01 
1 -1.098676364000e+00   5.038110489951e+01  -4.471084394107e+01 
1 -4.268634115936e+01   8.095824688135e+01   3.063797685948e+01 
1  8.151550805170e+00   2.228058726805e+01   2.424520784287e+00 
1  3.275512366966e+01   2.133075788350e+01  -1.051642808209e+00 
1 -1.294377228670e+01   3.028246921161e+00  -3.458683140702e+01 
1  1.190186428027e-01  -4.273942661634e+01   4.407754987720e+00 
8
Step 12000
1 -2.804450114850e+01  -9.965087380410e+00   5.908707399761e+00 
1 -4.661515346949e+01   4.614660865745e+01   4.629444369582e+01 
1 -4.873388090485e+01   3.171071119692e+01   1.889449800309e+00 
1  2.041918017728e+01  -9.650499674600e+00  -4.363084522154e+01 
1 -5.384164231976e+01   5.091569325439e+01  -1.229514259727e+00 
1  1.688394314842e+00  -2.786220325022e+01   1.648396238601e+01 
1  2.100421968141e+00   1.376992062146e+01  -2.002024429357e+01 
1  2.114949621205e+01   8.263178528300e+00   9.092647951687e+00 
8
Step 13000
1  2.035654593627e+01   1.092773806319e+01  -1.317906526156e+01 
1 -3.508837963206e-01  -2.658463213762e+01  -3.486522801417e+01 
1 -3.358680615276e+01  -1.048873029890e+01   1.288296275997e+01 
1 -2.639679654965e+01   3.276729739838e+01  -1.963124084997e+01 
1 -5.088855563713e+01  -5.515094115062e+00  -9.310434786009e+00 
1 -1.734887411334e+01  -1.040344074441e+01  -2.504086125805e+01 
1  1.261908601900e+01   5.167240212637e+00   2.645262288120e+01 
1 -3.505850831703e+01   3.455450747037e+01   8.785086902194e+00 
8
Step 14000
1 -4.114505935780e+01   3.704333381921e+01   3.031135908942e+01 
1  2.197238069097e+00   3.395505867880e+01   1.251079825444e+01 
1 -4.611782296438e+01  -2.671545170857e+01  -4.321827524242e+01 
1  1.996155092695e+01  -1.136456572759e+01   2.131938163020e+01 
1 -2.281325769369e+01  -6.613540368220e+00   1.787851660922e+01 
1 -5.192374462126e+00   5.534809946735e+01   1.433070790726e+01 
1 -1.615604437883e+01   6.406018457587e+01   4.279639933133e+00 
1  1.820323835753e+01   2.558859570612e+01  -1.364854387462e+01 
8
Step 15000
1  3.444880306789e+01  -1.150402639038e+00  -7.306038889450e+01 
1 -5.194323740460e+01   6.629678297019e+00   1.852323639549e+00 
1  7.912689761505e+00   4.981506872963e+01   7.945031669876e+00 
1 -5.743604868997e+01   9.140313640052e+00  -3.884462073289e+01 
1  4.344423854301e+01   1.222041819337e+01  -4.396832182963e+00 
1  1.695397026335e+01  -3.105355681270e+01   3.960143219164e+01 
1 -4.936407483130e+01   9.969748423289e+00   8.872909448693e+00 
1  2.841497704245e+01   6.574585980843e+00   3.944764312531e+01 
8
Step 16000
1 -6.029039311094e+01   1.679934677699e+01   2.616679086635e+01 
1 -1.979185651801e+01   2.424911162680e+01   1.024902940990e+01 
1  2.034136290339e+01   7.558626243867e+00   2.762150202348e+01 
1 -2.012407759412e+01   2.578234250128e+01   2.854912559718e+01 
1  3.398297310698e+01  -6.007944247791e+00  -2.026492801463e+01 
1 -5.920747918772e+01   5.317795908835e+01  -2.279545891348e+01 
1  3.782652360495e+01   3.545530552067e+01  -1.206470816295e+00 
1  2.003880358556e+01   1.840183452172e+01   1.403538295376e+01 
8
Step 17000
1  7.439922507234e+00  -2.132374437477e+01   2.589360225424e+01 
1 -3.541565499301e+01  -1.872636865543e+01  -1.857987330410e+00 
1 -1.251391811999e+01   5.926659898825e+01  -2.567623005007e+01 
1 -4.843363898941e+01   2.980241424934e+00  -7.763180815549e+00 
1 -4.539063641678e+01   1.113319823189e+01   1.638542137808e+01 
1  3.647030246452e+01  -1.779339784432e+01   3.430836072272e+01 
1 -1.183860384049e+01   2.105052487354e+01  -8.262991936549e+00 
1  2.848522363398e+01   1.753495157315e+01   1.336535312408e+01 
8
Step 18000
1 -5.716931106787e+01   2.629468679482e+01   5.443673113908e+00 
1  1.686468630654e+01  -1.775412747986e+00   2.100621099474e+01 
1  6.440475135075e+00  -8.512235453678e+01  -2.099674388205e+01 
1 -6.476026140892e+01  -2.117180154341e+01   1.697982428381e+01 
1 -2.228447591306e+00  -1.064702342151e+01   1.226416261063e+01 
1 -4.441567605349e+01  -7.030831086946e+00   1.880218553651e+01 
1 -1.964170240464e+01   3.624784376695e+01  -3.844264262766e+01 
1 -1.537025148181e+01   5.832612154608e+01   4.414004056660e+01 
8
Step 19000
1  2.828281833584e+01  -1.243914704249e+01  -1.691358605472e+01 
1 -5.926066899097e+01   4.925919341759e+01   1.435368169917e+01 
1  4.202076391775e+00  -1.862714860676e+01  -1.492607422958e+01 
1  6.551555350788e+01   2.713994488978e+01   1.791956440253e+01 
1  5.645848624512e+00  -1.567201964639e+01   5.353820867166e+01 
1 -2.765137359483e+01   3.228327066840e+01  -2.645859705767e+01 
1  2.897156278949e+01   1.908750925617e+01   2.602562956238e+01 
1 -2.123566058821e+00   1.384795248504e+01   9.924257066255e+00 
8
Step 20000
1 -7.923026292063e+01   4.404306578366e+01  -1.610362269496e+01 
1  3.403840886887e+01   2.494431526506e+01   2.073434107182e+01 
1  6.066674048806e+01  -1.511834814274e+01   5.472204256201e+01 
1 -7.845216965173e-01  -4.761810171638e+00  -6.619527242071e+00 
1 -1.204267397530e+01   5.633092400948e+00   6.557725604836e+00 
1  3.957369958093e+01   2.140163490001e+00  -7.789933300424e+00 
1 -2.116633462325e+01   1.516942096817e+01  -2.912421302729e+01 
1  2.969580133683e+01   5.177305892412e+01   4.175149619647e+01 
8
Step 21000
1 -5.925712682244e+00  -3.371158993691e+01   4.197741099826e+01 
1 -1.696760626501e+01  -3.099638086884e+01   2.650476696632e+01 
1  1.453589626595e+01   1.480046826973e+01  -4.504362654430e+01 
1 -5.735928830608e+01   3.034032436267e+01  -3.462649031748e+01 
1  1.776744801505e+01  -5.119387619894e+01   2.989346584727e+01 
1 -1.938487433777e+01   8.271005413112e+00  -1.572886367533e+01 
1  3.302531676858e+00   2.032422788008e+01   1.733487441407e+01 
1  3.374878666314e+01  -2.471600196012e+01   1.708007065378e+01 
8
Step 22000
1 -9.318724035482e+00   4.804415055472e+01   4.356334117544e+01 
1  2.980702517390e+01  -1.756640260335e+01   4.784204634221e+00 
1  2.788656815449e+00  -2.712335103160e+01   3.136377782369e+01 
1 -3.774114224757e+01  -6.319412229806e+00   3.567922671901e+01 
1  2.341826274667e+01   2.098386413735e+01   3.421346359603e+01 
1  1.128638965179e+01   2.018263288737e+01  -8.082633164589e+00 
1 -3.721852928052e+01   3.603789980301e+01  -3.077414367525e+01 
1 -6.070214016912e+00  -2.343870164842e+01  -5.345559477362e+00 
8
Step 23000
1 -5.071919043125e+00  -3.353079323017e+01  -1.904503454967e+01 
1 -2.310751207496e+01  -2.822485455381e+01   1.505189044628e+01 
1  6.265197984969e+01  -6.274695630315e-01   1.661174874231e+01 
1 -1.445610972436e+01   5.963856176561e+00  -1.454330790487e+01 
1 -6.611934725601e+01   1.088336549391e+01  -1.596424166559e+01 
1 -6.310670019660e+00  -4.941664528586e+01   1.407840689324e+01 
1  1.570801704502e+01  -4.431103149864e+01  -1.068784918361e+01 
1  5.588619303016e+01   7.059518527540e+00   4.369109301070e+01 
8
Step 24000
1  3.079770297811e+01   4.215540073066e+01   2.488178472574e+01 
1  9.271754196335e+00   2.184926445697e+01  -1.428306401451e+01 
1  2.721179554686e+01  -3.895569703725e+01   6.944867186711e+00 
1 -1.045912767626e+01  -4.047040116010e+01   6.071248448892e+01 
1  3.033280666498e+01  -1.473609365315e+01   1.323552332429e+01 
1  3.935124410199e+01  -3.944633476965e+00  -2.265993204100e+01 
1 -3.261467837854e+00   8.135744978003e+01  -1.532531858470e+01 
1 -1.573642907455e+01  -3.308163900556e+00  -2.029720075078e+01 
8
Step 25000
1  1.171218459466e+01   5.875886699593e+00  -8.607378288989e+00 
1  3.830299809217e+01   1.099087051868e+01   7.044081924424e+01 
1 -8.631626276723e+00  -2.324361358643e+01   2.585704900496e+01 
1  7.797506890142e+00   8.655157564959e+00  -1.342118039323e+01 
1  2.308425258877e+01   3.448144044248e+01  -1.027022268743e+01 
1  4.271339124909e+00  -2.505223005988e+00   2.095879622572e+01 
1  4.555806255997e+01  -3.147287741064e+01  -2.783049288271e+01 
1  2.194289318924e+01  -8.542616052925e+00   4.138334898714e+01 
8
Step 26000
1  1.061447193705e+02  -4.996571246820e+01   2.182612552887e+01 
1 -6.977080523836e+01   3.329883337021e+01  -1.992886834380e+01 
1  3.400253080634e+01  -1.132966839985e+01   2.253395151653e+01 
1 -1.804067871955e+01   5.142720325854e-01  -5.858480047644e+00 
1 -9.858047892542e+00  -5.236111689207e+01  -1.396140520668e+01 
1  5.469041168551e+00  -7.126250354293e-02  -4.066908464581e+01 
1 -1.989481513524e+01  -2.714021790054e+01   1.818307216414e+01 
1 -2.374275924639e+01  -2.130823172703e+01  -3.498506101985e+01 
8
Step 27000
1 -3.320569709613e+01  -1.315113010436e+01  -3.014490017539e+01 
1  1.332331673138e+01  -7.853969368716e+01   2.265717071798e+01 
1 -2.425059580377e+00   3.176605505770e+01   3.002105751845e+01 
1 -3.872788716925e+01   2.014228178433e+01   3.557115042532e+01 
1 -2.201170723216e+00  -2.884559763051e+01  -1.495917253190e+01 
1 -2.502671899464e+01  -2.655860390545e+01  -1.483182870033e+01 
1  3.328664661418e-01  -3.296488315017e+01  -2.205710798826e+01 
1  2.426001027823e+01  -6.204863614989e+01   4.593316686113e+00 
8
Step 28000
1  5.928785340197e+01   8.030118192885e+00  -1.800334870277e+01 
1  1.501431704847e+01  -3.859396733488e+00   9.709649754961e+00 
1  3.667200337772e+01  -5.826896525640e+00   1.427175548972e+01 
1 -3.747874877557e+01   3.355514303015e+00   1.400311118766e+01 
1  5.052799426982e+01  -3.424049713106e+01   5.672649050019e+00 
1  3.175168082516e+01   3.012604673204e+01   9.296136147115e-01 
1  2.065825780438e+01   1.391275952104e+00  -1.277271118289e+01 
1  1.891820262605e+01   2.917695794538e+01  -2.675271987015e+01 
8
Step 29000
1  9.551170813366e-01   9.705923873135e+00  -2.730054557843e+01 
1  7.345082074506e-01  -1.966454453430e+01  -9.441948071295e+00 
1  2.250771991592e+01  -5.407859091914e+01  -7.496415047140e+00 
1  5.112191765605e+01  -2.212468842676e+01   2.195565666082e+01 
1 -2.366969016816e+00  -2.544386462940e+01  -5.120176644570e+00 
1 -3.466313459362e+00  -4.582143651296e+01  -2.712429814048e+01 
1  1.465862364150e+00  -6.021178028068e+00   3.179979846938e+00 
1  2.931082982162e+01  -7.442874735948e+00  -1.881814664769e+00 
8
Step 30000
1  1.925167368036e+00  -4.842414992853e+01   4.389626028894e+00 
1 -1.217195624652e+01   1.214559280338e+01   2.541476870896e+01 
1  4.630277022853e+01   4.101076270932e+01   2.808800987135e+01 
1  2.306085317070e+01  -2.975669295776e+00   1.471862090384e+01 
1  2.417965120924e+01   2.705555384461e+01  -6.109989524306e+01 
1  2.020904076796e+01  -1.531862171987e+01  -1.523133808366e+01 
1 -1.381201060790e+01   4.638028541821e-01  -5.194277654435e+01 
1  9.000585876261e+00  -2.728196624307e+01   1.403609229455e+01 
8
Step 31000
1 -1.927715051223e+01  -7.275933813683e+01  -5.178456564808e+01 
1 -9.131699849025e+00   9.824859681939e+00  -1.171254640475e+01 
1  2.075600217015e+01  -3.876756786186e+01   1.206445866769e+01 
1 -1.475807530868e+00   3.795841790444e+01  -2.055509941305e+01 
1 -2.858732396990e+01  -2.074816982885e+01   2.999245913656e+01 
1 -1.288179055347e+00  -1.072783721117e+02  -2.466895753169e+01 
1  5.605300912677e+00   4.359840929222e+00  -8.933743340528e+00 
1 -1.567476539606e+00  -3.864361441057e+01   2.365856458567e+00 
8
Step 32000
1  1.528400483923e+01  -1.927263761580e+01   6.928227159562e+00 
1  1.327277099223e+01  -4.414174191466e+01  -5.327593408332e+01 
1 -5.678318914137e+00  -3.078845676289e+00  -2.466507431494e+00 
1 -1.019304037229e+01  -3.246201366495e+01  -9.180115831870e+00 
1 -1.099884367792e+01  -9.574628911988e+00  -2.244960547040e+01 
1  1.674941517957e+01  -2.827522884777e+01  -3.936809542931e+01 
1  1.191355723815e+00   2.089837882489e+01  -3.977886687199e+01 
1 -2.414811004052e+00  -4.473099690981e+01  -1.659098112584e+01 
8
Step 33000
1 -4.968393062174e+01   6.478952365671e+01  -5.013877622817e+01 
1 -4.439917777670e+01  -4.047940099220e+01  -2.470164854268e+01 
1  7.374001065923e+01  -1.682809662862e+01   4.757140676521e+01 
1  5.122713776155e+01  -4.124335096702e+01   2.228396936706e+01 
1  3.242586948627e+01   6.715474641406e-01   4.131671579253e+01 
1  3.090063473820e+01   1.600194221365e+01   1.860735481514e+00 
1 -2.181378262593e+01   9.653162709030e+00   5.312276362527e+00 
1  2.834823682312e+01   6.805182727950e+00  -2.312230752664e+01 
8
Step 34000
1 -8.117308851886e+00  -2.955987450095e+01   1.528628255142e+01 
1  5.093616906794e+01  -3.137953945656e+01  -4.208513107396e+01 
1  3.000436601460e+01   1.824580120869e+01  -4.286437310559e+01 
1  2.949985184843e+01   5.813315815810e+01  -2.589518302257e+01 
1  1.800785750537e+01  -2.662920518641e+01  -3.855767329416e+01 
1 -1.602440695017e+01  -2.946860098893e+01  -5.482204004277e+01 
1  4.631717575027e+01   8.147263028974e+00  -2.018054171041e+00 
1  2.415079757016e+01  -2.346450361198e+00   3.087857825692e+01 
8
Step 35000
1 -1.620923210098e+00  -2.551710173015e+01  -1.946160050269e+01 
1 -3.902300585959e+01   1.755611289217e+01  -5.386783755795e+00 
1 -5.968781228776e+01  -2.847256861168e+01  -1.233640272558e+01 
1  4.134339252856e+00  -6.105882861398e+01   1.607948773558e+01 
1  9.320035822270e+00  -4.682284565246e+01  -4.130001041214e+00 
1 -2.003393679011e+00   2.866231429291e+01   1.154499963482e+01 
1 -5.648334289719e+01  -3.433060224194e+01  -8.208642794310e+00 
1 -4.247194536758e+01  -1.394316347187e+01  -4.661956105814e+01 
8
Step 36000
1  6.341197305662e+01  -5.181871360742e+01  -5.985146202803e+00 
1 -7.530691960267e+01   1.974639258927e+01  -4.015071540348e+00 
1 -7.640966644096e+00  -1.551265740340e+01  -1.745096398531e+01 
1  8.814285355616e+00   8.585664071533e+00   6.405310227945e+00 
1 -3.704688190297e+00   4.229472942848e+01  -4.257965894954e+01 
1  2.326752676814e+01  -5.269655555823e+00  -1.304387978323e+01 
1  3.218492467293e+01  -2.373380717548e+00  -1.709015363820e+01 
1 -1.141030464995e+01   9.293543579959e-01  -1.809397530026e+00 
8
Step 37000
1 -2.744147238635e+01   4.908430106777e+01  -3.970353011772e+01 
1  5.472823068870e+01  -4.148060867083e+01  -5.493112015016e+01 
1 -2.081577339710e+01   6.544196145963e+00  -3.255294944133e+01 
1 -1.091064860977e+01  -4.358574816781e+00   2.621498814478e+01 
1  9.429935592564e+00  -6.098061753230e+01  -4.030367941065e+01 
1 -3.062645439398e+01   1.024742517711e+01   2.935956521688e+01 
1  2.038658590482e+01   1.338875553474e+01   1.988337160125e+01 
1 -4.319329165534e+01  -5.075629928726e+01  -1.585970383701e+00 
8
Step 38000
1  4.162145861607e+01  -2.185205510376e+01   1.315105647143e+01 
1 -4.904946857181e+01   1.641746829778e+01   2.620036895553e+01 
1 -2.149863704960e+01   3.597282561378e+01  -1.830667435167e+01 
1  3.085419862143e+01   1.838022744856e+01  -5.242553840481e+01 
1  2.132571023905e+01   2.633053732860e+01   1.310912384061e+01 
1  4.703373416568e+01   1.806588601514e+01   2.228815433313e+01 
1 -8.678934878086e+00   2.460545288494e+01   6.632161564843e+00 
1  2.069742034798e+01   1.972946445679e-02  -3.624812135493e+01 
8
Step 39000
1  2.663164166937e+01   3.479024643404e+01   1.894808398694e+01 
1 -2.674186698596e+01  -5.583068661618e+00  -6.091022561461e+01 
1 -1.672784629385e+00   4.054493104588e+01   3.795558354865e+00 
1 -1.683868469618e+01  -2.798121589005e+01   2.120739457655e+01 
1 -3.088369368488e+01   2.514877332212e+01  -3.665887559404e+01 
1  1.144822654690e+01  -4.659624217933e+01   2.188899683102e+01 
1  1.348242876474e+01   3.034584179652e+01   3.780101394599e+01 
1 -4.740588499134e+01   1.244563610194e+01   1.613253637670e+01 
8
Step 40000
1 -5.194828110848e+00  -2.329231806422e+01  -2.506576856557e+01 
1  2.911124389763e+01  -3.234399337251e+01   2.782885993977e+01 
1 -7.632318435717e+01   2.839153962647e+00  -8.350740711174e+00 
1 -1.270395485375e+01  -6.569214148288e+00  -6.614455759769e+01 
1  2.504127469409e+01  -5.284767202276e+01   1.505286438416e+01 
1 -3.420588111065e+01   2.644709055406e+01  -1.838901939804e+01 
1 -6.811803982175e+01   2.826358481587e+00  -1.855996167602e+01 
1  1.922468589504e+00  -3.196897836954e+01  -3.743670420353e+01 
8
Step 41000
1 -2.861533904771e+01  -2.999525661441e+01  -1.811328995384e+01 
1 -1.461664334298e+01   9.385802606077e+01   7.673889658846e+00 
1 -1.031382435241e+01   2.230721718212e+01   2.350984440504e+01 
1  1.560540072260e+01   5.070222950803e+01  -6.083539381272e+00 
1 -3.589486200216e+01   5.823234620259e+01  -1.632984766771e+01 
1  1.085352446539e+01  -4.474207922051e+01  -5.123749644918e-01 
1 -3.085964259330e+01  -2.930119988886e+01   2.773732242479e+01 
1 -3.330851582839e+01  -2.484862194990e+01   5.051520986033e+01 
8
Step 42000
1  3.438631231289e+01  -2.930426170820e+00   1.206711694165e+01 
1  2.631633459424e+00   2.811100772440e+00  -2.704692579827e+01 
1  1.770871663859e+01   4.293548376249e+01  -9.397160274608e+00 
1  1.588872820400e+01   3.409201087578e+01  -5.679539091591e+00 
1 -6.822478941738e+00   7.145644091860e+00  -5.092579141172e+00 
1  3.042476733585e+01  -1.272015346440e+01   3.916568322131e+01 
1  5.265933058899e+01   2.471058063991e+01   3.439954875508e+01 
1 -3.802599556382e+00   6.387666952864e+01  -1.233510250270e+01 
8
Step 43000
1 -1.649620478466e+01   9.331446462907e+01   2.843864424941e+01 
1  2.306465618850e+01   1.078532132414e+01   1.237047483970e+00 
1 -1.112801915435e+01  -3.943343900925e+01   5.951913012570e+00 
1 -1.464697961727e+01   5.904896950771e+00  -6.373638073888e+00 
1 -1.136785588381e+01  -2.986983446157e+00  -5.272370665239e+00 
1 -3.445177320970e+01   3.546515174820e+01   3.012782509663e+00 
1 -3.743786666351e+01  -2.330765702077e+00  -3.321239423522e+01 
1 -2.680137166865e+01  -2.926506679957e+01   4.337080820309e+01 
8
Step 44000
1 -7.040854526620e+01   7.269311923152e+00   1.846082142328e+01 
1 -2.977035363795e+01  -1.427904533949e+01  -3.462853407765e+01 
1  3.682084232381e+01   3.428673221364e+00   8.183130424993e+00 
1  5.559124556565e+01   2.232486522543e+01   4.218199174330e+01 
1 -6.097773797575e+01  -9.237832240938e+00  -2.175561937298e+01 
1 -4.060948490704e+00  -3.907317837025e+01   3.668289813625e+01 
1  2.654979535718e+01   2.301781812713e+01   9.465205136040e+00 
1 -6.643768853551e+01   5.218670787998e+01  -3.673251003605e+01 
8
Step 45000
1  2.884547619292e+01   3.867717656043e+01   1.951457876362e+01 
1  2.607044110892e+01   9.998473421266e+00   9.643216146851e+00 
1 -5.373992823347e+01   5.421248484123e+01  -1.953269907513e+01 
1 -9.606228682519e+00  -3.851454612689e-01  -1.098564572477e+01 
1  8.828305535338e+00   4.308305392751e+00  -1.770213444048e+01 
1 -5.934998839287e+01  -3.922919459608e+00   2.111013735688e+01 
1 -2.842359953683e+01  -2.387888824519e+01   1.924929469451e+01 
1 -2.165737863030e+01  -2.450733921492e+01   2.482516251501e+01 
8
Step 46000
1 -1.592008156972e+01   1.279150415227e+01   3.041379806109e+01 
1 -1.112091161895e+01  -1.108876410430e+01   8.079448905565e+00 
1  1.507866512159e+01  -5.231756878206e+00  -1.382698854207e+00 
1  1.251728381126e+01   1.824351139611e+01   2.125809030332e+01 
1 -1.620403002442e+00   1.478245594248e+01  -1.992118560955e+01 
1  3.525272683582e+00   1.176906539232e+01   4.336063833309e+01 
1 -2.952064191418e+00  -2.614339109120e+00  -4.585528391811e+00 
1 -8.044393183537e+00   1.236538232645e+01  -2.131701317257e+01 
8
Step 47000
1 -3.340314571564e+00   2.379404944210e+01  -5.925036176164e+00 
1  2.059876779239e+01   8.063033250837e+01   3.339661075305e+01 
1 -2.001384129788e+01   3.384966383531e+01   2.603779757458e+01 
1  6.269627197610e+01   3.369455616739e+00   3.290442373353e+01 
1  1.389225368033e+01   1.081406355704e+01   4.818050493510e+01 
1  8.312338516966e+00   4.144318320794e+01  -9.454362470024e+00 
1  2.386755151637e+00   5.353462831304e+01   5.693607894791e+01 
1  1.202436799838e+01   1.733162509837e+01   1.260326193441e+01 
8
Step 48000
1 -1.650699825184e+01   7.326485712538e+00   1.962481709977e-01 
1 -1.519238379870e+01  -2.163813709985e+01  -1.021089121162e+01 
1  3.660094560245e+00  -2.453146325672e+01  -6.946216372445e+00 
1 -2.565567257786e+01  -3.872779375353e+01  -1.304787421091e+01 
1 -7.356895811671e+00   1.683161013266e+01  -1.699605963059e+01 
1 -2.714650903945e+01   3.045372589136e+00   5.328683401983e+01 
1  5.516851654153e+00  -1.646632051229e+01   1.003443557165e+00 
1  8.249231221688e+00  -1.949864058842e+01  -1.226998957664e+01 
8
Step 49000
1  2.104694952781e+01  -3.804351322509e+01   9.274018932875e+01 
1 -3.227884257655e+01   5.704955096719e+01   4.619586871503e+00 
1 -2.396197137408e+01   3.670257888282e+01   4.866934398044e+00 
1  4.243220303880e+01   1.795706036779e+01  -4.285415007748e+00 
1 -3.502690732003e+01  -7.251341752221e+00   1.425975356459e+01 
1  4.892866417770e+01  -1.624305786637e+01   3.344754774423e+01 
1 -3.233888373079e+01   2.008900085453e+01   3.245216961966e+01 
1 -9.823743419910e+01  -2.313977201061e+00  -6.143966817824e+01 
8
Step 50000
1 -9.120558798302e+00  -7.391218167281e+00  -1.695165851064e+00 
1  8.565824437937e+01  -8.915500903699e+00   3.864401046262e+01 
1 -5.129838958414e+01   2.910176462272e+00  -2.420780160404e+01 
1  5.356984139968e+00   1.505745544204e+00  -1.431187327027e+01 
1 -9.665084160214e+00  -1.508564578940e-01  -3.900039465494e+00 
1  1.308942134131e+01   3.383024920606e+01   4.272259613521e+01 
1  4.187317825735e+01   5.733079567878e+01   2.759179369631e+01 
1  2.812093176815e+01  -3.730144592260e+01   3.564660775282e+01 
8
Step 51000
1  4.983751441503e+01  -1.527257764818e+01  -3.799451796780e-01 
1 -2.588310357926e+01   4.253826749089e+00   2.723492420917e+01 
1  1.939409721870e+00   1.280470283284e+01   4.419540575931e+01 
1  2.549135002496e+01  -1.779327999002e+01   9.535479769486e+00 
1  2.189343610984e+01   1.898245824677e+01  -5.334330881953e+00 
1  8.898975931299e+00  -2.564591509587e+00   6.344001771812e+01 
1 -2.464279484742e+01   2.859997560791e+01  -2.337664016551e+01 
1 -1.028845810580e+00   4.299158502818e+01  -2.385386571451e+01 
8
Step 52000
1 -5.216826066147e+01  -3.093474983388e+01   2.150849391592e+01 
1  1.655832023970e+01   2.346895493323e+01   1.160539982403e+01 
1 -1.644564145265e+01  -3.075377077991e+01  -1.102430013729e+00 
1  9.212681224851e+00   1.604810898276e+01  -1.507236817600e+01 
1 -4.730696204863e+00   1.978257200937e+01  -1.077457405188e+01 
1  3.154086325810e+01   1.665690282616e+01   3.479606400446e+01 
1  4.438358170083e+01  -3.175547425484e+00   4.060876039852e+01 
1  2.261031409556e+00  -1.459177638145e+01   2.880549008860e+01 
8
Step 53000
1  4.298281207113e+01  -1.767324900538e+01   4.498237772768e+01 
1  4.260993261002e+01  -2.074342160210e+01  -8.178054463655e+00 
1 -8.474817255572e+00  -6.741906979885e+00  -1.524776059133e+01 
1 -3.193267975165e+01   1.149554012964e+01  -2.772180123071e+01 
1  1.451058601600e+01  -5.624252538657e+00  -2.461397670493e+00 
1  3.385780210550e+00   5.441666137332e+00   3.282606601691e+01 
1  9.655610417860e+00   2.353956976708e+01   4.474859838476e+00 
1  4.793885661327e+00   5.244627049616e+01   4.131814605183e-01 
8
Step 54000
1 -1.177031836825e+01  -1.440018810528e+01   1.745955571035e+00 
1 -1.329462186368e-01  -1.798205583070e+01   3.114079365287e+01 
1 -3.737732830482e+00  -8.125501302786e+01  -4.581838322422e+01 
1 -8.633557683488e+00  -5.181821951471e+01  -5.039671364434e+00 
1 -5.587654427905e+01   3.641813486422e+01  -2.307365889312e+00 
1  2.909753779996e+01   3.759494512900e+00  -3.454936724560e+01 
1  2.194472311589e+01  -5.127830646418e+01  -3.905479390446e-01 
1 -1.522046833728e+01  -4.547535934713e+01   1.460290177344e+01 
8
Step 55000
1  7.869368669716e+00  -2.357581696170e+01   4.018626608528e+01 
1  4.304590922469e+01  -1.233806620869e+01  -2.744126469803e+01 
1  2.121607778838e+01   2.521986934624e+01   4.846594082921e+01 
1  2.997785344383e+01   4.462129071039e+01   3.826792930517e+01 
1  4.562680584568e+00  -2.169126057368e+01  -2.338338266315e+01 
1 -1.092908961801e+01  -5.313153969353e+00   3.643129617593e+01 
1  6.008935869029e+01   3.467446995367e+01   6.435320709395e+00 
1  3.390586040975e+00   8.689367535538e+01  -1.403622537468e+01 
8
Step 56000
1  2.537891148844e+01  -5.472462883659e+00  -9.594616235872e+01 
1  1.750199541614e+01  -3.282786677765e+01   4.409132894845e+01 