8
Step 0
1 -3.472934504792e+01   2.985585161505e+01   4.552711624413e+01 
1 -3.872914153085e+01   5.183552870333e+01   2.841252880511e+01 
1  6.597310272429e+01   3.473535297890e+01   3.212630301548e+01 
1 -6.209027598665e+01   1.844554586020e+01  -3.110501871492e+01 
1 -4.675834713363e+01   3.854789838996e+01   6.659078998682e+01 
1 -1.328434623653e+01  -5.953552595268e+01  -6.135440417252e+01 
1  6.150941286889e+01  -3.705897999201e+01   2.680974576907e+01 
1  1.897523860070e+01  -3.176705575740e+00  -2.894581516525e+01 
8
Step 1000
1 -6.058276128921e+01   3.914046179718e+01   4.701939781711e+01 
1 -3.270816935105e+01   5.696351518101e+01  -4.159704476775e+00 
1  5.469879935201e+01   4.062138379418e+01   1.595491535458e+01 
1 -3.735020372549e+01   4.752908552461e+01   1.153102625138e+01 
1 -3.829802412328e+01   7.124373280105e+01   6.404112714184e+01 
1 -2.757186921212e+01  -6.740873300126e+01  -6.680821300026e+01 
1  3.070520702067e+01  -4.535623810192e+01   4.092938094067e+01 
1 -5.006970184037e-01  -4.985097080285e+01  -3.034152773242e+01 
8
Step 2000
1 -6.039128918332e+01   4.068465942097e+01   2.738404478044e+01 
1 -9.510560134489e+00   3.289584610886e+01  -3.661571960669e+01 
1  2.401543540262e+01   2.648641928843e+01  -2.672110460016e+00 
1  7.921491787835e+00   5.542271173313e+01   4.942962254645e+01 
1 -7.780585323979e+00   7.743530422775e+01   4.002121366664e+01 
1 -2.936940779412e+01  -4.205256599025e+01  -4.718022215600e+01 
1 -2.584132626003e+00  -4.253215286774e+01   2.955159392885e+01 
1 -2.317900090725e+01  -7.678219654383e+01  -2.727216343116e+01 
8
Step 3000
1 -3.462262173253e+01   3.379495942915e+01  -1.912578852631e+00 
1  2.034088273914e+01  -7.026130973412e+00  -5.846903097280e+01 
1 -1.699324720177e+01   1.019743069025e+00  -1.924896229715e+01 
1  5.280756955957e+01   3.872930615233e+01   7.370417408213e+01 
1  2.641028299598e+01   5.447009867174e+01   2.227009557100e+00 
1 -1.485341392659e+01   5.552076551707e+00  -1.510569861322e+01 
1 -2.734716343362e+01  -2.631167811796e+01   1.183441344146e+00 
1 -4.053199800787e+01  -7.211644645030e+01  -1.976771456899e+01 
8
Step 4000
1  3.990434015051e+00   1.953528901701e+01  -2.546101757772e+01 
1  4.194574582580e+01  -4.139686784375e+01  -6.209689290505e+01 
1 -5.395213990395e+01  -2.209370214140e+01  -2.961200935992e+01 
1  7.536553942430e+01   6.069275708485e+00   8.010637707433e+01 
1  4.440893841203e+01   1.282467928443e+01  -3.492363118015e+01 
1  1.140563433429e+01   5.255782994381e+01   1.261555720470e+01 
1 -3.785097845768e+01   4.101996262654e-01  -2.676102704189e+01 
1 -4.510174564963e+01  -3.941339822147e+01  -7.860723782013e+00 
8
Step 5000
1  3.787658852782e+01   4.299131434550e-01  -3.269121639479e+01 
1  4.496307656973e+01  -5.365600875800e+01  -4.681922827802e+01 
1 -7.391595471507e+01  -3.206049490351e+01  -3.150484868942e+01 
1  6.479038255097e+01  -2.669191876248e+01   6.939679831370e+01 
1  3.663762379364e+01  -2.948716336436e+01  -5.745484269351e+01 
1  3.837799122161e+01   7.689076188902e+01   2.488710102441e+01 
1 -3.528837437505e+01   2.956323804680e+01  -3.822428237032e+01 
1 -3.475826719169e+01   4.246554835619e+00   7.295924306058e+00 
8
Step 6000
1  5.419397375168e+01  -2.015921710944e+01  -2.276418428830e+01 
1  2.896612641609e+01  -4.057716916285e+01  -1.881851224953e+01 
1 -7.094050245993e+01  -2.600124326856e+01  -2.524039313300e+01 
1  2.602266755601e+01  -4.515895179500e+01   4.527758627007e+01 
1  7.986813944267e+00  -5.641627681754e+01  -5.845769136345e+01 
1  5.420171029181e+01   6.834575638939e+01   2.129223998482e+01 
1 -2.531466478898e+01   5.124902386861e+01  -2.702524810749e+01 
1 -1.346153333310e+01   3.856605627927e+01   2.287724749803e+01 
8
Step 7000
1  4.918474963384e+01  -3.808572182922e+01  -3.046959774782e+00 
1  2.387606244857e+00  -1.142753439890e+01   1.170214994576e+01 
1 -4.711308845438e+01  -8.585378174474e+00  -1.330240069179e+01 
1 -2.416039145962e+01  -4.221689858006e+01   1.249158331444e+01 
1 -2.647851527683e+01  -5.979874660984e+01  -3.976012365527e+01 
1  5.095272076519e+01   3.135506058343e+01   9.775559724917e+00 
1 -1.410533840230e+01   5.729592000779e+01   1.490114768718e+00 
1  1.090752744964e+01   4.965214846345e+01   3.453249406713e+01 
8
Step 8000
1  2.782803096259e+01  -4.859019046719e+01   1.543563245517e+01 
1 -2.200773644353e+01   1.812692721869e+01   3.405628191678e+01 
1 -1.117423321323e+01   1.109601391074e+01   3.483370376563e-01 
1 -6.443857064707e+01  -2.021146552460e+01  -2.324420637706e+01 
1 -4.925725880672e+01  -4.130819130177e+01  -1.042045844164e+01 
1  2.769504032510e+01  -1.774268907607e+01   1.012083522600e+00 
1 -5.713651678755e+00   4.437081260332e+01   3.352513328893e+01 
1  2.952274348153e+01   3.543244345520e+01   3.762449197706e+01 
8
Step 9000
1  4.355192528134e-01  -4.758266570509e+01   2.356304898388e+01 
1 -3.352758302739e+01   3.433860081560e+01   4.136268290853e+01 
1  2.483567021041e+01   2.413553383796e+01   1.161212953794e+01 
1 -7.811515059638e+01   1.034065891144e+01  -5.513143596810e+01 
1 -4.903929016010e+01  -1.098991721643e+01   1.734037450312e+01 
1 -8.646054036349e+00  -5.803125822996e+01   2.052363510458e+00 
1 -9.972591064747e-01   1.606273771772e+01   5.342048197017e+01 
1  3.611400541296e+01   6.083721169350e+00   2.953062302196e+01 
8
Step 10000
1 -2.254244510928e+01  -3.339531632618e+01   1.833093232861e+01 
1 -2.875512749949e+01   3.194951925081e+01   3.329254676690e+01 
1  5.016009281591e+01   2.585428230756e+01   1.781472778384e+01 
1 -6.019113355306e+01   3.573130805536e+01  -7.598041178778e+01 
1 -2.599105455864e+01   1.780935373248e+01   3.357740910082e+01 
1 -4.572706876780e+01  -7.338455420509e+01   1.238393422202e+01 
1  1.736162383761e+00  -1.803473332655e+01   5.111380857572e+01 
1  2.942303784571e+01  -2.165759029634e+01   1.144509413645e+01 
8
Step 11000
1 -3.461847151657e+01  -8.168245777058e+00   3.631282713248e+00 
1 -1.251622695692e+01   1.557929594017e+01   1.557671944697e+01 
1  5.874673787960e+01   1.713995304878e+01   1.848990187194e+01 
1 -1.873131004138e+01   4.499774697167e+01  -7.955686095222e+01 
1  8.987603570278e+00   3.429663572284e+01   3.440118281060e+01 
1 -7.017805891025e+01  -5.884339910863e+01   2.452314038503e+01 
1  4.890607077559e+00  -4.581985777202e+01   2.649924242301e+01 
1  1.332925110384e+01  -3.300889177143e+01  -1.142109495115e+01 
8
Step 12000
1 -3.474291669430e+01   2.173004609742e+01  -1.225256236137e+01 
1  5.236927833848e+00  -3.811535454335e+00  -2.834970493587e+00 
1  5.059782937740e+01   3.173304320918e+00   1.515406828574e+01 
1  2.894866077269e+01   3.434235354115e+01  -6.271966982187e+01 
1  3.973909815576e+01   3.431643009438e+01   2.281775418630e+01 
1 -7.233580744923e+01  -2.213134150164e+01   2.833310276720e+01 
1  9.742075725548e+00  -5.721431509885e+01  -1.058678020842e+01 
1 -4.973870735328e+00  -2.229843015756e+01  -3.133795052492e+01 
8
Step 13000
1 -2.620394885136e+01   4.711824868807e+01  -2.110453642205e+01 
1  1.496207268951e+01  -1.542438482809e+01  -1.388215456398e+01 
1  3.097285899667e+01  -9.531315990583e+00   1.023275347430e+01 
1  6.373124486323e+01   8.633488109730e+00  -2.772994175107e+01 
1  5.263715725143e+01   2.141504950473e+01   6.621835117906e+00 
1 -5.011602115423e+01   2.008151781049e+01   1.707147807283e+01 
1  1.550655760083e+01  -4.836030517510e+01  -4.466070915116e+01 
1 -1.809252334716e+01   4.167243734750e+00  -4.102993539599e+01 
8
Step 14000
1 -1.385687520878e+01   5.923007219375e+01  -1.891776138210e+01 
1  1.275957210550e+01  -1.460291551158e+01  -1.419454472858e+01 
1  7.588590799438e+00  -1.639786582294e+01   5.617514957804e+00 
1  7.290167955742e+01  -2.093334477301e+01   1.702585277212e+01 
1  4.306095617537e+01   4.306063913125e+00  -5.838615296944e+00 
1 -1.017484975306e+01   5.004692402385e+01  -7.998969817402e+00 
1  1.973694395690e+01  -2.339581248326e+01  -6.166105752472e+01 
1 -2.161183396068e+01   3.140419656271e+01  -3.688999691966e+01 
8
Step 15000
1 -1.478418036556e+00   5.327585569314e+01  -7.517971328895e+00 
1  2.201164267990e+00  -4.703651115538e+00  -6.358437101143e+00 
1 -1.275685473321e+01  -1.654310782772e+01   1.744989849755e+00 
1  5.498836804117e+01  -4.193420277672e+01   5.892592774482e+01 
1  1.699871522295e+01  -7.954053367075e+00  -9.787848910369e+00 
1  3.443778582208e+01   5.687415690560e+01  -3.734336216414e+01 
1  1.973987457237e+01   7.420585134061e+00  -5.518922518900e+01 
1 -1.570917692364e+01   4.367769919126e+01  -2.064460934821e+01 
8
Step 16000
1  9.278688394483e+00   3.070240229459e+01   6.886471512355e+00 
1 -8.219304561232e+00   5.793970527733e+00   3.018054280603e+00 
1 -2.637618906197e+01  -1.222745137417e+01  -2.253262052354e+00 
1  1.924873752924e+01  -4.597059341999e+01   8.505855349751e+01 
1 -1.269484297704e+01  -1.043594209318e+01  -5.868515397046e+00 
1  6.894970102898e+01   4.065345222090e+01  -5.738862053841e+01 
1  1.416308212898e+01   3.220317991718e+01  -2.890143242491e+01 
1 -4.559754551305e+00   3.267763952614e+01   1.340740565096e+00 
8
Step 17000
1  1.817007039708e+01  -9.697107322484e-01   1.723978863409e+01 
1 -1.034919883876e+01   8.879276108649e+00   7.106103486037e+00 
1 -3.296098330130e+01  -6.712568518185e+00  -7.483158508464e+00 
1 -1.929059222995e+01  -3.184876627131e+01   8.679158517143e+01 
1 -3.299964089117e+01  -4.303323565876e+00   9.745375374119e-01 
1  8.201336888819e+01   1.129984530149e+01  -5.707103565286e+01 
1  3.902925122575e+00   4.240791806658e+01   5.698114821350e+00 
1  5.945211010774e+00   1.851613307225e+00   2.074577556809e+01 
8
Step 18000
1  2.478586847570e+01  -3.085884513002e+01   1.922477284591e+01 
1 -1.336587406129e+00   2.058047553561e+00   2.527400227511e+00 
1 -3.419003423465e+01  -2.116540689247e+00  -1.394360011464e+01 
1 -4.652884775727e+01  -5.537790873147e+00   6.311177693531e+01 
1 -3.679872508695e+01   4.480926668318e+00   4.728897743770e+00 
1  6.946726248192e+01  -1.693781099676e+01  -3.351287391762e+01 
1 -8.122062862935e+00   3.607163809225e+01   3.471118987489e+01 
1  1.099388442327e+01  -3.512117282678e+01   3.075106871947e+01 
8
Step 19000
1  2.751171676396e+01  -4.884412039273e+01   1.297523810785e+01 
1  1.438515268412e+01  -1.009199932399e+01  -8.810011091721e+00 
1 -3.168046996151e+01   1.452265607378e+00  -1.976049936735e+01 
1 -5.457114274939e+01   2.265263178466e+01   2.134288270948e+01 
1 -2.542575707700e+01   8.769265394649e+00   1.831270156314e+00 
1  3.552605669727e+01  -3.229248581034e+01   5.887552484559e+00 
1 -1.816492724120e+01   1.802414539299e+01   4.781486349426e+01 
1  8.854296488064e+00  -6.077011771548e+01   2.871594780692e+01 
8
Step 20000
1  2.398702898883e+01  -4.952238926937e+01   2.403312552715e+00 
1  2.722679359092e+01  -1.876045036011e+01  -2.061421992431e+01 
1 -2.559884089774e+01   5.257673245696e+00  -2.165639669729e+01 
1 -4.376689644922e+01   4.224245968958e+01  -2.516936114689e+01 
1 -6.927884572128e+00   4.267596801510e+00  -6.822736614935e+00 
1 -8.756613886271e+00  -3.045026719407e+01   4.604317029073e+01 
1 -2.321412456138e+01  -2.762040809868e+00   4.221971888327e+01 
1  1.340114394702e+00  -6.212634675974e+01   1.699889916700e+01 
8
Step 21000
1  1.285207542693e+01  -3.434771779069e+01  -7.237318496821e+00 
1  2.777963684837e+01  -1.645433195167e+01  -2.551148263020e+01 
1 -1.481778638903e+01   1.028679921636e+01  -1.661993542350e+01 
1 -2.117942602067e+01   4.650967707205e+01  -6.185856294362e+01 
1  8.787325226810e+00  -7.935375143134e+00  -1.636993659348e+01 
1 -4.930940927275e+01  -1.566922512765e+01   7.059394804838e+01 
1 -2.216400909945e+01  -1.741897660323e+01   2.307109727845e+01 
1 -7.298495212502e+00  -3.699861811259e+01   1.566764596589e+00 
8
Step 22000
1 -4.420263309340e+00  -1.073342644275e+01  -1.219421251091e+01 
1  1.242199382839e+01  -1.951943550588e+00  -1.898588942348e+01 
1  1.519648426902e+00   1.569294260449e+01  -3.896926919696e+00 
1  3.443015738460e+00   3.462917002766e+01  -7.822502364446e+01 
1  1.521699149655e+01  -2.171325546151e+01  -2.071048781936e+01 
1 -7.379138508578e+01   2.297899839057e+00   6.914470071550e+01 
1 -1.599999064757e+01  -2.102925467883e+01   2.576619968469e-01 
1 -1.246609233138e+01   4.958901074315e+00  -1.093405717272e+01 
8
Step 23000
1 -2.291317462996e+01   1.140286863444e+01  -1.181760928212e+01 
1 -1.392981926207e+01   1.821235417691e+01  -1.948853143661e+00 
1  2.202818598075e+01   1.862617833934e+01   1.376499393069e+01 
1  2.191427388883e+01   1.139545677678e+01  -7.120596436711e+01 
1  1.203801276275e+01  -2.894801079675e+01  -1.593398465951e+01 
1 -7.543487164614e+01   1.360766679347e+01   4.184668796580e+01 
1 -7.030304507205e+00  -1.432131830163e+01  -1.650129296343e+01 
1 -1.127100302993e+01   4.666526605838e+01  -1.611353139545e+01 
8
Step 24000
1 -3.563815990487e+01   2.400069551980e+01  -8.175947504492e+00 
1 -3.941445483737e+01   3.273392657738e+01   1.927021331492e+01 
1  4.201055102029e+01   1.576602429590e+01   3.038396771143e+01 
1  3.017364447849e+01  -1.492524997122e+01  -4.556219204293e+01 
1  4.258601067144e+00  -2.375186558100e+01  -2.659718759339e+00 
1 -5.492119755428e+01   1.321459844919e+01  -5.321490615538e-01 
1  2.289700377692e+00  -2.709597010067e+00  -2.187661178705e+01 
1 -3.719789903947e+00   7.119631613658e+01  -1.347348850650e+01 
8
Step 25000
1 -3.660765005809e+01   2.428679927993e+01  -4.223820309799e+00 
1 -5.077247836266e+01   3.175879794892e+01   3.567968392780e+01 
1  5.431469233169e+01   5.584331758380e+00   3.882459260042e+01 
1  2.859822122641e+01  -3.566558857927e+01  -1.134544932533e+01 
1 -1.426163644482e+00  -5.843139739531e+00   1.394532225326e+01 
1 -1.981231083907e+01   2.986746483637e+00  -4.117966535322e+01 
1  1.030230999956e+01   6.715951072504e+00  -1.670726979068e+01 
1  7.337490696030e+00   6.916696226062e+01  -6.110341743055e+00 
8
Step 26000
1 -2.403496176414e+01   1.558343886118e+01  -1.767378040242e+00 
1 -4.018954869675e+01   1.288708438725e+01   3.981767580540e+01 
1  5.209604717410e+01  -9.979322143157e+00   3.395225924348e+01 
1  2.048158040567e+01  -4.459699810350e+01   2.044165773917e+01 
1 -8.879602482325e-01   1.868202205215e+01   2.656321912814e+01 
1  1.835466998060e+01  -9.849093991363e+00  -6.448324707051e+01 
1  1.635899182575e+01   8.753499833795e+00  -6.674295114772e+00 
1  1.741458113934e+01   4.239336702330e+01   1.287240009006e+00 
8
Step 27000
1 -1.863429049057e+00   5.103615492751e+00  -4.690549588279e-01 
1 -9.810022831973e+00  -1.653515702497e+01   2.921638479900e+01 
1  3.230314729464e+01  -2.542970244820e+01   1.533938492984e+01 
1  9.841914449224e+00  -3.956060853931e+01   4.186776475803e+01 
1  5.021220064342e+00   3.962542284987e+01   2.925662250163e+01 
1  4.806151461077e+01  -1.687035268807e+01  -6.245391539124e+01 
1  2.027999896101e+01   2.481260482602e+00   1.175312135035e+00 
1  2.214798117021e+01   2.344840312401e+00   4.962576420648e+00 
8
Step 28000
1  2.129219086446e+01  -4.075749566441e-02   1.529179027447e+00 
1  2.830363896897e+01  -4.217198970333e+01   7.670833536313e+00 
1 -1.675000373813e+00  -3.370929795228e+01  -1.171631225634e+01 
1 -2.159806301086e-01  -2.272552175656e+01   5.012015362529e+01 
1  1.118965518616e+01   4.707235810057e+01   2.042347435728e+01 
1  6.145391710422e+01  -1.301414501589e+01  -3.773422425360e+01 
1  2.159250741544e+01  -8.437521435970e+00   2.176799034121e+00 
1  1.894924909919e+01  -3.533172421769e+01   3.841275224258e+00 
8
Step 29000
1  3.574993306273e+01   3.256514434542e+00   5.788913025200e+00 
1  5.719306883541e+01  -4.966629015744e+01  -1.633115824810e+01 
1 -3.985369587197e+01  -2.964208333106e+01  -3.760430481204e+01 
1 -8.028983278677e+00   3.782077049131e-01   4.709673096409e+01 
1  1.165422758191e+01   3.610864265294e+01   3.735869307476e+00 
1  5.661611801702e+01   6.795243609318e-01  -2.027164034406e+00 
1  1.920062539584e+01  -1.760657700192e+01  -3.669632669296e+00 
1  8.044725424496e+00  -5.768876971152e+01  -2.644301911750e-01 
8
Step 30000
1  3.532143742858e+01   1.230213035211e+01   1.183054677813e+01 
1  6.297446586605e+01  -3.246095433583e+01  -3.351443617155e+01 
1 -6.880289059337e+01  -1.288781816113e+01  -5.202738920869e+01 
1 -1.299611533349e+01   2.278753868219e+01   3.704959275277e+01 
1  3.656099282028e+00   9.488962876823e+00  -1.360417627460e+01 
1  3.755611380193e+01   1.761404306105e+01   2.953309158568e+01 
1  1.186445277281e+01  -1.906306975950e+01  -1.198676663557e+01 
1 -7.513042683910e+00  -5.948752536285e+01  -4.059759244740e+00 
8
Step 31000
1  2.030139519770e+01   1.998081030768e+01   1.672210896455e+01 
1  4.150861879863e+01   4.037472145294e+00  -3.790993161990e+01 
1 -7.671770408219e+01   1.124713066127e+01  -4.816854507813e+01 
1 -1.492901677480e+01   3.817745007993e+01   2.377147849542e+01 
1 -1.018035647021e+01  -2.317614417019e+01  -2.432383917068e+01 
1  1.193489155203e+01   2.905045288447e+01   4.507652195041e+01 
1 -6.849471167109e-01  -1.014787391386e+01  -1.656008533782e+01 
1 -2.279765959020e+01  -4.389807332796e+01  -4.852334583217e+00 
8
Step 32000
1 -2.477614261834e+00   1.848949619726e+01   1.637934177287e+01 
1  7.270188127871e-01   4.397563662285e+01  -2.912322616099e+01 
1 -5.822446295604e+01   3.342915193948e+01  -2.564213330216e+01 
1 -1.374460682011e+01   4.237568774388e+01   8.974505380123e+00 
1 -2.275415760437e+01  -4.906990730350e+01  -2.438239839082e+01 
1 -1.211800840963e+01   2.840242606320e+01   4.055012778943e+01 
1 -1.659602842064e+01   7.107468763469e+00  -1.262555015665e+01 
1 -3.244387563621e+01  -1.940052772573e+01  -2.055428269014e+00 
8
Step 33000
1 -2.248042592818e+01   3.733825471611e+00   8.055627654408e+00 
1 -4.213628641577e+01   6.762106652047e+01  -1.212732888688e+01 
1 -1.739807669249e+01   4.392964691462e+01   8.694123645953e+00 
1 -9.704742186928e+00   3.430568403564e+01  -7.436060713403e+00 
1 -2.607627740156e+01  -5.722142993811e+01  -1.475885454826e+01 
1 -2.879444179940e+01   1.453419646164e+01   2.076689635424e+01 
1 -3.147653916755e+01   2.640874097928e+01   5.395433095022e-01 
1 -3.226686389735e+01   4.863835734434e+00   2.584244610477e+00 
8
Step 34000
1 -3.030980091694e+01  -2.154684235897e+01  -7.241272801612e+00 
1 -6.782476866911e+01   6.079709140474e+01   5.263205689422e+00 
1  3.248453420420e+01   3.709291422051e+01   4.267218197005e+01 
1 -3.867550405211e+00   1.632026937462e+01  -2.559461089096e+01 
1 -1.594231112758e+01  -4.330941033265e+01  -9.237972913107e-01 
1 -3.617254229388e+01  -7.352814861715e+00  -3.267566819260e+00 
1 -3.939630623703e+01   3.941765573178e+01   1.880817966287e+01 
1 -2.082562867987e+01   2.304875101461e+01   6.128074506313e+00 
8
Step 35000
1 -2.241644434708e+01  -4.776864569939e+01  -2.400615287569e+01 
1 -6.406617366048e+01   2.294154745303e+01   1.622139202883e+01 
1  7.322796207170e+01   1.449717595206e+01   6.319779536639e+01 
1  1.836149701297e+00  -6.348584847306e+00  -4.362374202341e+01 
1  4.826150966354e+00  -1.206617598581e+01   9.973995890344e+00 
1 -3.598008506556e+01  -2.789228207030e+01  -1.974720344924e+01 
1 -3.533948546084e+01   3.913966188415e+01   3.469600272610e+01 
1 -4.232267495077e-01   3.401458097685e+01   6.367583142882e+00 
8
Step 36000
1 -3.233788977727e+00  -6.219861777489e+01  -3.409885754771e+01 
1 -3.201588001555e+01  -3.072200306191e+01   1.820035034535e+01 
1  8.884699306707e+01  -1.492255764064e+01   6.154829000030e+01 
1  5.230305822944e+00  -2.700551016205e+01  -5.677993706021e+01 
1  2.672638065199e+01   2.414621929948e+01   1.288141217681e+01 
1 -3.171529069250e+01  -3.793152005452e+01  -2.174655603523e+01 
1 -1.809478984540e+01   2.323285115564e+01   4.061265935784e+01 
1  2.298883643559e+01   3.975039658291e+01   3.319992827142e+00 
8
Step 37000
1  1.666248863032e+01  -5.508741510854e+01  -3.077924229542e+01 
1  1.344501074752e+01  -7.508989428749e+01   1.391004226711e+01 
1  7.277893159986e+01  -3.836292284871e+01   3.745523686915e+01 
1  5.064112996785e+00  -3.951455057523e+01  -5.878823543348e+01 
1  3.798764475287e+01   5.043978955092e+01   7.635879494639e+00 
1 -2.609795304251e+01  -3.309564766014e+01  -1.053034263908e+01 
1  8.062055519733e+00  -4.248512712429e+00   3.248684090610e+01 
1  4.139590972980e+01   4.216935545969e+01  -7.373941704193e-01 
8
Step 38000
1  2.598790222961e+01  -2.522656888672e+01  -1.291461797464e+01 
1  5.072096286637e+01  -8.732288174844e+01   9.172355408632e+00 
1  3.142903385266e+01  -4.514092522258e+01  -3.058528973662e-01 
1  2.026963249972e+00  -4.031962566175e+01  -4.503435570502e+01 
1  3.107615573220e+01   5.616422915102e+01  -9.436660098406e-01 
1 -1.926069474117e+01  -1.603767786164e+01   5.411386789311e+00 
1  3.427503990388e+01  -3.389087091355e+01   1.191764026276e+01 
1  4.756851542985e+01   4.050939051288e+01  -2.818081435880e+00 
8
Step 39000
1  1.898653350299e+01   1.826540846282e+01   1.320958949441e+01 
1  6.242694635346e+01  -5.900027478118e+01   8.861388658388e+00 
1 -1.826328260214e+01  -3.211912728975e+01  -3.742935464377e+01 
1 -1.230389839843e+00  -2.959989108754e+01  -1.594298198253e+01 
1  7.513655342286e+00   3.985537525593e+01  -5.996954151195e+00 
1 -8.979392996713e+00   5.045117219116e+00   1.527725608512e+01 
1  5.050910802189e+01  -5.446204384429e+01  -1.431926789665e+01 
1  3.802699902630e+01   3.133666295936e+01  -1.386453081961e+00 
8
Step 40000
1 -1.033285788877e+00   5.913107977278e+01   3.593699023213e+01 
1  4.441865637266e+01  -1.789316808779e+00   1.348081861423e+01 
1 -5.620410981958e+01  -5.680428530355e+00  -6.004636478265e+01 
1 -1.377325700370e+00  -1.122453775852e+01   2.140148963794e+01 
1 -2.194372163911e+01   9.927046522209e+00  -2.965910739886e+00 
1  6.952797087382e+00   2.076744790867e+01   1.213394486982e+01 
1  5.001268937702e+01  -5.750687354608e+01  -3.705591177223e+01 
1  1.497525060012e+01   1.156392366582e+01   2.321814427259e+00 
8
Step 41000
1 -2.315513289879e+01   8.131059648123e+01   4.392520050665e+01 
1  8.011446120535e+00   5.731375374283e+01   1.855990885951e+01 
1 -6.852274141425e+01   2.117446884397e+01  -6.071833241363e+01 
1  3.490312427153e+00   8.593751345495e+00   5.510893283692e+01 
1 -4.255966913462e+01  -1.949402122716e+01   7.203132604425e+00 
1  2.775305588260e+01   2.551838846853e+01  -2.964613263234e+00 
1  3.275004271193e+01  -4.119227175552e+01  -4.866154415311e+01 
1 -1.390753184837e+01  -1.751910180177e+01   4.907569517464e+00 
8
Step 42000
1 -3.496989573763e+01   7.659134715184e+01   3.246040190491e+01 
1 -2.680252670157e+01   8.998215198110e+01   1.756917862843e+01 
1 -5.387100927713e+01   3.563031550984e+01  -4.120369901833e+01 
1  1.221819612930e+01   2.371092461874e+01   7.360779769240e+01 
1 -4.368160648069e+01  -3.584878559467e+01   1.828275810581e+01 
1  4.834611529041e+01   2.001698312964e+01  -2.163693694764e+01 
1  5.496576436397e+00  -1.108898285993e+01  -4.607576612882e+01 
1 -3.841283917816e+01  -4.854287236398e+01   3.155798991653e+00 
8
Step 43000
1 -2.933432622074e+01   4.761411268080e+01   6.155801827737e+00 
1 -4.266017078728e+01   8.088007561110e+01   6.436135951770e+00 
1 -2.254881478774e+01   3.144063856690e+01  -1.044966797902e+01 
1  2.063311660692e+01   3.017357304185e+01   7.067187364566e+01 
1 -2.427759234171e+01  -3.395990782764e+01   2.240129228739e+01 
1  6.072312276201e+01   9.825915320792e+00  -3.309478326463e+01 
1 -2.142560052579e+01   2.244464406748e+01  -3.114548838940e+01 
1 -4.980773452831e+01  -7.017420767253e+01  -3.589194740378e+00 
8
Step 44000
1 -7.931207772228e+00   5.795907839579e+00  -2.297201671479e+01 
1 -3.334291889536e+01   3.449142865246e+01  -1.325071886123e+01 
1  9.610408482033e+00   1.147455468851e+01   1.980299631242e+01 
1  2.327770182728e+01   2.713535793148e+01   4.780433175589e+01 
1  6.724254746163e+00  -1.746884919931e+01   1.467360736407e+01 
1  5.732421917573e+01   1.474803997378e+00  -2.989420262621e+01 
1 -3.842752014988e+01   4.808090734264e+01  -9.020934229624e+00 
1 -4.388303443083e+01  -7.192466172502e+01  -1.253341339681e+01 
8
Step 45000
1  1.941298738566e+01  -3.365066853267e+01  -4.092452491825e+01 
1 -6.286641665019e+00  -2.691555942858e+01  -3.406234924754e+01 
1  2.877744019219e+01  -1.381908836036e+01   3.947564721185e+01 
1  1.625198817510e+01   1.690810583651e+01   1.378544146142e+01 
1  3.471308029748e+01   3.579884129895e+00  -3.512536627225e+00 
1  3.535034533967e+01  -1.287150772077e+00  -1.193608748027e+01 
1 -4.038358349835e+01   5.738509713410e+01   1.384711836369e+01 
1 -2.270642776012e+01  -4.993826677292e+01  -1.851060927970e+01 
8
Step 46000
1  3.973181938801e+01  -5.824528884063e+01  -3.897368169413e+01 
1  2.195573958619e+01  -7.416846876633e+01  -4.622411482453e+01 
1  2.946605987116e+01  -3.164094658714e+01   4.378390874784e+01 
1 -1.043766842062e-01   4.013717083641e+00  -1.915078015895e+01 
1  4.684713841802e+01   1.801412811058e+01  -2.447106173389e+01 
1 -3.999362056817e-01   6.996094172889e-01   1.320774881475e+01 
1 -2.865181784917e+01   4.800949444087e+01   3.175816811328e+01 
1  5.781723729900e+00  -1.050360889818e+01  -1.685710455251e+01 
8
Step 47000
1  4.379421638242e+01  -6.309460742485e+01  -1.844498104697e+01 
1  3.539688770308e+01  -8.612698521461e+01  -4.295250631368e+01 
1  1.617100531202e+01  -3.342487263430e+01   3.425954834556e+01 
1 -2.066601033164e+01  -6.898334980084e+00  -4.115477471101e+01 
1  3.855394425367e+01   1.932669910977e+01  -3.801230471681e+01 
1 -3.878811994984e+01   3.192990636974e+00   3.436762417270e+01 
1 -9.933040128320e+00   2.424650791228e+01   4.123094706545e+01 
1  3.104069117885e+01   3.211602379053e+01  -6.345199063474e+00 
8
Step 48000
1  3.027657922202e+01  -5.097522894486e+01   1.017067227122e+01 
1  2.700802033360e+01  -5.911633826350e+01  -2.394152816561e+01 
1 -6.069852982495e-01  -1.864987490348e+01   1.668665301337e+01 
1 -3.747204024965e+01  -1.296724732116e+01  -4.851125497326e+01 
1  1.496642145098e+01   8.463907179771e+00  -3.661233393063e+01 
1 -6.672417588928e+01   1.734550469374e+00   4.239574512940e+01 
1  7.267894976215e+00  -5.231317140117e+00   4.109765107509e+01 
1  4.405874508917e+01   6.202810252811e+01   9.829534632228e+00 
8
Step 49000
1  5.675389190221e+00  -2.903506544843e+01   3.239989517844e+01 
1  1.543372476071e+00  -7.222476573776e+00   4.459770366915e+00 
1 -1.060822348283e+01   5.502251862781e+00  -1.965489763690e+00 
1 -4.292132191721e+01  -1.384514157699e+01  -4.362869950727e+01 
1 -1.229507739511e+01  -7.339269605620e+00  -1.919247316267e+01 
1 -7.409401426948e+01  -5.337854513883e+00   3.411974142151e+01 
1  1.632809451249e+01  -3.054663349250e+01   3.190914181618e+01 
1  4.035139828802e+01   6.837678017008e+01   2.519017941380e+01 
8
Step 50000
1 -1.915695239352e+01  -4.930285001968e+00   3.679674759624e+01 
1 -2.731662184178e+01   4.490448386723e+01   3.195338250112e+01 
1 -9.038390489424e+00   2.776895186824e+01  -1.608397123292e+01 
1 -3.318873234167e+01  -1.129762704862e+01  -3.239157047141e+01 
1 -3.090786499510e+01  -1.856239937642e+01   7.933303043758e+00 
1 -5.785099995192e+01  -1.558873467077e+01   1.351118068249e+01 
1  1.509267904069e+01  -4.380987357689e+01   1.561260970596e+01 
1  2.146294211625e+01   5.014876850576e+01   3.263778109742e+01 
8
Step 51000
1 -3.436071378889e+01   1.599495037357e+01   2.083720722994e+01 
1 -4.412839762644e+01   7.388353059590e+01   4.878366339288e+01 
1  1.500574328307e+00   3.816718860933e+01  -2.287885603025e+01 
1 -1.038896996804e+01  -7.911299934325e+00  -2.032261053522e+01 
1 -3.378203918481e+01  -1.838815732995e+01   3.364812598972e+01 
1 -2.352656912924e+01  -2.363355708706e+01  -1.042420504885e+01 
1  6.494583492955e+00  -4.167704552711e+01  -4.580095686601e+00 
1 -5.527444432201e+00   1.673715178487e+01   2.775390090163e+01 
8
Step 52000
1 -3.541280524280e+01   3.141856177107e+01  -7.610729216192e+00 
1 -3.951897547791e+01   6.819305699802e+01   4.976081358069e+01 
1  1.324675576859e+01   3.239066342962e+01  -2.245768555403e+01 
1  1.787323098826e+01  -5.503211978997e+00  -9.653726797827e+00 
1 -2.197628043236e+01  -6.142817857354e+00   4.693563300443e+01 
1  1.689659359388e+01  -2.406537249794e+01  -2.800109806751e+01 
1 -3.156297347062e+00  -2.620989770381e+01  -2.442123694607e+01 
1 -3.051693273919e+01  -1.659179316323e+01   1.107179894852e+01 
8
Step 53000
1 -2.439246210361e+01   4.076072039875e+01  -3.390507414757e+01 
1 -1.468673829769e+01   3.252474469308e+01   3.593583269771e+01 
1  1.804784455634e+01   1.328666892820e+01  -1.691001879560e+01 
1  4.136012338629e+01  -4.192627669761e+00   9.648649492138e-01 
1 -3.383369271049e+00   1.232690440819e+01   4.172437473355e+01 
1  4.953120953688e+01  -1.449346129818e+01  -3.308668632418e+01 
1 -7.375630800192e+00  -3.871697941318e+00  -3.907859372915e+01 
1 -4.390236347363e+01  -3.583040486398e+01  -1.180004971371e+01 
8
Step 54000
1 -8.113666886675e+00   4.335026861927e+01  -4.371238564528e+01 
1  1.925111685043e+01  -1.522683563104e+01   1.348353365628e+01 
1  1.202544502751e+01  -1.079939723964e+01  -9.035458980903e+00 
1  5.130364807787e+01  -2.648947254233e+00   1.419765857947e+01 
1  1.173519355027e+01   2.745142137229e+01   1.977230252711e+01 
1  6.384555056172e+01   2.772699738339e+00  -2.545100903366e+01 
1 -2.809402895831e+00   1.694879912223e+01  -4.415506945747e+01 
1 -4.014031655405e+01  -3.470542084221e+01  -3.225403557057e+01 
8
Step 55000
1  5.821863678807e+00   3.774926094852e+01  -3.040459153736e+01 
1  4.667951233742e+01  -5.285054216409e+01  -9.559626523417e+00 
1 -2.256388759519e+00  -3.003982864792e+01  -1.202308456457e+00 
1  4.403733753594e+01   7.534274744682e-01   3.074478662054e+01 
1  1.619873756380e+01   3.080418674988e+01  -9.929576274457e+00 
1  5.664737467864e+01   2.138545665748e+01  -1.029961824486e+01 
1  8.909703381416e+00   2.912221933273e+01  -3.727222742272e+01 
1 -2.004977427560e+01  -1.751241996122e+01  -4.217030740717e+01 
8
Step 56000
1  1.293906447345e+01   2.283804249172e+01   1.179621630520e+00 
1  5.491811641080e+01  -6.425238184454e+01  -2.680504049163e+01 