8
Step 0
1  7.395189469585e+00   2.868572838882e+01  -2.182869978595e+01 
1  3.581768520100e+01  -5.040078629445e+01  -1.872152468762e+01 
1 -8.956057854562e+00   4.753479582038e+00   1.574679953468e+00 
1  1.977878075509e+01   3.607585693886e+01  -2.422827477529e+01 
1  7.002853144553e+01   7.647335132185e+01   2.165794942044e+00 
1  2.570063494682e+01  -1.914862205628e+01   1.732125061436e+00 
1  5.826318678326e+01  -1.353795077675e+01  -5.974027404880e+01 
1  5.370653369435e+01  -9.140397982714e+00  -5.549262301199e+01 
8
Step 1000
1  6.642716789835e+01  -5.534650996959e+01   1.583564817508e+01 
1  3.339383178205e+01  -4.352653896599e+01  -6.357361872938e+01 
1 -4.556344167109e+01   2.150227787498e+01  -9.064696018563e+00 
1  2.866316182514e+01   1.125826241941e+00   1.074397831720e+01 
1  1.992342336054e+00  -5.900243054019e+00  -2.130620758820e+01 
1 -3.139416571965e+00   5.865713072321e+01   4.348323349990e+01 
1 -7.232269723477e+01   8.758571771089e+00  -3.576559038451e+00 
1  1.138317047925e+01  -5.613310312226e+01  -1.459488620249e+01 
8
Step 2000
1 -3.642674692526e+01   3.366925016416e+01  -4.850837082353e+01 
1  2.369374274755e+01  -5.748282287102e+01   6.447556174761e+00 
1  3.825273888819e+01  -2.284924772833e+01   5.934280113013e+01 
1  1.462281975202e+01  -2.963522613424e+01  -7.027390404435e+01 
1  4.564752547118e+01   2.439205963503e+01   1.857293966838e+01 
1  1.328730812432e+01  -5.155542585800e+01   1.570444482675e+01 
1 -1.987146500316e+00   1.605198009526e+01  -6.455541667841e+01 
1 -5.727000876370e+01   2.408383387558e+01  -4.402331751279e+01 
8
Step 3000
1  2.996751259176e+01   7.838981370879e+00   9.419304271802e+00 
1  3.535704381954e+01  -3.149822985070e+01  -3.025067488026e+01 
1 -4.024653109004e+01  -7.767761539766e+00  -1.881246621363e+01 
1  6.045756066586e+01   9.257754022453e+00   1.427165031730e+01 
1 -9.973337349417e+00   2.297818090938e+01   3.303055435560e+01 
1  8.452995947585e+00   8.096288542025e+01   5.497128460088e+00 
1 -1.979036681037e+01  -2.537286959506e+01  -2.153533821987e-01 
1 -1.130505679037e+01   1.480298163648e+01  -1.420055431742e+00 
8
Step 4000
1 -3.772324728467e+00  -8.332594415017e+00  -3.459725012470e+01 
1  2.797021364728e+01  -7.962472903916e+00  -2.960433123945e+01 
1 -1.527860512459e+01   3.030811847722e+00   1.585393210423e+01 
1 -6.702620999866e+00   3.152618418589e+01  -5.862951008964e+01 
1 -5.499967983441e+00  -2.696443337794e+01  -1.589744996264e+01 
1  4.873021072093e+00  -2.073461551890e+01   4.594350063106e+01 
1  1.780215977773e+01   2.407774769534e+01  -1.004637276849e+01 
1  3.760775880315e+01  -2.049088542693e+01  -1.013809471421e+01 
8
Step 5000
1  2.448154712966e+01  -4.678511938778e+01   3.994017090553e+01 
1  2.956024949236e+01   3.743338301560e+00  -1.370568155585e+01 
1 -1.536455564600e+01  -1.864641952793e+00  -5.812116029352e+00 
1  2.499827853181e+01   4.928335113356e+01  -3.002475721514e+01 
1 -1.784441060666e+00   5.149640415333e+01   1.320308428354e+01 
1  1.811311026419e+01   1.887409396402e-01   2.615578281905e+01 
1  3.517945419177e+01   7.083731217769e+00  -1.330309275805e+01 
1 -1.830899009817e+01   2.730437526346e+01  -5.522669235401e+00 
8
Step 6000
1  3.772910601191e+01   2.182429425357e+01  -3.945667603808e+00 
1 -2.628171391635e+00  -5.929277871600e+01  -5.994202591699e+00 
1 -5.365826245130e+01   3.795639489233e+01  -1.689332041852e+01 
1  3.186136047894e+01  -1.601387174657e+01   4.188684881451e+01 
1  4.819983071615e+01  -1.438085465776e+01  -1.583881601286e+01 
1 -3.048712859222e+01   2.015911598548e+01   1.464572499487e+01 
1 -4.549369686943e+01   7.639910941228e+00  -3.239900046225e+01 
1  3.739382857145e+01  -2.850029369034e+01  -4.534062730201e+01 
8
Step 7000
1 -1.761170523287e+01  -1.923722763054e+01   1.058497137374e+01 
1  2.335305934777e+01  -2.865736439921e+00  -1.830333085138e+01 
1  1.019618563539e+00  -2.799262545255e+01   2.189893292542e+01 
1 -2.165896118929e+01  -2.457994916950e+01  -6.174987255844e+01 
1  3.980034969559e+00   3.074569705198e+01  -1.571027137547e+01 
1 -2.533046531761e+00  -2.123428729347e+01   4.692551037157e+01 
1 -2.541591801005e+01   6.338080982041e+01   1.465199474756e+01 
1 -9.472433136685e+00   2.103311089288e+01   4.321981192882e+01 
8
Step 8000
1  1.169553219885e+01   2.016596419146e+01  -1.767340543814e+01 
1 -1.608994605267e+00  -1.568755818159e+01   6.928970908428e+00 
1  7.258732574862e-01   1.253495540377e+01  -1.635226700634e+01 
1  3.293076141958e+01  -3.000211207133e+01  -1.698085847394e+01 
1 -4.709107852230e+00  -9.385317790287e+00   1.523663910538e+01 
1 -1.562443999109e-01   1.305978630210e+01   2.195239698218e+01 
1  4.142956775197e+00   3.893893719599e+00   2.091113116372e+00 
1  6.035555467768e+00   4.127946864036e+01  -1.415083271846e+01 
8
Step 9000
1  1.266798507708e+01  -3.362981042886e+01   7.899735785840e+01 
1  4.381773657989e+01   6.588125084058e+00  -4.729487268531e+01 
1 -4.069154498203e+01   6.277513231865e+01  -2.787782265736e+01 
1 -2.462693491376e+01   6.163730607355e+01   3.865649798060e+00 
1  3.520189924757e+01   3.599156056515e+01   1.756283230068e+01 
1  4.430268011829e+01   8.063950259929e+00   2.803066286404e+01 
1  3.114278239704e+01  -4.685292446931e+00   2.190888261954e+00 
1 -5.088403338796e+00   7.163612821764e+00   1.872227353606e+01 
8
Step 10000
1 -1.218739834899e+01  -2.761968622726e+01  -1.837595253822e+01 
1 -1.527060663301e+01   1.441230337148e+01   5.570818318001e+01 
1 -2.237403603734e+01  -2.135874844687e+01  -4.005726599820e+00 
1  3.329110837769e+01   1.115666382087e+01  -4.200966137837e+01 
1 -4.445808720299e+01  -1.888059363279e+01   1.574175617409e-01 
1 -1.928145678995e+01  -3.766501012481e+01  -1.797170647027e+00 
1 -2.975578173882e+01  -4.020825836188e+01  -8.431609104239e+00 
1  1.119769919550e+01   3.466390769478e+01   1.727011418533e+01 
8
Step 11000
1  5.046058683535e+01   4.981311803328e+00   5.172662737254e+01 
1 -2.225902674298e+01  -6.164918513976e+00   1.132539075026e+01 
1 -3.948401394431e+01  -1.063450074849e+00  -3.913686084209e+00 
1  1.346616113165e+01   1.714249631105e+01   3.166941691236e+01 
1  1.640375719401e+01  -5.671072149077e+00  -3.656885913516e+01 
1 -1.735898694128e+01   4.931189896202e+01   7.617964016017e+00 
1  1.206470188831e+01   2.866190743248e+01   1.601392925125e+01 
1 -1.978320728660e+01   2.375554859490e+01   1.023683747928e+01 
8
Step 12000
1 -4.433897481868e+01   2.096435261795e+01   3.753162831998e+00 
1  1.304210156203e+01   7.265583132520e+00  -9.466747022288e+00 
1 -7.303344500486e+00  -1.717206299095e+01  -2.568747062956e+01 
1 -3.172004092490e+01  -4.619299697200e+01  -3.315166389207e+01 
1  1.560051099570e+00  -1.542564855522e+01   3.774847426379e+01 
1 -3.515005264346e+01  -1.845801576186e+01   4.138084894157e+01 
1 -3.632346230934e+01   1.285444070268e+01   1.021939047859e+01 
1  4.339069215026e+00   4.524261858752e+00   4.428579405474e+00 
8
Step 13000
1  2.269193793061e+01  -2.270160309191e+00   1.945060572689e+01 
1 -4.643154688805e+00   9.939640963917e+00   4.686936062850e+01 
1  1.303905178657e+01   4.682438393535e+01  -2.565835340061e+00 
1 -7.344831625063e+00   3.632674452704e+01  -3.240556860972e+01 
1  2.816330569412e+01   2.098910596813e+01  -2.918823429052e+01 
1  2.588250341048e+01  -1.567926138941e-01   2.052814545496e+01 
1 -4.584093618072e+01   2.332075530218e+01  -8.864765807335e+00 
1  3.044206641718e+01   1.255020003266e+01   5.235855287298e+01 
8
Step 14000
1 -1.744707382968e+01   1.262691191405e+00   5.613897151709e+01 
1 -2.872652683593e+01   3.105554956282e+01  -4.799586397199e+00 
1 -1.831014270338e+01   3.641649362191e+01   1.417116937262e+01 
1 -3.275858637160e+01   1.067270582232e+00   9.518268279760e+00 
1  9.227117931699e+00   2.147461098063e+01   1.282304177217e+01 
1 -1.658344759893e+01  -1.590471001138e+01   1.074652120031e+01 
1  3.333979242920e+00   3.386690151970e+00  -1.572274529221e+01 
1  1.819041650583e+01  -5.667937737201e+01   7.549345333178e-02 
8
Step 15000
1  2.605262615425e+00  -8.341568432796e+00   1.966490338670e+01 
1 -1.557123954367e+01   1.163631470310e+00   4.576179276939e+01 
1  2.267016230033e+01  -2.913122272024e+01  -2.555243090520e+00 
1 -1.882063652842e+01   1.476960949733e+01  -5.862452007692e+01 
1 -6.581474419488e+01   9.060464115836e+00  -3.239064874224e+00 
1  1.735454918963e+01  -4.441014951249e+01   8.471982631882e+00 
1  4.979111096814e+00   1.229458824687e+01   1.317953924872e+01 
1 -1.539753204405e+01   4.662137065829e+01   2.738609263278e+01 
8
Step 16000
1 -1.674549850128e+01   2.228427419336e+01   4.784217765806e+01 
1 -9.665532667978e+00   1.854180692721e+01   8.244713258485e+00 
1 -6.116718294628e+01  -5.297612507238e+01  -5.841104117510e+01 
1 -2.919121489511e+01  -4.705048856499e+01   3.844415383456e+01 
1 -3.701405964007e+01  -3.523624920589e+01   4.891679473462e+00 
1 -3.507669905424e+00   1.241248761158e+01   2.841868370490e+01 
1 -4.452752682768e+01  -6.854814212962e-01  -9.566736354583e+00 
1 -9.770612964027e+00   7.286237086080e+00   7.946769898178e+00 
8
Step 17000
1  1.512704184621e+01   2.609354046073e+01  -1.893830715283e+01 
1 -1.346105006086e+01   4.500131649828e+01   3.271302859669e+01 
1  3.771911024992e+01  -1.507251572517e+01   3.071657339094e+01 
1  3.988083895834e+01   3.382634723373e+01  -8.463768943022e+00 
1  4.144613319433e+01   2.177372834853e+01   1.082473996305e+01 
1 -2.521137424018e+01   1.799788059786e+01  -1.843092908540e+01 
1  1.098601520806e+01   2.064814426295e+01   1.389684687492e+01 
1  6.691558952882e+00  -1.025881010136e+01   1.945273467877e+01 
8
Step 18000
1 -4.731820756895e+01  -8.520083669581e+00  -3.739739054648e+00 
1 -4.214119297874e+01   3.055355004147e+01   5.539840313775e+01 
1  3.008848098626e+01  -1.036262596558e+01  -9.382932450497e+00 
1 -5.852988171171e+01  -1.612308973130e+01  -1.344973609157e+01 
1 -1.607467900098e+01  -5.798708575749e+01  -5.014621725791e+01 
1 -2.251577583207e+01  -2.538711203083e+01   2.430315233711e+01 
1  9.156707294314e+00  -4.305601664880e+01   2.160357910505e+01 
1  1.217141595499e+01   4.168701765459e+01   2.370006491870e+01 
8
Step 19000
1  1.443558078359e+01   2.049547425329e+01   6.116229365513e+01 
1 -3.025867405241e+00  -3.235887624146e+01  -2.456816552806e+00 
1  1.673182207186e+01   4.788594891861e+01  -3.931200718013e+00 
1 -1.959261646077e+01   4.426366184902e+00   4.564313190378e+01 
1  2.451985530367e+01   2.823882419815e+01  -9.359520475388e+00 
1 -1.844672522122e-01   4.837457522085e+01  -2.155069702328e+01 
1 -1.927166082510e+01   3.137911941269e+01  -1.887533524206e+01 
1  4.075881432515e+01  -4.789744189281e+01   1.028585258655e+01 
8
Step 20000
1 -2.833776007782e+01  -8.706705709284e+00   1.146757179333e+01 
1 -3.167145799802e+01   2.534493271733e+01   4.430321881532e+01 
1 -7.230061375502e+00  -5.816270910330e+01  -1.987626304101e+01 
1 -1.084484804014e+02  -1.088856193935e+01  -5.953105911789e+00 
1 -2.119650078995e-01  -3.253861887013e+01   5.695849064621e+00 
1 -4.002068203019e+01  -7.244693539893e+01   1.271877484891e+01 
1  2.707821307544e-01   5.143445823012e+00  -1.082610070839e+01 
1 -8.269273180445e+00   4.929238124516e+00   1.601134533052e+01 
8
Step 21000
1  2.448327867690e+01   8.110756629071e+00  -3.237093560125e+01 
1 -2.618406488246e+01   1.035419034357e+01  -1.033887138749e+01 
1  4.947541419113e+01  -4.362483275288e+01   2.219585225180e+00 
1  6.203335296223e+01  -1.582763428703e+00   3.652480220564e+01 
1 -2.934262555221e+01   1.159531060460e+01  -2.957278593171e+01 
1 -1.312344975105e+01  -8.558191176143e+00  -1.472151498748e+01 
1  3.422785131066e+00  -1.695776508579e+01   5.891924908343e-01 
1 -2.020120122541e+00   2.826037003126e+01   1.140824923832e+01 
8
Step 22000
1 -7.364156614546e+01   3.415282436567e+01   5.145523828271e+00 
1  1.040066741487e+01   2.845771540991e+01   1.044845339475e+01 
1  1.570516859473e+01  -2.759716322622e+01   3.245261397479e+01 
1 -2.643493173954e+00  -3.043963351121e+01   3.939646935966e+01 
1 -3.958933037196e+00   1.389887358275e+01  -7.128482050860e+00 
1  3.244773939650e+01  -2.866585845365e+01  -3.313893432646e+01 
1 -1.282000900530e+01   4.855165314262e+01  -9.460093593964e+00 
1  3.495420249840e+01  -6.260182781943e+00   1.396916401733e+01 
8
Step 23000
1  4.674186369086e+01  -1.099392129898e+01  -4.043363305940e+01 
1 -2.017551534941e+01   8.868651784755e+00   4.384357131918e+01 
1  6.217213480549e+01  -2.333371705149e+01  -2.903792794182e+01 
1 -2.287382562356e+01   5.522180631466e+01  -3.238541705640e+01 
1  5.290610722409e+01  -3.279754737900e+01   1.085055476076e+01 
1 -2.894762510008e+01  -1.026415050322e+00  -8.261671374432e+00 
1  1.503872701754e+01  -1.574303029903e+01  -8.211925923107e+00 
1  1.801474957436e+01   2.509197905896e+01   7.800190734960e+00 
8
Step 24000
1 -2.526275671714e+01  -1.834008991358e+01   4.567744283463e+01 
1 -5.688332513495e+01  -3.443075956457e+00  -2.934482656284e+01 
1 -1.212861855941e+01  -2.178721329600e+01   2.442495207596e+01 
1 -3.542135602707e+01  -3.127185758553e+01   4.112797588756e+01 
1 -3.014270418024e+01  -1.639463289844e+01  -3.042973090728e+01 
1 -6.378968578003e+00  -1.701924438531e+01  -3.901662852848e+01 
1 -4.016457454105e+01  -2.728816880840e+01  -9.503849092655e+00 
1  1.272782779704e+00  -4.089514684247e+01  -1.741346735541e+01 
8
Step 25000
1 -2.544902311354e+01   1.917399915599e+01  -7.035301321509e+01 
1  9.327770927235e+00  -3.074226108292e+01   1.975615887276e+01 
1  9.152862604356e+01   1.102501341739e+01   3.185038414585e+01 
1 -1.795830943836e+01   2.303788005319e+01   1.629168045923e+01 
1  3.033956027998e+01   2.004619332362e+01   3.795992886083e-01 
1 -3.050473699252e+01  -1.665455634967e+01   2.271701442162e+00 
1 -1.691851103322e+01  -2.362458877161e+01  -3.984816857201e+01 
1  6.605486007356e+01   3.977063722317e+01  -2.574742687352e+00 
8
Step 26000
1  1.475615000217e+01   1.643830694687e+00  -2.261898546722e+01 
1 -5.531443868945e+01  -6.512873548375e+00  -2.343475490856e+01 
1  4.949867514281e+01  -2.673249991685e+01  -1.756395094708e+01 
1 -3.023876821992e+01  -3.242142295396e+01   5.453049938034e+01 
1  3.046416999370e+00  -5.207507537100e+01  -1.286249092565e+01 
1  8.408481568466e+00  -2.368457259842e+01  -2.129528572925e+01 
1  3.601507858588e+01   9.015487874005e+00  -2.631659922668e+01 
1 -1.017875155111e+01   2.792866864656e+01   3.949981743248e+00 
8
Step 27000
1 -1.592367469499e+01   2.894883903916e+01  -1.874496649207e+01 
1  4.355896924706e+01   3.158152363338e+01   3.834504154302e+00 
1  1.920442517836e+01  -4.681137345936e+01   3.718594269105e+00 
1  6.926578413589e+01  -1.168721976826e+01   1.764909218174e+01 
1  4.140219592363e+01   5.062347941799e+01  -1.212934422980e+01 
1 -1.954876825659e+00  -2.877927136358e+00   1.217171582356e+00 
1 -2.290195291433e+01   3.060214191361e+01  -2.456446605799e+01 
1  2.402528890968e+01  -2.858160583581e+00  -7.092484287352e+00 
8
Step 28000
1  2.720209373652e+01  -3.081290951381e+01  -2.361798959522e+01 
1 -1.040479206456e+02   3.267503958379e+01   2.844744495740e+01 
1  5.200026770681e+01  -4.611868568828e-01   3.449691124380e+00 
1 -1.364777367446e+00   9.991701395935e+00   2.058354924422e+01 
1 -2.804078814197e+01   3.918819536944e+00  -3.995947497918e+00 
1  1.483172098135e+01  -3.327258932415e+01  -1.989245977078e+01 
1  2.095286245727e+01  -3.630166992881e+01  -1.936949480848e+01 
1 -1.612252702596e+01   1.659359010505e+01   2.114046445321e+01 
8
Step 29000
1 -1.185152999559e+01  -3.469247224493e+01  -3.680962249729e+01 
1  3.828264431894e+01  -2.327305435792e+01  -4.232072358439e+01 
1  3.334971500394e+01   2.131910340927e+01   2.727402716102e+00 
1 -2.915372604476e+01   1.165762899805e+01   4.594106298332e+00 
1 -1.697735285988e+01  -2.044152004895e+01  -2.511504885387e+01 
1 -3.321579485760e+01  -4.056783720559e+01  -3.022601008392e+01 
1 -1.301444999305e+01   2.590909395363e+01   1.464917759575e+00 
1 -4.913545098897e+00  -6.479588692893e+01  -2.742026370375e+01 
8
Step 30000
1 -9.382149219586e+00   3.643500811039e+01  -2.227663489350e+01 
1 -2.838848603087e+01  -5.685133412449e+00   2.954517046980e+01 
1 -1.746166677965e+01  -1.339158156349e+01   2.007464798621e+00 
1 -1.052394307829e+01  -4.710461218619e+00   6.292156307947e+01 
1  4.301676805968e+01  -2.175810661252e+01   4.190334862616e+01 
1  1.687545814808e+01   3.101989629428e+01  -1.246431486395e+01 
1  8.342334186308e+00  -6.084266078169e+00  -1.761604515566e+01 
1  9.842555247879e+00   8.602295120505e+00  -4.271464408654e+01 
8
Step 31000
1  5.272427764435e+01   2.389336140229e+01  -6.783878654881e+01 
1 -2.259999353386e+01  -1.727637591070e+01  -4.465432446476e+01 
1  1.456892393965e+02  -1.256678123834e+01   2.387229146778e+01 
1  2.843149934478e+01   1.024064919255e+01   1.268300951117e+01 
1 -1.448528605127e+01   3.638425386156e+01  -2.729828217649e+01 
1  1.050632286016e+01  -1.793020335210e+00  -2.596468097451e+01 
1  1.049232533761e+01   9.581150465456e+00   2.951761185404e+01 
1  4.838446553185e+01   2.276217474916e+01  -4.489760552792e+00 
8
Step 32000
1 -5.208872335759e+01  -1.852631239915e+01  -3.820001071438e+00 
1  3.648633537437e+01   8.966110512860e+00  -1.314037405527e+01 
1 -2.275867554865e+01   3.370010073328e+01  -2.219984274959e+01 
1 -9.641951831579e-01  -2.545359142592e+00   6.094690115759e+01 
1  4.496477156832e+01  -4.674261043537e+01  -2.333892980129e+01 
1 -2.473043758688e+01  -3.807289321147e+01  -7.843134912323e+00 
1  4.128234531467e+00   1.903764171020e+01  -2.165436463020e+00 
1 -7.002435878266e+00  -3.608754000698e+01  -2.060740266977e+01 
8
Step 33000
1  1.945459046373e+01  -4.250345000970e+01  -5.747063668091e+01 
1 -2.824925938206e+01   3.828743541578e+01   3.443790913118e+01 
1  2.257228939783e+01  -3.055803686681e+01   1.344501351558e+01 
1  8.646981775704e+00   4.739155385595e+01   2.785156760449e+01 
1 -9.178269671549e+00   3.482515880714e+01  -6.589978665490e+00 
1 -4.726312610598e+00   2.140300856670e+01  -3.048442669175e+01 
1 -2.707807806176e+00  -4.057202627517e+01  -2.641684018405e+01 
1 -2.015821051744e+01  -1.154856892571e+01   1.530879233805e+01 
8
Step 34000
1  3.509452921520e+01  -2.963803709859e+01  -3.913109748578e+00 
1 -2.219243081540e+01   1.326966798810e+01  -5.247384239508e+01 
1  5.112133975633e+00   2.068059699615e+01   7.908675460081e+00 
1 -9.829814879305e+00  -9.244635458488e+00   3.528293763775e+01 
1 -1.839269987166e+01   1.448554983208e+01  -1.225183375112e+01 
1  4.160289749833e+01  -7.485004293810e+01   2.250993966667e+01 
1  1.188537068521e+01   4.245970365564e+01   8.063189343970e+00 
1 -1.621902094296e+01  -1.609466596308e+01  -2.939266131752e+01 
8
Step 35000
1 -3.209841678676e+01   5.556352607650e+01  -4.679779144026e+01 
1  2.728026646631e+01  -5.677092886221e+01  -2.584897220754e+01 
1  2.018624398284e+01  -1.188078286099e+01   1.229309335446e+00 
1  3.605177412948e+01  -2.481744979152e+01   4.137480362846e+01 
1  3.017877180921e+01   3.013273970006e+01  -6.732674190326e+00 
1 -4.214068439936e+01   5.316091047218e+01  -1.964372180653e+01 
1  7.140219209558e+00  -8.954085848521e+00  -3.018332416979e+01 
1 -8.891686725035e+00  -5.762483224118e+01   9.876957912840e-01 
8
Step 36000
1 -5.957705739766e+00   9.250567531177e+00   1.369293809832e+01 
1 -7.904501824758e+00   1.089503706997e+00   6.871612471229e+00 
1  3.516784545055e+01   6.123329893259e+01   4.900924476303e+00 
1  4.343717235562e+01   6.782757317935e+01   4.510553143634e-01 
1  1.687500470427e+01   1.273731329167e+01   4.053015342525e+01 
1  3.924332197156e+01  -3.269143649461e+01   3.061307238120e+01 
1  2.300424831461e+01   1.723666614799e+01   2.287529532106e+01 
1  2.695094697480e+01   5.002522637143e+01   1.873753204612e+00 
8
Step 37000
1  1.305930336173e+01  -3.852216759619e+01  -7.304817519429e+00 
1 -2.948708474769e-01  -3.770456250570e+00  -7.033301232234e+01 
1 -2.018366695178e+01   2.718808907395e+00  -6.901766451713e+00 
1  7.191779505558e+00  -6.290094095995e+01   2.898969660428e+01 
1 -7.911669330258e+00   2.443014280331e+00  -2.125923724736e+01 
1 -6.541384315046e+00  -1.018809845542e+01  -1.742517156540e+01 
1 -2.446913033507e+01   1.399552497605e+01   1.168984565424e+01 
1 -3.129328110242e+01  -1.384967372213e+01  -4.923894238453e+01 
8
Step 38000
1  4.413872955477e+01  -9.010378373296e+00   4.387096163036e+00 
1 -6.428377039203e+01   6.389629711368e+00   5.139064475302e+01 
1 -4.700373065069e+01  -1.423786169196e+01  -8.551195531744e+00 
1  1.073968494809e+01   1.839619769978e+01  -5.802916721723e+00 
1  2.546603126856e+01   3.764514516182e+01   1.361645553550e+01 
1 -5.104464550039e+01   2.577963220439e+01   7.696415190026e+00 
1 -1.510738702844e+01  -5.611291542271e+01  -3.349464457259e+01 
1 -9.306346549415e+00  -8.028095902119e+00   1.262118165983e+01 
8
Step 39000
1 -4.189766491239e+01  -3.971935202983e+01  -3.611323508014e+01 
1  1.130701582548e+01   4.415798088144e+01  -3.672623435037e+01 
1  1.313692201166e+01   3.178523782933e+01  -2.090639213490e+01 
1  2.450640529090e+01   3.378429155976e+01   3.429743060382e+01 
1 -5.101216482809e-01  -2.059987856659e+01  -1.473067761813e+01 
1  4.804539161740e+01  -2.142652070589e+01   2.141142806974e+01 
1  2.746540335807e+01   3.191519478040e+01   5.502204856308e+01 
1 -3.840928007278e+01  -7.280855968941e+00  -2.457504729178e+00 
8
Step 40000
1  6.277038305409e+01   1.159721561503e+01   4.309182284638e+01 
1  3.651719766209e+00   5.568617276448e+00   3.208835006662e+00 
1 -3.077286793967e+01   1.242145046491e+01  -2.133462658575e+01 
1  2.643703664575e+01   2.326213774199e+01  -1.568644461748e+01 
1  1.301877658561e+01   3.198301821723e+01   6.451653508736e+00 
1 -2.086561773351e+00   2.294263230660e+01   2.930803906510e+01 
1  1.578145562173e+01   1.183236742331e+01   1.895700251597e+01 
1  2.042843079748e+01  -1.449846950912e+01   4.055861499110e+00 
8
Step 41000
1 -1.930617421182e+01   3.533004592377e+01   2.158813034629e+01 
1 -6.510689454451e+01  -2.988553142626e+01  -2.680041911713e+01 
1  1.248797366353e+01   2.386888795561e+01  -2.652969815202e+01 
1 -2.482506023682e+01  -3.066470374855e+01   1.456670329123e+01 
1  3.017839300346e+01  -9.654509002358e+00  -1.828553501866e+00 
1  2.842140630156e+01  -8.912275631328e+00   4.882654732973e+01 
1  2.711733120885e+01   5.042976382593e+01  -6.612249120880e+00 
1 -6.862667902234e+01   1.242840530377e+01   6.798065322448e+00 
8
Step 42000
1 -2.023087361666e+01   1.525773232576e+01   2.810626534797e+01 
1  6.450340700269e+01  -2.756730185351e+01   1.187547336289e+00 
1 -4.902488228889e+01   1.518750305550e+01   9.582765176663e-01 
1  2.844108594785e+01   2.420939730802e+01  -1.704291114861e+01 
1 -2.470996696079e+01  -2.478841114664e+01  -1.639633110899e+01 
1 -1.865821010055e+01   3.534720954869e+01  -6.795416062428e+00 
1 -7.087441514136e+00   3.476740953267e+01   6.736874884943e+01 
1  1.835740580678e+01  -2.389651396245e+01  -2.178812935995e+00 
8
Step 43000
1  1.504409612704e+01  -4.573847277283e+01  -6.839562695749e+00 
1 -4.395130399259e+01  -6.884831824614e+00   6.336163693224e+00 
1 -6.707268502866e+01   2.734458409818e+01  -3.984335506151e+01 
1 -1.867110958934e+01  -3.399371534293e+01  -4.379357465264e+01 
1  1.560529588808e+01  -1.375353617244e+01  -9.678877148888e-01 
1 -2.448079218771e+01  -4.012194866530e+01   1.833577943232e+01 
1 -1.999476073243e+01  -1.678427243347e+01  -7.509895215801e+00 
1 -4.955959125801e+01  -1.856536639691e+01   1.258419978318e-01 
8
Step 44000
1  9.089809414012e+00   1.939434912277e+01   6.227459910039e+01 
1  7.443664475660e+00   1.927954583332e+01   5.642685928059e+00 
1  2.760482813956e+01   3.763549970947e+01   2.335080530624e+01 
1  2.987487861877e+00   5.062449789383e+01  -1.300185189447e-01 
1  1.381406387644e+01   4.870049700985e+01  -3.159321919187e+01 
1  6.047937234110e+01   3.030260646350e+01   3.665433468191e+01 
1  5.208274702482e+01   3.081879061714e+01   8.107699336274e+01 
1  2.850824805312e+01   4.170876188299e+01   1.546682790232e+01 
8
Step 45000
1  1.115198074402e+00   1.066072474974e+01  -2.318206147258e+01 
1  3.748559567259e+01   7.249504321867e+00  -1.269570445346e+01 
1 -8.982675388953e+01  -2.409054411153e+01  -2.809159661265e+01 
1  1.821893078800e+01  -2.369850903095e+01  -2.819109888067e+01 
1 -1.494864740750e+01  -5.587373772371e+01   1.465993277311e+01 
1  2.497861756897e+00   3.077196372538e+01   2.633831864298e+00 
1  1.747314516043e+01   5.449832803239e+00   2.648078864256e+01 
1 -1.214358695458e+01   7.989081271533e+00   3.305830206669e+01 
8
Step 46000
1 -1.197193867974e+01   3.561557121271e+00   6.240048229236e+01 
1 -1.262855112242e+01  -2.697994201866e+01   4.354042486681e+01 
1 -5.331992054266e+00   1.908239039235e+00  -2.849261004366e+01 
1 -6.356400511508e+00  -1.269831986487e+01  -1.590966946664e+01 
1 -3.295659632869e+01   3.723735591307e+01  -5.126581950463e+01 
1 -3.961754107644e+00   5.800111945219e+00   2.883031173373e+01 
1  2.029292132121e+01   1.658276148343e+01   1.176086337832e+01 
1 -2.723416913958e+01  -6.288060731474e+00  -2.357416057749e+01 
8
Step 47000
1 -1.767688185449e+01  -3.301675058567e+01   5.475823637872e+01 
1 -2.192908689302e+01   8.185375567729e+00  -8.037388748106e+01 
1 -1.968446183970e+01   1.445192215660e+01  -1.055851883165e+01 
1  2.612997747220e+00  -8.699805827600e+00  -3.094758821924e+01 
1 -3.425357422776e+01  -3.257759799619e+01  -2.451645068314e+01 
1  3.527995678582e+01  -4.535422439998e+01   5.049602879178e+01 
1  1.875688446731e+00   6.498814019741e+00   2.165435891193e+01 
1 -6.884023820594e+01   2.052728768186e+01   2.100150165840e+00 
8
Step 48000
1  3.575496297930e+01   1.895716347635e+01  -2.295329613898e-01 
1  7.002005212982e+01  -3.347299501878e+01   7.604436028136e+01 
1 -6.744036410761e+01   8.105985838904e+00  -3.989146825331e+01 
1 -2.265166905705e+00   5.667281888697e-02  -4.138995870558e+01 
1  3.599707597700e+00   4.023679497418e+00  -2.314002797730e+01 
1 -2.449486773755e+01   5.127188880000e+01   1.110128825629e+01 
1  4.064028987479e+01   1.533705540357e+01  -5.416496810298e+00 
1  3.352241086662e+01  -2.158617554781e+01   2.602822091316e+01 
8
Step 49000
1 -5.063805041240e+01  -1.117311564516e+01   1.295580557836e+01 
1 -2.706487235149e+01   4.109779016010e+01   2.580821521993e+00 
1  6.339535559575e+00  -1.002219081496e+01   3.051377336333e+01 
1  2.300167015282e+01  -3.328923064397e+01  -2.082500136990e+00 
1  1.654403299026e+00   1.961681232403e+01  -1.960992836279e+00 
1  8.950217940914e+00  -2.939093211580e+01  -6.304320649773e+00 
1 -2.940708790465e+01   1.701902040937e+01   6.312069711447e+00 
1 -1.185430287327e+01  -1.625339963405e+01   2.578399406105e+00 
8
Step 50000
1  1.180784863523e+01  -2.481226644172e+00   2.144113380413e+01 
1  2.677609690434e+01   1.142246905053e+01  -2.468857948286e+01 
1 -7.180576212950e+00   5.394197317083e+00  -1.500505014659e+01 
1  6.266425934462e+00   1.352842034487e+00  -3.191689942565e+01 
1  8.479197547850e+00   1.175805679222e+01  -1.388120790115e+01 
1 -3.795507370974e+00   3.166998851699e+01   6.649535963591e+01 
1  7.772435111125e+01   3.025496748406e+01   1.627217398752e+01 
1  2.805989757397e+01   5.726424585110e+01   7.593099434714e+00 
8
Step 51000
1 -1.481227116561e+01  -7.142811665298e+00   4.022776543166e+00 
1  8.363363945693e+00  -3.758595897392e+01   3.508184134665e+01 
1 -4.590588583793e+01  -3.935936804885e+01  -3.207260529604e+01 
1 -3.713547257002e+01  -3.656498757944e+01  -6.493935042759e+01 
1 -1.518823198350e+01  -4.399152633366e+01   3.451524423306e+00 
1 -1.318449140335e+01  -2.319228698309e+00  -3.512073210693e+01 
1 -6.549762224006e+01  -3.904544243234e+01  -6.232074095702e+00 
1 -4.606740905575e+01  -5.550122282544e+01  -3.590350819335e+01 
8
Step 52000
1 -1.564853522888e+01  -1.941938645559e+01   5.921109484776e+01 
1  4.131171795428e+01   2.438481304352e+01  -2.924739198424e+01 
1 -1.698236160103e+01   3.544943176982e+00  -1.887986415928e+01 
1  4.279351961720e+01  -1.853868936189e+00   1.321691718267e+01 
1 -4.579263340436e+01  -5.232399429254e+00  -2.615292259249e-01 
1  4.603820887915e+01   6.093193916786e+00   4.646114406563e+00 
1  3.344678927759e+01   4.919714420747e+01   1.702310488961e+01 
1 -3.537307917799e+01   1.799864349032e+01  -2.096676753289e+01 
8
Step 53000
1 -2.591385998399e+00   1.958876710112e+01  -6.534803239768e+01 
1  2.989465541962e+01  -8.658724055006e+00   6.203970270903e+01 
1 -2.452612299343e+01   3.005120969329e-01   1.868894983919e+01 
1  9.254892870279e+00  -1.071521911220e+01  -3.573462503265e-01 
1  1.483057742785e+01  -3.389069749028e+01  -2.385476058829e+01 
1 -3.005363551472e+01   6.177853416037e+00   4.453854939606e+01 
1  2.147377906407e+01   6.381951491732e-01  -1.583095875136e+01 
1  2.763646788516e+01   1.023432317544e+01   4.443187192842e+00 
8
Step 54000
1 -4.524419803119e+00  -3.695477637266e+01  -2.214801200387e+00 
1  1.679171756823e+01   7.309206087730e+00  -3.493899976394e+00 
1 -3.548114497103e+01  -1.533782350733e+01   1.758296407334e+01 
1  3.677689336328e+01   7.321851387578e+00  -3.982398785624e+01 
1 -1.642705796986e+01   9.004429030774e+00   1.672420525079e+01 
1  5.893497850738e+01   1.185351179319e+00  -7.511829808262e+00 
1 -7.769836036169e+00   2.586371613514e+01  -3.099782643564e+00 
1 -1.579380991376e+01  -5.009720957301e+00  -3.682006288177e+01 
8
Step 55000
1 -3.340997668475e+01  -3.151392904625e+01   2.273462678183e+01 
1  4.775982174286e+01   3.390560983466e+01  -4.262104465246e+00 
1 -5.753598811873e+01   6.172768949764e+00  -1.509569490765e+01 
1 -1.149156064947e+00  -1.058068161562e+01   2.010990817724e+01 
1 -1.945634806830e+01  -2.999174738315e+01  -4.543394414490e+01 
1 -9.935012399320e+00  -1.990106331917e+01   5.102701001928e+01 
1  2.118039675747e+01   1.285106114538e+01   2.521651458423e+01 
1 -1.976132168758e+01  -1.071532127840e+01  -3.896922539310e+01 
8
Step 56000
1  3.015574083621e+01   1.722217149794e+01  -1.454786495413e+01 
1  4.912861755276e+01  -4.024625257550e+01   3.167085837606e+01 