8
Step 0
1 -9.321326070699e+00  -6.620647350791e+01   2.192230498819e+01 
1 -8.248198198250e+00  -1.617199106698e+01  -7.593054286380e+00 
1  2.400492857207e+01   3.392125150928e+01  -5.637948731377e+00 
1  2.126464604586e+01   2.348679313380e+01   6.886595029720e+01 
1  6.973119689275e+00   6.026314038082e+01  -5.613207189903e+01 
1 -4.185591075337e+00   2.039818970777e+01  -4.194277105585e+01 
1 -4.494768800927e+01   3.092602338611e+01  -2.494547172582e+01 
1  6.436472496678e+01  -6.150106059053e+01  -2.602981437612e+01 
8
Step 1000
1  2.003005361495e+01  -6.944404521821e+00  -2.664343507098e+01 
1 -3.055938460147e+01  -6.472824474104e+01  -9.146087512552e+00 
1 -4.505352348954e+01   6.259990362304e+01  -5.426207718916e+00 
1 -8.454848266495e+00  -6.124799442617e+01   7.853434106629e+01 
1  2.584313981541e+01   7.006973378062e+01  -5.840674465899e+01 
1  1.055933166773e+01   2.120533210366e+01  -3.014175555730e+01 
1  2.091132183339e+01  -3.442206775499e+01  -2.426053522910e+01 
1 -2.104760548086e+01  -5.441362460957e+01  -1.810673479680e+01 
8
Step 2000
1 -1.543204109062e+01  -1.826989984232e+01  -4.850560991476e+01 
1 -2.897926548378e+00   1.697601147973e+01   3.761354131428e+01 
1 -4.525314514663e+00   6.713227163880e+00   2.662326714422e+01 
1  3.227125425288e+01  -2.676039031646e+01  -1.275661438870e+01 
1 -3.757192153480e-01   3.433106516339e+01  -4.335198563844e+01 
1 -3.057143749794e+01   1.145372909876e+01  -3.395692084236e+01 
1 -5.668503491881e+01   5.985132983676e+01   1.209310579026e+00 
1  2.270233569073e+01   8.750687476224e+00   3.221620863656e+01 
8
Step 3000
1 -2.886939624778e+01   4.917964146598e+01  -7.700375224455e+00 
1 -3.464345783848e+01   1.856467077231e+01  -2.368909381223e+01 
1  1.979990854030e+01   3.423270944986e+01   1.144829764471e+01 
1  2.851408148034e+01   1.145443766249e+01   6.972963542035e+01 
1 -7.035768860633e+00   1.447541175059e+01  -1.470690012254e+01 
1 -2.590306586246e+01   4.928884554967e+01  -2.936421495560e+01 
1  1.608205242797e+01  -4.485430871523e+01  -4.226255301418e+01 
1 -2.203768884874e+01  -3.549779585081e+01  -1.928171841792e+00 
8
Step 4000
1 -2.990783804914e+01  -3.541626290453e+01  -1.137969511040e+01 
1  1.195653108319e+01   3.770911121147e+00  -1.689362890333e+01 
1 -4.007064954797e+01   6.812145025722e+00  -1.568628351467e+01 
1  1.877485698424e+01   1.370800527663e+01   1.887630902294e+01 
1  2.690825493094e+00   5.628131834846e+01  -1.344358353696e+01 
1 -3.641688462142e+01   5.834425055007e+00   1.285172639254e+01 
1  1.474080315913e+00  -2.681173839516e+01   9.404082261821e+00 
1 -9.249050635134e+00  -5.417563266407e+01  -7.864553745599e+00 
8
Step 5000
1 -1.340029463292e+01  -4.341950625815e+01  -3.187108412301e+01 
1 -2.476209169164e+01   7.096837874520e+00   7.503293569941e+01 
1  1.631577957023e+00   1.514880533653e+01  -7.471768316897e+00 
1 -2.691637103163e+01   3.371068731081e+01   1.391374734627e+01 
1  3.797656540947e+00  -2.892316675246e+00  -3.734766310183e+01 
1 -2.242472760051e+01  -1.316157699133e+01  -4.086790198600e+01 
1  4.490634206196e-01  -9.448539968828e+00  -1.885588225001e+01 
1  5.866936479980e+01  -3.776861950404e+01   3.712617424041e+01 
8
Step 6000
1  6.743381911231e+01  -3.083076272001e+01   2.547525000036e+01 
1 -1.132197508333e+01   2.029732767494e+01  -3.356517839742e+01 
1 -2.450391279862e+01   1.394245127202e+01  -4.706193789782e+00 
1  2.338516227647e+01   4.882188848012e+00   9.023875587497e+01 
1 -1.763873357349e+00   5.532393468309e+01  -6.852625128861e+01 
1 -3.081058488097e+01   3.449463445742e+01  -9.278183474927e+00 
1 -6.019206515526e+00  -5.681312966359e+00   4.985320454765e+00 
1  1.816331919729e+01  -2.858600071768e+01   6.203967695277e+00 
8
Step 7000
1 -7.636782361227e+01   4.179533451124e+01  -3.425609972208e+01 
1 -1.165485344846e+01  -5.569457163998e+00   2.581175735548e+01 
1  1.032731727583e+01   6.372564556266e+01  -3.570780331052e+00 
1 -1.975763527276e+01  -4.275162251624e+01  -1.073537417535e+01 
1  2.834773925528e+01   5.537160550828e+00   1.360358169300e+01 
1 -3.220783376180e+01  -6.701185276678e+01   1.009309626278e+01 
1 -1.711200484922e+01   2.734380985419e+01   5.323077252252e+00 
1 -1.965513621304e+01  -2.111598804797e+01  -1.869965440811e+00 
8
Step 8000
1  5.546293588740e+00   3.174527448324e+00   2.204182096532e+01 
1 -1.184190620940e+01   1.841661277599e+01  -2.130331306302e+00 
1 -5.005046325654e+00   3.564758655332e+01  -1.603337522705e+01 
1  1.191996525309e+01   2.744894152381e+01   6.584412948286e+01 
1  1.402084221105e+01   3.977881041266e+01  -1.490434008226e+01 
1  3.031444071286e+01   2.966154056871e+01  -1.827413843951e+01 
1 -2.776829339173e+01  -4.764405530257e+01   2.153380376988e+00 
1 -8.176590268507e+00  -3.215841246913e+01   3.199579484106e+01 
8
Step 9000
1 -3.186975935802e+01  -1.658686009431e+01  -5.058814084719e+00 
1 -2.174733576238e+01   2.267985447123e+01   6.511256346161e+00 
1 -3.508217213946e+01   3.320964181729e+01   2.162112217041e+01 
1  2.531516570565e+01  -1.752989118818e+01   1.208248704727e+00 
1 -2.637054343810e+01   2.168370985843e+01   3.793300288596e-01 
1 -2.950309303935e+01  -2.970793471942e+01   4.562079757275e+00 
1  1.766728640638e+01  -1.769673655511e+01   1.453806305180e+01 
1  4.471586352640e+01  -6.213658876918e+01   2.354359086444e+01 
8
Step 10000
1  2.026659976347e+01  -5.136250942085e+01   4.440617974763e+00 
1  2.283956013875e+01  -8.739385898791e+00   3.335227316562e+01 
1 -1.753050044444e-02   5.577427673834e+00  -2.000257732294e+01 
1 -1.912485002690e+01   4.816573843841e+01  -3.826697206585e+01 
1 -1.610538752183e+01  -6.407667293184e+00   3.427440087122e-01 
1 -1.247496713517e+01  -1.445705287008e+01  -4.391583205700e+00 
1  3.418144973904e+01  -2.814704829686e+01   3.646765697392e+01 
1 -1.027113705657e+01   2.226467016538e+01   3.826144446756e+01 
8
Step 11000
1 -8.227904141079e+00   1.932235657170e+01   5.171222954595e+01 
1 -2.373417105749e+01   2.769036282786e+01   2.580024760467e+01 
1 -3.308555186014e+01   6.465631669898e+00  -3.974515036659e+01 
1  3.363978203575e+01   3.809194058488e+00   7.635083688731e+01 
1  7.744652125531e+00   2.143599940018e+01   2.271822967220e+01 
1  1.650748130543e+00   4.645152794364e+01  -5.849922758812e+00 
1 -3.735416035025e+01  -2.505618908545e+01  -1.128313135808e+01 
1  3.296873431254e+01  -3.504977129172e+01  -6.315628523129e+00 
8
Step 12000
1  2.896804534152e+00   2.260669436500e+01  -4.921235417980e+01 
1 -8.179765847134e+00   3.825651090344e+01   1.861742827940e+01 
1 -1.836516995967e+00   1.761883985027e+01   3.858328318443e+01 
1 -7.333877684724e+00   2.071494505725e+01  -2.303141028325e+01 
1  5.813383434726e+01  -1.357934853107e+01  -1.530754382866e+00 
1 -4.142484514563e+00  -4.254304230773e+01   3.199862684887e+01 
1 -2.561803614001e+01   2.259862668993e+01   2.566468411104e+01 
1 -5.233287239584e+00  -3.657860167760e+01   4.782529145894e+01 
8
Step 13000
1 -3.234558237118e+01   2.516507106055e+01  -1.316573651777e+00 
1 -4.731349835300e+01   2.079982753732e+00   3.942617735762e+01 
1  5.335779493985e+01  -2.300445707344e+01  -3.218044956159e+01 
1 -4.370089421632e+01  -2.466657633995e+01  -1.871447273530e+01 
1 -1.862546037991e+00  -3.405611494104e+01   2.244795465307e+01 
1 -1.632232553059e+01  -1.482708528233e+01   1.306058905372e+01 
1  3.800912857285e+00  -2.757666560428e+01   2.422530669932e+01 
1  1.353178664325e+01   7.747280764409e+00   3.968000704282e+01 
8
Step 14000
1  2.929193388478e+01  -3.702147204560e+01   5.986930317968e+01 
1  3.346999483589e+01  -3.812151974129e+01  -2.059798033770e+01 
1  1.186734506490e+01   5.993098191120e+01  -3.374691470189e+00 
1 -8.693678930883e+00   4.109847512039e+01  -1.507286737532e+01 
1 -3.833779901431e-01   3.071848059315e+01   1.473662243968e+00 
1  4.411013905936e+01  -5.771014285167e-02   4.526491490114e+01 
1  1.907022520000e-02   1.748166658272e+01   7.078887176575e+00 
1  4.039698120102e+01  -6.850528390289e+01   1.950636090314e+01 
8
Step 15000
1 -2.910599445666e+01  -1.323850059159e+01  -2.276650403379e+00 
1 -1.880765525139e+00   6.830752527481e+00   6.408358075109e+01 
1  2.849173769975e+01  -5.708597341736e+01  -1.608204131970e+01 
1 -4.037756424855e+01  -9.743813968148e+00  -5.155560876766e+01 
1 -2.281966375330e+01  -2.300806449575e+00   5.685954564686e+01 
1 -5.049580233392e+00  -2.176422384066e+01   4.214071052885e+01 
1  7.785592162979e+00  -5.623222184228e+00  -2.065110439434e+01 
1  2.713985767034e+00   3.834763164196e-01   2.224625595244e+01 
8
Step 16000
1  4.239184999001e+01   2.129225439270e+01  -1.038890321875e+00 
1 -2.187362261354e+01   1.821518892518e+01   6.885973396438e+00 
1  3.091515484890e+01  -1.992492607527e+01   5.633763669491e+00 
1  4.917345145156e+01   1.833754625824e+01   3.935684158903e+00 
1  1.494667414025e+01  -5.974302842433e+00   1.631055741063e+01 
1 -9.167837562574e+00   1.667984205534e+01  -8.299686639910e+00 
1  1.447048280983e+01  -1.570774984954e-01   2.684061040268e+01 
1  9.959977671190e+00  -3.060235973302e+00   1.265437909837e+01 
8
Step 17000
1 -7.189584221029e+01   4.898977040466e+01   1.309503860446e+01 
1  4.973545697902e+01   3.386564588603e+01   1.787684356939e+01 
1 -2.958816003453e+00  -4.799263715169e+01   5.033333854920e+00 
1 -4.198153089525e+00  -2.945279752429e+01  -2.922616013409e+01 
1 -3.156445837317e+01  -4.730718169579e+01   3.028981204502e+01 
1  9.386808147942e+00  -1.400759274858e+01   3.747297013697e+01 
1  1.662334027933e+01   7.695631446841e+00   1.450637682598e+01 
1  2.734197566872e+00   7.821747152371e+00   2.110335000366e+01 
8
Step 18000
1  5.317904021334e+01  -3.835286723121e+01  -3.523511773947e+01 
1 -2.670475215271e+01  -3.494609654394e+01   3.195964244338e+01 
1  9.535809914218e+01  -1.149311710575e+01  -5.777163335498e+01 
1 -7.817867673410e+01   2.123794418247e+01  -7.355386803446e+01 
1  4.414768547085e+01  -6.047562201457e+01   3.722192464083e+01 
1  4.272998262295e+01  -1.236853184902e+01   3.167761408571e+01 
1 -2.844597581793e+01   7.835146418280e+00   1.831285551548e+01 
1  3.281990687493e+01  -1.148303114965e+01   3.418538450953e+01 
8
Step 19000
1 -1.131701090731e+01   3.462008537454e+00   5.049323589361e+01 
1  2.097557107210e+01  -2.276768265142e+01  -1.579467947094e+01 
1  4.053673086819e-01  -3.093643547504e+01   3.574335510442e+01 
1 -1.968169717214e+01   4.316351574588e+00   5.152010484240e+00 
1  2.562952761889e+01  -1.013043207726e+01  -4.319248574882e-01 
1 -2.931121683611e+01   2.391609768957e+01   5.114587297462e+00 
1  1.494140427634e+01   3.765156373179e+01  -1.240879519457e+01 
1 -4.765882961931e-01  -5.362663504629e+01  -7.215456295019e+00 
8
Step 20000
1  1.956775277724e+01   1.226748281222e+01  -3.606135837572e+01 
1 -5.408374088433e+00  -1.748528818027e+01   2.228081555899e+01 
1  9.548454367322e+01  -8.622649444876e+00  -1.055643648321e+01 
1 -9.879420096285e+00   1.234088085661e+01  -3.692805984279e+01 
1 -3.930901477007e+01   2.491952036671e+00   3.182009421058e+01 
1  3.475128821351e+01  -1.768290213228e+01   2.447778291708e+01 
1  1.582949662224e+01  -1.351208290509e+01  -1.562087257098e+01 
1  4.603686504343e+01   5.025438801885e+01  -8.032458307648e+00 
8
Step 21000
1 -1.027125090105e+01   4.896875522348e+01   1.734782093053e+01 
1  3.080935801134e+01   1.101325846615e+01  -1.123352382153e+01 
1  1.664393891747e+01  -7.887181026760e+01  -2.908418351358e+01 
1 -6.552230954916e+01  -5.024914697472e+01  -2.048518796948e+01 
1  3.895572889995e+00  -6.031615011379e+01   8.107714993601e+00 
1 -4.563824402557e+00  -3.345868702568e+01   2.292269197198e+01 
1 -2.179221120969e+01   7.499301918188e+01  -1.823960923763e+01 
1 -5.520325879295e+00   3.660852887229e+01   3.237865902093e+00 
8
Step 22000
1  2.366189269325e+01   8.766284280494e+00  -1.702414216231e+01 
1  2.337918838026e+01   1.892134690488e+01  -1.673635061355e+01 
1 -6.897289968264e+00  -2.018001984003e+01   2.176331423352e+00 
1  5.588246552539e+01   2.819723771359e+00  -3.068567703160e+01 
1  7.975163640592e+00   2.992629177515e+00   3.128627841622e+01 
1 -1.211409394001e+01   1.114094843157e+01   1.565105612325e+01 
1  4.428246395514e+01  -1.339647776669e+01  -3.731209287857e+00 
1 -1.372505422192e+01   1.200888883916e+00   3.795613031175e+00 
8
Step 23000
1  4.189393008248e+00  -3.909636716490e+01  -3.028637204389e+01 
1 -3.001622989779e+01   8.265620293153e+00   1.220564946607e+01 
1  6.645991179309e+01  -4.956257274230e+01   2.408299711505e+01 
1 -4.698060970273e+01   1.008782172370e+01  -5.122885369276e+01 
1 -8.462292128004e+00  -5.576427209936e+01   1.355082231529e+01 
1  4.234767537374e+01  -1.477126457342e+01  -1.242940464895e+01 
1 -4.759060165384e+01   7.743300930194e-02  -3.175998615395e+01 
1  3.938097151703e+00   3.054467162302e+01  -2.146473120305e+00 
8
Step 24000
1  4.450006084759e+00  -2.446558825820e-01   5.554158387127e+00 
1  2.851885557819e+01  -6.027333907304e+01  -2.579740473952e+01 
1  3.101666923946e+01   1.232100175897e+01  -6.059955482470e+00 
1 -3.763641057611e+01   3.376238180315e+01  -4.270093815609e+01 
1  4.191084628128e+00  -4.135472718812e+01   1.381622235287e+01 
1 -1.974057092105e+01   3.128533737595e+00  -9.555956967989e+00 
1  1.483637946961e+01   4.672153635176e+01  -2.954462225518e+01 
1  4.870847592899e+01  -1.008406989156e+01  -2.688482033720e+01 
8
Step 25000
1  1.981600425897e+01   7.064202716458e+01   7.107170487828e+00 
1  4.621236288440e+00   4.617477537082e+00   1.094568690688e+01 
1  2.926405383940e+01  -4.534896156133e+01   3.285640447164e+01 
1 -5.163488469294e+01  -1.213913585382e+01  -1.733399562792e+01 
1  1.914122315727e+01  -2.125969485804e+01   3.897445498411e+01 
1  2.745134733609e+01   3.932743282118e+01  -1.999148729752e+00 
1 -3.268403247182e+01   2.849759481603e+01  -4.884683116758e+01 
1 -1.442479962551e+01   7.664429747349e+01  -5.870237012804e+01 
8
Step 26000
1  2.000742579605e+01  -7.768879149865e+00  -4.806329702944e+01 
1  1.173658392099e+01  -2.988106519718e+01  -3.596663464680e+01 
1  4.976392400613e+01   5.214226087666e-01  -2.535608397104e+01 
1 -1.531706066741e+01  -1.232133961370e+00  -6.691675146261e+01 
1 -4.063340089321e+01  -3.943877019537e+01  -8.115719993414e+00 
1 -1.101786407170e+00  -5.164019485680e+01   3.214620642524e+01 
1 -1.467269274074e+01   2.488948900987e+00  -1.799703976020e+01 
1  2.228724887881e+01   4.446686183609e+01   1.317496371337e+01 
8
Step 27000
1  1.504278036831e+00  -5.718626347655e+00   2.755137381137e+01 
1 -3.389567707495e+01   5.740178723291e+00  -4.244770298641e+01 
1 -1.718350743908e+01   1.215295074396e+00   3.897394606209e+01 
1  5.535170267854e+00  -3.790653324153e+01   1.753386876884e+01 
1 -6.073140290920e+00   5.775008570088e+00   5.025305351149e-01 
1  6.598558358458e-01   5.249984964789e+00  -1.856565783231e+01 
1 -1.652040041983e+01   2.942087049592e+01  -5.893693011813e+01 
1 -2.873801427525e+01  -5.212149371609e+00  -3.767827253869e+01 
8
Step 28000
1  2.070733313216e+01  -4.195918628819e+01  -6.674605098113e+01 
1  3.821204804588e+01  -3.310151626702e+00   5.005356890092e+01 
1  4.855548660157e+00  -5.481569091157e+00   6.643094331259e-01 
1 -3.574491016018e+01   4.799985451714e+01  -7.793382822071e+01 
1 -2.413220859859e+01  -2.072963002630e+01   1.847835084658e+01 
1  1.547666101882e+01  -3.254384191083e+01   1.302363677814e+01 
1  2.450749520286e+01   2.647250651868e+01  -5.561151883722e+01 
1 -7.549540346068e+00   5.865698389220e+01  -6.970252787057e+00 
8
Step 29000
1  7.640767891321e+01  -1.428725836556e+01   5.327349912297e+01 
1 -3.677504187604e+01   3.607702989431e+00  -7.723896877137e+01 
1 -2.244843388986e+01   3.083266069765e+00   2.699301887946e+01 
1 -2.573329365743e+01  -3.463244416200e+01  -2.900193570025e+01 
1 -4.273159585998e+01  -3.885764255887e+01  -1.724997906975e+01 
1  1.627452734812e+01   2.411543511511e+01  -3.138602164803e+01 
1 -9.218742885272e+00   5.568966979770e+01  -2.192352715496e+01 
1 -3.238051795680e+01   9.012241003408e+00  -7.393077747467e+01 
8
Step 30000
1 -2.648592693889e+01   4.385922041934e+01  -5.043338549790e+01 
1  1.297190159398e+01  -6.259879659438e+01   4.220736758807e+00 
1  2.905626017027e+01   1.194099365084e+01   4.885117774158e+01 
1  1.442093247947e+00   3.835724514755e+01  -2.706774844928e+01 
1 -1.433320455206e+01   3.548193698934e+00   2.191946067299e+01 
1 -2.922059412801e+01   2.940582242114e+01  -1.269653378151e+01 
1 -3.276107293142e+01   1.276906526309e+01  -2.481966484449e+01 
1  1.758790929478e+01   1.566682970216e+01  -1.348515994153e+01 
8
Step 31000
1  6.596069838060e+00  -9.776454188232e+00  -1.034105931392e+00 
1  4.950322673363e+00  -1.166621588647e+01  -2.960543210119e+01 
1  6.811536604241e+00   3.793326228797e+01  -2.230090198348e+01 
1 -6.173914403022e+01   4.019029969817e+01  -1.279652309267e+01 
1  2.124730029464e-01  -7.758818910710e+01   9.553317686970e+00 
1  2.697205462120e+01  -2.934536376843e+01   1.146927674599e+01 
1  1.447897268934e+01   2.647278136640e+01  -3.383650760881e+00 
1 -2.108040118961e+01   5.959328967537e+01  -7.813760473355e+00 
8
Step 32000
1  1.425011336707e+01  -1.551052400217e+01  -1.062328477309e+01 
1 -6.501476394371e+00  -2.077921826336e+01  -6.234417325954e+01 
1 -6.129759227539e+01  -3.381079382839e+01   3.871423497334e+01 
1  4.350737556075e-01  -3.985917365823e+01   4.256925744860e+00 
1 -5.744348820807e+01  -2.689279073715e+01  -7.863078924841e+00 
1 -3.062276612764e+01   2.625735805547e+01  -4.723989368246e+01 
1 -4.182414421703e+01  -5.852408827467e+00  -2.377075700052e+01 
1  3.334833907746e+00  -1.581323847850e+01  -6.413028974323e+01 
8
Step 33000
1  2.026537944173e+01  -3.702479485509e+01  -7.145805265435e-01 
1 -2.996134251034e+01   9.942158284906e+00   6.141329468342e+01 
1 -1.419600037624e+01   4.303764162334e+01   1.947082157939e+01 
1 -8.898987570929e+00   4.114109824599e+01  -5.228095408467e+00 
1  2.441135097989e+01   1.964498761450e+01  -2.410515797223e+01 
1  3.163982519443e+01   2.717436251477e+00   1.012341845759e+00 
1  1.275507226328e+01   2.166842174293e+01  -6.074025155737e+01 
1 -3.511192789944e+01   6.738021223216e+01   1.162737534801e+01 
8
Step 34000
1 -1.026773943360e+00  -1.515473976396e+01   6.304824908822e+00 
1  4.409827841086e+01  -2.860660975986e+01  -6.712169896373e+01 
1 -6.314413637993e+00   2.328549198592e+01   2.542208443759e+01 
1 -1.969448108935e+01   4.187872647962e+01   6.465868775568e+00 
1 -3.698546614775e+01   1.653142433863e+01  -1.626926369766e+01 
1 -1.815439631299e+01   2.443152154010e+00  -5.883410622945e+00 
1  5.548908805823e+00   3.506107344908e+01   4.093897657545e+00 
1 -1.478216076786e+01  -2.599691481996e+01  -9.522026838866e+00 
8
Step 35000
1  6.501747011318e+00   1.467738483597e+01   1.480111864129e+01 
1 -1.965225308153e+01  -1.772627457063e+01  -1.167310204559e+01 
1 -7.388689753591e+01   1.897407918694e+01   1.618447583614e+01 
1  2.044215118334e+01   1.049581775415e+01  -9.548733259126e+00 
1 -2.737464174174e+01   1.705064424280e+00   3.568303148091e+01 
1 -2.690023034864e+00  -1.329543671313e+01   1.750578243681e+01 
1 -9.778796284875e+00  -5.704585678154e+00  -3.069713132605e+01 
1  1.453684454422e+01   9.741081572893e+00  -3.796251033988e+00 
8
Step 36000
1  2.522993244661e+00   4.602987386363e+01   1.658942591381e+01 
1 -5.678506398142e+01  -4.080159636861e+01  -5.059707765640e+01 
1  2.007607069824e+01   3.040286472343e+01   4.736853959896e+01 
1 -2.965872775138e+01  -1.983513965187e+01   2.799307825837e+01 
1  1.118646950665e+00   1.497084364068e+01   1.202472651950e+01 
1  2.449746123703e+01  -2.359748936149e+01   2.649007064287e+01 
1 -1.484158778213e+01   6.835658034290e+00   9.659565527377e+00 
1 -4.470006876696e+01   4.495363849036e+01  -4.431356468933e+00 
8
Step 37000
1  1.122497275028e+01  -2.670944669435e+01   4.715961254886e+01 
1  3.031142857707e+01  -3.274277621193e+01  -3.378533000052e+01 
1 -5.893142652310e+01   2.949079766724e+01   1.741054303066e+01 
1  1.526559179429e+01   4.485854808464e+01  -2.563670011842e+01 
1 -2.955687199521e-01  -2.188713945574e+01   6.803062288295e+00 
1 -2.695503494210e+01  -2.191825296980e+00  -4.367667259295e+01 
1 -1.081331688904e+01   4.488164804402e+00  -1.082595926632e+01 
1  3.385245280441e+01  -2.257375900707e+01   1.335991852594e+01 
8
Step 38000
1 -2.371813609803e+01   2.100532673206e+00   5.778520120933e+00 
1  2.951830175072e-01   4.387745362832e+00   4.316419368139e+01 
1 -4.345737370051e+01   2.464660355558e+01   2.431065577775e+01 
1  1.692461049439e+01   4.406412302818e+01   2.551848294396e+00 
1  8.380106252730e+00   3.545884553277e+01  -1.333577731647e+00 
1  2.765147769364e+01   1.212264753390e+01  -3.192697476999e+00 
1 -4.230121213690e+01  -5.514045892364e+01  -2.684154502941e+01 
1 -3.642800819896e+01   1.175050188552e+01   1.678547650181e+01 
8
Step 39000
1  3.429507089382e+01  -2.323296160980e+01   3.995881108177e+01 
1 -4.144933444944e+01   6.304684912554e+01  -3.737289622083e+01 
1  2.534968202237e+01   2.707449922582e+01   3.003710189592e+01 
1  6.692225368392e+00   1.596477844050e+01   4.493790767787e+01 
1 -5.641160683494e+00   3.384849769237e+01   3.273580229448e+01 
1  2.464336114914e+01  -1.707202263380e+01   2.796792824911e+01 
1  5.439142834757e+01   2.891780931029e+01   3.288339046608e+01 
1  2.195315084291e+01   2.687132969468e+01   8.287360724708e+00 
8
Step 40000
1 -8.808865599144e+00   9.211705081258e+01   1.852651251964e+01 
1  2.256593770176e+01  -6.530532288416e+01  -3.999246441476e+01 
1 -7.990966510644e+01  -1.034333535160e+01  -1.302256650350e+01 
1 -1.427779112495e+00  -2.684257633456e+00   2.286463824975e+01 
1 -1.208601835264e+00  -5.785193118128e+01  -8.611224433574e+00 
1 -3.581174818923e+01   1.275222492168e+01   1.604201569478e+01 
1 -2.430576316146e-02  -1.977851884262e+01  -4.267941912392e+00 
1 -2.863633697344e+01  -4.748127995981e+01   7.490944010449e+01 
8
Step 41000
1 -4.869954688410e+01   2.689506697916e+01   4.214627858500e+01 
1  2.030484467543e+00  -2.865624694308e+01   3.187688093550e+01 
1  2.794191246122e+01  -8.166547563698e+00   2.227615371621e+01 
1  4.320704502532e+01   5.021591523635e+01   1.599163281225e+01 
1  1.013997123789e+01   2.139610858464e+01   7.275398885093e+00 
1  2.668865392398e+01  -1.574837513583e+01   4.350053957931e+00 
1  7.527430844644e+00  -9.356659768520e+00   3.306133490204e+01 
1 -3.235230797472e+00   1.107590835006e+01  -9.174010301624e+00 
8
Step 42000
1  5.441678030957e+01  -1.479514055553e+01   5.932311568790e+01 
1 -1.076516339853e+01   1.917759808708e+01  -6.435080746815e+01 
1 -1.376070403078e+01   7.566914972418e+01   3.188087699802e+01 
1 -2.353857884024e+01  -5.407762783563e+00   4.744464237615e+00 
1  7.545141724944e+00  -7.906726985226e+00  -5.886712628501e+01 
1  1.416886613684e+01  -4.862856518703e+01   1.492031256726e+01 
1  1.104530275404e+01   1.123762135976e+01   5.298670097092e+01 
1 -9.272486143529e+00  -2.546268222418e+01   3.813475276908e+01 
8
Step 43000
1  1.278349433256e+01   4.198084240725e+01   1.192531280542e+01 
1  3.253265935677e+01  -4.227812431244e+01   6.161632394605e+01 
1 -3.165687188105e+01   9.307402714854e+00   5.275539077942e+00 
1  2.204406026377e+01   1.611793892417e+01   1.421917406078e+01 
1  3.072508302065e+01  -3.249775437687e+00   6.473505852012e+00 
1  2.266482538434e+01   4.118228032626e+01   2.471970568804e+00 
1  5.584289039139e+00  -5.090013879855e+01  -1.327744230691e+01 
1  3.234587983762e+01  -1.268334373410e+01   5.429448454198e+00 
8
Step 44000
1 -4.699637132059e+01   3.998971873450e+00  -7.675766136051e+00 
1  2.343989478411e+01   5.540845932048e+01   1.235732835197e+00 
1 -1.058541937885e+01  -1.415784105578e+01   4.546446008473e+01 
1  1.271505362790e+01   2.108702933055e+01   1.592569445461e+01 
1 -1.103869727912e+01   1.427157532645e+01   1.491072413937e+01 
1  3.999130618948e+01  -3.344716130797e+01  -1.915471364974e+01 
1 -1.883060008411e+01  -8.113006397860e-01   8.798096067650e+01 
1 -1.959385701965e+00  -6.609281787300e+00   6.075659030897e+01 
8
Step 45000
1 -4.069762107510e+00   7.709381487675e+00   2.505540073734e+01 
1 -2.322384229505e+00  -1.273732152560e+01  -2.947563204544e+01 
1  4.159441003246e+01  -3.975476314427e+00   1.329952470713e+01 
1  1.164949130454e+01  -3.867327066895e+01   6.555033080309e-01 
1  9.929250906411e-01   1.633927614143e+01  -4.559023587144e+01 
1  1.315415525036e+01  -6.224479639751e+00   5.286405185973e+01 
1  2.755828510020e+01  -3.259888167849e+01   2.833236817901e+01 
1  2.168607771842e+01  -1.651991213285e+01   2.546634350040e+01 
8
Step 46000
1  4.267617182541e+00   3.949304327420e+01   6.321918963710e+01 
1  5.952296149689e+00  -7.437561196858e+00   3.352568370960e+01 
1 -7.983155307319e+00  -2.526413762900e+01  -2.926650447955e+01 
1  4.165778727905e+01   1.342387184096e+01  -1.869887518195e+00 
1 -1.794241704347e+01   1.799970262940e+01  -1.992925529527e+01 
1 -7.375417826115e+00  -1.398910694416e+01  -4.365561267710e+01 
1 -1.911923638799e+01  -8.347636834808e+01  -1.777770660475e+00 
1 -3.354549367794e+01  -3.360613929354e+01   2.166938580512e+01 
8
Step 47000
1 -9.830825947729e+00   3.118544986375e+01   3.550389064992e+01 
1  8.553031479477e+01  -7.487633481579e+00  -1.770290270647e+01 
1  3.554090108602e+00   4.096913014216e+01   3.694472927489e+01 
1  4.439276929031e+01   2.478350157001e+01   3.718272161312e+01 
1  2.354814785659e+00   4.591409362039e+00  -3.264817450286e+01 
1  6.406291092544e+01  -2.024741183738e+01   4.769699505904e+01 
1  6.518729001064e+01   4.199456556955e+01   2.128956838046e+01 
1  1.957058564925e+01  -2.013643060539e+01   1.258579957674e+01 
8
Step 48000
1  2.479396591186e+01   1.331495022736e+01  -2.972111351458e+01 
1 -1.820406651558e+01  -9.824503596392e+00   3.130659874888e+01 
1  2.223125553226e+00  -1.498250326809e+01  -2.677650555966e+01 
1  1.726856260423e+01  -3.522918207515e+01   2.461510868790e+01 
1  2.057396885397e+01   3.184083599064e+01  -2.388211771413e+01 
1 -5.250622149094e+01  -1.002165244303e+01   3.815251397660e-01 
1 -2.046956135216e+01  -6.969285077397e+01   1.360207473187e+00 
1  2.429660559096e+01  -3.500062698274e+01   3.613351444818e+01 
8
Step 49000
1 -4.997845066025e+01  -3.493604891574e+01   3.974360141523e+01 
1 -1.894674304270e+01   1.297494537065e+01  -2.752535112944e+01 
1  3.027150421171e+01  -2.676063639252e+01   2.546097067639e+01 
1  4.578618342546e+01   4.584223244043e+00   1.722629241551e+01 
1  1.583779958248e+01   4.691456746488e+01  -3.732545862338e+01 
1  6.926707471802e+01   5.967927663094e+00   2.499290694621e+01 
1  3.023612211015e+01  -2.804841891769e+01   2.737145004068e+01 
1 -6.034087111071e+00  -5.322367373336e+01   2.972408544993e+01 
8
Step 50000
1  2.354989093475e+00   2.523864264078e+01  -1.718861467248e+01 
1  6.011901425729e+01   3.044490031793e+01   3.145665292748e+01 
1  1.654775799661e+01  -9.118149046467e+00  -1.481403900971e+01 
1  5.188104111409e+00  -3.026105463106e+01   6.226879584660e+00 
1  1.168266948229e+01  -2.640034019932e+01   9.835639219214e-01 
1 -2.327908135321e+01   2.219168962625e+01  -1.366565747035e+01 
1 -4.417687115982e+00  -2.654603649742e+01   3.089495460979e+01 
1  1.160560914629e+01  -2.852464639724e+01   1.430393929838e+01 
8
Step 51000
1  2.528750506531e+01   1.582800642017e+01   2.618568647346e+00 
1 -2.585557908918e+01   5.354661498978e+00   1.001363243274e+01 
1  3.540468587059e+01  -7.674067480218e+01  -5.389438364097e+01 
1  1.769021530865e+01  -1.363985156476e+01   6.674302646668e+00 
1  4.114627350512e+00   5.388820677474e+01  -1.809937698371e+01 
1  1.071891977884e+01  -2.895047323281e+00  -2.563483069563e+01 
1  1.226839372482e+01  -5.240820639916e+01  -2.580050447801e+01 
1  2.740301171584e+01  -5.951387765909e+01  -8.286204567147e+00 
8
Step 52000
1 -2.276729394816e+01  -3.876024552805e+01   3.119613271063e+00 
1  1.862167800364e+01   1.134441729608e+01  -1.868366098906e+01 
1  5.925723961200e+01   4.327167580341e+00   6.102231127972e+01 
1  3.931108089778e+01   2.898914552290e+01   2.280594705614e+01 
1 -9.484176873079e+00   6.718524638303e+00  -3.487619271628e+01 
1  2.270960378955e+01  -1.504046129262e+01   2.980852166775e+01 
1  3.973803166571e+00   3.717777029425e+01   1.070955913711e+01 
1 -1.407919696654e+01   8.341112098585e+00  -4.098773695195e+01 
8
Step 53000
1  4.053093676814e+00   3.132896649547e+00  -6.404747634497e+01 
1  2.214589279590e+01  -5.361554824020e+01   3.752661079251e+01 
1 -6.583360311547e+01   3.863527852273e+00  -9.785902257652e+01 
1  3.334202610515e+01  -3.069496441716e+00   4.001523676602e+00 
1  1.555793931335e+01  -6.955990557435e+00   4.826639625244e+00 
1  1.709932781720e+01   4.277390450680e+01  -1.840011637374e+01 
1  4.069079928571e+01  -7.946920578160e+00   4.637643610618e+01 
1  3.624674122511e+01  -7.479062232438e+01   5.874273628504e+01 
8
Step 54000
1 -5.836743013091e+00  -4.222817327122e+01  -2.559093245982e+01 
1 -3.133609314080e+01   2.798796773727e+01  -1.488082636966e+01 
1  4.094684980110e+01  -3.892642734906e+01   5.060294260467e+01 
1  2.264827718398e-01  -2.732313972063e+01   9.597203692373e+00 
1 -3.147733414410e+01   3.716570742593e+01  -5.808051060828e+01 
1 -1.257282745734e-01  -6.472482300395e+01   1.128819311639e+00 
1 -4.837984049673e+01   4.219855894667e+01  -5.645606896686e+01 
1 -2.529102077392e+01  -5.803060230063e+01  -5.193350712826e+01 
8
Step 55000
1 -4.936685781937e+00   7.684170173732e+00  -1.980716528409e+01 
1  2.688702057288e+01   3.783292823154e+01  -2.680927334103e+01 
1  7.015455924997e+00  -4.705461524994e+00  -4.201073695319e+00 
1 -1.084291866556e+00  -4.484769335750e+01   1.753479298876e+01 
1  1.058412172612e+01  -1.003606772096e+01  -4.366731311475e+01 
1  2.001601142152e+01   3.454385410569e+01   2.422378055474e+01 
1 -5.037392202638e+00   4.074678863062e+00   3.662270191740e+01 
1 -2.810249651427e+00  -1.436945305777e+01  -3.073625831326e+01 
8
Step 56000
1  1.283783028134e+01   8.915956974385e+00  -5.559118385506e+01 
1  1.684570129709e+01  -6.985923563808e+00   6.454579504752e+01 