8
Step 0
1 1  2.847717345077e+02  -8.552029749664e+01  -1.276140599868e+02 
2 1 -2.317894074601e+02  -2.539882721922e+02   2.346897676519e+02 
3 1 -2.350098000602e+02  -1.307547283285e+02   2.635093922833e+02 
4 1 -1.692987193033e+02  -9.529920617174e+00   1.964631093627e+02 
5 1  2.323091173866e+02  -1.435322582653e+02   1.693901807588e+02 
6 1  4.654235617470e+02   5.104319094571e+02  -1.674137158823e+02 
7 1  1.922295072350e+01  -2.024048829196e+02  -3.903721119857e+01 
8 1 -7.246404150530e+01  -2.529581708650e+02   3.047554722872e+02 
8
Step 1000
1 1  4.031798804925e+02  -2.383564305909e+02  -7.980099660863e+01 
2 1  3.233350768789e+01  -4.837111585276e+02  -2.718559988083e+01 
3 1 -3.098497366480e+02   1.016114733056e+02   2.158920089236e+02 
4 1 -1.931322599166e+02   9.284942684135e+00  -7.971633172504e+01 
5 1  1.763628003550e+02  -5.843117549168e+01   2.695786968790e+02 
6 1  4.208361698169e+02   2.104894406081e+02   8.893338511076e+01 
7 1 -1.093695341975e+02  -2.472941605417e+02   1.190807809948e+02 
8 1 -7.913595198903e+01  -4.326482398104e+02   1.493995599590e+01 
8
Step 2000
1 1  3.602990329871e+02  -2.824449684159e+02   2.238680063264e+01 
2 1  2.664517812026e+02  -4.728123406707e+02  -2.850797675478e+02 
3 1 -2.859177296420e+02   2.801850212928e+02   6.780762519013e+01 
4 1 -1.655221886301e+02   2.825497405335e+01  -2.877645048763e+02 
5 1  2.716058710033e+01   4.795752228315e+01   2.203542111711e+02 
6 1  2.053491038087e+02  -1.092227824456e+02   2.923682982268e+02 
7 1 -1.622574124028e+02  -1.794232852633e+02   2.330503820474e+02 
8 1 -6.800090753156e+01  -4.432923749329e+02  -2.712737199021e+02 
8
Step 3000
1 1  1.673776982255e+02  -2.169068240767e+02   1.241432537176e+02 
2 1  3.321661018633e+02  -2.134823493372e+02  -4.084389616616e+02 
3 1 -1.716516254324e+02   3.405226494392e+02  -8.138501321201e+01 
4 1 -1.121035935301e+02   4.970686260497e+01  -3.419122259209e+02 
5 1 -1.287213027036e+02   7.580158401920e+01   5.797650250771e+01 
6 1 -8.533353372555e+01  -3.015286342254e+02   3.597195971094e+02 
7 1 -1.296751228707e+02  -4.121978541587e+01   2.649639662713e+02 
8 1 -6.753805331963e+01  -2.623326183528e+02  -3.961214582604e+02 
8
Step 4000
1 1 -7.678492976368e+01  -9.153745232973e+01   1.736955829120e+02 
2 1  2.323696339284e+02   1.273135849388e+02  -3.675699608659e+02 
3 1 -2.104790487929e+01   2.939641130869e+02  -1.613036316060e+02 
4 1 -5.574635153389e+01   6.897254177393e+01  -2.694037589357e+02 
5 1 -2.406653877776e+02   2.282970781319e+01  -1.000094505934e+02 
6 1 -3.325287469215e+02  -3.295857453306e+02   3.065170095860e+02 
7 1 -6.143984825981e+01   9.031113014371e+01   2.274136675936e+02 
8 1 -6.310193707984e+01  -1.325924100739e+01  -3.445887540268e+02 
8
Step 5000
1 1 -2.864636871850e+02   2.477604686160e+01   1.706329474434e+02 
2 1  4.576370113731e+01   4.037052415066e+02  -2.140094659591e+02 
3 1  1.233178555878e+02   1.801961941392e+02  -1.597351829424e+02 
4 1  5.638356119615e+00   7.501908806921e+01  -1.413453196580e+02 
5 1 -2.917165093651e+02  -4.712925755495e+01  -1.865174665782e+02 
6 1 -4.719409912441e+02  -2.424156551016e+02   1.854632043049e+02 
7 1 -5.557668739919e+00   1.720567664760e+02   1.435452770238e+02 
8 1 -3.260419710629e+01   1.869982957876e+02  -1.796379095586e+02 
8
Step 6000
1 1 -3.869027280802e+02   8.732730976979e+01   1.050430716480e+02 
2 1 -1.458759935770e+02   5.056511804913e+02  -1.494435027037e+00 
3 1  2.284527787013e+02   2.768987344386e+01  -8.650972188229e+01 
4 1  7.721309396360e+01   5.052644412214e+01  -1.307960315511e+01 
5 1 -2.419495812114e+02  -9.715552810502e+01  -1.830467582106e+02 
6 1 -4.563355821031e+02  -9.751787441937e+01   3.678696861833e+01 
7 1  1.723881194340e+01   1.838675336010e+02   2.599795350902e+01 
8 1  1.374929002524e+01   2.926404120724e+02   4.272299289832e+01 
8
Step 7000
1 1 -3.300149656542e+02   8.823651088623e+01  -1.922173496907e+01 
2 1 -2.592909315126e+02   3.766499175316e+02   1.986924821526e+02 
3 1  2.631758205242e+02  -1.202043956193e+02   1.251806672511e+01 
4 1  1.459026150807e+02  -9.881846547732e+00   6.650300890533e+01 
5 1 -1.077537205636e+02  -8.583136019990e+01  -8.854332886488e+01 
6 1 -2.864704311220e+02   3.390113509038e+01  -9.150626788490e+01 
7 1  3.990339152210e+00   1.345461433956e+02  -9.518692759619e+01 
8 1  7.913452459197e+01   2.740001531761e+02   2.283947356964e+02 
8
Step 8000
1 1 -1.430697601902e+02   4.646069589581e+01  -1.473943848048e+02 
2 1 -2.464460875990e+02   7.641225814379e+01   3.166830183228e+02 
3 1  2.177266035869e+02  -2.244947227997e+02   7.937990025765e+01 
4 1  1.856738824808e+02  -8.918948478403e+01   7.904111262748e+01 
5 1  5.661982636930e+01  -3.161895360003e+00   3.995281198129e+01 
6 1 -2.775009400489e+01   1.000333852147e+02  -1.645270740347e+02 
7 1 -2.329618406406e+01   6.161323407492e+01  -1.855111656910e+02 
8 1  1.508178291891e+02   1.572126290189e+02   3.119526601131e+02 
8
Step 9000
1 1  9.333911647855e+01  -7.187240155259e+00  -2.141919376119e+02 
2 1 -1.167818052157e+02  -2.574920807731e+02   3.208529663777e+02 
3 1  1.047957903302e+02  -2.589257083269e+02   8.569410416404e+01 
4 1  1.701355779438e+02  -1.563459274280e+02   4.371371633251e+01 
5 1  2.019542227790e+02   1.047364788297e+02   1.347218902294e+02 
6 1  2.313253608572e+02   9.189647473742e+01  -1.751965275121e+02 
7 1 -2.941029982100e+01  -1.216597854774e+00  -2.215875900550e+02 
8 1  1.883179657048e+02   1.623314664948e+01   2.709632499079e+02 
8
Step 10000
1 1  2.873474485511e+02  -3.367067511864e+01  -1.923446541048e+02 
2 1  6.513221622979e+01  -4.776054801473e+02   2.239281114357e+02 
3 1 -4.233998817649e+01  -2.120564453383e+02   3.406958667503e+01 
4 1  8.422745372902e+01  -1.746109548126e+02   1.920671657758e+00 
5 1  2.703493667450e+02   1.866829776656e+02   1.657744062463e+02 
6 1  4.043299708858e+02   3.148757079135e+01  -1.364693613001e+02 
7 1  9.238239949031e+00  -4.043765235592e+01  -1.899905391706e+02 
8 1  1.652934327282e+02  -9.408109795727e+01   1.181479818068e+02 
8
Step 11000
1 1  3.557527382703e+02  -1.075424369930e+01  -8.580992173830e+01 
2 1  2.066108315694e+02  -4.745043638521e+02   6.788418307652e+01 
3 1 -1.717294610046e+02  -9.889539844404e+01  -4.934357346384e+01 
4 1 -5.471718553374e+01  -1.181326020193e+02  -4.984755900688e+00 
5 1  2.270250402773e+02   1.963464544478e+02   1.220150884676e+02 
6 1  4.264453841813e+02  -3.657183310838e+01  -7.309665714169e+01 
7 1  8.458604351499e+01  -5.897675086495e+01  -9.494850039905e+01 
8 1  8.011130983317e+01  -1.443737995277e+02  -7.490312640876e+01 
8
Step 12000
1 1  2.660660959457e+02   4.903001042864e+01   7.274128861023e+01 
2 1  2.451895601226e+02  -2.487373533524e+02  -9.396575657521e+01 
3 1 -2.369378165589e+02   3.858999728732e+01  -1.177489843297e+02 
4 1 -1.944315763517e+02   5.644572138832e+00   3.991449666675e+01 
5 1  1.027178569889e+02   1.075668416557e+02   2.462414027808e+01 
6 1  2.972742247308e+02  -6.669598581034e+01  -1.505087737968e+01 
7 1  1.612916292269e+02  -7.401477333529e+01   2.946200446835e+01 
8 1 -5.421294557885e+01  -1.247410126874e+02  -2.194047731827e+02 
8
Step 13000
1 1  6.329044767187e+01   1.162780769243e+02   2.193291961537e+02 
2 1  1.784205377191e+02   9.674106219323e+01  -2.147118840438e+02 
3 1 -2.204685102397e+02   1.591881140875e+02  -1.293935222919e+02 
4 1 -2.779986284996e+02   1.583541062021e+02   1.196148694551e+02 
5 1 -4.803652663861e+01  -4.521746247764e+01  -6.850479459127e+01 
6 1  7.609686653811e+01  -3.966055318312e+01   1.929553049290e+01 
7 1  1.970911287866e+02  -1.045699672194e+02   1.408760824793e+02 
8 1 -2.070158582748e+02  -7.506695159546e+01  -2.794282813098e+02 
8
Step 14000
1 1 -1.705179586388e+02   1.537773601994e+02   2.861523564214e+02 
2 1  3.331770839386e+01   4.291475179238e+02  -2.680652375732e+02 
3 1 -1.253977377444e+02   2.340836424207e+02  -6.526108199915e+01 
4 1 -2.602155716492e+02   2.876518968995e+02   1.922166610443e+02 
5 1 -1.791961058974e+02  -2.032133526100e+02  -1.231047303359e+02 
6 1 -1.660550129555e+02   3.707941982140e+01   3.079891217675e+01 
7 1  1.549681126051e+02  -1.481105615839e+02   2.056287280863e+02 
8 1 -3.268492542749e+02  -3.844759631282e+01  -2.385729164951e+02 
8
Step 15000
1 1 -3.359774914705e+02   1.184174267978e+02   2.248752972392e+02 
2 1 -1.338150604420e+02   5.820510575385e+02  -2.413725498321e+02 
3 1  2.685031219303e+01   2.289641050083e+02   6.084508028234e+01 
4 1 -1.120765081442e+02   3.214797910393e+02   1.950635842483e+02 
5 1 -2.281330078997e+02  -3.001693570803e+02  -1.246477076404e+02 
6 1 -3.400651388219e+02   1.325220040186e+02   3.068241013781e+01 
7 1  1.486989219721e+01  -1.681056835218e+02   1.888083007354e+02 
8 1 -3.406438160505e+02  -2.122264795504e+01  -9.190534859357e+01 
8
Step 16000
1 1 -3.388403226456e+02   7.313613129776e+00   4.935539267020e+01 
2 1 -2.267135550727e+02   4.368289371056e+02  -1.492668464024e+02 
3 1  1.665552921026e+02   1.356879855954e+02   1.900654398457e+02 
4 1  1.182964490838e+02   2.091868883905e+02   9.113421845962e+01 
5 1 -1.630461997253e+02  -2.606389648977e+02  -6.695457828635e+01 
6 1 -3.581231862541e+02   1.870459378956e+02   3.192438208380e+01 
7 1 -1.772023961254e+02  -1.197594950492e+02   8.739575002221e+01 
8 1 -2.074873910447e+02  -2.210932021799e+01   8.660357745708e+01 
8
Step 17000
1 1 -1.740014173170e+02  -1.316077840737e+02  -1.624716271102e+02 
2 1 -1.948723020318e+02   7.494877206788e+01  -2.873747985276e+01 
3 1  2.256953089116e+02   3.433505154599e+00   2.632250950338e+02 
4 1  3.176335001599e+02  -1.124004365803e+01  -8.559487537871e+01 
5 1 -3.274967312260e+01  -9.078779437476e+01   1.055898944534e+01 
6 1 -2.272864100771e+02   1.619977349670e+02   4.553413322192e+01 
7 1 -3.328403162276e+02   3.528597991980e+00  -4.470533454775e+01 
8 1  1.724362162334e+01  -3.204293480128e+01   2.001783703064e+02 
8
Step 18000
1 1  7.817560352482e+01  -2.462636486266e+02  -3.160449281381e+02 
2 1 -7.311688794149e+01  -3.279521837097e+02   8.611507007133e+01 
3 1  1.820760564433e+02  -1.139155182952e+02   2.398693605777e+02 
4 1  3.884316447045e+02  -2.548840712816e+02  -2.656520831581e+02 
5 1  9.077738669418e+01   1.313645840431e+02   5.745921876091e+01 
6 1 -2.061100669390e+01   5.721996565143e+01   7.144746668638e+01 
7 1 -3.783284475766e+02   1.743984286921e+02  -1.435560959847e+02 
8 1  2.610007899151e+02  -1.416538634986e+01   2.155761963712e+02 
8
Step 19000
1 1  2.855413007776e+02  -2.716833287011e+02  -3.157990507832e+02 
2 1  6.666593278607e+01  -5.835666030528e+02   1.543290810046e+02 
3 1  4.995471467040e+01  -1.736647135675e+02   9.989155869752e+01 
4 1  2.691829135085e+02  -4.044163750803e+02  -3.547424408844e+02 
5 1  1.484957391814e+02   3.025663215428e+02   5.566967315781e+01 
6 1  1.656896511241e+02  -9.503720360114e+01   9.247557955650e+01 
7 1 -2.618828369183e+02   3.204644353301e+02  -1.567183146876e+02 
8 1  4.263546559093e+02   5.058954834889e+01   1.419339698304e+02 
8
Step 20000
1 1  3.335350015617e+02  -1.793384852847e+02  -1.542488353116e+02 
2 1  1.505087142108e+02  -5.347387035550e+02   1.688641352919e+02 
3 1 -1.026370947862e+02  -1.549239536434e+02  -1.019900451354e+02 
4 1  3.034872449571e+00  -3.747690531079e+02  -2.864963524721e+02 
5 1  1.095613787395e+02   3.281913137163e+02   1.666869898743e+01 
6 1  2.300555337726e+02  -2.241281169953e+02   8.912010578723e+01 
7 1 -2.111473756301e+01   3.493006503129e+02  -7.361714985169e+01 
8 1  4.136908003982e+02   1.242720622809e+02   2.734180863813e+01 
8
Step 21000
1 1  2.241412455496e+02  -3.129713113273e+01   6.206228415058e+01 
2 1  1.461807540100e+02  -2.296574934708e+02   1.636752951173e+02 
3 1 -1.951241700599e+02  -8.514089997649e+01  -2.657403404479e+02 
4 1 -2.640040046945e+02  -1.954361659203e+02  -1.058024939243e+02 
5 1  1.093826760746e+01   2.013322839945e+02  -2.541970066370e+01 
6 1  1.587662608204e+02  -2.721712363298e+02   6.069019592809e+01 
7 1  2.237180858603e+02   2.409032519105e+02   4.511869848897e+01 
8 1  2.418350430107e+02   1.629159108501e+02  -5.904100024125e+01 
8
Step 22000
1 1  2.090347815990e+01   1.076157915770e+02   2.389416520767e+02 
2 1  6.250720602959e+01   1.445640045923e+02   1.499484332225e+02 
3 1 -1.856995599638e+02  -8.552122778292e+00  -3.505731626819e+02 
4 1 -4.136158098170e+02   5.261839279229e+01   9.775366213842e+01 
5 1 -8.161188553557e+01  -7.025221730188e+00  -3.257628945975e+01 
6 1  1.554250199544e+01  -2.286794857503e+02   1.463090684492e+01 
7 1  3.845250076934e+02   3.492291710109e+01   1.293761015890e+02 
8 1  8.303100612308e+00   1.547159933328e+02  -7.773701694313e+01 
8
Step 23000
1 1 -1.847251446905e+02   2.041633772607e+02   3.025029158409e+02 
2 1 -4.678760021356e+01   4.162630032351e+02   1.071434221542e+02 
3 1 -8.443303932625e+01   4.550116020987e+01  -3.388588173673e+02 
4 1 -3.741075592635e+02   2.786479120171e+02   2.486461414635e+02 
5 1 -1.178446389201e+02  -2.128743694053e+02   9.808837318044e+00 
6 1 -1.194799181733e+02  -1.039992971488e+02  -4.192874906586e+01 
7 1  4.062627028409e+02  -2.045615881318e+02   1.302950002123e+02 
8 1 -2.070140394913e+02   9.224118265887e+01  -2.687582290448e+01 
8
Step 24000
1 1 -2.841402654971e+02   2.234785986120e+02   2.094196532737e+02 
2 1 -1.036298886493e+02   4.943854025344e+02   4.311061297929e+01 
3 1  6.244631543116e+01   6.697452421913e+01  -2.071670524661e+02 
4 1 -1.511216069811e+02   3.761229261980e+02   2.800558368104e+02 
5 1 -7.816334606692e+01  -3.205590115097e+02   7.959937470338e+01 
6 1 -1.684399048051e+02   5.859970380475e+01  -9.690970943124e+01 
7 1  2.701595214945e+02  -3.771257043512e+02   3.640285800553e+01 
8 1 -3.389276469544e+02  -2.942308057126e+01   2.293909371625e+01 
8
Step 25000
1 1 -2.417591223515e+02   1.693006371585e+02   1.730956499830e+01 
2 1 -8.449014028475e+01   3.526407461134e+02  -3.489651004321e+01 
3 1  1.841035698038e+02   5.762964305057e+01   5.240492673500e+00 
4 1  1.458728865301e+02   3.119493680566e+02   1.857990991027e+02 
5 1  1.317570087639e+01  -2.747775803319e+02   1.293077485911e+02 
6 1 -1.029312837169e+02   1.967676437471e+02  -1.362234957675e+02 
7 1  4.185518592140e+01  -3.996226568019e+02  -1.063453778909e+02 
8 1 -3.389599878503e+02  -1.555927773119e+02   1.993778597885e+01 
8
Step 26000
1 1 -1.041500737693e+02   8.957482273692e+01  -1.649673121005e+02 
2 1 -2.579991306671e+01   5.797406004385e+01  -1.252808858826e+02 
3 1  2.291399657834e+02   3.038020273583e+01   2.192685965168e+02 
4 1  3.724213451094e+02   1.314797232017e+02   3.342508514523e+01 
5 1  1.056352488983e+02  -1.056149890801e+02   1.183121067034e+02 
6 1  4.061758302632e+01   2.649508400998e+02  -1.527669154447e+02 
7 1 -1.728176940448e+02  -2.637671591826e+02  -2.145899824918e+02 
8 1 -2.241454422989e+02  -2.108249804659e+02  -2.857358413038e+01 
8
Step 27000
1 1  6.432311224070e+01   1.771506920251e+01  -2.592679335581e+02 
2 1  3.704675630967e+01  -2.373014239618e+02  -2.024737078515e+02 
3 1  1.718234474362e+02   3.749055434962e+00   3.681823321149e+02 
4 1  4.298360589765e+02  -9.176528780059e+01  -9.221072530705e+01 
5 1  1.531939745240e+02   1.038792048403e+02   3.614981199418e+01 
6 1  1.859783290793e+02   2.423778462207e+02  -1.384823884937e+02 
7 1 -2.994001460147e+02  -2.608198504838e+01  -2.235914150112e+02 
8 1 -4.819425168225e+01  -1.742146238998e+02  -9.032156633474e+01 
8
Step 28000
1 1  1.867657935349e+02  -3.851678236703e+01  -2.215111553530e+02 
2 1  7.494032024285e+01  -3.942464091198e+02  -2.219847079931e+02 
3 1  3.600861981222e+01  -1.645714181576e+01   4.050816142303e+02 
4 1  2.898593529927e+02  -2.639605811332e+02  -1.338095896411e+02 
5 1  1.281166550630e+02   2.617299577525e+02  -8.792688209468e+01 
6 1  2.560414808249e+02   1.380533756845e+02  -8.796062016119e+01 
7 1 -3.011779348219e+02   2.159148869975e+02  -1.148879010894e+02 
8 1  1.252249397386e+02  -7.126956673745e+01  -1.342881766859e+02 
8
Step 29000
1 1  2.124457693575e+02  -7.589517639065e+01  -7.286016443857e+01 
2 1  6.661841482740e+01  -3.767807189076e+02  -1.706346364044e+02 
3 1 -1.129102995052e+02  -2.811934203978e+01   3.148766130442e+02 
4 1  1.921020883102e+01  -3.093828041719e+02  -8.230893164532e+01 
5 1  4.389421168896e+01   3.027378146014e+02  -1.969864666044e+02 
6 1  2.079893919111e+02  -3.526639367227e+00  -5.424942762700e+00 
7 1 -1.902306246283e+02   3.566309370334e+02   6.799551036123e+01 
8 1  2.321553108894e+02   5.023259192741e+01  -1.202098801892e+02 
8
Step 30000
1 1  1.502082730035e+02  -1.055940636439e+02   1.034360020332e+02 
2 1  2.280854852564e+01  -2.133839130288e+02  -7.072981767832e+01 
3 1 -2.161030591715e+02  -3.114245985120e+01   1.279136449957e+02 
4 1 -2.490666832990e+02  -2.226415675843e+02   1.880032851563e+01 
5 1 -5.571521241109e+01   2.154257966114e+02  -2.347580709356e+02 
6 1  6.443830882207e+01  -1.291535628709e+02   9.034701228350e+01 
7 1 -3.115249600732e+01   3.394707837604e+02   2.413482393516e+02 
8 1  2.446434747385e+02   1.344080599715e+02  -4.010693570809e+01 
8
Step 31000
1 1  4.422209632604e+01  -1.349779033384e+02   2.222911926160e+02 
2 1 -2.607516052263e+01   2.350626427645e+01   4.656431350801e+01 
3 1 -2.412295947206e+02  -2.443465187085e+01  -9.703349925807e+01 
4 1 -3.980741637170e+02  -5.255608954600e+01   9.891602701855e+01 
5 1 -1.254369315225e+02   4.375021311614e+01  -1.789701634994e+02 
6 1 -1.155362106285e+02  -2.019908813907e+02   1.765742352270e+02 
7 1  1.019127872786e+02   1.802032115284e+02   3.235479036400e+02 
8 1  1.798066311685e+02   1.379356626550e+02   7.548847783748e+01 
8
Step 32000
1 1 -5.192229667800e+01  -1.516770426699e+02   2.279017189277e+02 
2 1 -5.254550972048e+01   2.272513516790e+02   1.463422439081e+02 
3 1 -1.816591735911e+02  -9.693592026492e+00  -2.950940556098e+02 
4 1 -3.707006074625e+02   1.251408334155e+02   1.009259276692e+02 
5 1 -1.404203238924e+02  -1.372542109797e+02  -4.183086974104e+01 
6 1 -2.610800521888e+02  -2.008287814396e+02   2.268724145783e+02 
7 1  1.604098491415e+02  -4.611659747570e+01   2.686138924448e+02 
8 1  6.742376746323e+01   6.412137495732e+01   1.815573539639e+02 
8
Step 33000
1 1 -9.700825402195e+01  -1.328630940208e+02   1.142449978533e+02 
2 1 -4.745212411494e+01   3.080361338495e+02   1.934144094356e+02 
3 1 -6.071054096500e+01   1.119182602032e+01  -3.988041016990e+02 
4 1 -1.824576492288e+02   2.335854315836e+02   1.350606948064e+01 
5 1 -9.929730142595e+01  -2.480306077773e+02   1.261982797835e+02 
6 1 -3.084310240518e+02  -1.297626624364e+02   2.147941789144e+02 
7 1  1.313486025355e+02  -2.340926730593e+02   8.967954162390e+01 
8 1 -5.589015970916e+01  -3.907804435509e+01   2.279511957305e+02 
8
Step 34000
1 1 -8.771314348934e+01  -6.616556385138e+01  -5.484150240400e+01 
2 1 -2.138584393929e+01   2.520516028275e+02   1.728481220028e+02 
3 1  6.961178957371e+01   3.446233512467e+01  -3.636668093793e+02 
4 1  7.324889489019e+01   2.231719438924e+02  -1.176772746193e+02 
5 1 -2.301246016871e+01  -2.431093710423e+02   2.449686423529e+02 
6 1 -2.333081741501e+02  -2.337118816260e+01   1.319418053755e+02 
7 1  4.261379041993e+01  -2.918244278297e+02  -1.320566339291e+02 
8 1 -1.447958209837e+02  -1.072919341541e+02   1.823712943406e+02 
8
Step 35000
1 1 -5.107858361049e+01   3.916294739630e+01  -1.831475400916e+02 
2 1  5.183414809151e+00   1.081407312891e+02   1.098685253067e+02 
3 1  1.558720920306e+02   5.330225558569e+01  -2.102885070476e+02 
4 1  2.631379296619e+02   1.069552380488e+02  -2.116891491040e+02 
5 1  4.612588926776e+01  -1.393487365723e+02   2.591530202520e+02 
6 1 -7.920653428729e+01   6.903176149167e+01   4.568313526027e+00 
7 1 -4.421993042079e+01  -1.962162987420e+02  -2.856676824180e+02 
8 1 -1.716675997636e+02  -9.637490024213e+01   6.313814445340e+01 
8
Step 36000
1 1 -2.210360516909e+01   1.479450614366e+02  -2.119148231038e+02 
2 1  1.690464310539e+01  -4.330001746241e+01   4.570164815408e+01 
3 1  1.825160001396e+02   5.880002790379e+01  -1.010990077001e+01 
4 1  3.101601934870e+02  -4.060732767253e+01  -2.102038142609e+02 
5 1  7.437953082174e+01  -1.433637025831e+00   1.786348394216e+02 
6 1  7.925169580352e+01   1.156029274329e+02  -1.243768916163e+02 
7 1 -7.614075374147e+01  -1.582151476184e+01  -3.078465883436e+02 
8 1 -1.474904497600e+02  -1.257120631518e+01  -7.869757421549e+01 
8
Step 37000
1 1 -2.422905287463e+01   2.171814667138e+02  -1.339722174463e+02 
2 1  1.217050822508e+01  -1.421578572013e+02  -5.589388432579e-01 
3 1  1.644156651360e+02   4.482916076588e+01   1.753686319273e+02 
4 1  2.221285190693e+02  -1.481647146010e+02  -1.039751985698e+02 
5 1  6.306669977458e+01   1.108285539181e+02   4.162290773674e+01 
6 1  1.930412070153e+02   1.119465599597e+02  -2.219407212250e+02 
7 1 -3.988698207205e+01   1.552472826316e+02  -2.047846188073e+02 
8 1 -8.960578946390e+01   1.029001186708e+02  -1.986727355383e+02 
8
Step 38000
1 1 -4.939540417741e+01   2.143730993571e+02   1.213790429436e+01 
2 1  2.551267450149e+00  -1.678371662438e+02  -3.235166021387e+01 
3 1  1.186603571014e+02   1.031298137629e+01   3.027157413354e+02 
4 1  5.612946582479e+01  -1.768272523964e+02   7.242750691675e+01 
5 1  3.191565802692e+01   1.623349445273e+02  -1.062545123210e+02 
6 1  2.373847850622e+02   7.081786730813e+01  -2.618995845980e+02 
7 1  4.637404875044e+01   2.423771172167e+02  -2.396982420200e+01 
8 1 -1.201358113876e+01   1.880689667216e+02  -2.592838659444e+02 
8
Step 39000
1 1 -6.436281329203e+01   1.311366014868e+02   1.554361456415e+02 
2 1  2.196408242744e+00  -1.357265331486e+02  -6.250984303185e+01 
3 1  5.784682214648e+01  -4.131985914620e+01   3.382715472552e+02 
4 1 -1.090592196966e+02  -1.209722203488e+02   2.505828580179e+02 
5 1  1.820733005206e+00   1.468585762751e+02  -2.142691985247e+02 
6 1  2.120411109383e+02   1.555099089442e+01  -2.285659732975e+02 
7 1  1.410213738924e+02   2.063401425758e+02   1.621672112854e+02 
8 1  6.981802373717e+01   1.877171758497e+02  -2.383132829847e+02 
8
Step 40000
1 1 -4.021834890828e+01  -1.043565589563e+01   2.307699559997e+02 
2 1  2.019497253761e+01  -7.810235104922e+01  -1.062998740035e+02 
3 1 -1.028354767057e+01  -9.988108237417e+01   2.715044287199e+02 
4 1 -2.057383938629e+02  -7.137860767045e+00   3.530183155932e+02 
5 1 -9.597778324076e+00   8.541458707018e+01  -2.468942223334e+02 
6 1  1.402122332715e+02  -2.828111914206e+01  -1.263009629224e+02 
7 1  1.890598735261e+02   5.831419879915e+01   2.741959728308e+02 
8 1  1.429042519782e+02   8.697642633357e+01  -1.384794928049e+02 
8
Step 41000
1 1  3.332055899676e+01  -1.583332811413e+02   2.039335550354e+02 
2 1  5.140408345132e+01  -2.324222270758e+01  -1.681722367670e+02 
3 1 -8.501162888333e+01  -1.428243122327e+02   1.257999620212e+02 
4 1 -2.002550253923e+02   1.122832027050e+02   3.279855436128e+02 
5 1  2.173152429530e+00   1.241578195567e+01  -1.979731051399e+02 
6 1  5.036966355940e+01  -4.331780099905e+01   1.989754717019e+01 
7 1  1.519523659967e+02  -1.377522904111e+02   2.637673313247e+02 
8 1  1.892416023745e+02  -8.837025193450e+01   1.623868876483e+01 
8
Step 42000
1 1  1.434858640631e+02  -2.502003674048e+02   7.746665103034e+01 
2 1  7.312014561060e+01   1.916138447800e+01  -2.278269506617e+02 
3 1 -1.678538997265e+02  -1.434155582330e+02  -6.041646589876e+01 
4 1 -1.013053386295e+02   1.865717566087e+02   1.694518935609e+02 
5 1  2.421928462528e+01  -4.503239469483e+01  -8.339303522254e+01 
6 1 -3.582725382623e+01  -2.816462194004e+01   1.736425951807e+02 
7 1  2.562748194056e+01  -2.985660274185e+02   1.364438620464e+02 
8 1  1.841156314705e+02  -2.859991752954e+02   1.879327628146e+02 
8
Step 43000
1 1  2.376157014076e+02  -2.312281068991e+02  -1.058833332470e+02 
2 1  5.299460047265e+01   5.524749089338e+01  -2.371985871912e+02 
3 1 -2.368871838053e+02  -7.916551642259e+01  -2.400423506938e+02 
4 1  4.531404757906e+01   1.752219441908e+02  -8.595193978849e+01 
5 1  3.679814414220e+01  -7.173127503271e+01   6.739322264112e+01 
6 1 -1.030188024561e+02   5.732834948656e+00   2.846713448320e+02 
7 1 -1.652078554755e+02  -3.398135307017e+02  -6.737472684132e+01 
8 1  1.085904945137e+02  -4.102335788715e+02   3.211761897324e+02 
8
Step 44000
1 1  2.355767062877e+02  -8.615251300692e+01  -2.548870591971e+02 
2 1 -1.842165234272e+01   9.114623348104e+01  -1.383134174439e+02 
3 1 -2.420118895646e+02   4.497569272552e+01  -3.317739706169e+02 
4 1  1.587459303637e+02   6.888790918423e+01  -3.293241364949e+02 
5 1  2.305063175058e+01  -6.288715020328e+01   1.943035782663e+02 
6 1 -1.392686305673e+02   3.476208239006e+01   2.892416786722e+02 
7 1 -3.394543810806e+02  -2.009356652765e+02  -2.556130704533e+02 
8 1 -2.994737447072e+01  -3.541967865831e+02   3.409928022578e+02 
8
Step 45000
1 1  1.138770476881e+02   1.081842196234e+02  -2.887996558642e+02 
2 1 -1.064532620806e+02   1.223739291063e+02   6.036838124981e+01 
3 1 -1.592022338250e+02   1.764653670867e+02  -2.861273094125e+02 
4 1  1.766763894870e+02  -7.421513344646e+01  -4.385892983271e+02 
5 1 -1.659427642038e+01  -3.753235179681e+01   2.365725338636e+02 
6 1 -1.478707454251e+02   3.505737421215e+01   1.820237358944e+02 
7 1 -3.912928938288e+02   5.869882475109e+01  -3.118320183310e+02 
8 1 -1.877997962344e+02  -1.306559550522e+02   2.277085191184e+02 
8
Step 46000
1 1 -8.271123127448e+01   2.359404040207e+02  -1.943541667366e+02 
2 1 -1.654814865713e+02   1.332738777534e+02   2.852766149436e+02 
3 1 -4.582098045058e+00   2.542030135287e+02  -1.377740513856e+02 
4 1  9.966945259382e+01  -1.809525106660e+02  -3.730817006391e+02 
5 1 -6.059230701933e+01  -2.331001396884e+01   1.851571184635e+02 
6 1 -1.397100577862e+02   1.318206179485e+00   1.953381187129e+01 
7 1 -2.857135441449e+02   3.019351226980e+02  -2.059269052837e+02 
8 1 -2.940487596264e+02   1.641299622456e+02   2.980443852061e+01 
8
Step 47000
1 1 -2.704780820010e+02   2.212975356603e+02  -2.198578380295e+01 
2 1 -1.597581884539e+02   1.032256145960e+02   4.389909853008e+02 
3 1  1.785986608392e+02   2.355191834396e+02   3.645424420096e+01 
4 1 -2.666202632572e+01  -2.058817295366e+02  -1.654984806385e+02 
5 1 -8.104664920146e+01  -3.008758172964e+01   7.525437342186e+01 
6 1 -1.229182728374e+02  -4.833022915440e+01  -1.247760982491e+02 
7 1 -6.023140359865e+01   4.135779608801e+02  -2.129243499280e+00 
8 1 -2.845077211553e+02   4.129018354885e+02  -1.760650633615e+02 
8
Step 48000
1 1 -3.546256947645e+02   6.765378863688e+01   1.416211287815e+02 
2 1 -6.668976079212e+01   2.425711375506e+01   4.445550881661e+02 
3 1  3.224823442678e+02   1.164846480907e+02   1.661421246324e+02 
4 1 -1.334057916881e+02  -1.337325111203e+02   8.160965339103e+01 
5 1 -6.325674799001e+01  -4.384060319242e+01  -3.975207828295e+01 
6 1 -9.147527265208e+01  -8.416239827862e+01  -1.961170089514e+02 
7 1  2.033110786393e+02   3.390371574454e+02   1.952773509468e+02 
8 1 -1.572990452703e+02   4.990509898382e+02  -3.123184707682e+02 
8
Step 49000
1 1 -2.875739891108e+02  -1.318426463335e+02   2.209420719706e+02 
2 1  8.214093593588e+01  -8.568092352397e+01   2.834910538391e+02 
3 1  3.630599941567e+02  -5.540310295872e+01   2.026491681730e+02 
4 1 -1.581593109157e+02  -1.651263995872e+00   2.491028507601e+02 
5 1 -1.902081154895e+01  -4.266029544469e+01  -1.124758787164e+02 
6 1 -3.309708047969e+01  -8.243110150487e+01  -1.807573277800e+02 
7 1  4.004512867196e+02   1.122293361294e+02   2.947502933368e+02 
8 1  2.851821469589e+01   3.865555469534e+02  -3.361873774271e+02 
8
Step 50000
1 1 -1.102192442953e+02  -2.606508363036e+02   2.021463595889e+02 
2 1  2.050198412656e+02  -1.822070835004e+02   1.020158243810e+01 
3 1  2.784780317027e+02  -2.004089180092e+02   1.484432364480e+02 
4 1 -9.267633275424e+01   1.163629112790e+02   2.797126993233e+02 
5 1  2.672437605809e+01  -1.300646472374e+01  -1.201093275759e+02 
6 1  4.713906847090e+01  -3.897279702191e+01  -1.048729695324e+02 
7 1  4.472721813755e+02  -1.443184993809e+02   2.430430014491e+02 
8 1  2.098940137732e+02   1.460019140369e+02  -2.524300512689e+02 
8
Step 51000
1 1  9.658128641163e+01  -2.419033604253e+02   1.133093063289e+02 
2 1  2.412969627814e+02  -2.230310575227e+02  -2.714496468112e+02 
3 1  9.793542857035e+01  -2.633977070679e+02   5.432988837607e+01 
4 1  2.051672742173e+01   1.691181751694e+02   1.982357638575e+02 
5 1  4.996516076157e+01   4.201887854962e+01  -7.947643216072e+01 
6 1  1.336156636971e+02   2.849238308996e+01  -2.089892566729e+01 
7 1  3.372575369283e+02  -3.096244269822e+02   7.658661395974e+01 
8 1  3.115544694535e+02  -1.156213345595e+02  -9.811118094431e+01 
8
Step 52000
1 1  2.530550699217e+02  -6.846340283670e+01   2.724914628584e+00 
2 1  1.846781897680e+02  -1.850947207746e+02  -4.538398189556e+02 
3 1 -1.217236217800e+02  -2.308883989447e+02  -2.535767667179e+01 
4 1  1.158584422508e+02   1.359145883933e+02   6.679110800095e+01 
5 1  4.099094677389e+01   1.015840591714e+02  -2.919075878255e+01 
6 1  2.050833611230e+02   8.966597759649e+01   2.632802228773e+01 
7 1  1.214141366432e+02  -3.296423842046e+02  -1.123589257631e+02 
8 1  2.848268434543e+02  -3.028982578761e+02   7.967353418831e+01 
8
Step 53000
1 1  2.982821092780e+02   1.804137105193e+02  -7.489162853268e+01 
2 1  4.972863407728e+01  -7.249042076326e+01  -4.635444955658e+02 
3 1 -3.062601715547e+02  -1.204339067782e+02  -5.908860448994e+01 
4 1  1.481925529866e+02   3.255713758699e+01  -4.326530060987e+01 
5 1  8.863445028885e+00   1.341127522114e+02  -6.601220651941e-01 
6 1  2.286186377301e+02   1.190195773489e+02   2.851409369546e+01 
7 1 -1.238836725564e+02  -2.113484449836e+02  -2.359465235708e+02 
8 1  1.498413967257e+02  -3.622922389290e+02   2.169251328058e+02 
8
Step 54000
1 1  2.227046463988e+02   3.723336807880e+02  -9.180270889404e+01 
2 1 -1.239058088998e+02   7.879908797217e+01  -3.142993456570e+02 
3 1 -3.868986408214e+02   2.270610040298e+01  -4.167004865427e+01 
4 1  1.051066018913e+02  -8.585909546524e+01  -7.442020083448e+01 
5 1 -1.962185340797e+01   1.159847208884e+02  -1.185657049453e+00 