8
Step 0
1 1  6.996693238828e+01   7.469439318030e+01   1.326126063853e+02 
2 1 -1.287408018267e+02  -5.142264762559e+01  -6.605502877963e+01 
3 1  2.212272819704e+02   5.224517838276e+02  -4.933316113084e+02 
4 1 -2.264853518711e+01   3.234507045652e+02  -3.003450626458e+00 
5 1 -3.551410567312e+02   1.756872163687e+02   1.943390465091e+02 
6 1 -1.790506797002e+02   4.296312042446e+02   9.244749381836e+01 
7 1  4.142520312552e+02   7.826418517363e+01   1.229819817333e+02 
8 1  4.523983844474e+02   3.572663025112e+02   1.679448558482e+02 
8
Step 100
1 1 -4.385459325352e+02   5.488559869532e+02  -2.112236222016e+02 
2 1  2.367547083223e+02  -4.098056860123e+02  -4.884972307509e+02 
3 1 -3.363674083656e+02   1.001116744094e+03   3.030008874208e+02 
4 1  5.478471792384e+02  -2.795556954329e+02   8.134491445579e+02 
5 1 -6.167986827516e+02   8.230518578507e+02  -4.344924438889e+02 
6 1 -9.210792781215e+01   5.367829539768e+01  -5.982311559032e+02 
7 1 -4.934836489303e+02   4.074651490844e+02  -5.157993384523e+02 
8 1  1.027920862717e+02  -1.974214665276e+02  -3.928762506030e+02 
8
Step 200
1 1 -4.224379004877e+02   5.521289852792e+02  -1.566776306338e+02 
2 1  3.341971934934e+02  -4.443279644639e+02  -4.784106672717e+02 
3 1 -3.595096171084e+02   3.619887041684e+02   6.284996796984e+02 
4 1  5.713382702532e+02  -5.991018623664e+02   7.645325731842e+02 
5 1 -2.607050184063e+02   3.846185740236e+02  -3.804349153286e+02 
6 1  1.539610663655e+02  -4.355800271116e+02  -4.594827633258e+02 
7 1 -6.101876734700e+02   1.121214298780e+02  -6.745929087927e+02 
8 1 -3.476016160320e+02  -3.632317973783e+02  -5.400554048133e+02 
8
Step 300
1 1  2.104614168644e+01   7.922365621626e+01   1.058915531747e+02 
2 1  1.072584548733e+02  -1.409226849237e+02  -1.193676221303e+02 
3 1  2.416757446564e+01  -6.857969566402e+02   2.540565063621e+02 
4 1  1.101595143003e+01  -2.869742350521e+02  -8.383560316726e+01 
5 1  3.120337979350e+02  -5.023703827470e+02   4.887241904295e+01 
6 1  3.430125085771e+02  -5.237896033400e+02   2.137742361601e+02 
7 1  1.346989170578e+00  -2.453094015021e+02  -2.412008176102e+02 
8 1 -4.521894299955e+02  -3.727285978733e+01  -1.284827797422e+02 
8
Step 400
1 1  3.002178538121e+02  -3.729082852211e+02   1.412930422069e+02 
2 1 -2.063716246914e+02   2.119455742860e+02   1.675479405994e+02 
3 1  1.689169987543e+02  -9.668180819414e+02  -2.242299557758e+02 
4 1 -5.390453689317e+02   2.527021024423e+02  -6.847900595626e+02 
5 1  5.584716133200e+02  -7.321141952568e+02   1.311170647737e+02 
6 1  2.475602990234e+02  -1.267461056578e+02   5.518174278242e+02 
7 1  4.800056582435e+02  -2.045171411351e+02   2.566492022087e+02 
8 1 -1.983767611976e+02   1.859271710527e+02   3.311883447826e+02 
8
Step 500
1 1  1.344815438630e+02  -4.197580918991e+02  -1.418643897873e+02 
2 1 -3.128462658283e+02   3.005286618475e+02   1.552679748585e+02 
3 1 -1.382182379759e+02  -2.429602291641e+02  -2.522022144904e+02 
4 1 -5.444853684588e+02   4.731757480663e+02  -4.638250381168e+02 
5 1  3.360365919386e+02  -1.288412306268e+02  -1.859712704073e+02 
6 1 -6.068387491258e+01   3.264782379520e+02   2.440599424827e+02 
7 1  3.120202243181e+02   9.444927880582e+01   4.057349799276e+02 
8 1  1.044500440081e+02  -5.151320807996e+01   3.822555707417e+02 
8
Step 600
1 1 -1.774060201734e+02  -1.182864501936e+02  -4.071668510318e+02 
2 1 -6.177567791152e+01   5.529366091208e+01  -3.451195959565e+01 
3 1 -4.528416196063e+02   5.431478379478e+02   1.614466733143e+02 
4 1 -5.183668431575e+01   1.787761387651e+02   6.196986428927e+01 
5 1 -6.030654545045e+01   4.467984374315e+02  -3.218698656741e+02 
6 1 -2.306502393024e+02   2.915137812186e+02  -2.315770472781e+02 
7 1 -2.372887862012e+02   2.415037123143e+02   2.443344166343e+02 
8 1  1.190573468185e+02  -4.051778331128e+02   5.257430958250e+01 
8
Step 700
1 1 -2.192119667889e+02   1.477244196715e+02  -3.177887946030e+02 
2 1  3.075621056382e+02  -2.226397632420e+02  -8.752781979904e+01 
3 1 -2.630472715999e+02   4.971341768419e+02   4.513134872454e+02 
4 1  3.906897505151e+02  -3.021487852657e+02   1.301949420142e+02 
5 1 -2.805267881711e+02   3.202428813232e+02   4.580015216208e+01 
6 1 -1.052993635923e+02  -1.879359915466e+02  -3.184570854832e+02 
7 1 -5.516416461742e+02   1.398952223509e+02   9.574301893006e+01 
8 1 -1.292381944149e+02  -3.157704111302e+02  -2.311725952467e+02 
8
Step 800
1 1  1.942469762703e+00   1.160011303428e+02   6.389925654369e+01 
2 1  3.721891427673e+02  -1.899999513697e+02   1.335957110486e+02 
3 1  2.944529471034e+02  -1.847714246828e+02   1.865120198712e+02 
4 1  3.423144439545e+02  -4.636974466591e+02  -2.137660163988e+02 
5 1 -2.192469903939e+02  -1.873174328090e+02   4.893333144349e+02 
6 1  8.168930903894e+01  -5.148179489823e+02  -3.529358521504e+01 
7 1 -3.552572109161e+02   4.243556404464e+01   9.751946544388e+01 
8 1 -2.782481220678e+02   2.224503619228e+02  -1.510659973518e+02 
8
Step 900
1 1  1.402609944540e+02  -9.878564601260e+01   3.398090973468e+02 
2 1  4.982043945918e+01   1.252947594831e+02   4.175552201643e+02 
3 1  5.700632583973e+02  -5.470869497450e+02  -3.702321855355e+02 
4 1 -5.695876936655e+01  -1.400925184219e+02  -3.018309859763e+02 
5 1 -4.185657249478e+01  -3.007616584046e+02   4.028079706494e+02 
6 1  5.868465348573e+01  -2.669626683329e+02   1.706071223774e+02 
7 1  7.525750685585e+01   1.127284504371e+02   7.224608587172e+01 
8 1 -6.102377061244e+01   5.913106655710e+02   1.574802975588e+02 
8
Step 1000
1 1  2.079900220767e+01  -1.894836680916e+02   2.536078011731e+02 
2 1 -2.882943288014e+02   3.351276648666e+02   4.142085593153e+02 
3 1  2.463074091096e+02  -1.300822754846e+02  -5.808656365113e+02 
4 1 -2.943599816018e+02   3.470057924823e+02   1.092550496546e+02 
5 1  7.613676138114e+01   1.561832485314e+02  -1.406241477835e+02 
6 1 -8.499544660701e+01   2.673748096512e+02   6.576231480512e+01 
7 1  3.278638907887e+02   1.799441346853e+02  -1.457940331571e+02 
8 1  3.534564961118e+02   3.136936858353e+02   2.935603326759e+02 
8
Step 1100
1 1 -1.427517792833e+02  -1.573504666396e+01  -1.863910491832e+01 
2 1 -2.406636857748e+02   1.707466907149e+02   3.180318922537e+01 
3 1 -2.420164816812e+02   4.870752211703e+02  -2.132581868505e+02 
4 1 -1.108933218639e+02   5.269926226272e+02   4.669930400907e+02 
5 1  6.863756488037e+01   5.222040658884e+02  -4.668788167762e+02 
6 1 -4.361624603048e+01   4.470723280110e+02  -1.281832518545e+02 
7 1  2.909537191851e+02   3.203453438455e+01  -3.927212714091e+02 
8 1  5.342877382934e+02  -2.722962833899e+02   7.760051913116e+01 
8
Step 1200
1 1 -8.397410632186e+01   2.521886857300e+02  -1.133410856252e+02 
2 1  9.111409360918e+01  -1.562312997912e+02  -4.240072583358e+02 
3 1 -2.884403340530e+02   4.979309991311e+02   2.949690818063e+02 
4 1  2.081155778768e+02   2.448143245769e+02   2.497699563571e+02 
5 1 -1.785768279482e+01   2.011057161088e+02  -1.786705035280e+02 
6 1  2.077306803957e+02   9.990653482012e+01  -1.281074968954e+02 
7 1  1.394687146791e+02  -2.269899808562e+02  -3.428404296805e+02 
8 1  2.927576321333e+02  -4.097491529650e+02  -2.600285658113e+02 
8
Step 1300
1 1  1.191958351154e+02   3.508429576151e+02   2.628663574731e+01 
2 1  2.106535477160e+02  -2.570139187779e+02  -5.178855040073e+02 
3 1  9.908844272789e+01  -8.022782493310e+01   4.083145445370e+02 
4 1  2.364361016422e+02  -2.076077249408e+02  -2.305137309723e+02 
5 1 -3.870965579833e+01  -4.461911230235e+02   3.044724580485e+02 
6 1  3.045520566140e+02  -2.614968075579e+02   1.181370667625e+01 
7 1  3.259094361307e+01  -3.153957266362e+02   2.145452501633e+01 
8 1 -1.403418984190e+02   4.707352225877e+01  -3.435292809813e+02 
8
Step 1400
1 1  1.804603651877e+02   2.022162963042e+02   1.237720165178e+02 
2 1 -8.563424992520e+01  -7.810829621525e+01  -1.531969076735e+02 
3 1  3.570736745918e+02  -5.045752404279e+02   1.297475508484e+02 
4 1 -3.995620108102e+01  -4.313145445770e+02  -2.687197333061e+02 
5 1  9.381096518708e+01  -6.026025076697e+02   3.252323430372e+02 
6 1 -1.683446417744e+01  -1.302947083614e+02   4.534487173586e+01 
7 1 -4.302065639011e+01  -1.794825016003e+02   3.192080254257e+02 
8 1 -4.105777751389e+02   4.489957915785e+02  -8.730504916501e+01 
8
Step 1500
1 1  4.482003344688e+01  -5.748610605075e+01  -3.046858520649e+01 
2 1 -3.960294644772e+02   6.300632162967e+01   2.865101801969e+02 
3 1  1.146943246124e+02  -2.711857978648e+02  -1.010585349734e+02 
4 1 -2.388679894943e+02  -2.943664107520e+02   2.171499700570e+02 
5 1  2.634145226574e+02  -8.689961881434e+01  -1.370824751100e+02 
6 1 -4.821130494214e+02   3.301403891805e+02  -6.405814147979e+01 
7 1 -1.300388841238e+02  -4.963554631728e+01   2.097694058536e+02 
8 1 -3.715927906581e+02   2.103520554134e+02   2.188149281567e+02 
8
Step 1600
1 1 -5.219176890157e+01  -2.278485818359e+02  -2.788896004488e+02 
2 1 -2.297491962311e+02  -5.558334863301e+01   3.257577229937e+02 
3 1 -3.423527394918e+02   2.831343669074e+02  -1.638832388612e+01 
4 1 -1.008529925949e+02  -4.751149781053e+00   5.416963430787e+02 
5 1  2.084172224815e+02   4.372637754919e+02  -4.410533965382e+02 
6 1 -5.303138168735e+02   4.864162906249e+02  -9.491268025740e+01 
7 1 -1.647500248614e+02  -7.251660501707e+01  -1.483076099035e+02 
8 1 -1.420120723131e+02  -4.184409880054e+02   2.324897560360e+02 
8
Step 1700
1 1  3.343252463005e+01  -2.232957001822e+02  -2.530740135242e+02 
2 1  3.065996302000e+02  -2.244721885231e+02  -7.069593393762e+01 
3 1 -4.709754395694e+02   4.683780169330e+02   1.585082795011e+02 
4 1  1.812241746617e+02   1.648588831565e+02   1.763135809191e+02 
5 1 -1.617544926301e+02   3.780654624264e+02  -1.730957733816e+02 
6 1 -7.134435216484e+00   4.856034838877e+01   8.132809145622e+01 
7 1 -7.236860943299e+01  -7.737936725721e+01  -2.532797258679e+02 
8 1  7.286457642275e+01  -6.683847805616e+02  -2.392669715885e+01 
8
Step 1800
1 1  1.221435181207e+02  -1.209262035955e+02   1.176313324461e+02 
2 1  5.877983301459e+02  -9.578730841084e+01  -4.244293533957e+02 
3 1 -1.664599022982e+02   1.085158875047e+02   7.488044465603e+01 
4 1  2.230895977540e+02   1.392074194046e+02  -4.775273035495e+02 
5 1 -5.458990691384e+02  -3.764887937060e+01   2.903063369354e+02 
6 1  5.609751827630e+02  -5.267215370145e+02   2.814649947950e+02 
7 1  7.115953821646e+01   1.371360682058e+02   9.807029653020e+01 
8 1  1.579625550089e+02  -2.246470134516e+02  -1.923811900580e+02 
8
Step 1900
1 1 -1.690526045983e+01  -3.968868260914e+01   4.321776353611e+02 
2 1  2.601161160829e+02   2.819106298995e+02  -3.012886542906e+02 
3 1  1.726134625105e+02  -3.258597893378e+02  -2.351587092561e+02 
4 1 -4.316910876391e+01   5.290549652313e+01  -5.924528361899e+02 
5 1 -4.975261897593e+02  -1.958106336565e+02   3.326765563945e+02 
6 1  5.584938083348e+02  -5.874258151108e+02   2.464334968563e+02 
7 1  9.874706861075e+01   4.204170762590e+02   4.911526056415e+02 
8 1  1.376079991000e+02   4.095946776796e+02  -3.775379369425e+01 
8
Step 2000
1 1 -2.765583336960e+02  -1.089796806310e+01   2.831669821913e+02 
2 1 -2.731994882031e+02   4.570713482439e+02   1.675539407177e+02 
3 1  2.004379478668e+02  -3.776656849855e+02  -3.792683288192e+02 
4 1 -2.731686000638e+02   4.309919520317e+01  -5.715662549032e+01 
5 1  3.946030976797e+01   1.893427833787e+01  -4.336476598014e+01 
6 1  2.260059361704e+01  -8.940163672333e+01  -6.400105027867e+00 
7 1 -2.993295333393e+01   4.009979985961e+02   3.706565864804e+02 
8 1  8.672089644725e+01   5.434987737170e+02   2.238390186194e+02 
8
Step 2100
1 1 -3.109863001252e+02  -9.502274565672e-01  -1.713593640389e+02 
2 1 -3.892892853252e+02   1.904479379513e+02   4.561327276342e+02 
3 1  4.507894582368e+01  -1.325095962169e+02  -1.488096944754e+02 
4 1 -1.883311739652e+02   8.350330327297e+01   3.566202402814e+02 
5 1  5.761352101183e+02   1.532814319842e+02  -2.651451755955e+02 
6 1 -4.110489962923e+02   3.587246213169e+02  -2.110053945726e+02 
7 1 -1.522555659876e+02   2.967883212035e+01  -2.100174098259e+02 
8 1  4.317774058574e+01   1.498684913621e+02   2.006329674443e+02 
8
Step 2200
1 1 -1.621309255920e+01   2.144141679967e+01  -4.144609690601e+02 
2 1 -6.039111053284e+01  -2.152832236073e+02   3.016668114200e+02 
3 1  2.655025874767e+01   7.959391029393e+01   2.150916021128e+02 
4 1  6.931674470849e+01   5.262017975353e+01   9.603498093838e+01 
5 1  5.943633895496e+02  -8.698872775681e+01  -3.033229190949e+01 
6 1 -3.171549185143e+02   2.852151683486e+02  -2.111936631384e+02 
7 1 -1.039930779700e+02  -3.077724057681e+02  -6.220903344673e+02 
8 1  6.228968308334e+00  -2.117494575208e+02  -1.296132384525e+02 
8
Step 2300
1 1  2.753726304283e+02   6.781099467650e+01  -1.995691529698e+02 
2 1  1.884586587372e+02  -3.063834252132e+02  -2.472512942589e+01 
3 1  1.803358610008e+02   1.529460063300e+02   3.243508320488e+02 
4 1  1.602464624382e+02  -7.956628393280e+01  -4.297538144024e+02 
5 1  9.771936896939e+01  -4.072023201627e+02   3.109061984659e+02 
6 1  7.661525391323e+01  -1.323127616144e+02  -1.017882697462e+02 
7 1  8.379763435608e+01  -2.510716658507e+02  -3.926366004753e+02 
8 1 -5.003662807114e+00  -1.465339364064e+02  -3.757217215748e+02 
8
Step 2400
1 1  2.202469171833e+02   1.068112239881e+02   1.586952170401e+02 
2 1  1.775763860145e+01  -4.977278657535e+01  -1.103270110807e+02 
3 1  2.618587244499e+02   1.804992320045e+02   1.194056089258e+02 
4 1 -9.910051929884e+00  -1.666243784268e+02  -4.178400035824e+02 
5 1 -3.869180152075e+02  -3.120024079818e+02   2.504523027155e+02 
6 1  2.570015046734e+02  -3.405657613490e+02  -3.358845454769e+01 
7 1  2.269302397217e+02   6.892484974725e+01   2.205138099797e+02 
8 1  8.403679512386e+00   1.137823572303e+02  -2.095342328303e+02 
8
Step 2500
1 1 -6.913700884488e+01   1.233090028626e+02   1.974544289976e+02 
2 1 -2.833382485449e+02   1.341888078246e+02   7.262757641321e+01 
3 1  1.094873593261e+02   1.725295442733e+02  -1.085797279311e+02 
4 1 -1.524980610074e+02  -1.101782546997e+02   2.366118474724e+02 
5 1 -4.095576614706e+02   1.898272713882e+02  -1.819589430387e+02 
6 1  5.645105802482e+01  -7.554572901192e+01   8.065349227494e-02 
7 1  1.928912846546e+02   1.953230698668e+02   5.201876332134e+02 
8 1 -1.829809924805e+01   1.466600498466e+02   2.057218807973e+02 
8
Step 2600
1 1 -1.718397343562e+02   1.172899113408e+02  -9.108511345440e+01 
2 1 -2.238917087459e+02  -5.887387929397e+01   1.750917808097e+02 
3 1 -1.375230347254e+02   2.972510390013e+01  -1.518581623244e+02 
4 1 -1.286008696268e+01   2.806942590731e+01   7.964879303219e+02 
5 1 -6.202881100049e+01   5.406670959145e+02  -4.654156050276e+02 
6 1 -2.268734503196e+02   3.717422314611e+02   7.692772021221e+01 
7 1  1.606322529171e+01  -6.178178338644e+01   1.798422446853e+02 
8 1 -1.153925284497e+02  -8.411157295612e+01   4.154515141658e+02 
8
Step 2700
1 1  9.036615572028e+01   6.411916171355e+01  -2.412702838383e+02 
2 1  1.788890918640e+02  -3.516878559007e+02  -6.933232548247e+01 
3 1 -2.145794407944e+02  -2.583254113493e+02  -3.625366768867e+01 
4 1  2.494134537159e+02   1.251684421778e+02   5.999830867352e+02 
5 1  1.784457284977e+02   3.283468815695e+02  -2.630394257421e+02 
6 1 -2.456030003530e+02   5.063342130735e+02   1.467740272961e+02 
7 1 -1.632055076541e+02  -3.681304143080e+02  -3.639565215591e+02 
8 1 -1.986072967526e+02  -2.142233922548e+02   1.990586503249e+02 
8
Step 2800
1 1  3.786298899722e+02  -5.923985785996e+01   7.311952203293e+01 
2 1  3.970721291338e+02  -2.479690911179e+02  -4.502502756512e+02 
3 1 -1.164942524525e+02  -4.081820879339e+02   1.043514985081e+02 
4 1  2.749906807859e+02   1.411898807428e+02  -8.046472538940e+01 
5 1  5.359151662691e+01  -1.587812918271e+02   1.450530958734e+02 
6 1 -1.989070159190e+00   1.890396425027e+02   7.430805689299e+01 
7 1 -2.233168938335e+02  -3.043582941153e+02  -4.243257788667e+02 
8 1 -1.273353537643e+02  -4.680805602969e+01  -1.707987916910e+02 
8
Step 2900
1 1  2.662964003354e+02  -2.144997855474e+02   5.598297068742e+02 
2 1  1.382399637300e+02   2.575714224725e+02  -5.371718171380e+02 
3 1 -9.342539209829e+01  -1.184994165102e+02   1.643747345882e+02 
4 1  2.573873744894e+01   1.170522264576e+02  -4.285603534441e+02 
5 1 -1.497901542798e+02  -3.252835087790e+02   2.814825689671e+02 
6 1  2.412062576367e+02  -2.289406181344e+02  -1.102313723803e+02 
7 1 -1.296816450622e+02   6.352447998890e+01   6.908413265352e+01 
8 1  1.008235231306e+02   1.558144999463e+02  -2.825562627824e+02 
8
Step 3000
1 1 -1.769114116210e+02  -2.722868424712e+02   6.017906917544e+02 
2 1 -2.352624409816e+02   6.017407343954e+02  -2.331158142155e+02 
3 1 -2.186279188356e+02   4.228929840389e+02   8.500016951324e+01 
4 1 -1.869877838972e+02   8.357206410369e+01  -1.792965676362e+02 
5 1 -2.884358799254e+01  -4.363429938371e+01   1.220767547388e+02 
6 1  3.012580244328e+02  -3.314047100274e+02  -1.737405847324e+02 
7 1  6.921467875653e+01   2.925365934805e+02   4.933174827133e+02 
8 1  2.762881361474e+02   8.936843168580e+01  -9.712690270111e+01 
8
Step 3100
1 1 -4.451163979676e+02  -1.260005588013e+02   1.137872859048e+01 
2 1 -1.960261026979e+02   3.592565078125e+02   1.449869920976e+02 
3 1 -2.484573877075e+02   6.320341255396e+02  -1.090773450816e+02 
4 1 -1.467138987298e+02  -9.764873638510e+00   8.970294305093e+01 
5 1  3.321199078069e+02   2.110804353262e+02   1.337587520060e+01 
6 1  1.877729509970e+02  -8.714272970782e+01   8.958262894207e+00 
7 1  2.441024757459e+02   1.623469362920e+02   3.184327888632e+02 
8 1  1.881099791677e+02  -1.335861900760e+02   5.809114623221e+01 
8
Step 3200
1 1 -2.752240535184e+02   1.556044566952e+02  -6.786286294253e+02 
2 1  1.887006613090e+02  -2.036971074195e+02   2.815807461434e+02 
3 1  1.745223454947e+01   2.358110686793e+02  -2.729361194667e+02 
4 1 -1.667411070510e+01  -2.127684245772e+02  -1.320783493834e+02 
5 1  4.180872304330e+02   4.049281077396e+01   1.087462882164e+02 
6 1 -2.924501980417e+01   1.458728853065e+02   2.390011954333e+02 
7 1  2.360173599093e+02  -4.453366287918e+01  -2.114278740325e+02 
8 1 -6.016159122074e+01  -1.628769762132e+02  -2.913707048236e+01 
8
Step 3300
1 1  4.066759661181e+01   3.475173859879e+02  -8.251796976855e+02 
2 1  3.228954732277e+02  -4.842118013628e+02   2.632784734368e+02 
3 1  3.998344662826e+02  -3.892617744505e+02  -2.361371551746e+02 
4 1 -2.245995957255e+01  -4.198436272514e+02  -5.581325482178e+02 
5 1 -3.010369989639e+01  -3.410766170851e+02   1.869206377662e+02 
6 1 -2.886673142538e+02   4.712705352582e+01   2.262864146025e+02 
7 1 -8.705455171584e+00   2.362932919295e+01  -4.259302047335e+02 
8 1 -1.563675745186e+02   5.006553941068e+01  -1.666737294664e+02 
8
Step 3400
1 1  9.599741388985e+01   2.319917158318e+02  -3.342471377576e+02 
2 1 -6.982432343674e+01  -2.454125519834e+02   3.475844659089e+02 
3 1  4.751121654596e+02  -6.090388710904e+02   2.133680137437e+01 
4 1 -8.807372034202e+01  -3.934257441269e+02  -4.953237308249e+02 
5 1 -6.076830067609e+02  -3.910130573744e+02   1.185884904417e+00 
6 1 -4.431624050900e+02  -3.083764850957e+02  -3.407539301043e+01 
7 1 -3.161752170822e+02   2.812378221213e+02  -8.157277215467e+01 
8 1  1.542771380384e+01   1.665871500780e+02  -4.723807025729e+01 
8
Step 3500
1 1 -8.889566255777e+01  -1.098485602219e+02   2.545170150102e+02 
2 1 -4.793009890235e+02   1.008714786562e+02   4.669715118165e+02 
3 1  1.173301199310e+02  -2.433449269722e+02   2.728706508973e+02 
4 1 -1.429829866292e+01  -3.309876146883e+01   1.599623230565e+02 
5 1 -6.600846472096e+02   4.139470422484e+01  -3.177694080494e+02 
6 1 -2.932754366635e+02  -5.143562713824e+02  -2.253877070420e+02 
7 1 -3.762380913488e+02   3.068091541854e+02   3.177384228912e+02 
8 1  1.999230554265e+02  -2.513044108785e+01   2.776208636932e+02 
8
Step 3600
1 1 -1.351875817455e+02  -3.339506076649e+02   4.070919905932e+02 
2 1 -3.072737969264e+02   9.981980812375e+01   2.757274889693e+02 
3 1 -2.663870977787e+02   2.261383724200e+02   2.600015457992e+02 
4 1  1.324326990386e+02   4.503835768843e+02   7.011740383469e+02 
5 1 -8.338997630031e+01   4.514296550852e+02  -3.674465765241e+02 
6 1  1.403750939365e+02  -2.704116544459e+02  -1.380381079306e+02 
7 1 -8.027666289474e+01  -5.713689294252e+01   2.131170451448e+02 
8 1  7.763624815867e+01  -2.219866792040e+02   4.097743053063e+02 
8
Step 3700
1 1  1.157126269649e+02  -2.264154263163e+02   1.840081817119e+02 
2 1  2.730633798011e+02  -1.109288213633e+02  -2.750645960990e+02 
3 1 -2.201946974314e+02   2.610709813872e+02   4.505550862679e-01 
4 1  6.935315126168e+01   6.820692698701e+02   5.233421608435e+02 
5 1  5.359594187645e+02   3.372335544799e+02  -4.042421371186e+01 
6 1  5.081967710161e+02   2.827517529983e+02   5.734130322692e+01 
7 1  3.093070700238e+02  -4.516703568900e+02  -2.401001917741e+02 
8 1 -2.914604044912e+02  -3.688534461184e+01   1.430857145352e+02 
8
Step 3800
1 1  3.563375387817e+02   6.650449137459e+01   5.445973430956e+01 
2 1  5.158576306265e+02  -7.963477915259e+01  -6.930963578055e+02 
3 1  1.539086215045e+02  -8.204714075073e+01  -2.053498654685e+02 
4 1 -2.375414062417e+02   4.463930763024e+02  -9.327059216277e+01 
5 1  6.080013278550e+02  -1.401103537701e+02   2.919773598642e+02 
6 1  4.449873794004e+02   6.734962785372e+02   7.005767370927e+01 
7 1  4.015956686285e+02  -4.336567008831e+02  -3.775410987453e+02 
8 1 -4.739555543290e+02   3.802559958646e+02  -2.299381575997e+02 
8
Step 3900
1 1  2.466176885457e+02   2.111494585315e+02   2.288938872241e+02 
2 1  1.077798491520e+02   2.304718721785e+02  -5.193884924696e+02 
3 1  2.874400502564e+02  -2.583537737638e+02  -1.195633608587e+02 
4 1 -3.570398175086e+02  -9.360185440236e+01  -3.585587558015e+02 
5 1  2.002796645268e+02  -3.464110093320e+02   2.437741877916e+02 
6 1  7.098516264304e+00   5.661413742182e+02  -9.359185775665e+01 
7 1  1.151568348185e+02  -3.278300092631e+01   5.320539190869e+01 
8 1 -1.826865869766e+02   4.571073052453e+02  -2.842762606129e+02 
8
Step 4000
1 1 -7.505477850835e+01   9.581506782133e+01   3.955082214970e+02 
2 1 -3.931584740370e+02   3.711827523371e+02   7.080734338628e+00 
3 1 -8.042430365136e+01   1.645924390434e+01   1.154371756360e+02 
4 1  4.367602551882e+01  -5.167553301348e+02  -3.636156605146e+01 
5 1 -1.366043195345e+02  -2.521026843061e+01  -7.555643142081e+01 
6 1 -3.388882797277e+02   1.355834449126e+02  -1.570225792306e+02 
7 1 -2.042057100909e+02   2.807883143077e+02   4.906284005158e+02 
8 1  3.146178816476e+02   1.805461371324e+00  -5.140701290883e+01 
8
Step 4100
1 1 -1.952657060092e+02  -7.101165105209e+01   1.814948267455e+02 
2 1 -3.623848827536e+02   8.393199203876e+01   2.903654530075e+02 
3 1 -5.460599603319e+02   4.158231812003e+02   1.732319159600e+02 
4 1  6.358988909264e+02  -5.340760491779e+02   3.334974598691e+02 
5 1 -1.418128367461e+02   3.853545630747e+02  -2.580706615343e+02 
6 1 -2.833380273923e+02  -2.034957194274e+02  -6.539105816521e+00 
7 1 -2.213003415902e+02   2.036401456816e+02   3.234419641284e+02 
8 1  5.260823951638e+02  -4.872700930535e+02   7.252307846936e+01 
8
Step 4200
1 1  2.741190351572e+00  -6.332963737921e+01  -3.032817799418e+02 
2 1  8.489086395305e+01  -2.631158651210e+02   1.338553904206e+02 
3 1 -5.186280179438e+02   4.238629593318e+02  -4.732940054792e+01 
4 1  7.027395753371e+02  -1.847142053115e+02   2.412310871042e+02 
5 1 -4.577241123448e+01   3.375809744430e+02  -1.234377355859e+02 
6 1  2.459754892508e+01  -2.536491216615e+02   1.490223744810e+02 
7 1  1.733589273576e+01  -9.826318526364e+01  -2.913589446019e+02 
8 1  2.815821887763e+02  -4.373732827448e+02  -8.730275978422e+01 
8
Step 4300
1 1  1.686996516033e+02   8.503266163826e+01  -5.708974689335e+02 
2 1  3.206639122138e+02  -1.872443066447e+02  -6.344490474014e+01 
3 1  3.159797738338e+01   1.673035160697e+01  -2.765585954230e+02 
4 1  6.253822378314e+01   1.884559670396e+02  -1.377083933591e+02 
5 1 -1.186227363017e+02  -1.213688661555e+02   1.134340670711e+02 
6 1  1.895905560095e+02  -1.742702502131e+02   1.059712917428e+02 
7 1  1.667597649912e+02  -2.375481517012e+02  -5.910296668110e+02 
8 1 -8.120323090455e+01   2.012003527623e+01  -2.383655718078e+02 
8
Step 4400
1 1  9.406393357885e+00   1.574173133138e+02  -3.857264152159e+02 
2 1  1.111432344208e+02   1.725745548170e+02   4.626925784719e+01 
3 1  5.366339455504e+02  -3.563760454563e+02  -2.087628430360e+02 
4 1 -6.406923139811e+02   2.858735452085e+02  -3.134049034536e+02 
5 1 -2.624555749706e+02  -4.513718980198e+02   2.027485202176e+02 
6 1  7.016547586777e+01  -1.757713950410e+02  -1.725634852830e+01 
7 1  4.059088709024e+01  -7.430659236550e+01  -2.122207122979e+02 
8 1 -1.894253183572e+02   2.629384457590e+02  -6.902347672494e+01 
8
Step 4500
1 1 -2.922803964183e+02   5.379478283506e+01  -1.804054599393e+00 
2 1 -1.582726477231e+02   2.347807702896e+02   2.618401758110e+02 
3 1  4.955856369630e+02  -3.579668843297e+02   1.225051265601e+02 
4 1 -6.844802731195e+02   1.000117867976e+02  -1.891042714155e+02 
5 1 -2.058113692247e+02  -3.024885012929e+02   1.494915307567e+02 
6 1 -1.225332232178e+02  -2.065697783185e+02   2.187246985062e+01 
7 1 -1.842396886577e+02   1.996086460017e+02   3.788075407112e+02 
8 1 -6.454728819805e+01   1.766099997869e+01   2.645904147439e+02 
8
Step 4600
1 1 -3.280128338349e+02  -9.208444464127e+01   1.829909257050e+02 
2 1 -9.287242600283e+01  -1.908455104074e+02   1.823285376740e+02 
3 1  2.930874863773e+01  -1.090898323265e+02   3.773924162414e+02 
4 1 -1.327719477791e+02  -1.155121203542e+02  -8.672460951759e+01 
5 1  4.844770158427e+01   9.188013058308e+01   8.868281019279e+01 
6 1 -1.521078689646e+02  -9.697236273608e+01   1.807338216841e+02 
7 1 -2.140819929657e+02   3.230448048876e+02   4.981458955782e+02 
8 1 -1.724647570915e+01  -2.956217582343e+02   3.251891237753e+02 
8
Step 4700
1 1 -3.127739643109e+01  -1.263758025609e+02   1.194584830276e+02 
2 1  1.541575130709e+02  -5.940430738065e+02  -1.569296368653e+02 
3 1 -2.986204100751e+02   7.462147615520e+01   2.977477586443e+02 
4 1  2.900519525502e+02  -1.159967243958e+02  -1.708857186065e+02 
5 1  2.269693846022e+02   2.641900765437e+02   2.736034150243e+01 
6 1 -3.507079955765e+01   1.255710675925e+02   1.609609843104e+02 
7 1 -3.060949197546e+00   2.107351219329e+02   9.262528623709e+01 
8 1 -1.903058552820e+02  -1.619223841040e+02   2.450624718443e+01 
8
Step 4800
1 1  2.612965964210e+02  -5.900912322860e+01   5.997956288702e+01 
2 1  1.623735151047e+02  -3.898162084071e+02  -3.006677560742e+02 
3 1 -1.713503909441e+02   8.085519288000e+01  -4.173890504418e+01 
4 1  1.470801103505e+02   8.620506955288e+01  -2.012130880015e+02 
5 1  1.832785838509e+02   8.145256593514e+01  -1.057717922763e+02 
6 1  6.323221403760e+01   2.228773152337e+02  -1.354308672161e+02 
7 1  2.177667057380e+02  -4.231214478459e+01  -2.899194061001e+02 
8 1 -3.441794850891e+02   3.162366102991e+02  -2.284820675842e+02 
8
Step 4900
1 1  2.573475740094e+02  -2.799299063370e+01   1.418834350341e+02 
2 1 -1.254022729869e+02   3.144790364825e+02  -6.454487079742e+00 
3 1  1.565689517324e+02   4.900524980301e+01  -3.290262543748e+02 
4 1 -2.083799660179e+02   2.666961651054e+02   3.830147515702e+01 
5 1  7.168434786918e+01  -1.618109253197e+02  -2.445443313774e+02 
6 1  7.959494389200e+01   5.485598629033e+01  -3.890740249325e+02 
7 1  2.262389012073e+02  -2.616914449291e+02  -2.266115252787e+02 
8 1 -1.679501789786e+02   5.547759974250e+02  -7.765398368672e+01 
8
Step 5000
1 1  3.213923359579e+01  -8.849157512516e+01   2.176777938230e+02 
2 1 -2.935644304787e+02   7.772362133930e+02   3.480785490325e+02 
3 1  2.283921407147e+02   1.218696070646e+02  -3.343223198675e+02 
4 1 -1.685937036995e+02   1.902838234194e+02   3.168677667428e+02 
5 1  8.490419268711e+01  -1.429209486846e+02  -2.144759281281e+02 
6 1  9.118548757306e+01  -1.778004771983e+02  -2.379876065526e+02 
7 1  3.330227567577e+01  -2.719480934891e+02   9.694165089484e+01 
8 1  2.804153058942e+02   2.386389053550e+02   2.958614422293e+02 
8
Step 5100
1 1 -1.091748984026e+02  -9.998065133432e+01   7.455310617874e+01 
2 1 -4.747796188050e+01   4.830619296481e+02   2.284536611026e+02 
3 1 -6.257018038682e+01   2.101826331878e+02  -1.158793131783e+02 
4 1  3.063813975227e+02  -1.507475725988e+02   2.873315538190e+02 
5 1  1.321403104353e+02   1.061203288399e+02   3.104712321953e+00 
6 1  1.284991852639e+02  -1.421547026561e+02   1.926878149796e+02 
7 1 -1.547006893725e+02  -3.500468630278e+01   1.860444263857e+02 
8 1  5.527061669415e+02  -2.664473472544e+02   3.476696364014e+02 
8
Step 5200
1 1 -3.950990164833e+01   5.989464376984e+01  -2.109187373353e+02 
2 1  3.123412454953e+02  -2.077547596905e+02  -2.919108668328e+02 
3 1 -3.623675043216e+02   8.218035960487e+01   8.707277222893e+01 
4 1  6.295324790749e+02  -4.477560607594e+02   4.306293495967e+01 
5 1 -1.308117779529e+01   2.529338524743e+02   1.649466133376e+02 
6 1  9.030997808075e+01   1.814658419395e+02   3.750597764897e+02 
7 1 -1.673196157702e+02   2.275677874377e+02  -7.151142482097e+01 
8 1  3.042837398148e+02  -3.763563331520e+02  -1.273753098898e+02 
8
Step 5300
1 1  4.908300312183e+01   2.756454924144e+02  -2.792488624861e+02 
2 1  2.647061621866e+02  -5.229330106796e+02  -5.507154405003e+02 
3 1 -2.643233304972e+02  -2.580807389831e+02   1.363461672754e+02 
4 1  3.182325465677e+02  -3.662981407994e+02  -3.163569303415e+01 
5 1 -3.213408459607e+02   7.677024639054e+01   8.157896027264e+01 
6 1 -8.962047595930e+01   4.230230152285e+02   5.526211562862e+01 
7 1 -3.879372823594e+01   2.032300104111e+02  -2.843898904926e+02 
8 1 -2.325401135307e+02  -5.003767883994e+01  -6.421192788335e+02 
8
Step 5400
1 1 -1.820350272023e+01   2.886351453631e+02   2.476718775092e+01 
2 1 -1.947915153457e+02  -2.280682745209e+02  -1.413560370953e+02 
3 1  1.632888560063e+02  -4.489642996317e+02   9.511361864184e+01 
4 1 -3.342663747887e+02   7.290807864648e+01   1.737005302434e+02 
5 1 -4.424926319823e+02  -2.246822392866e+02  -9.673992501847e+01 
6 1 -2.707434208226e+02   2.577736096050e+02  -3.668651973542e+02 