8
Step 0
1 1 9.03328914460338819e-03 -6.06693290829166034e-04 1.23562968692006222e-02
2 1 9.15605386005206162e-03 -1.16297213479895668e-02 1.70588878463454096e-03
3 1 1.45154683854739923e-03 3.59051193774244815e-03 1.01071432585997569e-02
4 1 5.05794281793142848e-03 -8.65968938465294658e-03 9.89965927018685715e-03
5 1 -1.17036420586191323e-02 4.19619474347269431e-03 -3.83081828004974440e-03
6 1 1.49798774418785138e-02 1.62244279368229695e-02 -1.51141766671798565e-02
7 1 1.75701980462816170e-03 6.28202409272050639e-03 -7.62984119835254278e-03
8 1 2.77305087569565444e-03 8.94299081006194249e-03 1.30204076454478032e-03
8
Step 10
1 1 8.33530622931164325e-03 -8.50751257226690645e-04 1.43694577620498299e-02
2 1 8.32282345481581698e-03 -8.50398133359666838e-03 5.44147116745821377e-04
3 1 1.28731176257134096e-05 7.99141826212260500e-03 8.46089100805355772e-03
4 1 1.28645666031254125e-03 -5.63790542012687808e-03 1.08239309616576622e-02
5 1 -1.45742514693573133e-02 6.73981937600875644e-03 -4.92236624231085374e-03
6 1 1.57863109904473921e-02 1.29811289192204304e-02 -1.71700965973047986e-02
7 1 2.23624351409884141e-04 9.71698977519188344e-03 -5.38220855579115125e-03
8 1 5.60333353754589609e-03 9.29629419911779005e-03 1.76756050746620604e-03
8
Step 20
1 1 7.43074966540999225e-03 -1.05564881359560643e-03 1.64345626367127379e-02
2 1 7.40042438582380266e-03 -5.12345501660537057e-03 -7.73773391124010518e-04
3 1 -1.55122845246466858e-03 1.25256007650417830e-02 6.62419977210487124e-03
4 1 -2.65233111191313453e-03 -2.31149183299118009e-03 1.17785676762216969e-02
5 1 -1.74737630294526554e-02 9.36010169571064275e-03 -5.97086346379651928e-03
6 1 1.64787250078594801e-02 9.43778596643778979e-03 -1.91994654355598614e-02
7 1 -1.46784596679876210e-03 1.31927053110300323e-02 -2.90930700534452417e-03
8 1 8.55480009561383412e-03 9.42591695346961349e-03 2.17410434251123991e-03
8
Step 30
1 1 6.37056817956471299e-03 -1.20827669096008764e-03 1.84121007655876807e-02
2 1 6.46077590032727994e-03 -1.71142472619688953e-03 -2.16869566767440057e-03
3 1 -3.15951037829923821e-03 1.68905671741755581e-02 4.69505684777328774e-03
4 1 -6.50522995155294100e-03 1.10888334929943222e-03 1.27061341283753564e-02
5 1 -2.02078630894911189e-02 1.18962843083827170e-02 -6.91464846313540830e-03
6 1 1.70130551139182941e-02 5.79853986406515115e-03 -2.10569417062864001e-02
7 1 -3.21597163166372456e-03 1.64827387205029666e-02 -3.52100781430972982e-04
8 1 1.14481325171250856e-02 9.32272709372334793e-03 2.48290291863861607e-03
8
Step 40
1 1 5.18028425495180907e-03 -1.31166688345476525e-03 2.02651099332301458e-02
2 1 5.52834910065632453e-03 1.67072870340651122e-03 -3.61644646004159525e-03
3 1 -4.80319654379301932e-03 2.10211949577829398e-02 2.68898232323409219e-03
4 1 -1.02148599520392874e-02 4.55987542776349793e-03 1.36006577869505207e-02
5 1 -2.27359002379303073e-02 1.43223540081188899e-02 -7.75485620958770838e-03
6 1 1.73931287801094223e-02 2.10286434639286434e-03 -2.27096366402282437e-02
7 1 -4.99486412862608711e-03 1.95454570250518517e-02 2.26231945100561051e-03
8 1 1.42481150386796571e-02 9.00912780934823125e-03 2.68328335319415693e-03
8
Step 50
1 1 3.89020452895036785e-03 -1.37118356406756197e-03 2.19542624225983508e-02
2 1 4.62294319573913585e-03 4.96558544478397680e-03 -5.09222092449902047e-03
3 1 -6.47200981761389404e-03 2.48584184422421042e-02 6.23041352712722161e-04
4 1 -1.37215049925029607e-02 7.97354894925045646e-03 1.44567690564982813e-02
5 1 -2.50171711883098447e-02 1.66121820219508436e-02 -8.49477168899825420e-03
6 1 1.76238570432688015e-02 -1.60793561321665563e-03 -2.41264281650197289e-02
7 1 -6.77625229726398510e-03 2.23408800952578229e-02 4.90541050607897107e-03
8 1 1.69147039949135609e-02 8.50842910557662868e-03 2.76892232736711871e-03
8
Step 60
1 1 2.53360085767821838e-03 -1.39475177649073636e-03 2.34400106422582612e-02
2 1 3.76097754668460382e-03 8.12044312372793564e-03 -6.57211531110430801e-03
3 1 -8.15482340742067387e-03 2.83490466020744659e-02 -1.48401101133281525e-03
4 1 -1.69648389365115206e-02 1.12844502029087294e-02 1.52669301877820223e-02
5 1 -2.70119683065454946e-02 1.87401287360882164e-02 -9.13900760582965661e-03
6 1 1.77111890397638368e-02 -5.29091211781006904e-03 -2.52786393039166404e-02
7 1 -8.53014597764572939e-03 2.48314836807673051e-02 7.54682154919828103e-03
8 1 1.94058856321334683e-02 7.83867322163811671e-03 2.74039753284402009e-03
8
Step 70
1 1 1.14566304477826866e-03 -1.39373364913058162e-03 2.46847588888769905e-02
2 1 2.95593479996403416e-03 1.10860572190623844e-02 -8.03312571612689423e-03
3 1 -9.83996859713702834e-03 3.14441604670681260e-02 -3.61205181927690480e-03
4 1 -1.98869488817444845e-02 1.44389280530111616e-02 1.60192966305759826e-02
5 1 -2.86836487840956035e-02 2.06820893295703162e-02 -9.69272114700435276e-03
6 1 1.76621159807763897e-02 -8.90187611878551742e-03 -2.61408911929874484e-02
7 1 -1.02256983673757896e-02 2.69830065669686946e-02 1.01542186474746273e-02
8 1 2.16823545710357335e-02 7.00867973087698163e-03 2.60608301979572618e-03
8
Step 80
1 1 -2.37646041325713652e-04 -1.38413227572630891e-03 2.56556789684599107e-02
2 1 2.21814430386636178e-03 1.38151111366223399e-02 -9.45293268833269536e-03
3 1 -1.15148767435660059e-02 3.40980538151147566e-02 -5.74020465147997896e-03
4 1 -2.24354785313953427e-02 1.74013330125412369e-02 1.66975184228850722e-02
5 1 -3.00008146744385508e-02 2.24166515793493143e-02 -1.01612877269568885e-02
6 1 1.74847042344095753e-02 -1.23961057977646887e-02 -2.66921760089096488e-02
7 1 -1.18321179293970138e-02 2.87653335149821200e-02 1.26933192605616398e-02
8 1 2.37120873131651776e-02 6.01796957283589565e-03 2.38103179076584997e-03
8
Step 90
1 1 -1.58172849161980988e-03 -1.38701646848559844e-03 2.63282082346084773e-02
2 1 1.55471416806749266e-03 1.62620716220477982e-02 -1.08104616915821496e-02
3 1 -1.31654398084713273e-02 3.62691205218322529e-02 -7.84747662510654372e-03
4 1 -2.45658367588895907e-02 2.01543532643498995e-02 1.72822483609565286e-02
5 1 -3.09387395212861703e-02 2.39260345600581271e-02 -1.05504263266272373e-02
6 1 1.71881244139963571e-02 -1.57294766503888878e-02 -2.69172378426347121e-02
7 1 -1.33196847462547143e-02 3.01537377694001893e-02 1.51280562979853039e-02
8 1 2.54734590150456248e-02 4.85914898652911858e-03 2.08490945472742089e-03
8
Step 100
1 1 -2.85619078046382572e-03 -1.42750841127574834e-03 2.66895673621837873e-02
2 1 9.69798476824567366e-04 1.83848775660710832e-02 -1.20869356411462923e-02
3 1 -1.47756480767258416e-02 3.79225099836073276e-02 -9.91332070366167210e-03
4 1 -2.62422637320768350e-02 2.26948307839939384e-02 1.77531975320397127e-02
5 1 -3.14798918790553869e-02 2.51966733304160445e-02 -1.08663668998239364e-02
6 1 1.67826114380626619e-02 -1.88601520046774891e-02 -2.68084369393205534e-02
7 1 -1.46611161070099496e-02 3.11307417971471607e-02 1.74208409230009569e-02
8 1 2.69570301041875335e-02 3.52022634856370090e-03 1.74019899919778558e-03
8
Step 110
1 1 -4.03743771869860373e-03 -1.53200661315552877e-03 2.67414536248127346e-02
2 1 4.64993120343463627e-04 2.01479536920911098e-02 -1.32665851797105511e-02
3 1 -1.63277277513422490e-02 3.90336581067093971e-02 -1.19180977133053201e-02
4 1 -2.74379093465853888e-02 2.50264936200430901e-02 1.80911631416915096e-02
5 1 -3.16137699030124980e-02 2.62192448753480918e-02 -1.11156234786429931e-02
6 1 1.62792127662587660e-02 -2.17508808390415274e-02 -2.63682686583162594e-02
7 1 -1.58334990870263558e-02 3.16885350183507900e-02 1.95331268977474506e-02
8 1 2.81663885850560979e-02 1.98645998393721110e-03 1.37074840521043658e-03
8
Step 120
1 1 -5.10975389744471997e-03 -1.72335100686792368e-03 2.65004748056489429e-02
2 1 3.98835729426614649e-05 2.15255046406899013e-02 -1.43363145443284028e-02
3 1 -1.78025235675457125e-02 3.95918563897288481e-02 -1.38433302774194650e-02
4 1 -2.81340057132650478e-02 2.71487672768440311e-02 1.82804340039298477e-02
5 1 -3.13360822911282130e-02 2.69874675336656787e-02 -1.13041377677947953e-02
6 1 1.56890876762447312e-02 -2.43713383476071126e-02 -2.56120333879092492e-02
7 1 -1.68204370282750287e-02 3.18309866846794923e-02 2.14269189154829599e-02
8 1 2.91167371144312147e-02 2.44845490191048767e-04 9.99479306628881523e-04
8
Step 130
1 1 -6.06334072446995925e-03 -2.01544340297741447e-03 2.59939259815488224e-02
2 1 -3.06990358183626192e-04 2.25032145640555493e-02 -1.52844309434270985e-02
3 1 -1.91792265134666344e-02 3.96027184138109875e-02 -1.56717675392048575e-02
4 1 -2.83189007788551689e-02 2.90424288776739183e-02 1.83119885546033402e-02
5 1 -3.06473717180795573e-02 2.74949321418129673e-02 -1.14360300861597788e-02
6 1 1.50223216518681150e-02 -2.66984183441855531e-02 -2.45679585100406911e-02
7 1 -1.76127139600022742e-02 3.15728289343336563e-02 2.30680543124575539e-02
8 1 2.98279879534539549e-02 -1.70426534501813532e-03 6.44057159558168507e-04
8
Step 140
1 1 -6.88942493672221185e-03 -2.41227003187988349e-03 2.52501799365272388e-02
2 1 -5.76705185719756795e-04 2.30763990488852093e-02 -1.61005041055158268e-02
3 1 -2.04334826231917961e-02 3.90875988448957032e-02 -1.73878004253784635e-02
4 1 -2.79893535070315780e-02 3.06611157320787649e-02 1.81866094877912929e-02
5 1 -2.95521872978503734e-02 2.77312041299601526e-02 -1.15130811607694564e-02
6 1 1.42871993090694423e-02 -2.87117748424530958e-02 -2.32703524909837096e-02
7 1 -1.82053219210348213e-02 3.09341528986648122e-02 2.44305791528274877e-02
8 1 3.03121135676062761e-02 -3.83091588700798513e-03 3.12102925086222064e-04
8
Step 150
1 1 -7.57627639572720779e-03 -2.91339340246233236e-03 2.42892023714385216e-02
2 1 -7.68459475894237736e-04 2.32461657029251929e-02 -1.67790067629130790e-02
3 1 -2.15355472742910330e-02 3.80782909437955841e-02 -1.89786282460898265e-02
4 1 -2.71556380082292048e-02 3.19401924654828528e-02 1.79164132341958458e-02
5 1 -2.80605110515733391e-02 2.76814382874397795e-02 -1.15361329677060413e-02
6 1 1.34915399845912509e-02 -3.03866924741329689e-02 -2.17472092603598101e-02
7 1 -1.85924300524161097e-02 2.99340027127458427e-02 2.54987946404048350e-02
8 1 3.05640615948724360e-02 -6.07005652197373062e-03 1.00784175905059315e-06
8
Step 160
1 1 -8.10925243428317621e-03 -3.51788357307709952e-03 2.31211293288053794e-02
2 1 -8.78274742049974053e-04 2.30187033810611667e-02 -1.73250763249029639e-02
3 1 -2.24531366829638056e-02 3.66078784878626218e-02 -2.04349519099165100e-02
4 1 -2.58467745361492564e-02 3.28178132841857734e-02 1.75248279014081597e-02
5 1 -2.61908042836459590e-02 2.73315002484231968e-02 -1.15074789542561826e-02
6 1 1.26455519100374704e-02 -3.16922898869827566e-02 -2.00136138688642613e-02
7 1 -1.87658553527750259e-02 2.85900013643518025e-02 2.62649371961229637e-02
8 1 3.05661802254867040e-02 -8.33664425983782729e-03 -2.96055116299041236e-04
8
Step 170
1 1 -8.47251858554072534e-03 -4.22062619441261958e-03 2.17525185970706414e-02
2 1 -8.97620242435992629e-04 2.24087324309916527e-02 -1.77574250126616914e-02
3 1 -2.31602296109591800e-02 3.47014493579120772e-02 -2.17493700214517957e-02
4 1 -2.41104462748844943e-02 3.32508700356670198e-02 1.70451078622494874e-02
5 1 -2.39716531184711416e-02 2.66743320318682704e-02 -1.14319914011480773e-02
6 1 1.17633034302606163e-02 -3.25976404328765443e-02 -1.80770400710508101e-02
7 1 -1.87182957495969568e-02 2.69232230704098789e-02 2.67256469554954558e-02
8 1 3.03005881851773906e-02 -1.05472010427980975e-02 -5.83740130488242734e-04
8
Step 180
1 1 -8.65020791405966133e-03 -5.00707910696786447e-03 2.01931714921376147e-02
2 1 -8.12150941243642796e-04 2.14425383033139266e-02 -1.81064156891399784e-02
3 1 -2.36470323535074474e-02 3.23711804117280330e-02 -2.29124462735006314e-02
4 1 -2.20070287827409256e-02 3.32196800291046992e-02 1.65154981335857015e-02
5 1 -2.14407010284579230e-02 2.57131666060074274e-02 -1.13165312511725492e-02
6 1 1.08617536684580147e-02 -3.30792818783864004e-02 -1.59466881699884093e-02
7 1 -1.84469756291014766e-02 2.49618457874954715e-02 2.68805434041065570e-02
8 1 2.97575376146294521e-02 -1.26311593112744397e-02 -8.62400956599836056e-04
8
Step 190
1 1 -8.62859227045884546e-03 -5.85308575409036226e-03 1.84591737270077896e-02
2 1 -6.02097342324901179e-04 2.01571001495476389e-02 -1.84079661381051467e-02
3 1 -2.39252934927324107e-02 2.96190883494585541e-02 -2.39084679717072694e-02
4 1 -1.96007009999763816e-02 3.27256745711276900e-02 1.59702424686644848e-02
5 1 -1.86420221830316743e-02 2.44613356067717551e-02 -1.11687290326642312e-02
6 1 9.95883480007597570e-03 -3.31249190660287060e-02 -1.36386857364563709e-02
7 1 -1.79550334100276529e-02 2.27412675327451179e-02 2.67325502153032239e-02
8 1 2.89370037606276574e-02 -1.45318904878067312e-02 -1.12909946003134629e-03
8
Step 200
1 1 -8.40034024998643006e-03 -6.72940858555243215e-03 1.65722944487099837e-02
2 1 -2.46070410114884145e-04 1.85954581893712813e-02 -1.86943032914147211e-02
3 1 -2.40254804178902624e-02 2.64473238551625883e-02 -2.47142774227865937e-02
4 1 -1.69512562384971019e-02 3.17859350157431719e-02 1.54297909221106835e-02
5 1 -1.56233496681600272e-02 2.29401089989453681e-02 -1.09959410734229088e-02
6 1 9.07192691685489681e-03 -3.27335173031368734e-02 -1.11764211138956210e-02
7 1 -1.72512035491832055e-02 2.03023170214810013e-02 2.62884725264090451e-02
8 1 2.78469619142147524e-02 -1.62041575755117080e-02 -1.37924278288415868e-03
8
Step 210
1 1 -7.96877652675020975e-03 -7.60738831451013980e-03 1.45575084712593877e-02
2 1 2.72136128315100053e-04 1.68007698116921476e-02 -1.89843752980576978e-02
3 1 -2.39863177270174810e-02 2.28709376654523434e-02 -2.53036679567136200e-02
4 1 -1.41101057504560770e-02 3.04269414098302902e-02 1.48961034803602003e-02
5 1 -1.24338404519321825e-02 2.11758997958531071e-02 -1.08045954884820224e-02
6 1 8.21696224353531644e-03 -3.19137862888630303e-02 -8.58856993616071047e-03
7 1 -1.63488884944407858e-02 1.76891264349150305e-02 2.55591905584927372e-02
8 1 2.65011553003477209e-02 -1.76117988742066495e-02 -1.60776702431656674e-03
8
Step 220
1 1 -7.34910833944998464e-03 -8.46267129911575967e-03 1.24403390608179617e-02
2 1 9.56888729065489001e-04 1.48120346883358813e-02 -1.92782890640514556e-02
3 1 -2.38420240689287688e-02 1.89259087911555837e-02 -2.56556049111687154e-02
4 1 -1.11216484871952577e-02 2.86797393031467465e-02 1.43560230361122598e-02
5 1 -9.12243133619731507e-03 1.91977812138028302e-02 -1.05999071340325424e-02
6 1 7.40787498784650864e-03 -3.06824396489672468e-02 -5.90691337491829407e-03
7 1 -1.52651494919955506e-02 1.49472333504791968e-02 2.45594724143989827e-02
8 1 2.49172706304555368e-02 -1.87263482464516025e-02 -1.80980187127809935e-03
8
Step 230
1 1 -6.56584957243638769e-03 -9.27604703814701587e-03 1.02451264252773084e-02
2 1 1.79741471953883737e-03 1.26629766995381005e-02 -1.95581111125252387e-02
3 1 -2.36138282757548182e-02 1.46689991637036429e-02 -2.57610694425277897e-02
4 1 -8.02754080924124487e-03 2.65776596789194450e-02 1.37896273975954206e-02
5 1 -5.73658740427616855e-03 1.70356494698150306e-02 -1.03858720694279556e-02
6 1 6.65614542295395357e-03 -2.90627373290403557e-02 -3.16482641331484061e-03
7 1 -1.40197747673982825e-02 1.21220232189671717e-02 2.33075298805015783e-02
8 1 2.31155669430610534e-02 -1.95262569293531453e-02 -1.98100223220567520e-03
8
Step 240
1 1 -5.64828644913659052e-03 -1.00323571298696155e-02 7.99454225760069630e-03
2 1 2.76863352922966958e-03 1.03834318558115694e-02 -1.97935351457974307e-02
3 1 -2.33084352948879740e-02 1.01716758833794076e-02 -2.56248331609513526e-02
4 1 -4.87031929128732902e-03 2.41560347942797009e-02 1.31780169826690077e-02
5 1 -2.32131320594709378e-03 1.47188892712837617e-02 -1.01654362482558949e-02
6 1 5.97039682199196949e-03 -2.70832964797092270e-02 -3.96430296590495135e-04
7 1 -1.26344714173498313e-02 9.25753167023089275e-03 2.18244090915925594e-02
8 1 2.11178387035543362e-02 -1.99963569821529803e-02 -2.11769716013182835e-03
8
Step 250
1 1 -4.62636518516424972e-03 -1.07189428791891767e-02 5.70999895564412805e-03
2 1 3.83479900450246509e-03 8.00166136965675158e-03 -1.99490635792183256e-02
3 1 -2.29215366759710909e-02 5.51246932399640076e-03 -2.52626224830617765e-02
4 1 -1.69478785426565920e-03 2.14526755176159128e-02 1.25075996718531091e-02
5 1 1.08157632158468542e-03 1.22753284038120761e-02 -9.94076336466094904e-03
6 1 5.35613113048962700e-03 -2.47770264246665387e-02 2.36391308637944270e-03
7 1 -1.11321981228345336e-02 6.39560131288071168e-03 2.01333038569225138e-02
8 1 1.89466390096747900e-02 -2.01273905620738200e-02 -2.21693986943653776e-03
8
Step 260
1 1 -3.52826640959141890e-03 -1.13245086510609053e-02 3.41232416661798503e-03
2 1 4.95412203805164954e-03 5.54633858997269011e-03 -1.99899932092648530e-02
3 1 -2.24429313603813491e-02 7.70754245776941022e-04 -2.46964440273267812e-02
4 1 1.45235872412211378e-03 1.85083219251312298e-02 1.17712228346990352e-02
5 1 4.43388683697147970e-03 9.73037741828565970e-03 -9.71357243251848128e-03
6 1 4.81568398577157924e-03 -2.21801235004862873e-02 5.08201174163367114e-03
7 1 -9.53663839043174949e-03 3.57535356760663820e-03 1.82588917640474011e-02
8 1 1.66247358192229480e-02 -1.99155630870434842e-02 -2.27650297835591681e-03
8
Step 270
1 1 -2.37964498896681706e-03 -1.18385782034204391e-02 1.12221722116201536e-03
2 1 6.08295714518845843e-03 3.04765447437632588e-03 -1.98860528385176073e-02
3 1 -2.18608301600062040e-02 -3.97711025832169201e-03 -2.39504495757016204e-02
4 1 4.52364721535698268e-03 1.53668912633147230e-02 1.09676803667872799e-02
5 1 7.70113735089055385e-03 7.10632736562768694e-03 -9.48553618788188294e-03
6 1 4.34841856451667185e-03 -1.93311516924621826e-02 7.72424867353817442e-03
7 1 -7.87180166756923892e-03 8.32907973578907840e-04 1.62267816449636997e-02
8 1 1.41747863109907349e-02 -1.93621375211813079e-02 -2.29484426844080722e-03
8
Step 280
1 1 -1.20385829145269957e-03 -1.22513758552243741e-02 -1.13965413944749601e-03
2 1 7.17882217539808458e-03 5.37532028485921483e-04 -1.96128468035784362e-02
3 1 -2.11645095772441949e-02 -8.65959138424567468e-03 -2.30482997031888730e-02
4 1 7.47206472933264424e-03 1.20755941307817763e-02 1.01007549639163651e-02
5 1 1.08522529225372633e-02 4.42182878951709064e-03 -9.25871016355640092e-03
6 1 3.95112276884710106e-03 -1.62702635012532161e-02 1.02579843115547520e-02
7 1 -6.16173363530944825e-03 -1.79872708680223507e-03 1.40631220600319819e-02
8 1 1.16192055557197450e-02 -1.84730994751620588e-02 -2.27105822986494593e-03
8
Step 290
1 1 -2.24978343488100918e-05 -1.25539205118954458e-02 -3.35280467973261918e-03
2 1 8.20216340230737508e-03 -1.95078792231332581e-03 -1.91518938625998870e-02
3 1 -2.03455267038782500e-02 -1.32104675229510835e-02 -2.20119260926123737e-02
4 1 1.02523530010329728e-02 8.68490609095679683e-03 9.17826937206716979e-03
5 1 1.38587592468765678e-02 1.69166715379876777e-03 -9.03589779174079552e-03
6 1 3.61853811399002199e-03 -1.30385972640149166e-02 1.26519437288439875e-02
7 1 -4.43031403363229517e-03 -4.28965983462379751e-03 1.17943709540887631e-02
8 1 8.98019202166684682e-03 -1.72589133671469178e-02 -2.20482083369797060e-03
8
Step 300
1 1 1.14416834120187067e-03 -1.27381978458166508e-02 -5.49716236607900813e-03
2 1 9.11717509992333863e-03 -4.38349171293068041e-03 -1.84900777125915523e-02
3 1 -1.93980495928464843e-02 -1.75686579238647118e-02 -2.08612075866895889e-02
4 1 1.28225748582810502e-02 5.24814596192327721e-03 8.21112595904441474e-03
5 1 1.66933947004190182e-02 -1.07289689562658857e-03 -8.82075744853911062e-03
6 1 3.34391661264704827e-03 -9.67784707185675996e-03 1.48765940581380030e-02
7 1 -2.70111619207585732e-03 -6.61306903909716221e-03 9.44718416582637777e-03
8 1 6.27986431034194270e-03 -1.57343747034853175e-02 -2.09632636101863938e-03
8
Step 310
1 1 2.27696098672573993e-03 -1.27973547252313389e-02 -7.55327845328830193e-03
2 1 9.89208801941413550e-03 -6.72705734804579340e-03 -1.76190576029733939e-02
3 1 -1.83187859198936688e-02 -2.16778554566356418e-02 -1.96141059913560942e-02
4 1 1.51461304333077827e-02 1.82019769858536985e-03 7.21205584996122574e-03
5 1 1.93282289773047712e-02 -3.86281226782375425e-03 -8.61736714914116027e-03
6 1 3.11944885811983597e-03 -6.22995451803426675e-03 1.69045345528325529e-02
7 1 -9.97295645940438329e-04 -8.74514654488421986e-03 7.04835751078833513e-03
8 1 3.54046763462190260e-03 -1.39185544003334188e-02 -1.94620407525802072e-03
8
Step 320
1 1 3.35774124734737698e-03 -1.27259019671220920e-02 -9.50249730524423478e-03
2 1 1.04992588515373658e-02 -8.94912680295097997e-03 -1.65349082211464146e-02
3 1 -1.71068048381282714e-02 -2.54862187201709764e-02 -1.82869607225732214e-02
4 1 1.71940427534322954e-02 -1.54505477294081825e-03 6.19378698038632828e-03
5 1 2.17327913489696635e-02 -6.66859725764076382e-03 -8.42899255285633683e-03
6 1 2.93632596257340254e-03 -2.73683275498372292e-03 1.87109103034873991e-02
7 1 6.58530491151527813e-04 -1.06650633771243637e-02 4.62476003437312707e-03
8 1 7.84631718255021041e-04 -1.18348381924786167e-02 -1.75538899658058008e-03
8
Step 330
1 1 4.36949228276223810e-03 -1.25199229834904013e-02 -1.13271093088944865e-02
2 1 1.09152529416280206e-02 -1.10193307823028743e-02 -1.52380870237895216e-02
3 1 -1.57633914758747509e-02 -2.89462399475633077e-02 -1.68947716442921086e-02
4 1 1.89467951081662735e-02 -4.79850806913317742e-03 5.16664665425447395e-03
5 1 2.38732156884957046e-02 -9.47649692337184171e-03 -8.25608333044684090e-03
6 1 2.78416040625925317e-03 7.59971504175143927e-04 2.02738094889666938e-02
7 1 2.24444852779599009e-03 -1.23549922692926129e-02 2.20322312116105062e-03
8 1 -1.96429035622857403e-03 -9.51109238295238038e-03 -1.52491224541307009e-03
8
Step 340
1 1 5.29648373108919553e-03 -1.21772831180294566e-02 -1.30105173404543757e-02
2 1 1.11209948163944038e-02 -1.29100136183608414e-02 -1.37337634502735454e-02
3 1 -1.42919843301077751e-02 -3.20148231119862098e-02 -1.54513743852207740e-02
4 1 2.03946770171299745e-02 -7.89988043322922308e-03 4.13617856519389072e-03
5 1 2.57134763357369373e-02 -1.22643667631187822e-02 -8.09400957550356938e-03
6 1 2.64967891635416435e-03 4.21970795451083198e-03 2.15745416154223338e-02
7 1 3.73947501724066758e-03 -1.38002097280660804e-02 -1.89612968180606379e-04
8 1 -4.68171673300177369e-03 -6.98001213302221635e-03 -1.25560123386580808e-03
8
Step 350
1 1 6.12448741134707670e-03 -1.16978285624467198e-02 -1.45374365308123411e-02
2 1 1.11019857031322972e-02 -1.45967755184119013e-02 -1.20325210302686583e-02
3 1 -1.26982110586038761e-02 -3.46535661105635620e-02 -1.39694424645730678e-02
4 1 2.15359278826666931e-02 -1.08204198403522404e-02 3.10180397540740782e-03
5 1 2.72188776904731290e-02 -1.49988154725023640e-02 -7.93139670336935436e-03
6 1 2.51521048965906453e-03 7.60282451002537458e-03 2.25976922970007980e-02
7 1 5.12383761277502431e-03 -1.49892768915287373e-02 -2.52747313715321687e-03
8 1 -7.34111022603126800e-03 -4.27962594320160320e-03 -9.47797466715474758e-04
8
Step 360
1 1 6.84102269894886622e-03 -1.10835595468062667e-02 -1.58941325382776708e-02
2 1 1.08485387680104517e-02 -1.60587460171756763e-02 -1.01513434771490531e-02
3 1 -1.09900379219793429e-02 -3.68292292960563997e-02 -1.24602532129323949e-02
4 1 2.23729498687659685e-02 -1.35429666907810678e-02 2.05742525659398335e-03
5 1 2.83603779388844381e-02 -1.76350469990011992e-02 -7.74977593481010821e-03
6 1 2.35841458046789085e-03 1.08710535465103286e-02 2.33309794519131683e-02
7 1 6.37928800905594902e-03 -1.59142696568279896e-02 -4.78463309054015518e-03
8 1 -9.91328837206936590e-03 -1.45357139291516163e-03 -6.01431301897663805e-04
8
Step 370
1 1 7.43561476079465048e-03 -1.03387613773985171e-02 -1.70686916801578367e-02
2 1 1.03559756938507684e-02 -1.72786124616823959e-02 -8.11456820352439087e-03
3 1 -9.17806705053584963e-03 -3.85143817085996723e-02 -1.09331466082977936e-02
4 1 2.29079380131292434e-02 -1.60592057262103592e-02 9.94040608318298800e-04
5 1 2.91174856170259636e-02 -2.01201342210740076e-02 -7.52476425880887600e-03
6 1 2.15504662461295845e-03 1.39869267225820465e-02 2.37651776357581390e-02
7 1 7.48942980731888246e-03 -1.65710121687935967e-02 -6.93613811950032338e-03
8 1 -1.23666287925095347e-02 1.44978128021346401e-03 -2.16921562804905861e-04
8
Step 380
1 1 7.90005103887873004e-03 -9.47007897522084141e-03 -1.80513081410211967e-02
2 1 9.62484577202931020e-03 -1.82426014327440565e-02 -5.95437784616947158e-03
3 1 -7.27604631281384383e-03 -3.96882470821101341e-02 -9.39461936501250795e-03
4 1 2.31397743804943393e-02 -1.83652941743464235e-02 -9.67077269795423006e-05
5 1 2.94786272949762451e-02 -2.23992474453189212e-02 -7.22850702346393165e-03
6 1 1.88494839417935106e-03 1.69129098180122207e-02 2.38945150031518797e-02
7 1 8.44005047205851656e-03 -1.69592669416767199e-02 -8.95808983648427315e-03
8 1 -1.46691888691479790e-02 4.38019098389967002e-03 2.03067023160741065e-04
8
Step 390
1 1 8.22862130097838824e-03 -8.48652600260821517e-03 -1.88345658707314359e-02
2 1 8.66144190234719412e-03 -1.89405288356130838e-02 -3.71069365890322207e-03
3 1 -5.30166789450953971e-03 -4.03378297350381887e-02 -7.84712415825161540e-03
4 1 2.30633910669595134e-02 -2.04578172208074484e-02 -1.21970529335480981e-03
5 1 2.94402404679652979e-02 -2.44227607232573828e-02 -6.83279940511130179e-03
6 1 1.53832436749704016e-03 1.96109236746128054e-02 2.37176705652308445e-02
7 1 9.21943974952040002e-03 -1.70828419052614575e-02 -1.08280168999727727e-02
8 1 -1.67925440246864538e-02 7.28979447211746453e-03 6.51905385945920988e-04
8
Step 400
1 1 8.41832032287676696e-03 -7.39942875006461154e-03 -1.94136802695926043e-02
2 1 7.47883915314879414e-03 -1.93655650380834543e-02 -1.43052108571171976e-03
3 1 -3.27758017399822988e-03 -4.04594214862998292e-02 -6.28805621057970145e-03
4 1 2.26712333345719212e-02 -2.23314367004029679e-02 -2.37510116420266678e-03
5 1 2.90066635317411461e-02 -2.61515853057788586e-02 -6.31231413098265991e-03
6 1 1.11831675630938107e-03 2.20429362679810288e-02 2.32389398510499008e-02
7 1 9.81867211701844232e-03 -1.69495912453876199e-02 -1.25253120519638033e-02
8 1 -1.87154275171318857e-02 1.01366210700739052e-02 1.11852911611256926e-03
8
Step 410
1 1 8.46897574771886957e-03 -6.22231526794265154e-03 -1.97866478598325499e-02
2 1 6.09803811667082498e-03 -1.95131634007210744e-02 8.33960849798417851e-04
3 1 -1.23200298847904607e-03 -4.00603454905160417e-02 -4.71010291370050922e-03
4 1 2.19555357652661612e-02 -2.39780860098857095e-02 -3.55805320083526014e-03
5 1 2.81911412782451902e-02 -2.75596450111318149e-02 -5.64778606071133452e-03
6 1 6.38622628900151396e-04 2.41725309050162818e-02 2.24689277315444878e-02
7 1 1.02318414766110789e-02 -1.65713121220512904e-02 -1.40316934638462943e-02
8 1 -2.04251774740859503e-02 1.28856420688692429e-02 1.58854679842698526e-03
8
Step 420
1 1 8.38324797390682837e-03 -4.97076161153818183e-03 -1.99542523650000983e-02
2 1 4.54791932597393023e-03 -1.93794075880792706e-02 3.03001980994707220e-03
3 1 8.02378696498531126e-04 -3.91601082521711372e-02 -3.10433021017737093e-03
4 1 2.09107610521319653e-02 -2.53869139796025559e-02 -4.75875106824711399e-03
5 1 2.70163706422584388e-02 -2.86341654232463959e-02 -4.82909204832004078e-03
6 1 1.17898338286470425e-04 2.59668280996410809e-02 2.14244455288371514e-02
7 1 1.04562466818898126e-02 -1.59635568912790092e-02 -1.53316383859544540e-02
8 1 -2.19165402813013485e-02 1.55073482501816799e-02 2.04628692262065308e-03
8
Step 430
1 1 8.16647336959073870e-03 -3.66218851026534195e-03 -1.99199302770717637e-02
2 1 2.86275745498509177e-03 -1.89602622369427036e-02 5.11154544997713053e-03
3 1 2.79228923725498334e-03 -3.77895752140663954e-02 -1.46570263193484054e-03
4 1 1.95363063477088407e-02 -2.65449079223380180e-02 -5.96298808625063056e-03
5 1 2.55131533588917013e-02 -2.93744020313145837e-02 -3.85737574923184813e-03
6 1 -4.26574984595812527e-04 2.73982391635787803e-02 2.01276856785220885e-02
7 1 1.04925252396932209e-02 -1.51453818586839428e-02 -1.64127352768525386e-02
8 1 -2.31887473958960616e-02 1.79750247296978256e-02 2.47693414321951098e-03
8
Step 440
1 1 7.82640578249811994e-03 -2.31558105553384070e-03 -1.96895902812897448e-02
2 1 1.07781255555096313e-03 -1.82530789301009640e-02 7.04522948763178659e-03
3 1 4.70936904462945956e-03 -3.59876292061251241e-02 2.02197533647739512e-04
4 1 1.78391356333122801e-02 -2.74386434770075398e-02 -7.15391938836144534e-03
5 1 2.37172919565139771e-02 -2.97887864110468782e-02 -2.74489360813544520e-03
6 1 -9.83717685389904608e-04 2.84457684177940005e-02 1.86049906733205643e-02
7 1 1.03447312055524043e-02 -1.41390467317207870e-02 -1.72659166199758858e-02
8 1 -2.42423027799344194e-02 2.02621517102692071e-02 2.86811629223447618e-03
8
Step 450
1 1 7.37296613378608280e-03 -9.51124119711906860e-04 -1.92714949180470170e-02
2 1 -7.74529376981998498e-04 -1.72597120991311651e-02 8.81178665876724589e-03
3 1 6.53411499931749393e-03 -3.37968473953964010e-02 1.88665109945049324e-03
4 1 1.58352584217313699e-02 -2.80569562008377744e-02 -8.31474787644112881e-03
5 1 2.16660853596152003e-02 -2.98908560977349004e-02 -1.51229457513184749e-03
6 1 -1.55031113692904359e-03 2.90957197055349247e-02 1.68856472323648810e-02
7 1 1.00203559574574882e-02 -1.29696709403495560e-02 -1.78855748779674154e-02
8 1 -2.50767253362556841e-02 2.23410057880707898e-02 3.21062506771949965e-03
8
Step 460
1 1 6.81803917674759282e-03 4.10207202509729849e-04 -1.86762178095977310e-02
2 1 -2.66608650229495587e-03 -1.59891246731908403e-02 1.04024083084407956e-02
3 1 8.25618896035013559e-03 -3.12605438730914065e-02 3.56894088801058915e-03
4 1 1.35492352772483681e-02 -2.83935714068512361e-02 -9.43127065086035547e-03
5 1 1.93958281968214762e-02 -2.96951054273045280e-02 -1.84429856470633922e-04
6 1 -2.12943405362943285e-03 2.93418209047113694e-02 1.50010295825227340e-02
7 1 9.53027800101569761e-03 -1.16648397210521674e-02 -1.82695924543852910e-02
8 1 -2.56897330507245350e-02 2.41827428487602289e-02 3.49834994757720332e-03
8
Step 470
1 1 6.17526076272470557e-03 1.74706383953487335e-03 -1.79166487830596834e-02
2 1 -4.57199773047731184e-03 -1.44581940246393797e-02 1.18139647260216193e-02
3 1 9.87204178998037606e-03 -2.84220028754705485e-02 5.22775413147949682e-03
4 1 1.10118294677531217e-02 -2.84487816088690622e-02 -1.04933446122533174e-02