8
Step 0
1 1 1.30169982833796046e-02 -3.90915751393750097e-03 -5.83327556246204196e-03
2 1 -1.05951608021412503e-02 -1.16098773245166681e-02 1.07277371047130848e-02
3 1 -1.07423658785850019e-02 -5.97683642001379991e-03 1.20450904754861900e-02
4 1 -7.73869338668499527e-03 -4.35615425558102953e-04 8.98038550680538977e-03
5 1 1.06189168930768251e-02 -6.56090100612922739e-03 7.74287411624780680e-03
6 1 2.12746455148641357e-02 2.33319900961039550e-02 -7.65252933554583497e-03
7 1 8.78686633003783772e-04 -9.25198569326629930e-03 -1.78440220564071738e-03
8 1 -3.31235227931507732e-03 -1.15627910951489297e-02 1.39304607125808298e-02
8
Step 1000
1 1 -1.39813564762400824e-02 1.18712454831476958e-03 8.43970370419942426e-03
2 1 2.14265771633264518e-03 1.97877039063044310e-02 -1.04951961954800679e-02
3 1 5.62126607733836638e-03 8.92306999065239741e-03 -7.73456340527244740e-03
4 1 -5.04850834093069562e-05 3.88540449719684518e-03 -6.76200868572180477e-03
5 1 -1.48003502799307612e-02 -2.12976675457232255e-03 -8.88270626920498185e-03
6 1 -2.29879798074094262e-02 -1.11216766014945768e-02 9.12594538220916872e-03
7 1 -9.71756028278724629e-05 8.28411219722610496e-03 7.09578282664598617e-03
8 1 -1.34935629160414482e-03 8.52789592598449976e-03 -8.99754175779667910e-03
8
Step 2000
1 1 1.35507205810132432e-02 -9.26568134510337990e-04 -9.34713743586644552e-03
2 1 3.37142275067325295e-03 -2.26858659080125709e-02 1.05954715049093092e-02
3 1 -1.17238239276212298e-03 -1.05743335081307822e-02 8.66829101592644837e-04
4 1 4.73475923640790958e-03 -8.80571566406324231e-03 6.24614535201574146e-04
5 1 1.37788019651244337e-02 8.66122456772991031e-03 7.09887983805361153e-03
6 1 1.90333367118632850e-02 -1.70786348191092110e-05 -7.12639655184616003e-03
7 1 6.27999462612731341e-05 -1.50520968501891375e-03 -9.12251766421336326e-03
8 1 7.25690943315936664e-03 -3.00099425202834860e-03 6.10952786753683492e-03
8
Step 3000
1 1 -1.38530831304784791e-02 3.56158238688805261e-03 8.69757245415397201e-03
2 1 -6.04346975986717883e-03 2.35365745642032338e-02 -9.36965006886073329e-03
3 1 8.33260927222070446e-04 1.00591428140060762e-02 4.42241108174798968e-03
4 1 -4.48246569920071440e-03 1.37611359852593280e-02 5.84779163165136638e-03
5 1 -9.70389892969581239e-03 -1.21675539213815537e-02 -3.93848072376470817e-03
6 1 -1.40105002168670733e-02 7.12766590874701865e-03 2.67846581380618920e-03
7 1 9.33249919258116929e-04 -7.20643364157490772e-03 6.72241392358861878e-03
8 1 -1.22662211039207148e-02 -2.10359750457474659e-03 -4.17898747656152321e-03
8
Step 4000
1 1 1.36050913140435253e-02 -6.86132281584152237e-03 -5.95254728701653715e-03
2 1 6.27910765631612983e-03 -2.14040037887518464e-02 5.82190323629963331e-03
3 1 -4.06115609832241597e-03 -7.26294217011328597e-03 -5.98052881490072474e-03
4 1 1.72045474285170664e-04 -1.67136846883116710e-02 -9.14835239524486830e-03
5 1 3.85859355856951226e-03 1.36016196580581936e-02 -4.44218498666127835e-04
6 1 9.30609655502078782e-03 -1.03306938578526710e-02 2.01601098787579369e-03
7 1 -2.29128388852145462e-03 1.53155788833910043e-02 -1.13345077512846558e-03
8 1 1.51152517232498711e-02 5.83053798836860940e-03 2.01335333018715047e-03
8
Step 5000
1 1 -1.21048424696307295e-02 8.56853463628546447e-03 1.16396478696432939e-03
2 1 -4.89992456828253556e-03 1.65641531777148757e-02 -6.51372176317591167e-04
3 1 8.79536960154497435e-03 3.52056838075546445e-03 3.20221241176668831e-03
4 1 6.20287769431697011e-03 1.62551056610149118e-02 6.83923671669662420e-03
5 1 1.29662344430567168e-03 -1.32271092559017363e-02 5.76064142225180941e-03
6 1 -6.49913588472122907e-03 1.01675358013078084e-02 -4.52262375285087097e-03
7 1 2.87448020515849697e-03 -2.01353575251652719e-02 -5.51179443326527737e-03
8 1 -1.53629324622962925e-02 -7.55071660425696203e-03 1.11162908637160607e-04
8
Step 6000
1 1 8.82571754033738970e-03 -7.35330927635523181e-03 4.75874059538062503e-03
2 1 2.69862998099200998e-03 -1.03017648731359417e-02 -4.31672738987729822e-03
3 1 -1.17920762019716706e-02 -9.54975731584829985e-04 2.52647402632616338e-03
4 1 -1.19623008166346509e-02 -1.21710886719156863e-02 8.09086037710728730e-04
5 1 -4.14585137749717749e-03 1.11037243335469615e-02 -1.06052324812909368e-02
6 1 5.79832793692570351e-03 -7.79281514246167508e-03 3.57854431746082750e-03
7 1 -1.57143525603297427e-03 1.97398762860924379e-02 1.12749711287679962e-02
8 1 1.38570329686924943e-02 7.31772550356202429e-03 -1.81586853501713671e-03
8
Step 7000
1 1 -4.02256354264105605e-03 4.11177970872772091e-03 -1.00254034703525004e-02
2 1 -9.02071712040539543e-04 4.79084960398946155e-03 7.06187228413961317e-03
3 1 1.03174524104354334e-02 1.17597105120009478e-03 -8.95050021243837431e-03
4 1 1.46028051343910104e-02 5.56265919000907810e-03 -1.06247998534913183e-02
5 1 4.42491126972737597e-03 -7.73199777512715691e-03 1.32172573636626517e-02
6 1 -6.29428264989287996e-03 4.98136870149856401e-03 3.35531095505693005e-04
7 1 -2.32429873420181938e-03 -1.38486852275052173e-02 -1.49327348642904617e-02
8 1 -1.16298050623385753e-02 -5.84723037764124133e-03 3.54574259167646753e-03
8
Step 8000
1 1 -1.26446991242362781e-03 -2.21266577696098551e-03 1.33451842926711906e-02
2 1 8.69341947212444260e-04 -1.87121910908809893e-03 -6.48780454519129381e-03
3 1 -3.40011420701388572e-03 -4.08949993487641057e-03 1.29576436211273714e-02
4 1 -1.35871740598172332e-02 1.25621328784375529e-03 1.84221816491356577e-02
5 1 -3.17457877865353006e-03 3.99166149836583349e-03 -1.28225644556010168e-02
6 1 6.74901298293018644e-03 -3.36023102862710414e-03 -5.40445947744565280e-03
7 1 9.52096621142395350e-03 4.66370283056984861e-03 1.63696976867009798e-02
8 1 9.73669759740707422e-03 5.37652158303831684e-03 -6.07185434634992423e-03
8
Step 9000
1 1 5.67827724556171920e-03 5.17547757066108300e-03 -1.42907859051983992e-02
2 1 -4.68114671662439325e-03 2.32884383580042554e-03 3.53337063999326550e-03
3 1 -6.72864490652946932e-03 7.92264688428752535e-03 -1.20059940949661346e-02
4 1 1.11327714740220782e-02 -6.45264222149717018e-03 -1.98766021052022707e-02
5 1 2.01589507068305421e-03 -1.28457506299780753e-04 9.90329939432901991e-03
6 1 -4.79587684700139537e-03 3.29028350343101060e-03 8.71241330176704583e-03
7 1 -1.87152931729917572e-02 3.85503984099451165e-03 -1.60762307367804044e-02
8 1 -9.37380752511186854e-03 -7.65875920929474235e-03 9.05159470494455373e-03
8
Step 10000
1 1 -7.05885307521416944e-03 -1.30477301281159055e-02 1.16371953978258134e-02
2 1 1.02593979127942551e-02 -5.41834050665799660e-03 2.54290112874491180e-05
3 1 1.55097627285808032e-02 -1.09153539859669357e-02 5.97348589219641804e-03
4 1 -8.39666168011077123e-03 9.47296473889318834e-03 1.35183684703824806e-02
5 1 -1.63490291852596312e-03 -3.35630756430370207e-03 -4.82010490101300679e-03
6 1 -7.97851810471552855e-04 -3.57682150356705827e-03 -7.55000232940122949e-03
7 1 2.52046767481707741e-02 -9.17990994731990827e-03 1.39919978137898159e-02
8 1 1.01376426303300248e-02 1.13039551812765607e-02 -1.11603983953743723e-02
8
Step 11000
1 1 4.39768043334506312e-03 2.08170725962403790e-02 -5.63839770923735013e-03
2 1 -1.33507372197394190e-02 9.54427008341714178e-03 -1.81790620172571403e-03
3 1 -1.79103124741455677e-02 1.10630720819022473e-02 1.55591081233262974e-03
4 1 4.41659359066225426e-03 -1.03622747150362345e-02 -2.13490265468107123e-03
5 1 1.47378194313644065e-03 5.14308330370887804e-03 -7.21506200447081473e-04
6 1 7.32822671429175874e-03 2.50065686823938921e-03 1.97003939556823554e-03
7 1 -2.40650319087776614e-02 1.03280461456089559e-02 -9.60906769806356767e-03
8 1 -9.70214093438175051e-03 -1.27166122470225018e-02 1.08528806319913851e-02
8
Step 12000
1 1 -3.36297529608022038e-04 -2.54535089675029247e-02 -3.33331024906268695e-04
2 1 1.35895177119234097e-02 -1.26717084586606445e-02 1.62898534470391721e-03
3 1 1.50819818912110246e-02 -8.78318264758209781e-03 -6.11979192906122495e-03
4 1 -9.35351086639960244e-04 9.95954731283137454e-03 -8.19892571057110123e-03
5 1 -1.17356311951882656e-03 -5.16441382236175733e-03 4.25154328601406225e-03
6 1 -1.23676446866311952e-02 1.40101197769559334e-04 5.52112427917573166e-03
7 1 1.86272295071100644e-02 -8.00766998176563431e-03 4.90377263309280716e-03
8 1 8.26121090276428320e-03 1.19157130210869149e-02 -9.23801004009158072e-03
8
Step 13000
1 1 -4.35558346132913516e-03 2.66935361697505889e-02 3.42116892733518307e-03
2 1 -1.38902091721478851e-02 1.51335974318454452e-02 1.41515619946769593e-03
3 1 -9.07606887592175143e-03 6.06207549982991974e-03 6.42457118854271748e-03
4 1 -1.51988201893486535e-03 -9.39501267559304451e-03 1.39091345255050909e-02
5 1 5.39112256490600146e-04 3.61610713581754723e-03 -5.09195793077004983e-03
6 1 1.37973277768649732e-02 -4.70493755834369178e-03 -1.26402296838247549e-02
7 1 -1.38257631096507742e-02 5.71086501474681561e-03 9.09034462830032842e-04
8 1 -8.63743529104724767e-03 -9.74670161121732326e-03 7.03654226543354473e-03
8
Step 14000
1 1 7.41480152477101521e-03 -2.21738988042728576e-02 -1.65573337490620607e-03
2 1 1.35600282866399201e-02 -1.60528582859736264e-02 -5.05685741001559493e-03
3 1 7.85183106279591526e-04 -2.58077967129469741e-03 -2.96483552007762103e-03
4 1 2.80245370636284137e-03 8.30886974422216304e-03 -1.29422101230452311e-02
5 1 -7.94013105018598624e-04 -9.80419163668718721e-04 3.51592716662758051e-03
6 1 -9.69476752639237063e-03 9.66460669642826668e-03 1.68774311407279207e-02
7 1 1.00926370195456774e-02 -3.14540704131747268e-03 -8.30918751873115091e-03
8 1 1.09714631840998420e-02 6.72025647915723643e-03 -4.41289372318531999e-03
8
Step 15000
1 1 -6.14801101148470825e-03 1.27155082457281413e-02 -5.03746369998968584e-03
2 1 -1.16168369331023699e-02 1.53138520334633287e-02 6.78308162775991073e-03
3 1 6.61529441018369503e-03 -1.09038296176783116e-03 -2.27163241192436050e-03
4 1 -3.38812145002417983e-03 -6.89459849363459158e-03 5.22863461110203900e-03
5 1 3.56503347548752609e-03 -1.44034400487424519e-03 -7.27761669910654131e-04
6 1 1.10733189536356912e-03 -1.23823491226089204e-02 -1.69731188953936366e-02
7 1 -7.63694401888195384e-03 9.03372144764198320e-05 1.53991890980437751e-02
8 1 -1.38391722471728484e-02 -3.82315271154213014e-03 2.16804794742622578e-03
8
Step 16000
1 1 3.16313882616069998e-04 -3.36004819552112840e-03 1.36639990120379015e-02
2 1 8.72199796233234965e-03 -1.26977686874239926e-02 -5.03517868510025383e-03
3 1 -9.94292859810911277e-03 4.30549523060838341e-03 5.62944789789440823e-03
4 1 3.77621877685942057e-03 4.98052333606706366e-03 4.88785504644815866e-03
5 1 -9.11264667066880203e-03 2.42604668856105134e-03 -1.29276506435454033e-03
6 1 8.14622303508559520e-03 1.08488198488044234e-02 1.35965133068971962e-02
7 1 5.93572653376952565e-03 2.90009205106435495e-03 -1.93036141722621457e-02
8 1 1.52604150034309893e-02 2.22284783126154486e-03 -1.95293952984988017e-04
8
Step 17000
1 1 6.93901807345881361e-03 1.03207630034949602e-04 -1.98994756103666876e-02
2 1 -6.26454240909357554e-03 8.52561565857552946e-03 8.15663660314315487e-05
3 1 7.83510476756251600e-03 -6.47374626523573513e-03 -3.86680190995616901e-03
4 1 -3.79954844279911967e-03 -2.15377975510125472e-03 -1.08567846780176589e-02
5 1 1.56148415699955499e-02 -1.75607623596175130e-03 7.22386362835020159e-04
6 1 -1.33346083007179986e-02 -5.25870249370715120e-03 -8.70311041497639007e-03
7 1 -4.47535905815242031e-03 -4.58604953472036871e-03 1.80153083574799665e-02
8 1 -1.52843482263811357e-02 -2.69057345732173899e-03 -1.69743289336580280e-03
8
Step 18000
1 1 -1.15961623365183255e-02 -5.47298475523862443e-03 2.13400220050429697e-02
2 1 4.86007023705337885e-03 -4.26667897926976715e-03 5.37864863546645960e-03
3 1 -1.77218643860814181e-03 6.97178211013393685e-03 -2.02820641097624377e-03
4 1 3.32663221552722968e-03 -8.18896990729307025e-04 1.04894127843215383e-02
5 1 -2.01576484516683245e-02 2.08048879731238280e-04 2.48250819573797316e-03
6 1 1.26691325930397992e-02 -1.97730588194008905e-03 4.67394530240300594e-03
7 1 3.15709463024205000e-03 4.85573108946711889e-03 -1.24416879551391569e-02
8 1 1.49622579434979877e-02 3.93886431918682653e-03 2.49448682707507268e-03
8
Step 19000
1 1 1.15376972175774851e-02 1.65547736746676950e-02 -1.93422713768475717e-02
2 1 -4.32709744082045936e-03 2.32951400516928295e-03 -8.54411058337363992e-03
3 1 -5.27181700826818023e-03 -5.71045771871996153e-03 8.81061952608300919e-03
4 1 -2.14424813814140984e-03 3.16126991440912565e-03 -5.89210031732846206e-03
5 1 2.01320586185996138e-02 1.21107438315515292e-03 -7.59403006118216945e-03
6 1 -8.43187259731410614e-03 7.91103868930665387e-03 -2.54704322545957432e-03
7 1 -2.11023001827794453e-03 -4.31227785896079810e-03 5.53025163572253703e-03
8 1 -1.42628458023306773e-02 -3.81170666070734798e-03 -1.19846727152759830e-03
8
Step 20000
1 1 -6.81348942055003473e-03 -2.81745412635600601e-02 1.48417539843739201e-02
2 1 4.07178488739141139e-03 -2.97871915297793100e-03 8.27924628712678815e-03
3 1 1.08189894712198472e-02 4.11524175719574919e-03 -1.38280234281091246e-02
4 1 6.72941967629424971e-04 -4.57328232569749037e-03 1.30049654854648915e-04
5 1 -1.37767291789825386e-02 -1.60408219064594299e-03 1.31372639771239492e-02
6 1 3.36945036061540425e-03 -1.05248321865124179e-02 1.12695439936307592e-03
7 1 1.66833087759545528e-03 2.80223649269115355e-03 4.14203752870042111e-04
8 1 1.31600211159583081e-02 1.32905652427292467e-03 -1.60451067414687891e-03
8
Step 21000
1 1 -9.10745852147160691e-04 3.60028458765315057e-02 -8.59415689155876641e-03
2 1 -3.33786068565679675e-03 4.36024388677104351e-03 -5.00059684015297361e-03
3 1 -1.33414545189115066e-02 -3.14523328192224194e-03 1.42087604790967544e-02
4 1 6.20964936466106591e-04 4.23310796159107831e-03 4.00871801153541291e-03
5 1 1.71380107290500781e-03 3.78977968288430028e-04 -1.70890461708840639e-02
6 1 6.57632352109904610e-04 9.02476129700415831e-03 1.22243888524367042e-03
7 1 -2.01023853241106719e-03 -5.11153221311907578e-04 -3.98403270740771594e-03
8 1 -1.20090966325915403e-02 3.45292649197972241e-03 5.61313827909749614e-03
8
Step 22000
1 1 8.65743012158191882e-03 -3.70513216709192281e-02 2.96054042097381289e-03
2 1 1.40953817792228227e-03 -4.77645857889943699e-03 -9.31865460428660865e-05
3 1 1.23726875364510748e-02 2.38627228671566211e-03 -9.30840680632501888e-03
4 1 -1.63204189452669434e-03 -1.72749366738530010e-03 -4.58940045725743113e-03
5 1 1.25451558721367019e-02 2.48306464276699685e-03 1.81046797725400860e-02
6 1 -2.87493575105922730e-03 -3.58756545797821397e-03 -4.89549846484424716e-03
7 1 2.98008926951693481e-03 -1.77056876806860062e-03 4.46070982682098514e-03
8 1 1.08521386078092360e-02 -8.88231302532534010e-03 -9.88107596646019617e-03
8
Step 23000
1 1 -1.29221818315780595e-02 2.89796516716223952e-02 -1.56292551812387947e-03
2 1 1.86479414775687761e-03 4.44131857693859985e-03 5.53774011619261649e-03
3 1 -8.01023054378873639e-03 -1.21958425720998780e-03 1.07311812566657509e-03
4 1 2.28139580561848845e-03 -1.86826490343788474e-03 1.54945467856843475e-03
5 1 -2.41608125690290741e-02 -6.10072408163626640e-03 -1.60534561403814884e-02
6 1 3.38137376988538766e-03 -4.17047436598309579e-03 8.98938380448492669e-03
7 1 -4.21548744245036494e-03 2.97818819245861555e-03 -2.24151034845040346e-03
8 1 -9.64991968572474768e-03 1.30890644345676484e-02 1.27828915156793770e-02
8
Step 24000
1 1 1.30861295019623868e-02 -1.44593833543511310e-02 6.53581994766756248e-03
2 1 -6.50900172751237190e-03 -4.77470557815809580e-03 -9.94053924234763846e-03
3 1 1.36677842982873979e-03 -7.79182649500613457e-04 7.52068757472662292e-03
4 1 -2.88638649946571478e-03 4.98123090184823467e-03 3.52206209416890863e-03
5 1 2.89697828047437260e-02 9.49086811396889288e-03 1.26438584168399645e-02
6 1 -3.10063962421374979e-03 1.16927658792839034e-02 -1.20718063425398568e-02
7 1 5.23271323295233792e-03 -2.03191475495707180e-03 -1.14766522729771447e-03
8 1 8.45982634502900378e-03 -1.50122825929044391e-02 -1.35509610793467742e-02
8
Step 25000
1 1 -1.15882860571175396e-02 9.32325237226625078e-04 -1.55601338140282167e-02
2 1 1.19627154939145781e-02 5.89655922018134191e-03 1.13265397214403138e-02
3 1 6.04553547675050137e-03 2.82751948835690799e-03 -1.26944119351217292e-02
4 1 3.69824292465358940e-03 -6.19822681275410126e-03 -8.20653711440415788e-03
5 1 -2.49113802291276928e-02 -1.13971349701555997e-02 -9.90476995329912097e-03
6 1 3.20785853770518643e-03 -1.60825821147101769e-02 1.21396239035979243e-02
7 1 -5.57765264609625180e-03 -1.17535302974934607e-03 3.68849491836874916e-03
8 1 -6.87046969377355134e-03 1.44713359239885889e-02 1.17357150386663660e-02
8
Step 26000
1 1 1.01330199667054709e-02 5.95443711732630832e-03 2.30632109377904571e-02
2 1 -1.57202023150671555e-02 -6.83550826717669799e-03 -7.75371795128697913e-03
3 1 -1.16273835472722950e-02 -4.11125088906460091e-03 1.13659359601690838e-02
4 1 -3.38296486792374071e-03 4.33640172827461957e-03 1.01135560353963795e-02
5 1 1.33411687436140770e-02 9.69164887477382345e-03 6.92619796359474765e-03
6 1 -3.29439919200624678e-03 1.42374257981018413e-02 -7.79133216016149495e-03
7 1 5.56115044152068888e-03 4.43694632409431192e-03 -4.03544644196747633e-03
8 1 4.37163866577514829e-03 -1.07400969023696280e-02 -6.37437022655201573e-03
8
Step 27000
1 1 -9.95919962446917273e-03 -4.87080095450627762e-03 -2.55142488537841057e-02
2 1 1.64398409889697991e-02 7.46442796029025361e-03 -2.36959664520524699e-04
3 1 1.33606379949871290e-02 4.01775604608181104e-03 -5.16323691364152342e-03
4 1 2.85924273472100009e-04 -2.07060817693868304e-04 -8.61725316556775055e-03
5 1 -9.10039891102798503e-04 -5.04936356047640603e-03 -2.06931450922853309e-03
6 1 1.85413313701135170e-03 -7.20402129699474186e-03 1.33009785242236959e-03
7 1 -5.93563718878775421e-03 -5.38636482050265999e-03 2.78116035607311194e-03
8 1 -3.18556714606602499e-03 6.06680202453236447e-03 -8.27354942687536790e-05
8
Step 28000
1 1 1.14595962161201104e-02 -1.75129777893418036e-03 2.36162680196383215e-02
2 1 -1.41751658461915370e-02 -6.14734385286542714e-03 8.47810557494258973e-03
3 1 -1.19040460336390496e-02 -2.79475737564572951e-03 -1.45093210514180958e-03
4 1 4.96576377287521065e-03 -4.31271385048230191e-03 5.97479862994670496e-03
5 1 -6.05588595587598991e-03 1.99467757850722952e-04 -3.49478842790485649e-03
6 1 2.11714927184391026e-03 -7.87622905106417741e-04 3.64907203532716020e-03
7 1 6.97731159793801587e-03 2.85274011628930575e-03 -1.72016769614625207e-03
8 1 4.49423436150630379e-03 -3.28485875855423623e-03 4.55308372610176322e-03
8
Step 29000
1 1 -1.40853021241048610e-02 1.07451221941480581e-02 -1.86175685090357139e-02
2 1 9.84594402715230181e-03 8.11749475668762039e-04 -1.41328596867236825e-02
3 1 8.97819619405143023e-03 1.32303829150492709e-03 5.52802791641174730e-03
4 1 -1.02145680110035057e-02 7.62894272744366227e-03 -4.64980684274846848e-03
5 1 5.48929760870678525e-03 2.99408669809905510e-03 8.76125711681820067e-03
6 1 -7.74011780291828950e-03 5.99314572199641151e-03 -5.08351434389356024e-03
7 1 -8.23379018209614670e-03 2.55038676674562139e-03 1.98819494569671623e-03
8 1 -7.34872693917089283e-03 3.27940364983523485e-03 -6.29222725313099713e-03
8
Step 30000
1 1 1.62619824639369769e-02 -1.77525402921401947e-02 1.16349942762206653e-02
2 1 -5.41683533518002441e-03 5.29136970468774802e-03 1.70131958339394436e-02
3 1 -5.64608028759540619e-03 -4.47074824913691604e-04 -5.76600614251045977e-03
4 1 1.34067019764612886e-02 -8.28316264383529600e-03 5.41457594548303608e-03
5 1 4.39619098103908440e-04 -3.97545733344738684e-03 -1.34334501698858723e-02
6 1 1.30350944277170602e-02 -6.44394348758870004e-03 2.91341587513461444e-03
7 1 8.82409022305764672e-03 -8.85764496783638874e-03 -3.45785604614382621e-03
8 1 9.95912367984697934e-03 -5.17833516824123263e-03 5.41973519132850703e-03
8
Step 31000
1 1 -1.58106747984410531e-02 2.00140475871400554e-02 -4.64285185897421460e-03
2 1 1.88610683924103455e-03 -8.67938893860550724e-03 -1.61701258656956094e-02
3 1 2.42434815905657845e-03 8.64586901662585719e-04 2.25081586019833203e-03
4 1 -1.30585444107032874e-02 5.64361570683349217e-03 -7.48381927031203150e-03
5 1 -7.77824305558557239e-03 2.96710480485876072e-03 1.68032964331712789e-02
6 1 -1.57401915877279711e-02 2.33044341247279742e-03 1.14136207814107275e-03
7 1 -7.78653037142822049e-03 1.38305933945392975e-02 5.01104236822788682e-03
8 1 -1.03230066347942944e-02 7.88793416793924507e-03 -2.80370590033571709e-03
8
Step 32000
1 1 1.24453695912917148e-02 -1.74660088875577928e-02 -6.21192645040126467e-04
2 1 3.55462858053768520e-04 7.89254777616657695e-03 1.22905062654364520e-02
3 1 1.83036621447958659e-04 -3.08395774028992443e-03 3.52154019337000499e-03
4 1 8.75756915704143345e-03 -1.57551757402431432e-04 9.07698218386159168e-03
5 1 1.31485378177779617e-02 -1.03871370976540587e-03 -1.78655736430796373e-02
6 1 1.48853433630379058e-02 4.68296038458379266e-03 -4.85602655720023327e-03
7 1 5.08247851563866336e-03 -1.58939570002997049e-02 -5.29589785765029967e-03
8 1 7.61140920887591350e-03 -1.02852030243953049e-02 -1.88773823646721562e-04
8
Step 33000
1 1 -7.78498384691228042e-03 1.24834756325381130e-02 3.59194535476784751e-03
2 1 -2.25561886897906452e-03 -3.15685356906131830e-03 -8.41109997619458524e-03
3 1 -2.27013389859162702e-03 7.05676957975132167e-03 -9.69116827034180797e-03
4 1 -1.61100147030057163e-03 -7.35164793100923173e-03 -7.91487709313695893e-03
5 1 -1.49178060821290072e-02 -1.04262724896414161e-04 1.65641623449281905e-02
6 1 -1.15486823697628135e-02 -1.22242043307657575e-02 6.40856581280826055e-03
7 1 -1.79749653423572834e-03 1.48597683474092929e-02 3.35987047964547573e-03
8 1 -2.34087011289699568e-03 1.17606078726379282e-02 2.68784798478328545e-03
8
Step 34000
1 1 3.89589856339654173e-03 -6.52143214199202032e-03 -4.04422317551837458e-03
2 1 4.14671920606806549e-03 -4.58468925616089835e-03 7.27092137826279052e-03
3 1 2.77068712374391787e-03 -9.85778556902922910e-03 1.48819223865296647e-02
4 1 -6.37762626583760015e-03 1.41164170802091943e-02 1.72631269232016629e-03
5 1 1.17941114353295046e-02 1.40360704593663055e-04 -1.11573402542660179e-02
6 1 7.12252113338894891e-03 1.54672394674749275e-02 -4.51601872942370992e-03
7 1 -6.11008533110883687e-04 -9.58346049070474097e-03 7.64542036742022727e-04
8 1 -4.63837213099162725e-03 -1.02114536055895825e-02 -3.45381079792871342e-03
8
Step 35000
1 1 -3.39917422413669448e-03 2.93260239922274587e-03 1.99269917824899077e-03
2 1 -4.98163396579088310e-03 1.02693420503659726e-02 -9.52887807225389488e-03
3 1 -1.63449100991170911e-03 8.39534964738580282e-03 -1.72149342675273521e-02
4 1 1.21840099461977373e-02 -1.70695917851392785e-02 7.89634910146465828e-03
5 1 -5.12045345966925195e-03 1.33332212683666775e-03 2.98799108352834023e-03
6 1 -3.48913230956664037e-03 -1.17316946394979624e-02 7.34324482568928026e-04
7 1 -4.18370537869057501e-04 2.65139580824203620e-03 -5.22945143234744558e-03
8 1 9.34214973826245909e-03 6.38884352785583191e-03 1.51104518280305929e-03
8
Step 36000
1 1 5.57797442727743596e-03 -2.02705720262638797e-03 1.02693414733667993e-03
2 1 5.41955233029170133e-03 -1.10114508462418187e-02 1.54843430759729651e-02
3 1 -7.74059232689547545e-04 -3.62555380332872310e-03 1.84301133663665913e-02
4 1 -1.40129841918754695e-02 1.51701424471857270e-02 -1.67436070554404515e-02
5 1 -2.32332521573943700e-04 -2.94161464987582801e-03 4.25331313732558742e-03
6 1 3.44751161982759062e-03 3.02595842406803593e-03 1.36693867960913378e-03
7 1 4.61273258337548207e-03 2.11385339527624680e-03 7.60444914491314149e-03
8 1 -9.95952170812214148e-03 -2.31576381926621670e-03 1.08519260906027488e-03
8
Step 37000
1 1 -7.44494477069399668e-03 1.05890332835660247e-03 -3.55968199873636128e-03
2 1 -7.19459779671601397e-03 7.89445738578752575e-03 -2.22082816900388384e-02
3 1 4.21118710686364285e-03 -2.47664377694569631e-03 -2.06336639103309148e-02
4 1 1.19806216199968840e-02 -8.60808992553009286e-03 2.14426306635879041e-02
5 1 1.83031364846264390e-03 3.58411768595290857e-03 -7.80320145183854494e-03
6 1 -6.68742960274663813e-03 7.65935088889874594e-03 4.18625850748320747e-05
7 1 -1.02148337051497229e-02 -3.56163749476532841e-03 -7.02682276692707768e-03
8 1 6.60130403939539201e-03 -8.43207361569051398e-04 -2.54861449442934842e-03
8
Step 38000
1 1 6.89826743419957433e-03 1.54120174970907376e-03 3.96418158573468883e-03
2 1 1.11125488866343752e-02 -3.28797176320710753e-03 2.63122880653324995e-02
3 1 -7.38977220672692135e-03 8.01857525235684550e-03 2.49592947092101419e-02
4 1 -7.57768871956239834e-03 -6.59782514233747848e-04 -2.08146476090397096e-02
5 1 -1.31550197599919629e-06 -2.94346494790490845e-03 6.31894487108626470e-03
6 1 1.15530644988931126e-02 -1.78049177682555286e-02 -4.83860730625193004e-03
7 1 1.47116827400439795e-02 1.80888565518711147e-03 4.27352378164410924e-03
8 1 -1.00329363441450047e-03 1.74848173470599989e-03 3.17222789274211213e-03
8
Step 39000
1 1 -3.43834281739808633e-03 -4.64852628135686927e-03 -3.50195331128898019e-03
2 1 -1.61387145602283552e-02 3.74390690863765987e-04 -2.47490574394935679e-02
3 1 6.78223651300161826e-03 -1.10514392022535903e-02 -2.84589052065021275e-02
4 1 2.67064319848786969e-03 1.02648180488631585e-02 1.53018708626411516e-02
5 1 -3.22843019439238198e-03 1.06544046231231665e-03 -2.39382710339147372e-04
6 1 -1.53936536286186729e-02 2.51428874427275378e-02 1.09993272823682969e-02
7 1 -1.54507137489613509e-02 2.38352277916601112e-03 -1.14877706970514218e-03
8 1 -3.86726638010964456e-03 1.91828307301115415e-04 -3.74267055090801238e-03
8
Step 40000
1 1 -1.23499035385523726e-03 4.82993952511914532e-03 4.15774761497187447e-03
2 1 2.06674357476923261e-02 -1.47003194027463843e-03 1.68471134613968690e-02
3 1 -1.44682441326693281e-03 1.02074218634466956e-02 2.77192069594742324e-02
4 1 1.00437790036073745e-03 -1.66561805150327313e-02 -7.34212442877535745e-03
5 1 5.62694296365962542e-03 1.78981863578698912e-03 -8.75000712857366102e-03
6 1 1.59756851434577143e-02 -2.75245992528447489e-02 -1.48992951079567771e-02
7 1 1.12031490325243694e-02 -7.13457976599990787e-03 -4.88649734212608317e-04
8 1 6.02667717782309331e-03 -3.49572610481366404e-03 4.15117612767796577e-03
8
Step 41000
1 1 4.25648256199476650e-03 4.71744649303883353e-04 -5.21067485984987033e-03
2 1 -2.38815179483641768e-02 6.28949492527325349e-03 -6.50177755465745737e-03
3 1 -6.85471500554687366e-03 -7.60909655447896977e-03 -2.36515546462622711e-02
4 1 -2.84353415743072557e-03 1.73313431337427243e-02 6.51195625983345592e-04
5 1 -5.83656349376132384e-03 -4.42120777779832046e-03 1.77800711205107938e-02
6 1 -1.36005661741333151e-02 2.59967226069654847e-02 1.40055113537361827e-02
7 1 -4.07759751548990388e-03 1.01740430774126013e-02 -4.24907012203618029e-04
8 1 -5.35187969416988252e-03 6.21599944774403178e-03 -4.02017986270993433e-03
8
Step 42000
1 1 -4.16657345688841319e-03 -8.32185354556543543e-03 3.97614128272323619e-03
2 1 2.38858030297415189e-02 -1.07822295336003123e-02 -7.64103656935311622e-04
3 1 1.56097891548710732e-02 6.15928754527676238e-03 1.68780325621780830e-02
4 1 3.37618800123951329e-03 -1.14901675465168881e-02 3.17553650005058738e-03
5 1 3.79494924668949624e-03 4.72592019710687400e-03 -2.22638242435249586e-02
6 1 9.36566479260207349e-03 -2.16791854492571802e-02 -8.40134314330631161e-03
7 1 -2.53315419018446076e-03 -9.83684185237849486e-03 2.87186421417933791e-03
8 1 2.84031992854167107e-03 -6.87207801633725295e-03 3.63408208513600313e-03
8
Step 43000
1 1 2.01146432022035514e-03 1.22284655657918656e-02 -8.16780891538494962e-04
2 1 -1.91333259237636867e-02 1.03065205408112478e-02 6.58797452182891311e-04
3 1 -2.12533835017139523e-02 -5.73447494730296679e-03 -8.96037442593593941e-03
4 1 -3.31326683937557777e-03 1.59668952729011162e-03 -4.52077891030367145e-03
5 1 -6.97459441059076080e-04 -2.42895203140623597e-03 2.00153125312479037e-02
6 1 -4.85230611850703472e-03 1.56925065723804089e-02 7.37999499053120260e-04
7 1 5.63701285745086579e-03 6.52157073978775099e-03 -4.61312616672385906e-03
8 1 -6.69149912610527472e-04 4.46384791365221547e-03 -3.47700602901849587e-03
8
Step 44000
1 1 8.60933021587445189e-04 -1.03182613095668761e-02 -1.83012581422682089e-03
2 1 1.14968338057023760e-02 -4.38374682327939344e-03 6.69712191958541075e-03
3 1 2.18589935948054065e-02 5.81017793077462895e-03 2.45260669277732723e-03
4 1 3.54044580949780356e-03 6.85456118669790053e-03 4.70851913339788344e-03
5 1 -9.97658650140484425e-04 -1.63313006052897441e-03 -1.28358723740417766e-02
6 1 1.61471406834932073e-03 -9.56507361227880958e-03 5.46920193493560022e-03
7 1 -4.84538637385779902e-03 -3.05752843821448976e-03 3.88850779709410451e-03
8 1 -2.00666341564119605e-04 9.09174311072808388e-05 3.15001299381667587e-03
8
Step 45000
1 1 -3.50266254217397859e-03 4.82755478053735389e-03 3.48540879763633866e-03
2 1 -3.82844531058396283e-03 -4.17006494431120499e-03 -1.83308110519004031e-02
3 1 -1.93107536237603142e-02 -5.37573308149181302e-03 4.81673823201236460e-04
4 1 -4.41156198806999522e-03 -1.16319878714904699e-02 -5.36438184184683930e-03
5 1 2.56746747316531003e-04 6.63042831535923510e-03 4.22781491399903259e-03
6 1 1.03152469072729651e-04 4.58514549324065285e-03 -7.71127966210388097e-03
7 1 2.04872282230069563e-03 1.69461762032074577e-03 -9.17629484401218457e-04
8 1 6.87247849775511014e-04 -4.78316980179186065e-03 -2.83547824722105764e-03
8
Step 46000
1 1 4.68054953082596217e-03 2.45000597601881861e-03 -4.11130099948412570e-03
2 1 -2.16468046411684911e-03 1.22281910624120246e-02 3.14441089100355731e-02
3 1 1.57228482185090591e-02 2.76565153131707936e-03 1.74512697938537814e-04
4 1 6.00112505030726134e-03 1.19196286792785603e-02 7.83424439450366300e-03
5 1 2.82209946044120318e-03 -1.27703495358345437e-02 3.48084414170389328e-03
6 1 -1.30232295965629439e-03 -8.65217572124852750e-04 5.69972285236394760e-03
7 1 8.88516975260863497e-04 -3.68283661812077905e-03 -3.35286486663917806e-03
8 1 -1.31823233401437922e-03 7.67526399998357759e-03 2.80403599785523493e-03
8
Step 47000
1 1 -3.88938533895474663e-03 -9.26170545657383631e-03 2.01359184114598610e-03
2 1 4.89525687697022274e-03 -1.53610553040733760e-02 -3.77137607582738663e-02
3 1 -1.06267200277642259e-02 2.96450648493988252e-03 -1.71157982034137292e-03