8
Step 0
1 1  3.023859026055e+02   2.378816802784e+02  -9.555576813497e+01 
2 1  2.697713000661e+02  -2.546322453998e+02  -6.199506671967e+02 
3 1 -6.255592878208e+02  -1.652719680071e+02  -4.327187349958e+02 
4 1  1.094359229731e+02  -2.812415677186e+02   5.182986855887e+02 
5 1  6.418775273896e+01  -4.157455463467e+02  -2.316845659138e+02 
6 1  2.785438408206e+02   2.531813734805e+02   6.452012672630e+01 
7 1  1.707535445606e+02  -1.773918968688e+02  -4.312858342593e+00 
8 1 -5.187397608193e+02   9.509279551745e+01  -3.168950203061e+02 
8
Step 100
1 1 -1.060200097739e+02   1.729044476361e+02   2.053246594994e+02 
2 1 -3.763218309925e+02   4.873202049606e+02   1.499028186550e+01 
3 1 -4.690871340866e+01  -2.457087207393e+02  -1.260981288859e+02 
4 1 -1.605968354450e+02  -3.478786933467e+02   7.271369794755e+02 
5 1 -5.268815080500e+02  -6.824017908935e+02   2.559619462710e+01 
6 1  2.219325468724e-01   2.919562763004e+02  -3.993541234405e+02 
7 1 -1.563664142982e+02  -1.301779736901e+02   4.046235274034e+02 
8 1 -6.941002201260e+02   1.363891013212e+02   3.629646126554e+02 
8
Step 200
1 1 -1.904416566958e+02  -1.254374917801e+02   2.563442845299e+02 
2 1 -4.367102189004e+02   3.966697880352e+02   2.937590333712e+02 
3 1  2.575574614120e+02  -1.375214036094e+02   3.164023961686e+02 
4 1 -9.976937356285e+01  -6.222078139338e+01   3.458469695074e+02 
5 1 -4.563089968188e+02  -3.578126837330e+02   3.035289578480e+02 
6 1 -1.030763236277e+02   2.500121438576e+02  -2.769672257014e+02 
7 1 -5.577162620504e+02  -5.750753254272e+01   3.873937747739e+02 
8 1 -4.065571212770e+02  -2.606442026166e+02   5.707068013410e+02 
8
Step 300
1 1  1.799987978664e+02  -4.210813157394e+02   5.987916778840e+01 
2 1  1.224450452250e+02  -2.707678797949e+02  -4.757495094667e+01 
3 1  4.992972286094e+01   1.029295971389e+02   3.238905218421e+02 
4 1  1.808117268220e+02   1.427638832641e+02  -3.016447356810e+02 
5 1  3.292690244096e+01   1.033549357837e+02   1.451274060268e+02 
6 1 -7.264872779281e+01   1.724175903435e+02   3.216419921109e+02 
7 1 -6.185582202068e+02   1.041029677205e+02  -1.851194575801e+01 
8 1  1.150037023918e+02  -4.518594316128e+02   9.523153649958e+01 
8
Step 400
1 1  4.520345177720e+02  -4.607766836475e+02  -9.061416216404e+01 
2 1  4.652195340565e+02  -4.728145609479e+02  -3.552483979702e+02 
3 1 -2.415784893823e+02   3.431151861908e+02  -1.502554893251e+02 
4 1  1.890374657554e+02   8.704389999833e+01  -5.469086282185e+02 
5 1  2.572152107642e+02   2.770116389957e+02  -3.328211169015e+02 
6 1 -1.196239994329e+02   1.956837348915e+01   6.090666934325e+02 
7 1 -1.958230558454e+02   2.621705520084e+02  -2.311438126309e+02 
8 1  5.363353681122e+02  -1.197786703643e+02  -3.641243669778e+02 
8
Step 500
1 1  1.795486377541e+02  -2.003096692042e+02  -4.705330590784e+01 
2 1  1.483428140775e+02   8.907153028823e+01  -8.440119659279e+01 
3 1 -1.782601419038e+02   3.819863162877e+02  -5.433769768875e+02 
4 1 -1.683884381185e+02  -1.321548298271e+01  -2.685662215437e+02 
5 1  2.843552875669e+01   1.484987298291e+02  -5.117297195921e+02 
6 1 -2.310171258658e+02  -2.230879188891e+02   2.567602343484e+02 
7 1  3.857661017211e+02   2.304743746164e+02   3.850047075995e+01 
8 1  6.135482786316e+02   3.612105112220e+02  -2.271696967129e+02 
8
Step 600
1 1 -3.707336815636e+02   1.523851927831e+02   3.216885446485e+01 
2 1 -3.203675379700e+02   6.067150301299e+02   4.521532646098e+02 
3 1  1.665688845562e+02   1.350720743517e+02  -3.705859386375e+02 
4 1 -4.222303284822e+02   3.136118191146e+01  -5.643418431325e+00 
5 1 -2.108791958582e+02  -1.111747992996e+01  -9.140007967259e+01 
6 1 -2.024285729432e+02  -4.265984337166e+02  -2.138326647069e+02 
7 1  6.318933903506e+02   8.014940716380e+00   3.794660887455e+02 
8 1  3.180112548653e+02   4.907260576126e+02   2.227965722101e+02 
8
Step 700
1 1 -6.029013320973e+02   3.634670303076e+02  -5.347339028913e+01 
2 1 -2.922966799498e+02   3.366764986059e+02   5.681677533937e+02 
3 1  3.953182655751e+02  -2.202398452968e+02   2.066715354283e+02 
4 1 -2.019335876244e+02   8.986851571816e+01  -1.422222875756e+02 
5 1 -7.161747792628e+01  -4.588949150812e+00   4.770079563035e+02 
6 1  2.683143563680e+01  -4.211326350189e+02  -2.459593288668e+02 
7 1  3.805181360870e+02  -1.696368798386e+02   2.344838689603e+02 
8 1 -1.718853500281e+02   2.540099374613e+02   3.069241377528e+02 
8
Step 800
1 1 -3.252180334404e+02   3.402935399779e+02  -2.490332645942e+02 
2 1  1.334060812206e+02  -4.010599859401e+02   1.283177273751e+02 
3 1  3.042748671935e+02  -3.683235548435e+02   6.009059903886e+02 
4 1  2.364998733956e+02  -3.958101449235e+01  -3.919646409117e+02 
5 1  2.790883215811e+02   1.134775975434e+02   5.205960123438e+02 
6 1  2.373204099922e+02  -2.043873908327e+02   3.458107764960e+01 
7 1 -7.928542118733e+01  -1.000572229837e+02  -3.424734356153e+02 
8 1 -5.378727327032e+02  -3.990860546162e+00  -1.148753109591e+02 
8
Step 900
1 1  9.728695814242e+01   1.387193795365e+02  -2.962676500736e+02 
2 1  3.166899047074e+02  -6.636882252332e+02  -3.067851979537e+02 
3 1  6.539561053438e+01  -1.919175183620e+02   4.714692147440e+02 
4 1  3.361173692524e+02  -2.518997557732e+02  -2.490776738200e+02 
5 1  3.794586119747e+02   1.403528620586e+02  -2.478269403884e+01 
6 1  2.058158311654e+02   2.939432869363e+01   1.108339363062e+02 
7 1 -3.310250931384e+02   1.233503967650e+02  -6.981725675841e+02 
8 1 -5.051494900868e+02  -9.240358956726e+01  -4.688418547889e+02 
8
Step 1000
1 1  2.509825926801e+02  -1.070864972632e+02  -7.151340191995e+01 
2 1 -4.371512604845e+00  -1.174463451198e+02  -2.324093078698e+02 
3 1 -6.048702870592e+01   7.339986020374e+01   4.826048816464e+01 
4 1 -1.501842808720e+01  -2.175972231190e+02   2.418248761079e+02 
5 1  7.961151107266e+01  -2.440181825958e+01  -5.156658423377e+02 
6 1  5.056806577920e+00   1.051010336899e+02  -1.421695571767e+02 
7 1 -2.218256923615e+02   2.076394347514e+02  -3.679362119545e+02 
8 1 -8.472952166899e+01  -1.231042010748e+02  -2.352079079102e+02 
8
Step 1100
1 1  1.505148807677e+02  -2.586890435424e+02   2.267664369096e+02 
2 1 -3.592937768347e+02   5.446984464392e+02   1.527414259587e+02 
3 1 -5.834640114461e+01   1.236573646087e+02  -2.229381326781e+02 
4 1 -3.193136728792e+02   1.397648392074e+02   5.128714630503e+02 
5 1 -2.930523421511e+02  -2.400466930782e+02  -3.976231751706e+02 
6 1 -1.035543762714e+02   9.095299582401e+01  -3.095051363925e+02 
7 1  3.588745667761e+01   2.870870838592e+01   3.200598383236e+02 
8 1  3.733300805246e+02  -2.027555200103e+02   3.519507379496e+02 
8
Step 1200
1 1  7.465502179060e+01  -2.223366142526e+02   3.042618668074e+02 
2 1 -2.196300750536e+02   5.208223813254e+02   2.638361546564e+02 
3 1 -1.042381726101e+02  -3.573522824466e+01  -2.050508454201e+02 
4 1 -1.294148244535e+02   4.563021045001e+02   2.525427928970e+02 
5 1 -3.653582386845e+02  -2.503455969221e+02   1.535289513773e+02 
6 1 -2.158641555017e+01   1.809849221520e+02  -8.700536685064e+01 
7 1  1.412890975861e+02  -2.183105494464e+02   6.324882030675e+02 
8 1  4.677695940713e+02  -2.041852783774e+02   5.965444990099e+02 
8
Step 1300
1 1  1.313807701116e+02  -1.819669897542e+01   1.211753545382e+02 
2 1  2.503358655785e+02  -1.051296387911e+02  -8.082468477023e+01 
3 1 -2.425722488291e+02  -1.210608006866e+02  -1.095646106015e+02 
4 1  3.456112498849e+02   3.169876475536e+02  -1.313437557031e+02 
5 1 -1.281820067436e+02   1.766461601143e+01   4.694721741696e+02 
6 1  8.218456020935e+01   3.917760392726e+02   2.349119487096e+02 
7 1  6.644675961008e+00  -2.601184407721e+02   2.777772280933e+02 
8 1  1.236405183710e+02   2.431071582198e-01   1.981795047049e+02 
8
Step 1400
1 1  1.558347461949e+02   1.928963599643e+02  -5.279169124039e+01 
2 1  4.165362015418e+02  -5.261000625661e+02  -4.259055476865e+02 
3 1 -2.835148011440e+02   2.739509305288e+01  -1.339093284398e+02 
4 1  5.018469337762e+02  -1.846742894654e+02  -7.795195980536e+01 
5 1  1.259597475719e+02   3.155652776173e+02   2.466249715381e+02 
6 1  3.945905357698e+01   4.742637192460e+02   1.973065457507e+02 
7 1 -1.756778397075e+02  -9.090901624106e+01  -2.582223756812e+02 
8 1 -3.008601538241e+02   2.467444973198e+02  -3.766318585190e+02 
8
Step 1500
1 1  2.586910935058e+01   2.233499721593e+02   7.723330015657e+00 
2 1  5.320536596269e+01  -2.739471536642e+02  -3.184464751498e+02 
3 1 -7.414528632109e+01   2.297066945792e+02  -2.041520261440e+02 
4 1  1.137664046679e+02  -5.071016238849e+02   3.165391416334e+02 
5 1  1.949035500496e+02   3.179346514340e+02  -1.514393867733e+02 
6 1 -7.636446186931e+01   1.940835395344e+02  -1.351253663299e+02 
7 1 -1.687392485552e+02   7.009937645181e+01  -3.646589478666e+02 
8 1 -3.800539042451e+02   2.326165944726e+02  -5.116330572127e+02 
8
Step 1600
1 1 -1.201207751001e+02   3.863802101082e+01   1.970466722022e+02 
2 1 -3.503648331110e+02   2.575169263473e+02   8.341176757376e+01 
3 1  2.161451997211e+02   2.237416159687e+02  -1.467367962502e+02 
4 1 -3.794490789604e+02  -2.749000131732e+02   4.177442690798e+02 
5 1  1.217478055834e+02   7.281247407260e-01  -2.330647754744e+02 
6 1 -7.480602100611e+01  -3.001179098790e+02  -2.432383296793e+02 
7 1  4.721929173200e+01   8.552879487481e+01  -2.462558897654e+01 
8 1 -4.874893799476e+01  -6.849425096295e+01  -1.635074966579e+02 
8
Step 1700
1 1 -1.061421423439e+02  -1.829125904242e+02   2.040414861918e+02 
2 1 -2.717814104240e+02   4.112962028443e+02   2.561377721298e+02 
3 1  2.669834401309e+02   2.296116874813e+01   4.577511967640e+01 
4 1 -4.490008814629e+02   2.585863912634e+02  -5.479086124392e+01 
5 1  3.275770796555e+01  -3.125665667159e+02  -1.915270402611e+01 
6 1  5.707478076586e+01  -5.727831295998e+02   8.915975024824e+01 
7 1  2.594611637709e+02   5.326338864740e+01   2.508074671416e+02 
8 1  3.446595345107e+02  -3.276157816966e+02   1.809732294944e+02 
8
Step 1800
1 1 -1.081320027360e+00  -2.115847826736e+02  -1.022469526056e+02 
2 1  1.571356832544e+02   7.889091778782e+01   2.955962579242e+01 
3 1  2.411038741239e+01  -1.303247987580e+02   2.145287011035e+02 
4 1 -1.030149214648e+02   4.921221777378e+02  -6.075912109631e+02 
5 1 -3.931048071989e+01  -3.160194365670e+02   8.259231917843e+01 
6 1  1.240457706442e+02  -3.699892256341e+02   4.338785577943e+02 
7 1  2.463424105869e+02   9.994562303868e+01   1.228204887554e+02 
8 1  4.061980138074e+02  -2.499842491442e+02   1.732133752926e+02 
8
Step 1900
1 1 -2.447140343328e+01  -7.003835516533e+00  -4.746938215727e+02 
2 1  3.452621854596e+02  -2.705852379682e+02  -1.942941108641e+02 
3 1 -1.874328848684e+02  -1.083059792423e+02   2.423338310605e+02 
4 1  1.811534123580e+02   1.575639261146e+02  -5.913778768652e+02 
5 1 -1.051790324200e+02  -6.743775070578e+01  -9.562980377135e+01 
6 1 -6.035303658928e+00   5.396380799201e+01   2.862951377974e+02 
7 1  5.266979011196e+00   1.600821850683e+02  -1.707660725684e+02 
8 1  8.710744746776e+01   6.506795963752e+01  -1.498225901446e+01 
8
Step 2000
1 1 -1.974979971217e+02   2.196594200098e+02  -5.367653255998e+02 
2 1  5.128627007835e+01  -2.691188658509e+02  -1.329899541163e+01 
3 1 -7.117117650520e+01  -4.953769217992e+01   1.754135768957e+02 
4 1  9.647511432041e+01  -3.770812677546e+02  -6.480690032465e+01 
5 1 -1.110236407018e+02   1.167180516617e+02  -2.474650813906e+02 
6 1 -2.065321532215e+02   2.130064550645e+02  -2.143539665040e+02 
7 1 -2.479647834848e+02   7.827403208777e+01  -1.895276546493e+02 
8 1 -2.975770852036e+02   2.672022037072e+02  -1.869636432710e+01 
8
Step 2100
1 1 -2.692019628174e+02   2.182432151813e+02  -1.816184790747e+02 
2 1 -3.184062684353e+02  -5.646589268552e+01   3.996228288072e+02 
3 1  2.367164451808e+02  -1.017459731756e+02   1.054300356518e+02 
4 1 -1.447594403448e+02  -5.418690745785e+02   3.135342535026e+02 
5 1  4.748769012641e+00   8.711589203733e+01  -6.691271331578e+01 
6 1 -2.473811226739e+02  -2.959869482767e+01  -4.503247918491e+02 
7 1 -2.948280537329e+02  -1.209759834130e+02   9.951802260024e+01 
8 1 -4.223253573386e+02   1.956167920446e+02   1.841407189247e+02 
8
Step 2200
1 1 -5.348524546929e+01  -4.163104718201e+01   3.058005344111e+02 
2 1 -2.685160652385e+02   4.571793621811e+01   4.895077382703e+02 
3 1  3.121999091874e+02  -1.710212925773e+02   3.389665353759e+01 
4 1 -1.497683780547e+02  -1.667532785340e+02   1.558390248624e+02 
5 1  1.615372978890e+02   2.589827688582e+01   2.752872518312e+02 
6 1 -7.108142369859e+01  -3.014771763463e+02  -1.296775141067e+02 
7 1 -9.612532657979e+01  -2.114610838662e+02   2.901279163844e+02 
8 1 -2.433949656396e+02   2.455509809720e+01   2.648625302347e+02 
8
Step 2300
1 1  2.757315151787e+02  -3.186331549812e+02   5.219674944230e+02 
2 1  1.387167245260e+02   1.379913591183e+01   3.946531231077e+01 
3 1 -7.477028319369e+00  -6.435434736274e+01  -8.646080182093e+01 
4 1  1.263321169690e+02   3.721253237931e+02  -1.801331556271e+02 
5 1  1.585643844756e+02   1.474943846594e+02   3.323530776540e+02 
6 1  1.610996778900e+02  -1.715377299982e+02   3.169732240588e+02 
7 1  1.951868047473e+02  -6.538347902587e+01   9.025375192983e+01 
8 1  2.271763386715e+01  -1.055621460812e+01   2.806683371727e+01 
8
Step 2400
1 1  3.599409074275e+02  -3.230118571350e+02   3.325671980825e+02 
2 1  3.753843173157e+02   9.090716083630e+01  -5.066384795934e+02 
3 1 -3.626020764247e+02   1.780561192684e+02  -2.217211174806e+02 
4 1  3.341700787069e+02   5.664791227099e+02  -1.255647606173e+02 
5 1 -8.323770343461e+01   3.284764257299e+02   2.217763446727e+00 
6 1  2.756908682903e+02   3.109038263201e+02   2.781124555500e+02 
7 1  3.608844546102e+02   1.357307409618e+02  -2.681216207716e+02 
8 1  1.673493544604e+02   7.876651583142e+01  -2.827082564411e+02 
8
Step 2500
1 1  1.117095799996e+02  -1.677684163860e+01  -4.307833575835e+00 
2 1  1.297648590055e+02   3.199936608300e+02  -5.192365412073e+02 
3 1 -2.759999684535e+02   2.515403747161e+02  -2.458048777260e+02 
4 1  1.988177542798e+02   2.650475292736e+02   2.748696244566e+02 
5 1 -3.272401522288e+02   2.069086784097e+02  -2.668145271850e+02 
6 1  2.457420189608e+02   6.049317521391e+02  -2.170053765295e+02 
7 1  2.519779786254e+02   1.057497649929e+02  -2.915789826099e+02 
8 1  1.754735917241e+02   8.720251939899e+01  -2.627552242198e+02 
8
Step 2600
1 1 -1.186254956455e+02   3.027034152257e+02  -1.286922742010e+02 
2 1 -2.533682794540e+02   3.708764912472e+02  -1.911238071408e+01 
3 1  1.463638020330e+02   2.994446495977e+01  -1.268043027115e+02 
4 1 -7.500847296824e+01  -1.799342109097e+02   4.136367969704e+02 
5 1 -2.461655038928e+02  -2.422748546902e+02  -9.304313996752e+01 
6 1  1.558528757097e+02   3.598831861594e+02  -4.744139094343e+02 
7 1 -7.054942251975e+01  -1.153126365742e+02   6.688894767370e+01 
8 1  1.791206852088e+02  -5.693573397525e+01   6.134750716573e+01 
8
Step 2700
1 1 -4.171791183283e+01   3.515884251056e+02  -2.919097848186e+01 
2 1 -2.925743770996e+02   1.277638075269e+01   3.640731428718e+02 
3 1  3.080569324994e+02  -1.817389039805e+02   9.054039301391e+00 
4 1 -1.206043781179e+02  -3.771479276782e+02   9.091223425089e+01 
5 1  1.413508651259e+02  -5.532329526397e+02   2.354790572641e+02 
6 1  2.173238440195e+01  -1.135961340164e+02  -1.325637535663e+02 
7 1 -3.794995999654e+02  -1.904027662742e+02   3.066204647106e+02 
8 1  2.239711522701e+02  -1.911503886203e+02   2.333488391957e+02 
8
Step 2800
1 1  1.686730856631e+02   1.453347980511e+02   1.678017134588e+01 
2 1 -1.584537999730e+01  -4.759836344282e+02   2.341097456652e+02 
3 1 -5.626020333208e+01  -4.804418588563e+01   4.786328197066e+01 
4 1  6.200106758331e+01  -2.577553404335e+02  -1.721116715136e+02 
5 1  4.469729521869e+02  -3.327921996213e+02   1.760409179020e+02 
6 1 -1.926076642861e+02  -2.856684076052e+02   3.402064085473e+02 
7 1 -4.308409594066e+02   1.403746281742e+01   7.551307732894e+01 
8 1  1.927873897481e+02  -1.829397660175e+02  -9.952171778538e+00 
8
Step 2900
1 1  1.432885288048e+02  -7.251934822795e+01  -1.345767242603e+02 
2 1  1.624432326087e+02  -5.788709972079e+02  -1.349086417000e+02 
3 1 -4.711494773658e+02   2.906592488116e+02   3.699196286537e+01 
4 1  1.367452603180e+02  -8.074145716620e+00   4.658972108301e+01 
5 1  3.368772405848e+02   1.871698372378e+02  -2.477147626741e+02 
6 1 -3.912222926622e+02  -9.044440962594e+01   3.185025315552e+02 
7 1 -1.437201395754e+02   2.011341925109e+02  -3.259962673056e+02 
8 1 -6.518936513962e+00  -1.137623140255e+02  -3.698395508046e+02 
8
Step 3000
1 1 -1.472069384974e+02  -1.271282815593e+02  -2.847531432221e+02 
2 1  6.599967588766e+01  -1.803552618053e+02  -2.588783491348e+02 
3 1 -3.191440705458e+02   3.413936464563e+02   9.992213824209e+01 
4 1 -7.032747714291e+01   1.686789937041e+02   3.575757602520e+02 
5 1 -8.568346844811e+01   4.000740063686e+02  -4.238851760437e+02 
6 1 -3.603648504114e+02   4.584903332400e+01  -9.715489857989e+01 
7 1  2.913959781965e+02   6.707284723036e+01  -3.247555135084e+02 
8 1 -2.737413803989e+02  -1.003042077682e+02  -3.541244839335e+02 
8
Step 3100
1 1 -3.501780497188e+02  -6.777627425817e+01  -1.759934122297e+02 
2 1 -4.893037639591e+01   2.765117925363e+02  -7.650684992262e+01 
3 1  3.083544256460e+02  -7.909806756973e+01   2.260896367945e+02 
4 1 -3.279357623844e+02   1.774626965225e+02   1.007475101941e+02 
5 1 -3.921348776836e+02   1.044051750446e+02  -2.722101469664e+01 
6 1 -5.376397377339e+01  -1.500349387643e+02  -2.409590542531e+02 
7 1  5.147078520449e+02  -2.089599156037e+02   1.510507380702e+02 
8 1 -3.919239577791e+02  -7.543923308620e+01   9.526355027188e+01 
8
Step 3200
1 1 -2.298911254001e+02  -3.814192216419e+01   1.238854409008e+02 
2 1  4.541342700363e+01   3.431430604313e+02   8.238126567920e+01 
3 1  6.677904603171e+02  -5.285436397637e+02   2.530224537000e+02 
4 1 -3.223926017195e+02   3.074130759048e+01  -5.877986373612e+02 
5 1 -3.087290512039e+02  -2.285833860866e+02   4.479737304304e+02 
6 1  2.590968233234e+02  -3.941542499958e+02   1.351575671824e+02 
7 1  3.075145696185e+02  -1.648117149227e+02   5.411541316995e+02 
8 1 -2.564824028685e+02   8.203453510899e+01   5.196264649381e+02 
8
Step 3300
1 1  2.513111775503e+01  -7.869482865227e+01   2.733294352230e+02 
2 1  1.859979296672e+02   7.830489016593e+01   2.926180600523e+01 
3 1  2.953188274486e+02  -4.522571711052e+02   8.839354798137e+01 
4 1 -6.416825738856e+01  -1.569063123445e+02  -8.058990811547e+02 
5 1  1.737394099639e+01  -1.005980621514e+02   3.205424414720e+02 
6 1  2.665911781755e+02  -2.565327689690e+02   4.716709860686e+02 
7 1 -1.639868860229e+02   2.587818045319e+02   3.483984235621e+02 
8 1  1.743818046241e+01   2.680375898641e+02   4.773651311579e+02 
8
Step 3400
1 1  9.587903744580e+01  -1.155687798732e+02   1.155921621716e+02 
2 1  1.046862893542e+02  -8.888512294910e+01  -4.808867087659e+01 
3 1 -3.423291844119e+02   5.661883136761e+01  -1.300223994401e+02 
4 1  1.501663820958e+02  -1.996488026338e+02  -1.740735123218e+02 
5 1  2.239781899037e+02   2.920626172159e+02  -2.676787758572e+02 
6 1  2.668444201983e+01   1.706024338495e+02   2.011062259672e+02 
7 1 -4.529443943514e+02   5.195203803381e+02  -1.968797053215e+02 
8 1  2.053861472203e+02   2.443761824430e+02   6.702369243463e+01 
8
Step 3500
1 1 -6.167688141096e+00  -8.921137853008e+01  -1.150184128846e+02 
2 1 -1.248296446874e+02   3.457086430250e+01   6.082038749635e+01 
3 1 -4.948756348453e+02   3.974317588300e+02  -2.223055536861e+02 
4 1  1.684177098608e+02  -1.054408143766e+01   5.578331348052e+02 
5 1  1.678142576664e+02   3.391401471340e+02  -5.171096762896e+02 
6 1 -1.019008491798e+02   3.853519055895e+02  -4.121005426164e+02 
7 1 -3.057003953256e+02   1.846215033130e+02  -4.702909672021e+02 
8 1  2.091142077055e+02   1.782582349476e+01  -2.709682531445e+02 
8
Step 3600
1 1 -3.000026274156e+01  -1.689649903307e+01  -1.257990266743e+02 
2 1 -1.919137502550e+02   2.164204608978e+02   2.458138360213e+02 
3 1 -6.720425103048e+01   2.506869140165e+02  -1.803588098421e+02 
4 1  1.102082037949e+02   2.598238837040e+02   4.996291989895e+02 
5 1 -2.308850981954e+00  -1.203435040949e+02  -5.406946073297e+01 
6 1  6.224272823261e+01   1.492415806246e+02  -6.125368034404e+02 
7 1  1.033233295204e+02  -4.604475255620e+02  -2.236380811513e+02 
8 1  9.606648031271e+01  -1.098123265588e+02  -2.804991613657e+02 
8
Step 3700
1 1  1.021952238901e+02   5.429823345643e+01   4.648915081847e+01 
2 1 -1.158192795942e+01   1.664466575351e+02   2.371802987895e+02 
3 1  3.306850064361e+02  -6.279546072833e+01  -1.213236215168e+02 
4 1  1.218592166340e+02   3.092722291976e+02  -1.844722876618e+02 
5 1 -8.290994321505e+01  -5.346007488923e+02   5.447757760333e+02 
6 1  2.714269522143e+02  -1.915755351536e+02  -1.562469954074e+02 
7 1  3.555306863427e+02  -6.926442236486e+02   1.722612805937e+02 
8 1 -5.081808780774e+00   5.176836340148e+01  -9.392504213174e+01 
8
Step 3800
1 1  1.874974392242e+02   1.161196202558e+02   9.904985792138e+01 
2 1  1.397555933747e+02  -9.400056568294e+01   2.000114993745e+00 
3 1  2.291292237293e+02  -1.028306063368e+02  -7.719727286737e+01 
4 1  1.575327491087e+02   7.549599263282e+00  -5.073579408330e+02 
5 1 -4.652257641882e+01  -3.595108366032e+02   5.049134226735e+02 
6 1  1.725806713934e+02  -1.745983978304e+02   3.842181237735e+02 
7 1  2.279911931030e+02  -2.266922207582e+02   2.520126494370e+02 
8 1 -3.168836306798e+01   2.609288648516e+02   1.968249010082e+01 
8
Step 3900
1 1  7.698539936978e+01   1.779578200371e+02  -9.678828438216e+01 
2 1  9.193434386096e+00  -3.008435411430e+02  -1.956981910245e+02 
3 1 -1.360690810343e+02   7.166138807418e+01   2.726248635711e+01 
4 1  9.349146558941e+01  -3.951803696590e+02   7.386331208823e+00 
5 1 -8.921463728307e+00   2.123915583504e+02  -1.413386954246e+02 
6 1 -2.076033016466e+02   1.744975024947e+02   3.801378377786e+02 
7 1 -1.105758740920e+02   4.309119411918e+02   4.603008070456e+00 
8 1 -7.499390429925e+00   1.303520404936e+02  -2.478427308315e+01 
8
Step 4000
1 1 -7.695981408149e+01   1.964142651853e+02  -2.745124241919e+02 
2 1 -2.694494075518e+02  -2.781871221730e+02  -1.410918256438e+02 
3 1 -2.343756458407e+02   5.091282626353e+01   1.896044646567e+02 
4 1 -5.781984472144e+01  -4.719571329887e+02   7.087101515080e+02 
5 1 -4.512524382725e+01   4.970777269189e+02  -6.182844134914e+02 
6 1 -4.627593989285e+02   3.933631801064e+02  -7.450419917265e+01 
7 1 -3.261202089394e+02   5.880637865486e+02  -2.048715181123e+02 
8 1  1.598928341726e+01  -3.256016646467e+02  -9.109268433397e+01 
8
Step 4100
1 1 -2.898062631196e+01   8.266391061040e+01  -8.213420370191e+01 
2 1 -3.133196243498e+02  -8.342720894658e+01   6.404106912209e+01 
3 1  2.155003543665e+01  -2.463834261132e+02   2.370350259911e+02 
4 1 -1.533944664722e+02  -4.619791566149e+01   6.672970646400e+02 
5 1 -9.495532505142e+01   1.759326273094e+02  -3.618395737590e+02 
6 1 -2.656198522392e+02   1.749885771800e+02  -3.466101550645e+02 
7 1 -2.412252545663e+02   1.218675647960e+02  -1.272860979641e+02 
8 1  1.395681900647e+01  -6.087275917542e+02  -3.128090324377e+01 
8
Step 4200
1 1  1.694217484341e+02  -1.475109893562e+02   3.969139219171e+02 
2 1  5.274746463222e+00   9.095231755096e+01   1.166330953576e+02 
3 1  1.748883680114e+02  -3.521129858684e+02   4.923539131972e+01 
4 1 -1.263075364929e+02   5.179455196548e+02  -5.705364384931e+01 
5 1 -4.500445145920e+01  -2.587447390762e+02   2.607280622828e+02 
6 1  2.023180351155e+02  -2.087685272287e+02  -1.052274949442e+02 
7 1  2.421123448404e+01  -3.832548099901e+02   8.372888279106e+01 
8 1 -6.995069921624e+00  -3.440846037710e+02   1.240817255547e+02 
8
Step 4300
1 1  1.934243426028e+02  -3.229290226252e+02   6.496439169602e+02 
2 1  3.812977165932e+02   1.512702275299e+02  -1.015742247923e+02 
3 1 -6.084680067569e+01   8.845948056321e+01  -2.217610819045e+02 
4 1 -7.620875281107e+01   6.611781256869e+02  -5.455234518508e+02 
5 1  1.273789408980e+02  -1.885020602615e+02   4.803338828823e+02 
6 1  4.706440863921e+02  -2.868473253527e+02   2.795048966097e+02 
7 1  2.462745053749e+02  -3.741274145809e+02   1.436859629527e+02 
8 1 -3.400659369354e+01   2.149175988527e+02   2.087176856782e+02 
8
Step 4400
1 1 -9.726473604182e+01  -2.437392662211e+02   2.881477636662e+02 
2 1  4.305218090907e+02   1.345391763192e+02  -3.673066307567e+02 
3 1 -3.333601561651e+02   6.646586220918e+02  -2.626666562835e+02 
4 1 -1.039121926293e+02   1.880830581513e+02  -2.897265968842e+02 
5 1  2.918969424459e+02   2.693813186383e+02   9.947044868035e+01 
6 1  2.924771665621e+02  -1.242257949296e+01   2.926956456601e+02 
7 1  2.980980737679e+02   7.667246431875e+01   2.807395892616e+01 
8 1 -5.863733112653e+01   4.642474746616e+02   1.066929985589e+02 
8
Step 4500
1 1 -3.871384305267e+02   5.730054064511e+01  -3.956969199096e+02 
2 1  1.529387732448e+02   1.083868076534e+02  -3.641006347463e+02 
3 1 -1.468426925280e+02   5.887081651976e+02   7.238134502193e+00 
4 1 -1.473547806702e+02  -4.539365426041e+02   1.138124666454e+02 
5 1  2.729668559310e+02   3.807706155903e+02  -2.996288035804e+02 
6 1 -1.003566103614e+02   1.669890392163e+02  -1.399460346168e+01 
7 1  1.952066299608e+02   4.148564663203e+02  -3.165846176415e+01 
8 1 -7.113284319808e+01   2.077004990551e+02  -9.477774887415e+01 
8
Step 4600
1 1 -3.100257095814e+02   2.967542015204e+02  -7.305685356914e+02 
2 1 -1.314097954768e+02   9.250573455188e+01  -3.895991756147e+01 
3 1  3.483315722502e+02  -2.157952964640e+02   2.946832558460e+02 
4 1 -5.724847573527e+01  -6.613960128910e+02  -8.125744331709e+01 
5 1  3.261904179927e+01  -1.481229697493e+02  -2.180450311487e+02 
6 1 -3.365205120431e+02  -4.368073179823e+01  -1.697391994686e+02 
7 1  6.320632032048e+00   3.041870470468e+02   7.324579424483e+01 
8 1 -5.560497295492e+01  -1.111531717421e+02  -1.925332309898e+02 
8
Step 4700
1 1  4.372963170691e+01   2.210646694096e+02  -4.310250230839e+02 
2 1 -2.117258761971e+02   7.034232549709e+01   3.566954077963e+02 
3 1  4.881408622286e+02  -8.781610543777e+02   2.750836663236e+02 
4 1  1.684234050218e+02  -2.962304626359e+02  -6.019937448446e+02 
5 1 -2.688553194135e+02  -6.890521212847e+02   1.223983255678e+02 
6 1 -2.978502643202e+02  -3.660199404457e+02  -1.249304426528e+01 
7 1 -1.893443657313e+02  -7.558350078274e+01   1.609798316245e+02 
8 1 -4.630957320130e-02  -6.044856574218e+01  -8.394112575444e+01 
8
Step 4800
1 1  2.300749205207e+02  -9.620917896164e+01   9.507712996588e+01 
2 1 -1.574435713529e+02   2.127216331679e+01   5.097338418327e+02 
3 1  2.532838874406e+01  -6.062407026612e+02  -1.422828414073e+01 
4 1  3.205565191883e+02   2.154135300046e+02  -5.321106433908e+02 
5 1 -3.934281434689e+02  -4.912422382339e+02   1.966844081486e+02 
6 1 -1.117895097781e+02  -3.341562914650e+02   1.126451473740e+02 
7 1 -2.808058515032e+02  -3.455535515177e+02   3.448883854603e+01 
8 1  7.681662476657e+01   1.975177842588e+02   1.114927114526e+02 
8
Step 4900
1 1  6.206726575849e+01  -3.067575050457e+02   2.786027552384e+02 
2 1 -1.062150068764e+02  -7.016379152308e+01   3.383052231886e+02 
3 1 -4.501123977682e+02   2.574740289024e+02  -2.375415592533e+02 
4 1  2.244004765582e+02   3.880431983774e+02   2.641263975352e+02 
5 1 -2.641832763257e+02   2.626844039178e+02  -3.438540557477e+01 
6 1  8.160816083099e+01   4.526781400309e+01  -6.047822020076e+01 
7 1 -2.029847137370e+02  -3.506074052215e+02  -2.087875181783e+02 
8 1  1.246091024145e+02   2.021601906262e+02   1.759294765225e+02 
8
Step 5000
1 1 -1.547071580059e+02  -1.739231289612e+02   7.980582302642e+01 
2 1 -5.364248030716e+01  -1.966150178789e+02   9.201727124047e+00 
3 1 -3.000470171953e+02   7.001373678587e+02  -1.980137262234e+02 
4 1 -6.048717544071e+01   1.801378437153e+02   8.711704290678e+02 
5 1 -1.409480893047e+01   6.965850200069e+02  -1.414745686477e+02 
6 1  2.355383541700e+02   3.397206225756e+02  -2.865716549432e+02 
7 1 -2.247499818494e+01  -1.727375823422e+02  -2.922154907135e+02 
8 1  9.379898243862e+01  -1.045130391310e+02   3.999174823427e+01 
8
Step 5100
1 1 -6.348336353415e+01   1.748561142468e+02  -8.086408190563e+01 
2 1  3.799759255207e+01  -2.822268558011e+02  -2.193231347799e+02 
3 1  3.017938349714e+02   2.748864846409e+02  -2.061639311544e+01 
4 1 -2.963488800660e+02  -8.723983078749e+01   5.300742648447e+02 
5 1  1.606432610587e+02   3.340201663054e+02   7.932791658025e+01 
6 1  2.794187039728e+02   2.751726165393e+02  -1.743532510682e+02 
7 1  1.002645804190e+02   7.423205042006e+01  -1.008489539576e+02 
8 1 -1.594284835499e+01  -3.013413402180e+02  -1.379759846615e+02 
8
Step 5200
1 1  2.527749372556e+02   3.706414700020e+02   7.599711880148e+01 
2 1  8.550412023464e+01  -2.263341552496e+02  -2.004093533306e+02 
3 1  5.515472831283e+02  -3.833869510463e+02   6.383054761574e+01 
4 1 -2.851336893520e+02  -1.391040511247e+02  -2.765165757727e+02 
5 1  1.789381510897e+02  -3.115051739137e+02   2.748288113388e+02 
6 1  1.325314246980e+02   6.804880597688e+01   1.969134173940e+02 
7 1  8.571818774837e+01   2.843235476575e+02   1.701360501862e+02 
8 1 -1.313489089351e+02  -1.055011315838e+02  -1.485129795162e+02 
8
Step 5300
1 1  3.980133236995e+02   1.988124984191e+02   3.390580021596e+02 
2 1 -2.766406062953e+00  -7.394656048708e+00  -2.583956744314e+01 
3 1  6.054129890725e+01  -4.364304202687e+02   2.152169904091e+01 
4 1 -2.734386848568e+01   5.517708908935e-01  -4.751907509845e+02 
5 1  1.172894250434e+02  -4.498736434186e+02   4.754461026323e+01 
6 1 -1.426184531409e+02   5.182726148223e+01   3.463007584441e+02 
7 1  3.706482585860e+01   3.259441852810e+02   2.564280470643e+02 
8 1 -1.616326389081e+02   2.175260825863e+02   1.755167645995e+01 
8
Step 5400
1 1  1.823892827997e+02  -1.735828255801e+02   3.224837901508e+02 
2 1 -1.239995961986e+02   2.446418202934e+02   5.408995164691e+01 
3 1 -6.169583980888e+02   1.286631708575e+02  -2.532919052342e+00 
4 1  2.758798550791e+02   1.403018659833e+02   1.650088978537e+02 
5 1  8.730473920112e+01   1.144006486812e+01  -4.203825710055e+02 
6 1 -2.899904566560e+02   1.955542170621e+02   3.742004306863e+01 