8
Step 0
1 1 1.01012980291244475e-02 8.76698930961605435e-03 -4.26672132011644660e-03
2 1 9.04712704154579661e-03 -7.15207304295860987e-03 -2.12162422581108762e-02
3 1 -1.98917977515217191e-02 -4.26376521349218409e-03 -1.51645213874872994e-02
4 1 3.86475811308757949e-03 -8.01214103102613692e-03 1.55743162927342461e-02
5 1 2.40224425156572788e-03 -1.23595860692585560e-02 -8.66668385282660936e-03
6 1 9.33067358912683525e-03 9.26150683970064850e-03 9.07260609291608931e-04
7 1 5.84666967024573703e-03 -4.65550622465814821e-03 -1.31756294207653873e-03
8 1 -1.64391710903200212e-02 4.15175907702019457e-03 -1.14208608736975463e-02
8
Step 1000
1 1 -6.61091586827257404e-04 -1.43028152133596511e-02 9.74485479845284145e-04
2 1 1.10034498928347573e-03 -5.29537255895308565e-03 1.01337843550436107e-02
3 1 7.42276543966195572e-03 6.07048057949158369e-03 1.15786818378476371e-02
4 1 2.84318161192938430e-04 5.94931660551624181e-03 -1.59884655622097652e-02
5 1 1.77650871158155604e-03 8.74583673724712435e-03 4.51066267831250547e-03
6 1 -5.10994993591830978e-03 -4.53980530560760005e-03 1.00250759281447915e-02
7 1 -1.25035992862550481e-02 5.30146628139011467e-03 1.92625043878253636e-03
8 1 1.13952746779145877e-02 -9.85701805425632897e-03 6.44026925906406120e-03
8
Step 2000
1 1 -7.04701544801662489e-03 1.27067065104864586e-02 2.21762196438304556e-04
2 1 -9.30735028080523046e-03 1.34380342061077660e-02 -2.20265350983245159e-04
3 1 4.04163495519017056e-03 -6.16211530726392884e-03 -7.41875284905277235e-03
4 1 -3.20864379743501620e-03 -3.09864605750439972e-03 9.39434731743458290e-03
5 1 -4.96467202785755117e-03 -5.61270902464805141e-03 -3.19428349349054315e-04
6 1 -2.18568654771488912e-03 -2.42174409939405980e-03 -1.27792094948338316e-02
7 1 1.29959783045384466e-02 -4.85679970393971139e-03 -5.98440466435134518e-05
8 1 -4.76144805902341001e-03 1.16271100587339547e-02 -3.04310782075622110e-04
8
Step 3000
1 1 1.05873360184504765e-02 -6.11044414468839021e-03 9.30912589123368138e-04
2 1 1.39079036692215888e-02 -1.61578287288592047e-02 -4.40133339848014764e-03
3 1 -1.09562347502414874e-02 5.64838259035401261e-03 4.15628246268991315e-03
4 1 4.92330053957654255e-03 4.29522990446979096e-04 -8.46384154752510766e-04
5 1 7.05868305138274144e-03 4.30959707107941761e-03 -1.56625218556595428e-03
6 1 9.30760856748040315e-03 8.03083839805975898e-03 9.82266355436560434e-03
7 1 -8.69718229273003761e-03 3.69022678644337137e-03 -3.83789410593479881e-03
8 1 -2.17920640239365051e-04 -9.87059038382176630e-03 -5.57524937510657081e-03
8
Step 4000
1 1 -9.62398325325926514e-03 -2.28394158156011370e-03 -4.08963483777686349e-03
2 1 -1.45577027826606521e-02 1.36011040370740723e-02 3.35050829560749495e-03
3 1 1.30748721708426868e-02 -5.51677854890808214e-03 -1.37840148934191575e-03
4 1 -4.82315662701214218e-03 1.74655314404122434e-03 -6.11231626911507009e-03
5 1 -7.47365449455308223e-03 -3.78495122143566011e-03 1.34143121436142978e-03
6 1 -1.34573889853066841e-02 -1.02616135526434615e-02 -4.51686327734842578e-03
7 1 1.42129349962894836e-03 -2.52953941115193143e-03 7.76070334226788405e-03
8 1 2.72866535127399851e-03 4.46593138515572440e-03 1.02028432056393056e-02
8
Step 5000
1 1 4.81193295940438893e-03 8.74938860818316906e-03 8.17437039888146803e-03
2 1 1.09707673176869993e-02 -6.51905477000536311e-03 2.28449841425796673e-03
3 1 -1.09110034643057907e-02 6.11770493032353334e-03 -1.10379042309283431e-03
4 1 2.32125851920183960e-03 -3.01992762784118220e-03 9.63604089191957315e-03
5 1 5.63529930898437181e-03 2.41000034131653301e-03 2.88527343967170512e-04
6 1 1.25037253323935678e-02 8.35139323166095467e-03 -5.14333469415153622e-04
7 1 6.08020718731864997e-03 1.78940765615175079e-03 -9.07963382100699344e-03
8 1 -3.27853474697028212e-03 3.50840846966507525e-03 -1.18973493515781414e-02
8
Step 6000
1 1 1.47609894506935862e-03 -1.00516465940028079e-02 -1.17482360502598748e-02
2 1 -4.42176071649117482e-03 -2.74766880656085195e-03 -9.70547824374206301e-03
3 1 6.32827543475200302e-03 -7.66771154001742294e-03 2.89230485900761076e-03
4 1 2.16436941964164280e-03 2.91018254005152854e-03 -9.40837641341863741e-03
5 1 -2.27000028407406320e-03 4.24950020148595088e-04 -2.47265782741622978e-03
6 1 -6.75509394961286685e-03 -3.17428065286816212e-03 3.12961660875164414e-03
7 1 -1.08958757217700059e-02 -1.90910422279017672e-03 6.60028721168095210e-03
8 1 2.73334258310001721e-03 -1.13678443082654203e-02 1.03602815351766468e-02
8
Step 7000
1 1 -6.54348630803358415e-03 5.23600075012718279e-03 1.39574919273551049e-02
2 1 -3.49866689743655920e-03 1.19182170573095894e-02 1.60261726547298450e-02
3 1 -1.47272017765979948e-03 1.02308302078621891e-02 -3.03163165409193157e-03
4 1 -7.50436127864719579e-03 -1.27488306116843868e-03 6.93944842002383166e-03
5 1 -6.25800243554685350e-04 -4.45206590721120704e-03 4.61134014552912110e-03
6 1 -1.27029094444774666e-03 -3.44987123177296949e-03 -2.86224502213083430e-03
7 1 1.13867122494638578e-02 3.24855455544237077e-03 -1.00313863299447237e-03
8 1 -2.03108037398931325e-03 1.65869460985356570e-02 -6.75323847470518570e-03
8
Step 8000
1 1 8.55668299029567134e-03 4.31850830774350904e-03 -1.52298182768825351e-02
2 1 1.16368102107040003e-02 -2.02271587773697262e-02 -1.90086738419782859e-02
3 1 -1.86477049531659435e-03 -1.37880848635323367e-02 6.73952536221143566e-04
4 1 1.28132758024952151e-02 -2.42513457932025953e-03 -5.62609947180059237e-03
5 1 9.73206768193997786e-04 9.25404072382850738e-03 -6.37284890683969835e-03
6 1 7.70372175109856894e-03 9.85710637605645423e-03 8.84949275644298402e-04
7 1 -8.05258223980219109e-03 -5.79654307054036297e-03 -5.90926475804770708e-03
8 1 1.64560145655430327e-03 -1.72563913856135093e-02 3.01290185653531372e-03
8
Step 9000
1 1 -4.76695387241572992e-03 -1.40026625116344283e-02 1.25556684672281545e-02
2 1 -1.50171755655977377e-02 2.16828020601170998e-02 1.34437270617578843e-02
3 1 2.71937582775051874e-03 1.38283438428482390e-02 3.21478848276875217e-03
4 1 -1.35683094049321145e-02 7.63392084629850934e-03 6.38666843860131919e-03
5 1 2.62041385307708796e-03 -1.14090978555926644e-02 6.49582643369353563e-03
6 1 -7.69303459020650657e-03 -1.22899639758050523e-02 1.34528156391369421e-03
7 1 2.03639934750016833e-03 6.36183918432649265e-03 9.64751038553836662e-03
8 1 -7.90244940655225646e-04 9.01806759612297504e-03 -1.33564056247551644e-04
8
Step 10000
1 1 -2.73597290979622028e-03 1.76806392111786108e-02 -7.94053693433231962e-03
2 1 1.25752925726541689e-02 -1.58999993552845567e-02 -2.14245027801188625e-03
3 1 -3.36441245320205000e-04 -9.57248713145998111e-03 -6.54004085722839374e-03
4 1 9.10254631674126645e-03 -1.18728291865782473e-02 -9.23127646116857388e-03
5 1 -7.90601647665965974e-03 9.52690832046590441e-03 -4.74346752680849647e-03
6 1 1.34579234573780379e-03 9.76405922741653727e-03 -2.53733353164511954e-03
7 1 3.08176451614698785e-03 -4.28067085681559968e-03 -7.91091824023662168e-03
8 1 -9.77071344202053724e-04 3.47229164293876924e-03 -1.00081468849553537e-03
8
Step 11000
1 1 9.37674724242644995e-03 -1.47529810621079543e-02 4.34498756127378507e-03
2 1 -7.00262634382612346e-03 7.46329652372647832e-03 -8.47616251982149724e-03
3 1 -3.40182416713739107e-03 3.84098569661543232e-03 8.45826088184068944e-03
4 1 -2.05937258550742842e-03 1.42666116609894318e-02 1.25032785455728834e-02
5 1 1.16113728000732247e-02 -5.06382209186627495e-03 2.78236238023683944e-03
6 1 7.47295231374958679e-03 -5.05923688384275153e-03 2.17484989340554526e-03
7 1 -4.66126661571952209e-03 1.12870798848655417e-03 2.16505873365245311e-03
8 1 3.11633664839842863e-03 -1.29444159879378452e-02 1.58240733865060629e-04
8
Step 12000
1 1 -1.27892357737438116e-02 7.64564256443676406e-03 -2.53849943720156190e-03
2 1 1.13482877407586921e-03 6.40142144618056149e-04 1.43567612373811659e-02
3 1 7.33621355777680072e-03 1.00876808610977551e-03 -9.19097279183355917e-03
4 1 -4.91008963681632653e-03 -1.49252915050402859e-02 -1.43211796800136425e-02
5 1 -1.21716730997682709e-02 -1.65401758229715421e-04 -1.81309437848305621e-03
6 1 -1.49511156486294462e-02 9.21385425906448715e-04 -1.45198341146957110e-03
7 1 3.14898192651921673e-03 1.36207099268127957e-03 4.80534526742067408e-03
8 1 -4.51528626760225055e-03 1.56454833343880155e-02 1.91979904290499599e-03
8
Step 13000
1 1 1.28919142788620714e-02 1.13564055408221527e-03 1.84928938266042163e-03
2 1 3.55409219079715630e-03 -7.47699185706905082e-03 -1.47227813870811509e-02
3 1 -1.15645677550034499e-02 -3.40490179605553930e-03 8.74584447091189369e-03
4 1 1.00928804653052772e-02 1.37273868118071921e-02 1.23289801385098579e-02
5 1 9.09490149771608608e-03 4.90823476404728815e-03 2.28765233704677660e-03
6 1 1.81857557832891814e-02 1.40549857595788407e-03 2.01594410337503898e-03
7 1 -7.30634560936202027e-05 -2.96486279243538637e-03 -1.08654642462213541e-02
8 1 4.33395825298275774e-03 -1.05852287568602241e-02 -3.40981562657476480e-03
8
Step 14000
1 1 -9.51834377598131942e-03 -9.07452895341896021e-03 -2.12190370069205523e-03
2 1 -5.55968670091925698e-03 1.13244814348045456e-02 9.45072648631356711e-03
3 1 1.54927471917084003e-02 1.95734792259416590e-03 -6.83366261344615748e-03
4 1 -1.11223097374883034e-02 -9.36548157337204965e-03 -5.40677081467777054e-03
5 1 -2.32656977194124499e-03 -7.60609677233884621e-03 -3.62849105865256736e-03
6 1 -1.45022278267791845e-02 -1.46847589943352734e-03 -4.26284705792328265e-03
7 1 -3.36212004090701315e-03 3.60826591440674546e-03 1.30808937577882017e-02
8 1 -2.23866127651823612e-03 -1.77402811510158839e-03 2.39437607275002663e-03
8
Step 15000
1 1 4.79183403449640055e-03 1.26076926724802991e-02 3.71978915769788452e-03
2 1 3.79442953646241593e-03 -1.04812117291494516e-02 -1.31935088092537470e-03
3 1 -1.81019008424099757e-02 3.25675841127148064e-03 4.66664713351664859e-03
4 1 7.06289513059749508e-03 2.97821607778882627e-03 -3.49445064578724060e-03
5 1 -5.07703096975526801e-03 7.10552402265662072e-03 5.05549387868509115e-03
6 1 5.45731010038235168e-03 -4.28959620014285163e-04 7.24376538081788167e-03
7 1 6.51442318824549654e-03 -3.91222533665889268e-03 -1.00454609750356937e-02
8 1 -5.34584453096200699e-04 1.62127265232097049e-02 1.25525323954163719e-03
8
Step 16000
1 1 -1.54862196630077575e-03 -1.06415819907325297e-02 -6.96937538386612366e-03
2 1 1.27325065689639087e-03 4.95879198315623583e-03 -5.57469388205408638e-03
3 1 1.82729526259758773e-02 -1.02416480476210346e-02 -3.84722854595180574e-03
4 1 6.99403723169690281e-04 3.14503415097266373e-03 9.61648969614031270e-03
5 1 9.30165915217700048e-03 -3.73564209540585028e-03 -5.48519819338517609e-03
6 1 4.05135448249992203e-03 2.91784826494871120e-03 -9.06175796523332917e-03
7 1 -9.46043769384019226e-03 4.74903975614369891e-03 3.29663414309521764e-03
8 1 2.01055296576088801e-03 -2.59747385703476830e-02 -5.82666899859765001e-03
8
Step 17000
1 1 1.14059173083182110e-03 5.18643269375909741e-03 1.12289582945114905e-02
2 1 -7.60947013414397296e-03 3.08010477273521020e-03 7.97767194762392072e-03
3 1 -1.49372515167444358e-02 1.54830046753511863e-02 4.96053561856704597e-03
4 1 -8.89316883029269908e-03 -6.72415403862561354e-03 -9.04120475406030785e-03
5 1 -8.34376023290197763e-03 -8.49943792118872153e-04 4.19636696927745950e-03
6 1 -8.74665665773274870e-03 -4.33586411887533149e-03 7.83030394176543847e-03
7 1 1.22002887536707058e-02 -6.24593175632884648e-03 3.77049740426381929e-03
8 1 -9.34564963149156058e-04 2.61572894622767865e-02 8.69447086439887988e-03
8
Step 18000
1 1 -2.50853099755054187e-03 1.99197931846232065e-04 -1.37928397175999876e-02
2 1 1.19435946922242780e-02 -1.02060944082446713e-02 -5.11935735697722355e-03
3 1 7.53273676112967572e-03 -1.53254143876746848e-02 -6.13950318096070750e-03
4 1 1.29395031742030910e-02 6.22416102670072819e-03 1.64638525659595671e-03
5 1 3.28200896377675100e-03 4.14269213553195535e-03 -1.55678611563019043e-03
6 1 6.30482667455139686e-03 3.74764219682294925e-03 -2.82501464330160582e-03
7 1 -1.32606353577080539e-02 7.24004086514714457e-03 -7.78050308412604058e-03
8 1 -2.32478940035976776e-03 -1.58042515718294259e-02 -7.84355277084388194e-03
8
Step 19000
1 1 3.88035392180478356e-03 -2.54212882630484426e-03 1.28659991290166059e-02
2 1 -1.24868259163276735e-02 1.27935687987879472e-02 -7.60983194484302268e-04
3 1 4.49396160643763935e-04 9.87256117942522486e-03 6.26307560187638022e-03
4 1 -1.19013779420877267e-02 -2.62629579577366642e-03 7.65541409357650086e-03
5 1 2.24052263272606859e-03 -4.52291527894841013e-03 -9.04761375592342946e-04
6 1 6.60398413834257961e-04 -1.28367604241133343e-03 -2.71754052645234749e-03
7 1 1.18537181689489686e-02 -6.53818206613104597e-03 7.41221089030934688e-03
8 1 5.60246572520879237e-03 7.86193154495401633e-04 4.30817008668807171e-03
8
Step 20000
1 1 -4.09417489523659136e-03 2.84975468961608117e-03 -1.04280047957319277e-02
2 1 1.17214392589190947e-02 -1.31323789676747616e-02 5.29133206441181718e-03
3 1 -7.03643343172657282e-03 -3.91741763291719551e-03 -4.33256541764326982e-03
4 1 8.69912381569888475e-03 -1.50640080713708305e-03 -1.43798602713559841e-02
5 1 -4.50290623084655204e-03 2.90331744854641343e-03 1.79187980288203421e-03
6 1 -7.09497796723096343e-03 -7.84076779811241384e-04 6.62411765352326123e-03
7 1 -9.81423531498634184e-03 5.12696792932518155e-03 -6.01508508545288076e-03
8 1 -8.41523160140783544e-03 1.12753323827605861e-02 -1.11538451652016244e-03
8
Step 21000
1 1 3.04142849406444093e-03 -3.09046341654375945e-03 6.00194294229156738e-03
2 1 -9.54063513153200621e-03 1.10531018224654578e-02 -6.80204154997297254e-03
3 1 1.10554544792192226e-02 -1.46604303904187432e-03 -1.75261443939751213e-04
4 1 -4.83655670823733303e-03 5.21980857441769076e-03 1.53694241031530777e-02
5 1 2.90001643187388046e-03 2.49796950540013987e-04 -4.21582796374715566e-04
6 1 1.04055372163467750e-02 1.94038634642961319e-03 -7.00891254315203025e-03
7 1 6.49178832793994350e-03 -2.35774544816380952e-03 4.99335121980774670e-03
8 1 9.82370234022325768e-03 -1.79457426781342889e-02 -8.26039890757252772e-04
8
Step 22000
1 1 -1.52893115551778992e-03 4.23451929137612544e-03 -4.61897140479453983e-04
2 1 6.13842630511496259e-03 -7.55195194861279714e-03 4.87866812413447794e-03
3 1 -1.11495409904135631e-02 5.10233133432643014e-03 6.20353099052726661e-03
4 1 2.11181361470785811e-03 -7.66840320824927358e-03 -9.98439020013171599e-03
5 1 1.57522792154455573e-03 -4.13646061897569254e-03 -3.10656370333108750e-03
6 1 -9.69952909930702281e-03 -2.22585254266097644e-03 3.38395354291357161e-03
7 1 -2.44652841779826680e-03 -1.54691289210797766e-03 -5.04332587664606691e-03
8 1 -9.51847907711552733e-03 1.81732181721041552e-02 1.13025546011165118e-03
8
Step 23000
1 1 1.09483385604047822e-03 -5.80966823680128218e-03 -5.20858323081989198e-03
2 1 -2.10573357234847356e-03 4.51871016882090214e-03 -3.97323327753994779e-04
3 1 6.70533126106752277e-03 -5.86952849659778952e-03 -1.11543634116445661e-02
4 1 -1.85548207242958998e-03 8.26657409514019482e-03 -1.20439164275611645e-04
5 1 -6.57707264434443870e-03 8.01505494977913964e-03 7.64621343806077235e-03
6 1 5.69784379945679782e-03 2.21605470460259401e-03 3.06752040417395105e-03
7 1 -1.07259049165212960e-03 5.48607828406989101e-03 6.12335059241380514e-03
8 1 7.78315663309619467e-03 -1.28025115221934039e-02 -1.24595526586951882e-04
8
Step 24000
1 1 -2.06240009511805258e-03 5.26185062511135438e-03 8.36991423528606580e-03
2 1 -1.23826166433641470e-03 -3.63348669611851310e-03 -4.93843525964167591e-03
3 1 1.50768546392913050e-03 3.04315448370723763e-03 1.18373290796531701e-02
4 1 3.80995760488811583e-03 -6.26204758502342355e-03 9.81695471274430034e-03
5 1 9.09544805224417850e-03 -1.01526630393689015e-02 -1.07568094746319804e-02
6 1 -6.64879522903955543e-04 -2.30855785037658310e-03 -9.05209700092504677e-03
7 1 2.29406784329864565e-03 -7.61789228225302848e-03 -6.94342643370361029e-03
8 1 -5.51407867122283811e-03 4.45162078435976539e-03 -1.90090908614374155e-03
8
Step 25000
1 1 3.00452418976529306e-03 -1.78368082007295068e-03 -6.88284879962743588e-03
2 1 2.71538284941285225e-03 5.60750167691104282e-03 8.87034912802390184e-03
3 1 -9.99167614471012551e-03 2.07863441362400375e-03 -7.33455134825884009e-03
4 1 -6.75121586552439226e-03 2.07540674224199672e-03 -1.30682717227206882e-02
5 1 -7.24912272189896616e-03 9.01403200979848142e-03 1.08855457858518870e-02
6 1 -2.47371530325131515e-03 2.58375228323387551e-03 1.07753300518809679e-02
7 1 -1.04559296804252833e-04 6.53291027152492435e-03 6.59514288023380860e-03
8 1 4.12026271269272642e-03 2.34092371281087669e-03 4.08335107347656146e-03
8
Step 26000
1 1 -2.67872060910712140e-03 -4.72433227110484726e-03 9.46827978316991349e-04
2 1 -2.43226318964491874e-03 -9.43545076003505373e-03 -9.65404543028744455e-03
3 1 1.60748153198650434e-02 -7.10029171021859043e-03 -3.71734478554930901e-04
4 1 9.52513437977450805e-03 2.54451712775890203e-03 8.79830869566085999e-03
5 1 2.37948140301534388e-03 -5.84909557777851374e-03 -8.70892383571146567e-03
6 1 2.87477778964990343e-03 -3.45706989847243719e-03 -7.90074163060505014e-03
7 1 -4.74653194452239087e-03 -3.13893892002300740e-03 -5.13799600273025757e-03
8 1 -4.22271097283069292e-03 -4.75843213898566753e-03 -5.44792955099416675e-03
8
Step 27000
1 1 5.54290477800517827e-04 1.26454580207578191e-02 7.90445705567255005e-03
2 1 1.13034330838068017e-03 1.21272184930825023e-02 7.16695202226393709e-03
3 1 -1.78249403486772443e-02 1.04021016102549598e-02 7.59064397619407978e-03
4 1 -1.02366603032020779e-02 -6.47628727206476292e-03 2.48090803897145322e-04
5 1 2.21553637688204005e-03 1.61718901696470720e-03 4.47117211130834431e-03
6 1 -1.84161476183589959e-03 4.30315974531728009e-03 2.48561822596702784e-03
7 1 1.01452068567297118e-02 -1.28624995708274091e-03 2.98857470250100347e-03
8 1 4.80122345279843099e-03 3.54635512955421735e-03 5.94911850039739169e-03
8
Step 28000
1 1 2.78363504665440995e-03 -1.74785947435388486e-02 -1.60522751011402849e-02
2 1 1.81920954165447980e-04 -1.07071833713105417e-02 -2.33005698745819903e-03
3 1 1.39089925174209691e-02 -1.06012534332960984e-02 -1.04598635979312616e-02
4 1 7.62483935290622118e-03 8.40516415638785201e-03 -9.17831759100491348e-03
5 1 -4.06757796347342014e-03 2.77222806776375496e-03 7.65602881178691422e-04
6 1 1.02445521711055009e-03 -4.25167522616467456e-03 2.40200711322195075e-03
7 1 -1.34027953320955684e-02 5.31921962037321984e-03 -1.43338356840342403e-03
8 1 -4.31451056962119800e-03 -7.46521784933111771e-04 -5.57973470944534995e-03
8
Step 29000
1 1 -5.90321176476959510e-03 1.61142476696430337e-02 2.00088508826832302e-02
2 1 -4.05723360874295268e-04 5.30299066659315615e-03 -3.04966128375743417e-03
3 1 -5.96425205328066175e-03 7.78737546965963760e-03 7.98482025425123129e-03
4 1 -2.05876946073380116e-03 -7.72283023403101676e-03 1.32709274037902426e-02
5 1 2.68620487697261321e-03 -6.21140730102793734e-03 -5.44817420097850561e-03
6 1 -1.14231579767526317e-03 2.77826852112735305e-03 -3.71755904766286156e-03
7 1 1.29558342753590041e-02 -7.90613223353092004e-03 1.57969261416480316e-03
8 1 1.92861330644101821e-03 -1.05687846383991052e-03 4.78748799485078855e-03
8
Step 30000
1 1 7.11079907658739279e-03 -8.63691328834365925e-03 -1.81900661405081168e-02
2 1 -7.10407727723363588e-04 1.12984688156656942e-03 6.68391539945880492e-03
3 1 -2.76245058419960715e-03 -3.88221065026305009e-03 -2.08764725953638607e-03
4 1 -4.86595941530655520e-03 4.92325571052667534e-03 -1.09973255260353026e-02
5 1 2.87845528351439103e-04 7.92793695444875442e-03 8.54870459667459240e-03
6 1 1.49365001546566240e-03 -5.07874926878303868e-05 6.71003498829920281e-04
7 1 -9.13831320769058729e-03 8.85428714473341510e-03 -3.22774574012404296e-03
8 1 1.72024386060838229e-03 3.11767850008798494e-04 -4.03956649828853855e-03
8
Step 31000
1 1 -5.59991388720094182e-03 -2.53127514698719578e-03 1.14375272678874720e-02
2 1 2.33945026732765553e-03 -5.44061490894978250e-03 -6.98661649577718685e-03
3 1 9.64599169384912011e-03 1.10306904480408159e-03 -4.59485027885562190e-03
4 1 1.13756164272632767e-02 -7.28739432063171431e-04 4.09345313811458784e-03
5 1 -2.94295698399546285e-03 -7.50974402747313016e-03 -9.49860790976737174e-03
6 1 -1.21024429458615871e-03 -2.94769879991064630e-03 5.22480568361709859e-03
7 1 3.40066155201339780e-03 -8.20149168103990502e-03 5.18717562483733685e-03
8 1 -5.05891396831531417e-03 2.89940996983258353e-03 3.36082499293069610e-03
8
Step 32000
1 1 2.07736849844747168e-03 1.42528355570379940e-02 -2.12333085642962870e-03
2 1 -3.44672716812869208e-03 5.48069685798472424e-03 3.65806010830715955e-03
3 1 -1.37775900169446238e-02 -7.84822054282765147e-04 9.68130007730294388e-03
4 1 -1.66079923510387174e-02 -4.23549202466569959e-03 4.39255366109242776e-03
5 1 3.85610869427938097e-03 5.35208941620512069e-03 8.63309378385958975e-03
6 1 -2.96371936774838661e-04 5.14594905106719337e-03 -1.20882939290517452e-02
7 1 2.89914085005222796e-03 6.75616306915723889e-03 -6.39091142970293381e-03
8 1 7.03279870223704091e-03 -7.93492515078197264e-03 -2.69221864074037495e-03
8
Step 33000
1 1 1.82052126842539245e-03 -2.05981914730066981e-02 -8.11890703492715651e-03
2 1 2.88229937868066761e-03 -6.88226120840621316e-05 2.95083973337597000e-03
3 1 1.38570946316772543e-02 1.88618024468357234e-03 -9.85889951052785693e-03
4 1 1.73215639254799825e-02 9.56311781970550258e-03 -1.12262474666408145e-02
5 1 -1.37006869705258156e-03 -1.37081658704572861e-03 -4.99396447406516911e-03
6 1 3.07178556350085064e-03 -4.94926218777220952e-03 1.69591257234278266e-02
7 1 -9.60506269111580623e-03 -3.45860863929519638e-03 5.79778075957758116e-03
8 1 -7.36972986664670600e-03 1.25650011527513369e-02 1.13384862925323591e-03
8
Step 34000
1 1 -3.40057601729608925e-03 1.54120180588107353e-02 1.37667909018738006e-02
2 1 2.59202413563393102e-04 -8.14645080990152211e-03 -1.05038016189928623e-02
3 1 -7.98462123192522459e-03 -2.50706276176278393e-03 2.56187115219868276e-03
4 1 -1.08752661797140021e-02 -1.23162312887637390e-02 1.20360631651806969e-02
5 1 -3.56724593431452562e-03 -3.14344645682229857e-03 -1.08780146953050649e-03
6 1 -5.66748122817553948e-03 2.52832247002760663e-03 -1.60229441758670335e-02
7 1 1.42822594048247573e-02 -1.75675273102090970e-03 -2.83924885775999969e-03
8 1 5.60226272966539603e-03 -1.29649094281860215e-02 8.28896985669674543e-04
8
Step 35000
1 1 1.14597946574509493e-03 -2.12179630689021334e-03 -1.12621597786991684e-02
2 1 -4.37457843853890447e-03 1.32908049864981902e-02 1.46150281623145632e-02
3 1 7.54558185084235273e-04 1.14074912549011541e-03 7.85651257702555707e-03
4 1 1.47040721424486443e-03 1.11230011133068990e-02 -7.13538812147853502e-03
5 1 8.07723852771520014e-03 5.38800280388115026e-03 6.16228715670091073e-03
6 1 6.30105774889782536e-03 -2.96957006378171757e-05 1.02621311294437932e-02
7 1 -1.55765739035289338e-02 6.42550237384397448e-03 -2.17236392433612778e-04
8 1 -3.18356421042702026e-03 8.37073758785707861e-03 -1.79228513681793482e-03
8
Step 36000
1 1 3.71218559671406814e-03 -1.15560907584085458e-02 2.44765745364318400e-03
2 1 7.43380099868449357e-03 -1.23463343989187128e-02 -1.39194211666079388e-02
3 1 2.85562246295428595e-03 2.25196119746287225e-03 -1.57089141162795702e-02
4 1 5.78782073991571284e-03 -7.65088675089829317e-03 1.64314157892220215e-03
5 1 -1.03810915065776568e-02 -4.50829775914798371e-03 -8.47049625099322891e-03
6 1 -4.40825888893736206e-03 -6.53709612330687605e-04 -3.80558397250853027e-03
7 1 1.47025774098476295e-02 -9.63141295793373299e-03 8.69370230321918932e-04
8 1 1.91606704514319455e-03 -1.23600977217308691e-03 1.14550308965276565e-03
8
Step 37000
1 1 -8.25192780039023417e-03 1.98034266548841251e-02 8.87197216207867741e-03
2 1 -8.23761453259692564e-03 6.12976374505221945e-03 9.98281910625575288e-03
3 1 -1.90903332291290006e-03 -5.85181048648086670e-03 1.81284006240979116e-02
4 1 -8.24897430992384793e-03 3.82984770117151445e-03 3.32954637976263395e-04
5 1 1.02212180866941074e-02 1.06646413360975047e-03 8.19500610485965515e-03
6 1 8.16803842346170198e-04 -1.54242369059373521e-03 -6.75527594197354608e-04
7 1 -1.22533299579972443e-02 1.15095308222504383e-02 1.40232072135095995e-03
8 1 -1.97728614042027868e-03 -5.46573767605948793e-03 8.97669699836773629e-04
8
Step 38000
1 1 9.79060769039357542e-03 -1.92760724912568113e-02 -1.81629040450106208e-02
2 1 6.35234554709449093e-03 2.43957220906649641e-03 -4.61889271954163145e-03
3 1 -1.88426073094894570e-03 6.99639648902678282e-03 -1.44366941059185256e-02
4 1 4.92606108843829989e-03 -6.86224526845762364e-04 1.83734174321750938e-03
5 1 -8.14170164544900272e-03 3.48132171073136385e-03 -5.83088162548098601e-03
6 1 2.86691190165814548e-03 6.04303121054676224e-03 2.77355146221964404e-03
7 1 7.83073063119883901e-03 -1.14712332933308171e-02 -5.21246356057069454e-03
8 1 2.52490415508114033e-03 9.30653668453496064e-03 -3.35273784089987290e-03
8
Step 39000
1 1 -7.67361250912229620e-03 1.09239708669288428e-02 2.14436002917396187e-02
2 1 -2.35709090514484932e-03 -9.12007457689799003e-03 1.54603467010564128e-04
3 1 5.92825362024154180e-03 -3.70651301300644123e-03 6.48783478553644800e-03
4 1 3.36299151134841334e-03 -1.28315032356954295e-03 -6.46893456968074872e-03
5 1 5.53046243193244108e-03 -6.89868898129369825e-03 2.33781703205590986e-03
6 1 -5.08374217932300136e-03 -1.07219792303069120e-02 -3.12529760851297349e-03
7 1 -2.17097227160414994e-03 9.15198365019721620e-03 8.37987150563452091e-03
8 1 -2.92030726272272945e-03 -9.02733722527859078e-03 4.96387966607205605e-03
8
Step 40000
1 1 3.58266578642859549e-03 6.50038591093890440e-04 -1.70091237805030937e-02
2 1 -2.32160702013153213e-03 1.04655481993418970e-02 1.31631113059830639e-03
3 1 -8.02432201303302645e-03 -4.07214748635787403e-03 2.27550708320936124e-03
4 1 -1.38952653872543991e-02 2.23986751092763135e-03 1.03877887409017551e-02
5 1 -3.96906748147769339e-03 7.04074225105272115e-03 1.11705025177257335e-03
6 1 5.03263626759172834e-03 1.27781255903507193e-02 2.95171304518981794e-03
7 1 -2.43344029052966525e-03 -4.79299040602606998e-03 -9.02510248614300271e-03
8 1 3.24833096243359268e-03 5.01453091902049220e-03 -5.13924238348141115e-03
8
Step 41000
1 1 -3.69327438666413926e-04 -9.77913805309189345e-03 6.35559777184139651e-03
2 1 5.67669031764462314e-03 -6.26167277714381135e-03 1.08196183105358683e-03
3 1 7.00366495280840134e-03 1.34277028956590640e-02 -8.09546787825841246e-03
4 1 2.20866554153387566e-02 -2.59197368083280855e-03 -9.92562489977402880e-03
5 1 4.40651541219936119e-03 -3.10829338457790537e-03 -3.15338816230612690e-03
6 1 -3.14160469166379925e-03 -9.76172163709485008e-03 -3.40044877841157601e-03
7 1 3.19261721724392340e-03 -6.77371560431926632e-04 6.54770583539470569e-03
8 1 -4.40822475394265275e-03 6.36098910745268027e-04 4.29026045456683269e-03
8
Step 42000
1 1 1.55026707154238516e-04 1.27537802231146250e-02 5.21776635250758691e-03
2 1 -6.35756983803709153e-03 4.10514151435156034e-05 -6.31388560663556468e-03
3 1 -3.17385740235757909e-03 -1.96506164896783804e-02 8.93864314278197333e-03
4 1 -2.41645921293177288e-02 2.85291920062417589e-03 3.81823354003216339e-03
5 1 -6.49484108184254609e-03 -3.37788547003498507e-03 3.08391979151633735e-03
6 1 9.18130978714912574e-04 1.83334587046481297e-03 4.77685015924188966e-03
7 1 1.02178063480480889e-03 5.75191351830773179e-03 -2.32621738585433264e-03
8 1 7.15596389033385481e-03 -5.15149193283118405e-03 -3.49839380411985862e-03
8
Step 43000
1 1 -2.75865006871227380e-03 -1.02843342699789689e-02 -1.21424765678094342e-02
2 1 4.91644332944749917e-03 3.63231775056229063e-03 1.14591032082624906e-02
3 1 -1.41269251614815146e-03 1.98070162394117649e-02 -5.76285895837670356e-03
4 1 1.99420178103091664e-02 -3.18712775813931792e-03 5.23649107356191808e-03
5 1 8.65180294751531631e-03 9.58560257736308825e-03 -2.00976490452841727e-03
6 1 1.98519260130282387e-04 7.82333604394161615e-03 -6.24644989097299878e-03
7 1 -8.36067397151172426e-03 -9.02615148221051419e-03 -1.08313396966808347e-03
8 1 -1.07418933388068755e-02 6.87895348543630936e-03 3.60291258621446651e-03
8
Step 44000
1 1 6.02915838801084195e-03 5.28108944004108440e-03 1.25367025956768692e-02
2 1 -2.80198807073158470e-03 -2.65025279657949645e-03 -1.40724414116692037e-02
3 1 4.25729278393300811e-03 -1.40192500124044390e-02 1.34105262866043092e-03
4 1 -1.16525961321443678e-02 2.88268342443920734e-03 -1.28346150004701610e-02
5 1 -9.21819106243197857e-03 -1.26760802769443626e-02 1.25985107898422474e-03
6 1 3.74910883281060218e-04 -1.53858470441060567e-02 5.99954991177329821e-03
7 1 1.49950836841263591e-02 9.62206020815599243e-03 2.03654369194412356e-03
8 1 1.28739166554332710e-02 -5.83017261878412789e-03 -4.62966731425266519e-03
8
Step 45000
1 1 -7.76802593294756340e-03 1.09314529918886445e-04 -7.66316257493335120e-03
2 1 1.07389959323459330e-03 -1.79870654337734655e-03 1.38589682858805338e-02
3 1 -4.30263675290355838e-03 4.82957445274004998e-03 1.93991902090562512e-03
4 1 2.49652758229826919e-03 -1.26970130736548943e-03 1.56901531378228105e-02
5 1 7.70634247932052568e-03 1.11660275842778590e-02 -1.32057894553952687e-03
6 1 -2.11785028225468979e-03 1.82274991310421158e-02 -3.04888014353567067e-03
7 1 -1.74827190997280980e-02 -7.56941848012409550e-03 -7.29367132783655570e-04
8 1 -1.15052370603841020e-02 3.15510880072144336e-03 5.97089818831974487e-03
8
Step 46000
1 1 7.14197291882973009e-03 -4.94016088486536834e-03 4.72654974475897793e-04
2 1 -7.28983099931256707e-05 6.83060118133305659e-03 -1.24718466973894326e-02
3 1 1.93376693367618624e-03 4.49028240801793189e-03 -3.56323867873355052e-03
4 1 4.79947624667069646e-03 -1.75875667633725594e-03 -1.32259440259871030e-02
5 1 -4.76470901395604444e-03 -5.57586321225484426e-03 2.10413589214535632e-03
6 1 4.03137260887900892e-03 -1.60265252216887019e-02 -2.13844819374515256e-03
7 1 1.47505109215672493e-02 3.72835270132245832e-03 -1.41188038947822757e-03
8 1 6.37433054101359947e-03 -5.01517294083897469e-04 -6.87186779441996149e-03
8
Step 47000
1 1 -4.68361032507160456e-03 8.90925365110442971e-03 5.82900099811268970e-03
2 1 -4.30607146680276926e-04 -9.61279092877426883e-03 1.18172598767000685e-02
3 1 1.42942669538744091e-03 -1.12795076886110981e-02 4.47222849608602379e-03