8
Step 0
1 1  3.844237900805e+01  -2.242430864254e+01   8.706727230753e+01 
2 1  3.939192193026e+01  -1.076836458612e+02   4.690022636228e+00 
3 1 -2.019979450590e+01   1.003963267223e+01   6.967084138597e+01 
4 1  7.694440123272e+00  -8.471146839788e+01   6.806602397610e+01 
5 1 -1.219506637355e+02   1.472438121080e+01  -3.813450545724e+01 
6 1  8.443719770114e+01   1.077586350164e+02  -1.254074083927e+02 
7 1 -1.783706599870e+01   3.085755504887e+01  -6.751864331967e+01 
8 1 -9.978414522576e+00   5.143921895329e+01   1.566396863766e+00 
8
Step 1000
1 1  2.052493010927e+00   1.472982775941e+02  -1.594585722586e+02 
2 1  7.288018609821e+00  -1.146221324357e+02   1.438786678811e+02 
3 1  2.374757576088e+02  -2.665283988025e+02   2.308055423391e+02 
4 1  2.226925249502e+02  -1.602680460764e+02  -1.352455009264e+02 
5 1  2.308799422327e+02  -1.975287148420e+02   2.174390872974e+02 
6 1 -1.959509542840e+02   2.733211601973e+02   1.510923490216e+02 
7 1  1.518529160232e+02  -2.845695832590e+02  -2.090456332871e+02 
8 1 -2.730325035077e+02  -6.114615834574e+01  -4.738921292831e+01 
8
Step 2000
1 1 -2.744864300311e+01  -1.279388259947e+01  -3.033414616008e+01 
2 1 -2.913239356666e+01   9.800755253469e+01  -3.120990868041e+01 
3 1 -3.185189914465e+01   4.463689106529e+01  -9.379669024798e+01 
4 1 -4.861238913101e+01   9.069730457029e+01  -2.166053438188e+01 
5 1  4.102593475067e+01   2.795578496322e+01  -1.534516684369e+01 
6 1 -2.140463420907e+01  -1.288448971369e+02   5.893558751288e+01 
7 1 -1.690527055253e+01   3.348772402386e+01   8.806126068133e+01 
8 1  5.998453199928e+01  -2.433471459623e+01   8.090385064378e+00 
8
Step 3000
1 1  7.650427276713e+00  -1.076543891110e+02   1.313677814373e+02 
2 1  4.236383226825e+00   5.422711559541e+01  -9.887601387845e+01 
3 1 -1.697948010702e+02   1.875849623532e+02  -1.439399708114e+02 
4 1 -1.529355331689e+02   9.137115100494e+01   1.100553280833e+02 
5 1 -1.892359470639e+02   1.407422028410e+02  -1.601056395801e+02 
6 1  1.561058766658e+02  -1.644916821343e+02  -1.346065645037e+02 
7 1 -1.097363675473e+02   2.050374212165e+02   1.293268535128e+02 
8 1  1.873782441538e+02   5.463681244066e+01   3.330130247867e+01 
8
Step 4000
1 1  2.074350343788e+01   3.946557269505e+01  -1.000545878684e+01 
2 1  2.305633095880e+01  -9.591262224469e+01   5.240627778665e+01 
3 1  7.193920141901e+01  -8.732190690700e+01   1.164508873518e+02 
4 1  8.134021475735e+01  -9.979349450369e+01  -1.149814451091e+01 
5 1  1.663052001518e+01  -6.092043205823e+01   5.563632870212e+01 
6 1 -2.404802345063e+01   1.510606278754e+02  -1.287724045456e+01 
7 1  4.343741711517e+01  -8.273941121379e+01  -1.077732404984e+02 
8 1 -1.000110791146e+02   5.569621957359e+00  -1.563992560824e+01 
8
Step 5000
1 1 -1.373030433130e+01   8.587549769433e+01  -1.171500168613e+02 
2 1 -1.135069100333e+01  -1.862845972693e+01   7.363893825618e+01 
3 1  1.323048767598e+02  -1.436258359926e+02   9.419242386927e+01 
4 1  1.138092082769e+02  -5.141173616598e+01  -9.713488891668e+01 
5 1  1.680368699136e+02  -1.092490042662e+02   1.287060689192e+02 
6 1 -1.352724454226e+02   1.018162576367e+02   1.275302233857e+02 
7 1  8.649696981863e+01  -1.611043392430e+02  -8.361117152698e+01 
8 1 -1.393261772370e+02  -5.187554681351e+01  -2.545270101692e+01 
8
Step 6000
1 1 -1.499814133129e+01  -6.115788992423e+01   4.328713911221e+01 
2 1 -1.780944225784e+01   9.326592950345e+01  -6.944508775220e+01 
3 1 -1.044223490655e+02   1.218079156677e+02  -1.340860243058e+02 
4 1 -1.076446136226e+02   1.063693699577e+02   3.882411746752e+01 
5 1 -6.417706056238e+01   8.761522868709e+01  -8.844339729588e+01 
6 1  6.142651643587e+01  -1.680033992442e+02  -2.535402840943e+01 
7 1 -6.497645336906e+01   1.227023168432e+02   1.230566238240e+02 
8 1  1.321766373817e+02   1.000963985209e+01   2.173747529011e+01 
8
Step 7000
1 1  1.832318782095e+01  -6.593399338199e+01   1.025535384459e+02 
2 1  1.684683637751e+01  -1.082180260313e+01  -5.119940643375e+01 
3 1 -9.837876785828e+01   1.041428321913e+02  -5.127609295686e+01 
4 1 -7.902928092440e+01   1.756588741131e+01   8.411121542655e+01 
5 1 -1.464445854066e+02   8.079847262956e+01  -9.982906128916e+01 
6 1  1.148241702089e+02  -4.818269067112e+01  -1.184770283517e+02 
7 1 -6.535089851834e+01   1.211909777474e+02   4.424920157563e+01 
8 1  9.662355493995e+01   4.828833193109e+01   1.840820756953e+01 
8
Step 8000
1 1  8.880587415494e+00   8.174646268626e+01  -7.595207165095e+01 
2 1  1.213504994802e+01  -8.860825241018e+01   8.516093141465e+01 
3 1  1.349791520923e+02  -1.540156160134e+02   1.490267176479e+02 
4 1  1.318973437813e+02  -1.107397479366e+02  -6.557377280778e+01 
5 1  1.107927355481e+02  -1.126885938968e+02   1.196674684327e+02 
6 1 -9.783945087285e+01   1.815228845500e+02   6.339595992733e+01 
7 1  8.532899784281e+01  -1.604181081114e+02  -1.358589307284e+02 
8 1 -1.618217297640e+02  -2.551860865271e+01  -2.742792452510e+01 
8
Step 9000
1 1 -2.315452078107e+01   4.629058985671e+01  -8.867284350248e+01 
2 1 -2.258176915247e+01   4.082342242395e+01   2.888457942558e+01 
3 1  6.483339571555e+01  -6.500807240420e+01   8.170770954305e+00 
4 1  4.443964412900e+01   1.663863694243e+01  -7.165845143685e+01 
5 1  1.258629299831e+02  -5.265162698473e+01   7.142360565804e+01 
6 1 -9.511429008506e+01  -5.832769584066e+00   1.103706655338e+02 
7 1  4.447908917815e+01  -8.177549771486e+01  -4.688412846640e+00 
8 1 -5.415082928075e+01  -4.508859865344e+01  -1.142426366793e+01 
8
Step 10000
1 1 -1.689863240764e+00  -1.120974135248e+02   1.211445044978e+02 
2 1 -5.679982645524e+00   8.764297460878e+01  -1.095827548358e+02 
3 1 -1.807772074417e+02   2.029350583629e+02  -1.759941887317e+02 
4 1 -1.696114328584e+02   1.223277089589e+02   1.027683252516e+02 
5 1 -1.754186071492e+02   1.503745797227e+02  -1.654595971615e+02 
6 1  1.489430631981e+02  -2.084965851173e+02  -1.146469117682e+02 
7 1 -1.155810222423e+02   2.166051941496e+02   1.594163612068e+02 
8 1  2.079541480811e+02   4.639464199250e+01   3.608292785298e+01 
8
Step 11000
1 1  2.694844679782e+01  -2.288751830336e+01   6.895638159988e+01 
2 1  2.736381309808e+01  -7.023189781609e+01  -3.645189170559e+00 
3 1 -2.567524836501e+01   1.992907152886e+01   3.787844641232e+01 
4 1 -5.335668034201e+00  -5.186566645568e+01   5.441860381943e+01 
5 1 -9.694735797008e+01   1.989458026390e+01  -3.732669024183e+01 
6 1  6.886738520729e+01   6.262425678545e+01  -9.552812793676e+01 
7 1 -1.987985089079e+01   3.544711878909e+01  -3.741454077840e+01 
8 1  6.158606419815e+00   3.914344076627e+01   3.389572335331e+00 
8
Step 12000
1 1 -6.133031717521e+00   1.082549243141e+02  -1.295729244622e+02 
2 1 -2.629634256221e+00  -5.956684750718e+01   1.004981084139e+02 
3 1  1.713841604219e+02  -1.898606013237e+02   1.489619589081e+02 
4 1  1.554631289248e+02  -9.627307504000e+01  -1.087580908593e+02 
5 1  1.867973639717e+02  -1.421451009493e+02   1.607961985202e+02 
6 1 -1.547785274730e+02   1.714220839835e+02   1.312351255533e+02 
7 1  1.105610879732e+02  -2.066829547702e+02  -1.340473365370e+02 
8 1 -1.904984135779e+02  -5.324563788659e+01  -3.371442946433e+01 
8
Step 13000
1 1 -1.974042762546e+01  -8.611687646044e+00  -2.246695312130e+01 
2 1 -2.093076350378e+01   7.005264544203e+01  -2.187538476442e+01 
3 1 -2.196032990256e+01   3.104184329630e+01  -6.655510582370e+01 
4 1 -3.407867112643e+01   6.460924878503e+01  -1.612896485523e+01 
5 1  3.044710180483e+01   1.931804428915e+01  -1.016479539543e+01 
6 1 -1.618933542079e+01  -9.160029105402e+01   4.301136584568e+01 
7 1 -1.155139733981e+01   2.294760421798e+01   6.251622646840e+01 
8 1  4.205793814991e+01  -1.775455095462e+01   5.629998505657e+00 
8
Step 14000
1 1  1.248391649693e+01  -9.267811552180e+01   1.226483760424e+02 
2 1  9.810613257526e+00   2.764034177324e+01  -8.107386127682e+01 
3 1 -1.437461649843e+02   1.568421857518e+02  -1.079659915868e+02 
4 1 -1.253297688693e+02   6.205553782533e+01   1.019701132927e+02 
5 1 -1.761201863533e+02   1.188274261981e+02  -1.385984420506e+02 
6 1  1.426993519123e+02  -1.188774132652e+02  -1.314650867872e+02 
7 1 -9.366684634051e+01   1.746168876923e+02   9.621742165168e+01 
8 1  1.534671615874e+02   5.344753017974e+01   2.780908868170e+01 
8
Step 15000
1 1  1.622976780595e+01   3.681827254304e+01  -1.439312589334e+01 
2 1  1.824673995677e+01  -7.939753958855e+01   4.674840448754e+01 
3 1  6.582836477817e+01  -7.900433231726e+01   1.001956373892e+02 
4 1  7.253278506325e+01  -8.430899550719e+01  -1.455182057120e+01 
5 1  2.250818568277e+01  -5.559754452899e+01   5.230972988801e+01 
6 1 -2.683426117801e+01   1.288937989086e+02  -3.763142366717e+00 
7 1  4.009825631861e+01  -7.618514702617e+01  -9.254035380909e+01 
8 1 -8.914980213448e+01   1.801772057636e+00  -1.413578656613e+01 
8
Step 16000
1 1 -1.974967343854e+01   9.054752071116e+01  -1.320659747608e+02 
2 1 -1.747821128102e+01  -2.618240228959e+00   7.402730845103e+01 
3 1  1.373325703068e+02  -1.472854990793e+02   8.505838021353e+01 
4 1  1.143419756025e+02  -3.936493847470e+01  -1.088783971703e+02 
5 1  1.889877844162e+02  -1.131047977903e+02   1.363928668357e+02 
6 1 -1.500607451264e+02   8.703481446227e+01   1.484001439611e+02 
7 1  9.048440410858e+01  -1.681734222969e+02  -7.464492361916e+01 
8 1 -1.398938703347e+02  -6.042942980148e+01  -2.606906494319e+01 
8
Step 17000
1 1 -1.185520038487e+01  -7.048779792647e+01   5.869020462026e+01 
2 1 -1.485061708869e+01   8.995828334064e+01  -7.631248723431e+01 
3 1 -1.181168566801e+02   1.361110475155e+02  -1.398539904783e+02 
4 1 -1.182370735814e+02   1.073061440513e+02   5.140012058982e+01 
5 1 -8.613171158013e+01   9.883066113691e+01  -1.026410181836e+02 
6 1  7.844972480033e+01  -1.727010861252e+02  -4.357266163463e+01 
7 1 -7.414889055477e+01   1.396743560543e+02   1.279078345238e+02 
8 1  1.451175429670e+02   1.744067998060e+01   2.426212999779e+01 
8
Step 18000
1 1  2.741108458726e+01  -8.409073177573e+01   1.373436070281e+02 
2 1  2.571034683987e+01  -2.685321147043e+01  -6.252486285090e+01 
3 1 -1.238061909230e+02   1.296365459226e+02  -5.446496639122e+01 
4 1 -9.645367351440e+01   1.102301419098e+01   1.122253276599e+02 
5 1 -1.958255273084e+02   1.014478854873e+02  -1.278445876223e+02 
6 1  1.521395444383e+02  -4.587210682852e+01  -1.617837580362e+02 
7 1 -8.279629981644e+01   1.532641993379e+02   4.607300934154e+01 
8 1  1.178554868219e+02   6.598003218737e+01   2.288832987154e+01 
8
Step 19000
1 1  4.057719334029e+00   9.897323787448e+01  -1.028040860712e+02 
2 1  7.696312218543e+00  -8.566614104700e+01   9.851358703061e+01 
3 1  1.606682538416e+02  -1.811973492077e+02   1.623277376499e+02 
4 1  1.525074475814e+02  -1.152292575994e+02  -8.759327133627e+01 
5 1  1.491342993602e+02  -1.337849937158e+02   1.457547224116e+02 
6 1 -1.278899497528e+02   1.939748491100e+02   9.444465314150e+01 
7 1  1.023985871548e+02  -1.920706219123e+02  -1.473290211613e+02 
8 1 -1.870196276137e+02  -3.817365443475e+01  -3.223231740132e+01 
8
Step 20000
1 1 -2.608678251633e+01   5.319883486714e+01  -1.010583025833e+02 
2 1 -2.540497441169e+01   4.522631298693e+01   3.355426044412e+01 
3 1  7.472428751232e+01  -7.512192141484e+01   1.080518481508e+01 
4 1  5.163326490268e+01   1.764860727646e+01  -8.171151509305e+01 
5 1  1.434743374598e+02  -6.071637238767e+01   8.201467361665e+01 
6 1 -1.085715633285e+02  -4.686577128582e+00   1.254593969691e+02 
7 1  5.118828711323e+01  -9.414767275005e+01  -6.729349412993e+00 
8 1 -6.292801795790e+01  -5.124864985420e+01  -1.320543571478e+01 
8
Step 21000
1 1  4.526071168592e+00  -9.172167856260e+01   1.086978574322e+02 
2 1  1.527522045163e+00   5.263376530540e+01  -8.560948086253e+01 
3 1 -1.454854115767e+02   1.613922603132e+02  -1.280244568082e+02 
4 1 -1.324394469922e+02   8.345689805938e+01   9.132685744000e+01 
5 1 -1.567674111490e+02   1.207014092549e+02  -1.361515461695e+02 
6 1  1.301955072552e+02  -1.478250580709e+02  -1.094210500656e+02 
7 1 -9.376696534145e+01   1.753328605592e+02   1.152931530383e+02 
8 1  1.622960146225e+02   4.438501504333e+01   2.866307577036e+01 
8
Step 22000
1 1  2.181142235274e+01  -1.974162079495e+01   5.715659438256e+01 
2 1  2.210511682743e+01  -5.595172101038e+01  -4.127453578344e+00 
3 1 -2.273603093966e+01   1.831887323388e+01   2.879678752936e+01 
4 1 -6.140301664063e+00  -4.070238712842e+01   4.518331185238e+01 
5 1 -8.041242297140e+01   1.772751023695e+01  -3.201006123678e+01 
6 1  5.738249039938e+01   4.849367278400e+01  -7.861133467897e+01 
7 1 -1.734260829452e+01   3.103577459351e+01  -2.859870812578e+01 
8 1  7.217937032782e+00   3.220539658661e+01   3.132508355539e+00 
8
Step 23000
1 1 -1.207325829690e+01   9.731410793193e+01  -1.271064006769e+02 
2 1 -9.219578707255e+00  -3.236527288727e+01   8.583969379011e+01 
3 1  1.513628088192e+02  -1.655034364673e+02   1.161661273816e+02 
4 1  1.327101162651e+02  -6.807402776532e+01  -1.058028231957e+02 
5 1  1.826116922038e+02  -1.251813853342e+02   1.453970770641e+02 
6 1 -1.483790121980e+02   1.288135625528e+02   1.353060681502e+02 
7 1  9.849334222468e+01  -1.836845903420e+02  -1.036838987077e+02 
8 1 -1.625207108405e+02  -5.499581218187e+01  -2.935102670142e+01 
8
Step 24000
1 1 -2.017525874037e+01  -9.236976815881e+00  -2.248045172468e+01 
2 1 -2.140702380906e+01   7.191509250937e+01  -2.277856159720e+01 
3 1 -2.314383306045e+01   3.250902049726e+01  -6.868727608241e+01 
4 1 -3.548137657320e+01   6.648928699113e+01  -1.607685617362e+01 
5 1  3.042141238381e+01   2.032530674837e+01  -1.103250658514e+01 
6 1 -1.595791960190e+01  -9.440289242999e+01   4.349594196116e+01 
7 1 -1.225408289086e+01   2.429266837857e+01   6.449593726560e+01 
8 1  4.378371564227e+01  -1.795821629378e+01   5.893269459751e+00 
8
Step 25000
1 1  2.355696708001e+01  -1.192501450204e+02   1.699548575653e+02 
2 1  2.045491763750e+01   1.136903160614e+01  -9.917655737276e+01 
3 1 -1.818753744381e+02   1.959063733467e+02  -1.186552639019e+02 
4 1 -1.532202219671e+02   5.874979967277e+01   1.403864918140e+02 
5 1 -2.434004535889e+02   1.499292888757e+02  -1.793094598970e+02 
6 1  1.941719234698e+02  -1.240788329265e+02  -1.889592706679e+02 
7 1 -1.195012803156e+02   2.222716489166e+02   1.045949281248e+02 
8 1  1.875014766879e+02   7.691810889657e+01   3.469020234299e+01 
8
Step 26000
1 1  1.786278387389e+01   4.373410821063e+01  -1.939017960962e+01 
2 1  2.019482340397e+01  -8.974079274930e+01   5.455814030319e+01 
3 1  7.761068474560e+01  -9.272893524471e+01   1.151879348284e+02 
4 1  8.463779851624e+01  -9.616005419621e+01  -1.901929263597e+01 
5 1  2.990653689617e+01  -6.548027256577e+01   6.231923609057e+01 
6 1 -3.386923956123e+01   1.476490936444e+02  -7.295996543234e-01 
7 1  4.743731745448e+01  -9.004026657956e+01  -1.062943118603e+02 
8 1 -1.040127670334e+02   6.013794018143e-01  -1.658471510767e+01 
8
Step 27000
1 1 -2.910483000383e+01   1.071367096050e+02  -1.655567157936e+02 
2 1 -2.667575839837e+01   1.542539248847e+01   8.365320059606e+01 
3 1  1.601317517731e+02  -1.697494447420e+02   8.512731631085e+01 
4 1  1.291330599313e+02  -3.042554474720e+01  -1.358538737809e+02 
5 1  2.364613790251e+02  -1.315549234738e+02   1.621262708941e+02 
6 1 -1.856366039420e+02   8.086966146045e+01   1.907474359680e+02 
7 1  1.062803455381e+02  -1.971393193679e+02  -7.361496976834e+01 
8 1 -1.578937817533e+02  -7.773720570907e+01  -3.000910448995e+01 
8
Step 28000
1 1 -7.581129048192e+00  -6.433908283032e+01   5.882003410571e+01 
2 1 -1.016923705517e+01   7.164990093124e+01  -6.743242455491e+01 
3 1 -1.064797419212e+02   1.216851292531e+02  -1.188923723399e+02 
4 1 -1.044456436816e+02   8.882403907244e+01   5.088551693383e+01 
5 1 -8.587507794609e+01   8.892656263636e+01  -9.410823870934e+01 
6 1  7.617159318605e+01  -1.451489177014e+02  -4.833294780645e+01 
7 1 -6.723935083034e+01   1.264483866881e+02   1.084451573649e+02 
8 1  1.281496788141e+02   1.944145073374e+01   2.167354437511e+01 
8
Step 29000
1 1  2.839492149303e+01  -7.584073614475e+01   1.298203113799e+02 
2 1  2.702657736268e+01  -3.607853367369e+01  -5.387016671390e+01 
3 1 -1.101478031427e+02   1.140240047986e+02  -3.918804599456e+01 
4 1 -8.304834814916e+01  -3.996420858788e-01   1.057148132813e+02 
5 1 -1.848403186270e+02   9.004046943941e+01  -1.157789114277e+02 
6 1  1.423888354922e+02  -2.721490281805e+01  -1.556171809764e+02 
7 1 -7.417281336911e+01   1.370463519267e+02   3.213735650842e+01 
8 1  1.014076569459e+02   6.349987173369e+01   2.010749040581e+01 
8
Step 30000
1 1 -1.662046094588e+00   7.885276769555e+01  -8.983563314127e+01 
2 1  1.016250379824e+00  -5.244613786753e+01   7.512768420501e+01 
3 1  1.259907754092e+02  -1.405045811904e+02   1.160902002084e+02 
4 1  1.162501163357e+02  -7.802308613757e+01  -7.578270701419e+01 
5 1  1.297798736693e+02  -1.046492101825e+02   1.167595252867e+02 
6 1 -1.087878752150e+02   1.356755997873e+02   8.817895702611e+01 
7 1  8.091481009737e+01  -1.514498784086e+02  -1.048308341590e+02 
8 1 -1.424898306621e+02  -3.573447272211e+01  -2.496638161256e+01 
8
Step 31000
1 1 -2.656277433258e+01   4.859286245563e+01  -9.673930941722e+01 
2 1 -2.606323883425e+01   5.014018646159e+01   2.877263175127e+01 
3 1  6.712897634273e+01  -6.646318262203e+01   2.474269533252e+00 
4 1  4.422772993237e+01   2.381955166781e+01  -7.798691813470e+01 
5 1  1.371771553510e+02  -5.437663272679e+01   7.526889117909e+01 
6 1 -1.030244840583e+02  -1.482044250372e+01   1.218229512191e+02 
7 1  4.638378030503e+01  -8.511681900391e+01   8.630701267758e-01 
8 1 -5.384266340774e+01  -4.978430876658e+01  -1.166357332582e+01 
8
Step 32000
1 1  1.035932255750e+01  -9.194859883293e+01   1.183998355646e+02 
2 1  7.615740679058e+00   3.396546708953e+01  -8.182616152062e+01 
3 1 -1.434487752207e+02   1.572041969977e+02  -1.125961067044e+02 
4 1 -1.265181429950e+02   6.727198034990e+01   9.868510433668e+01 
5 1 -1.701953405925e+02   1.186944982520e+02  -1.372443537077e+02 
6 1  1.387209693039e+02  -1.257515063001e+02  -1.250759083237e+02 
7 1 -9.320564856665e+01   1.738941093446e+02   1.006542808355e+02 
8 1  1.549541699420e+02   5.082399280051e+01   2.788549990835e+01 
8
Step 33000
1 1  2.606134355216e+01  -2.338039657944e+01   6.806376716555e+01 
2 1  2.641952108786e+01  -6.700621367686e+01  -4.730646229878e+00 
3 1 -2.683220846119e+01   2.151446912068e+01   3.472564589833e+01 
4 1 -7.025604077754e+00  -4.885117808220e+01   5.379282024857e+01 
5 1 -9.574838250388e+01   2.090410810451e+01  -3.793997377188e+01 
6 1  6.828279716134e+01   5.831710050176e+01  -9.370777463706e+01 
7 1 -2.050790800773e+01   3.668243079240e+01  -3.445867472754e+01 
8 1  8.242925274565e+00   3.839113740485e+01   3.676425355599e+00 
8
Step 34000
1 1 -2.226218259348e+01   1.192474553515e+02  -1.678540381614e+02 
2 1 -1.910187430255e+01  -1.554771918328e+01   1.000624424559e+02 
3 1  1.824040338251e+02  -1.969217307906e+02   1.221527484205e+02 
4 1  1.546059213739e+02  -6.239231058493e+01  -1.387978013921e+02 
5 1  2.404961290113e+02  -1.504384301770e+02   1.791373626776e+02 
6 1 -1.923439227267e+02   1.290643254079e+02   1.855350842790e+02 
7 1  1.196749363718e+02  -2.226829016194e+02  -1.079102254775e+02 
8 1 -1.892186120820e+02  -7.550938827554e+01  -3.487804046427e+01 
8
Step 35000
1 1 -2.333641258369e+01  -4.455901417620e+00  -3.288596457614e+01 
2 1 -2.454370843136e+01   7.861662126728e+01  -2.032339405773e+01 
3 1 -1.676440457926e+01   2.640116730561e+01  -6.992483343559e+01 
4 1 -3.171757358699e+01   7.037469865197e+01  -2.442090025088e+01 
5 1  4.514490596199e+01   1.519202411773e+01  -3.555656511278e+00 
6 1 -2.686616661507e+01  -9.797174852528e+01   5.692921347362e+01 
7 1 -7.764978661884e+00   1.609411523804e+01   6.598463515044e+01 
8 1  3.921446034503e+01  -2.345184807548e+01   4.825494679229e+00 
8
Step 36000
1 1  2.750402664937e+01  -1.085259381628e+02   1.644983295956e+02 
2 1  2.495430485491e+01  -9.238101903996e+00  -8.609537203326e+01 
3 1 -1.630224602950e+02   1.735092423822e+02  -9.158097483579e+01 
4 1 -1.329307677566e+02   3.638949262613e+01   1.351920790236e+02 
5 1 -2.350968188307e+02   1.340441460329e+02  -1.639716817403e+02 
6 1  1.852564159109e+02  -8.954264523455e+01  -1.879936487507e+02 
7 1 -1.079280141270e+02   2.003318427698e+02   7.964040029836e+01 
8 1  1.625721916941e+02   7.659470620829e+01   3.068652607400e+01 
8
Step 37000
1 1  1.224822520956e+01   3.068280084473e+01  -1.406362762940e+01 
2 1  1.387153461888e+01  -6.204339708601e+01   3.808188558229e+01 
3 1  5.433294063844e+01  -6.483272296006e+01   8.004538239329e+01 
4 1  5.907515772618e+01  -6.666436490886e+01  -1.369124058044e+01 
5 1  2.161752519023e+01  -4.582697358665e+01   4.375854050817e+01 
6 1 -2.416183009549e+01   1.024929530655e+02   2.382402852086e-01 
7 1  3.324220351372e+01  -6.307878856185e+01  -7.384585955714e+01 
8 1 -7.259530552331e+01   1.133118231422e-01  -1.159406700908e+01 
8
Step 38000
1 1 -2.854340894371e+01   8.588396896174e+01  -1.411599957166e+02 
2 1 -2.683109011733e+01   2.919456131156e+01   6.348231680914e+01 
3 1  1.262208743413e+02  -1.319694368516e+02   5.414501847892e+01 
4 1  9.792260200779e+01  -9.715856058877e+00  -1.152895961456e+02 
5 1  2.012284205322e+02  -1.033943432572e+02   1.306420040415e+02 
6 1 -1.561557574233e+02   4.473907679857e+01   1.666812566116e+02 
7 1  8.448729390111e+01  -1.563563814056e+02  -4.565134618401e+01 
8 1 -1.196402047132e+02  -6.798255357707e+01  -2.329659201172e+01 
8
Step 39000
1 1 -3.231469377982e+00  -5.617556434697e+01   5.684570973061e+01 
2 1 -5.338513805241e+00   5.162025834065e+01  -5.655172925910e+01 
3 1 -9.157478267938e+01   1.035760942642e+02  -9.464521086788e+01 
4 1 -8.755714092592e+01   6.801595570702e+01   4.857917890159e+01 
5 1 -8.256679784151e+01   7.630177389363e+01  -8.260741186766e+01 
6 1  7.128011511206e+01  -1.136750297267e+02  -5.115208318611e+01 
7 1 -5.824623353118e+01   1.093146817797e+02   8.600127735341e+01 
8 1  1.073839761277e+02   2.065749252044e+01   1.842982610512e+01 
8
Step 40000
1 1  3.193084532331e+01  -7.373593175102e+01   1.332232293287e+02 
2 1  3.079534735653e+01  -4.903867010193e+01  -4.940798622430e+01 
3 1 -1.053109747338e+02   1.074525348920e+02  -2.640678470925e+01 
4 1 -7.610248631337e+01  -1.256223230902e+01   1.080779877891e+02 
5 1 -1.893951626941e+02   8.582929408410e+01  -1.131271522620e+02 
6 1  1.445296558443e+02  -9.794241307289e+00  -1.627239606070e+02 
7 1 -7.152512689673e+01   1.318522090181e+02   2.016150076272e+01 
8 1  9.284239330508e+01   6.643815749278e+01   1.891928629017e+01 
8
Step 41000
1 1 -6.515136541793e+00   8.195040986625e+01  -1.011220538200e+02 
2 1 -3.947400553931e+00  -3.904736072905e+01   7.479358284943e+01 
3 1  1.289693494163e+02  -1.422517128813e+02   1.077026144735e+02 
4 1  1.156780033791e+02  -6.760858244275e+01  -8.462503527516e+01 
5 1  1.456017176921e+02  -1.068642730812e+02   1.219679657695e+02 
6 1 -1.198075614384e+02   1.225524006960e+02   1.042942102694e+02 
7 1  8.344108493156e+01  -1.558595337300e+02  -9.667607055026e+01 
8 1 -1.417195820368e+02  -4.234308893854e+01  -2.524939842911e+01 
8
Step 42000
1 1 -3.224736855515e+01   5.384045850823e+01  -1.117489397833e+02 
2 1 -3.182080020011e+01   6.464747550926e+01   2.994743319676e+01 
3 1  7.321911858830e+01  -7.142177311797e+01  -4.874222613708e+00 
4 1  4.598139011918e+01   3.432015243166e+01  -8.985861215037e+01 
5 1  1.582983843786e+02  -5.913367095831e+01   8.376291211364e+01 
6 1 -1.181180667436e+02  -2.727450089654e+01   1.424198562325e+02 
7 1  5.100910773532e+01  -9.340296033762e+01   8.174870209561e+00 
8 1 -5.591182601733e+01  -5.822190662737e+01  -1.251273245990e+01 
8
Step 43000
1 1  1.650900313311e+01  -9.779874065500e+01   1.348289049558e+02 
2 1  1.383831038209e+01   1.839825547159e+01  -8.326461469221e+01 
3 1 -1.503154452595e+02   1.628799928004e+02  -1.049112799944e+02 
4 1 -1.286745596227e+02   5.609393943079e+01   1.116900797237e+02 
5 1 -1.933215123493e+02   1.240720588732e+02  -1.466893214953e+02 
6 1  1.552832623083e+02  -1.125906205611e+02  -1.475420054789e+02 
7 1 -9.838763778801e+01   1.831920409373e+02   9.298390036421e+01 
8 1  1.575104786837e+02   6.002644206898e+01   2.885950785380e+01 
8
Step 44000
1 1  2.781679638142e+01  -2.623021282489e+01   7.405742609661e+01 
2 1  2.815458449560e+01  -7.058489531556e+01  -6.282454049944e+00 
3 1 -3.068775655125e+01   2.525660399592e+01   3.511500827717e+01 
4 1 -9.407296879585e+00  -5.080452816635e+01   5.860861164957e+01 
5 1 -1.042360333278e+02   2.401486236854e+01  -4.237991541737e+01 
6 1  7.460331902798e+01   5.994797825232e+01  -1.013745201897e+02 
7 1 -2.320123999030e+01   4.161069715886e+01  -3.501589323388e+01 
8 1  1.113777527891e+01   4.152567322282e+01   4.331654559795e+00 
8
Step 45000
1 1 -2.504789684235e+01   1.032058610353e+02  -1.546394487042e+02 
2 1 -2.257323760360e+01   5.208167995561e+00   8.263507930707e+01 
3 1  1.554869259905e+02  -1.658765050553e+02   9.008761027762e+01 
4 1  1.276034172311e+02  -3.772466588101e+01  -1.272076257893e+02 
5 1  2.210907495785e+02  -1.279118411594e+02   1.557897359051e+02 
6 1 -1.746139411169e+02   8.942300411506e+01   1.758505961132e+02 
7 1  1.027882003219e+02  -1.908676386532e+02  -7.857615855722e+01 
8 1 -1.560761442086e+02  -7.163559368910e+01  -2.934368864675e+01 
8
Step 46000
1 1 -1.988847846671e+01  -2.217984843793e+00  -2.977271665082e+01 
2 1 -2.086224592429e+01   6.584299596151e+01  -1.579284335872e+01 
3 1 -1.174995465076e+01   1.965962885838e+01  -5.717796951970e+01 
4 1 -2.466689889418e+01   5.832022357878e+01  -2.229000992250e+01 
5 1  4.099993756220e+01   1.083792211414e+01  -6.957336156367e-01 
6 1 -2.502901767962e+01  -8.065036649369e+01   5.019637918569e+01 
7 1 -4.992305991974e+00   1.067170563240e+01   5.405017192324e+01 
8 1  3.052195335897e+01  -2.066648978085e+01   3.607559012951e+00 
8
Step 47000
1 1  2.797283649403e+01  -9.007193364266e+01   1.448637927942e+02 
2 1  2.608857758330e+01  -2.428177304328e+01  -6.792454056488e+01 
3 1 -1.331835997125e+02   1.399509248347e+02  -6.209248109969e+01 
4 1 -1.048039406137e+02   1.571466733957e+01   1.185073877210e+02 
5 1 -2.066455190992e+02   1.092132900393e+02  -1.367576937614e+02 
6 1  1.610052883991e+02  -5.448428315882e+01  -1.696236176118e+02 
7 1 -8.887454862716e+01   1.646119675350e+02   5.290790574910e+01 
8 1  1.280842785548e+02   6.916422134977e+01   2.471860454741e+01 
8
Step 48000
1 1  9.313909510184e+00   2.671544320140e+01  -1.443343512224e+01 
2 1  1.066645337875e+01  -4.966018901005e+01   3.223102734486e+01 
3 1  4.675161229279e+01  -5.538553416492e+01   6.604280614840e+01 
4 1  4.998697737589e+01  -5.424205602623e+01  -1.357547271377e+01 
5 1  2.184734899207e+01  -3.936660620690e+01   3.827582747676e+01 
6 1 -2.294065211022e+01   8.403494544253e+01   3.776228054811e+00 
7 1  2.875988122571e+01  -5.448816827200e+01  -6.083534471585e+01 
8 1 -6.141226839048e+01  -1.369571099515e+00  -9.898095976069e+00 
8
Step 49000
1 1 -3.067945572327e+01   7.859026885252e+01  -1.365603765988e+02 
2 1 -2.931806804357e+01   4.143906268455e+01   5.496192012385e+01 
3 1  1.136244592205e+02  -1.171689058354e+02   3.721448515926e+01 
4 1  8.471205068221e+01   3.947745606014e+00  -1.110849658924e+02 
5 1  1.943526748984e+02  -9.280777996953e+01   1.201393336902e+02 
6 1 -1.493194644705e+02   2.336415087319e+01   1.645754080535e+02 
7 1  7.669086014833e+01  -1.416111606543e+02  -3.008516351512e+01 
8 1 -1.034147981881e+02  -6.716642463455e+01  -2.065355303185e+01 
8
Step 50000
1 1  2.879523799704e-01  -6.031124095518e+01   6.711844750198e+01 
2 1 -1.804880451742e+00   4.328874948267e+01  -5.813680747645e+01 
3 1 -9.676991860842e+01   1.082409299114e+02  -9.145178725172e+01 
4 1 -8.997031380242e+01   6.244497023341e+01   5.675851318472e+01 
5 1 -9.706096966245e+01   8.043125674216e+01  -8.917688751977e+01 
6 1  8.182192100254e+01  -1.075624263242e+02  -6.484625278144e+01 
7 1 -6.202239124834e+01   1.161540353042e+02   8.270130760975e+01 
8 1  1.102923808835e+02   2.626290511686e+01   1.923905913573e+01 
8
Step 51000
1 1  3.982270777965e+01  -8.114852627645e+01   1.542017486822e+02 
2 1  3.878406064904e+01  -6.908557220436e+01  -5.116218654950e+01 
3 1 -1.139705393995e+02   1.145656404284e+02  -1.639979416327e+01 
4 1 -7.872779632349e+01  -2.700647369836e+01   1.246784973183e+02 
5 1 -2.189212292328e+02   9.260359828187e+01  -1.251076262198e+02 
6 1  1.656559160022e+02   7.266018851182e+00  -1.914538126868e+02 
7 1 -7.807753025126e+01   1.436013518057e+02   1.018687759666e+01 
8 1  9.594880005642e+01   7.820680704416e+01   2.013889761395e+01 
8
Step 52000
1 1 -1.138277106381e+01   8.640322345905e+01  -1.139296828997e+02 
2 1 -8.878934248249e+00  -2.659519653580e+01   7.576025385679e+01 
3 1  1.341189844288e+02  -1.464246168622e+02   1.013480818721e+02 
4 1  1.171188243981e+02  -5.857446307825e+01  -9.475259738539e+01 
5 1  1.636225697280e+02  -1.108833995109e+02   1.291812265038e+02 
6 1 -1.326771323877e+02   1.118149715312e+02   1.218878693697e+02 
7 1  8.735987997995e+01  -1.628765307659e+02  -9.035887852266e+01 
8 1 -1.434168243586e+02  -4.955060012836e+01  -2.596353317031e+01 
8
Step 53000
1 1 -3.587488743056e+01   5.505825953642e+01  -1.189721811332e+02 
2 1 -3.556928205695e+01   7.546731750058e+01   2.863609920350e+01 
3 1  7.368226609554e+01  -7.075373139840e+01  -1.282212239051e+01 
4 1  4.391079658653e+01   4.325580210908e+01  -9.544144360753e+01 
5 1  1.683700338455e+02  -5.932354284641e+01   8.603382854112e+01 
6 1 -1.248732437000e+02  -3.906132591268e+01   1.532991917689e+02 
7 1  5.176797667089e+01  -9.458349992632e+01   1.578875796240e+01 
8 1 -5.332195451857e+01  -6.268936944993e+01  -1.237339010760e+01 
8
Step 54000
1 1  2.027854613382e+01  -9.094325152079e+01   1.333602043606e+02 
2 1  1.801710174670e+01   1.200730485706e+00  -7.404715359436e+01 
3 1 -1.377505984381e+02   1.475804954380e+02  -8.423327247152e+01 
4 1 -1.143666889750e+02   3.829100268084e+01   1.098963974034e+02 
5 1 -1.908049712727e+02   1.134238607663e+02  -1.370464253155e+02 