8
Step 0
1 1  6.432999158367e+02  -3.750043051772e+02   1.863687949543e+02 
2 1 -2.201019873105e+02   2.464960749827e+02  -6.376381097987e+02 
3 1 -6.024538913253e+00  -1.827773412917e+02  -4.399180420284e+02 
4 1  1.026746989624e+02  -4.153192840206e+02  -1.393689401268e+01 
5 1 -9.595944750191e+01  -2.674248283274e+01  -4.487471032148e+02 
6 1 -3.988877813901e+02   3.054212219501e+02   4.208222042057e+01 
7 1 -3.199643233897e+02  -6.637035784303e+01  -1.718066721548e+02 
8 1  3.032519195824e+01   2.941914944596e+01  -2.574490654431e+02 
8
Step 100
1 1  4.313525621887e+02  -6.651971281650e+02  -2.219442693864e+02 
2 1 -8.358306934124e+02   2.688277575250e+02   1.791493729439e+02 
3 1 -1.554410535147e+02   1.969194826055e+02  -7.552694169912e+02 
4 1 -2.354958700999e+02  -4.304124325713e+02   7.772511534845e+02 
5 1  4.966845971888e+02   3.107629177727e+02  -9.757184499712e+02 
6 1 -7.474552375623e+02   7.404509439279e+02  -1.455792432280e+02 
7 1  4.083445607945e+02  -5.203658714214e+02   1.323466933353e+02 
8 1  3.429112366139e+02  -4.553276429974e+02   2.838408925172e+02 
8
Step 200
1 1  9.778806383794e+01  -2.408887420392e+02  -3.179486279554e+02 
2 1 -5.145346290659e+02  -4.397379999108e+01   5.711254317196e+02 
3 1 -2.896557965174e+02   3.190553102289e+02  -3.201349214835e+02 
4 1 -3.628339667139e+02  -1.205075335790e+01   5.721124655539e+02 
5 1  5.153341081302e+02   6.948230022653e+01  -2.060681957878e+02 
6 1 -2.823930609560e+02   5.536932965894e+02   4.641584930003e+01 
7 1  7.361009603112e+02  -6.722657433214e+02   3.630701672338e+02 
8 1  2.500968258343e+02  -4.675461977826e+02   4.591857466660e+02 
8
Step 300
1 1 -4.349452370905e+01   3.340958149815e+02  -7.524462208904e+01 
2 1  2.732628444524e+02  -2.945451441074e+02   1.605197518720e+02 
3 1 -2.642585535132e+02   2.421227034266e+02   1.700769260773e+02 
4 1 -2.360466660682e+02   2.869401612949e+02  -3.372942342942e+02 
5 1 -2.791511810432e+01  -2.656011609847e+02   7.559924513144e+02 
6 1  2.802420611354e+02  -9.381410064302e+01   3.760901523645e+02 
7 1  4.329350853828e+02  -3.408193627395e+02   3.911782249428e+02 
8 1 -1.735041243384e+02  -1.504266822201e+01   7.393765879064e+01 
8
Step 400
1 1 -1.381895234161e+02   4.822889154703e+02   1.446784857480e+02 
2 1  6.137864439149e+02  -2.304358347738e+02  -3.793155903389e+02 
3 1 -7.787194098910e+01   1.983760984064e+02   2.689319347330e+02 
4 1 -4.047651587210e+00   1.284300947120e+02  -7.392991141455e+02 
5 1 -5.277959225619e+02  -1.513673640450e+02   7.285814152910e+02 
6 1  3.148883188693e+02  -6.083679538246e+02   3.205610866226e+02 
7 1 -1.515712383812e+02   1.972443582912e+02   2.199850595485e+02 
8 1 -5.190385791934e+02   3.200099815639e+02  -3.569811247764e+02 
8
Step 500
1 1 -3.244372665598e+02   1.333403858348e+02   1.055029774736e+02 
2 1  2.525182872717e+02   1.761515966832e+00  -3.384539276246e+02 
3 1  1.506546746986e+02   1.580965812441e+02   1.387840946783e+02 
4 1  1.663894985005e+02  -2.315017492795e+02  -1.907481181064e+02 
5 1 -4.457140855191e+02   2.821476673016e+02  -1.806870521812e+02 
6 1 -3.883255938928e+01  -6.153004534082e+02  -1.246694622819e+02 
7 1 -5.276782371877e+02   5.139353778380e+02  -6.125944119526e+01 
8 1 -4.585122182560e+02   1.531972677081e+02  -3.307487178689e+02 
8
Step 600
1 1 -4.297671822476e+02  -2.889956552231e+02  -7.275278837785e+01 
2 1 -2.113255175771e+02   8.912563286457e+01   1.915146550631e+02 
3 1  2.487512466118e+02  -4.081901437520e+01   1.101076287371e+02 
4 1  1.616849831657e+02  -2.550043665511e+02   4.430835482059e+02 
5 1  1.225290279314e+02   4.204403981155e+02  -8.090637805353e+02 
6 1 -1.848612401758e+02  -2.658319109549e+02  -3.689518690527e+02 
7 1 -4.280985564026e+02   4.329450767109e+02  -2.610766517495e+02 
8 1 -4.627930811183e+01  -2.251031120657e+02   7.447453767877e+01 
8
Step 700
1 1 -2.328072984981e+02  -3.835773216766e+02  -1.290460356658e+02 
2 1 -1.902822833431e+02   2.379536974062e+00   5.076964355500e+02 
3 1  1.486752021060e+02  -3.378196946311e+02   1.841618332902e+02 
4 1  1.353801365440e+00   1.706557206616e+02   2.357932545247e+02 
5 1  5.484126157620e+02   3.098730573507e+01  -4.805817384164e+02 
6 1  8.706954209438e+01   3.319923727192e+01  -7.073439798821e+01 
7 1 -3.240921606864e+01   1.905737928024e+02  -2.407119529706e+02 
8 1  3.809081129618e+02  -2.537400782059e+02   3.487982244817e+02 
8
Step 800
1 1  1.347242248951e+02  -1.512814234419e+02  -1.763533439399e+01 
2 1  1.588560920935e+02   2.959582572987e+00   2.361231248274e+02 
3 1 -3.982682909028e+01  -4.228463017534e+02   1.282696602892e+02 
4 1 -1.646099456843e+02   5.553637076579e+02  -5.379127448163e+02 
5 1  3.776752876588e+02  -4.077036166645e+02   2.572326273120e+02 
6 1  3.460443599810e+02   7.833313463777e+01   3.531692809639e+02 
7 1  2.523329093549e+02   7.854839711945e+01  -3.184795528628e+01 
8 1  5.207030965600e+02   1.426363889065e+02   2.040461944024e+02 
8
Step 900
1 1  2.967307330362e+02   1.167869488458e+02   5.926540351023e+01 
2 1  2.532018347439e+02   1.964961194469e+02  -2.251290931759e+02 
3 1 -1.219202538699e+02  -1.504591899302e+02  -9.155701843050e+01 
4 1 -1.626531911809e+02   3.833153816087e+02  -8.102879227190e+02 
5 1 -1.563524621510e+02  -3.394068325618e+02   5.036089004234e+02 
6 1  1.518602744635e+02   1.849538146702e+00   2.837360254234e+02 
7 1  2.118422299154e+02   6.937888111240e+01   1.772807416557e+02 
8 1  3.147770641878e+02   4.621763806109e+02  -1.209543439592e+02 
8
Step 1000
1 1  1.205644346780e+02   1.970527100140e+02  -4.363559474541e+01 
2 1 -7.623154591954e+01   3.083576084593e+02  -2.686391369217e+02 
3 1 -2.851070810653e+00   1.871136737205e+02  -2.231205892839e+02 
4 1  3.279493170672e+01  -2.471343553370e+02  -1.705216572185e+02 
5 1 -4.124505841869e+02   1.376520871925e+02   1.563412103853e+02 
6 1 -3.111804041943e+02   1.110245964713e+01  -2.393652502104e+02 
7 1 -7.398653046050e-02  -5.869236002485e+01   1.904095336767e+02 
8 1 -6.384100671852e+01   3.005536467691e+02  -2.270238082812e+02 
8
Step 1100
1 1 -9.947121248781e+01   1.250114782711e+02  -1.943396849377e+02 
2 1 -3.881240696148e+02   6.659013713516e+01   1.308456880200e+02 
3 1  2.002492077925e+02   2.076466919795e+02  -1.104952422030e+02 
4 1  2.323458538808e+02  -7.073618335013e+02   6.306863718159e+02 
5 1 -1.220921432499e+02   4.152752080944e+02  -1.329458609878e+02 
6 1 -4.719346704584e+02   1.343382674543e+02  -5.517131105722e+02 
7 1 -8.788868242928e+01  -3.229584732638e+02  -1.081649507546e+01 
8 1 -3.672231169891e+02  -1.250265458346e+02  -5.616751882878e+01 
8
Step 1200
1 1 -4.398604301601e+01   5.082520768801e+01  -1.413776753673e+02 
2 1 -2.649280596559e+02  -3.408258385254e+02   4.202663652619e+02 
3 1  2.506441203635e+02  -4.177856342109e+01   6.390486537376e+01 
4 1  1.959250164105e+02  -5.080558203421e+02   7.065065280734e+02 
5 1  2.996391543233e+02   1.693529110788e+02   2.566840662258e+01 
6 1 -1.116204399360e+02   2.323745619917e+02  -2.351170791089e+02 
7 1  3.934882042317e+01  -4.363769156212e+02  -2.375235721880e+02 
8 1 -4.019893843879e+02  -3.053982377926e+02   1.164181262108e+02 
8
Step 1300
1 1  1.948709246967e+02   3.728970823583e+01   1.379772318755e+02 
2 1  1.161515802037e+02  -4.121137642048e+02   1.885444426559e+02 
3 1  4.400878301068e+01  -1.174520235628e+02   3.227972614810e+01 
4 1 -7.021578872958e+01   1.510680399008e+02   1.624567245048e+02 
5 1  2.638872030379e+02  -2.298375998332e+02   2.582172581024e+02 
6 1  3.369106351940e+02   1.957242485385e+02   3.049750744552e+02 
7 1  1.886858193774e+02  -2.035297625590e+02  -2.602088101025e+02 
8 1 -1.477902417394e+02  -1.261609061976e+02   8.601193257095e+01 
8
Step 1400
1 1  2.501782640129e+02   2.359661934717e+01   3.796074399270e+02 
2 1  2.770591063678e+02  -1.484267092645e+01  -3.272037552865e+02 
3 1 -2.566008886019e+02   1.813166440329e+02  -1.485555133467e+02 
4 1 -2.666616443299e+02   6.354547619404e+02  -1.803209502423e+02 
5 1 -2.241172517708e+02  -2.632778766995e+02   6.767018948013e+01 
6 1  3.824079051230e+02   6.044408083812e+01   4.046576217905e+02 
7 1  1.454168794658e+02   1.645197540943e+02  -4.985021240250e+01 
8 1  2.107893373989e+02   2.808116560361e+01  -3.616311460862e+01 
8
Step 1500
1 1 -7.023303641021e+00  -3.334607553458e+01   3.271824197012e+02 
2 1  9.487791802081e+01   3.829744962990e+02  -5.777176494230e+02 
3 1 -3.717802374594e+02   4.679762897849e+02  -1.661382631807e+02 
4 1 -1.243145112506e+02   5.400220544423e+02   2.949293353202e+01 
5 1 -5.565814519957e+02   4.795043593563e+01  -3.876021307033e+02 
6 1  6.931082187971e+01  -5.427647666940e+01   7.529715947642e+00 
7 1 -7.437575397452e+01   2.846839019766e+02   1.990042610086e+02 
8 1  3.922989333885e+02  -9.951731167003e+01  -4.907148194863e+01 
8
Step 1600
1 1 -2.729966324174e+02  -7.441085539745e+01   3.015152013223e+01 
2 1 -9.497893237886e+01   2.616356939171e+02  -3.417320622158e+02 
3 1 -1.943647517558e+02   2.438476405488e+02   8.825000203913e+01 
4 1  2.339687442511e+02   3.923453684307e+01   2.875445485089e+02 
5 1 -2.499744757076e+02   2.159194071010e+02  -4.823384177411e+02 
6 1 -1.568422075613e+02  -5.441391313105e+01  -2.988608837627e+02 
7 1 -2.515603176933e+02   7.210370272695e+01   2.565313201193e+02 
8 1  2.289957679291e+02  -2.411424904082e+02   3.751673549695e+01 
8
Step 1700
1 1 -2.220105778632e+02  -3.543048904972e+01  -2.184838240577e+02 
2 1 -3.013811492214e+01  -2.365051286276e+02   7.015211378017e+01 
3 1  8.009963113145e+01  -3.607175127702e+02   3.216132724015e+02 
4 1  3.773521337406e+02  -3.662204253984e+02   6.011536076427e+01 
5 1  4.243915477444e+02  -1.041991032342e+00  -3.594342338858e+01 
6 1 -9.207085871493e+01   3.798450373939e+01  -1.111197211511e+02 
7 1 -2.325744072068e+02  -1.475811116638e+02   1.024084981962e+02 
8 1 -1.381872598448e+02  -2.587880704435e+01   4.327437861083e+01 
8
Step 1800
1 1  6.510687938726e+01   3.178394139418e+01  -2.360443876485e+02 
2 1  1.197660219358e+02  -4.641886201966e+02   2.739345392469e+02 
3 1  1.872880260239e+02  -6.616525498750e+02   2.212892309470e+02 
4 1  7.656653576539e+01  -3.949351918087e+02  -4.273793278514e+02 
5 1  7.472047658560e+02  -2.694089293794e+02   4.156707675009e+02 
6 1  3.500870624213e+00   8.838883634246e+01   2.692042400848e+02 
7 1 -7.373605410701e+01  -8.118449763642e+01  -7.980977677645e+01 
8 1 -3.708525071248e+02   3.897404862634e+02  -8.956650413746e+01 
8
Step 1900
1 1  2.183886716046e+02   4.861905305656e+00  -1.141949947907e+02 
2 1  6.449131738869e+01  -8.428802773603e+01   2.078748380594e+02 
3 1  7.824767902237e+01  -2.428563305792e+02  -1.156779816012e+02 
4 1 -3.728845026371e+02  -1.594431538652e+02  -5.296538118468e+02 
5 1  3.438068110469e+02  -1.599967727741e+02   3.214969816374e+02 
6 1 -1.241257003491e+02  -4.058949524526e+01   2.936345401555e+02 
7 1  7.489822015991e+01   1.623757760403e+02  -1.111207353004e+02 
8 1 -2.392725288121e+02   4.233874818348e+02  -1.925453889001e+02 
8
Step 2000
1 1  6.676485048514e+01  -1.286221233355e+02  -6.236879437647e+01 
2 1 -1.286314085353e+02   4.481506575868e+02   8.974697348641e+01 
3 1 -4.079675281978e+01   4.249673614206e+02  -2.767180637479e+02 
4 1 -4.542314189563e+02   4.127726099044e+01  -1.429260655094e+02 
5 1 -3.651169999748e+02   2.221331195991e+02  -1.258609876546e+02 
6 1 -2.893080152361e+02  -3.145427658118e+02  -4.986048462073e+01 
7 1  1.465932204942e+02   2.445061659925e+02  -4.936811676718e+00 
8 1  1.111936992784e+02  -1.022687126145e+02  -1.033224867317e+02 
8
Step 2100
1 1 -1.705984823317e+02  -2.065233411742e+02  -1.165528457639e+02 
2 1 -1.369600168090e+02   4.767998059110e+02   6.723405934915e+01 
3 1  8.952052839581e+00   5.461868990928e+02  -8.751914676792e+01 
4 1 -7.054861133434e+01   7.862228868644e+01   1.761166560228e+02 
5 1 -6.930348676743e+02   3.735417644467e+02  -2.888446863228e+02 
6 1 -1.254705972940e+02  -4.897413261741e+02  -2.569152744848e+02 
7 1  1.759936281428e+02   7.590273226738e+01   8.157462622162e+01 
8 1  3.175527120094e+02  -6.011616498023e+02   1.142102724193e+02 
8
Step 2200
1 1 -2.103519121707e+02  -6.870338064057e+01  -1.252544426577e+02 
2 1  9.890384085020e+01  -2.420803192205e+01   9.552046200255e+01 
3 1  1.603206531313e+02  -2.449606701789e+01   1.669929463136e+02 
4 1  3.113515863101e+02   4.424393401494e+01   3.825647948535e+01 
5 1 -4.068933156901e+02   6.665776332288e+01   3.410640065480e+01 
6 1  3.180793126945e+02  -3.168357690090e+02  -4.669872614569e+01 
7 1  1.604475084253e+02  -8.846307138634e+01   4.570002120321e+01 
8 1  1.805448394804e+02  -3.921952956644e+02   2.544723187234e+02 
8
Step 2300
1 1 -6.836653453236e+01   2.047631916427e+02   1.349103488360e+01 
2 1  2.294402946579e+02  -4.187880161629e+02   9.946848232228e+01 
3 1  2.032491538536e+02  -5.740535315571e+02   1.326369137953e+02 
4 1  2.283670766030e+02   6.738738474920e+01  -2.125186933683e+02 
5 1  9.860807892354e+01  -3.275324628595e+02   3.442889521969e+02 
6 1  5.264056910326e+02   1.395333967712e+02   2.262008877653e+02 
7 1  3.997716966734e+01  -4.286746994690e+01  -5.775654329297e+01 
8 1 -1.145419924532e+02   3.608610771790e+02   2.257951886498e+02 
8
Step 2400
1 1  4.008243570970e+01   3.394717750569e+02   2.147221100558e+02 
2 1 -6.976308210868e+00  -2.577640356368e+02   7.627981065478e+01 
3 1  5.546427502548e+01  -4.256998512113e+02  -1.284099345072e+02 
4 1 -1.764559729091e+02   1.501151466182e+02  -3.361743927276e+01 
5 1  3.605857170095e+02  -3.330506374337e+02   1.661270549658e+02 
6 1  1.688881554399e+02   5.187607517915e+02   8.890849447122e+01 
7 1 -1.777879237500e+02   6.105402043188e+01  -1.187173218962e+02 
8 1 -2.375408776481e+02   7.838572597409e+02   1.005947574207e+02 
8
Step 2500
1 1  3.929051186064e+01   1.563219069252e+02   3.119134869134e+02 
2 1 -3.543682862689e+02   1.714681995205e+02   2.131842849293e+01 
3 1 -1.389123560942e+02   2.511539087832e+02  -2.189982402929e+02 
4 1 -3.043927339811e+02   1.909585972231e+02   4.716459502648e+02 
5 1  2.989653920417e+02   3.546052513554e+01  -2.866657775453e+02 
6 1 -4.006694408848e+02   4.950064885837e+02  -3.575241934499e+02 
7 1 -3.153419222275e+02  -4.708900675037e+01  -1.017017447820e+02 
8 1 -8.344986405809e+01   3.351940727438e+02  -3.893962548847e+01 
8
Step 2600
1 1  7.505905548993e+01  -1.871391157923e+02   2.476926000287e+02 
2 1 -3.190742423464e+02   2.535376276901e+02  -1.197128263661e+02 
3 1 -1.901137693933e+02   6.471904653797e+02   4.309078014149e+01 
4 1  1.255729009240e+02   1.166868142095e+02   6.156581033024e+02 
5 1  1.515127151140e+02   3.071862964650e+02  -3.860591459545e+02 
6 1 -4.943909794504e+02   1.499505598147e+02  -5.106525370782e+02 
7 1 -1.719207485257e+02  -3.100430501003e+02  -4.847512046205e+01 
8 1  1.221940742250e+02  -4.624451615751e+02  -1.905860198888e+02 
8
Step 2700
1 1  2.303234015341e+02  -3.228520323177e+02   9.537787756672e+01 
2 1  1.348390439188e+02  -1.040407616629e+02  -3.176321381870e+02 
3 1 -8.736695298858e+01   3.089622286579e+02   3.234754135408e+02 
4 1  6.192243437192e+02  -3.982258987224e+01   9.636846359921e+01 
5 1  8.022000920345e+01   1.754081864940e+02   3.101528399638e+01 
6 1  3.642622502238e+01  -9.062648617799e+01  -7.015922919307e+01 
7 1  1.961898968494e+02  -3.485004069767e+02   1.370381413680e+01 
8 1  1.156482497838e+02  -6.213188256267e+02  -3.217479826478e+02 
8
Step 2800
1 1  3.274557701282e+02  -9.034533746990e+01  -6.738999166712e+01 
2 1  4.437217438950e+02  -3.351881697897e+02  -3.747567782300e+02 
3 1  9.509732884639e+00  -2.925773136990e+02   1.866999884346e+02 
4 1  4.790744049887e+02  -1.793732616810e+02  -4.566269241642e+02 
5 1  4.164155766334e+00  -1.099818349426e+02   3.844427851054e+02 
6 1  5.170861148160e+02   2.982608836470e+01   4.817550172030e+02 
7 1  4.291675565649e+02  -8.245567534091e+00   9.197455820937e+01 
8 1 -6.154634138863e+01   4.190473647594e+00  -2.927517452725e+02 
8
Step 2900
1 1  1.636330284580e+02   2.515283881254e+02  -2.275917985178e+02 
2 1  1.948041432423e+02  -4.914782866721e+01  -1.364433547239e+02 
3 1 -2.344822387026e+00  -4.202083002416e+02  -2.720547589397e+02 
4 1 -2.342680088966e+02  -2.373766185975e+02  -3.151225927070e+02 
5 1 -1.781759310685e+02  -1.361348767045e+02   1.604559716969e+02 
6 1  2.948554066412e+02   2.317326092194e+02   4.940401775352e+02 
7 1  2.315980973096e+02   3.483020299762e+02   1.545437338322e+02 
8 1 -1.241905844047e+02   4.859909276158e+02  -2.194053517920e+01 
8
Step 3000
1 1 -1.439217699801e+02   3.103453746388e+02  -3.381211779222e+02 
2 1 -2.655766709466e+02   3.631000772764e+02   2.204143903385e+02 
3 1 -6.232876180494e+01  -3.338387220952e+01  -4.790188866687e+02 
4 1 -6.863948167474e+02  -2.126192370510e+02   2.836592852340e+02 
5 1 -3.476602975055e+02   8.031933176702e+01  -3.381578138215e+02 
6 1 -3.708928848903e+02   5.602832569597e+01   2.387028139460e+01 
7 1 -2.456595210767e+02   2.998869172792e+02   1.172945917925e+02 
8 1  5.947956161318e+01   9.266724743654e+01   2.961011128364e+02 
8
Step 3100
1 1 -2.819797395248e+02   1.839876769883e+01  -2.705642141931e+02 
2 1 -2.954758350373e+02   2.777675657950e+02   3.217336141914e+02 
3 1 -7.724808411109e+01   2.560305625742e+02  -1.175912566072e+02 
4 1 -3.440632647887e+02  -1.078059237996e+02   4.389276368831e+02 
5 1 -2.853395196111e+02   1.578331379456e+02  -4.062516417174e+02 
6 1 -6.177224044157e+02  -4.694183327528e+02  -2.775681664669e+02 
7 1 -5.175847754502e+02  -4.025134267642e+01  -3.790104965330e+01 
8 1  2.676021443271e+02  -6.541827984199e+02   3.349063308734e+02 
8
Step 3200
1 1 -1.808627569125e+02  -2.892651196405e+02   8.780495218818e+00 
2 1  1.333662855762e+02  -2.240093181166e+02   6.737759249041e+01 
3 1 -4.888791904784e+01   8.916223872994e+01   4.171275827866e+02 
4 1  2.888565518034e+02   7.680826661038e+01  -1.267973457340e+02 
5 1  1.061566431147e+01  -5.797406294534e+01   7.481953253429e+01 
6 1 -1.089088006447e+02  -7.625929934215e+02  -8.088343077019e+01 
7 1 -2.808362929948e+02  -1.768559117319e+02  -1.701200154099e+02 
8 1  1.984082418467e+02  -6.576103222160e+02   4.842579242491e+01 
8
Step 3300
1 1 -1.092516816395e+02  -2.862500053860e+02   2.908255107929e+02 
2 1  3.950955225587e+02  -4.292824745161e+02  -1.933549946902e+02 
3 1 -6.963310237378e+00  -1.858536255859e+02   5.069781896828e+02 
4 1  3.451566967267e+02   2.747890552176e+02  -6.675727615953e+02 
5 1  2.835344096100e+02  -2.682995654816e+02   4.881946657852e+02 
6 1  5.193013812766e+02  -4.276595180735e+02   2.089602059991e+02 
7 1  2.321703621585e+02   4.787725867322e+01  -1.167141488060e+02 
8 1 -1.271779197762e+02   2.078044807126e+02  -2.099453671131e+02 
8
Step 3400
1 1 -2.258384426290e+02  -1.902865268725e+01   3.020010438536e+02 
2 1  1.167678924450e+02  -1.560329027914e+01  -1.118715257916e+02 
3 1  8.680954751517e+01  -1.221459193857e+02   8.063971543058e+01 
4 1 -2.217954566975e+02   3.301233122129e+02  -5.027647092134e+02 
5 1  3.181085689618e+02  -1.758770667232e+02   3.557695620673e+02 
6 1  5.158508669730e+02   2.321909780592e+02   1.188835151357e+02 
7 1  5.199689966626e+02   2.504165444189e+02   8.556356671083e+01 
8 1 -3.815479935961e+02   9.182851151405e+02  -1.244956447565e+02 
8
Step 3500
1 1 -3.058383733007e+02   1.898960289964e+02   2.789809717344e+01 
2 1 -3.041128781251e+02   4.597273399201e+02   2.009550285179e+02 
3 1  2.450930675482e+02   1.533940570528e+02  -3.261849453589e+02 
4 1 -5.823774577919e+02   1.290628646021e+02   4.853667174658e+01 
5 1  1.500078602790e+02   9.219866621248e+01  -7.007077045242e+01 
6 1 -5.153241221910e+01   5.546736891821e+02  -2.068235561986e+02 
7 1  3.296646469273e+02   1.052959656882e+02   2.002137860487e+02 
8 1 -3.061279980384e+02   6.518066112063e+02   1.669885253783e+02 
8
Step 3600
1 1 -7.172569232976e+01   1.476330833864e+02  -2.426469240431e+02 
2 1 -3.075940716784e+02   3.379110654660e+02   3.454040342187e+02 
3 1  3.378568893658e+02   1.743316166960e+02  -2.823413759723e+02 
4 1 -1.750020783319e+02  -2.256542804217e+02   2.305685166957e+02 
5 1 -4.701906322861e+01   2.007001819676e+02  -2.646641794617e+02 
6 1 -4.727714912829e+02   3.293720847491e+02  -2.825776468494e+02 
7 1 -1.168704244753e+02  -1.653151877161e+02   7.836774025260e+01 
8 1  8.753513575151e+00  -1.693120039402e+02   2.576625324299e+02 
8
Step 3700
1 1  3.633831940334e+02  -3.305280856855e+01  -2.428240952948e+02 
2 1  4.696628001413e+01  -2.383730090938e+02   1.746853006441e+02 
3 1  1.937387988065e+02  -1.465460262576e+02   4.702549528234e+01 
4 1  5.696512643041e+02  -4.409048283122e+02  -2.260029605574e+01 
5 1 -1.809148507976e+02   8.033884361838e+01  -1.516804724639e+02 
6 1 -3.234680357446e+02  -3.846245922553e+01  -1.832248969568e+01 
7 1 -4.139680202371e+02  -1.585516484517e+02  -1.481687399287e+02 
8 1  2.737781083423e+02  -5.593030139656e+02   1.529329205830e+01 
8
Step 3800
1 1  5.737932626263e+02  -1.262614988798e+02  -2.976390258897e+00 
2 1  2.281055941164e+02  -5.236509937752e+02  -6.481106589495e+01 
3 1 -1.616508780182e+02  -3.725855545937e+02   1.858698181616e+02 
4 1  7.862738470733e+02  -2.680274342778e+02  -7.561781735878e+01 
5 1 -2.421151807817e+02  -3.752613036248e+01  -5.549532462664e+01 
6 1  1.365032232622e+02  -1.068955462783e+02   1.870824995508e+02 
7 1 -3.463386314182e+02   8.577385710158e+01  -2.206939800334e+02 
8 1  2.965339378936e+02  -2.128738295033e+02  -2.569179971639e+02 
8
Step 3900
1 1  3.456311460035e+02  -5.262763402300e+01   2.000186856907e+02 
2 1  4.669595047117e+00  -1.420187330066e+02  -1.139390817196e+02 
3 1 -4.320466695335e+02  -1.372849391463e+02  -5.020567177104e+01 
4 1  2.282595049831e+02   2.099671152092e+02   3.919776384648e+02 
5 1 -1.973964250767e+02   8.469483994368e+00  -1.337487474991e+02 
6 1  3.780676217739e+02   9.646909262660e+01   4.046928710045e+01 
7 1 -3.010199530976e+01   1.090145914437e+02  -7.039905486257e+01 
8 1  1.152545459736e+02   2.466704134438e+02  -2.165635934903e+02 
8
Step 4000
1 1 -3.986949320477e+01   7.298197420121e+01   1.756239805181e+02 
2 1 -2.352118723184e+02   4.127063203786e+02  -6.866616883180e+01 
3 1 -3.508015672314e+02   3.236534550279e+02  -3.370940378320e+02 
4 1 -4.584407761888e+02   5.748709248826e+02   8.141473631806e+02 
5 1 -1.113283952446e+01   8.055750652492e+01  -1.515726405678e+02 
6 1  2.343371121066e+02   2.053453558753e+02  -2.140068120726e+02 
7 1  2.408675388919e+02  -2.682503519964e+02   1.006794549182e+02 
8 1 -9.233342681128e+01   1.957620493817e+02   5.764136616832e+01 
8
Step 4100
1 1 -1.912498320368e+02   1.169791180145e+02   2.235966982620e+01 
2 1 -7.917998145746e+01   4.290803407933e+02  -1.828423697503e+02 
3 1 -5.124036217066e-01   4.503518122205e+02  -2.501337975772e+02 
4 1 -5.587064562864e+02   4.357612207604e+02   4.739673653526e+02 
5 1  2.358398342676e+02  -1.282993704647e+01   9.447728685223e+01 
6 1 -3.821982027450e+01   4.585192618166e+01  -1.523837886617e+02 
7 1  2.662475520974e+02  -5.643350331817e+02   1.019701819448e+02 
8 1 -1.829356728341e+02  -2.002328546397e+02   1.792391490247e+02 
8
Step 4200
1 1 -9.809804042856e+01   7.519469450670e+01  -2.264170442292e+01 
2 1  2.683054051225e+02  -9.299560629746e+01  -4.135680809019e+02 
3 1  2.279378202492e+02   9.050385649688e+01   1.975223784320e+02 
4 1 -1.108461728918e+02  -1.304010894286e+02  -3.925839929112e+02 
5 1  3.442259299970e+02  -1.766943989464e+02   3.683591614094e+02 
6 1 -1.632567608174e+02  -1.514972595399e+02   1.977042057670e+02 
7 1  8.625111969064e+01  -2.269893084672e+02   4.827001582488e+00 
8 1 -1.276851308449e+02  -3.337736737083e+02  -2.092511263518e+01 
8
Step 4300
1 1 -7.523398768711e+01   2.846040584223e+01   9.034527504830e+01 
2 1  2.653425158878e+02  -4.718023337037e+02  -3.989195197244e+02 
3 1  1.042620052110e+02  -3.047779681152e+02   5.510742609099e+02 
4 1  2.642798936791e+02  -6.091507732144e+02  -8.206611620034e+02 
5 1  2.050407546024e+02  -1.409795056736e+02   2.861193212790e+02 
6 1 -1.497882667247e+02  -1.232740509847e+02   3.726204407096e+02 
7 1 -9.651964429575e+01   5.384563112807e+02   7.045257249707e+00 
8 1  4.865527788474e+00  -5.394681077215e+01  -2.587070978219e+02 
8
Step 4400
1 1 -2.390079550844e+02   1.786483424763e+00   1.638963310420e+02 
2 1 -1.642488639821e+02  -2.354709240951e+02   4.833640674748e+01 
3 1 -1.622457524055e+02  -2.647359778977e+02   4.047615906097e+02 
4 1  1.870593251359e+02  -5.275436271750e+02  -3.608505882176e+02 
5 1 -6.971365901504e+01   1.257363828860e+02  -1.154439194209e+02 
6 1 -1.298197895874e+02   4.388955089945e+01   1.069930355827e+02 
7 1 -1.182611346042e+02   8.682778323738e+02   1.112116138372e+02 
8 1  1.144509329131e+02   1.909359725217e+02  -1.723151349297e+02 
8
Step 4500
1 1 -3.210505682600e+02  -5.027297828616e+01   3.075791899012e+01 
2 1 -4.368691891675e+02   2.760166094169e+02   5.568116229045e+02 
3 1 -1.806054260774e+02   1.098102349323e+02  -1.175315839375e+02 
4 1 -9.132351701996e+01   2.007910201369e+01   2.804886313877e+02 
5 1 -2.387174123825e+02   3.066885718675e+02  -3.451178238720e+02 
6 1 -1.059371437461e+02   4.363403020844e+01  -2.636895901034e+02 
7 1 -1.502702275028e+00   3.163335421439e+02   1.022694951560e+02 
8 1  1.274609926895e+02   5.886422741741e+01   1.747755424902e+02 
8
Step 4600
1 1 -8.824410995274e+01  -1.352995456895e+02  -2.223584750083e+02 
2 1 -1.101153815668e+02   4.184824318553e+02   6.041453077375e+02 
3 1  1.169561249231e+02   3.256972275204e+02  -5.140585220501e+02 
4 1 -1.593859677776e+02   4.749900821958e+02   2.417618083900e+02 
5 1 -2.014685473944e+02   1.559865951368e+02  -1.237775668853e+02 
6 1  1.711914965731e+01  -1.835567117588e+02  -2.636105207854e+02 
7 1  9.233623022786e+01  -5.144750644362e+02  -1.130668843251e+02 
8 1  4.870033850534e+01  -1.833806560783e+02   3.743695598975e+02 
8
Step 4700
1 1  2.584126589430e+02  -1.615269943037e+02  -3.627367532904e+02 
2 1  4.716525202827e+02   6.395990403331e+01   1.441922577598e+02 
3 1  3.961635887111e+02   1.231539921958e+02  -4.233890067049e+02 
4 1 -4.401008684816e+00   3.973958270071e+02  -3.398259999049e+02 
5 1 -6.747125898827e+01  -1.695838629471e+02   2.363149891088e+02 
6 1  1.999070211783e+02  -3.398209742972e+02   9.340406379744e+01 
7 1  4.614335176453e+01  -6.642932899127e+02  -2.964975740706e+02 
8 1 -5.027716330638e+01  -9.639447165193e+01   1.934330686009e+02 
8
Step 4800
1 1  3.090069590085e+02  -4.800308112342e+01  -2.828555075369e+02 
2 1  5.679993213007e+02  -2.978214961042e+02  -3.043821471129e+02 
3 1  3.341917546492e+02  -2.518322766341e+02   1.836570264407e+01 
4 1  6.781253394457e+01  -6.546137256374e+01  -5.634881008207e+02 
5 1  3.866871111939e+00  -3.098365034081e+02   2.454062574565e+02 
6 1  2.401987888165e+02  -1.696730498847e+02   3.261686813568e+02 
7 1 -8.459181586049e+01  -5.587778720820e+00  -1.498888705763e+02 
8 1 -1.009666187909e+02   2.599711840921e+02  -1.357023224828e+02 
8
Step 4900
1 1  2.896538680994e+01   1.316586691408e+02  -8.742695036068e+01 
2 1  2.280487271212e+01  -2.538493642255e+02  -2.991472414241e+02 
3 1  2.690896314429e+00  -4.043421069213e+02   3.549167999231e+02 
4 1 -5.679546095626e+01  -3.599939716281e+02  -5.790466453322e+01 
5 1 -1.190202252830e+01  -1.767563518663e+02  -9.403034810350e+01 
6 1  3.991563196214e+01   1.746964573256e+02   1.359203073107e+02 
7 1 -1.418521488935e+02   5.751835684585e+02   2.408565033655e+02 
8 1 -1.073876485902e+02   4.079240254001e+02  -2.347173028751e+02 
8
Step 5000
1 1 -1.755353957553e+02   1.941386904120e+02   8.715467971719e+01 
2 1 -5.326227805801e+02   3.753705570672e+01   1.276862310235e+01 
3 1 -2.666343871565e+02  -2.341886295320e+02   3.034539481727e+02 
4 1 -1.421175846437e+02  -1.684788802209e+02   5.357539281194e+02 
5 1 -1.855009653356e+01  -1.467406712005e+01  -3.180748270466e+02 
6 1 -2.229421024738e+02   3.246879013766e+02  -2.322333047085e+02 
7 1 -5.431516526453e+01   3.076408203299e+02   4.354935508197e+02 
8 1 -1.136401656562e+02   1.453543178124e+02  -5.526395667746e+01 
8
Step 5100
1 1 -1.965708543204e+01   5.288207673314e+01   2.175597678730e+02 
2 1 -4.927404180535e+02   1.592429032835e+02   1.586278353053e+02 
3 1 -2.816229754549e+02   6.160895771017e+01   8.835594044467e-01 
4 1  1.892920965901e+01   2.469646425484e+02   4.996417576411e+02 
5 1  4.959570316403e+01  -3.168509423134e+00  -1.466257267918e+02 
6 1 -2.681029898732e+02   1.587732113974e+02  -3.521841938670e+02 
7 1  8.163609667487e+01  -4.972191484347e+02   1.590610693006e+02 
8 1 -1.048724288028e+02  -1.820048597069e+02   1.163157799042e+02 
8
Step 5200
1 1  2.509160594664e+02  -1.467433208705e+02   3.245761694166e+02 
2 1 -1.898843143235e+01   2.110074759977e+01  -2.709498458050e+01 
3 1 -1.395630339599e+02   2.693816377898e+02  -2.023449898370e+02 
4 1  2.702104913621e+02   3.641485830455e+02   2.107385317125e+01 
5 1  1.501121539267e+02  -1.124083159725e+01   1.618350763506e+02 
6 1 -3.027635564222e+01  -6.470934830641e+01  -1.485156846833e+02 
7 1  1.110451910056e+02  -8.258096974290e+02  -3.194088623123e+02 
8 1  3.417621409960e-01  -1.862892507900e+02   6.530136880882e+01 
8
Step 5300
1 1  1.949282970392e+02  -1.639447447262e+02   3.524708991787e+02 
2 1  2.459065026741e+02  -8.356979103085e+01  -2.272526333693e+02 
3 1 -2.056200313486e+01   3.238235861389e+02  -1.464134411465e+02 
4 1  2.873801712821e+02   1.750479890544e+01  -1.435152075255e+02 
5 1  1.912231146749e+02   1.540173076936e+02   2.073934371039e+02 
6 1  2.599484331811e+02  -5.778268229842e+01   9.369268617030e+01 
7 1 -2.251215583865e+00  -2.115007485193e+02  -4.709416617822e+02 
8 1  2.189896263186e+02   1.823519249702e+01  -9.230900424341e+01 
8
Step 5400
1 1 -1.794163961265e+02   5.008349346377e+01   2.114435383576e+02 
2 1  6.267683669545e+01   3.110096900499e+01  -1.251563596837e+02 
3 1  2.449608781066e+01   2.432882637674e+02   3.502975259191e-02 
4 1  3.085074245737e+01  -4.073516938210e+02   2.026904787251e+02 
5 1  1.179239298314e+02   3.863375438495e+02  -3.752206189084e-01 
6 1  3.184437174460e+02   1.421100066631e+02   1.581160260365e+02 