8
Step 0
1 1  4.052544475837e+02  -1.675809854899e+02  -1.674253473881e+02 
2 1 -3.252733251822e+02  -4.058306801299e+02   3.449496393584e+02 
3 1 -3.298276480734e+02  -2.315521310585e+02   3.857067433746e+02 
4 1 -2.368981464688e+02  -6.011436389706e+01   2.908889807614e+02 
5 1  3.310611029335e+02  -2.496222871887e+02   2.526020779567e+02 
6 1  6.607347117330e+02   6.752227081102e+02  -2.237105605333e+02 
7 1  2.971175608438e+01  -3.328807514274e+02  -4.215876651945e+01 
8 1 -9.995323181877e+01  -4.043738968622e+02   4.440375091108e+02 
8
Step 1000
1 1 -3.969884437318e+02   1.810413038090e+02  -3.851937842748e+01 
2 1  5.415980385607e+01   1.983449747876e+02  -1.276332446626e+02 
3 1  2.276253369326e+02  -1.210363431325e+02  -3.001897025671e+01 
4 1  2.872481356957e+02   2.660447747045e+02   1.833154894604e+02 
5 1  9.058159249662e+01   6.566204177050e+02  -2.546828718163e+01 
6 1 -1.870064818979e+02  -4.620647665742e+02  -1.337199141164e+02 
7 1 -1.632068694541e+02   3.939318879268e+01   1.567183001932e+02 
8 1 -5.190931990954e+01  -5.107010538177e+02  -1.330855464954e+02 
8
Step 2000
1 1  2.842798447111e+02  -2.505438350206e+02  -1.837232104410e+02 
2 1 -1.961466187090e+02  -2.125511945850e+02   3.502277645879e+02 
3 1  2.824160534113e+02  -3.385262790624e+01   3.338152051983e+02 
4 1 -3.262295210501e+02  -2.971099843412e+01  -6.202928521821e+02 
5 1  2.383996288120e+02   1.025789983416e+02   2.419308043458e+02 
6 1  1.441149065678e+02  -1.375378783435e+02   4.193878568519e+01 
7 1  8.194369200039e+01  -2.732052969427e+02   1.744724980377e+02 
8 1 -7.696909394333e+00  -1.121113656430e+02   6.784975652668e+01 
8
Step 3000
1 1 -1.245654534861e+02  -3.934947318555e+01  -2.484592913882e+02 
2 1  6.126921353394e+01   6.145692506872e+01  -2.648865199156e+01 
3 1  4.091393308463e+02  -3.598994743641e+02  -3.997837178984e+02 
4 1  2.908651371210e+02   1.274005417016e+02   2.332627028454e+02 
5 1  1.750316740531e+02   1.207774167290e+02  -3.538987857780e+02 
6 1 -2.864313741734e+02  -3.203595563403e+02   1.405472441878e+02 
7 1 -2.376670895865e+02   8.973584164314e+01   1.932506759232e+01 
8 1 -3.678186105564e+01   2.270008241527e+02   1.115784967390e+02 
8
Step 4000
1 1  3.428188758030e+02  -2.684086194259e+02   3.904487835725e+01 
2 1 -4.343862043452e+01  -1.810551183464e+02  -8.693870109063e+01 
3 1  3.779045833465e+02   1.343420047031e+02  -5.201849401895e+01 
4 1 -6.111551595982e+02   1.609634052501e+02  -2.099943898372e+02 
5 1 -3.361610913368e+01  -1.740081143438e+02   4.179819171012e+02 
6 1  2.157864749487e+02  -3.535711840388e+02   1.136495878250e+02 
7 1  1.952122096684e+02  -1.533247141663e+02   3.104691224040e+02 
8 1  2.016961698443e+01  -2.553180848221e+02  -4.082867208490e+02 
8
Step 5000
1 1  1.204893315376e+01   1.807675045646e+02  -3.103123536899e+02 
2 1 -4.801013668474e+01   1.033330911480e+00   9.972660444983e+00 
3 1  2.092563596901e+01  -4.873180913859e+02  -1.298881232432e+02 
4 1  1.596061298055e+02   2.292297157203e+01   4.787558156529e+02 
5 1  6.423681785782e+02  -1.826829616085e+02  -3.442266483222e+02 
6 1  4.679165127897e+02   4.596113706782e+02  -2.471096011005e+02 
7 1 -2.152777843505e+02   2.772860776062e+02  -3.042568999264e+02 
8 1 -2.265274087920e+02  -5.407779730134e+01   1.813149757134e+02 
8
Step 6000
1 1  3.882603578325e+01  -1.149351486280e+02   1.108000413898e+02 
2 1  9.322333319650e+00  -6.569830487486e+01  -1.629110432065e+02 
3 1  2.188386321455e+02   3.557277124199e+02   2.708593153314e+02 
4 1 -3.552432795282e+02   3.068995782306e+02  -6.996750377960e+02 
5 1  2.884250916364e+02   3.643029394518e+02   2.215011246118e+02 
6 1 -4.429790282622e+01  -5.278014400373e+02   2.038007324243e+01 
7 1 -2.668622859631e+02  -1.331340209149e+02   4.895454904647e+02 
8 1 -1.897281512139e+02  -6.313196335280e+02  -2.920763134710e+02 
8
Step 7000
1 1  2.352085628217e+02  -4.336233203566e+01  -4.357687240741e+02 
2 1 -7.677199731782e+01  -2.098738403000e+02   2.254542133308e+02 
3 1  7.057223968305e+01  -4.124213908743e+02   2.989070457770e+01 
4 1  3.030081443887e+02  -1.236440966861e+02  -5.993149846293e+00 
5 1  5.299515236798e+02  -1.531105113398e+02  -2.328424190619e+02 
6 1 -1.813653987517e+02   3.063130417790e+02   1.735593652527e+01 
7 1 -3.325129169738e+02   2.278849417154e+02   2.715722029750e+01 
8 1  2.871233525518e+02   3.008996725572e+02   1.414052833890e+02 
8
Step 8000
1 1 -1.250949625650e+02   1.099191789872e+01   2.009354217145e+02 
2 1  5.794691384830e+01   1.416263718490e+02  -2.708676777722e+02 
3 1  2.423475046400e+02   2.757456932440e+02  -2.736837268003e+02 
4 1 -2.065481850547e+02   2.558293647672e+02  -4.628945265980e+01 
5 1 -3.963194675866e+02   2.482367031927e+02   1.562084556757e+02 
6 1 -4.785578215916e+02  -5.157909147755e+02   2.292007085132e+02 
7 1 -2.524552226710e+01   3.749549462899e+01   2.624275931728e+02 
8 1  2.720801422005e+02  -1.854835056551e+02  -5.072582939706e+02 
8
Step 9000
1 1  3.018096559145e+02  -5.914350174845e+01  -1.979522844543e+02 
2 1 -9.672135639652e+01  -1.695621348950e+02   3.273898061799e+02 
3 1 -5.436429439276e+01  -3.744372784522e+02   4.802577149566e+01 
4 1 -1.913959061044e+02  -1.305705218550e+02   1.947162438384e+02 
5 1  1.487958832170e+02  -2.211501713177e+02  -1.753720801141e+02 
6 1  6.315524214162e+02   5.533362807794e+02  -1.321166056745e+01 
7 1  1.728413221349e+02   1.190236137962e+02  -1.678647194758e+02 
8 1 -2.100026211216e+02   3.161509145567e+01   9.701061790637e+01 
8
Step 10000
1 1 -2.777099421208e+02   2.082647871572e+02   1.366244830605e+02 
2 1  3.997551267357e+01   2.494482936484e+02  -1.705660193842e+02 
3 1  2.170591172783e+01   1.293252789165e+02  -2.197089158503e+02 
4 1 -7.650890306461e+01   4.862468460621e+02   1.244039472291e+02 
5 1  3.358007843600e+02   2.383286238637e+02  -2.870585185887e+02 
6 1 -5.538653710944e+01  -1.319729341309e+02   2.352609578038e+02 
7 1 -3.821867258042e+02  -6.502656348779e+01   7.003992386298e+00 
8 1 -5.270272390127e+02  -3.526066891993e+02  -1.443674741834e+02 
8
Step 11000
1 1  3.956794761866e+02  -2.306915202811e+02  -1.989370404599e+02 
2 1 -1.469132537457e+02  -3.358926629063e+02   3.025943877677e+02 
3 1 -1.535683159926e+01  -2.319511631415e+01   4.020479317833e+02 
4 1 -3.262929813206e+02   3.965222174913e+01  -6.269801492814e+02 
5 1  5.309907729608e+02  -1.853882039214e+02   2.343570860233e+02 
6 1 -1.258084843725e+02  -1.041908553640e+01   3.084860519155e+02 
7 1 -8.950023012400e+01   1.277043226193e+02   1.636847379249e+02 
8 1  3.380949406505e+02  -6.105832192793e+01  -1.024543920107e+02 
8
Step 12000
1 1 -2.597204642002e+02   2.754577855068e+02   5.038317374466e+00 
2 1 -1.288606522588e+02   2.304883713048e+02  -1.790164724855e+02 
3 1 -2.588348197656e+01  -1.243278643766e+01  -3.745330010556e+02 
4 1  2.283865293917e+02   1.062143647297e+02   5.679564581792e+02 
5 1 -1.162609321863e+02  -7.747387532010e+01  -2.499108168559e+01 
6 1 -5.572455537399e+02   2.407800570900e+01   7.226412256573e+00 
7 1 -9.374421452150e+01   3.879607324354e+02  -3.002369853679e+02 
8 1  3.501331779993e+02   1.222379874242e+02  -1.485985742552e+02 
8
Step 13000
1 1  3.257654127552e+02  -1.746284485153e+02   1.759397530146e+02 
2 1 -1.110164653233e+02  -1.643249877040e+02   1.268313039609e+02 
3 1  8.164297067731e+01   8.184155762856e+01   2.535984509540e+02 
4 1 -4.106999219990e+02  -6.347554744315e+01  -3.179333055119e+02 
5 1 -3.375451507004e+02  -2.807260958331e+00   4.477428294760e+02 
6 1  2.265489115935e+02   7.344493888616e+01  -1.242243972039e+02 
7 1  3.509347122381e+02  -1.889102495552e+01   1.873222646850e+02 
8 1 -5.705791902007e+01  -4.780859419661e+02  -1.429382179019e+02 
8
Step 14000
1 1 -1.477513279573e+02   2.283347697930e+02  -9.085422472272e+01 
2 1 -4.851305879024e+01   1.756499249653e+02  -4.169013498173e+00 
3 1 -4.131199339423e+01  -3.345640115754e+02  -2.059565750623e+02 
4 1  2.329975789044e+02   2.814544001040e+01   4.829827399475e+02 
5 1  2.085318839212e+02   1.312508338370e+02  -4.531886651010e+02 
6 1  3.220833308640e+02   4.435462084935e+02  -2.530733715833e+02 
7 1 -1.249238919250e+02   2.281475687385e+01  -8.303606443369e+01 
8 1 -4.472138793489e+02   5.866806495735e+01   2.220786590264e+02 
8
Step 15000
1 1  1.147583306206e+02  -2.312876418909e+02   1.471539827611e+02 
2 1  1.634008824919e+01  -1.475985496403e+02   5.845528304536e+01 
3 1  6.861443834163e+01   2.964573030687e+02   2.621094953313e+02 
4 1 -5.109166602772e+02   3.292052239325e+02  -6.889117140154e+02 
5 1 -5.003235934133e+01   1.908067312011e+02   2.576751356965e+02 
6 1 -1.573621170479e+01  -5.126120285037e+02   4.310419501708e+02 
7 1 -2.021148541960e+02  -3.850195718596e+02   3.342951245987e+02 
8 1  2.837754135693e+02  -1.711138422752e+02  -3.098415816450e+02 
8
Step 16000
1 1 -6.612383645422e+00   1.026908485627e+02  -3.559512635224e+02 
2 1 -1.503005915340e+02  -1.591075195784e+01   2.248973377950e+02 
3 1 -1.243396269747e+02  -2.565287396140e+02  -1.666731579217e+02 
4 1  2.477721652621e+02  -2.265763307817e+01   3.652726016184e+02 
5 1  4.837623235081e+02  -3.707413239143e+02  -1.788754452126e+02 
6 1 -6.301674951613e+01   2.047575919921e+02   1.671416286131e+02 
7 1 -2.007911454741e+02   4.321812370808e+02  -5.133717276447e+02 
8 1  2.343065417055e+02   4.114114724959e+02   1.565766539944e+02 
8
Step 17000
1 1 -7.594642338776e+01  -5.678992710768e+00   4.435068283305e+02 
2 1  1.347780342674e+01   5.901900936144e+01  -8.807575060864e+01 
3 1  4.028455232912e+01   3.980981265572e+02  -2.351496801760e+02 
4 1 -1.619333173946e+02   1.992201473346e+02  -6.574655016466e+01 
5 1 -4.927953990786e+02  -2.137039408745e+01   3.907437973007e+02 
6 1 -4.200716384760e+02  -4.252210756150e+01  -1.690603129267e+02 
7 1  2.807899469171e+02  -1.221419540365e+02  -7.485175420622e+01 
8 1  7.641223185836e-02  -6.855541990701e+02   6.678007199712e+00 
8
Step 18000
1 1  2.704297315718e+02  -7.260544130035e-01  -2.107716130836e+02 
2 1 -1.097071380637e+02  -2.316776198455e+02   2.292495349444e+02 
3 1 -1.344977278126e+01  -3.589055523483e+02   4.426377559377e+01 
4 1  6.700217799225e+01  -3.998872961422e+02   1.770044907397e+02 
5 1  3.067530754235e+02  -1.310673421209e+02  -1.374558004103e+02 
6 1  3.994692299151e+02   5.862210146554e+02  -4.043231865185e+02 
7 1  2.456337432763e+02   1.281755012222e+00   3.581914497613e+01 
8 1 -1.738422260008e+02   3.042304446561e+02   2.872088432915e+02 
8
Step 19000
1 1 -2.913898793088e+02   1.313734315189e+02   2.204681816827e+02 
2 1 -1.206359470370e+01   2.223250995030e+02  -2.899300092784e+02 
3 1  5.256976473602e+01   2.393571136015e+02  -2.470556166565e+02 
4 1 -2.502004868684e+01   3.179652064055e+02   6.596495554117e+01 
5 1 -3.055864087983e+02   3.502981075600e+02  -2.522452645345e+01 
6 1 -2.790427638794e+02  -4.854840686555e+02   1.672482041886e+02 
7 1 -1.732098566779e+02  -3.196001848430e+02   2.947621772936e+01 
8 1  3.870229736676e+01   1.084984267987e+02  -2.288196579366e+02 
8
Step 20000
1 1  3.605967480974e+02  -2.815841931154e+02  -2.299110163449e+02 
2 1 -7.077675508913e+01  -2.992036341843e+02   1.864579668181e+02 
3 1  2.671275045624e+01  -1.720078581601e+02   4.294127994509e+02 
4 1 -2.074592059469e+02  -4.983229127364e+01  -4.229627211104e+02 
5 1  3.474960115863e+02  -2.420599183638e+02   1.798466249329e+02 
6 1  4.333356630654e+02  -4.672629709443e+01   1.275969639079e+02 
7 1 -1.052104688149e+02   1.647584299884e+02  -1.055981972629e+01 
8 1  2.035778133097e+02   1.282373481645e+02   1.190995516396e+02 
8
Step 21000
1 1 -4.109950480033e+02   2.653853170753e+02   1.407806629036e+02 
2 1  1.280437665268e+01   4.029495752784e+02  -2.856747969702e+02 
3 1  1.741959614920e+00   1.136596261047e+02  -3.847545193770e+02 
4 1  3.341844399560e+02   2.680277646477e+02   4.983893861944e+02 
5 1 -2.719195532539e+02  -1.165033451218e+02  -1.304411374149e+02 
6 1 -7.341830193076e+02   1.735152040880e+02  -6.876564646847e+01 
7 1 -7.400785365856e+01   2.560264132786e+02  -5.151748967519e+02 
8 1  2.180236448066e+02  -4.219353981879e+02   1.837844254622e+02 
8
Step 22000
1 1  3.795198937158e+02  -2.350939216825e+02   1.919136559308e+01 
2 1  2.081844921387e+01  -3.306411461096e+02   2.708988490593e+02 
3 1  2.395797289412e+01  -6.320074934330e+01   3.044726423961e+02 
4 1 -3.136082379697e+02  -2.470405949409e+02  -4.400201389723e+02 
5 1 -1.336286807090e+02  -1.265530522956e+02   3.258033033792e+02 
6 1  2.028354059769e+02   3.829916876573e+02  -2.132393436938e+02 
7 1  6.422808743248e+02  -2.359719705518e+02   2.040944101488e+02 
8 1  3.663907082162e+00  -2.892444486984e+02   1.488941662479e+02 
8
Step 23000
1 1 -3.097973470979e+02   3.427274229483e+02  -1.677050467256e+02 
2 1 -8.015799805148e+01   2.526692747982e+02  -1.309676621341e+02 
3 1 -1.338229295689e+02  -1.054106674375e+02  -4.885824539281e+02 
4 1  3.950944435659e+02  -3.579872444865e+00   5.940777993537e+02 
5 1  4.386834830341e+01   3.352286832926e+02  -3.409455864554e+02 
6 1 -1.161017924650e+02   8.896049764032e+01  -1.327376957749e+02 
7 1  5.269475984589e+01  -1.699894230888e+02  -1.636492489376e+02 
8 1 -3.146781385210e+02   5.444269008522e+02   3.597622187801e+01 
8
Step 24000
1 1  2.584894241179e+02  -3.173821310516e+02   2.047450725225e+02 
2 1  2.053728403197e+01  -2.820994831171e+02   6.591801947036e+01 
3 1 -2.045325829681e+01   1.677098825945e+02   2.459300972476e+02 
4 1 -3.633755636101e+02   1.373987271881e+02  -5.946183479017e+02 
5 1 -1.682926892657e+02   1.480335821033e+02   4.113744196576e+02 
6 1  1.895295511929e+02  -4.406009600393e+02   1.904407312713e+02 
7 1 -1.048505753851e+02  -8.292047619883e+01   2.637699647257e+02 
8 1  3.036852981623e+02  -4.299641859631e+02  -9.835662141247e+01 
8
Step 25000
1 1 -7.875456399671e+01   1.743760105704e+02  -2.730736613728e+02 
2 1 -1.232203039771e+02   1.381330670720e+02  -1.174302336249e+02 
3 1 -6.340639363694e+01  -2.073369440467e+02  -1.403468369967e+02 
4 1  4.550406896846e+02  -1.265397575831e+02   5.030954883507e+02 
5 1  3.316653075924e+02  -3.309384256469e+02  -1.955175720697e+02 
6 1 -2.274272893826e+02   4.442381793019e+02  -2.562148353813e+02 
7 1 -2.036930619940e+02   5.620523928190e+02  -4.685427499416e+02 
8 1  1.948473719460e+02   2.725087950836e+02   3.276799966678e+02 
8
Step 26000
1 1 -8.494309445098e+00  -8.877073432458e+01   3.327061815230e+02 
2 1  5.043391567495e+01   1.579749168883e+01  -5.754991664012e+01 
3 1  1.102569427298e+02   2.858963632402e+02   1.711083223247e+02 
4 1 -2.027791825093e+02   1.844919788320e+02  -3.156397673999e+02 
5 1 -5.163560629382e+02  -1.951442167889e+02   2.904482595091e+02 
6 1 -5.024970143832e+02  -3.066717819121e+01   4.367028016032e+01 
7 1  5.223173187462e+02  -1.350851116224e+02   4.105361815596e+01 
8 1  4.422337195602e+01  -6.587667638674e+02  -5.409466683632e+01 
8
Step 27000
1 1  1.322176318901e+02   8.694552080858e+01  -4.272686513359e+02 
2 1 -6.249879579481e+01  -1.268129010671e+02   1.370077580485e+02 
3 1 -9.194746529420e+00  -3.616885157905e+02   8.783216157924e+01 
4 1  1.306833289367e+02  -4.493805761309e+02   2.436306619654e+02 
5 1  3.092400517586e+02  -1.455862638745e+02  -1.556699368908e+02 
6 1  4.083974691438e+02   6.082975025628e+02  -3.167681078671e+02 
7 1  2.160190269343e+02   1.780654560822e+02  -1.060502139367e+02 
8 1 -2.348104598295e+02   5.432502117342e+02   2.617859425631e+02 
8
Step 28000
1 1 -1.779265614412e+02   5.625398819134e+00   3.602153720611e+02 
2 1  3.783071902661e+01   1.571673514216e+02  -1.669079510345e+02 
3 1 -1.648183448348e+01   2.162880894703e+02  -2.922241989107e+02 
4 1 -1.465380210399e+02   3.163464182304e+02   5.117874351526e+00 
5 1 -3.346155167693e+02   3.580025071185e+02   1.062880541580e+02 
6 1 -1.516837772137e+02  -5.238789292909e+02   2.933815352675e+02 
7 1 -3.878174340699e+02  -2.392612126996e+02   1.137749731600e+02 
8 1  1.226791868154e+02  -3.012789354698e+02  -3.056110153453e+02 
8
Step 29000
1 1  3.724555567789e+02  -2.476549718884e+02  -2.276456630992e+02 
2 1  1.054969437164e+01  -3.274623963637e+02   1.817918108565e+02 
3 1 -1.027781932984e+02  -2.851584437905e+02   2.232867474245e+02 
4 1 -2.228363596733e+01  -3.081479123222e+02  -1.511564060397e+02 
5 1  4.596906826548e+02  -2.874500884487e+02   2.440442235645e+02 
6 1  2.903841396808e+02   1.977204858913e+02  -1.777437550978e+02 
7 1 -1.764810899500e+02   5.304562243985e+02  -7.757923967504e+01 
8 1  4.215864939574e+02   2.034305486199e+02   2.172483105392e+02 
8
Step 30000
1 1 -3.602520935570e+02   2.857499067588e+02   1.974769940840e+02 
2 1 -5.115547707615e+01   3.858632825056e+02  -1.792458708505e+02 
3 1 -9.226820735206e+01   2.627361814316e+02  -3.222624384619e+02 
4 1  3.408506857891e+02   3.355699160104e+02   2.671133802545e+02 
5 1 -3.546543374962e+02  -4.804357531549e+01  -3.673760477341e+01 
6 1 -8.720354468772e+02  -2.017184705342e+02  -4.816034695488e+01 
7 1 -6.383606210066e+01   1.729184008712e+02  -2.866101358033e+02 
8 1  1.684240569056e+02  -3.485089169313e+02  -9.035095784008e+00 
8
Step 31000
1 1  3.906607726902e+02  -2.200245211095e+02  -1.464527669157e+02 
2 1  5.802598759961e+01  -3.559721130414e+02   2.453842019875e+02 
3 1  2.999494446498e+01  -1.409098553680e+02   4.803681603608e+02 
4 1 -1.281007931803e+02  -4.060116253421e+02  -3.749684487362e+02 
5 1  3.234583750591e+01  -2.569688215620e+02   1.520695671838e+02 
6 1  4.749472523583e+02   2.991961572424e+02  -9.491915624281e+01 
7 1  2.359822485622e+02  -4.829452409028e+01   2.753820881461e+02 
8 1 -3.210111321746e+01   7.281401779137e+01   5.204706524941e+01 
8
Step 32000
1 1 -3.543136841197e+02   3.269405031029e+02  -3.477589267341e+01 
2 1 -9.452016403268e+01   3.739473685953e+02  -2.258163040584e+02 
3 1  1.157738263834e+01   8.903898362626e+01  -4.526193065276e+02 
4 1  2.081767940617e+02   8.036837978244e+00   4.976059677551e+02 
5 1 -1.596131049129e+02   3.807408494456e+02  -3.233313992977e+02 
6 1  4.637459146686e+01   6.783436212418e+01   9.594525241095e+01 
7 1 -3.602676249064e+02  -2.817216127300e+02  -9.197702701203e+01 
8 1 -3.075295681312e+02   3.378532628047e+02  -2.073507742048e+02 
8
Step 33000
1 1  3.485786362746e+02  -4.046672473678e+02   2.056913546119e+02 
2 1  8.357972781664e+01  -3.282642305872e+02   1.329724750813e+02 
3 1  2.683463109856e+01   3.139019550375e+00   2.764865345838e+02 
4 1 -4.593983204630e+02  -5.465176339405e+01  -5.414398938825e+02 
5 1 -3.297729626158e+00   4.842440848649e+01   3.863195220865e+02 
6 1  3.567304856689e+02  -3.546645013111e+02   2.750813829646e+02 
7 1 -2.808167957874e+02  -4.009745101324e+01   2.164908186040e+02 
8 1  5.573879114803e+02  -2.695437885006e+02  -1.137661550626e+02 
8
Step 34000
1 1 -2.209570091047e+02   3.065747621922e+02  -1.857140920572e+02 
2 1 -1.174141511098e+02   3.235345486654e+02  -1.630032652646e+02 
3 1 -4.756259119219e+01  -2.340750327208e+01  -3.085496013198e+02 
4 1  4.334774084354e+02  -3.030831929621e+01   5.095392683998e+02 
5 1  3.106644814562e+02  -1.096009696435e+02  -1.561203117646e+02 
6 1 -3.343490643445e+02   8.909962613154e+00  -2.645301677399e+02 
7 1 -3.790241288991e+02   4.335456286643e+02  -3.755031309129e+02 
8 1  3.375737903156e+01   4.340190251913e+02   1.101809343117e+02 
8
Step 35000
1 1  6.050444371803e+01  -1.199079394863e+02   2.802452495677e+02 
2 1  8.410104598266e+01  -7.234141712879e+01   5.208511578812e+01 
3 1  7.117465634734e+00   1.256593301295e+02   2.118553021240e+02 
4 1 -9.021800776906e+01   1.205122486632e+02  -2.883095950615e+02 
5 1 -2.527024134139e+02  -1.931767436503e+02   2.242392521811e+02 
6 1 -3.595054606945e+02  -3.060974215888e+02   8.090517041050e+01 
7 1  2.070641649179e+02   2.160231906345e+00   2.842730290962e+02 
8 1  1.509561969047e+02  -6.183180015436e+02  -1.513263546140e+02 
8
Step 36000
1 1 -2.118558463423e+01   2.412752501376e+02  -4.461319425102e+02 
2 1 -8.892567935182e+01   3.400620712917e+01   5.613984227403e+01 
3 1 -6.736639053564e+01  -1.629982370095e+02  -1.277325089090e+01 
4 1  2.972721704459e+02  -3.370695107581e+02   2.404033655350e+02 
5 1  2.709211905140e+02  -6.948027585594e+01  -2.116447144380e+02 
6 1  5.408251000765e+02   5.859900693373e+02  -2.051287167403e+02 
7 1 -1.627900873508e+02  -8.660072370113e+01  -4.944815177211e+01 
8 1 -3.258417482914e+02   7.382653646973e+02  -1.947753544602e+01 
8
Step 37000
1 1 -2.990743517203e+01  -1.284126889835e+02   4.057110241885e+02 
2 1  3.415890055454e+01   6.349153928699e+01  -5.814649961098e+01 
3 1 -2.983832831158e+01   2.555220621757e+02  -1.147083276114e+02 
4 1 -2.341040227865e+02   2.258467617782e+02  -2.105431439829e+02 
5 1 -4.204509237354e+02   3.499361010796e+02   9.928334376231e+01 
6 1  5.726945346446e+01  -4.649850246716e+02   4.401297241274e+02 
7 1 -3.798697167920e+02  -6.335563584828e+02   1.857808343662e+02 
8 1  2.394553701347e+02  -1.925325558825e+02  -3.470287157095e+02 
8
Step 38000
1 1  2.698770027188e+02  -1.211322846141e+02  -2.955101750909e+02 
2 1 -3.488184546569e+01  -1.697300540653e+02   7.086566057054e+01 
3 1 -7.775345711914e+01  -1.686239125887e+02   9.001124613987e+01 
4 1 -2.326472930306e+01  -4.584411055317e+02  -6.388995023175e+01 
5 1  5.536578100264e+02  -1.034879299838e+02   1.976767156632e+02 
6 1  3.177856075839e+02  -1.171096604608e+02  -1.276034751751e+02 
7 1 -4.211817417574e+02   5.098170278066e+02  -3.374195869055e+02 
8 1  5.538439149546e+02   7.748242630822e+02   2.695263023753e+02 
8
Step 39000
1 1 -2.904187865450e+02   1.480798182070e+02   2.333278706335e+02 
2 1 -7.454194548953e+01   2.630687380102e+02  -1.986018115172e+02 
3 1 -1.727304166732e+01   2.536750406690e+02  -2.411900722033e+02 
4 1  6.505126330857e+01   2.918264268705e+02   4.218077727479e+01 
5 1 -2.925726123151e+02   6.943546397914e+01   5.666524949162e+01 
6 1 -7.239672629862e+02  -5.303308606992e+02   3.990430547211e+01 
7 1 -4.048165285375e+01   2.284379432958e+02  -1.215742495066e+02 
8 1  2.720242695090e+02  -4.631341251637e+02   1.192692938909e+02 
8
Step 40000
1 1  3.325525893421e+02  -1.620901630464e+02  -2.849959413555e+02 
2 1  6.913423675968e+01  -3.474936543492e+02   1.642705026417e+02 
3 1  1.742937722377e+01  -3.173869366507e+02   4.016334620328e+02 
4 1  2.428338213544e+01  -2.525688224664e+02  -3.242077896747e+02 
5 1  2.713462135637e+02  -3.373146379403e+02   9.002509174137e+01 
6 1  2.675756953328e+02   4.751580765736e+02  -2.738480855543e+02 
7 1  5.722317243097e+02   2.470831978415e+02   1.547849137547e+02 
8 1 -1.691211546764e+02   6.998591567282e+01   3.480095424345e+02 
8
Step 41000
1 1 -3.654759884082e+02   3.401192074026e+02   7.173272714198e+01 
2 1 -9.560846716253e+01   3.985147533532e+02  -2.204369692915e+02 
3 1 -3.058531089120e+01   2.184506564403e+02  -3.707871192030e+02 
4 1  3.369473968202e+02   2.885964309699e+02   3.589626888888e+02 
5 1 -3.509649776229e+02   2.864700751520e+02  -3.452011411660e+02 
6 1 -1.836648162453e+02   9.947038932958e+01   1.289666472025e+02 
7 1 -3.095992371563e+02  -5.782225526319e+02  -1.027970345054e+02 
8 1 -4.066293870607e+02   2.504770077655e+02  -2.301022210743e+02 
8
Step 42000
1 1  3.453701720115e+02  -3.796178078449e+02   3.233518678586e+01 
2 1  1.009577658344e+02  -3.751313231473e+02   1.687831362053e+02 
3 1  3.767184073614e+00  -1.480221596386e+02   2.936474390243e+02 
4 1 -3.333178363701e+02  -1.892109930285e+02  -4.250292833879e+02 
5 1  3.969312389175e+01  -7.745679577277e+01   7.626140881437e+01 
6 1  5.812347036619e+02  -3.102002395908e+02   3.180244717755e+02 
7 1 -8.762161893172e+01   1.468240750944e+02   3.767712568727e+01 
8 1  4.415708637967e+02   1.127284262621e+02   1.837377384161e+02 
8
Step 43000
1 1 -2.900457537402e+02   2.612112471820e+02  -1.119483221271e+02 
2 1 -1.359998726646e+02   2.740418074908e+02  -1.840950683669e+02 
3 1 -3.261314156662e+01   1.379116206839e+02  -4.026307914367e+02 
4 1  2.589080302618e+02   1.633560550731e+01   3.123817187304e+02 
5 1  1.126038054550e+02   1.303829535514e+02  -1.566017884016e+02 
6 1 -1.050443137952e+02  -1.629995684762e+02   1.544366351466e+01 
7 1 -4.343488849380e+02   2.064393533361e+02  -4.363642160391e+02 
8 1 -9.242895854163e+00   4.231253726403e+02   1.972784438673e+02 
8
Step 44000
1 1  1.860626740991e+02  -3.111845089222e+02   2.832328901905e+02 
2 1  1.641716721048e+02  -2.323338961222e+02   1.097713384162e+02 
3 1  1.296855571180e+02  -9.110365053305e+01   2.100847710454e+02 
4 1 -1.832314341624e+02   1.061976715534e+02  -3.585971425998e+02 
5 1 -8.423744936321e+01  -9.602153843106e+01   1.500857994049e+02 
6 1 -1.680929282424e+02  -3.041525378035e+02   1.809892551668e+01 
7 1  2.029625357927e+02   1.078172739709e+02   2.597874171115e+02 
8 1  1.833663760628e+02  -6.247133252679e+02   2.158355988657e+02 
8
Step 45000
1 1 -1.398521543948e+02   2.835529380913e+02  -3.186016837567e+02 
2 1 -5.056559769981e+01   1.228449216054e+02  -6.081611319260e+01 
3 1  7.804799324288e+01  -5.692997251264e+01  -1.640087747102e+02 
4 1  3.918408842132e+02  -7.502297513745e+01   3.508089948630e+02 
5 1  2.207452308234e+02  -3.863547809365e+01  -1.572624609533e+02 
6 1 -1.867315048835e+02   5.680813352850e+02  -4.852421941203e+02 
7 1  1.186242646236e+02  -4.627362220549e-02  -5.187083146450e+01 
8 1 -5.521990405829e+02   5.216623586534e+02   4.959513865858e+01 
8
Step 46000
1 1  3.608088894273e+00  -2.134058974617e+02   4.166552394065e+02 
2 1  1.182133534159e+02  -1.490397262548e+02   7.416983598820e+01 
3 1  5.903649579464e+01   1.730305665138e+01   1.093886364494e+02 
4 1 -2.470273625296e+02   1.843153475411e+02  -1.420797527800e+02 
5 1 -4.724592892601e+02  -5.844729048886e+01   3.665726895224e+01 
6 1  9.283483454939e+01  -3.357802852913e+02   3.810648816162e+02 
7 1 -8.497876359163e+01  -6.374086057082e+02   2.008120285628e+02 
8 1  1.066946274502e+02  -1.033099997458e+02  -2.081643723428e+02 
8
Step 47000
1 1  8.877630620951e+01   1.006548114498e+02  -3.777172912967e+02 
2 1 -7.599998394675e+01  -7.401552776403e+01   2.347677979961e+01 
3 1 -5.249520849221e+01  -1.223301537161e+02  -2.479403589978e+00 
4 1  4.085242045871e+01  -4.507914141918e+02   1.819059351782e+01 
5 1  4.882357266517e+02  -1.287705254479e+02  -1.000806253905e+02 
6 1  6.893114004258e+02   4.542868645253e+02  -1.010427997860e+02 
7 1 -3.039482786483e+02   3.269498358966e+02  -3.407265596304e+02 
8 1 -9.634107067524e+01   7.671628384115e+02   2.518714160839e+02 
8
Step 48000
1 1 -1.664659197279e+02   5.076241996897e+00   4.826765232673e+02 
2 1  1.204609561954e+01   2.027138799906e+02  -3.744069010051e+01 
3 1  4.096089962913e+01   2.073285240531e+02  -1.461477453516e+02 
4 1 -1.679944991797e+02   2.677349656980e+02  -1.699108013168e+02 
5 1 -3.855903957616e+02   3.928915657170e+02   5.475340737135e+00 
6 1 -4.356694942378e+02  -5.171076062949e+02   3.551479041777e+02 
7 1 -1.491362517036e+02  -3.383577462680e+02   1.637660247812e+02 
8 1  9.872004099927e+01  -7.580283269177e+02  -2.064543820041e+02 
8
Step 49000
1 1  2.885321061251e+02  -1.537863711482e+02  -2.635128821993e+02 
2 1  1.075051535495e+02  -2.742860676341e+02   7.935581747747e+01 
3 1  1.153597905010e+02  -2.906303764384e+02   1.989888227046e+02 
4 1  4.127197092328e+01  -1.668499866517e+02  -2.024574147731e+02 
5 1  3.583052059140e+02  -1.929043536602e+02   2.144101488432e+02 
6 1  1.352588746468e+02   1.936320252467e+02  -2.338266595718e+02 
7 1  4.504296100915e+02   4.638601836270e+02   5.498903356832e+01 
8 1 -1.828639086593e+02   2.475795659599e+02   1.461039067966e+02 
8
Step 50000
1 1 -3.525392107738e+02   2.215727283184e+02   1.906788789172e+02 
2 1 -9.128682391474e+01   3.281167018191e+02  -1.835468462270e+02 
3 1  8.851156830960e+00   1.560837996539e+02  -2.568715114488e+02 
4 1  1.854120837306e+02   3.492700770059e+02   4.246071990334e+02 
5 1 -5.627317039471e+02   6.473634761069e+01   1.345316622099e+01 
6 1 -2.424722661804e+02  -7.177348801495e+01  -1.385845996172e+02 
7 1  1.393924594657e+02  -5.679182745018e+02   1.755797807953e+02 
8 1 -5.056314621022e+02   1.538835427012e+01  -4.163428798202e+02 
8
Step 51000
1 1  2.578134190458e+02  -1.978015154988e+02  -4.072986117184e+01 
2 1  1.055371026061e+02  -2.746198013151e+02   1.395487415365e+02 
3 1  2.877351611552e+01  -2.703002722449e+02   3.576973794159e+02 
4 1 -1.961560937691e+02  -1.729330330497e+02  -2.640446352527e+02 
5 1  6.408977586486e+01  -2.603711984356e+02   4.624755402192e+01 
6 1  7.532201991415e+02   3.105968203321e+01  -1.046016451450e+02 
7 1  3.514090396447e+02  -1.292975117112e+02   2.641713195761e+02 
8 1 -1.519165384437e+02   3.369383923815e+02   9.370881807237e+01 
8
Step 52000
1 1 -2.921582615612e+02   3.874125537728e+02  -2.728045849670e+01 
2 1 -1.271468317618e+02   3.832836033447e+02  -1.464806053064e+02 
3 1 -3.915855278604e+01   1.942077875459e+02  -2.387565042249e+02 
4 1  1.003206077787e+02   8.969912519144e+01   1.331370162530e+02 
5 1 -1.675527823623e+02   2.068708780964e+02  -1.827954784726e+02 
6 1 -3.303957519823e+01   1.712687772856e+02  -7.359892254615e+01 
7 1 -2.633667826419e+02  -4.825117555165e+02  -2.613815423074e+01 
8 1 -3.137742404317e+02   3.280195655312e+02  -1.559815121057e+02 
8
Step 53000
1 1  3.074630803237e+02  -3.596422779219e+02   1.574454095778e+02 
2 1  1.983703524080e+02  -3.368657341100e+02   1.252709431211e+02 
3 1  8.900278379593e+01  -2.127994858975e+02   2.442742945685e+02 
4 1 -3.081410432922e+02  -4.392694109456e+01  -4.555641665331e+02 
5 1  7.270116526167e+01   1.076642364690e+01   1.429149402070e+02 
6 1 -8.053989245197e+01  -3.362634615238e+02   4.017716107671e+02 
7 1  1.786065177861e+02   1.730336827877e+02   2.422728081426e+01 
8 1  5.011195166855e+02  -3.424162097105e+02   2.017001962339e+02 
8
Step 54000
1 1 -2.205991468198e+02   2.944992294814e+02  -2.580261798622e+02 
2 1 -1.840360138395e+02   2.618060421103e+02  -2.078741002952e+02 
3 1 -3.717781127695e+01   1.583296125630e+02  -3.550511326625e+02 
4 1  2.959912539404e+02  -2.176832169016e+01   3.671794508123e+02 
5 1  1.595004088641e+02   1.471323914063e+02   1.418395834445e+02 