8
Step 0
1 1 -1.617009810547e+02   3.499836431780e+02   9.670322036942e+01 
2 1  6.579416937860e+01   2.280060486291e+02  -1.582839607652e+02 
3 1 -6.135575297045e+01   6.867441165061e+01  -2.235871020339e+01 
4 1  3.367717746942e+02   6.945229931662e+01   5.895565159453e+02 
5 1 -1.941750986483e+02  -3.959948441136e+02   1.451362027938e+02 
6 1 -3.561674960723e+02   2.371270333453e+02   4.390690026849e+01 
7 1  6.398257805213e+01  -3.981415810091e+02  -1.052703156695e+02 
8 1  3.094942320484e+02  -9.294175695775e+01   8.728695809416e+00 
8
Step 1000
1 1 -3.254364800351e+02  -2.233959551476e+02   3.776535894089e+01 
2 1  2.790133532624e+02  -4.358964313162e+02  -1.177553510444e+01 
3 1 -1.166920901650e+02  -7.060900947160e+01   3.912549788153e+02 
4 1 -1.177098875767e+02   2.015282727392e+02   6.646744193034e+01 
5 1  3.114124759507e+02  -8.353495398418e+01  -4.908597703178e+00 
6 1  4.204590508116e+02  -5.868612667889e+02   1.572996262699e+02 
7 1 -9.526600834370e+01  -3.061765578660e+01   4.212718560624e+01 
8 1 -1.480450106934e+02  -6.246005201158e+02  -2.248338794283e+02 
8
Step 2000
1 1  2.806710780278e+02  -1.079596978987e+02  -1.129253484504e+02 
2 1  1.106059276791e+02  -5.579648911278e+02   3.458100458566e+02 
3 1 -3.708956887754e+01   5.075673379184e+01   4.962069019191e+01 
4 1  6.593642909166e+01  -3.795375171368e+02   1.209782645292e+02 
5 1  2.900448706893e+02   2.050348548818e+02   1.322469639317e+02 
6 1  3.679163615122e+02  -1.135529331819e+02  -1.204768241411e+02 
7 1  1.392196221956e+02  -1.457557621390e+02  -2.000441508099e+02 
8 1  2.269250979171e+02  -3.725889739817e+01  -1.165995501044e+02 
8
Step 3000
1 1  1.827088017329e+02   1.511648856478e+02  -2.310900480255e+02 
2 1  1.724376116026e+02  -4.814200532370e+02  -1.139705643160e+02 
3 1 -9.572999475872e+01   4.579493106576e+01   6.253100103135e+02 
4 1  3.586797974567e+02  -3.234314483518e+02   7.871104222443e+01 
5 1  1.644472719751e+02  -2.463641580737e+02  -1.232234702264e+02 
6 1  2.255889429052e+02   1.657910411147e+02  -6.362238735486e+01 
7 1 -3.703905269422e+02   4.598394156911e+01  -1.265759646826e+02 
8 1 -8.828538875960e+01  -1.177661346881e+02   5.291514050852e+01 
8
Step 4000
1 1 -2.214470212243e+02   2.921044633585e+02  -2.388137654013e+02 
2 1  2.356659788725e+02  -1.015677674101e+02  -1.670911980474e+02 
3 1  2.681474048216e+02  -1.873822817541e+02   2.697533885789e+02 
4 1  3.958394448574e+02  -1.772056327765e+02  -3.122062146009e+02 
5 1  5.648183991140e+01  -2.330852582546e+01   4.352828808489e+02 
6 1  2.094291050222e+02  -1.232547483450e+02   1.662779512778e+02 
7 1  1.034514895188e+02  -7.761489148864e+01  -3.053217079969e+02 
8 1 -3.236222539044e+02  -5.830525581326e+01  -2.087155017495e+02 
8
Step 5000
1 1 -1.210279206135e+02   9.113627034751e+01  -1.733557387719e+02 
2 1  3.048836088470e+02  -6.579498820847e+02  -1.331716536862e+02 
3 1 -4.648317374462e+01  -1.228762204903e+02   2.727874005511e+02 
4 1  6.076117228921e+02   1.568376841926e+02   1.566684587109e+01 
5 1  2.255625369478e+02  -3.075776335038e+01   3.227916436772e+02 
6 1  8.115591085160e+01   3.822946556406e+02   5.723245260474e+01 
7 1  1.170566733042e+02  -7.005895643215e+02  -3.567360363191e+02 
8 1 -2.799323934357e+02  -3.227608819414e+02  -1.892521198823e+02 
8
Step 6000
1 1  3.256136718010e+02  -6.118053688280e+02  -3.283289599850e+02 
2 1  4.823412984082e+02  -2.223292683816e+02  -9.122057150715e+01 
3 1 -2.600143629891e+02  -3.786365375144e+02   1.074945823847e+02 
4 1  2.546215947788e+02   2.198663545587e+02  -3.709048812480e+02 
5 1 -2.279091955019e+00  -2.058295165718e+02   8.783268520473e+01 
6 1  1.974202232088e+02  -5.540093914613e+01   1.422476027666e+02 
7 1  1.416359421746e+02  -2.609256443632e+02  -3.360652615981e+02 
8 1  4.706549192975e+02  -5.239353131431e+02  -4.367021092816e+01 
8
Step 7000
1 1  3.754753910434e+02  -2.645522812565e+02  -2.598829954988e+02 
2 1  3.145031485260e+02  -5.153073564068e+02   1.258880291775e+02 
3 1  2.816763600610e+02  -4.440026121861e+02   1.966774171016e+02 
4 1  3.326646633134e+02   1.186519848148e+01  -2.677123510390e+02 
5 1  1.036454726406e+02  -3.445995487590e+01  -1.250005240514e+02 
6 1 -1.642598512147e+02  -3.408118387349e+01   1.195131047676e+02 
7 1  1.468056336731e+02   6.817087234003e+01  -3.713922924343e+02 
8 1 -7.502598142612e+01   1.004275302685e+02  -1.019916809084e+02 
8
Step 8000
1 1  2.819187616426e+02   3.152098223985e+02  -6.621657951895e+01 
2 1  4.211023059337e+02  -3.882585872979e+02  -5.740728287631e+02 
3 1 -1.276181728789e+02   2.869457886452e+02  -9.639158214677e+01 
4 1  3.190154702254e+02  -1.953130019797e+02   1.314347039651e+02 
5 1  5.863771404736e+02  -1.407904619626e+01   1.929571209003e+02 
6 1  1.871548423060e+02   1.099114734885e+02   2.195441539406e+02 
7 1 -8.087587736778e+01  -1.482514850663e+02  -3.717372861134e+02 
8 1 -2.131643010271e+02  -1.076391706663e+02  -4.934455157903e+02 
8
Step 9000
1 1 -1.555473845131e+02   1.574468418081e+02  -3.832855662431e+02 
2 1  3.279299998490e+02  -3.871146588596e+02  -1.521030073972e+02 
3 1  2.251769573896e+02   5.976161601106e+01   1.213939456044e+02 
4 1  1.797985980169e+02  -1.783532400521e+02  -3.776402261878e+02 
5 1  1.322214615286e+02   1.147107549890e+02   2.137953759330e+02 
6 1  1.979237887454e+02  -2.274116582606e+02   2.674675219277e+02 
7 1 -2.753030233749e+02   4.093196593526e+01  -4.234374967008e+02 
8 1 -1.799884896024e+02  -3.828402975563e+02  -3.195373999683e+01 
8
Step 10000
1 1  2.635155888975e+02  -2.479564254243e+02  -1.449939194479e+02 
2 1  2.749406206470e+02  -2.358660692462e+02  -4.664945365358e+02 
3 1 -2.394074358585e+02   2.267853493782e+02   1.493887950201e+02 
4 1  5.167161481942e+02  -1.161886001984e+02  -3.086933429707e+02 
5 1  1.290027791165e+01   3.043508927529e+01  -4.877000312203e+01 
6 1  2.309049053241e+01  -1.343703883736e+02   5.935243780010e+01 
7 1  2.730088939859e+02  -3.782224372684e+02  -1.862307523790e+02 
8 1  4.314276735131e+01  -1.097670803338e+01  -3.259496759631e+01 
8
Step 11000
1 1  3.129243025529e+02  -4.496320920135e+02   1.665085056017e+02 
2 1  6.795895317904e+02  -6.885328038472e+02  -2.572559919357e+02 
3 1 -2.415742981420e+02   2.214911718595e+02  -1.627627101920e+02 
4 1  2.605721259759e+02   2.252988318405e+02  -4.305347701504e+02 
5 1 -4.125054120801e+02   2.969297995404e+02   3.273780515715e+02 
6 1 -5.990169522923e+01   1.658867300193e+02   1.234013288529e+02 
7 1  4.001778720965e+02  -2.789314443256e+02  -2.276956372861e+02 
8 1 -2.235964952557e+01  -1.122222159348e+02  -2.579528326991e+02 
8
Step 12000
1 1  2.615606874151e+02  -2.277139171264e+02  -1.074057615174e+02 
2 1  4.473243684091e+02   6.875427721268e+00  -2.545479362422e+02 
3 1 -5.593421457349e+02   5.976623638246e+01  -2.696221982504e+02 
4 1  5.235267792873e+02   1.358553190000e+02  -2.956419397027e+02 
5 1  1.417356092175e+02   2.262571718674e+01   2.095012253980e+02 
6 1  7.090179893643e+01   6.666636657991e+01   8.833629675526e+01 
7 1 -1.951274496736e+02  -1.829368048553e+02  -3.231650286782e+02 
8 1 -1.532623884329e+02   1.617514688281e+02  -8.065452949139e+01 
8
Step 13000
1 1  3.694725461962e+02   3.574973830579e+02  -2.697543098893e+02 
2 1  5.371135846375e+01   3.357970157112e-01  -4.118010005650e+01 
3 1 -3.999392656517e+02   2.477524098060e+02   1.570092110150e+02 
4 1  3.915205956220e+02   3.693165346870e+01  -4.149978835421e+01 
5 1  3.147720432635e+02   8.098681115857e+01   2.874564595137e+01 
6 1 -1.997527837501e+02   1.927876366785e+02   5.783784616100e+01 
7 1 -2.294104612087e+02  -9.587553632552e+01  -2.115270560408e+02 
8 1 -1.003718076787e+02  -1.271629990127e+01  -6.329226901641e+01 
8
Step 14000
1 1 -7.972124526088e+01   1.100774897565e+02  -9.949054143345e+01 
2 1  7.641663977378e+01   9.094466608851e+01  -5.554625964616e+02 
3 1 -1.945564853949e+02   3.087586915194e+02  -2.575310685072e+02 
4 1 -7.691339774915e+01  -3.514713234807e+01  -5.885252300965e+02 
5 1  4.019667720084e+02  -2.765163113482e+02   2.180128089696e+02 
6 1 -1.506579774055e+02  -2.040501420318e+02   3.071781371750e+02 
7 1 -1.683771577251e+01  -8.278502555979e+01   2.328178146693e+01 
8 1 -1.610140967974e+02  -3.099793526262e+01   2.289335676985e+02 
8
Step 15000
1 1  2.956340090429e+02  -2.693318341639e+02   2.318328261720e+02 
2 1  2.556958719556e+02  -6.952842379615e+02   9.095480342096e+01 
3 1 -1.738118453941e+02   5.770750861933e+02  -3.203357297314e+02 
4 1 -3.056886744379e+02   1.601499437455e+02  -5.977662277673e+02 
5 1 -2.713508595133e+02   2.538124003797e+02   1.228155440179e+01 
6 1  1.885785141793e+02   6.549131989457e+01   5.070812420618e+02 
7 1 -3.191508940640e+02  -4.132625781596e+01  -3.075999708011e+02 
8 1  1.540810307755e+02   7.710216163112e+01   9.469802016706e+01 
8
Step 16000
1 1  2.776764522442e+02  -1.884903710061e+02   3.244920973090e+02 
2 1  1.176654927323e+01   6.631523082903e+01  -3.527188334282e+02 
3 1 -5.385290663958e+02   3.624983217476e+02  -1.838145825826e+02 
4 1  1.188851306021e+02   1.610521477046e+02  -2.505853258951e+02 
5 1  2.533736571162e+02   5.124405841317e+02   2.601873966607e+02 
6 1 -9.109601231963e+01   2.454192040459e+02   3.598079748287e+02 
7 1 -3.849635442134e+01   8.731665628477e+01  -4.211157846309e+02 
8 1 -1.522304225339e+02  -3.690564922917e+02   5.437894548837e+01 
8
Step 17000
1 1  1.041011530545e+01   2.044310191692e+02   1.294339243686e+01 
2 1  6.386009224750e+01   1.362905855208e+02   3.069657458901e+02 
3 1 -2.736420357619e+02  -3.738150241840e+01   2.988869797294e+01 
4 1  3.292128875296e+02   1.058975411366e+02  -4.996047773725e+02 
5 1 -3.455637923329e+02   2.141737459920e+02   3.207784628540e+02 
6 1 -4.233970599602e+02   4.644815188093e+01   1.777651140029e+02 
7 1  1.556536679576e+02  -6.091956923863e+01  -9.530902990158e+01 
8 1 -1.444594470967e+02   5.839242421296e+02   7.711023273217e+01 
8
Step 18000
1 1 -2.464537463009e+02   4.077998470570e+02   2.736019357884e+02 
2 1  7.907840373801e+01   4.495093418498e+02  -2.412155144922e+02 
3 1 -7.462835859360e+02   1.181102730878e+02  -5.864641946291e+02 
4 1  1.823511426169e+02  -2.677988503872e+02  -3.764581209266e+02 
5 1 -2.800753941474e+02  -1.111541774640e+02   1.631234500558e+02 
6 1  2.120358463241e+02   2.138416203688e+02   5.850655723364e+02 
7 1 -2.465505231361e+02  -2.329159221148e+01   8.450901085481e+01 
8 1 -1.876943108568e+02   1.353134911258e+02   3.828495204417e+02 
8
Step 19000
1 1 -2.948861757053e+01   2.277700334866e-01   3.183929360412e+02 
2 1  1.374216521590e+02   2.175877650073e+01   2.826833270023e+02 
3 1 -4.315118726881e+02   2.341564450214e+02  -1.229090807745e+02 
4 1 -2.550286113599e+02   2.122780592858e+02  -5.250672858717e+02 
5 1  2.869506703337e+02   2.469710978904e+01   4.066755689880e+02 
6 1 -3.128506901824e+02   3.144917976742e+02   2.618434280419e+02 
7 1 -3.030782772934e+01   2.789488310105e+02  -6.663742555059e+01 
8 1 -5.140347168608e+01  -6.663957246295e+01   3.075718299467e+02 
8
Step 20000
1 1  8.737139026973e+00  -2.838166835513e+02   2.680404316662e+02 
2 1 -4.940242374194e+02   2.871239102221e+01   4.387904063986e+01 
3 1 -2.565343442101e+02   2.227933697897e+02  -2.645274678617e+02 
4 1 -3.091545691740e+02   2.398994455049e+02  -4.060471752982e+02 
5 1  4.241918754577e+01  -6.085861519018e+00   3.130721243092e+00 
6 1 -1.430519709116e+02   2.711094788662e+02   3.154978392185e+02 
7 1 -9.837260900120e+01  -1.502840764620e+02   1.936361443052e+02 
8 1 -1.216530836232e+02  -1.887469738956e+02   2.722170073519e+02 
8
Step 21000
1 1 -2.673446929806e+02   3.729130380656e+02   5.846482488682e+02 
2 1  1.521649694126e+02  -2.331658160630e+02   1.172162126837e+02 
3 1 -1.113030968292e+02   2.372670162287e+02   3.885714052443e+00 
4 1 -1.307422484196e+02  -3.502886289897e+01   1.753645707866e+02 
5 1 -3.261200167927e+02   4.580452859596e+02   2.495887892717e+00 
6 1 -1.999909749290e+02   4.153118918334e+02   2.411784293130e+02 
7 1 -6.124972139539e+01   3.882133100245e+02  -2.803014882712e+02 
8 1  3.722814365561e+02   1.809906914555e+02   9.940280546508e+01 
8
Step 22000
1 1 -1.663889593959e+02   4.894925169305e+02   2.825340861374e+02 
2 1 -1.143379353246e+02   3.130583867473e+02   2.158597639816e+02 
3 1 -2.815023291781e+02  -9.339026540978e+01  -5.077344866958e+02 
4 1 -4.793947764150e+02  -1.440063181083e+02  -2.153258024136e+02 
5 1  4.759707810855e+01   2.373249709052e+01   1.562906554365e+02 
6 1 -2.831150610315e+02  -1.071083417336e+02   3.761132065316e+02 
7 1  8.301015954727e+01   2.583478861708e+02   2.305079949463e+02 
8 1 -1.272442414514e+02   3.131688713985e+02   3.423782210052e+02 
8
Step 23000
1 1 -1.275948581332e+00   1.922087941323e+00   3.469810794084e+02 
2 1  1.044886620238e+02   4.436523646250e+02   9.278464265994e+01 
3 1 -4.531204957180e+02  -3.628551284953e+02  -2.084303802225e+02 
4 1  1.613358735914e+02  -1.552832887791e+02  -1.083771649201e+02 
5 1 -1.160252561236e+02   1.627280887006e+02   1.246858815185e+01 
6 1 -3.111436382916e+02   2.138887671685e+02   3.514534808510e+02 
7 1  1.941479604656e+02   6.366210937050e+01   3.215520307230e+01 
8 1 -2.364547994860e+02   1.049275010696e+02   4.596349492974e+02 
8
Step 24000
1 1 -4.389019872074e+02  -1.322830163900e+02   2.359611320682e+02 
2 1 -4.125283838237e+02   2.464829368303e+02   1.538820169064e+02 
3 1 -2.224024138266e+02   3.168871031051e+01   1.316727310467e+02 
4 1  1.076381046361e+02   7.590881459771e+01  -7.537634268764e+01 
5 1 -5.874773412021e+01   2.243754970791e+02  -5.435175720363e+01 
6 1 -1.789429131137e+02   3.201406815369e+01  -8.114182725405e+01 
7 1 -9.719871888973e+01  -1.843426221490e+02   1.987702877999e+02 
8 1  1.174338789463e+02  -2.169642184155e+02   6.070090938596e+02 
8
Step 25000
1 1  1.851657491392e+00  -5.110952686236e+01   3.253024542933e+02 
2 1  1.188198845865e+02   1.150572434687e+01   4.952349194434e+02 
3 1  1.623041674325e+02  -2.304676410636e+02  -1.639336371483e+02 
4 1 -6.075086776171e+02   5.104995480380e+02  -1.876368232749e+02 
5 1  2.581957679444e+02  -1.785891529885e+02   2.994068903070e+02 
6 1 -1.971517823314e+02   2.982917279685e+02  -6.894140558225e+01 
7 1  2.275598619146e+02   3.628454793405e+02  -9.207747267899e+01 
8 1  3.065150695873e+02   1.866024873545e+02   1.464236168186e+02 
8
Step 26000
1 1 -1.732949527104e+02   4.672086700558e+02   5.019571528907e+02 
2 1 -1.384323420976e+02   8.717487301086e+00   7.165273107909e+00 
3 1 -1.346194416839e+02  -2.225291357016e+02   1.353005173522e+01 
4 1 -3.590460284479e+02  -8.999795199080e+01  -3.977808517031e+01 
5 1  1.261178171031e+00  -1.400995181374e+02  -4.920734817481e+01 
6 1 -2.915264924612e+02   2.479575816100e+02   1.681061815893e+01 
7 1 -1.950786231297e+02  -6.240883498158e+00   1.127971293328e+02 
8 1  1.809947036329e+02   1.377633362712e+02   1.865521991188e+02 
8
Step 27000
1 1 -2.021312937302e+02   3.899484135130e+02   1.642812227580e+02 
2 1 -8.387029518436e+01   2.635449028596e+01   2.053648517749e+02 
3 1  4.527638220601e+02  -2.965158836183e+02   1.922479308387e+01 
4 1 -4.770601620593e+01   2.745306735526e+01   8.127765832545e+00 
5 1  2.404175166296e+02   2.436633264968e+02   1.825339562270e+02 
6 1 -7.232525936664e+01   6.752015108205e+01   6.043865263101e+01 
7 1 -1.590819388020e+02  -9.563035873746e+01   4.526463300239e+00 
8 1  4.639054856873e+02   4.334207408404e+02   4.285623222187e+02 
8
Step 28000
1 1 -2.965763739172e+02   3.175703230766e+01   1.080549566477e+02 
2 1 -3.418206491487e+02   2.535509118825e+01   4.630311518239e+01 
3 1  1.425148683710e+02  -8.903974987420e+01  -1.337631768488e+02 
4 1 -2.477033308940e+02  -1.620847264300e+02   2.370246166319e+02 
5 1 -6.979310259617e+01  -1.110676747390e+02  -1.410029930333e+02 
6 1 -3.293054551847e+02  -3.940245071617e+02   1.255343913093e+02 
7 1  7.265795381740e+01  -7.821641023044e+01  -3.174945300909e+02 
8 1  1.211108448401e+02   1.070816586607e+02   5.898314634075e+02 
8
Step 29000
1 1  5.036778298101e+00  -2.712871359055e+02   3.461122958434e+02 
2 1  1.377284987422e+02   3.536463981306e+02   3.160845327703e+02 
3 1 -1.131147087127e+02  -4.835565670533e+02   1.762989150603e+02 
4 1 -4.500556136492e+01  -1.834470049809e+02  -5.839076221054e+01 
5 1  2.374899552563e+02   2.517012628154e+02  -2.383454299710e+01 
6 1  3.126176355037e+01  -7.882939821172e+01  -1.482179852226e+02 
7 1  1.533209371659e+02   1.145647968039e+02  -3.325246977253e+02 
8 1  1.778915237968e+02   2.300813676437e+02   1.125868192309e+02 
8
Step 30000
1 1  3.027038034444e+02   8.465611291445e+01   6.439286097309e+01 
2 1 -5.042796403456e+02   1.571208669160e+02   4.395342553326e+02 
3 1  2.457825596994e+02  -2.858554046389e+02   1.530150189482e+02 
4 1 -9.483601930636e+01  -9.232312051630e+01  -8.027570932387e+01 
5 1 -1.726674479769e+02   1.859803547103e+02  -2.326285584899e+01 
6 1 -1.932251178545e+02  -1.341985903382e+01  -1.735625074217e+02 
7 1  1.788449481293e+02   9.168980129707e+00  -3.821000302967e+02 
8 1  2.794934851101e+02   2.454132450839e+02   3.585594634671e+02 
8
Step 31000
1 1 -7.374898095625e+01   1.797195737900e+02   1.573557339859e+02 
2 1  1.421881797450e+02  -3.870987571275e+02  -2.295298301398e+02 
3 1  7.805029629041e+02  -1.950784642628e+01   2.562863332700e+02 
4 1 -1.856942763358e+02   1.593120378073e+01   1.054742180625e+02 
5 1  2.208294051954e+02  -1.147406731198e+02  -2.328838594358e+02 
6 1 -1.061928936983e+02  -3.094350982799e+01  -1.800305451529e+02 
7 1  8.456422002281e+01   1.731122112739e+02   8.062029121116e+01 
8 1  2.568198925275e+02  -3.398181030261e+01   1.537346096083e+02 
8
Step 32000
1 1 -3.193074206319e+02   5.127089418702e+02  -1.767494736767e+02 
2 1 -1.079517325972e+02  -8.949886325485e+01   3.111240051952e+02 
3 1  3.760192591706e+01  -3.661988275189e+02  -8.028572022650e+01 
4 1 -3.143091523835e+02   5.767019808296e+01   1.819843582153e+02 
5 1  1.289703948401e+02  -5.277768450951e+02   3.694777685825e+02 
6 1 -5.044898432211e+02  -7.913295497898e+01  -2.777329112409e+02 
7 1  9.275531225087e+01  -3.593726709982e+02  -2.004806053985e+02 
8 1  4.977552460512e+02   8.313990271004e+01   2.831627426529e+02 
8
Step 33000
1 1  3.328356595388e+02  -2.873867666974e+02  -2.300797999092e+02 
2 1 -2.644539503701e+02   3.498726092694e+01   3.935424919580e+01 
3 1  7.441521719539e+02  -3.431435442502e+02   1.433726102669e+02 
4 1 -1.295673461868e+02  -2.886965322550e+02   3.744743096986e+02 
5 1  1.830558321216e+02  -4.749803156197e+02  -3.746600917369e+02 
6 1  1.719178905456e+02   6.493078959763e+00  -3.986300126007e+02 
7 1  1.289489001163e+02  -1.607624231640e+02  -4.784082615287e+01 
8 1  2.277384694511e+02   4.089538279245e+02  -4.930319464482e+01 
8
Step 34000
1 1 -5.154718508259e+01  -1.517537757696e+02  -2.398604296653e+02 
2 1 -1.207640959469e+02   1.086679905853e+01   2.012336589182e+02 
3 1  1.888547793431e+02  -3.031054288226e+02   5.363744336431e+01 
4 1 -2.202536473825e+02  -9.760761439249e+01   3.049561505860e+02 
5 1  1.934175507703e+02  -2.338879583298e+02  -4.645911328841e+02 
6 1 -3.969604744046e+02  -1.849547164523e+01  -5.799985893586e+02 
7 1  1.419057539264e+02  -2.348995512771e+02  -3.835483622232e+02 
8 1  2.907641772106e+02  -2.627732935951e+02   2.641040985279e+01 
8
Step 35000
1 1 -3.487919229768e+01  -5.129810192006e+02  -4.281367571122e+02 
2 1  2.665230126077e+02   2.482228401945e+01   4.716485897212e+02 
3 1  5.451046925819e+02  -2.490857639713e+02   5.393476393840e+00 
4 1  3.395299545605e+01   4.073261094449e+02   4.742387935003e+02 
5 1  3.781643007167e+02   2.165638427551e+01  -3.637046932022e+02 
6 1 -2.106911542180e+02   1.167618907487e+02  -4.014129659237e+02 
7 1  3.363614018990e+02  -7.851881643009e+01  -5.260135283011e+02 
8 1  1.889676791997e+02  -2.710674060292e+00   3.408764093760e+02 
8
Step 36000
1 1  1.608229043655e+02  -3.911020532975e+01  -3.925305673060e+02 
2 1 -3.591195697380e+02   4.055198049787e+01  -4.999999368504e+02 
3 1  4.935462867636e+02  -1.318411768262e+02   2.232251046318e+02 
4 1 -3.497155118425e+02  -2.070297379597e+02   4.039623566846e+02 
5 1 -3.345428796824e+02  -2.255683786655e+02  -2.523235162614e+02 
6 1  1.148372519845e+02  -5.979653732095e+02  -1.183582733522e+02 
7 1  3.431617058958e+02   5.965468283836e+01   6.297191796295e+01 
8 1  3.326964361657e+02  -2.244272927418e+01  -3.057359873268e+02 
8
Step 37000
1 1  3.867986960610e+01   1.123835975613e+02  -5.310336589309e+02 
2 1 -2.506171222827e+02  -5.454671403967e+02  -2.546881647943e+02 
3 1  4.911307075404e+02  -4.633440692785e+02   4.153378606391e+01 
4 1  1.072053114481e+02  -7.062334408411e+02   5.782535276216e+02 
5 1  4.028268081543e+02  -8.035049722721e+01  -1.690916445256e+02 
6 1 -5.563396781532e+02  -4.762730334713e+01  -4.455641464142e+02 
7 1  6.177814506719e+01  -3.951376226372e+01  -6.992613994992e+02 
8 1  1.921081775468e+02  -2.145427154244e+02   1.531419271880e+02 
8
Step 38000
1 1 -3.784578807766e+02  -3.560504322133e+00  -4.090535838523e+02 
2 1 -1.289241778408e+02  -2.956193611923e+02  -5.820563536711e+01 
3 1  4.708091606220e+02   5.272908929840e+00   1.907899085707e+02 
4 1 -1.814280530912e+02   2.993000516244e+02   3.597364726054e+01 
5 1  2.965226577334e+02  -2.563408731152e+02  -2.386989689836e+02 
6 1 -7.107164351442e+01  -4.451848650281e+02  -4.265340747881e+02 
7 1 -9.808553204677e+01  -3.042168765745e+02  -1.963087518534e+02 
8 1  2.813028676913e+02  -4.261527583850e+01  -1.120471040438e+02 
8
Step 39000
1 1  3.638927495908e+02  -9.873572585261e+02  -4.808177569400e+02 
2 1  2.458868020900e+01   2.100753270940e+02  -1.273684598189e+02 
3 1  2.983480173794e+02  -3.807886178524e+01   2.151162251741e+02 
4 1  2.588651979773e+02  -4.050137835378e+01   2.843603136188e+02 
5 1  2.151743339360e+02   3.064395328668e+02  -1.723728934037e+02 
6 1 -4.560854416473e+01  -2.863691494955e+01  -6.423384389793e+02 
7 1 -1.298630505237e+02  -1.357081425484e+02  -4.947937643972e+02 
8 1  1.919905159743e+02  -8.975416328429e+01  -1.406335589848e+02 
8
Step 40000
1 1  2.302087378915e+02  -9.153603914720e+01  -4.150316892676e+02 
2 1 -4.629177180398e+02   6.712592699670e+01  -3.603158064098e+01 
3 1  2.230484000524e+02  -1.144096012574e+02  -5.495431579425e+01 
4 1 -2.249254212736e+02   1.293262903014e+01   3.938191047402e+02 
5 1  2.212438048499e+02   1.493983043669e+02  -1.310646741309e+02 
6 1 -3.032326865891e+02  -8.547653124269e+01  -8.960811339473e+01 
7 1  1.841397878567e+02  -4.629516987049e+02  -5.367018602416e+02 
8 1  4.988373892013e+01   9.618051475243e+01  -6.332103771600e+01 
8
Step 41000
1 1 -1.591761980867e+02  -2.625473692024e+02  -6.348918556691e+02 
2 1 -1.568709183576e+02   1.843219348933e+02  -3.913787171403e+02 
3 1  4.338860607786e+02  -2.639880205870e+02   5.945216665647e+01 
4 1  1.145147441819e+02   2.040538531787e+02   4.856456108726e+02 
5 1  2.387876232158e+02  -3.057773441422e+02   9.469024957975e+01 
6 1 -1.105140699061e+02   4.812867337552e+01  -1.408848078893e+02 
7 1  1.419735398702e+01   2.388758228734e+02  -2.095823298674e+02 
8 1  5.245603915063e+01  -6.112551343211e+01   7.668301296346e+01 
8
Step 42000
1 1  1.365728117331e+02   9.797401545612e+00  -1.269582748264e+02 
2 1 -4.867331297388e+02  -1.143420834383e+02  -3.054147648653e+02 
3 1  1.144797061937e+02  -8.654280848232e+01  -3.420046316672e+02 
4 1  1.575747034641e+02  -1.443033947415e+01   2.942996225431e+02 
5 1  6.136197332069e+01   2.550076464668e+01  -3.482575836747e+02 
6 1 -5.391365185710e+02  -2.986524613003e+02  -7.491724591427e+01 
7 1  1.216381504063e+02  -3.438116972842e+02  -2.658871722933e+02 
8 1 -2.342897634877e+02  -2.489025649175e+02   2.448083007817e+00 
8
Step 43000
1 1  3.359193134221e+02   7.587167242159e+01   3.572172223606e+01 
2 1 -6.056602172553e+02  -4.272388013517e+02  -2.001400929249e+02 
3 1  5.026015551428e+02   2.931852960394e+02  -1.405786185030e+02 
4 1 -2.197468485666e+02   2.008295369695e+02   2.285486169067e+02 
5 1  4.858520560407e+02  -5.126312059962e+01  -2.625360298229e+02 
6 1 -1.375906550515e+02  -2.871904293601e+02  -5.825304897447e+01 
7 1  8.315930173584e+01   6.283581316289e+01  -1.944027200972e+02 
8 1 -1.136634639217e+02   1.409712688341e+02  -2.033845405736e+02 
8
Step 44000
1 1  1.057790603145e+02   1.278309890362e+02  -2.310224133268e+02 
2 1  1.557191932706e+02   6.957952612987e+01  -1.199342424017e+02 
3 1 -9.918231353346e+01   1.619885947309e+02   2.612711889627e+01 
4 1 -8.103489062433e-01   1.308281241634e+02   2.899104892723e+02 
5 1  4.104891920126e+02  -2.655872720434e+02  -5.821432925321e+01 
6 1 -1.118150063243e+02   1.743642557417e+02  -1.515466488258e+02 
7 1 -9.621625700575e+01   1.730788417078e+02  -1.637410525781e+02 
8 1  1.038551726310e+01  -1.720212128450e+02   9.639704627890e+00 
8
Step 45000
1 1  1.282452967799e+01  -2.043789958675e+02  -7.686578083635e+02 
2 1 -3.198675083766e+02  -1.253277933083e+02   6.189573448331e+01 
3 1 -2.106455193509e+02   3.351567744456e+02  -1.045238740905e+02 
4 1 -7.419118163347e+01   1.653362392373e+02   1.797247880716e+02 
5 1  3.309186515905e+02  -2.017520076126e+01   2.148120814881e+02 
6 1 -4.181312612745e+02  -1.555993973980e+02  -1.988106434100e+02 
7 1 -1.656056558516e+02  -7.232662984208e+01   1.584098448768e+02 
8 1  1.533651374751e+02  -1.243969804572e+01   9.997483809997e+01 
8
Step 46000
1 1 -4.494945797316e+01  -1.282031614001e+02   2.415768148426e+02 
2 1 -6.378898008872e+02   2.911049224585e+02  -4.579437350673e+02 
3 1  4.932719280371e+02   2.471021582714e+02   1.719455435149e+02 
4 1 -2.721740899048e+02   1.397412310408e+02   1.945863896165e+02 
5 1  1.993913276191e+02   1.239295464955e+02  -2.238070831375e+02 
6 1  8.399099354188e+01  -2.949387818060e+01   2.936733206435e+01 
7 1 -4.067250818327e+01   4.628291532623e+01   3.207777316281e+02 
8 1 -3.093823794423e+02  -8.505520860911e+01   2.707868542356e+02 
8
Step 47000
1 1  2.400330098659e+02   3.133968220492e+02   6.182944010253e+00 
2 1 -3.588657261864e+01  -2.666943539619e+02  -4.938067160463e+01 
3 1 -2.361726009881e+02   1.159420562980e+02  -3.514289648317e+02 
4 1 -3.257421319032e+01   2.193978849545e+02  -1.906671689932e+02 
5 1 -1.623433687691e+02  -4.612847419696e+02  -2.051828372319e+02 
6 1 -2.867557314545e+02   9.680206243367e-01   4.439701361012e+01 
7 1  2.035817812619e+02  -1.229438895575e+02   2.141308670260e+02 
8 1 -1.521365786785e+02   6.674290386962e+01   2.306919231717e+02 
8
Step 48000
1 1 -3.291906016234e+00   2.725347619060e+02   3.398957183202e+02 
2 1 -9.008296857945e+01   9.061721910551e+01   1.277986969649e+02 
3 1  1.589888494873e+02   1.741855863939e+02  -1.692941726111e+02 
4 1  1.599310148153e+02   1.942367453186e+00   1.729804894059e+02 
5 1  1.423288622603e+02  -6.108407756356e+01  -2.493245394718e+02 
6 1 -1.046306692137e+02  -1.241583258534e+02  -2.110712935853e+02 
7 1 -3.431523220905e+01   3.450479579514e+02  -1.670194521012e+02 
8 1 -4.067306342574e+02  -5.840052183234e+01  -2.200350199991e+01 
8
Step 49000
1 1  4.159440750803e+01   1.154365778194e+02  -1.973596253897e+02 
2 1 -4.197941264124e+02  -5.801427082819e+01  -3.543315984887e+02 
3 1  1.032918479276e+02   5.413012903840e+02   1.097456339608e+01 
4 1  1.078682411659e+02   3.743004871645e+02   3.569211217886e+02 
5 1  1.385658483573e+02   1.696191209088e+02  -3.169405827011e+02 
6 1 -1.600445363747e+02  -1.088542294369e+02   7.936830871794e+02 
7 1  2.322257969780e+02   5.264021973365e+01   1.917706558490e+02 
8 1 -2.077467043501e+02   3.015586078421e+02   1.622173569920e+02 
8
Step 50000
1 1  7.193694999441e+01  -6.335749014640e+01   1.485057260762e+02 
2 1 -1.306861243229e+02  -3.597623231505e+00   1.697398169938e+02 
3 1 -1.970498119029e+02   1.650264734107e+02  -2.105916129830e+02 
4 1 -2.356601518293e+02   2.467552377143e+02  -2.333377587781e+00 
5 1  1.699372390589e+02   1.892524562841e+02  -1.561870548492e+02 
6 1 -2.640479755589e+02   2.800506412325e+02   4.942147868807e+01 
7 1  3.356842759694e+01  -8.598579881879e+01   1.096399929165e+02 
8 1 -1.563435201977e+02  -1.397142782568e+02   6.081567294760e+02 
8
Step 51000
1 1 -8.681740146946e+01   2.121307620389e+02   3.947210836078e+02 
2 1 -3.806372709631e+02   3.057033962464e+02   3.584577301869e+01 
3 1  2.065819224475e+02   7.643554018373e+01  -1.935254945700e+02 
4 1 -1.608774585579e+02  -1.641786890336e+02   3.004170846096e+01 
5 1  1.579838757581e+01  -7.938446686977e+01  -1.714322008610e+02 
6 1 -3.297371787528e+02  -7.249700934499e+01   3.007216664274e+02 
7 1 -1.981227993064e+02   1.396165990296e+02   1.866017209576e+02 
8 1 -4.079134947408e+02  -2.302397952919e+02   3.839079274322e+02 
8
Step 52000
1 1  3.515464217917e+01   3.499931987858e+02   6.153611081676e+02 
2 1 -1.908803420947e+02   3.631984953021e+02  -6.190403355813e+01 
3 1  2.734509713170e+02   1.184125994723e+02  -3.800696565720e+02 
4 1  2.666250433092e+02  -3.723251288278e+02  -3.889435472531e+01 
5 1  3.671177622833e+02  -4.386124936140e+01  -1.876826072417e+02 
6 1 -2.338025646214e+02   3.684979559355e+02   1.754214769459e+02 
7 1  2.504433299691e+02   9.953184040858e+01   7.167820847858e+01 
8 1 -8.123203658156e+01   3.744560615444e+02   2.046972820511e+02 
8
Step 53000
1 1  1.134703128504e+02   1.946481971068e+02  -8.809724011585e+01 
2 1 -3.932202111584e+02  -1.982491383025e+02   1.270763017791e+02 
3 1  2.232385464214e+02   4.265755890127e+01  -3.092632774858e+02 
4 1  9.907946449130e+01   2.593221742130e+02  -1.210000926061e+02 
5 1  1.876949745308e+02  -3.251721464080e+01   3.668733844141e+01 
6 1 -1.779425083472e+02   1.320856599651e+02   2.262554834728e+02 
7 1  1.679220052142e+02   1.129310889008e+02   1.371229383589e+02 
8 1 -4.464444501257e+02   4.257122323724e+01   2.343051469467e+02 
8
Step 54000
1 1 -9.688452146696e+01  -4.141081635849e+02   4.177758991436e+02 
2 1  1.013962702958e+02   1.779844190734e+02  -1.855445260331e+01 
3 1 -2.569642387320e+02   4.568558483655e+02  -3.256797797658e+02 
4 1  2.551201946919e+02   3.741047116938e+02   8.836998096981e+01 
5 1 -6.373005911842e+00   1.153385882725e+02  -7.254770806973e+01 